  python dir          : /u/if/mamunm/src/espresso
  espresso dir        : /nfs/slac/g/suncatfs/sw/espv18/espresso-dynpy-beef/bin
  pseudo dir          : /u/if/mamunm/psp/gbrv1.5pbe
  ase-espresso py git : GITVERSION



     Program PWSCF v.5.1rc2 (svn rev. 11289) starts on  3May2018 at  8:58: 3 

     This program is part of the open-source Quantum ESPRESSO suite
     for quantum simulation of materials; please cite
         "P. Giannozzi et al., J. Phys.:Condens. Matter 21 395502 (2009);
          URL http://www.quantum-espresso.org", 
     in publications or presentations arising from this work. More details at
     http://www.quantum-espresso.org/quote

     Parallel version (MPI), running on    32 processors
     K-points division:     npool     =       4
     R & G space division:  proc/nbgrp/npool/nimage =       8
     Reading input from pw.inp
     Message from routine read_cards :
     DEPRECATED: no units specified in CELL_PARAMETERS card

     Current dimensions of program PWSCF are:
     Max number of different atomic species (ntypx) = 10
     Max number of k-points (npk) =  40000
     Max angular momentum in pseudopotentials (lmaxx) =  3
     Presently stress not available with electric field


     **************************************************************************
     Initializing libbeef V0.1.1 with the BEEF-vdW functional.
     Citation: Wellendorff et al., PRB 85, 235149 (2012).
     **************************************************************************


     IMPORTANT: XC functional enforced from input :
     Exchange-correlation      = BEEF-VDW ( 1  4 27 13 2)
     Any further DFT definition will be discarded
     Please, verify this is what you really want


     Subspace diagonalization in iterative solution of the eigenvalue problem:
     a serial algorithm will be used

 
     Parallelization info
     --------------------
     sticks:   dense  smooth     PW     G-vecs:    dense   smooth      PW
     Min         358     144     41                67928    17211    2707
     Max         359     145     43                67951    17239    2717
     Sum        2869    1159    337               543535   137813   21685
 


     bravais-lattice index     =            0
     lattice parameter (alat)  =       1.8897  a.u.
     unit-cell volume          =    4569.9960 (a.u.)^3
     number of atoms/cell      =           13
     number of atomic types    =            2
     number of electrons       =       198.00
     number of Kohn-Sham states=          109
     kinetic-energy cutoff     =      36.7493  Ry
     charge density cutoff     =     367.4932  Ry
     convergence threshold     =      1.0E-05
     mixing beta               =       0.3000
     number of iterations used =           10  plain     mixing
     Exchange-correlation      = BEEF-VDW ( 1  4 27 13 2)
     nstep                     =           50


     celldm(1)=   1.889726  celldm(2)=   0.000000  celldm(3)=   0.000000
     celldm(4)=   0.000000  celldm(5)=   0.000000  celldm(6)=   0.000000

     crystal axes: (cart. coord. in units of alat)
               a(1) = (   5.637663   0.000000   0.000000 )  
               a(2) = (   2.818831   4.882359   0.000000 )  
               a(3) = (   0.000000   0.000000  24.603132 )  

     reciprocal axes: (cart. coord. in units 2 pi/alat)
               b(1) = (  0.177378 -0.102410  0.000000 )  
               b(2) = (  0.000000  0.204819  0.000000 )  
               b(3) = (  0.000000  0.000000  0.040645 )  


     PseudoPot. # 1 for Pd read from file:
     /u/if/mamunm/psp/gbrv1.5pbe/Pd.UPF
     MD5 check sum: 2d733d2bc2cbfd217af676df1668a4bc
     Pseudo is Ultrasoft + core correction, Zval = 16.0
     Generated by new atomic code, or converted to UPF format
     Using radial grid of  887 points,  6 beta functions with: 
                l(1) =   0
                l(2) =   0
                l(3) =   1
                l(4) =   1
                l(5) =   2
                l(6) =   2
     Q(r) pseudized with  8 coefficients,  rinner =    1.130   1.130   1.130
                                                       1.130   1.130

     PseudoPot. # 2 for S  read from file:
     /u/if/mamunm/psp/gbrv1.5pbe/S.UPF
     MD5 check sum: 88d86576ff6df21479756cfb9bdac1df
     Pseudo is Ultrasoft + core correction, Zval =  6.0
     Generated by new atomic code, or converted to UPF format
     Using radial grid of  907 points,  6 beta functions with: 
                l(1) =   0
                l(2) =   0
                l(3) =   1
                l(4) =   1
                l(5) =   2
                l(6) =   2
     Q(r) pseudized with  8 coefficients,  rinner =    1.300   1.300   1.300
                                                       1.300   1.300

     vdW kernel table read from file vdW_kernel_table
     MD5 check sum: 095c7af220d748ca6e76c0b4c6cfb241

     atomic species   valence    mass     pseudopotential
        Pd1           16.00   106.42000     Pd( 1.00)
        S1             6.00    32.06000     S ( 1.00)

     No symmetry found



   Cartesian axes

     site n.     atom                  positions (alat units)
         1           Pd1 tau(   1) = (   1.4094157   0.8137265  10.0000000  )
         2           Pd1 tau(   2) = (   4.2282471   0.8137265  10.0000000  )
         3           Pd1 tau(   3) = (   2.8188314   3.2549061  10.0000000  )
         4           Pd1 tau(   4) = (   5.6376627   3.2549061  10.0000000  )
         5           Pd1 tau(   5) = (   5.6376627   1.6274531  12.3015662  )
         6           Pd1 tau(   6) = (   2.8188314   1.6274531  12.3015662  )
         7           Pd1 tau(   7) = (   7.0470784   4.0686326  12.3015662  )
         8           Pd1 tau(   8) = (   4.2282471   4.0686326  12.3015662  )
         9           Pd1 tau(   9) = (   0.0000000   0.0000000  14.6031324  )
        10           Pd1 tau(  10) = (   2.8188314   0.0000000  14.6031324  )
        11           Pd1 tau(  11) = (   1.4094157   2.4411796  14.6031324  )
        12           Pd1 tau(  12) = (   4.2282471   2.4411796  14.6031324  )
        13           S1  tau(  13) = (   2.8188314   1.6274531  16.1891324  )

     number of k points=    20  Fermi-Dirac smearing, width (Ry)=  0.0110
                       cart. coord. in units 2pi/alat
        k(    1) = (   0.0000000   0.0000000   0.0000000), wk =   0.0555556
        k(    2) = (   0.0000000   0.0341365   0.0000000), wk =   0.1111111
        k(    3) = (   0.0000000   0.0682730   0.0000000), wk =   0.1111111
        k(    4) = (   0.0000000  -0.1024095   0.0000000), wk =   0.0555556
        k(    5) = (   0.0295631  -0.0170683   0.0000000), wk =   0.1111111
        k(    6) = (   0.0295631   0.0170683   0.0000000), wk =   0.1111111
        k(    7) = (   0.0295631   0.0512048   0.0000000), wk =   0.1111111
        k(    8) = (   0.0295631  -0.1194778   0.0000000), wk =   0.1111111
        k(    9) = (   0.0295631  -0.0853413   0.0000000), wk =   0.1111111
        k(   10) = (   0.0295631  -0.0512048   0.0000000), wk =   0.1111111
        k(   11) = (   0.0591262  -0.0341365   0.0000000), wk =   0.1111111
        k(   12) = (   0.0591262  -0.0000000   0.0000000), wk =   0.1111111
        k(   13) = (   0.0591262   0.0341365   0.0000000), wk =   0.1111111
        k(   14) = (   0.0591262  -0.1365460   0.0000000), wk =   0.1111111
        k(   15) = (   0.0591262  -0.1024095   0.0000000), wk =   0.1111111
        k(   16) = (   0.0591262  -0.0682730   0.0000000), wk =   0.1111111
        k(   17) = (  -0.0886892   0.0512048   0.0000000), wk =   0.0555556
        k(   18) = (  -0.0886892   0.0853413   0.0000000), wk =   0.1111111
        k(   19) = (  -0.0886892   0.1194778   0.0000000), wk =   0.1111111
        k(   20) = (  -0.0886892  -0.0512048   0.0000000), wk =   0.0555556

     Dense  grid:   543535 G-vectors     FFT dimensions: (  72,  72, 288)

     Smooth grid:   137813 G-vectors     FFT dimensions: (  45,  45, 180)

     Largest allocated arrays     est. size (Mb)     dimensions
        Kohn-Sham Wavefunctions         3.65 Mb     (    2194,  109)
        NL pseudopotentials             7.83 Mb     (    2194,  234)
        Each V/rho on FFT grid          2.85 Mb     (  186624)
        Each G-vector array             0.52 Mb     (   67930)
        G-vector shells                 0.13 Mb     (   17595)
     Largest temporary arrays     est. size (Mb)     dimensions
        Auxiliary wavefunctions        14.60 Mb     (    2194,  436)
        Each subspace H/S matrix        2.90 Mb     (     436,  436)
        Each <psi_i|beta_j> matrix      0.39 Mb     (     234,  109)
        Arrays for rho mixing          28.48 Mb     (  186624,   10)

     Initial potential from superposition of free atoms
     Check: negative starting charge=   -0.903951

     starting charge  191.99988, renormalised to  198.00000

     negative rho (up, down):  9.322E-01 0.000E+00


     ************************************************************************
     *
     * You are using vdW-DF for exchange-correlation in this calculation.
     * Please cite the following three references that made this development
     * possible:
     *
     *   M. Dion, H. Rydberg, E. Schroder, D. C. Langreth, and
     *   B. I. Lundqvist, Phys. Rev. Lett. 92, 246401 (2004).
     *
     *   T. Thonhauser, V. R. Cooper, S. Li, A. Puzder, P. Hyldgaard, and
     *   D. C. Langreth, Phys. Rev. B 76, 125112 (2007).
     *
     *   G. Roman-Perez and J. M. Soler, Phys. Rev. Lett. 103, 096102 (2009).
     *
     *
     * If you are using vdW-DF2, please also cite:
     *
     *   K. Lee, E. D. Murray, L. Kong, B. I. Lundqvist, and
     *   D. C. Langreth, Phys. Rev. B 82, 081101(R) (2010).
     *
     *
     * If you are calculating the stress with vdW-DF, please also cite:
     *
     *   R. Sabatini, E. Kucukbenli, B. Kolb, T. Thonhauser, and
     *   S. de Gironcoli, J. Phys.: Condens. Matter 24, 424209 (2012).
     *
     ************************************************************************

     Carrying out vdW-DF run using the following parameters:

     Nqs =      20    Nr_points =    1024   r_max =   100.000
     q_mesh =
               0.00001000     0.04494208     0.09755937     0.15916263
               0.23128650     0.31572767     0.41458969     0.53033537
               0.66584808     0.82450364     1.01025438     1.22772762
               1.48234092     1.78043706     2.12944203     2.53805004
               3.01644009     3.57652955     4.23227104     5.00000000

     Gradients computed in reciprocal space

     ************************************************************************


 
     Adding external electric field

     Computed dipole along edir(3) : 
        Dipole               -1.3772 Ry au,         -3.5005 Debye
        Dipole field         -0.0038 Ry au
 
        Potential amp.        0.3433 Ry
        Total length         45.3309 bohr
 
     Starting wfc are  148 randomized atomic wfcs

     total cpu time spent up to now is       12.2 secs

     per-process dynamical memory:    84.1 Mb

     Self-consistent Calculation

     iteration #  1     ecut=    36.75 Ry     beta=0.30
     Davidson diagonalization with overlap
     ethr =  1.00E-02,  avg # of iterations =  5.2

     negative rho (up, down):  9.262E-01 0.000E+00
 
     Adding external electric field

     Computed dipole along edir(3) : 
        Dipole               28.0165 Ry au,         71.2109 Debye
        Dipole field          0.0770 Ry au
 
        Potential amp.       -6.9845 Ry
        Total length         45.3309 bohr
 

     total cpu time spent up to now is       34.3 secs

     total energy              =   -2372.20666007 Ry
     Harris-Foulkes estimate   =   -2424.45628285 Ry
     estimated scf accuracy    <     110.53934947 Ry

     iteration #  2     ecut=    36.75 Ry     beta=0.30
     Davidson diagonalization with overlap
     ethr =  1.00E-02,  avg # of iterations = 16.4

     negative rho (up, down):  9.208E-01 0.000E+00
 
     Adding external electric field

     Computed dipole along edir(3) : 
        Dipole                2.1841 Ry au,          5.5514 Debye
        Dipole field          0.0060 Ry au
 
        Potential amp.       -0.5445 Ry
        Total length         45.3309 bohr
 

     total cpu time spent up to now is       81.8 secs

     total energy              =   -2229.57566272 Ry
     Harris-Foulkes estimate   =   -2687.37917480 Ry
     estimated scf accuracy    <   13765.62743594 Ry

     iteration #  3     ecut=    36.75 Ry     beta=0.30
     Davidson diagonalization with overlap
     ethr =  1.00E-02,  avg # of iterations =  7.5

     negative rho (up, down):  9.289E-01 0.000E+00
 
     Adding external electric field

     Computed dipole along edir(3) : 
        Dipole                4.1072 Ry au,         10.4394 Debye
        Dipole field          0.0113 Ry au
 
        Potential amp.       -1.0239 Ry
        Total length         45.3309 bohr
 

     total cpu time spent up to now is      121.6 secs

     total energy              =   -2394.47852106 Ry
     Harris-Foulkes estimate   =   -2472.81978017 Ry
     estimated scf accuracy    <    1295.00706205 Ry

     iteration #  4     ecut=    36.75 Ry     beta=0.30
     Davidson diagonalization with overlap
     ethr =  1.00E-02,  avg # of iterations =  5.7

     negative rho (up, down):  9.800E-01 0.000E+00
 
     Adding external electric field

     Computed dipole along edir(3) : 
        Dipole                4.3561 Ry au,         11.0721 Debye
        Dipole field          0.0120 Ry au
 
        Potential amp.       -1.0860 Ry
        Total length         45.3309 bohr
 

     total cpu time spent up to now is      151.8 secs

     total energy              =   -2419.89166334 Ry
     Harris-Foulkes estimate   =   -2424.99881108 Ry
     estimated scf accuracy    <      22.79356039 Ry

     iteration #  5     ecut=    36.75 Ry     beta=0.30
     Davidson diagonalization with overlap
     ethr =  1.00E-02,  avg # of iterations =  2.0

     negative rho (up, down):  9.338E-01 0.000E+00
 
     Adding external electric field

     Computed dipole along edir(3) : 
        Dipole                2.4962 Ry au,          6.3447 Debye
        Dipole field          0.0069 Ry au
 
        Potential amp.       -0.6223 Ry
        Total length         45.3309 bohr
 

     total cpu time spent up to now is      170.7 secs

     total energy              =   -2421.74583065 Ry
     Harris-Foulkes estimate   =   -2423.34951830 Ry
     estimated scf accuracy    <      11.33021015 Ry

     iteration #  6     ecut=    36.75 Ry     beta=0.30
     Davidson diagonalization with overlap
     ethr =  5.72E-03,  avg # of iterations =  1.8

     negative rho (up, down):  9.408E-01 0.000E+00
 
     Adding external electric field

     Computed dipole along edir(3) : 
        Dipole                1.7683 Ry au,          4.4945 Debye
        Dipole field          0.0049 Ry au
 
        Potential amp.       -0.4408 Ry
        Total length         45.3309 bohr
 

     total cpu time spent up to now is      189.7 secs

     total energy              =   -2421.61086540 Ry
     Harris-Foulkes estimate   =   -2422.28166000 Ry
     estimated scf accuracy    <      11.04965178 Ry

     iteration #  7     ecut=    36.75 Ry     beta=0.30
     Davidson diagonalization with overlap
     ethr =  5.58E-03,  avg # of iterations =  1.1

     negative rho (up, down):  9.358E-01 0.000E+00
 
     Adding external electric field

     Computed dipole along edir(3) : 
        Dipole                1.1620 Ry au,          2.9534 Debye
        Dipole field          0.0032 Ry au
 
        Potential amp.       -0.2897 Ry
        Total length         45.3309 bohr
 

     total cpu time spent up to now is      208.0 secs

     total energy              =   -2421.93169507 Ry
     Harris-Foulkes estimate   =   -2422.05586554 Ry
     estimated scf accuracy    <       1.98479792 Ry

     iteration #  8     ecut=    36.75 Ry     beta=0.30
     Davidson diagonalization with overlap
     ethr =  1.00E-03,  avg # of iterations =  2.1

     negative rho (up, down):  9.363E-01 0.000E+00
 
     Adding external electric field

     Computed dipole along edir(3) : 
        Dipole                0.9586 Ry au,          2.4365 Debye
        Dipole field          0.0026 Ry au
 
        Potential amp.       -0.2390 Ry
        Total length         45.3309 bohr
 

     total cpu time spent up to now is      227.0 secs

     total energy              =   -2421.92430255 Ry
     Harris-Foulkes estimate   =   -2421.97176293 Ry
     estimated scf accuracy    <       0.62853934 Ry

     iteration #  9     ecut=    36.75 Ry     beta=0.30
     Davidson diagonalization with overlap
     ethr =  3.17E-04,  avg # of iterations =  1.1

     negative rho (up, down):  9.377E-01 0.000E+00
 
     Adding external electric field

     Computed dipole along edir(3) : 
        Dipole                0.5287 Ry au,          1.3437 Debye
        Dipole field          0.0015 Ry au
 
        Potential amp.       -0.1318 Ry
        Total length         45.3309 bohr
 

     total cpu time spent up to now is      245.4 secs

     total energy              =   -2421.90898702 Ry
     Harris-Foulkes estimate   =   -2421.94949088 Ry
     estimated scf accuracy    <       0.16044273 Ry

     iteration # 10     ecut=    36.75 Ry     beta=0.30
     Davidson diagonalization with overlap
     ethr =  8.10E-05,  avg # of iterations =  4.0

     negative rho (up, down):  9.386E-01 0.000E+00
 
     Adding external electric field

     Computed dipole along edir(3) : 
        Dipole                0.2407 Ry au,          0.6119 Debye
        Dipole field          0.0007 Ry au
 
        Potential amp.       -0.0600 Ry
        Total length         45.3309 bohr
 

     total cpu time spent up to now is      265.3 secs

     total energy              =   -2421.90663658 Ry
     Harris-Foulkes estimate   =   -2421.92986669 Ry
     estimated scf accuracy    <       0.26644527 Ry

     iteration # 11     ecut=    36.75 Ry     beta=0.30
     Davidson diagonalization with overlap
     ethr =  8.10E-05,  avg # of iterations =  1.9

     negative rho (up, down):  9.400E-01 0.000E+00
 
     Adding external electric field

     Computed dipole along edir(3) : 
        Dipole               -0.1787 Ry au,         -0.4543 Debye
        Dipole field         -0.0005 Ry au
 
        Potential amp.        0.0446 Ry
        Total length         45.3309 bohr
 

     total cpu time spent up to now is      284.2 secs

     total energy              =   -2421.90440464 Ry
     Harris-Foulkes estimate   =   -2421.91544611 Ry
     estimated scf accuracy    <       0.04980747 Ry

     iteration # 12     ecut=    36.75 Ry     beta=0.30
     Davidson diagonalization with overlap
     ethr =  2.52E-05,  avg # of iterations =  4.5

     negative rho (up, down):  9.401E-01 0.000E+00
 
     Adding external electric field

     Computed dipole along edir(3) : 
        Dipole               -0.1255 Ry au,         -0.3191 Debye
        Dipole field         -0.0003 Ry au
 
        Potential amp.        0.0313 Ry
        Total length         45.3309 bohr
 

     total cpu time spent up to now is      305.1 secs

     total energy              =   -2421.90654979 Ry
     Harris-Foulkes estimate   =   -2421.91163766 Ry
     estimated scf accuracy    <       0.09862151 Ry

     iteration # 13     ecut=    36.75 Ry     beta=0.30
     Davidson diagonalization with overlap
     ethr =  2.52E-05,  avg # of iterations =  1.0

     negative rho (up, down):  9.404E-01 0.000E+00
 
     Adding external electric field

     Computed dipole along edir(3) : 
        Dipole               -0.0677 Ry au,         -0.1720 Debye
        Dipole field         -0.0002 Ry au
 
        Potential amp.        0.0169 Ry
        Total length         45.3309 bohr
 

     total cpu time spent up to now is      323.9 secs

     total energy              =   -2421.90893943 Ry
     Harris-Foulkes estimate   =   -2421.90955140 Ry
     estimated scf accuracy    <       0.02483057 Ry

     iteration # 14     ecut=    36.75 Ry     beta=0.30
     Davidson diagonalization with overlap
     ethr =  1.25E-05,  avg # of iterations =  1.1

     negative rho (up, down):  9.408E-01 0.000E+00
 
     Adding external electric field

     Computed dipole along edir(3) : 
        Dipole               -0.0246 Ry au,         -0.0625 Debye
        Dipole field         -0.0001 Ry au
 
        Potential amp.        0.0061 Ry
        Total length         45.3309 bohr
 

     total cpu time spent up to now is      342.8 secs

     total energy              =   -2421.90742120 Ry
     Harris-Foulkes estimate   =   -2421.90938782 Ry
     estimated scf accuracy    <       0.03417846 Ry

     iteration # 15     ecut=    36.75 Ry     beta=0.30
     Davidson diagonalization with overlap
     ethr =  1.25E-05,  avg # of iterations =  3.3

     negative rho (up, down):  9.416E-01 0.000E+00
 
     Adding external electric field

     Computed dipole along edir(3) : 
        Dipole               -0.0934 Ry au,         -0.2375 Debye
        Dipole field         -0.0003 Ry au
 
        Potential amp.        0.0233 Ry
        Total length         45.3309 bohr
 

     total cpu time spent up to now is      362.8 secs

     total energy              =   -2421.90839474 Ry
     Harris-Foulkes estimate   =   -2421.90975515 Ry
     estimated scf accuracy    <       0.03132177 Ry

     iteration # 16     ecut=    36.75 Ry     beta=0.30
     Davidson diagonalization with overlap
     ethr =  1.25E-05,  avg # of iterations =  1.1

     negative rho (up, down):  9.421E-01 0.000E+00
 
     Adding external electric field

     Computed dipole along edir(3) : 
        Dipole               -0.0778 Ry au,         -0.1977 Debye
        Dipole field         -0.0002 Ry au
 
        Potential amp.        0.0194 Ry
        Total length         45.3309 bohr
 

     total cpu time spent up to now is      381.7 secs

     total energy              =   -2421.90901803 Ry
     Harris-Foulkes estimate   =   -2421.90906560 Ry
     estimated scf accuracy    <       0.00048260 Ry

     iteration # 17     ecut=    36.75 Ry     beta=0.30
     Davidson diagonalization with overlap
     ethr =  2.44E-07,  avg # of iterations =  2.8

     negative rho (up, down):  9.423E-01 0.000E+00
 
     Adding external electric field

     Computed dipole along edir(3) : 
        Dipole               -0.0747 Ry au,         -0.1898 Debye
        Dipole field         -0.0002 Ry au
 
        Potential amp.        0.0186 Ry
        Total length         45.3309 bohr
 

     total cpu time spent up to now is      402.3 secs

     total energy              =   -2421.90905605 Ry
     Harris-Foulkes estimate   =   -2421.90905997 Ry
     estimated scf accuracy    <       0.00002675 Ry

     iteration # 18     ecut=    36.75 Ry     beta=0.30
     Davidson diagonalization with overlap
     ethr =  1.35E-08,  avg # of iterations =  2.0

     negative rho (up, down):  9.423E-01 0.000E+00
 
     Adding external electric field

     Computed dipole along edir(3) : 
        Dipole               -0.0748 Ry au,         -0.1901 Debye
        Dipole field         -0.0002 Ry au
 
        Potential amp.        0.0186 Ry
        Total length         45.3309 bohr
 

     total cpu time spent up to now is      422.0 secs

     total energy              =   -2421.90905582 Ry
     Harris-Foulkes estimate   =   -2421.90905866 Ry
     estimated scf accuracy    <       0.00003465 Ry

     iteration # 19     ecut=    36.75 Ry     beta=0.30
     Davidson diagonalization with overlap
     ethr =  1.35E-08,  avg # of iterations =  1.1

     negative rho (up, down):  9.424E-01 0.000E+00
 
     Adding external electric field

     Computed dipole along edir(3) : 
        Dipole               -0.0721 Ry au,         -0.1834 Debye
        Dipole field         -0.0002 Ry au
 
        Potential amp.        0.0180 Ry
        Total length         45.3309 bohr
 

     total cpu time spent up to now is      440.9 secs

     total energy              =   -2421.90905639 Ry
     Harris-Foulkes estimate   =   -2421.90905891 Ry
     estimated scf accuracy    <       0.00001802 Ry

     iteration # 20     ecut=    36.75 Ry     beta=0.30
     Davidson diagonalization with overlap
     ethr =  9.10E-09,  avg # of iterations =  1.1

     negative rho (up, down):  9.427E-01 0.000E+00

     negative rho (up, down):  9.427E-01 0.000E+00

     negative rho (up, down):  9.427E-01 0.000E+00

     negative rho (up, down):  9.427E-01 0.000E+00

     negative rho (up, down):  9.427E-01 0.000E+00

     negative rho (up, down):  9.427E-01 0.000E+00

     negative rho (up, down):  9.427E-01 0.000E+00

     negative rho (up, down):  9.427E-01 0.000E+00

     negative rho (up, down):  9.427E-01 0.000E+00

     negative rho (up, down):  9.427E-01 0.000E+00

     negative rho (up, down):  9.427E-01 0.000E+00

     negative rho (up, down):  9.427E-01 0.000E+00

     negative rho (up, down):  9.427E-01 0.000E+00

     negative rho (up, down):  9.427E-01 0.000E+00

     negative rho (up, down):  9.427E-01 0.000E+00

     negative rho (up, down):  9.427E-01 0.000E+00

     negative rho (up, down):  9.427E-01 0.000E+00

     negative rho (up, down):  9.427E-01 0.000E+00

     negative rho (up, down):  9.427E-01 0.000E+00

     negative rho (up, down):  9.427E-01 0.000E+00

     negative rho (up, down):  9.427E-01 0.000E+00

     negative rho (up, down):  9.427E-01 0.000E+00

     negative rho (up, down):  9.427E-01 0.000E+00

     negative rho (up, down):  9.427E-01 0.000E+00

     negative rho (up, down):  9.427E-01 0.000E+00

     negative rho (up, down):  9.427E-01 0.000E+00

     negative rho (up, down):  9.427E-01 0.000E+00

     negative rho (up, down):  9.427E-01 0.000E+00

     negative rho (up, down):  9.427E-01 0.000E+00

     negative rho (up, down):  9.427E-01 0.000E+00

     negative rho (up, down):  9.427E-01 0.000E+00

     negative rho (up, down):  9.427E-01 0.000E+00

     negative rho (up, down):  9.427E-01 0.000E+00

     negative rho (up, down):  9.427E-01 0.000E+00

     negative rho (up, down):  9.427E-01 0.000E+00
 
     Adding external electric field

     Computed dipole along edir(3) : 
        Dipole               -0.0744 Ry au,         -0.1890 Debye
        Dipole field         -0.0002 Ry au
 
        Potential amp.        0.0185 Ry
        Total length         45.3309 bohr
 

     total cpu time spent up to now is      506.7 secs

     End of self-consistent calculation

          k = 0.0000 0.0000 0.0000 ( 17231 PWs)   bands (ev):

   -49.4136 -49.2947 -49.2947 -49.0039 -49.0039 -48.9518 -48.9022 -48.8478
   -48.8478 -48.8258 -48.7843 -48.7842 -48.7055 -48.6913 -48.6911 -48.6511
   -48.6318 -48.6317 -48.6220 -48.5697 -48.5697 -48.5500 -48.5499 -48.5361
   -48.3894 -48.3894 -48.3636 -48.3628 -48.3628 -48.3206 -48.3206 -48.2829
   -48.2130 -48.2059 -48.1972 -48.1969 -12.1970  -4.7284  -4.2850  -3.9589
    -3.9589  -3.5360  -3.3717  -3.3717  -3.3403  -3.2511  -3.1157  -3.1157
    -3.0858  -2.9405  -2.8392  -2.8392  -2.6916  -2.6915  -2.3748  -1.8508
    -1.8507  -1.6709  -1.5912  -1.5912  -1.5080  -1.3465  -1.3464  -1.3099
    -1.3099  -1.1964  -1.0390  -1.0390  -1.0185  -1.0184  -1.0145  -0.4668
    -0.4668  -0.4481  -0.3990  -0.2647  -0.0837  -0.0837   0.0653   0.0654
     0.2164   0.2164   0.3789   0.3790   0.7149   0.7150   0.7198   0.7365
     0.7663   0.8352   0.8352   0.8661   0.9583   0.9583   1.0874   1.1183
     1.1184   1.3032   1.3033   1.3163   1.4137   1.4138   1.7578   2.9612
     3.3214   3.3215   3.9657   4.6185   4.6185

          k = 0.0000 0.0341 0.0000 ( 17192 PWs)   bands (ev):

   -49.4056 -49.3002 -49.2937 -48.9997 -48.9976 -48.9463 -48.9073 -48.8522
   -48.8467 -48.8154 -48.7779 -48.7759 -48.7035 -48.6922 -48.6903 -48.6492
   -48.6396 -48.6359 -48.6229 -48.5849 -48.5732 -48.5439 -48.5398 -48.5269
   -48.3985 -48.3901 -48.3669 -48.3667 -48.3638 -48.3359 -48.3243 -48.2823
   -48.2124 -48.2058 -48.1980 -48.1968 -12.1893  -4.5725  -4.1591  -3.9277
    -3.8752  -3.3903  -3.2761  -3.2263  -3.1703  -3.1409  -3.0328  -3.0293
    -2.9968  -2.8565  -2.7392  -2.7189  -2.6300  -2.6113  -2.3059  -1.8452
    -1.8271  -1.6411  -1.6010  -1.5344  -1.5339  -1.4698  -1.3671  -1.3252
    -1.2154  -1.1790  -1.1735  -1.1244  -0.9982  -0.9607  -0.9212  -0.7295
    -0.6025  -0.5294  -0.4594  -0.3500  -0.2095  -0.1220  -0.0403  -0.0224
     0.1045   0.1801   0.2072   0.3232   0.4810   0.4864   0.5531   0.6189
     0.6384   0.6747   0.7248   0.7732   0.8387   0.8859   0.8969   0.9717
     1.0278   1.0417   1.1286   1.1401   1.2094   1.4347   2.0611   2.4471
     3.3282   3.4245   3.5321   3.9979   4.4821

          k = 0.0000 0.0683 0.0000 ( 17196 PWs)   bands (ev):

   -49.3857 -49.3152 -49.2916 -48.9913 -48.9811 -48.9306 -48.9219 -48.8689
   -48.8450 -48.7917 -48.7603 -48.7450 -48.6983 -48.6963 -48.6895 -48.6580
   -48.6551 -48.6461 -48.6261 -48.6144 -48.5829 -48.5287 -48.5150 -48.4968
   -48.4206 -48.4006 -48.3769 -48.3744 -48.3663 -48.3643 -48.3341 -48.2811
   -48.2110 -48.2054 -48.1999 -48.1967 -12.1739  -4.2697  -3.8787  -3.7218
    -3.6911  -3.1076  -3.0293  -2.9537  -2.8808  -2.7785  -2.7780  -2.7436
    -2.7167  -2.6564  -2.5619  -2.5199  -2.3946  -2.2681  -2.0993  -1.8956
    -1.8633  -1.7812  -1.7344  -1.6344  -1.5178  -1.4560  -1.4175  -1.3308
    -1.3146  -1.2350  -1.1211  -1.0640  -1.0179  -0.9756  -0.9331  -0.8744
    -0.8553  -0.6741  -0.6265  -0.5216  -0.5158  -0.3272  -0.3191  -0.2894
    -0.2703  -0.2043  -0.1188  -0.0748  -0.0030   0.0988   0.1822   0.2928
     0.3057   0.3579   0.4071   0.4586   0.4714   0.6302   0.6619   0.6663
     0.8365   0.8833   0.9280   1.0021   1.1065   1.4040   1.5516   2.5496
     3.0949   3.5435   3.7875   4.4154   4.7358

          k = 0.0000-0.1024 0.0000 ( 17240 PWs)   bands (ev):

   -49.3709 -49.3276 -49.2906 -48.9871 -48.9676 -48.9347 -48.9156 -48.8854
   -48.8443 -48.7772 -48.7469 -48.7147 -48.6984 -48.6911 -48.6842 -48.6774
   -48.6676 -48.6664 -48.6434 -48.6056 -48.5920 -48.5191 -48.4973 -48.4680
   -48.4239 -48.4232 -48.4100 -48.3787 -48.3673 -48.3575 -48.3426 -48.2805
   -48.2102 -48.2049 -48.2012 -48.1966 -12.1662  -4.1629  -3.7434  -3.5878
    -3.3270  -3.1477  -2.8422  -2.8082  -2.7028  -2.6348  -2.6039  -2.5091
    -2.4600  -2.4032  -2.3353  -2.3214  -2.2704  -2.1874  -2.0849  -1.9761
    -1.8053  -1.7916  -1.7451  -1.6835  -1.6179  -1.5508  -1.4986  -1.4326
    -1.3443  -1.2211  -1.2057  -1.0696  -1.0092  -0.9897  -0.9141  -0.8654
    -0.8639  -0.8415  -0.7360  -0.7328  -0.6607  -0.6457  -0.5235  -0.4739
    -0.3769  -0.3339  -0.2992  -0.2881  -0.2393  -0.1346  -0.1109  -0.0457
     0.0640   0.1302   0.1496   0.2555   0.3141   0.3607   0.6227   0.7008
     0.8276   0.8297   0.8753   1.0260   1.1019   1.3893   1.6080   2.3798
     3.4671   3.5972   4.0098   4.1068   4.8568

          k = 0.0296-0.0171 0.0000 ( 17192 PWs)   bands (ev):

   -49.4056 -49.3002 -49.2937 -48.9997 -48.9976 -48.9463 -48.9073 -48.8522
   -48.8467 -48.8154 -48.7778 -48.7759 -48.7035 -48.6921 -48.6904 -48.6492
   -48.6395 -48.6359 -48.6229 -48.5849 -48.5731 -48.5438 -48.5399 -48.5269
   -48.3984 -48.3902 -48.3669 -48.3667 -48.3638 -48.3358 -48.3244 -48.2823
   -48.2124 -48.2058 -48.1977 -48.1971 -12.1893  -4.5725  -4.1591  -3.9277
    -3.8752  -3.3903  -3.2761  -3.2263  -3.1702  -3.1409  -3.0328  -3.0293
    -2.9968  -2.8565  -2.7393  -2.7189  -2.6300  -2.6113  -2.3059  -1.8451
    -1.8272  -1.6411  -1.6010  -1.5344  -1.5339  -1.4698  -1.3670  -1.3252
    -1.2154  -1.1790  -1.1734  -1.1244  -0.9982  -0.9606  -0.9212  -0.7294
    -0.6026  -0.5294  -0.4593  -0.3501  -0.2095  -0.1220  -0.0403  -0.0225
     0.1046   0.1801   0.2072   0.3232   0.4810   0.4864   0.5531   0.6190
     0.6384   0.6746   0.7248   0.7732   0.8387   0.8859   0.8970   0.9716
     1.0277   1.0418   1.1287   1.1401   1.2094   1.4347   2.0611   2.4471
     3.3282   3.4245   3.5321   3.9979   4.4821

          k = 0.0296 0.0171 0.0000 ( 17192 PWs)   bands (ev):

   -49.4056 -49.3002 -49.2937 -48.9997 -48.9976 -48.9463 -48.9073 -48.8522
   -48.8467 -48.8154 -48.7779 -48.7759 -48.7035 -48.6922 -48.6903 -48.6492
   -48.6396 -48.6359 -48.6229 -48.5849 -48.5732 -48.5439 -48.5398 -48.5269
   -48.3984 -48.3901 -48.3669 -48.3667 -48.3638 -48.3359 -48.3244 -48.2823
   -48.2124 -48.2058 -48.1979 -48.1969 -12.1893  -4.5725  -4.1591  -3.9277
    -3.8752  -3.3903  -3.2761  -3.2263  -3.1703  -3.1409  -3.0328  -3.0293
    -2.9968  -2.8565  -2.7393  -2.7189  -2.6300  -2.6113  -2.3059  -1.8452
    -1.8271  -1.6411  -1.6010  -1.5344  -1.5339  -1.4698  -1.3671  -1.3252
    -1.2154  -1.1790  -1.1735  -1.1244  -0.9982  -0.9607  -0.9212  -0.7294
    -0.6025  -0.5294  -0.4594  -0.3500  -0.2095  -0.1220  -0.0403  -0.0224
     0.1045   0.1801   0.2072   0.3232   0.4810   0.4864   0.5531   0.6189
     0.6384   0.6747   0.7248   0.7732   0.8387   0.8859   0.8969   0.9717
     1.0278   1.0417   1.1286   1.1401   1.2094   1.4347   2.0611   2.4471
     3.3282   3.4245   3.5321   3.9979   4.4821

          k = 0.0296 0.0512 0.0000 ( 17186 PWs)   bands (ev):

   -49.3913 -49.3110 -49.2920 -48.9931 -48.9863 -48.9356 -48.9176 -48.8620
   -48.8467 -48.7976 -48.7628 -48.7586 -48.6999 -48.6959 -48.6891 -48.6617
   -48.6468 -48.6325 -48.6256 -48.6119 -48.5808 -48.5331 -48.5192 -48.5093
   -48.4196 -48.3869 -48.3728 -48.3720 -48.3663 -48.3612 -48.3322 -48.2813
   -48.2113 -48.2055 -48.1994 -48.1967 -12.1777  -4.3311  -3.9437  -3.8261
    -3.7419  -3.1392  -3.0837  -2.9984  -2.9781  -2.8861  -2.8586  -2.8545
    -2.8132  -2.7189  -2.5845  -2.5627  -2.4820  -2.3978  -2.1634  -1.8534
    -1.7967  -1.7436  -1.7168  -1.6365  -1.5296  -1.4784  -1.4159  -1.3549
    -1.2918  -1.1637  -1.1072  -1.0642  -1.0131  -1.0003  -0.9458  -0.8602
    -0.7829  -0.6698  -0.6240  -0.5224  -0.3316  -0.2758  -0.2499  -0.1960
    -0.1666  -0.0501   0.0063   0.0115   0.1112   0.1920   0.2525   0.3527
     0.4109   0.4566   0.4730   0.5368   0.6286   0.7173   0.7476   0.7971
     0.8448   0.9396   0.9851   1.1187   1.2460   1.3624   1.9492   2.0773
     2.8301   3.0706   3.7700   4.4831   5.0793

          k = 0.0296-0.1195 0.0000 ( 17183 PWs)   bands (ev):

   -49.3703 -49.3286 -49.2902 -48.9862 -48.9688 -48.9349 -48.9170 -48.8806
   -48.8470 -48.7740 -48.7414 -48.7265 -48.7055 -48.6935 -48.6889 -48.6817
   -48.6611 -48.6443 -48.6394 -48.6145 -48.5941 -48.5161 -48.4927 -48.4784
   -48.4448 -48.4107 -48.3884 -48.3767 -48.3692 -48.3649 -48.3455 -48.2805
   -48.2101 -48.2049 -48.2013 -48.1965 -12.1662  -4.1121  -3.7864  -3.6270
    -3.3733  -2.9888  -2.7916  -2.7420  -2.7164  -2.6295  -2.5817  -2.5467
    -2.5040  -2.4689  -2.3428  -2.3250  -2.2395  -2.1277  -2.0641  -2.0165
    -1.8832  -1.8453  -1.7673  -1.6993  -1.6082  -1.5714  -1.5296  -1.4872
    -1.3748  -1.3042  -1.2183  -1.2012  -1.0970  -1.0467  -0.9905  -0.9567
    -0.8821  -0.7950  -0.7811  -0.6631  -0.6265  -0.5927  -0.5473  -0.5064
    -0.3947  -0.3048  -0.2550  -0.2213  -0.1643  -0.0294  -0.0155   0.1096
     0.1768   0.2375   0.2865   0.3504   0.4775   0.6173   0.6551   0.7367
     0.7855   0.8172   0.8998   0.9541   1.0003   1.2104   1.6759   2.0847
     2.4986   3.2795   3.9924   4.6718   5.3851

          k = 0.0296-0.0853 0.0000 ( 17183 PWs)   bands (ev):

   -49.3703 -49.3286 -49.2902 -48.9862 -48.9688 -48.9349 -48.9170 -48.8806
   -48.8470 -48.7740 -48.7414 -48.7265 -48.7053 -48.6935 -48.6889 -48.6817
   -48.6612 -48.6443 -48.6394 -48.6145 -48.5941 -48.5161 -48.4926 -48.4784
   -48.4450 -48.4106 -48.3885 -48.3767 -48.3692 -48.3649 -48.3455 -48.2805
   -48.2101 -48.2049 -48.2012 -48.1965 -12.1662  -4.1121  -3.7864  -3.6270
    -3.3733  -2.9888  -2.7916  -2.7420  -2.7163  -2.6295  -2.5817  -2.5468
    -2.5040  -2.4689  -2.3428  -2.3251  -2.2395  -2.1277  -2.0641  -2.0165
    -1.8832  -1.8453  -1.7673  -1.6993  -1.6082  -1.5715  -1.5296  -1.4872
    -1.3748  -1.3042  -1.2183  -1.2012  -1.0970  -1.0467  -0.9905  -0.9567
    -0.8821  -0.7950  -0.7811  -0.6631  -0.6264  -0.5927  -0.5473  -0.5064
    -0.3947  -0.3049  -0.2550  -0.2213  -0.1642  -0.0294  -0.0154   0.1096
     0.1768   0.2375   0.2865   0.3504   0.4774   0.6173   0.6551   0.7367
     0.7855   0.8172   0.8998   0.9541   1.0003   1.2104   1.6759   2.0847
     2.4986   3.2795   3.9924   4.6719   5.3851

          k = 0.0296-0.0512 0.0000 ( 17186 PWs)   bands (ev):

   -49.3913 -49.3110 -49.2920 -48.9931 -48.9863 -48.9356 -48.9176 -48.8620
   -48.8467 -48.7976 -48.7628 -48.7587 -48.6999 -48.6958 -48.6892 -48.6617
   -48.6468 -48.6325 -48.6256 -48.6119 -48.5808 -48.5331 -48.5192 -48.5093
   -48.4196 -48.3869 -48.3727 -48.3720 -48.3663 -48.3613 -48.3323 -48.2813
   -48.2114 -48.2056 -48.1992 -48.1968 -12.1777  -4.3311  -3.9437  -3.8261
    -3.7419  -3.1392  -3.0837  -2.9984  -2.9781  -2.8861  -2.8586  -2.8545
    -2.8132  -2.7189  -2.5845  -2.5627  -2.4820  -2.3978  -2.1634  -1.8534
    -1.7968  -1.7436  -1.7168  -1.6365  -1.5297  -1.4784  -1.4159  -1.3549
    -1.2918  -1.1637  -1.1072  -1.0641  -1.0131  -1.0003  -0.9458  -0.8602
    -0.7829  -0.6698  -0.6240  -0.5224  -0.3316  -0.2759  -0.2499  -0.1960
    -0.1665  -0.0501   0.0063   0.0115   0.1112   0.1919   0.2526   0.3527
     0.4109   0.4566   0.4730   0.5368   0.6286   0.7174   0.7476   0.7971
     0.8448   0.9396   0.9852   1.1187   1.2460   1.3624   1.9492   2.0773
     2.8300   3.0706   3.7700   4.4831   5.0793

          k = 0.0591-0.0341 0.0000 ( 17196 PWs)   bands (ev):

   -49.3857 -49.3152 -49.2917 -48.9913 -48.9811 -48.9306 -48.9219 -48.8689
   -48.8450 -48.7918 -48.7602 -48.7450 -48.6984 -48.6962 -48.6896 -48.6579
   -48.6552 -48.6461 -48.6262 -48.6145 -48.5829 -48.5286 -48.5152 -48.4968
   -48.4205 -48.4008 -48.3769 -48.3744 -48.3663 -48.3641 -48.3343 -48.2811
   -48.2111 -48.2054 -48.1995 -48.1970 -12.1739  -4.2697  -3.8787  -3.7218
    -3.6911  -3.1076  -3.0293  -2.9537  -2.8808  -2.7786  -2.7780  -2.7437
    -2.7167  -2.6564  -2.5619  -2.5199  -2.3946  -2.2680  -2.0993  -1.8956
    -1.8633  -1.7812  -1.7344  -1.6344  -1.5178  -1.4560  -1.4175  -1.3308
    -1.3146  -1.2350  -1.1211  -1.0640  -1.0179  -0.9755  -0.9331  -0.8744
    -0.8553  -0.6741  -0.6265  -0.5216  -0.5158  -0.3273  -0.3190  -0.2894
    -0.2704  -0.2043  -0.1188  -0.0748  -0.0030   0.0989   0.1822   0.2927
     0.3057   0.3578   0.4071   0.4586   0.4714   0.6301   0.6619   0.6663
     0.8365   0.8833   0.9280   1.0020   1.1066   1.4040   1.5516   2.5496
     3.0949   3.5434   3.7875   4.4154   4.7358

          k = 0.0591-0.0000 0.0000 ( 17186 PWs)   bands (ev):

   -49.3913 -49.3109 -49.2920 -48.9931 -48.9863 -48.9356 -48.9176 -48.8620
   -48.8467 -48.7976 -48.7628 -48.7587 -48.6999 -48.6959 -48.6892 -48.6617
   -48.6468 -48.6325 -48.6256 -48.6119 -48.5808 -48.5331 -48.5193 -48.5093
   -48.4196 -48.3869 -48.3726 -48.3720 -48.3663 -48.3613 -48.3323 -48.2813
   -48.2114 -48.2056 -48.1991 -48.1969 -12.1777  -4.3311  -3.9437  -3.8261
    -3.7419  -3.1392  -3.0837  -2.9984  -2.9781  -2.8861  -2.8586  -2.8545
    -2.8132  -2.7189  -2.5845  -2.5627  -2.4820  -2.3978  -2.1634  -1.8534
    -1.7968  -1.7436  -1.7168  -1.6365  -1.5297  -1.4784  -1.4159  -1.3549
    -1.2918  -1.1637  -1.1072  -1.0641  -1.0131  -1.0003  -0.9458  -0.8602
    -0.7829  -0.6698  -0.6240  -0.5224  -0.3316  -0.2759  -0.2499  -0.1960
    -0.1665  -0.0501   0.0063   0.0115   0.1112   0.1919   0.2526   0.3527
     0.4109   0.4566   0.4730   0.5367   0.6286   0.7174   0.7476   0.7971
     0.8448   0.9396   0.9852   1.1187   1.2460   1.3624   1.9492   2.0773
     2.8300   3.0706   3.7700   4.4831   5.0793

          k = 0.0591 0.0341 0.0000 ( 17196 PWs)   bands (ev):

   -49.3857 -49.3152 -49.2916 -48.9913 -48.9811 -48.9306 -48.9219 -48.8689
   -48.8450 -48.7917 -48.7603 -48.7450 -48.6983 -48.6964 -48.6895 -48.6580
   -48.6551 -48.6461 -48.6261 -48.6144 -48.5829 -48.5287 -48.5150 -48.4968
   -48.4206 -48.4006 -48.3769 -48.3744 -48.3663 -48.3643 -48.3342 -48.2811
   -48.2110 -48.2054 -48.1998 -48.1967 -12.1739  -4.2697  -3.8787  -3.7218
    -3.6911  -3.1076  -3.0293  -2.9537  -2.8808  -2.7785  -2.7780  -2.7436
    -2.7167  -2.6564  -2.5619  -2.5199  -2.3946  -2.2681  -2.0993  -1.8956
    -1.8633  -1.7812  -1.7344  -1.6344  -1.5178  -1.4560  -1.4175  -1.3308
    -1.3146  -1.2350  -1.1211  -1.0640  -1.0179  -0.9756  -0.9331  -0.8744
    -0.8553  -0.6741  -0.6265  -0.5216  -0.5158  -0.3272  -0.3191  -0.2894
    -0.2703  -0.2043  -0.1188  -0.0748  -0.0030   0.0988   0.1822   0.2927
     0.3057   0.3579   0.4071   0.4586   0.4714   0.6302   0.6619   0.6663
     0.8365   0.8833   0.9280   1.0021   1.1065   1.4040   1.5516   2.5496
     3.0949   3.5435   3.7875   4.4154   4.7358

          k = 0.0591-0.1365 0.0000 ( 17183 PWs)   bands (ev):

   -49.3703 -49.3286 -49.2902 -48.9862 -48.9688 -48.9349 -48.9170 -48.8806
   -48.8470 -48.7740 -48.7414 -48.7265 -48.7055 -48.6935 -48.6889 -48.6817
   -48.6611 -48.6443 -48.6394 -48.6145 -48.5942 -48.5161 -48.4927 -48.4784
   -48.4448 -48.4108 -48.3884 -48.3767 -48.3692 -48.3648 -48.3456 -48.2805
   -48.2101 -48.2049 -48.2013 -48.1965 -12.1662  -4.1121  -3.7864  -3.6270
    -3.3733  -2.9888  -2.7916  -2.7420  -2.7164  -2.6295  -2.5817  -2.5467
    -2.5040  -2.4689  -2.3428  -2.3250  -2.2395  -2.1277  -2.0641  -2.0165
    -1.8832  -1.8453  -1.7673  -1.6993  -1.6082  -1.5714  -1.5296  -1.4872
    -1.3748  -1.3042  -1.2183  -1.2012  -1.0970  -1.0467  -0.9905  -0.9567
    -0.8821  -0.7950  -0.7811  -0.6631  -0.6265  -0.5927  -0.5473  -0.5064
    -0.3947  -0.3048  -0.2551  -0.2213  -0.1643  -0.0294  -0.0155   0.1096
     0.1768   0.2375   0.2865   0.3504   0.4775   0.6173   0.6551   0.7367
     0.7855   0.8172   0.8997   0.9541   1.0003   1.2104   1.6759   2.0847
     2.4986   3.2795   3.9924   4.6718   5.3851

          k = 0.0591-0.1024 0.0000 ( 17208 PWs)   bands (ev):

   -49.3527 -49.3454 -49.2893 -48.9831 -48.9530 -48.9520 -48.9034 -48.8913
   -48.8495 -48.7477 -48.7463 -48.7100 -48.7068 -48.7007 -48.6875 -48.6873
   -48.6841 -48.6433 -48.6279 -48.6124 -48.6112 -48.4961 -48.4900 -48.4607
   -48.4579 -48.4386 -48.3745 -48.3741 -48.3686 -48.3680 -48.3641 -48.2802
   -48.2096 -48.2045 -48.2023 -48.1964 -12.1623  -3.9842  -3.7607  -3.6488
    -2.9765  -2.9411  -2.7635  -2.4932  -2.4864  -2.4706  -2.4214  -2.4016
    -2.3738  -2.3406  -2.2571  -2.2468  -2.2115  -2.1858  -2.1697  -2.0104
    -1.8884  -1.8810  -1.7740  -1.7213  -1.6943  -1.6711  -1.6661  -1.5953
    -1.4741  -1.4176  -1.3315  -1.3130  -1.3007  -1.2901  -0.9981  -0.9868
    -0.9546  -0.9301  -0.9193  -0.8756  -0.8319  -0.6768  -0.6707  -0.4522
    -0.4159  -0.3621  -0.1479  -0.1199  -0.1075  -0.0120   0.1027   0.1310
     0.2244   0.2512   0.3732   0.4463   0.6036   0.6790   0.6941   0.7154
     0.7761   0.7784   0.7868   0.8053   0.8677   1.0911   1.1213   1.9647
     2.1750   3.0155   4.3631   4.5049   5.3838

          k = 0.0591-0.0683 0.0000 ( 17183 PWs)   bands (ev):

   -49.3703 -49.3285 -49.2902 -48.9862 -48.9688 -48.9349 -48.9170 -48.8806
   -48.8470 -48.7741 -48.7413 -48.7264 -48.7054 -48.6936 -48.6889 -48.6817
   -48.6612 -48.6443 -48.6394 -48.6146 -48.5941 -48.5160 -48.4928 -48.4785
   -48.4448 -48.4107 -48.3884 -48.3767 -48.3692 -48.3647 -48.3457 -48.2805
   -48.2102 -48.2050 -48.2010 -48.1967 -12.1662  -4.1121  -3.7864  -3.6270
    -3.3733  -2.9888  -2.7916  -2.7420  -2.7163  -2.6295  -2.5817  -2.5468
    -2.5040  -2.4690  -2.3428  -2.3250  -2.2395  -2.1277  -2.0641  -2.0165
    -1.8832  -1.8453  -1.7673  -1.6993  -1.6081  -1.5715  -1.5296  -1.4872
    -1.3748  -1.3042  -1.2183  -1.2012  -1.0970  -1.0467  -0.9905  -0.9567
    -0.8821  -0.7950  -0.7811  -0.6631  -0.6264  -0.5927  -0.5473  -0.5064
    -0.3947  -0.3048  -0.2551  -0.2213  -0.1643  -0.0294  -0.0154   0.1096
     0.1768   0.2375   0.2864   0.3504   0.4775   0.6173   0.6551   0.7367
     0.7855   0.8172   0.8997   0.9542   1.0003   1.2104   1.6759   2.0847
     2.4986   3.2795   3.9924   4.6719   5.3851

          k =-0.0887 0.0512 0.0000 ( 17240 PWs)   bands (ev):

   -49.3709 -49.3275 -49.2907 -48.9871 -48.9676 -48.9347 -48.9156 -48.8854
   -48.8443 -48.7773 -48.7468 -48.7145 -48.6985 -48.6912 -48.6843 -48.6773
   -48.6677 -48.6663 -48.6434 -48.6058 -48.5918 -48.5189 -48.4975 -48.4680
   -48.4238 -48.4230 -48.4102 -48.3787 -48.3673 -48.3571 -48.3429 -48.2805
   -48.2103 -48.2050 -48.2007 -48.1969 -12.1662  -4.1629  -3.7434  -3.5878
    -3.3270  -3.1477  -2.8422  -2.8082  -2.7028  -2.6348  -2.6039  -2.5091
    -2.4600  -2.4033  -2.3353  -2.3215  -2.2704  -2.1874  -2.0848  -1.9762
    -1.8053  -1.7916  -1.7452  -1.6835  -1.6180  -1.5508  -1.4986  -1.4326
    -1.3443  -1.2211  -1.2057  -1.0696  -1.0092  -0.9897  -0.9141  -0.8654
    -0.8639  -0.8416  -0.7360  -0.7329  -0.6606  -0.6457  -0.5235  -0.4739
    -0.3769  -0.3339  -0.2992  -0.2881  -0.2394  -0.1346  -0.1109  -0.0458
     0.0641   0.1302   0.1495   0.2555   0.3141   0.3607   0.6227   0.7009
     0.8276   0.8297   0.8754   1.0259   1.1020   1.3893   1.6080   2.3798
     3.4672   3.5971   4.0098   4.1069   4.8567

          k =-0.0887 0.0853 0.0000 ( 17183 PWs)   bands (ev):

   -49.3703 -49.3285 -49.2902 -48.9862 -48.9688 -48.9349 -48.9170 -48.8806
   -48.8470 -48.7741 -48.7413 -48.7264 -48.7055 -48.6936 -48.6889 -48.6817
   -48.6611 -48.6443 -48.6394 -48.6146 -48.5941 -48.5160 -48.4928 -48.4785
   -48.4448 -48.4107 -48.3884 -48.3767 -48.3692 -48.3647 -48.3457 -48.2805
   -48.2102 -48.2050 -48.2010 -48.1967 -12.1662  -4.1121  -3.7864  -3.6270
    -3.3733  -2.9888  -2.7916  -2.7420  -2.7163  -2.6295  -2.5817  -2.5468
    -2.5040  -2.4690  -2.3428  -2.3250  -2.2395  -2.1277  -2.0641  -2.0165
    -1.8832  -1.8453  -1.7673  -1.6993  -1.6081  -1.5715  -1.5296  -1.4872
    -1.3748  -1.3042  -1.2183  -1.2012  -1.0970  -1.0467  -0.9905  -0.9567
    -0.8821  -0.7950  -0.7811  -0.6632  -0.6264  -0.5927  -0.5473  -0.5064
    -0.3947  -0.3048  -0.2551  -0.2213  -0.1643  -0.0294  -0.0154   0.1096
     0.1768   0.2375   0.2864   0.3504   0.4775   0.6173   0.6551   0.7367
     0.7855   0.8172   0.8997   0.9542   1.0003   1.2104   1.6759   2.0847
     2.4986   3.2795   3.9924   4.6719   5.3851

          k =-0.0887 0.1195 0.0000 ( 17183 PWs)   bands (ev):

   -49.3703 -49.3286 -49.2902 -48.9862 -48.9688 -48.9349 -48.9170 -48.8806
   -48.8470 -48.7740 -48.7414 -48.7265 -48.7054 -48.6935 -48.6889 -48.6817
   -48.6612 -48.6443 -48.6394 -48.6145 -48.5941 -48.5161 -48.4927 -48.4784
   -48.4450 -48.4105 -48.3885 -48.3767 -48.3692 -48.3649 -48.3456 -48.2805
   -48.2102 -48.2050 -48.2012 -48.1966 -12.1662  -4.1121  -3.7864  -3.6270
    -3.3733  -2.9888  -2.7916  -2.7420  -2.7163  -2.6295  -2.5817  -2.5467
    -2.5040  -2.4689  -2.3428  -2.3251  -2.2395  -2.1277  -2.0641  -2.0165
    -1.8832  -1.8453  -1.7673  -1.6993  -1.6082  -1.5715  -1.5296  -1.4872
    -1.3748  -1.3042  -1.2183  -1.2012  -1.0970  -1.0467  -0.9905  -0.9567
    -0.8821  -0.7950  -0.7811  -0.6632  -0.6264  -0.5927  -0.5473  -0.5064
    -0.3947  -0.3049  -0.2550  -0.2213  -0.1642  -0.0294  -0.0154   0.1096
     0.1768   0.2375   0.2865   0.3504   0.4774   0.6173   0.6551   0.7367
     0.7855   0.8172   0.8997   0.9542   1.0003   1.2104   1.6759   2.0847
     2.4986   3.2795   3.9924   4.6719   5.3851

          k =-0.0887-0.0512 0.0000 ( 17240 PWs)   bands (ev):

   -49.3709 -49.3275 -49.2906 -48.9871 -48.9676 -48.9347 -48.9156 -48.8854
   -48.8443 -48.7772 -48.7469 -48.7148 -48.6984 -48.6910 -48.6842 -48.6774
   -48.6675 -48.6664 -48.6434 -48.6056 -48.5920 -48.5191 -48.4973 -48.4680
   -48.4238 -48.4232 -48.4100 -48.3787 -48.3673 -48.3574 -48.3427 -48.2805
   -48.2102 -48.2049 -48.2011 -48.1967 -12.1662  -4.1629  -3.7434  -3.5878
    -3.3270  -3.1477  -2.8422  -2.8082  -2.7029  -2.6348  -2.6039  -2.5091
    -2.4600  -2.4032  -2.3353  -2.3214  -2.2704  -2.1874  -2.0849  -1.9762
    -1.8053  -1.7916  -1.7451  -1.6835  -1.6179  -1.5508  -1.4987  -1.4326
    -1.3443  -1.2211  -1.2057  -1.0696  -1.0092  -0.9898  -0.9141  -0.8654
    -0.8640  -0.8415  -0.7360  -0.7328  -0.6606  -0.6457  -0.5235  -0.4739
    -0.3769  -0.3339  -0.2992  -0.2881  -0.2393  -0.1346  -0.1109  -0.0457
     0.0640   0.1302   0.1495   0.2555   0.3141   0.3607   0.6227   0.7008
     0.8276   0.8297   0.8754   1.0260   1.1019   1.3893   1.6080   2.3798
     3.4671   3.5972   4.0098   4.1069   4.8568

     the Fermi energy is     1.0819 ev

!    total energy              =   -2421.90905451 Ry
     Harris-Foulkes estimate   =   -2421.90905611 Ry
     estimated scf accuracy    <       0.00000168 Ry

     The total energy is the sum of the following terms:

     one-electron contribution =  -20676.37125056 Ry
     hartree contribution      =   10389.58874403 Ry
     xc contribution           =    -398.97610995 Ry
     ewald contribution        =    8263.96038751 Ry
     electric field correction =       0.00001520 Ry
     smearing contrib. (-TS)   =      -0.11084074 Ry

     convergence has been achieved in  20 iterations
 
 BEEF-vdW xc energy contributions
           1 :   -347.213136909003     
           2 :    317.120821095946     
           3 :   -265.754978062089     
           4 :    206.876128096322     
           5 :   -153.845788991899     
           6 :    115.252233709869     
           7 :   -93.0306281541900     
           8 :    83.4197882814356     
           9 :   -79.9220260361016     
          10 :    76.6772400338302     
          11 :   -70.7245733489893     
          12 :    62.3676737009349     
          13 :   -53.9007892168926     
          14 :    47.6916007616204     
          15 :   -44.7336970667666     
          16 :    44.3000034728874     
          17 :   -44.6362460670175     
          18 :    44.0967412934365     
          19 :   -42.0064805816104     
          20 :    38.8168435950146     
          21 :   -35.6012999041836     
          22 :    33.2956617202137     
          23 :   -32.1634539184929     
          24 :    31.7532224878678     
          25 :   -31.2914635641517     
          26 :    30.2073995295644     
          27 :   -28.4541961612684     
          28 :    26.4576725854822     
          29 :   -24.7751004031996     
          30 :    23.7146614911372     
          31 :   -33.9830608345553     
          32 :   -25.0844557258760     

     Forces acting on atoms (Ry/au):


     negative rho (up, down):  9.427E-01 0.000E+00
     atom    1 type  1   force =     0.00095287    0.00053751   -0.00249729
     atom    2 type  1   force =    -0.00095491    0.00054406   -0.00251537
     atom    3 type  1   force =     0.00000714   -0.00109109   -0.00252780
     atom    4 type  1   force =    -0.00000567    0.00000393    0.00156390
     atom    5 type  1   force =    -0.00000576    0.00133830    0.00217025
     atom    6 type  1   force =     0.00000979   -0.00000905   -0.01593434
     atom    7 type  1   force =    -0.00116444   -0.00066219    0.00216274
     atom    8 type  1   force =     0.00115919   -0.00066653    0.00216659
     atom    9 type  1   force =     0.00000789   -0.00000735   -0.00438604
     atom   10 type  1   force =    -0.00000613   -0.01796854    0.00294085
     atom   11 type  1   force =    -0.01555519    0.00898582    0.00295458
     atom   12 type  1   force =     0.01555489    0.00899382    0.00294401
     atom   13 type  2   force =     0.00000033    0.00000130    0.01095792

     Total force =     0.033672     Total SCF correction =     0.007551
     SCF correction compared to forces is large: reduce conv_thr to get better values


     entering subroutine stress ...


     negative rho (up, down):  9.427E-01 0.000E+00
          total   stress  (Ry/bohr**3)                   (kbar)     P=   -4.47
  -0.00005093   0.00000000   0.00000000         -7.49      0.00      0.00
   0.00000000  -0.00005093  -0.00000000          0.00     -7.49     -0.00
   0.00000000  -0.00000000   0.00001071          0.00     -0.00      1.58


     BFGS Geometry Optimization

     number of scf cycles    =   1
     number of bfgs steps    =   0

     energy   new            =   -2421.9090545107 Ry

     new trust radius        =       0.0182076066 bohr
     new conv_thr            =       0.0000099958 Ry


ATOMIC_POSITIONS (crystal)
Pd1      0.166666667   0.166666667   0.406452311    0   0   0
Pd1      0.666666667   0.166666667   0.406452311    0   0   0
Pd1      0.166666667   0.666666667   0.406452311    0   0   0
Pd1      0.666666667   0.666666667   0.406452311    0   0   0
Pd1      0.833333333   0.333333333   0.500000000    0   0   0
Pd1      0.333333333   0.333333333   0.500000000    0   0   0
Pd1      0.833333333   0.833333333   0.500000000    0   0   0
Pd1      0.333333333   0.833333333   0.500000000    0   0   0
Pd1      0.000001139  -0.000000797   0.593453352
Pd1      0.500973189  -0.001947530   0.593610943
Pd1     -0.001947049   0.500973933   0.593611238
Pd1      0.500972654   0.500974800   0.593611011
S1       0.333333294   0.333333474   0.658246714



     Writing output data file calc.save
     Check: negative starting charge=   -0.903951
     NEW-OLD atomic charge density approx. for the potential
     Check: negative starting charge=   -0.903434

     negative rho (up, down):  9.424E-01 0.000E+00
 
     Adding external electric field

     Computed dipole along edir(3) : 
        Dipole               -0.0721 Ry au,         -0.1833 Debye
        Dipole field         -0.0002 Ry au
 
        Potential amp.        0.0180 Ry
        Total length         45.3309 bohr
 

     total cpu time spent up to now is      574.1 secs

     per-process dynamical memory:   109.4 Mb

     Self-consistent Calculation

     iteration #  1     ecut=    36.75 Ry     beta=0.30
     Davidson diagonalization with overlap
     ethr =  1.00E-06,  avg # of iterations =  4.0

     negative rho (up, down):  9.424E-01 0.000E+00
 
     Adding external electric field

     Computed dipole along edir(3) : 
        Dipole                0.0383 Ry au,          0.0975 Debye
        Dipole field          0.0001 Ry au
 
        Potential amp.       -0.0096 Ry
        Total length         45.3309 bohr
 

     total cpu time spent up to now is      604.0 secs

     total energy              =   -2421.90908073 Ry
     Harris-Foulkes estimate   =   -2421.91000283 Ry
     estimated scf accuracy    <       0.00183882 Ry

     iteration #  2     ecut=    36.75 Ry     beta=0.30
     Davidson diagonalization with overlap
     ethr =  9.29E-07,  avg # of iterations =  3.7

     negative rho (up, down):  9.424E-01 0.000E+00
 
     Adding external electric field

     Computed dipole along edir(3) : 
        Dipole               -0.0707 Ry au,         -0.1796 Debye
        Dipole field         -0.0002 Ry au
 
        Potential amp.        0.0176 Ry
        Total length         45.3309 bohr
 

     total cpu time spent up to now is      627.0 secs

     total energy              =   -2421.89814321 Ry
     Harris-Foulkes estimate   =   -2421.92169180 Ry
     estimated scf accuracy    <       1.01427706 Ry

     iteration #  3     ecut=    36.75 Ry     beta=0.30
     Davidson diagonalization with overlap
     ethr =  9.29E-07,  avg # of iterations =  4.2

     negative rho (up, down):  9.424E-01 0.000E+00
 
     Adding external electric field

     Computed dipole along edir(3) : 
        Dipole               -0.0698 Ry au,         -0.1774 Debye
        Dipole field         -0.0002 Ry au
 
        Potential amp.        0.0174 Ry
        Total length         45.3309 bohr
 

     total cpu time spent up to now is      650.3 secs

     total energy              =   -2421.90989636 Ry
     Harris-Foulkes estimate   =   -2421.91001378 Ry
     estimated scf accuracy    <       0.00081475 Ry

     iteration #  4     ecut=    36.75 Ry     beta=0.30
     Davidson diagonalization with overlap
     ethr =  4.11E-07,  avg # of iterations =  1.0

     negative rho (up, down):  9.424E-01 0.000E+00
 
     Adding external electric field

     Computed dipole along edir(3) : 
        Dipole               -0.0695 Ry au,         -0.1767 Debye
        Dipole field         -0.0002 Ry au
 
        Potential amp.        0.0173 Ry
        Total length         45.3309 bohr
 

     total cpu time spent up to now is      669.4 secs

     total energy              =   -2421.90994469 Ry
     Harris-Foulkes estimate   =   -2421.90996314 Ry
     estimated scf accuracy    <       0.00014890 Ry

     iteration #  5     ecut=    36.75 Ry     beta=0.30
     Davidson diagonalization with overlap
     ethr =  7.52E-08,  avg # of iterations =  1.2

     negative rho (up, down):  9.424E-01 0.000E+00
 
     Adding external electric field

     Computed dipole along edir(3) : 
        Dipole               -0.0707 Ry au,         -0.1796 Debye
        Dipole field         -0.0002 Ry au
 
        Potential amp.        0.0176 Ry
        Total length         45.3309 bohr
 

     total cpu time spent up to now is      688.4 secs

     total energy              =   -2421.90995544 Ry
     Harris-Foulkes estimate   =   -2421.90995841 Ry
     estimated scf accuracy    <       0.00004197 Ry

     iteration #  6     ecut=    36.75 Ry     beta=0.30
     Davidson diagonalization with overlap
     ethr =  2.12E-08,  avg # of iterations =  1.6

     negative rho (up, down):  9.424E-01 0.000E+00
 
     Adding external electric field

     Computed dipole along edir(3) : 
        Dipole               -0.0707 Ry au,         -0.1796 Debye
        Dipole field         -0.0002 Ry au
 
        Potential amp.        0.0176 Ry
        Total length         45.3309 bohr
 

     total cpu time spent up to now is      707.6 secs

     total energy              =   -2421.90995649 Ry
     Harris-Foulkes estimate   =   -2421.90995942 Ry
     estimated scf accuracy    <       0.00002071 Ry

     iteration #  7     ecut=    36.75 Ry     beta=0.30
     Davidson diagonalization with overlap
     ethr =  1.05E-08,  avg # of iterations =  1.0

     negative rho (up, down):  9.424E-01 0.000E+00

     negative rho (up, down):  9.424E-01 0.000E+00

     negative rho (up, down):  9.424E-01 0.000E+00

     negative rho (up, down):  9.424E-01 0.000E+00

     negative rho (up, down):  9.424E-01 0.000E+00

     negative rho (up, down):  9.424E-01 0.000E+00

     negative rho (up, down):  9.424E-01 0.000E+00

     negative rho (up, down):  9.424E-01 0.000E+00

     negative rho (up, down):  9.424E-01 0.000E+00

     negative rho (up, down):  9.424E-01 0.000E+00

     negative rho (up, down):  9.424E-01 0.000E+00

     negative rho (up, down):  9.424E-01 0.000E+00

     negative rho (up, down):  9.424E-01 0.000E+00

     negative rho (up, down):  9.424E-01 0.000E+00

     negative rho (up, down):  9.424E-01 0.000E+00

     negative rho (up, down):  9.424E-01 0.000E+00

     negative rho (up, down):  9.424E-01 0.000E+00

     negative rho (up, down):  9.424E-01 0.000E+00

     negative rho (up, down):  9.424E-01 0.000E+00

     negative rho (up, down):  9.424E-01 0.000E+00

     negative rho (up, down):  9.424E-01 0.000E+00

     negative rho (up, down):  9.424E-01 0.000E+00

     negative rho (up, down):  9.424E-01 0.000E+00

     negative rho (up, down):  9.424E-01 0.000E+00

     negative rho (up, down):  9.424E-01 0.000E+00

     negative rho (up, down):  9.424E-01 0.000E+00

     negative rho (up, down):  9.424E-01 0.000E+00

     negative rho (up, down):  9.424E-01 0.000E+00

     negative rho (up, down):  9.424E-01 0.000E+00

     negative rho (up, down):  9.424E-01 0.000E+00

     negative rho (up, down):  9.424E-01 0.000E+00

     negative rho (up, down):  9.424E-01 0.000E+00

     negative rho (up, down):  9.424E-01 0.000E+00

     negative rho (up, down):  9.424E-01 0.000E+00

     negative rho (up, down):  9.424E-01 0.000E+00
 
     Adding external electric field

     Computed dipole along edir(3) : 
        Dipole               -0.0742 Ry au,         -0.1886 Debye
        Dipole field         -0.0002 Ry au
 
        Potential amp.        0.0185 Ry
        Total length         45.3309 bohr
 

     total cpu time spent up to now is      775.0 secs

     End of self-consistent calculation

          k = 0.0000 0.0000 0.0000 ( 17231 PWs)   bands (ev):

   -49.4008 -49.2816 -49.2814 -48.9988 -48.9987 -48.9443 -48.8969 -48.8434
   -48.8434 -48.8304 -48.7839 -48.7838 -48.7100 -48.6958 -48.6956 -48.6481
   -48.6345 -48.6344 -48.6257 -48.5714 -48.5714 -48.5536 -48.5535 -48.5381
   -48.3926 -48.3925 -48.3701 -48.3701 -48.3665 -48.3235 -48.3235 -48.2866
   -48.2167 -48.2116 -48.1998 -48.1996 -12.1457  -4.7233  -4.2586  -3.9232
    -3.9232  -3.5356  -3.3699  -3.3699  -3.3425  -3.2510  -3.1132  -3.1131
    -3.0851  -2.9399  -2.8417  -2.8416  -2.6801  -2.6800  -2.3658  -1.8478
    -1.8478  -1.6741  -1.5943  -1.5943  -1.5081  -1.3434  -1.3434  -1.3114
    -1.3114  -1.1937  -1.0422  -1.0422  -1.0146  -1.0135  -1.0135  -0.4681
    -0.4680  -0.4507  -0.4045  -0.2617  -0.0798  -0.0798   0.0623   0.0624
     0.2130   0.2130   0.3823   0.3824   0.7113   0.7113   0.7165   0.7247
     0.7733   0.8332   0.8333   0.8593   0.9582   0.9582   1.0838   1.1168
     1.1168   1.3003   1.3004   1.3136   1.4064   1.4065   1.7490   2.9581
     3.3223   3.3223   3.9606   4.6150   4.6150

          k = 0.0000 0.0341 0.0000 ( 17192 PWs)   bands (ev):

   -49.3927 -49.2870 -49.2805 -48.9946 -48.9925 -48.9388 -48.9020 -48.8469
   -48.8419 -48.8198 -48.7779 -48.7764 -48.7081 -48.6967 -48.6948 -48.6462
   -48.6423 -48.6389 -48.6263 -48.5864 -48.5748 -48.5474 -48.5434 -48.5290
   -48.4015 -48.3933 -48.3742 -48.3714 -48.3696 -48.3388 -48.3273 -48.2860
   -48.2164 -48.2112 -48.2004 -48.1997 -12.1379  -4.5637  -4.1335  -3.8920
    -3.8367  -3.3903  -3.2742  -3.2243  -3.1724  -3.1394  -3.0298  -3.0270
    -2.9971  -2.8534  -2.7408  -2.7195  -2.6225  -2.6038  -2.2978  -1.8428
    -1.8247  -1.6437  -1.6007  -1.5365  -1.5336  -1.4703  -1.3678  -1.3229
    -1.2136  -1.1793  -1.1721  -1.1266  -0.9971  -0.9607  -0.9220  -0.7350
    -0.6031  -0.5300  -0.4639  -0.3455  -0.2060  -0.1210  -0.0454  -0.0250
     0.1015   0.1770   0.2057   0.3272   0.4762   0.4864   0.5520   0.6170
     0.6394   0.6728   0.7222   0.7722   0.8372   0.8833   0.8951   0.9698
     1.0252   1.0374   1.1219   1.1373   1.2042   1.4270   2.0572   2.4411
     3.3231   3.4246   3.5309   3.9933   4.4782

          k = 0.0000 0.0683 0.0000 ( 17196 PWs)   bands (ev):

   -49.3727 -49.3020 -49.2784 -48.9860 -48.9762 -48.9231 -48.9165 -48.8630
   -48.8394 -48.7960 -48.7608 -48.7473 -48.7030 -48.7006 -48.6939 -48.6610
   -48.6587 -48.6429 -48.6270 -48.6179 -48.5843 -48.5322 -48.5181 -48.4997
   -48.4236 -48.4037 -48.3825 -48.3791 -48.3736 -48.3673 -48.3371 -48.2848
   -48.2158 -48.2099 -48.2023 -48.1995 -12.1223  -4.2464  -3.8420  -3.7029
    -3.6444  -3.1063  -3.0275  -2.9518  -2.8770  -2.7758  -2.7755  -2.7449
    -2.7168  -2.6520  -2.5615  -2.5195  -2.3918  -2.2678  -2.0974  -1.8938
    -1.8624  -1.7786  -1.7356  -1.6286  -1.5194  -1.4565  -1.4204  -1.3342
    -1.3131  -1.2425  -1.1236  -1.0627  -1.0155  -0.9780  -0.9343  -0.8764
    -0.8566  -0.6815  -0.6288  -0.5241  -0.5137  -0.3244  -0.3218  -0.2904
    -0.2716  -0.2055  -0.1219  -0.0786  -0.0006   0.0971   0.1810   0.2922
     0.3036   0.3576   0.4074   0.4576   0.4688   0.6300   0.6601   0.6637
     0.8341   0.8809   0.9257   0.9994   1.1037   1.3976   1.5435   2.5414
     3.0883   3.5427   3.7827   4.4142   4.7320

          k = 0.0000-0.1024 0.0000 ( 17240 PWs)   bands (ev):

   -49.3577 -49.3145 -49.2773 -48.9817 -48.9629 -48.9290 -48.9078 -48.8796
   -48.8384 -48.7814 -48.7473 -48.7194 -48.7028 -48.6954 -48.6878 -48.6815
   -48.6717 -48.6651 -48.6401 -48.6100 -48.5924 -48.5226 -48.5000 -48.4718
   -48.4267 -48.4257 -48.4130 -48.3863 -48.3748 -48.3604 -48.3456 -48.2842
   -48.2156 -48.2087 -48.2037 -48.1994 -12.1145  -4.1324  -3.6938  -3.5350
    -3.3229  -3.1426  -2.8416  -2.8070  -2.6971  -2.6248  -2.6102  -2.5087
    -2.4606  -2.4062  -2.3297  -2.3197  -2.2709  -2.1826  -2.0875  -1.9835
    -1.8014  -1.7883  -1.7412  -1.6839  -1.6180  -1.5555  -1.5009  -1.4379
    -1.3375  -1.2302  -1.2089  -1.0753  -1.0113  -0.9897  -0.9190  -0.8698
    -0.8616  -0.8464  -0.7392  -0.7323  -0.6640  -0.6489  -0.5140  -0.4761
    -0.3775  -0.3393  -0.3015  -0.2854  -0.2343  -0.1368  -0.1189  -0.0474
     0.0612   0.1274   0.1511   0.2537   0.3148   0.3606   0.6231   0.7011
     0.8250   0.8277   0.8734   1.0227   1.1000   1.3838   1.5973   2.3709
     3.4645   3.5962   4.0052   4.0987   4.8527

          k = 0.0296-0.0171 0.0000 ( 17192 PWs)   bands (ev):

   -49.3927 -49.2871 -49.2804 -48.9945 -48.9925 -48.9388 -48.9020 -48.8470
   -48.8418 -48.8198 -48.7778 -48.7765 -48.7081 -48.6966 -48.6949 -48.6462
   -48.6422 -48.6390 -48.6263 -48.5865 -48.5748 -48.5474 -48.5433 -48.5290
   -48.4016 -48.3932 -48.3742 -48.3714 -48.3697 -48.3388 -48.3273 -48.2860
   -48.2164 -48.2112 -48.2006 -48.1995 -12.1379  -4.5637  -4.1335  -3.8920
    -3.8367  -3.3903  -3.2742  -3.2243  -3.1724  -3.1394  -3.0298  -3.0271
    -2.9971  -2.8534  -2.7408  -2.7195  -2.6225  -2.6038  -2.2978  -1.8429
    -1.8247  -1.6436  -1.6007  -1.5365  -1.5336  -1.4703  -1.3678  -1.3229
    -1.2135  -1.1793  -1.1721  -1.1266  -0.9971  -0.9607  -0.9219  -0.7350
    -0.6031  -0.5299  -0.4639  -0.3455  -0.2060  -0.1210  -0.0454  -0.0249
     0.1015   0.1770   0.2057   0.3272   0.4761   0.4864   0.5520   0.6170
     0.6395   0.6728   0.7222   0.7722   0.8372   0.8833   0.8951   0.9697
     1.0253   1.0374   1.1218   1.1373   1.2042   1.4270   2.0572   2.4411
     3.3231   3.4246   3.5309   3.9932   4.4782

          k = 0.0296 0.0171 0.0000 ( 17192 PWs)   bands (ev):

   -49.3927 -49.2870 -49.2804 -48.9945 -48.9925 -48.9388 -48.9020 -48.8470
   -48.8418 -48.8198 -48.7779 -48.7765 -48.7081 -48.6966 -48.6949 -48.6462
   -48.6422 -48.6390 -48.6263 -48.5865 -48.5748 -48.5474 -48.5433 -48.5290
   -48.4016 -48.3932 -48.3742 -48.3714 -48.3696 -48.3388 -48.3273 -48.2860
   -48.2164 -48.2112 -48.2005 -48.1996 -12.1379  -4.5637  -4.1335  -3.8920
    -3.8367  -3.3903  -3.2742  -3.2243  -3.1724  -3.1394  -3.0298  -3.0271
    -2.9971  -2.8534  -2.7408  -2.7195  -2.6225  -2.6038  -2.2978  -1.8429
    -1.8247  -1.6437  -1.6007  -1.5365  -1.5336  -1.4703  -1.3678  -1.3229
    -1.2135  -1.1793  -1.1721  -1.1265  -0.9971  -0.9607  -0.9219  -0.7350
    -0.6031  -0.5299  -0.4639  -0.3455  -0.2060  -0.1210  -0.0454  -0.0249
     0.1015   0.1770   0.2057   0.3272   0.4762   0.4864   0.5520   0.6170
     0.6394   0.6728   0.7222   0.7722   0.8372   0.8833   0.8951   0.9697
     1.0253   1.0374   1.1219   1.1373   1.2042   1.4270   2.0572   2.4411
     3.3231   3.4246   3.5309   3.9933   4.4782

          k = 0.0296 0.0512 0.0000 ( 17186 PWs)   bands (ev):

   -49.3784 -49.2978 -49.2787 -48.9879 -48.9812 -48.9281 -48.9122 -48.8562
   -48.8412 -48.8018 -48.7635 -48.7602 -48.7045 -48.7001 -48.6936 -48.6648
   -48.6436 -48.6355 -48.6294 -48.6128 -48.5824 -48.5365 -48.5227 -48.5117
   -48.4227 -48.3900 -48.3795 -48.3758 -48.3736 -48.3641 -48.3352 -48.2851
   -48.2159 -48.2103 -48.2019 -48.1995 -12.1262  -4.3128  -3.9105  -3.8019
    -3.6977  -3.1386  -3.0814  -2.9965  -2.9756  -2.8832  -2.8593  -2.8517
    -2.8158  -2.7122  -2.5828  -2.5631  -2.4793  -2.3964  -2.1591  -1.8517
    -1.7952  -1.7428  -1.7136  -1.6354  -1.5313  -1.4791  -1.4167  -1.3574
    -1.2961  -1.1627  -1.1045  -1.0644  -1.0167  -1.0037  -0.9454  -0.8617
    -0.7833  -0.6718  -0.6294  -0.5246  -0.3304  -0.2742  -0.2503  -0.1978
    -0.1709  -0.0514   0.0041   0.0093   0.1106   0.1937   0.2512   0.3508
     0.4108   0.4544   0.4736   0.5349   0.6271   0.7155   0.7460   0.7945
     0.8421   0.9380   0.9830   1.1136   1.2397   1.3552   1.9468   2.0758
     2.8223   3.0647   3.7627   4.4818   5.0770

          k = 0.0296-0.1195 0.0000 ( 17183 PWs)   bands (ev):

   -49.3571 -49.3156 -49.2769 -48.9810 -48.9639 -48.9293 -48.9093 -48.8748
   -48.8410 -48.7781 -48.7426 -48.7300 -48.7081 -48.6979 -48.6934 -48.6855
   -48.6636 -48.6437 -48.6391 -48.6176 -48.5953 -48.5195 -48.4958 -48.4817
   -48.4477 -48.4136 -48.3914 -48.3843 -48.3767 -48.3678 -48.3485 -48.2842
   -48.2156 -48.2087 -48.2040 -48.1993 -12.1145  -4.0823  -3.7371  -3.5762
    -3.3670  -2.9851  -2.7883  -2.7409  -2.7146  -2.6253  -2.5808  -2.5470
    -2.4997  -2.4706  -2.3401  -2.3223  -2.2387  -2.1299  -2.0632  -2.0218
    -1.8835  -1.8415  -1.7657  -1.6928  -1.6111  -1.5748  -1.5328  -1.4892
    -1.3726  -1.3084  -1.2266  -1.2026  -1.0990  -1.0481  -0.9936  -0.9592
    -0.8860  -0.7939  -0.7853  -0.6652  -0.6286  -0.5949  -0.5486  -0.5021
    -0.3945  -0.3088  -0.2543  -0.2242  -0.1636  -0.0300  -0.0165   0.1059
     0.1749   0.2398   0.2851   0.3494   0.4755   0.6156   0.6547   0.7347
     0.7832   0.8151   0.8969   0.9530   0.9979   1.2066   1.6674   2.0817
     2.4913   3.2745   3.9823   4.6652   5.3847

          k = 0.0296-0.0853 0.0000 ( 17183 PWs)   bands (ev):

   -49.3571 -49.3156 -49.2769 -48.9810 -48.9639 -48.9293 -48.9093 -48.8748
   -48.8410 -48.7781 -48.7426 -48.7300 -48.7080 -48.6979 -48.6934 -48.6855
   -48.6636 -48.6437 -48.6391 -48.6176 -48.5953 -48.5195 -48.4958 -48.4817
   -48.4477 -48.4136 -48.3913 -48.3843 -48.3767 -48.3678 -48.3485 -48.2842
   -48.2156 -48.2087 -48.2040 -48.1993 -12.1145  -4.0823  -3.7371  -3.5762
    -3.3670  -2.9851  -2.7883  -2.7409  -2.7146  -2.6253  -2.5808  -2.5470
    -2.4997  -2.4706  -2.3401  -2.3223  -2.2387  -2.1299  -2.0632  -2.0218
    -1.8835  -1.8415  -1.7657  -1.6928  -1.6111  -1.5748  -1.5328  -1.4892
    -1.3726  -1.3084  -1.2266  -1.2026  -1.0990  -1.0481  -0.9936  -0.9592
    -0.8860  -0.7939  -0.7853  -0.6652  -0.6286  -0.5949  -0.5486  -0.5021
    -0.3945  -0.3088  -0.2543  -0.2242  -0.1636  -0.0300  -0.0165   0.1059
     0.1749   0.2398   0.2851   0.3494   0.4755   0.6156   0.6547   0.7347
     0.7832   0.8151   0.8969   0.9530   0.9979   1.2066   1.6674   2.0817
     2.4913   3.2745   3.9823   4.6652   5.3847

          k = 0.0296-0.0512 0.0000 ( 17186 PWs)   bands (ev):

   -49.3783 -49.2978 -49.2787 -48.9879 -48.9813 -48.9281 -48.9122 -48.8562
   -48.8412 -48.8018 -48.7635 -48.7602 -48.7045 -48.7001 -48.6936 -48.6648
   -48.6436 -48.6355 -48.6294 -48.6128 -48.5824 -48.5365 -48.5227 -48.5117
   -48.4227 -48.3900 -48.3795 -48.3758 -48.3736 -48.3641 -48.3352 -48.2851
   -48.2159 -48.2103 -48.2019 -48.1995 -12.1262  -4.3128  -3.9105  -3.8019
    -3.6977  -3.1386  -3.0814  -2.9965  -2.9756  -2.8832  -2.8593  -2.8517
    -2.8158  -2.7122  -2.5828  -2.5631  -2.4793  -2.3964  -2.1591  -1.8517
    -1.7952  -1.7428  -1.7136  -1.6354  -1.5313  -1.4791  -1.4167  -1.3574
    -1.2961  -1.1627  -1.1045  -1.0644  -1.0167  -1.0037  -0.9454  -0.8617
    -0.7833  -0.6718  -0.6294  -0.5246  -0.3304  -0.2742  -0.2503  -0.1978
    -0.1709  -0.0514   0.0041   0.0093   0.1106   0.1937   0.2512   0.3508
     0.4107   0.4544   0.4736   0.5349   0.6271   0.7155   0.7460   0.7945
     0.8421   0.9380   0.9830   1.1136   1.2397   1.3552   1.9468   2.0758
     2.8223   3.0647   3.7627   4.4818   5.0770

          k = 0.0591-0.0341 0.0000 ( 17196 PWs)   bands (ev):

   -49.3726 -49.3022 -49.2783 -48.9859 -48.9763 -48.9231 -48.9165 -48.8631
   -48.8393 -48.7961 -48.7607 -48.7473 -48.7031 -48.7004 -48.6941 -48.6608
   -48.6588 -48.6429 -48.6271 -48.6179 -48.5843 -48.5323 -48.5179 -48.4997
   -48.4237 -48.4036 -48.3825 -48.3792 -48.3736 -48.3674 -48.3371 -48.2848
   -48.2158 -48.2098 -48.2026 -48.1994 -12.1223  -4.2464  -3.8420  -3.7029
    -3.6444  -3.1063  -3.0275  -2.9518  -2.8770  -2.7758  -2.7755  -2.7449
    -2.7168  -2.6520  -2.5615  -2.5195  -2.3918  -2.2679  -2.0974  -1.8938
    -1.8624  -1.7786  -1.7355  -1.6286  -1.5193  -1.4565  -1.4203  -1.3342
    -1.3132  -1.2425  -1.1236  -1.0627  -1.0155  -0.9780  -0.9343  -0.8764
    -0.8566  -0.6815  -0.6288  -0.5241  -0.5136  -0.3244  -0.3219  -0.2904
    -0.2716  -0.2055  -0.1219  -0.0786  -0.0006   0.0971   0.1809   0.2922
     0.3037   0.3576   0.4074   0.4576   0.4688   0.6300   0.6600   0.6637
     0.8341   0.8808   0.9256   0.9994   1.1038   1.3976   1.5435   2.5414
     3.0883   3.5427   3.7827   4.4142   4.7320

          k = 0.0591-0.0000 0.0000 ( 17186 PWs)   bands (ev):

   -49.3783 -49.2979 -49.2786 -48.9879 -48.9813 -48.9281 -48.9122 -48.8562
   -48.8412 -48.8019 -48.7634 -48.7603 -48.7046 -48.7000 -48.6937 -48.6648
   -48.6436 -48.6356 -48.6294 -48.6128 -48.5824 -48.5366 -48.5227 -48.5117
   -48.4227 -48.3900 -48.3795 -48.3759 -48.3736 -48.3641 -48.3352 -48.2851
   -48.2159 -48.2102 -48.2021 -48.1994 -12.1262  -4.3128  -3.9105  -3.8019
    -3.6977  -3.1386  -3.0814  -2.9965  -2.9756  -2.8832  -2.8593  -2.8517
    -2.8158  -2.7122  -2.5828  -2.5631  -2.4793  -2.3964  -2.1591  -1.8517
    -1.7951  -1.7428  -1.7136  -1.6354  -1.5313  -1.4791  -1.4168  -1.3574
    -1.2961  -1.1627  -1.1045  -1.0644  -1.0167  -1.0037  -0.9454  -0.8617
    -0.7833  -0.6718  -0.6294  -0.5246  -0.3304  -0.2742  -0.2503  -0.1978
    -0.1709  -0.0514   0.0041   0.0093   0.1106   0.1938   0.2512   0.3508
     0.4107   0.4544   0.4735   0.5350   0.6271   0.7155   0.7460   0.7944
     0.8421   0.9380   0.9830   1.1136   1.2397   1.3552   1.9468   2.0758
     2.8223   3.0647   3.7627   4.4818   5.0770

          k = 0.0591 0.0341 0.0000 ( 17196 PWs)   bands (ev):

   -49.3727 -49.3021 -49.2783 -48.9860 -48.9762 -48.9231 -48.9165 -48.8630
   -48.8393 -48.7961 -48.7607 -48.7473 -48.7030 -48.7004 -48.6940 -48.6608
   -48.6588 -48.6429 -48.6271 -48.6179 -48.5843 -48.5323 -48.5180 -48.4997
   -48.4237 -48.4036 -48.3825 -48.3791 -48.3736 -48.3674 -48.3371 -48.2848
   -48.2158 -48.2098 -48.2025 -48.1994 -12.1223  -4.2464  -3.8420  -3.7029
    -3.6444  -3.1063  -3.0275  -2.9518  -2.8769  -2.7758  -2.7755  -2.7449
    -2.7168  -2.6520  -2.5615  -2.5195  -2.3918  -2.2679  -2.0974  -1.8938
    -1.8624  -1.7786  -1.7355  -1.6286  -1.5194  -1.4565  -1.4203  -1.3342
    -1.3132  -1.2425  -1.1236  -1.0627  -1.0155  -0.9780  -0.9344  -0.8764
    -0.8566  -0.6815  -0.6288  -0.5241  -0.5136  -0.3244  -0.3218  -0.2904
    -0.2716  -0.2055  -0.1219  -0.0786  -0.0006   0.0971   0.1809   0.2922
     0.3037   0.3576   0.4074   0.4576   0.4688   0.6300   0.6600   0.6637
     0.8341   0.8808   0.9257   0.9994   1.1038   1.3976   1.5435   2.5414
     3.0883   3.5427   3.7827   4.4142   4.7320

          k = 0.0591-0.1365 0.0000 ( 17183 PWs)   bands (ev):

   -49.3571 -49.3156 -49.2769 -48.9810 -48.9639 -48.9292 -48.9093 -48.8748
   -48.8410 -48.7782 -48.7425 -48.7299 -48.7082 -48.6980 -48.6934 -48.6855
   -48.6635 -48.6437 -48.6391 -48.6177 -48.5952 -48.5196 -48.4957 -48.4817
   -48.4478 -48.4135 -48.3914 -48.3843 -48.3767 -48.3679 -48.3484 -48.2842
   -48.2156 -48.2086 -48.2042 -48.1992 -12.1145  -4.0823  -3.7371  -3.5762
    -3.3670  -2.9851  -2.7883  -2.7409  -2.7147  -2.6252  -2.5808  -2.5471
    -2.4997  -2.4706  -2.3401  -2.3223  -2.2387  -2.1300  -2.0633  -2.0218
    -1.8835  -1.8415  -1.7657  -1.6928  -1.6111  -1.5748  -1.5328  -1.4892
    -1.3726  -1.3084  -1.2266  -1.2026  -1.0989  -1.0481  -0.9936  -0.9592
    -0.8860  -0.7939  -0.7853  -0.6652  -0.6286  -0.5949  -0.5486  -0.5021
    -0.3945  -0.3089  -0.2543  -0.2242  -0.1636  -0.0300  -0.0165   0.1059
     0.1749   0.2398   0.2851   0.3494   0.4755   0.6156   0.6547   0.7346
     0.7832   0.8150   0.8969   0.9530   0.9979   1.2066   1.6675   2.0817
     2.4913   3.2745   3.9823   4.6652   5.3847

          k = 0.0591-0.1024 0.0000 ( 17208 PWs)   bands (ev):

   -49.3364 -49.3356 -49.2759 -48.9781 -48.9502 -48.9440 -48.8933 -48.8881
   -48.8434 -48.7517 -48.7506 -48.7112 -48.7075 -48.7043 -48.6921 -48.6919
   -48.6878 -48.6400 -48.6325 -48.6136 -48.6123 -48.4996 -48.4936 -48.4635
   -48.4605 -48.4416 -48.3821 -48.3816 -48.3716 -48.3711 -48.3668 -48.2839
   -48.2154 -48.2070 -48.2060 -48.1991 -12.1106  -3.9533  -3.7047  -3.5986
    -2.9784  -2.9282  -2.7642  -2.4893  -2.4837  -2.4644  -2.4209  -2.4016
    -2.3723  -2.3350  -2.2582  -2.2566  -2.2014  -2.1885  -2.1667  -2.0028
    -1.9046  -1.8851  -1.7763  -1.7088  -1.7043  -1.6660  -1.6636  -1.5972
    -1.4771  -1.4241  -1.3375  -1.3153  -1.3034  -1.2969  -0.9965  -0.9901
    -0.9560  -0.9329  -0.9217  -0.8791  -0.8322  -0.6807  -0.6723  -0.4467
    -0.4152  -0.3610  -0.1541  -0.1215  -0.1067  -0.0110   0.0926   0.1381
     0.2223   0.2553   0.3702   0.4356   0.6066   0.6746   0.6914   0.7136
     0.7765   0.7780   0.7823   0.8038   0.8664   1.0913   1.1207   1.9560
     2.1675   3.0066   4.3583   4.4945   5.3707

          k = 0.0591-0.0683 0.0000 ( 17183 PWs)   bands (ev):

   -49.3570 -49.3157 -49.2768 -48.9810 -48.9640 -48.9292 -48.9092 -48.8749
   -48.8410 -48.7782 -48.7425 -48.7299 -48.7082 -48.6980 -48.6934 -48.6855
   -48.6635 -48.6437 -48.6391 -48.6177 -48.5952 -48.5196 -48.4957 -48.4817
   -48.4478 -48.4135 -48.3914 -48.3843 -48.3767 -48.3680 -48.3484 -48.2842
   -48.2156 -48.2086 -48.2042 -48.1992 -12.1145  -4.0822  -3.7371  -3.5762
    -3.3670  -2.9851  -2.7883  -2.7409  -2.7147  -2.6252  -2.5808  -2.5471
    -2.4997  -2.4706  -2.3401  -2.3223  -2.2387  -2.1300  -2.0633  -2.0218
    -1.8835  -1.8415  -1.7657  -1.6928  -1.6111  -1.5748  -1.5328  -1.4892
    -1.3726  -1.3084  -1.2266  -1.2026  -1.0989  -1.0481  -0.9936  -0.9592
    -0.8860  -0.7939  -0.7853  -0.6652  -0.6286  -0.5949  -0.5486  -0.5021
    -0.3945  -0.3089  -0.2543  -0.2242  -0.1636  -0.0300  -0.0165   0.1059
     0.1749   0.2398   0.2851   0.3494   0.4755   0.6156   0.6547   0.7346
     0.7832   0.8150   0.8969   0.9530   0.9979   1.2066   1.6675   2.0817
     2.4913   3.2745   3.9823   4.6652   5.3847

          k =-0.0887 0.0512 0.0000 ( 17240 PWs)   bands (ev):

   -49.3576 -49.3147 -49.2772 -48.9816 -48.9631 -48.9289 -48.9077 -48.8797
   -48.8383 -48.7816 -48.7471 -48.7191 -48.7029 -48.6955 -48.6879 -48.6812
   -48.6718 -48.6651 -48.6401 -48.6101 -48.5923 -48.5227 -48.4999 -48.4719
   -48.4267 -48.4259 -48.4129 -48.3863 -48.3748 -48.3606 -48.3454 -48.2842
   -48.2156 -48.2086 -48.2041 -48.1993 -12.1145  -4.1324  -3.6938  -3.5350
    -3.3229  -3.1426  -2.8416  -2.8071  -2.6971  -2.6248  -2.6102  -2.5086
    -2.4607  -2.4062  -2.3296  -2.3197  -2.2709  -2.1826  -2.0875  -1.9835
    -1.8014  -1.7884  -1.7412  -1.6838  -1.6180  -1.5556  -1.5009  -1.4378
    -1.3375  -1.2302  -1.2089  -1.0753  -1.0113  -0.9897  -0.9190  -0.8698
    -0.8616  -0.8464  -0.7392  -0.7322  -0.6640  -0.6489  -0.5140  -0.4761
    -0.3775  -0.3394  -0.3014  -0.2854  -0.2343  -0.1368  -0.1189  -0.0473
     0.0611   0.1274   0.1511   0.2537   0.3148   0.3606   0.6231   0.7011
     0.8251   0.8276   0.8734   1.0227   1.1000   1.3838   1.5974   2.3709
     3.4645   3.5962   4.0052   4.0987   4.8527

          k =-0.0887 0.0853 0.0000 ( 17183 PWs)   bands (ev):

   -49.3570 -49.3157 -49.2768 -48.9810 -48.9640 -48.9292 -48.9092 -48.8749
   -48.8410 -48.7782 -48.7425 -48.7299 -48.7080 -48.6980 -48.6934 -48.6855
   -48.6636 -48.6437 -48.6391 -48.6177 -48.5952 -48.5196 -48.4957 -48.4817
   -48.4477 -48.4136 -48.3913 -48.3843 -48.3767 -48.3679 -48.3484 -48.2842
   -48.2156 -48.2086 -48.2043 -48.1992 -12.1145  -4.0822  -3.7371  -3.5762
    -3.3670  -2.9851  -2.7883  -2.7409  -2.7146  -2.6253  -2.5808  -2.5471
    -2.4997  -2.4706  -2.3401  -2.3223  -2.2387  -2.1300  -2.0632  -2.0218
    -1.8835  -1.8414  -1.7657  -1.6929  -1.6111  -1.5748  -1.5328  -1.4893
    -1.3726  -1.3084  -1.2266  -1.2026  -1.0990  -1.0481  -0.9936  -0.9592
    -0.8860  -0.7939  -0.7853  -0.6651  -0.6286  -0.5949  -0.5486  -0.5021
    -0.3944  -0.3089  -0.2543  -0.2242  -0.1636  -0.0301  -0.0165   0.1059
     0.1749   0.2398   0.2852   0.3493   0.4755   0.6156   0.6547   0.7346
     0.7832   0.8150   0.8969   0.9530   0.9979   1.2066   1.6675   2.0817
     2.4913   3.2745   3.9823   4.6652   5.3847

          k =-0.0887 0.1195 0.0000 ( 17183 PWs)   bands (ev):

   -49.3571 -49.3157 -49.2768 -48.9810 -48.9639 -48.9292 -48.9092 -48.8749
   -48.8410 -48.7782 -48.7425 -48.7299 -48.7080 -48.6980 -48.6934 -48.6855
   -48.6636 -48.6437 -48.6391 -48.6177 -48.5952 -48.5196 -48.4957 -48.4817
[...]
    -0.2811  -0.2008  -0.1412  -0.1033   0.0027   0.0964   0.1766   0.2793
     0.3043   0.3607   0.4071   0.4531   0.4706   0.6294   0.6561   0.6623
     0.8258   0.8770   0.9194   0.9982   1.0979   1.3917   1.5296   2.5215
     3.0747   3.5420   3.7775   4.4019   4.7167

          k = 0.0591-0.0000 0.0000 ( 17186 PWs)   bands (ev):

   -49.3677 -49.2838 -49.2643 -48.9756 -48.9695 -48.9051 -48.8989 -48.8363
   -48.8224 -48.8017 -48.7562 -48.7542 -48.7043 -48.6927 -48.6877 -48.6654
   -48.6367 -48.6275 -48.6196 -48.6021 -48.5735 -48.5407 -48.5271 -48.5129
   -48.4269 -48.4142 -48.4080 -48.3942 -48.3803 -48.3683 -48.3394 -48.2896
   -48.2604 -48.2152 -48.2056 -48.2030 -12.1085  -4.2847  -3.8783  -3.7814
    -3.6630  -3.1126  -3.0582  -2.9751  -2.9498  -2.8619  -2.8430  -2.8266
    -2.8091  -2.6908  -2.5759  -2.5660  -2.4879  -2.3982  -2.1492  -1.8516
    -1.7878  -1.7206  -1.7001  -1.6364  -1.5442  -1.4636  -1.4111  -1.3585
    -1.2984  -1.1371  -1.0835  -1.0650  -1.0228  -1.0069  -0.9306  -0.8621
    -0.7838  -0.6753  -0.6360  -0.5255  -0.3344  -0.2808  -0.2613  -0.2044
    -0.1870  -0.0652  -0.0063   0.0010   0.1083   0.1966   0.2633   0.3447
     0.4077   0.4465   0.4723   0.5272   0.6236   0.7085   0.7480   0.7862
     0.8348   0.9355   0.9833   1.1021   1.2320   1.3441   1.9407   2.0787
     2.7953   3.0556   3.7506   4.4686   5.0851

          k = 0.0591 0.0341 0.0000 ( 17196 PWs)   bands (ev):

   -49.3619 -49.2881 -49.2639 -48.9733 -48.9650 -48.9030 -48.9004 -48.8425
   -48.8203 -48.7959 -48.7530 -48.7418 -48.7029 -48.6934 -48.6875 -48.6631
   -48.6582 -48.6207 -48.6168 -48.6146 -48.5747 -48.5367 -48.5210 -48.5024
   -48.4279 -48.4171 -48.4093 -48.4065 -48.3835 -48.3719 -48.3413 -48.2892
   -48.2606 -48.2146 -48.2061 -48.2030 -12.1045  -4.2187  -3.8089  -3.6780
    -3.6101  -3.0880  -2.9955  -2.9342  -2.8488  -2.7541  -2.7451  -2.7402
    -2.7051  -2.6296  -2.5536  -2.5202  -2.3907  -2.2721  -2.0916  -1.8684
    -1.8659  -1.7675  -1.7278  -1.6099  -1.5426  -1.4339  -1.4190  -1.3411
    -1.2991  -1.2609  -1.1309  -1.0478  -0.9921  -0.9819  -0.9229  -0.8729
    -0.8547  -0.6949  -0.6367  -0.5337  -0.5041  -0.3403  -0.3260  -0.2979
    -0.2811  -0.2008  -0.1412  -0.1033   0.0027   0.0964   0.1766   0.2793
     0.3043   0.3607   0.4071   0.4531   0.4706   0.6294   0.6561   0.6623
     0.8258   0.8770   0.9194   0.9982   1.0979   1.3917   1.5296   2.5215
     3.0747   3.5420   3.7775   4.4019   4.7167

          k = 0.0591-0.1365 0.0000 ( 17183 PWs)   bands (ev):

   -49.3464 -49.3016 -49.2624 -48.9685 -48.9529 -48.9149 -48.8875 -48.8538
   -48.8216 -48.7771 -48.7348 -48.7249 -48.7012 -48.6978 -48.6886 -48.6848
   -48.6605 -48.6397 -48.6157 -48.6133 -48.5850 -48.5239 -48.4992 -48.4853
   -48.4517 -48.4204 -48.4168 -48.4111 -48.3954 -48.3724 -48.3526 -48.2882
   -48.2610 -48.2129 -48.2079 -48.2028 -12.0964  -4.0587  -3.6908  -3.5375
    -3.3456  -2.9611  -2.7655  -2.7182  -2.6937  -2.6049  -2.5572  -2.5288
    -2.4692  -2.4579  -2.3259  -2.3014  -2.2310  -2.1296  -2.0543  -2.0182
    -1.8828  -1.8234  -1.7527  -1.6836  -1.6213  -1.5853  -1.5322  -1.4780
    -1.3716  -1.3160  -1.2486  -1.1990  -1.1008  -1.0472  -1.0021  -0.9649
    -0.8942  -0.8034  -0.7903  -0.6559  -0.6349  -0.5936  -0.5516  -0.4828
    -0.3954  -0.3258  -0.2665  -0.2398  -0.1647  -0.0372  -0.0173   0.0966
     0.1709   0.2421   0.2846   0.3438   0.4681   0.6072   0.6531   0.7359
     0.7771   0.8110   0.8903   0.9563   0.9954   1.2020   1.6523   2.0779
     2.4827   3.2607   3.9564   4.6393   5.3755

          k = 0.0591-0.1024 0.0000 ( 17208 PWs)   bands (ev):

   -49.3306 -49.3167 -49.2614 -48.9659 -48.9415 -48.9265 -48.8739 -48.8653
   -48.8235 -48.7488 -48.7485 -48.7033 -48.6997 -48.6981 -48.6925 -48.6881
   -48.6857 -48.6390 -48.6144 -48.6034 -48.6022 -48.5041 -48.4981 -48.4674
   -48.4631 -48.4463 -48.4169 -48.4161 -48.3762 -48.3756 -48.3707 -48.2877
   -48.2612 -48.2107 -48.2102 -48.2026 -12.0924  -3.9368  -3.6444  -3.5637
    -2.9656  -2.8786  -2.7578  -2.4657  -2.4615  -2.4227  -2.3978  -2.3634
    -2.3600  -2.2733  -2.2671  -2.2441  -2.1966  -2.1690  -2.1475  -1.9706
    -1.9438  -1.8800  -1.7757  -1.7341  -1.7144  -1.6703  -1.6411  -1.5878
    -1.4677  -1.4488  -1.3713  -1.3167  -1.3071  -1.3042  -1.0367  -0.9632
    -0.9580  -0.9361  -0.9352  -0.8926  -0.8348  -0.6809  -0.6381  -0.4325
    -0.4175  -0.3893  -0.1853  -0.1276  -0.0954   0.0022   0.0620   0.1505
     0.2234   0.2539   0.3571   0.4018   0.6186   0.6648   0.6765   0.7059
     0.7655   0.7757   0.7806   0.8189   0.8717   1.0927   1.1289   1.9327
     2.1603   2.9987   4.3341   4.4513   5.3440

          k = 0.0591-0.0683 0.0000 ( 17183 PWs)   bands (ev):

   -49.3464 -49.3016 -49.2624 -48.9685 -48.9529 -48.9149 -48.8875 -48.8538
   -48.8216 -48.7771 -48.7348 -48.7249 -48.7012 -48.6978 -48.6886 -48.6848
   -48.6605 -48.6397 -48.6157 -48.6133 -48.5850 -48.5239 -48.4992 -48.4853
   -48.4517 -48.4204 -48.4168 -48.4111 -48.3954 -48.3724 -48.3526 -48.2882
   -48.2610 -48.2129 -48.2079 -48.2028 -12.0964  -4.0587  -3.6908  -3.5375
    -3.3456  -2.9611  -2.7655  -2.7182  -2.6937  -2.6049  -2.5572  -2.5288
    -2.4692  -2.4579  -2.3259  -2.3014  -2.2310  -2.1296  -2.0543  -2.0182
    -1.8828  -1.8234  -1.7527  -1.6836  -1.6213  -1.5853  -1.5322  -1.4780
    -1.3716  -1.3160  -1.2486  -1.1990  -1.1008  -1.0472  -1.0021  -0.9649
    -0.8942  -0.8034  -0.7903  -0.6559  -0.6349  -0.5936  -0.5516  -0.4828
    -0.3954  -0.3258  -0.2665  -0.2398  -0.1647  -0.0372  -0.0173   0.0966
     0.1709   0.2421   0.2846   0.3438   0.4681   0.6072   0.6531   0.7359
     0.7771   0.8110   0.8903   0.9563   0.9954   1.2020   1.6523   2.0779
     2.4827   3.2606   3.9564   4.6393   5.3755

          k =-0.0887 0.0512 0.0000 ( 17240 PWs)   bands (ev):

   -49.3470 -49.3005 -49.2628 -48.9687 -48.9529 -48.9144 -48.8864 -48.8577
   -48.8192 -48.7808 -48.7383 -48.7130 -48.7000 -48.6881 -48.6879 -48.6850
   -48.6731 -48.6498 -48.6156 -48.6113 -48.5807 -48.5272 -48.5023 -48.4764
   -48.4316 -48.4294 -48.4209 -48.4176 -48.4087 -48.3651 -48.3496 -48.2882
   -48.2610 -48.2131 -48.2077 -48.2029 -12.0964  -4.1092  -3.6448  -3.4966
    -3.2977  -3.1274  -2.8232  -2.7882  -2.6595  -2.6068  -2.5839  -2.4930
    -2.4510  -2.3882  -2.3114  -2.2916  -2.2724  -2.1535  -2.0894  -1.9913
    -1.7839  -1.7765  -1.7220  -1.6891  -1.6095  -1.5513  -1.5009  -1.4574
    -1.3340  -1.2739  -1.1744  -1.0908  -1.0254  -1.0047  -0.9357  -0.8824
    -0.8713  -0.8257  -0.7503  -0.7155  -0.6669  -0.6547  -0.5039  -0.4541
    -0.3708  -0.3670  -0.3159  -0.2878  -0.2226  -0.1439  -0.1436  -0.0622
     0.0520   0.1342   0.1634   0.2413   0.3092   0.3591   0.6216   0.7069
     0.8155   0.8186   0.8720   1.0183   1.0987   1.3814   1.5757   2.3573
     3.4612   3.5947   3.9931   4.0662   4.8352

          k =-0.0887 0.0853 0.0000 ( 17183 PWs)   bands (ev):

   -49.3464 -49.3016 -49.2624 -48.9685 -48.9529 -48.9149 -48.8876 -48.8538
   -48.8216 -48.7771 -48.7348 -48.7249 -48.7012 -48.6978 -48.6886 -48.6848
   -48.6606 -48.6397 -48.6157 -48.6133 -48.5850 -48.5239 -48.4992 -48.4853
   -48.4516 -48.4204 -48.4168 -48.4111 -48.3954 -48.3724 -48.3526 -48.2882
   -48.2610 -48.2129 -48.2079 -48.2028 -12.0964  -4.0587  -3.6908  -3.5375
    -3.3456  -2.9611  -2.7655  -2.7182  -2.6937  -2.6049  -2.5572  -2.5288
    -2.4692  -2.4579  -2.3259  -2.3014  -2.2310  -2.1297  -2.0543  -2.0182
    -1.8828  -1.8234  -1.7527  -1.6836  -1.6213  -1.5853  -1.5322  -1.4780
    -1.3716  -1.3159  -1.2486  -1.1990  -1.1008  -1.0472  -1.0021  -0.9649
    -0.8942  -0.8034  -0.7903  -0.6559  -0.6349  -0.5936  -0.5516  -0.4828
    -0.3954  -0.3258  -0.2665  -0.2398  -0.1647  -0.0372  -0.0173   0.0966
     0.1710   0.2421   0.2846   0.3437   0.4681   0.6072   0.6531   0.7359
     0.7771   0.8110   0.8903   0.9563   0.9954   1.2020   1.6523   2.0779
     2.4827   3.2606   3.9564   4.6393   5.3755

          k =-0.0887 0.1195 0.0000 ( 17183 PWs)   bands (ev):

   -49.3464 -49.3016 -49.2624 -48.9685 -48.9529 -48.9149 -48.8875 -48.8538
   -48.8216 -48.7771 -48.7348 -48.7249 -48.7012 -48.6978 -48.6886 -48.6848
   -48.6606 -48.6397 -48.6157 -48.6133 -48.5850 -48.5239 -48.4992 -48.4853
   -48.4516 -48.4204 -48.4168 -48.4111 -48.3954 -48.3724 -48.3526 -48.2882
   -48.2610 -48.2129 -48.2079 -48.2028 -12.0964  -4.0587  -3.6908  -3.5375
    -3.3456  -2.9611  -2.7655  -2.7182  -2.6937  -2.6049  -2.5572  -2.5288
    -2.4692  -2.4579  -2.3259  -2.3014  -2.2310  -2.1297  -2.0543  -2.0182
    -1.8828  -1.8234  -1.7527  -1.6836  -1.6213  -1.5853  -1.5322  -1.4780
    -1.3716  -1.3159  -1.2486  -1.1990  -1.1008  -1.0472  -1.0021  -0.9649
    -0.8942  -0.8034  -0.7903  -0.6559  -0.6349  -0.5936  -0.5516  -0.4828
    -0.3954  -0.3258  -0.2665  -0.2398  -0.1647  -0.0372  -0.0173   0.0966
     0.1710   0.2421   0.2846   0.3437   0.4681   0.6072   0.6531   0.7359
     0.7771   0.8110   0.8903   0.9563   0.9954   1.2020   1.6523   2.0779
     2.4827   3.2606   3.9564   4.6393   5.3755

          k =-0.0887-0.0512 0.0000 ( 17240 PWs)   bands (ev):

   -49.3470 -49.3005 -49.2628 -48.9687 -48.9529 -48.9144 -48.8864 -48.8578
   -48.8191 -48.7808 -48.7383 -48.7130 -48.7000 -48.6881 -48.6879 -48.6850
   -48.6731 -48.6498 -48.6156 -48.6113 -48.5807 -48.5272 -48.5023 -48.4764
   -48.4316 -48.4293 -48.4209 -48.4176 -48.4087 -48.3651 -48.3496 -48.2882
   -48.2610 -48.2131 -48.2077 -48.2029 -12.0964  -4.1092  -3.6448  -3.4966
    -3.2977  -3.1273  -2.8232  -2.7882  -2.6595  -2.6068  -2.5839  -2.4930
    -2.4510  -2.3882  -2.3114  -2.2916  -2.2724  -2.1535  -2.0894  -1.9913
    -1.7839  -1.7765  -1.7220  -1.6891  -1.6095  -1.5513  -1.5009  -1.4574
    -1.3340  -1.2739  -1.1744  -1.0908  -1.0254  -1.0047  -0.9357  -0.8824
    -0.8713  -0.8257  -0.7503  -0.7155  -0.6669  -0.6547  -0.5039  -0.4541
    -0.3708  -0.3670  -0.3159  -0.2878  -0.2226  -0.1439  -0.1436  -0.0622
     0.0520   0.1342   0.1634   0.2413   0.3092   0.3591   0.6216   0.7069
     0.8155   0.8186   0.8720   1.0183   1.0987   1.3814   1.5757   2.3573
     3.4612   3.5947   3.9931   4.0662   4.8352

     the Fermi energy is     1.0746 ev

!    total energy              =   -2421.91126623 Ry
     Harris-Foulkes estimate   =   -2421.91126654 Ry
     estimated scf accuracy    <       0.00000001 Ry

     The total energy is the sum of the following terms:

     one-electron contribution =  -20600.14564485 Ry
     hartree contribution      =   10351.48958919 Ry
     xc contribution           =    -398.93949008 Ry
     ewald contribution        =    8225.79587722 Ry
     electric field correction =       0.00001438 Ry
     smearing contrib. (-TS)   =      -0.11161208 Ry

     convergence has been achieved in  10 iterations
 
 BEEF-vdW xc energy contributions
           1 :   -347.173613119951     
           2 :    317.057268571673     
           3 :   -265.660039866478     
           4 :    206.765257758527     
           5 :   -153.749352801074     
           6 :    115.198078192439     
           7 :   -93.0269872647084     
           8 :    83.4494364577585     
           9 :   -79.9518656210405     
          10 :    76.6780500207419     
          11 :   -70.6884860419610     
          12 :    62.3128199103566     
          13 :   -53.8601089477006     
          14 :    47.6927148141154     
          15 :   -44.7824489246787     
          16 :    44.3772619102031     
          17 :   -44.7093990622776     
          18 :    44.1384406185280     
          19 :   -42.0093076908913     
          20 :    38.7954014441450     
          21 :   -35.5811928395315     
          22 :    33.2968417018784     
          23 :   -32.1882780605787     
          24 :    31.7868957295478     
          25 :   -31.3133198032123     
          26 :    30.2047907624772     
          27 :   -28.4299452001455     
          28 :    26.4262852809564     
          29 :   -24.7511037270128     
          30 :    23.7015531148095     
          31 :   -33.9801616977303     
          32 :   -25.0756498113278     

     Forces acting on atoms (Ry/au):


     negative rho (up, down):  9.488E-01 0.000E+00
     atom    1 type  1   force =     0.00095158    0.00054595   -0.00259468
     atom    2 type  1   force =    -0.00095164    0.00054635   -0.00259534
     atom    3 type  1   force =     0.00000032   -0.00109591   -0.00259416
     atom    4 type  1   force =    -0.00000014    0.00000223    0.00161110
     atom    5 type  1   force =     0.00000029    0.00371855    0.00386177
     atom    6 type  1   force =    -0.00000032    0.00000182   -0.00581357
     atom    7 type  1   force =    -0.00321735   -0.00185982    0.00386109
     atom    8 type  1   force =     0.00321696   -0.00185921    0.00386104
     atom    9 type  1   force =     0.00000180   -0.00001200    0.00021072
     atom   10 type  1   force =    -0.00000176   -0.00088337   -0.00035553
     atom   11 type  1   force =    -0.00075167    0.00044513   -0.00034576
     atom   12 type  1   force =     0.00075255    0.00044756   -0.00034668
     atom   13 type  2   force =    -0.00000063    0.00000274    0.00124002

     Total force =     0.002064     Total SCF correction =     0.000420
     SCF correction compared to forces is large: reduce conv_thr to get better values


     entering subroutine stress ...


     negative rho (up, down):  9.488E-01 0.000E+00
          total   stress  (Ry/bohr**3)                   (kbar)     P=   -6.16
  -0.00005825  -0.00000000  -0.00000000         -8.57     -0.00     -0.00
  -0.00000000  -0.00005825   0.00000000         -0.00     -8.57      0.00
  -0.00000000   0.00000000  -0.00000908         -0.00      0.00     -1.34


     bfgs converged in  10 scf cycles and   9 bfgs steps
     (criteria: energy <  1.0E+00, force <  1.9E-03)

     End of BFGS Geometry Optimization

     Final energy   =   -2421.9112662306 Ry
Begin final coordinates

ATOMIC_POSITIONS (crystal)
Pd1      0.166666667   0.166666667   0.406452311    0   0   0
Pd1      0.666666667   0.166666667   0.406452311    0   0   0
Pd1      0.166666667   0.666666667   0.406452311    0   0   0
Pd1      0.666666667   0.666666667   0.406452311    0   0   0
Pd1      0.833333333   0.333333333   0.500000000    0   0   0
Pd1      0.333333333   0.333333333   0.500000000    0   0   0
Pd1      0.833333333   0.833333333   0.500000000    0   0   0
Pd1      0.333333333   0.833333333   0.500000000    0   0   0
Pd1     -0.000003033   0.000004871   0.592167819
Pd1      0.502667643  -0.005334392   0.595281272
Pd1     -0.005336305   0.502665476   0.595281002
Pd1      0.502670896   0.502664759   0.595280937
S1       0.333333826   0.333333156   0.659384438
End final coordinates



     Writing output data file calc.save
 
     init_run     :     11.34s CPU     11.76s WALL (       1 calls)
     electrons    :   2899.06s CPU   3066.28s WALL (      10 calls)
     update_pot   :     28.25s CPU     30.51s WALL (       9 calls)
     forces       :    141.57s CPU    149.48s WALL (      10 calls)
     stress       :    435.45s CPU    455.99s WALL (      10 calls)

     Called by init_run:
     wfcinit      :      4.52s CPU      4.61s WALL (       1 calls)
     potinit      :      1.87s CPU      2.07s WALL (       1 calls)

     Called by electrons:
     c_bands      :   1162.47s CPU   1206.83s WALL (     119 calls)
     sum_band     :    585.51s CPU    620.72s WALL (     119 calls)
     v_of_rho     :    201.86s CPU    227.66s WALL (     129 calls)
     newd         :    500.46s CPU    505.63s WALL (     129 calls)
     mix_rho      :      6.72s CPU      6.92s WALL (     119 calls)
     vdW_energy   :     96.59s CPU    107.99s WALL (     489 calls)
     vdW_ffts     :    252.07s CPU    263.00s WALL (     998 calls)
     vdW_v        :     96.08s CPU    100.68s WALL (     489 calls)

     Called by c_bands:
     init_us_2    :      6.56s CPU      6.56s WALL (    1295 calls)
     cegterg      :   1097.68s CPU   1125.95s WALL (     595 calls)

     Called by *egterg:
     h_psi        :    732.23s CPU    748.12s WALL (    1958 calls)
     s_psi        :     63.42s CPU     63.53s WALL (    1958 calls)
     g_psi        :      3.96s CPU      3.96s WALL (    1358 calls)
     cdiaghg      :     88.31s CPU     89.01s WALL (    1908 calls)

     Called by h_psi:
     add_vuspsi   :     64.97s CPU     65.08s WALL (    1958 calls)

     General routines
     calbec       :    102.33s CPU    104.02s WALL (    2653 calls)
     fft          :    387.15s CPU    415.76s WALL (   29553 calls)
     ffts         :      0.45s CPU      0.48s WALL (     248 calls)
     fftw         :    472.38s CPU    488.52s WALL (  370235 calls)
     interpolate  :      4.25s CPU      4.37s WALL (     248 calls)
     davcio       :      0.00s CPU      0.04s WALL (       5 calls)
 
     Parallel routines
     fft_scatter  :    484.63s CPU    528.25s WALL (  400036 calls)
 
     PWSCF        :     0h59m CPU        1h 2m WALL

 
   This run was terminated on:  10: 0:41   3May2018            

=------------------------------------------------------------------------------=
   JOB DONE.
=------------------------------------------------------------------------------=
Job  /afs/slac/g/suncat/bin/suncat-tsmpirun -x LD_LIBRARY_PATH -wdir /scratch/qe693521_nqyw2 pw.x -npool 4 -in pw.inp

TID   HOST_NAME   COMMAND_LINE            STATUS            TERMINATION_TIME
===== ========== ================  =======================  ===================
00000 suncat0191 pw.x -npool 4 -i  Done                     05/03/2018 10:00:41
00001 suncat0191 pw.x -npool 4 -i  Done                     05/03/2018 10:00:41
00002 suncat0191 pw.x -npool 4 -i  Done                     05/03/2018 10:00:41
00003 suncat0191 pw.x -npool 4 -i  Done                     05/03/2018 10:00:41
00004 suncat0191 pw.x -npool 4 -i  Done                     05/03/2018 10:00:41
00005 suncat0191 pw.x -npool 4 -i  Done                     05/03/2018 10:00:41
00006 suncat0191 pw.x -npool 4 -i  Done                     05/03/2018 10:00:41
00007 suncat0191 pw.x -npool 4 -i  Done                     05/03/2018 10:00:41
00008 suncat0166 pw.x -npool 4 -i  Done                     05/03/2018 10:00:41
00009 suncat0166 pw.x -npool 4 -i  Done                     05/03/2018 10:00:41
00010 suncat0166 pw.x -npool 4 -i  Done                     05/03/2018 10:00:41
00011 suncat0166 pw.x -npool 4 -i  Done                     05/03/2018 10:00:41
00012 suncat0166 pw.x -npool 4 -i  Done                     05/03/2018 10:00:41
00013 suncat0166 pw.x -npool 4 -i  Done                     05/03/2018 10:00:41
00014 suncat0166 pw.x -npool 4 -i  Done                     05/03/2018 10:00:41
00015 suncat0166 pw.x -npool 4 -i  Done                     05/03/2018 10:00:41
00016 suncat0152 pw.x -npool 4 -i  Done                     05/03/2018 10:00:41
00017 suncat0152 pw.x -npool 4 -i  Done                     05/03/2018 10:00:41
00018 suncat0152 pw.x -npool 4 -i  Done                     05/03/2018 10:00:41
00019 suncat0152 pw.x -npool 4 -i  Done                     05/03/2018 10:00:41
00020 suncat0152 pw.x -npool 4 -i  Done                     05/03/2018 10:00:41
00021 suncat0152 pw.x -npool 4 -i  Done                     05/03/2018 10:00:41
00022 suncat0152 pw.x -npool 4 -i  Done                     05/03/2018 10:00:41
00023 suncat0152 pw.x -npool 4 -i  Done                     05/03/2018 10:00:41
00024 suncat0139 pw.x -npool 4 -i  Done                     05/03/2018 10:00:41
00025 suncat0139 pw.x -npool 4 -i  Done                     05/03/2018 10:00:41
00026 suncat0139 pw.x -npool 4 -i  Done                     05/03/2018 10:00:41
00027 suncat0139 pw.x -npool 4 -i  Done                     05/03/2018 10:00:41
00028 suncat0139 pw.x -npool 4 -i  Done                     05/03/2018 10:00:41
00029 suncat0139 pw.x -npool 4 -i  Done                     05/03/2018 10:00:41
00030 suncat0139 pw.x -npool 4 -i  Done                     05/03/2018 10:00:41
00031 suncat0139 pw.x -npool 4 -i  Done                     05/03/2018 10:00:41
