  python dir          : /home/mamunm/src/espresso
  espresso dir        : /home/vossj/suncat/esdld/espresso-dynpy-beef/bin
  pseudo dir          : /home/mamunm/src/pseudo/gbrv1.5pbe
  ase-espresso py git : GITVERSION



     Program PWSCF v.5.1rc2 (svn rev. ) starts on 17Apr2018 at 23:59:56 

     This program is part of the open-source Quantum ESPRESSO suite
     for quantum simulation of materials; please cite
         "P. Giannozzi et al., J. Phys.:Condens. Matter 21 395502 (2009);
          URL http://www.quantum-espresso.org", 
     in publications or presentations arising from this work. More details at
     http://www.quantum-espresso.org/quote

     Parallel version (MPI), running on    16 processors
     R & G space division:  proc/nbgrp/npool/nimage =      16
     Reading input from pw.inp
     Message from routine read_cards :
     DEPRECATED: no units specified in CELL_PARAMETERS card

     Current dimensions of program PWSCF are:
     Max number of different atomic species (ntypx) = 10
     Max number of k-points (npk) =  40000
     Max angular momentum in pseudopotentials (lmaxx) =  3
     Presently stress not available with electric field


     **************************************************************************
     Initializing libbeef V0.1.1 with the BEEF-vdW functional.
     Citation: Wellendorff et al., PRB 85, 235149 (2012).
     **************************************************************************


     IMPORTANT: XC functional enforced from input :
     Exchange-correlation      = BEEF-VDW ( 1  4 27 13 2)
     Any further DFT definition will be discarded
     Please, verify this is what you really want


     Subspace diagonalization in iterative solution of the eigenvalue problem:
     a serial algorithm will be used

 
     Parallelization info
     --------------------
     sticks:   dense  smooth     PW     G-vecs:    dense   smooth      PW
     Min         208      84     23                40204    10170    1567
     Max         209      85     24                40221    10198    1586
     Sum        3343    1345    379               643481   162939   25279
 


     bravais-lattice index     =            0
     lattice parameter (alat)  =       1.8897  a.u.
     unit-cell volume          =    5409.9593 (a.u.)^3
     number of atoms/cell      =           16
     number of atomic types    =            3
     number of electrons       =       235.00
     number of Kohn-Sham states=          127
     kinetic-energy cutoff     =      36.7493  Ry
     charge density cutoff     =     367.4932  Ry
     convergence threshold     =      1.0E-05
     mixing beta               =       0.3000
     number of iterations used =           10  plain     mixing
     Exchange-correlation      = BEEF-VDW ( 1  4 27 13 2)
     nstep                     =           50


     celldm(1)=   1.889726  celldm(2)=   0.000000  celldm(3)=   0.000000
     celldm(4)=   0.000000  celldm(5)=   0.000000  celldm(6)=   0.000000

     crystal axes: (cart. coord. in units of alat)
               a(1) = (   6.088539   0.000000   0.000000 )  
               a(2) = (   3.044269   5.272829   0.000000 )  
               a(3) = (   0.000000   0.000000  24.971271 )  

     reciprocal axes: (cart. coord. in units 2 pi/alat)
               b(1) = (  0.164243 -0.094826  0.000000 )  
               b(2) = (  0.000000  0.189652  0.000000 )  
               b(3) = (  0.000000  0.000000  0.040046 )  


     PseudoPot. # 1 for Ga read from file:
     /home/mamunm/src/pseudo/gbrv1.5pbe/Ga.UPF
     MD5 check sum: ccd671392a58a050fbb373893b4fcd66
     Pseudo is Ultrasoft + core correction, Zval = 19.0
     Generated by new atomic code, or converted to UPF format
     Using radial grid of  871 points,  6 beta functions with: 
                l(1) =   0
                l(2) =   0
                l(3) =   1
                l(4) =   1
                l(5) =   2
                l(6) =   2
     Q(r) pseudized with  8 coefficients,  rinner =    1.250   1.250   1.250
                                                       1.250   1.250

     PseudoPot. # 2 for C  read from file:
     /home/mamunm/src/pseudo/gbrv1.5pbe/C.UPF
     MD5 check sum: d1aef80898a10debaa0f26306b886e00
     Pseudo is Ultrasoft + core correction, Zval =  4.0
     Generated by new atomic code, or converted to UPF format
     Using radial grid of  721 points,  4 beta functions with: 
                l(1) =   0
                l(2) =   0
                l(3) =   1
                l(4) =   1
     Q(r) pseudized with  8 coefficients,  rinner =    1.100   1.100   1.100


     PseudoPot. # 3 for H  read from file:
     /home/mamunm/src/pseudo/gbrv1.5pbe/H.UPF
     MD5 check sum: 761ae9a214b05c3daf00ab9f6b793d6f
     Pseudo is Ultrasoft, Zval =  1.0
     Generated by new atomic code, or converted to UPF format
     Using radial grid of  615 points,  2 beta functions with: 
                l(1) =   0
                l(2) =   0
     Q(r) pseudized with  8 coefficients,  rinner =    0.700

     vdW kernel table read from file vdW_kernel_table
     MD5 check sum: 095c7af220d748ca6e76c0b4c6cfb241

     atomic species   valence    mass     pseudopotential
        Ga1           19.00    69.72300     Ga( 1.00)
        C1             4.00    12.01100     C ( 1.00)
        H1             1.00     1.00800     H ( 1.00)

     No symmetry found



   Cartesian axes

     site n.     atom                  positions (alat units)
         1           Ga1 tau(   1) = (   1.5221346   0.8788048  10.0000000  )
         2           Ga1 tau(   2) = (   4.5664039   0.8788048  10.0000000  )
         3           Ga1 tau(   3) = (   3.0442693   3.5152194  10.0000000  )
         4           Ga1 tau(   4) = (   6.0885386   3.5152194  10.0000000  )
         5           Ga1 tau(   5) = (   6.0885386   1.7576097  12.4856355  )
         6           Ga1 tau(   6) = (   3.0442693   1.7576097  12.4856355  )
         7           Ga1 tau(   7) = (   7.6106732   4.3940242  12.4856355  )
         8           Ga1 tau(   8) = (   4.5664039   4.3940242  12.4856355  )
         9           Ga1 tau(   9) = (   0.0000000   0.0000000  14.9712709  )
        10           Ga1 tau(  10) = (   3.0442693   0.0000000  14.9712709  )
        11           Ga1 tau(  11) = (   1.5221346   2.6364145  14.9712709  )
        12           Ga1 tau(  12) = (   4.5664039   2.6364145  14.9712709  )
        13           C1  tau(  13) = (   0.0000000   0.0000000  16.6542709  )
        14           H1  tau(  14) = (   1.0900000   0.0000000  17.2842709  )
        15           H1  tau(  15) = (   5.6385386   0.8895000  17.2842709  )
        16           H1  tau(  16) = (   2.5942693   4.3833291  17.2842709  )

     number of k points=    20  Fermi-Dirac smearing, width (Ry)=  0.0110
                       cart. coord. in units 2pi/alat
        k(    1) = (   0.0000000   0.0000000   0.0000000), wk =   0.0555556
        k(    2) = (   0.0000000   0.0316086   0.0000000), wk =   0.1111111
        k(    3) = (   0.0000000   0.0632172   0.0000000), wk =   0.1111111
        k(    4) = (   0.0000000  -0.0948258   0.0000000), wk =   0.0555556
        k(    5) = (   0.0273738  -0.0158043   0.0000000), wk =   0.1111111
        k(    6) = (   0.0273738   0.0158043   0.0000000), wk =   0.1111111
        k(    7) = (   0.0273738   0.0474129   0.0000000), wk =   0.1111111
        k(    8) = (   0.0273738  -0.1106300   0.0000000), wk =   0.1111111
        k(    9) = (   0.0273738  -0.0790215   0.0000000), wk =   0.1111111
        k(   10) = (   0.0273738  -0.0474129   0.0000000), wk =   0.1111111
        k(   11) = (   0.0547477  -0.0316086   0.0000000), wk =   0.1111111
        k(   12) = (   0.0547477   0.0000000   0.0000000), wk =   0.1111111
        k(   13) = (   0.0547477   0.0316086   0.0000000), wk =   0.1111111
        k(   14) = (   0.0547477  -0.1264343   0.0000000), wk =   0.1111111
        k(   15) = (   0.0547477  -0.0948258   0.0000000), wk =   0.1111111
        k(   16) = (   0.0547477  -0.0632172   0.0000000), wk =   0.1111111
        k(   17) = (  -0.0821215   0.0474129   0.0000000), wk =   0.0555556
        k(   18) = (  -0.0821215   0.0790215   0.0000000), wk =   0.1111111
        k(   19) = (  -0.0821215   0.1106300   0.0000000), wk =   0.1111111
        k(   20) = (  -0.0821215  -0.0474129   0.0000000), wk =   0.0555556

     Dense  grid:   643481 G-vectors     FFT dimensions: (  72,  72, 288)

     Smooth grid:   162939 G-vectors     FFT dimensions: (  45,  45, 192)

     Largest allocated arrays     est. size (Mb)     dimensions
        Kohn-Sham Wavefunctions         2.52 Mb     (    1300,  127)
        NL pseudopotentials             4.56 Mb     (    1300,  230)
        Each V/rho on FFT grid          1.42 Mb     (   93312)
        Each G-vector array             0.31 Mb     (   40221)
        G-vector shells                 0.12 Mb     (   15526)
     Largest temporary arrays     est. size (Mb)     dimensions
        Auxiliary wavefunctions        10.08 Mb     (    1300,  508)
        Each subspace H/S matrix        3.94 Mb     (     508,  508)
        Each <psi_i|beta_j> matrix      0.45 Mb     (     230,  127)
        Arrays for rho mixing          14.24 Mb     (   93312,   10)

     Initial potential from superposition of free atoms
     Check: negative starting charge=   -0.001072

     starting charge  222.99992, renormalised to  235.00000

     negative rho (up, down):  1.130E-03 0.000E+00


     ************************************************************************
     *
     * You are using vdW-DF for exchange-correlation in this calculation.
     * Please cite the following three references that made this development
     * possible:
     *
     *   M. Dion, H. Rydberg, E. Schroder, D. C. Langreth, and
     *   B. I. Lundqvist, Phys. Rev. Lett. 92, 246401 (2004).
     *
     *   T. Thonhauser, V. R. Cooper, S. Li, A. Puzder, P. Hyldgaard, and
     *   D. C. Langreth, Phys. Rev. B 76, 125112 (2007).
     *
     *   G. Roman-Perez and J. M. Soler, Phys. Rev. Lett. 103, 096102 (2009).
     *
     *
     * If you are using vdW-DF2, please also cite:
     *
     *   K. Lee, E. D. Murray, L. Kong, B. I. Lundqvist, and
     *   D. C. Langreth, Phys. Rev. B 82, 081101(R) (2010).
     *
     *
     * If you are calculating the stress with vdW-DF, please also cite:
     *
     *   R. Sabatini, E. Kucukbenli, B. Kolb, T. Thonhauser, and
     *   S. de Gironcoli, J. Phys.: Condens. Matter 24, 424209 (2012).
     *
     ************************************************************************

     Carrying out vdW-DF run using the following parameters:

     Nqs =      20    Nr_points =    1024   r_max =   100.000
     q_mesh =
               0.00001000     0.04494208     0.09755937     0.15916263
               0.23128650     0.31572767     0.41458969     0.53033537
               0.66584808     0.82450364     1.01025438     1.22772762
               1.48234092     1.78043706     2.12944203     2.53805004
               3.01644009     3.57652955     4.23227104     5.00000000

     Gradients computed in reciprocal space

     ************************************************************************


 
     Adding external electric field

     Computed dipole along edir(3) : 
        Dipole               -3.1590 Ry au,         -8.0293 Debye
        Dipole field         -0.0073 Ry au
 
        Potential amp.        0.6752 Ry
        Total length         46.0091 bohr
 
     Starting wfc are  151 randomized atomic wfcs

     total cpu time spent up to now is        9.7 secs

     Self-consistent Calculation

     iteration #  1     ecut=    36.75 Ry     beta=0.30
     Davidson diagonalization with overlap
     ethr =  1.00E-02,  avg # of iterations =  7.2

     negative rho (up, down):  1.921E-05 0.000E+00
 
     Adding external electric field

     Computed dipole along edir(3) : 
        Dipole               89.9366 Ry au,        228.5960 Debye
        Dipole field          0.2089 Ry au
 
        Potential amp.      -19.2232 Ry
        Total length         46.0091 bohr
 

     total cpu time spent up to now is       50.9 secs

     total energy              =   -4652.81327835 Ry
     Harris-Foulkes estimate   =   -5021.14278772 Ry
     estimated scf accuracy    <     777.37483390 Ry

     iteration #  2     ecut=    36.75 Ry     beta=0.30
     Davidson diagonalization with overlap
     c_bands:  3 eigenvalues not converged
     c_bands:  5 eigenvalues not converged
     c_bands:  3 eigenvalues not converged
     ethr =  1.00E-02,  avg # of iterations = 20.6
 
     Adding external electric field

     Computed dipole along edir(3) : 
        Dipole               21.5730 Ry au,         54.8330 Debye
        Dipole field          0.0501 Ry au
 
        Potential amp.       -4.6110 Ry
        Total length         46.0091 bohr
 

     total cpu time spent up to now is      151.6 secs

     total energy              =   -4565.73178487 Ry
     Harris-Foulkes estimate   =   -5951.78199272 Ry
     estimated scf accuracy    <   20973.87814605 Ry

     iteration #  3     ecut=    36.75 Ry     beta=0.30
     Davidson diagonalization with overlap
     c_bands:  1 eigenvalues not converged
     c_bands:  1 eigenvalues not converged
     ethr =  1.00E-02,  avg # of iterations = 12.8
 
     Adding external electric field

     Computed dipole along edir(3) : 
        Dipole               24.7431 Ry au,         62.8906 Debye
        Dipole field          0.0575 Ry au
 
        Potential amp.       -5.2886 Ry
        Total length         46.0091 bohr
 

     total cpu time spent up to now is      210.9 secs

     total energy              =   -4886.21250584 Ry
     Harris-Foulkes estimate   =   -5170.86933471 Ry
     estimated scf accuracy    <    2713.93117497 Ry

     iteration #  4     ecut=    36.75 Ry     beta=0.30
     Davidson diagonalization with overlap
     ethr =  1.00E-02,  avg # of iterations =  6.1
 
     Adding external electric field

     Computed dipole along edir(3) : 
        Dipole               19.1882 Ry au,         48.7715 Debye
        Dipole field          0.0446 Ry au
 
        Potential amp.       -4.1013 Ry
        Total length         46.0091 bohr
 

     total cpu time spent up to now is      249.9 secs

     total energy              =   -5022.15177347 Ry
     Harris-Foulkes estimate   =   -5038.03656558 Ry
     estimated scf accuracy    <      53.68829066 Ry

     iteration #  5     ecut=    36.75 Ry     beta=0.30
     Davidson diagonalization with overlap
     ethr =  1.00E-02,  avg # of iterations =  2.0
 
     Adding external electric field

     Computed dipole along edir(3) : 
        Dipole               13.7402 Ry au,         34.9240 Debye
        Dipole field          0.0319 Ry au
 
        Potential amp.       -2.9369 Ry
        Total length         46.0091 bohr
 

     total cpu time spent up to now is      270.0 secs

     total energy              =   -5017.83147175 Ry
     Harris-Foulkes estimate   =   -5024.33253999 Ry
     estimated scf accuracy    <      24.29281062 Ry

     iteration #  6     ecut=    36.75 Ry     beta=0.30
     Davidson diagonalization with overlap
     ethr =  1.00E-02,  avg # of iterations =  1.1
 
     Adding external electric field

     Computed dipole along edir(3) : 
        Dipole                8.5432 Ry au,         21.7146 Debye
        Dipole field          0.0198 Ry au
 
        Potential amp.       -1.8260 Ry
        Total length         46.0091 bohr
 

     total cpu time spent up to now is      287.6 secs

     total energy              =   -5014.59047415 Ry
     Harris-Foulkes estimate   =   -5018.68180353 Ry
     estimated scf accuracy    <      15.95212919 Ry

     iteration #  7     ecut=    36.75 Ry     beta=0.30
     Davidson diagonalization with overlap
     ethr =  6.79E-03,  avg # of iterations =  2.6
 
     Adding external electric field

     Computed dipole along edir(3) : 
        Dipole                9.1250 Ry au,         23.1933 Debye
        Dipole field          0.0212 Ry au
 
        Potential amp.       -1.9504 Ry
        Total length         46.0091 bohr
 

     total cpu time spent up to now is      306.9 secs

     total energy              =   -5015.46815880 Ry
     Harris-Foulkes estimate   =   -5015.34632570 Ry
     estimated scf accuracy    <       2.57194346 Ry

     iteration #  8     ecut=    36.75 Ry     beta=0.30
     Davidson diagonalization with overlap
     ethr =  1.09E-03,  avg # of iterations =  3.5

     negative rho (up, down):  3.998E-02 0.000E+00
 
     Adding external electric field

     Computed dipole along edir(3) : 
        Dipole                3.3046 Ry au,          8.3994 Debye
        Dipole field          0.0077 Ry au
 
        Potential amp.       -0.7063 Ry
        Total length         46.0091 bohr
 

     total cpu time spent up to now is      328.3 secs

     total energy              =   -5014.02502296 Ry
     Harris-Foulkes estimate   =   -5015.78704166 Ry
     estimated scf accuracy    <       4.95212561 Ry

     iteration #  9     ecut=    36.75 Ry     beta=0.30
     Davidson diagonalization with overlap
     ethr =  1.09E-03,  avg # of iterations =  4.8

     negative rho (up, down):  8.211E-02 0.000E+00
 
     Adding external electric field

     Computed dipole along edir(3) : 
        Dipole                0.8330 Ry au,          2.1171 Debye
        Dipole field          0.0019 Ry au
 
        Potential amp.       -0.1780 Ry
        Total length         46.0091 bohr
 

     total cpu time spent up to now is      351.9 secs

     total energy              =   -5014.08639553 Ry
     Harris-Foulkes estimate   =   -5014.27449066 Ry
     estimated scf accuracy    <       0.37045769 Ry

     iteration # 10     ecut=    36.75 Ry     beta=0.30
     Davidson diagonalization with overlap
     ethr =  1.58E-04,  avg # of iterations =  8.9

     negative rho (up, down):  5.752E-02 0.000E+00
 
     Adding external electric field

     Computed dipole along edir(3) : 
        Dipole                1.7381 Ry au,          4.4179 Debye
        Dipole field          0.0040 Ry au
 
        Potential amp.       -0.3715 Ry
        Total length         46.0091 bohr
 

     total cpu time spent up to now is      387.4 secs

     total energy              =   -5014.12355899 Ry
     Harris-Foulkes estimate   =   -5014.26564808 Ry
     estimated scf accuracy    <       1.32555249 Ry

     iteration # 11     ecut=    36.75 Ry     beta=0.30
     Davidson diagonalization with overlap
     ethr =  1.58E-04,  avg # of iterations =  6.2

     negative rho (up, down):  5.793E-02 0.000E+00
 
     Adding external electric field

     Computed dipole along edir(3) : 
        Dipole                0.6709 Ry au,          1.7053 Debye
        Dipole field          0.0016 Ry au
 
        Potential amp.       -0.1434 Ry
        Total length         46.0091 bohr
 

     total cpu time spent up to now is      412.1 secs

     total energy              =   -5014.12499708 Ry
     Harris-Foulkes estimate   =   -5014.19004904 Ry
     estimated scf accuracy    <       0.14279645 Ry

     iteration # 12     ecut=    36.75 Ry     beta=0.30
     Davidson diagonalization with overlap
     ethr =  6.08E-05,  avg # of iterations =  4.5

     negative rho (up, down):  4.667E-02 0.000E+00
 
     Adding external electric field

     Computed dipole along edir(3) : 
        Dipole                0.6033 Ry au,          1.5334 Debye
        Dipole field          0.0014 Ry au
 
        Potential amp.       -0.1289 Ry
        Total length         46.0091 bohr
 

     total cpu time spent up to now is      436.5 secs

     total energy              =   -5014.13285573 Ry
     Harris-Foulkes estimate   =   -5014.16040876 Ry
     estimated scf accuracy    <       0.10255262 Ry

     iteration # 13     ecut=    36.75 Ry     beta=0.30
     Davidson diagonalization with overlap
     ethr =  4.36E-05,  avg # of iterations =  3.9

     negative rho (up, down):  3.801E-02 0.000E+00
 
     Adding external electric field

     Computed dipole along edir(3) : 
        Dipole                0.3830 Ry au,          0.9735 Debye
        Dipole field          0.0009 Ry au
 
        Potential amp.       -0.0819 Ry
        Total length         46.0091 bohr
 

     total cpu time spent up to now is      459.5 secs

     total energy              =   -5014.13910738 Ry
     Harris-Foulkes estimate   =   -5014.15297382 Ry
     estimated scf accuracy    <       0.05717986 Ry

     iteration # 14     ecut=    36.75 Ry     beta=0.30
     Davidson diagonalization with overlap
     ethr =  2.43E-05,  avg # of iterations =  6.5

     negative rho (up, down):  1.382E-02 0.000E+00
 
     Adding external electric field

     Computed dipole along edir(3) : 
        Dipole                0.3012 Ry au,          0.7655 Debye
        Dipole field          0.0007 Ry au
 
        Potential amp.       -0.0644 Ry
        Total length         46.0091 bohr
 

     total cpu time spent up to now is      484.7 secs

     total energy              =   -5014.14515374 Ry
     Harris-Foulkes estimate   =   -5014.14815647 Ry
     estimated scf accuracy    <       0.01925975 Ry

     iteration # 15     ecut=    36.75 Ry     beta=0.30
     Davidson diagonalization with overlap
     ethr =  8.20E-06,  avg # of iterations =  7.4

     negative rho (up, down):  1.630E-03 0.000E+00
 
     Adding external electric field

     Computed dipole along edir(3) : 
        Dipole                0.0994 Ry au,          0.2526 Debye
        Dipole field          0.0002 Ry au
 
        Potential amp.       -0.0212 Ry
        Total length         46.0091 bohr
 

     total cpu time spent up to now is      509.0 secs

     total energy              =   -5014.14385484 Ry
     Harris-Foulkes estimate   =   -5014.14585814 Ry
     estimated scf accuracy    <       0.00785693 Ry

     iteration # 16     ecut=    36.75 Ry     beta=0.30
     Davidson diagonalization with overlap
     ethr =  3.34E-06,  avg # of iterations =  5.7

     negative rho (up, down):  1.590E-03 0.000E+00
 
     Adding external electric field

     Computed dipole along edir(3) : 
        Dipole                0.0932 Ry au,          0.2368 Debye
        Dipole field          0.0002 Ry au
 
        Potential amp.       -0.0199 Ry
        Total length         46.0091 bohr
 

     total cpu time spent up to now is      533.0 secs

     total energy              =   -5014.14445325 Ry
     Harris-Foulkes estimate   =   -5014.14448906 Ry
     estimated scf accuracy    <       0.00007897 Ry

     iteration # 17     ecut=    36.75 Ry     beta=0.30
     Davidson diagonalization with overlap
     ethr =  3.36E-08,  avg # of iterations =  4.0

     negative rho (up, down):  2.270E-03 0.000E+00
 
     Adding external electric field

     Computed dipole along edir(3) : 
        Dipole                0.1229 Ry au,          0.3123 Debye
        Dipole field          0.0003 Ry au
 
        Potential amp.       -0.0263 Ry
        Total length         46.0091 bohr
 

     total cpu time spent up to now is      560.0 secs

     total energy              =   -5014.14443627 Ry
     Harris-Foulkes estimate   =   -5014.14449428 Ry
     estimated scf accuracy    <       0.00048424 Ry

     iteration # 18     ecut=    36.75 Ry     beta=0.30
     Davidson diagonalization with overlap
     ethr =  3.36E-08,  avg # of iterations =  4.0

     negative rho (up, down):  1.339E-03 0.000E+00
 
     Adding external electric field

     Computed dipole along edir(3) : 
        Dipole                0.1006 Ry au,          0.2557 Debye
        Dipole field          0.0002 Ry au
 
        Potential amp.       -0.0215 Ry
        Total length         46.0091 bohr
 

     total cpu time spent up to now is      581.9 secs

     total energy              =   -5014.14446655 Ry
     Harris-Foulkes estimate   =   -5014.14448733 Ry
     estimated scf accuracy    <       0.00004139 Ry

     iteration # 19     ecut=    36.75 Ry     beta=0.30
     Davidson diagonalization with overlap
     ethr =  1.76E-08,  avg # of iterations =  3.0

     negative rho (up, down):  9.466E-04 0.000E+00

     negative rho (up, down):  9.466E-04 0.000E+00

     negative rho (up, down):  9.466E-04 0.000E+00

     negative rho (up, down):  9.466E-04 0.000E+00

     negative rho (up, down):  9.466E-04 0.000E+00

     negative rho (up, down):  9.466E-04 0.000E+00

     negative rho (up, down):  9.466E-04 0.000E+00

     negative rho (up, down):  9.466E-04 0.000E+00

     negative rho (up, down):  9.466E-04 0.000E+00

     negative rho (up, down):  9.466E-04 0.000E+00

     negative rho (up, down):  9.466E-04 0.000E+00

     negative rho (up, down):  9.466E-04 0.000E+00

     negative rho (up, down):  9.466E-04 0.000E+00

     negative rho (up, down):  9.466E-04 0.000E+00

     negative rho (up, down):  9.466E-04 0.000E+00

     negative rho (up, down):  9.466E-04 0.000E+00

     negative rho (up, down):  9.466E-04 0.000E+00

     negative rho (up, down):  9.466E-04 0.000E+00

     negative rho (up, down):  9.466E-04 0.000E+00

     negative rho (up, down):  9.466E-04 0.000E+00

     negative rho (up, down):  9.466E-04 0.000E+00

     negative rho (up, down):  9.466E-04 0.000E+00

     negative rho (up, down):  9.466E-04 0.000E+00

     negative rho (up, down):  9.466E-04 0.000E+00

     negative rho (up, down):  9.466E-04 0.000E+00

     negative rho (up, down):  9.466E-04 0.000E+00

     negative rho (up, down):  9.466E-04 0.000E+00

     negative rho (up, down):  9.466E-04 0.000E+00

     negative rho (up, down):  9.466E-04 0.000E+00

     negative rho (up, down):  9.466E-04 0.000E+00

     negative rho (up, down):  9.466E-04 0.000E+00

     negative rho (up, down):  9.466E-04 0.000E+00

     negative rho (up, down):  9.466E-04 0.000E+00

     negative rho (up, down):  9.466E-04 0.000E+00

     negative rho (up, down):  9.466E-04 0.000E+00
 
     Adding external electric field

     Computed dipole along edir(3) : 
        Dipole                0.1146 Ry au,          0.2913 Debye
        Dipole field          0.0003 Ry au
 
        Potential amp.       -0.0245 Ry
        Total length         46.0091 bohr
 

     total cpu time spent up to now is      619.9 secs

     End of self-consistent calculation

          k = 0.0000 0.0000 0.0000 ( 20347 PWs)   bands (ev):

   -94.5855 -94.5846 -94.5127 -94.3346 -94.3243 -94.3240 -94.3234 -94.3142
   -94.3142 -94.3027 -94.3024 -94.3023 -94.3017 -94.3009 -94.3004 -94.2980
   -94.2967 -94.2966 -94.2953 -94.2950 -94.2948 -94.2923 -94.2922 -94.2918
   -94.2870 -94.2867 -94.2865 -94.2685 -94.2683 -94.2677 -94.2677 -94.2663
   -94.2657 -94.2469 -94.2468 -94.2341 -15.5657 -14.9698 -14.9692 -14.9598
   -14.9578 -14.7939 -14.7917 -14.7916 -14.7524 -14.7439 -14.7423 -14.7421
   -14.7412 -14.7339 -14.7338 -14.7177 -14.7088 -14.6912 -14.6912 -14.6833
   -14.6821 -14.6821 -14.6746 -14.6746 -14.6726 -14.6725 -14.6701 -14.6622
   -14.6579 -14.6577 -14.6384 -14.6274 -14.6273 -14.5956 -14.5954 -14.5954
   -14.5782 -14.5780 -14.5768 -14.5766 -14.5588 -14.5480 -14.5479 -14.5385
   -14.5383 -14.5272 -14.5232 -14.5229 -14.5073 -14.5071 -14.5032 -14.4981
   -14.4979 -14.4960 -14.4956 -14.4946 -14.4866 -14.4753 -14.4753 -14.4640
   -12.4649  -9.6502  -8.2040  -6.2525  -5.3502  -5.2143  -4.9905  -4.4339
    -4.3971  -4.3773  -4.0949  -4.0901  -3.6016  -2.8221  -2.8131  -2.4195
    -2.1967  -2.1703  -2.1087  -1.3863  -0.5598  -0.5530  -0.4063  -0.2075
    -0.1798   0.8643   1.5082   3.0271   3.2416   3.2863   3.4305

          k = 0.0000 0.0316 0.0000 ( 20271 PWs)   bands (ev):

   -94.5855 -94.5846 -94.5126 -94.3346 -94.3243 -94.3240 -94.3233 -94.3142
   -94.3141 -94.3027 -94.3023 -94.3022 -94.3017 -94.3009 -94.3005 -94.2979
   -94.2967 -94.2966 -94.2953 -94.2950 -94.2947 -94.2923 -94.2922 -94.2917
   -94.2870 -94.2867 -94.2865 -94.2685 -94.2682 -94.2677 -94.2676 -94.2663
   -94.2658 -94.2469 -94.2468 -94.2341 -15.5655 -14.9660 -14.9634 -14.9576
   -14.9559 -14.7869 -14.7799 -14.7782 -14.7458 -14.7402 -14.7358 -14.7353
   -14.7289 -14.7247 -14.7226 -14.7094 -14.7047 -14.6898 -14.6893 -14.6846
   -14.6811 -14.6750 -14.6726 -14.6715 -14.6680 -14.6651 -14.6627 -14.6618
   -14.6552 -14.6523 -14.6376 -14.6271 -14.6248 -14.6020 -14.5980 -14.5971
   -14.5856 -14.5847 -14.5793 -14.5768 -14.5639 -14.5540 -14.5495 -14.5441
   -14.5419 -14.5328 -14.5316 -14.5268 -14.5190 -14.5159 -14.5128 -14.5087
   -14.5065 -14.5037 -14.5010 -14.4963 -14.4916 -14.4858 -14.4806 -14.4739
   -12.4586  -9.5028  -8.0698  -6.2332  -5.9460  -5.4313  -5.2103  -5.0790
    -4.7501  -4.6983  -4.1971  -3.7472  -3.3014  -2.7702  -2.7307  -2.2505
    -1.7498  -1.6938  -1.5860  -1.0891  -0.7888  -0.5739  -0.2190   0.5169
     0.8419   1.2922   1.8963   2.3089   2.9101   3.0095   3.4442

          k = 0.0000 0.0632 0.0000 ( 20353 PWs)   bands (ev):

   -94.5855 -94.5846 -94.5126 -94.3346 -94.3243 -94.3240 -94.3233 -94.3142
   -94.3141 -94.3027 -94.3023 -94.3020 -94.3017 -94.3009 -94.3007 -94.2977
   -94.2969 -94.2966 -94.2953 -94.2950 -94.2947 -94.2923 -94.2921 -94.2918
   -94.2870 -94.2867 -94.2865 -94.2684 -94.2681 -94.2678 -94.2674 -94.2663
   -94.2660 -94.2469 -94.2468 -94.2341 -15.5653 -14.9591 -14.9574 -14.9526
   -14.9454 -14.7717 -14.7492 -14.7456 -14.7342 -14.7287 -14.7249 -14.7192
   -14.7087 -14.7034 -14.7011 -14.6966 -14.6938 -14.6874 -14.6846 -14.6794
   -14.6730 -14.6706 -14.6703 -14.6634 -14.6559 -14.6550 -14.6435 -14.6409
   -14.6377 -14.6368 -14.6320 -14.6263 -14.6177 -14.6145 -14.6056 -14.6044
   -14.6003 -14.5960 -14.5885 -14.5784 -14.5773 -14.5742 -14.5598 -14.5584
   -14.5556 -14.5526 -14.5506 -14.5452 -14.5413 -14.5391 -14.5374 -14.5310
   -14.5216 -14.5204 -14.5166 -14.5122 -14.5106 -14.4968 -14.4856 -14.4811
   -12.4460  -9.0583  -7.6689  -7.2800  -6.2357  -5.7938  -5.5579  -5.4496
    -4.9769  -4.8819  -4.6054  -3.8259  -3.7456  -2.9212  -2.2406  -1.6931
    -1.1916  -1.0897  -0.6097  -0.0701   0.0545   0.3014   0.8495   1.4630
     1.6770   1.7717   1.9377   2.1578   2.7248   2.9225   3.0810

          k = 0.0000-0.0948 0.0000 ( 20384 PWs)   bands (ev):

   -94.5855 -94.5846 -94.5127 -94.3346 -94.3243 -94.3240 -94.3234 -94.3142
   -94.3141 -94.3027 -94.3022 -94.3019 -94.3017 -94.3009 -94.3008 -94.2975
   -94.2970 -94.2966 -94.2953 -94.2950 -94.2948 -94.2923 -94.2921 -94.2919
   -94.2869 -94.2867 -94.2865 -94.2684 -94.2680 -94.2679 -94.2674 -94.2663
   -94.2661 -94.2469 -94.2468 -94.2341 -15.5651 -14.9563 -14.9559 -14.9496
   -14.9380 -14.7561 -14.7448 -14.7273 -14.7201 -14.7194 -14.7184 -14.7162
   -14.7080 -14.6970 -14.6934 -14.6860 -14.6843 -14.6784 -14.6711 -14.6698
   -14.6678 -14.6628 -14.6568 -14.6564 -14.6514 -14.6496 -14.6391 -14.6379
   -14.6349 -14.6342 -14.6290 -14.6211 -14.6130 -14.6122 -14.6043 -14.6009
   -14.5995 -14.5943 -14.5906 -14.5880 -14.5836 -14.5781 -14.5772 -14.5742
   -14.5698 -14.5693 -14.5678 -14.5631 -14.5589 -14.5559 -14.5440 -14.5429
   -14.5414 -14.5407 -14.5264 -14.5174 -14.5126 -14.4973 -14.4872 -14.4809
   -12.4397  -8.3209  -8.3069  -7.0678  -6.9552  -5.7943  -5.6868  -5.3615
    -5.2802  -4.9491  -4.3814  -4.3133  -3.8730  -3.0632  -2.1462  -1.4384
    -0.4381  -0.0697  -0.0033   0.1154   0.3285   0.5219   1.4093   1.4788
     1.5452   1.9538   2.3259   2.5708   2.6532   2.8242   2.8582

          k = 0.0274-0.0158 0.0000 ( 20271 PWs)   bands (ev):

   -94.5855 -94.5846 -94.5126 -94.3346 -94.3243 -94.3240 -94.3233 -94.3142
   -94.3141 -94.3027 -94.3024 -94.3022 -94.3017 -94.3009 -94.3005 -94.2979
   -94.2967 -94.2966 -94.2953 -94.2950 -94.2947 -94.2923 -94.2922 -94.2917
   -94.2870 -94.2867 -94.2865 -94.2685 -94.2682 -94.2677 -94.2676 -94.2663
   -94.2657 -94.2469 -94.2468 -94.2341 -15.5655 -14.9661 -14.9635 -14.9575
   -14.9557 -14.7869 -14.7799 -14.7782 -14.7458 -14.7402 -14.7358 -14.7353
   -14.7289 -14.7247 -14.7227 -14.7094 -14.7047 -14.6898 -14.6893 -14.6846
   -14.6811 -14.6750 -14.6726 -14.6715 -14.6680 -14.6652 -14.6627 -14.6618
   -14.6553 -14.6522 -14.6376 -14.6272 -14.6248 -14.6021 -14.5979 -14.5971
   -14.5857 -14.5847 -14.5795 -14.5767 -14.5638 -14.5540 -14.5495 -14.5441
   -14.5419 -14.5327 -14.5317 -14.5267 -14.5192 -14.5159 -14.5127 -14.5088
   -14.5064 -14.5038 -14.5010 -14.4963 -14.4915 -14.4858 -14.4806 -14.4739
   -12.4586  -9.5028  -8.0694  -6.2303  -5.9233  -5.4442  -5.3242  -4.9587
    -4.8201  -4.6544  -4.1736  -3.7602  -3.3012  -2.7725  -2.7353  -2.2446
    -1.7503  -1.7024  -1.5746  -1.0871  -0.8022  -0.5681  -0.2176   0.5095
     0.8436   1.2935   1.9041   2.3183   2.8922   3.0112   3.4495

          k = 0.0274 0.0158 0.0000 ( 20271 PWs)   bands (ev):

   -94.5855 -94.5846 -94.5126 -94.3346 -94.3243 -94.3240 -94.3233 -94.3142
   -94.3141 -94.3027 -94.3024 -94.3022 -94.3017 -94.3009 -94.3004 -94.2979
   -94.2967 -94.2966 -94.2953 -94.2950 -94.2947 -94.2923 -94.2921 -94.2917
   -94.2870 -94.2867 -94.2865 -94.2685 -94.2682 -94.2677 -94.2676 -94.2663
   -94.2657 -94.2469 -94.2468 -94.2341 -15.5655 -14.9654 -14.9643 -14.9573
   -14.9557 -14.7868 -14.7799 -14.7782 -14.7457 -14.7402 -14.7358 -14.7354
   -14.7289 -14.7246 -14.7227 -14.7094 -14.7047 -14.6898 -14.6893 -14.6845
   -14.6811 -14.6749 -14.6726 -14.6716 -14.6680 -14.6652 -14.6627 -14.6618
   -14.6552 -14.6524 -14.6376 -14.6272 -14.6248 -14.6021 -14.5979 -14.5971
   -14.5858 -14.5846 -14.5796 -14.5766 -14.5638 -14.5540 -14.5495 -14.5442
   -14.5418 -14.5328 -14.5315 -14.5268 -14.5192 -14.5159 -14.5127 -14.5089
   -14.5064 -14.5039 -14.5009 -14.4961 -14.4916 -14.4858 -14.4805 -14.4739
   -12.4586  -9.5028  -8.0694  -6.2305  -5.9231  -5.4428  -5.3243  -4.9652
    -4.8141  -4.6547  -4.1766  -3.7565  -3.3006  -2.7810  -2.7292  -2.2457
    -1.7476  -1.6977  -1.5792  -1.0891  -0.8076  -0.5596  -0.2188   0.5117
     0.8414   1.2869   1.9108   2.3190   2.8927   3.0133   3.4489

          k = 0.0274 0.0474 0.0000 ( 20341 PWs)   bands (ev):

   -94.5855 -94.5846 -94.5126 -94.3346 -94.3243 -94.3240 -94.3233 -94.3142
   -94.3141 -94.3027 -94.3023 -94.3021 -94.3017 -94.3010 -94.3005 -94.2977
   -94.2968 -94.2966 -94.2953 -94.2950 -94.2947 -94.2923 -94.2921 -94.2918
   -94.2870 -94.2867 -94.2865 -94.2684 -94.2682 -94.2677 -94.2675 -94.2664
   -94.2658 -94.2469 -94.2468 -94.2341 -15.5653 -14.9601 -14.9587 -14.9537
   -14.9494 -14.7694 -14.7686 -14.7519 -14.7329 -14.7291 -14.7263 -14.7257
   -14.7127 -14.7105 -14.7039 -14.6990 -14.6963 -14.6883 -14.6858 -14.6838
   -14.6817 -14.6756 -14.6700 -14.6637 -14.6604 -14.6584 -14.6492 -14.6463
   -14.6434 -14.6418 -14.6325 -14.6258 -14.6208 -14.6103 -14.6045 -14.6003
   -14.5986 -14.5971 -14.5833 -14.5775 -14.5736 -14.5658 -14.5605 -14.5514
   -14.5500 -14.5461 -14.5426 -14.5418 -14.5368 -14.5327 -14.5308 -14.5225
   -14.5202 -14.5129 -14.5109 -14.5025 -14.5013 -14.4957 -14.4893 -14.4855
   -12.4492  -9.2067  -7.8015  -6.6379  -6.4920  -5.9532  -5.6388  -5.3387
    -4.8259  -4.6032  -4.2487  -3.9338  -3.4663  -2.9321  -2.5931  -1.8792
    -1.6820  -0.8985  -0.6575  -0.6417   0.0851   0.1449   0.4827   0.8574
     1.3733   1.6261   2.0965   2.3353   2.6818   2.8797   3.2053

          k = 0.0274-0.1106 0.0000 ( 20377 PWs)   bands (ev):

   -94.5855 -94.5846 -94.5127 -94.3346 -94.3243 -94.3240 -94.3234 -94.3142
   -94.3141 -94.3027 -94.3022 -94.3019 -94.3017 -94.3011 -94.3007 -94.2975
   -94.2971 -94.2966 -94.2953 -94.2950 -94.2948 -94.2923 -94.2921 -94.2919
   -94.2870 -94.2867 -94.2865 -94.2684 -94.2681 -94.2678 -94.2673 -94.2664
   -94.2660 -94.2469 -94.2468 -94.2341 -15.5651 -14.9561 -14.9552 -14.9484
   -14.9402 -14.7523 -14.7370 -14.7304 -14.7287 -14.7150 -14.7107 -14.7092
   -14.7059 -14.6993 -14.6958 -14.6917 -14.6862 -14.6823 -14.6774 -14.6727
   -14.6685 -14.6640 -14.6571 -14.6523 -14.6516 -14.6476 -14.6439 -14.6381
   -14.6357 -14.6333 -14.6266 -14.6224 -14.6211 -14.6127 -14.6092 -14.6049
   -14.6034 -14.5975 -14.5921 -14.5870 -14.5839 -14.5809 -14.5770 -14.5714
   -14.5691 -14.5665 -14.5590 -14.5573 -14.5555 -14.5510 -14.5450 -14.5396
   -14.5362 -14.5277 -14.5239 -14.5170 -14.5132 -14.5010 -14.4960 -14.4883
   -12.4398  -8.6116  -7.7210  -7.2746  -6.8405  -6.4941  -5.7481  -5.4452
    -5.0933  -4.6184  -4.3086  -4.0534  -3.5672  -2.9972  -2.4073  -1.7054
    -0.8921  -0.4350  -0.0163   0.2649   0.5391   0.6930   1.0631   1.5797
     1.7149   1.8839   1.9253   2.4504   2.8032   2.9374   3.0519

          k = 0.0274-0.0790 0.0000 ( 20377 PWs)   bands (ev):

   -94.5855 -94.5846 -94.5127 -94.3346 -94.3243 -94.3240 -94.3234 -94.3142
   -94.3141 -94.3027 -94.3022 -94.3019 -94.3017 -94.3011 -94.3007 -94.2975
   -94.2971 -94.2966 -94.2953 -94.2950 -94.2948 -94.2923 -94.2921 -94.2919
   -94.2869 -94.2867 -94.2865 -94.2684 -94.2680 -94.2678 -94.2673 -94.2664
   -94.2660 -94.2469 -94.2468 -94.2341 -15.5651 -14.9559 -14.9555 -14.9481
   -14.9403 -14.7523 -14.7370 -14.7304 -14.7286 -14.7150 -14.7108 -14.7091
   -14.7059 -14.6995 -14.6958 -14.6917 -14.6861 -14.6823 -14.6773 -14.6729
   -14.6687 -14.6637 -14.6572 -14.6526 -14.6513 -14.6476 -14.6443 -14.6382
   -14.6358 -14.6329 -14.6268 -14.6221 -14.6207 -14.6126 -14.6091 -14.6053
   -14.6036 -14.5972 -14.5928 -14.5872 -14.5843 -14.5799 -14.5768 -14.5714
   -14.5691 -14.5666 -14.5590 -14.5574 -14.5555 -14.5509 -14.5449 -14.5395
   -14.5359 -14.5281 -14.5240 -14.5168 -14.5132 -14.5009 -14.4961 -14.4883
   -12.4398  -8.6116  -7.7210  -7.2746  -6.8405  -6.4941  -5.7479  -5.4455
    -5.0939  -4.6165  -4.3080  -4.0558  -3.5671  -2.9955  -2.4124  -1.6931
    -0.9131  -0.4306   0.0015   0.2765   0.5122   0.6956   1.0710   1.5551
     1.7129   1.8945   1.9427   2.4373   2.8144   2.9639   3.0456

          k = 0.0274-0.0474 0.0000 ( 20341 PWs)   bands (ev):

   -94.5855 -94.5846 -94.5126 -94.3346 -94.3243 -94.3240 -94.3233 -94.3142
   -94.3141 -94.3027 -94.3023 -94.3020 -94.3017 -94.3010 -94.3006 -94.2977
   -94.2968 -94.2966 -94.2953 -94.2950 -94.2947 -94.2923 -94.2922 -94.2918
   -94.2869 -94.2867 -94.2865 -94.2685 -94.2681 -94.2677 -94.2675 -94.2663
   -94.2659 -94.2469 -94.2468 -94.2341 -15.5653 -14.9606 -14.9583 -14.9531
   -14.9498 -14.7694 -14.7686 -14.7518 -14.7329 -14.7292 -14.7262 -14.7257
   -14.7127 -14.7105 -14.7040 -14.6990 -14.6964 -14.6883 -14.6858 -14.6838
   -14.6818 -14.6755 -14.6702 -14.6637 -14.6603 -14.6583 -14.6493 -14.6463
   -14.6435 -14.6417 -14.6325 -14.6258 -14.6208 -14.6103 -14.6044 -14.6003
   -14.5984 -14.5972 -14.5833 -14.5775 -14.5736 -14.5658 -14.5605 -14.5516
   -14.5499 -14.5461 -14.5428 -14.5418 -14.5367 -14.5325 -14.5308 -14.5223
   -14.5202 -14.5129 -14.5108 -14.5025 -14.5015 -14.4958 -14.4892 -14.4856
   -12.4492  -9.2067  -7.8014  -6.6380  -6.4917  -5.9535  -5.6388  -5.3390
    -4.8286  -4.5961  -4.2514  -3.9356  -3.4663  -2.9345  -2.5895  -1.8679
    -1.6963  -0.8947  -0.6579  -0.6418   0.0913   0.1397   0.4767   0.8536
     1.3894   1.6325   2.0833   2.3246   2.6782   2.8841   3.2216

          k = 0.0547-0.0316 0.0000 ( 20353 PWs)   bands (ev):

   -94.5855 -94.5846 -94.5126 -94.3346 -94.3243 -94.3240 -94.3233 -94.3142
   -94.3141 -94.3026 -94.3023 -94.3020 -94.3017 -94.3011 -94.3005 -94.2977
   -94.2969 -94.2966 -94.2953 -94.2950 -94.2948 -94.2922 -94.2922 -94.2918
   -94.2869 -94.2867 -94.2865 -94.2685 -94.2681 -94.2678 -94.2674 -94.2665
   -94.2658 -94.2469 -94.2468 -94.2341 -15.5653 -14.9597 -14.9579 -14.9511
   -14.9458 -14.7717 -14.7492 -14.7457 -14.7342 -14.7287 -14.7248 -14.7193
   -14.7087 -14.7033 -14.7012 -14.6965 -14.6937 -14.6874 -14.6846 -14.6794
   -14.6731 -14.6705 -14.6702 -14.6633 -14.6558 -14.6550 -14.6437 -14.6408
   -14.6377 -14.6368 -14.6319 -14.6265 -14.6176 -14.6146 -14.6056 -14.6045
   -14.6003 -14.5959 -14.5885 -14.5785 -14.5772 -14.5741 -14.5598 -14.5583
   -14.5555 -14.5527 -14.5506 -14.5452 -14.5414 -14.5391 -14.5375 -14.5309
   -14.5215 -14.5205 -14.5165 -14.5123 -14.5105 -14.4967 -14.4856 -14.4812
   -12.4461  -9.0580  -7.6671  -7.2768  -6.2239  -5.7646  -5.6324  -5.4401
    -5.0974  -4.7958  -4.5217  -3.8662  -3.7346  -2.9148  -2.2443  -1.6878
    -1.1901  -1.0997  -0.6062  -0.0767   0.0553   0.3038   0.8542   1.4581
     1.6710   1.7772   1.9487   2.1532   2.7233   2.9092   3.0824

          k = 0.0547 0.0000 0.0000 ( 20341 PWs)   bands (ev):

   -94.5855 -94.5846 -94.5126 -94.3346 -94.3243 -94.3240 -94.3233 -94.3142
   -94.3141 -94.3026 -94.3023 -94.3020 -94.3018 -94.3011 -94.3005 -94.2977
   -94.2968 -94.2966 -94.2953 -94.2950 -94.2947 -94.2923 -94.2921 -94.2918
   -94.2870 -94.2867 -94.2865 -94.2684 -94.2682 -94.2677 -94.2674 -94.2665
   -94.2658 -94.2469 -94.2468 -94.2341 -15.5653 -14.9604 -14.9592 -14.9523
   -14.9499 -14.7694 -14.7686 -14.7519 -14.7329 -14.7291 -14.7263 -14.7257
   -14.7127 -14.7105 -14.7039 -14.6991 -14.6963 -14.6884 -14.6858 -14.6837
   -14.6817 -14.6756 -14.6700 -14.6637 -14.6604 -14.6584 -14.6492 -14.6463
   -14.6434 -14.6418 -14.6325 -14.6258 -14.6209 -14.6104 -14.6045 -14.6003
   -14.5986 -14.5970 -14.5833 -14.5775 -14.5736 -14.5658 -14.5605 -14.5514
   -14.5500 -14.5461 -14.5428 -14.5419 -14.5368 -14.5327 -14.5309 -14.5223
   -14.5202 -14.5129 -14.5109 -14.5024 -14.5013 -14.4957 -14.4893 -14.4855
   -12.4493  -9.2065  -7.8002  -6.6304  -6.4978  -5.9522  -5.5410  -5.4905
    -4.8100  -4.5760  -4.2324  -3.9416  -3.4586  -2.9440  -2.5822  -1.8761
    -1.6915  -0.8969  -0.6566  -0.6402   0.0812   0.1391   0.4819   0.8562
     1.3786   1.6375   2.0906   2.3282   2.6842   2.8738   3.2040

          k = 0.0547 0.0316 0.0000 ( 20353 PWs)   bands (ev):

   -94.5855 -94.5846 -94.5126 -94.3346 -94.3243 -94.3240 -94.3233 -94.3142
   -94.3141 -94.3026 -94.3024 -94.3020 -94.3018 -94.3012 -94.3005 -94.2977
   -94.2969 -94.2966 -94.2953 -94.2950 -94.2947 -94.2923 -94.2921 -94.2918
   -94.2870 -94.2867 -94.2865 -94.2684 -94.2682 -94.2677 -94.2674 -94.2666
   -94.2658 -94.2469 -94.2468 -94.2341 -15.5653 -14.9592 -14.9582 -14.9517
   -14.9454 -14.7717 -14.7492 -14.7457 -14.7341 -14.7287 -14.7248 -14.7194
   -14.7086 -14.7033 -14.7012 -14.6966 -14.6937 -14.6873 -14.6845 -14.6793
   -14.6730 -14.6705 -14.6701 -14.6635 -14.6559 -14.6551 -14.6434 -14.6408
   -14.6377 -14.6368 -14.6321 -14.6264 -14.6177 -14.6146 -14.6056 -14.6046
   -14.6002 -14.5958 -14.5886 -14.5785 -14.5771 -14.5741 -14.5597 -14.5585
   -14.5556 -14.5526 -14.5506 -14.5451 -14.5415 -14.5390 -14.5377 -14.5310
   -14.5216 -14.5206 -14.5165 -14.5123 -14.5104 -14.4966 -14.4855 -14.4811
   -12.4461  -9.0580  -7.6672  -7.2768  -6.2237  -5.7647  -5.6319  -5.4404
    -5.0971  -4.7962  -4.5228  -3.8652  -3.7348  -2.9129  -2.2470  -1.6905
    -1.1862  -1.0960  -0.6109  -0.0796   0.0594   0.3033   0.8538   1.4586
     1.6764   1.7705   1.9487   2.1520   2.7300   2.9134   3.0842

          k = 0.0547-0.1264 0.0000 ( 20377 PWs)   bands (ev):

   -94.5855 -94.5846 -94.5127 -94.3346 -94.3243 -94.3240 -94.3233 -94.3142
   -94.3141 -94.3026 -94.3023 -94.3019 -94.3016 -94.3013 -94.3006 -94.2975
   -94.2970 -94.2966 -94.2953 -94.2950 -94.2947 -94.2923 -94.2920 -94.2919
   -94.2870 -94.2867 -94.2865 -94.2684 -94.2682 -94.2678 -94.2672 -94.2667
   -94.2658 -94.2469 -94.2468 -94.2341 -15.5651 -14.9572 -14.9543 -14.9483
   -14.9402 -14.7523 -14.7371 -14.7303 -14.7286 -14.7150 -14.7109 -14.7090
   -14.7060 -14.6995 -14.6958 -14.6917 -14.6860 -14.6823 -14.6772 -14.6728
   -14.6686 -14.6637 -14.6571 -14.6526 -14.6514 -14.6475 -14.6443 -14.6382
   -14.6359 -14.6329 -14.6268 -14.6223 -14.6209 -14.6125 -14.6091 -14.6052
   -14.6034 -14.5973 -14.5927 -14.5872 -14.5843 -14.5801 -14.5768 -14.5714
   -14.5691 -14.5665 -14.5591 -14.5575 -14.5555 -14.5510 -14.5449 -14.5396
   -14.5360 -14.5280 -14.5240 -14.5168 -14.5133 -14.5008 -14.4960 -14.4883
   -12.4398  -8.6114  -7.7190  -7.2726  -6.8467  -6.4778  -5.7708  -5.4944
    -4.9276  -4.8036  -4.2322  -4.0425  -3.5575  -3.0147  -2.4127  -1.6964
    -0.9066  -0.4298   0.0003   0.2755   0.5179   0.6929   1.0708   1.5530
     1.7158   1.8960   1.9256   2.4510   2.7975   2.9628   3.0561

          k = 0.0547-0.0948 0.0000 ( 20397 PWs)   bands (ev):

   -94.5855 -94.5846 -94.5127 -94.3346 -94.3243 -94.3240 -94.3234 -94.3142
   -94.3141 -94.3026 -94.3023 -94.3019 -94.3016 -94.3014 -94.3006 -94.2973
   -94.2973 -94.2966 -94.2953 -94.2950 -94.2948 -94.2923 -94.2920 -94.2919
   -94.2869 -94.2867 -94.2865 -94.2684 -94.2680 -94.2679 -94.2672 -94.2667
   -94.2659 -94.2469 -94.2468 -94.2341 -15.5651 -14.9556 -14.9535 -14.9422
   -14.9412 -14.7298 -14.7284 -14.7259 -14.7174 -14.7092 -14.7079 -14.7073
   -14.7027 -14.7007 -14.6973 -14.6930 -14.6836 -14.6722 -14.6721 -14.6694
   -14.6621 -14.6596 -14.6580 -14.6513 -14.6461 -14.6428 -14.6406 -14.6374
   -14.6334 -14.6277 -14.6217 -14.6211 -14.6208 -14.6180 -14.6163 -14.6133
   -14.6083 -14.6042 -14.6030 -14.6006 -14.5853 -14.5842 -14.5792 -14.5713
   -14.5712 -14.5687 -14.5650 -14.5644 -14.5602 -14.5478 -14.5459 -14.5432
   -14.5358 -14.5274 -14.5248 -14.5230 -14.5212 -14.5062 -14.5053 -14.4978
   -12.4367  -7.8834  -7.8678  -7.8499  -6.7801  -6.5255  -6.4973  -5.2152
    -5.0881  -4.9207  -4.0205  -3.9079  -3.1824  -2.9103  -2.6150  -1.6820
    -0.4317  -0.3984  -0.3819  -0.0011   0.0269   0.9186   1.4687   1.6275
     2.0180   2.7013   2.7498   2.8109   2.9634   3.0359   3.3562

          k = 0.0547-0.0632 0.0000 ( 20377 PWs)   bands (ev):

   -94.5855 -94.5846 -94.5127 -94.3346 -94.3243 -94.3240 -94.3234 -94.3142
   -94.3141 -94.3026 -94.3023 -94.3020 -94.3016 -94.3013 -94.3006 -94.2975
   -94.2970 -94.2966 -94.2953 -94.2950 -94.2948 -94.2923 -94.2921 -94.2918
   -94.2869 -94.2867 -94.2865 -94.2684 -94.2680 -94.2678 -94.2673 -94.2665
   -94.2659 -94.2469 -94.2468 -94.2341 -15.5651 -14.9572 -14.9547 -14.9475
   -14.9405 -14.7523 -14.7371 -14.7303 -14.7286 -14.7151 -14.7108 -14.7091
   -14.7059 -14.6993 -14.6959 -14.6918 -14.6862 -14.6823 -14.6774 -14.6727
   -14.6685 -14.6640 -14.6572 -14.6522 -14.6516 -14.6476 -14.6439 -14.6382
   -14.6356 -14.6331 -14.6267 -14.6223 -14.6211 -14.6128 -14.6091 -14.6050
   -14.6035 -14.5975 -14.5922 -14.5870 -14.5839 -14.5808 -14.5769 -14.5714
   -14.5691 -14.5664 -14.5590 -14.5572 -14.5554 -14.5510 -14.5451 -14.5396
   -14.5362 -14.5279 -14.5238 -14.5169 -14.5132 -14.5010 -14.4960 -14.4884
   -12.4398  -8.6114  -7.7190  -7.2726  -6.8468  -6.4778  -5.7709  -5.4948
    -4.9262  -4.8041  -4.2343  -4.0390  -3.5587  -3.0176  -2.4087  -1.6994
    -0.9042  -0.4230  -0.0136   0.2685   0.5354   0.6921   1.0616   1.5787
     1.7083   1.8819   1.9220   2.4496   2.8176   2.9343   3.0631

          k =-0.0821 0.0474 0.0000 ( 20384 PWs)   bands (ev):

   -94.5855 -94.5846 -94.5127 -94.3346 -94.3243 -94.3240 -94.3234 -94.3142
   -94.3141 -94.3026 -94.3022 -94.3020 -94.3016 -94.3014 -94.3006 -94.2975
   -94.2970 -94.2966 -94.2953 -94.2950 -94.2948 -94.2922 -94.2922 -94.2918
   -94.2869 -94.2867 -94.2865 -94.2685 -94.2680 -94.2679 -94.2672 -94.2666
   -94.2659 -94.2469 -94.2468 -94.2341 -15.5651 -14.9580 -14.9551 -14.9484
   -14.9382 -14.7562 -14.7447 -14.7274 -14.7203 -14.7194 -14.7184 -14.7162
   -14.7079 -14.6970 -14.6935 -14.6861 -14.6842 -14.6784 -14.6711 -14.6698
   -14.6678 -14.6628 -14.6568 -14.6564 -14.6511 -14.6495 -14.6392 -14.6379
   -14.6351 -14.6341 -14.6291 -14.6213 -14.6129 -14.6123 -14.6043 -14.6009
   -14.5995 -14.5944 -14.5905 -14.5880 -14.5835 -14.5780 -14.5772 -14.5742
   -14.5700 -14.5692 -14.5678 -14.5632 -14.5587 -14.5558 -14.5441 -14.5430
   -14.5414 -14.5407 -14.5264 -14.5175 -14.5124 -14.4972 -14.4872 -14.4809
   -12.4398  -8.3195  -8.3066  -7.0663  -6.9429  -5.8017  -5.7497  -5.2814
    -5.2563  -5.0693  -4.3830  -4.1766  -3.9272  -3.0637  -2.1557  -1.4378
    -0.4245  -0.0678  -0.0074   0.1178   0.3230   0.5216   1.4037   1.4732
     1.5471   1.9519   2.3247   2.5899   2.6437   2.8255   2.8558

          k =-0.0821 0.0790 0.0000 ( 20377 PWs)   bands (ev):

   -94.5855 -94.5846 -94.5127 -94.3346 -94.3243 -94.3240 -94.3233 -94.3142
   -94.3141 -94.3026 -94.3023 -94.3019 -94.3017 -94.3013 -94.3006 -94.2975
   -94.2970 -94.2966 -94.2953 -94.2950 -94.2948 -94.2923 -94.2921 -94.2918
   -94.2869 -94.2867 -94.2865 -94.2684 -94.2680 -94.2678 -94.2672 -94.2667
   -94.2658 -94.2469 -94.2468 -94.2341 -15.5651 -14.9576 -14.9544 -14.9475
   -14.9405 -14.7523 -14.7370 -14.7303 -14.7287 -14.7150 -14.7108 -14.7091
   -14.7060 -14.6995 -14.6958 -14.6917 -14.6860 -14.6822 -14.6773 -14.6729
   -14.6687 -14.6637 -14.6570 -14.6525 -14.6513 -14.6475 -14.6443 -14.6381
   -14.6359 -14.6329 -14.6269 -14.6222 -14.6208 -14.6126 -14.6092 -14.6052
   -14.6034 -14.5973 -14.5926 -14.5871 -14.5843 -14.5801 -14.5769 -14.5714
   -14.5691 -14.5666 -14.5591 -14.5574 -14.5556 -14.5509 -14.5449 -14.5396
   -14.5359 -14.5281 -14.5240 -14.5166 -14.5133 -14.5009 -14.4960 -14.4884
   -12.4398  -8.6109  -7.7199  -7.2704  -6.8424  -6.4863  -5.7909  -5.3927
    -5.1383  -4.6524  -4.2709  -4.0094  -3.5790  -3.0046  -2.4116  -1.6962
    -0.9100  -0.4258   0.0011   0.2724   0.5140   0.6931   1.0706   1.5502
     1.7120   1.8928   1.9372   2.4474   2.8155   2.9465   3.0563

          k =-0.0821 0.1106 0.0000 ( 20377 PWs)   bands (ev):

   -94.5855 -94.5846 -94.5127 -94.3346 -94.3243 -94.3240 -94.3233 -94.3142
   -94.3141 -94.3025 -94.3024 -94.3018 -94.3017 -94.3014 -94.3005 -94.2975
   -94.2970 -94.2966 -94.2953 -94.2950 -94.2947 -94.2923 -94.2920 -94.2919
   -94.2870 -94.2867 -94.2865 -94.2684 -94.2681 -94.2678 -94.2672 -94.2668
   -94.2658 -94.2469 -94.2468 -94.2341 -15.5651 -14.9576 -14.9541 -14.9479
   -14.9403 -14.7523 -14.7371 -14.7303 -14.7286 -14.7150 -14.7108 -14.7091
   -14.7060 -14.6993 -14.6959 -14.6916 -14.6862 -14.6823 -14.6774 -14.6726
   -14.6684 -14.6640 -14.6572 -14.6522 -14.6517 -14.6476 -14.6438 -14.6382
   -14.6357 -14.6332 -14.6264 -14.6225 -14.6211 -14.6128 -14.6093 -14.6050
   -14.6034 -14.5975 -14.5922 -14.5870 -14.5840 -14.5808 -14.5770 -14.5714
   -14.5691 -14.5664 -14.5590 -14.5573 -14.5553 -14.5511 -14.5451 -14.5397
   -14.5362 -14.5278 -14.5238 -14.5171 -14.5132 -14.5008 -14.4959 -14.4883
   -12.4398  -8.6109  -7.7199  -7.2703  -6.8424  -6.4862  -5.7910  -5.3922
    -5.1386  -4.6529  -4.2713  -4.0085  -3.5785  -3.0062  -2.4089  -1.7016
    -0.9008  -0.4253  -0.0102   0.2679   0.5251   0.6928   1.0605   1.5812
     1.7137   1.8825   1.9222   2.4541   2.8119   2.9210   3.0625

          k =-0.0821-0.0474 0.0000 ( 20384 PWs)   bands (ev):

   -94.5855 -94.5846 -94.5127 -94.3346 -94.3243 -94.3240 -94.3234 -94.3142
   -94.3141 -94.3025 -94.3024 -94.3018 -94.3016 -94.3015 -94.3005 -94.2975
   -94.2970 -94.2966 -94.2953 -94.2950 -94.2948 -94.2923 -94.2920 -94.2919
   -94.2870 -94.2867 -94.2865 -94.2683 -94.2682 -94.2677 -94.2671 -94.2669
   -94.2658 -94.2469 -94.2468 -94.2341 -15.5651 -14.9580 -14.9548 -14.9491
   -14.9379 -14.7562 -14.7446 -14.7274 -14.7204 -14.7194 -14.7183 -14.7162
   -14.7079 -14.6970 -14.6935 -14.6860 -14.6842 -14.6784 -14.6710 -14.6697
   -14.6678 -14.6627 -14.6568 -14.6564 -14.6514 -14.6495 -14.6391 -14.6379
   -14.6352 -14.6340 -14.6291 -14.6209 -14.6131 -14.6125 -14.6042 -14.6008
   -14.5996 -14.5946 -14.5906 -14.5882 -14.5834 -14.5781 -14.5772 -14.5744
   -14.5702 -14.5692 -14.5677 -14.5632 -14.5589 -14.5557 -14.5438 -14.5431
   -14.5413 -14.5407 -14.5264 -14.5175 -14.5125 -14.4972 -14.4870 -14.4808
   -12.4398  -8.3202  -8.3059  -7.0667  -6.9425  -5.8020  -5.7488  -5.2833
    -5.2552  -5.0690  -4.3834  -4.1776  -3.9262  -3.0632  -2.1563  -1.4375
    -0.4241  -0.0679  -0.0053   0.1153   0.3228   0.5207   1.4089   1.4817
     1.5351   1.9535   2.3253   2.5931   2.6472   2.8103   2.8618

     the Fermi energy is     0.4158 ev

!    total energy              =   -5014.14446812 Ry
     Harris-Foulkes estimate   =   -5014.14446207 Ry
     estimated scf accuracy    <       0.00000378 Ry

     The total energy is the sum of the following terms:

     one-electron contribution =  -27540.77543926 Ry
     hartree contribution      =   13778.40504728 Ry
     xc contribution           =    -602.50635082 Ry
     ewald contribution        =    9350.76571382 Ry
     electric field correction =       0.00003051 Ry
     smearing contrib. (-TS)   =      -0.03346965 Ry

     convergence has been achieved in  19 iterations
 
 BEEF-vdW xc energy contributions
           1 :   -538.377501577671     
           2 :    488.628217100166     
           3 :   -405.274095647943     
           4 :    312.568365550258     
           5 :   -231.923852165841     
           6 :    173.935954941601     
           7 :   -136.892747945438     
           8 :    111.517261003719     
           9 :   -88.3825965897026     
          10 :    63.4214406826324     
          11 :   -38.7597953405975     
          12 :    19.3419522512736     
          13 :   -8.35993283214907     
          14 :    4.76171091425749     
          15 :   -4.20172276307221     
          16 :    2.24432965315827     
          17 :    2.74833590112803     
          18 :   -9.05570196708254     
          19 :    13.4797544043895     
          20 :   -14.0339565405937     
          21 :    11.4074625328832     
          22 :   -8.27672171457004     
          23 :    7.19121972536982     
          24 :   -8.73446542666034     
          25 :    11.3018787815779     
          26 :   -12.5304452848327     
          27 :    11.1839588030995     
          28 :   -8.05143303144030     
          29 :    5.25383080598112     
          30 :   -4.58447951067456     
          31 :   -39.9863953760503     
          32 :   -27.1667337261923     

     Forces acting on atoms (Ry/au):


     negative rho (up, down):  9.466E-04 0.000E+00
     atom    1 type  1   force =     0.00123350    0.00027916    0.00473710
     atom    2 type  1   force =    -0.00071602    0.00091736    0.00486120
     atom    3 type  1   force =    -0.00048467   -0.00107308    0.00475462
     atom    4 type  1   force =    -0.00003631    0.00000769   -0.00132910
     atom    5 type  1   force =    -0.00054106   -0.00051768    0.00897300
     atom    6 type  1   force =     0.00000895    0.00006103   -0.00219690
     atom    7 type  1   force =     0.00083290   -0.00028406    0.00890714
     atom    8 type  1   force =    -0.00022153    0.00068037    0.00922064
     atom    9 type  1   force =     0.00013155   -0.00006666   -0.30838322
     atom   10 type  1   force =     0.00184537    0.00255787   -0.01338719
     atom   11 type  1   force =     0.00156933   -0.00245102   -0.01382533
     atom   12 type  1   force =    -0.00301268   -0.00006633   -0.01379777
     atom   13 type  2   force =     0.05006441   -0.00002132    0.51851592
     atom   14 type  3   force =    -0.08500859   -0.00057452   -0.08089013
     atom   15 type  3   force =     0.01764356   -0.04740896   -0.06307130
     atom   16 type  3   force =     0.01669128    0.04796014   -0.06308868

     Total force =     0.627630     Total SCF correction =     0.006330


     entering subroutine stress ...


     negative rho (up, down):  9.466E-04 0.000E+00
          total   stress  (Ry/bohr**3)                   (kbar)     P=   -8.62
  -0.00012474  -0.00000006  -0.00001159        -18.35     -0.01     -1.70
  -0.00000006  -0.00011655  -0.00000008         -0.01    -17.15     -0.01
  -0.00001159  -0.00000008   0.00006548         -1.70     -0.01      9.63


     BFGS Geometry Optimization

     number of scf cycles    =   1
     number of bfgs steps    =   0

     energy   new            =   -5014.1444681225 Ry

     new trust radius        =       0.5000000000 bohr
     new conv_thr            =       0.0000099958 Ry


ATOMIC_POSITIONS (crystal)
Ga1      0.166666667   0.166666667   0.400460194    0   0   0
Ga1      0.666666667   0.166666667   0.400460194    0   0   0
Ga1      0.166666667   0.666666667   0.400460194    0   0   0
Ga1      0.666666667   0.666666667   0.400460194    0   0   0
Ga1      0.833333333   0.333333333   0.500000000    0   0   0
Ga1      0.333333333   0.333333333   0.500000000    0   0   0
Ga1      0.833333333   0.833333333   0.500000000    0   0   0
Ga1      0.333333333   0.833333333   0.500000000    0   0   0
Ga1      0.000014185  -0.000006421   0.593267256
Ga1      0.500030748   0.000246393   0.599267509
Ga1      0.000248967   0.499763899   0.599258597
Ga1      0.499751871   0.499993610   0.599259158
C1       0.004177504  -0.000002053   0.677483930
H1       0.171960977  -0.000055342   0.690520934
H1       0.845498385   0.164128232   0.690883371
H1       0.009520628   0.835924862   0.690883018



     Writing output data file calc.save
     Check: negative starting charge=   -0.001072
     NEW-OLD atomic charge density approx. for the potential
     Check: negative starting charge=   -0.001065

     negative rho (up, down):  1.110E-03 0.000E+00
 
     Adding external electric field

     Computed dipole along edir(3) : 
        Dipole               -0.2207 Ry au,         -0.5610 Debye
        Dipole field         -0.0005 Ry au
 
        Potential amp.        0.0472 Ry
        Total length         46.0091 bohr
 

     total cpu time spent up to now is      645.1 secs

     Self-consistent Calculation

     iteration #  1     ecut=    36.75 Ry     beta=0.30
     Davidson diagonalization with overlap
     ethr =  1.00E-06,  avg # of iterations =  9.8

     negative rho (up, down):  9.868E-04 0.000E+00
 
     Adding external electric field

     Computed dipole along edir(3) : 
        Dipole                1.4683 Ry au,          3.7321 Debye
        Dipole field          0.0034 Ry au
 
        Potential amp.       -0.3138 Ry
        Total length         46.0091 bohr
 

     total cpu time spent up to now is      688.3 secs

     total energy              =   -5014.13485458 Ry
     Harris-Foulkes estimate   =   -5014.30150072 Ry
     estimated scf accuracy    <       0.36446291 Ry

     iteration #  2     ecut=    36.75 Ry     beta=0.30
     Davidson diagonalization with overlap
     ethr =  1.55E-04,  avg # of iterations =  7.1

     negative rho (up, down):  9.525E-04 0.000E+00
 
     Adding external electric field

     Computed dipole along edir(3) : 
        Dipole               -0.1099 Ry au,         -0.2793 Debye
        Dipole field         -0.0003 Ry au
 
        Potential amp.        0.0235 Ry
        Total length         46.0091 bohr
 

     total cpu time spent up to now is      715.8 secs

     total energy              =   -5013.74541560 Ry
     Harris-Foulkes estimate   =   -5014.80613456 Ry
     estimated scf accuracy    <      14.39235372 Ry

     iteration #  3     ecut=    36.75 Ry     beta=0.30
     Davidson diagonalization with overlap
     ethr =  1.55E-04,  avg # of iterations =  5.7

     negative rho (up, down):  9.283E-04 0.000E+00
 
     Adding external electric field

     Computed dipole along edir(3) : 
        Dipole               -0.0460 Ry au,         -0.1169 Debye
        Dipole field         -0.0001 Ry au
 
        Potential amp.        0.0098 Ry
        Total length         46.0091 bohr
 

     total cpu time spent up to now is      740.6 secs

     total energy              =   -5014.26855424 Ry
     Harris-Foulkes estimate   =   -5014.27757050 Ry
     estimated scf accuracy    <       0.04351370 Ry

     iteration #  4     ecut=    36.75 Ry     beta=0.30
     Davidson diagonalization with overlap
     ethr =  1.85E-05,  avg # of iterations =  3.0

     negative rho (up, down):  9.028E-04 0.000E+00
 
     Adding external electric field

     Computed dipole along edir(3) : 
        Dipole               -0.0485 Ry au,         -0.1234 Debye
        Dipole field         -0.0001 Ry au
 
        Potential amp.        0.0104 Ry
        Total length         46.0091 bohr
 

     total cpu time spent up to now is      761.3 secs

     total energy              =   -5014.27015904 Ry
     Harris-Foulkes estimate   =   -5014.27429558 Ry
     estimated scf accuracy    <       0.01581917 Ry

     iteration #  5     ecut=    36.75 Ry     beta=0.30
     Davidson diagonalization with overlap
     ethr =  6.73E-06,  avg # of iterations =  2.3

     negative rho (up, down):  9.219E-04 0.000E+00
 
     Adding external electric field

     Computed dipole along edir(3) : 
        Dipole               -0.0454 Ry au,         -0.1153 Debye
        Dipole field         -0.0001 Ry au
 
        Potential amp.        0.0097 Ry
        Total length         46.0091 bohr
 

     total cpu time spent up to now is      781.3 secs

     total energy              =   -5014.27184377 Ry
     Harris-Foulkes estimate   =   -5014.27188029 Ry
     estimated scf accuracy    <       0.00092118 Ry

     iteration #  6     ecut=    36.75 Ry     beta=0.30
     Davidson diagonalization with overlap
     ethr =  3.92E-07,  avg # of iterations =  2.4

     negative rho (up, down):  9.363E-04 0.000E+00
 
     Adding external electric field

     Computed dipole along edir(3) : 
        Dipole               -0.0413 Ry au,         -0.1049 Debye
        Dipole field         -0.0001 Ry au
 
        Potential amp.        0.0088 Ry
        Total length         46.0091 bohr
 

     total cpu time spent up to now is      801.1 secs

     total energy              =   -5014.27194448 Ry
     Harris-Foulkes estimate   =   -5014.27191487 Ry
     estimated scf accuracy    <       0.00010929 Ry

     iteration #  7     ecut=    36.75 Ry     beta=0.30
     Davidson diagonalization with overlap
     ethr =  4.65E-08,  avg # of iterations =  2.8

     negative rho (up, down):  9.441E-04 0.000E+00
 
     Adding external electric field

     Computed dipole along edir(3) : 
        Dipole               -0.0414 Ry au,         -0.1052 Debye
        Dipole field         -0.0001 Ry au
 
        Potential amp.        0.0088 Ry
        Total length         46.0091 bohr
 

     total cpu time spent up to now is      821.1 secs

     total energy              =   -5014.27196080 Ry
     Harris-Foulkes estimate   =   -5014.27195181 Ry
     estimated scf accuracy    <       0.00001819 Ry

     iteration #  8     ecut=    36.75 Ry     beta=0.30
     Davidson diagonalization with overlap
     ethr =  7.74E-09,  avg # of iterations =  2.9

     negative rho (up, down):  9.553E-04 0.000E+00

     negative rho (up, down):  9.553E-04 0.000E+00

     negative rho (up, down):  9.553E-04 0.000E+00

     negative rho (up, down):  9.553E-04 0.000E+00

     negative rho (up, down):  9.553E-04 0.000E+00

     negative rho (up, down):  9.553E-04 0.000E+00

     negative rho (up, down):  9.553E-04 0.000E+00

     negative rho (up, down):  9.553E-04 0.000E+00

     negative rho (up, down):  9.553E-04 0.000E+00

     negative rho (up, down):  9.553E-04 0.000E+00

     negative rho (up, down):  9.553E-04 0.000E+00

     negative rho (up, down):  9.553E-04 0.000E+00

     negative rho (up, down):  9.553E-04 0.000E+00

     negative rho (up, down):  9.553E-04 0.000E+00

     negative rho (up, down):  9.553E-04 0.000E+00

     negative rho (up, down):  9.553E-04 0.000E+00

     negative rho (up, down):  9.553E-04 0.000E+00

     negative rho (up, down):  9.553E-04 0.000E+00

     negative rho (up, down):  9.553E-04 0.000E+00

     negative rho (up, down):  9.553E-04 0.000E+00

     negative rho (up, down):  9.553E-04 0.000E+00

     negative rho (up, down):  9.553E-04 0.000E+00

     negative rho (up, down):  9.553E-04 0.000E+00

     negative rho (up, down):  9.553E-04 0.000E+00

     negative rho (up, down):  9.553E-04 0.000E+00

     negative rho (up, down):  9.553E-04 0.000E+00

     negative rho (up, down):  9.553E-04 0.000E+00

     negative rho (up, down):  9.553E-04 0.000E+00

     negative rho (up, down):  9.553E-04 0.000E+00

     negative rho (up, down):  9.553E-04 0.000E+00

     negative rho (up, down):  9.553E-04 0.000E+00

     negative rho (up, down):  9.553E-04 0.000E+00

     negative rho (up, down):  9.553E-04 0.000E+00

     negative rho (up, down):  9.553E-04 0.000E+00

     negative rho (up, down):  9.553E-04 0.000E+00
 
     Adding external electric field

     Computed dipole along edir(3) : 
        Dipole               -0.0441 Ry au,         -0.1120 Debye
        Dipole field         -0.0001 Ry au
 
        Potential amp.        0.0094 Ry
        Total length         46.0091 bohr
 

     total cpu time spent up to now is      860.1 secs

     End of self-consistent calculation

          k = 0.0000 0.0000 0.0000 ( 20347 PWs)   bands (ev):

   -94.5098 -94.4882 -94.4881 -94.4879 -94.4872 -94.4871 -94.4822 -94.4821
   -94.4712 -94.4708 -94.4707 -94.4671 -94.4666 -94.4664 -94.4660 -94.4649
   -94.4646 -94.4632 -94.4619 -94.4617 -94.4578 -94.4578 -94.4573 -94.4514
   -94.4512 -94.4512 -94.4461 -94.4459 -94.4454 -94.4445 -94.4430 -94.4430
   -94.4134 -94.4134 -94.4019 -94.3729 -14.9782 -14.9717 -14.9716 -14.9324
   -14.9324 -14.9282 -14.9201 -14.9199 -14.9173 -14.9098 -14.8951 -14.8950
   -14.8943 -14.8885 -14.8666 -14.8594 -14.8594 -14.8505 -14.8490 -14.8490
   -14.8444 -14.8442 -14.8417 -14.8405 -14.8403 -14.8329 -14.8328 -14.8295
   -14.8220 -14.8219 -14.7686 -14.7671 -14.7670 -14.7656 -14.7584 -14.7584
   -14.7431 -14.7429 -14.7394 -14.7392 -14.7136 -14.6997 -14.6996 -14.6948
   -14.6832 -14.6829 -14.6728 -14.6728 -14.6696 -14.6693 -14.6683 -14.6660
   -14.6660 -14.6604 -14.6602 -14.6602 -14.6527 -14.6409 -14.6390 -14.6388
   -12.7943  -9.8817  -8.3644  -6.1034  -5.9958  -5.6994  -4.8186  -4.6694
    -4.6628  -4.4517  -4.2741  -4.2719  -3.3944  -3.0100  -3.0045  -2.5712
    -2.4701  -2.4624  -2.2895  -1.4175  -0.7078  -0.7044  -0.5568  -0.3845
    -0.3754   0.7135   1.4630   3.1697   3.1775   3.1843   3.2735

          k = 0.0000 0.0316 0.0000 ( 20271 PWs)   bands (ev):

   -94.5098 -94.4881 -94.4881 -94.4879 -94.4872 -94.4871 -94.4821 -94.4820
   -94.4712 -94.4707 -94.4706 -94.4671 -94.4666 -94.4663 -94.4660 -94.4649
   -94.4646 -94.4631 -94.4619 -94.4617 -94.4578 -94.4578 -94.4573 -94.4514
   -94.4512 -94.4512 -94.4461 -94.4459 -94.4454 -94.4444 -94.4431 -94.4430
   -94.4134 -94.4134 -94.4019 -94.3728 -14.9700 -14.9619 -14.9585 -14.9288
   -14.9212 -14.9182 -14.9120 -14.9112 -14.9066 -14.9024 -14.8921 -14.8874
   -14.8850 -14.8811 -14.8632 -14.8567 -14.8563 -14.8517 -14.8472 -14.8450
   -14.8435 -14.8400 -14.8393 -14.8362 -14.8324 -14.8292 -14.8262 -14.8229
   -14.8207 -14.8171 -14.7774 -14.7685 -14.7676 -14.7659 -14.7646 -14.7607
   -14.7502 -14.7500 -14.7429 -14.7390 -14.7176 -14.7052 -14.7041 -14.6995
   -14.6906 -14.6898 -14.6863 -14.6816 -14.6793 -14.6789 -14.6741 -14.6722
   -14.6703 -14.6694 -14.6688 -14.6623 -14.6570 -14.6507 -14.6485 -14.6433
   -12.7903  -9.7315  -8.2204  -6.2286  -6.0040  -5.8335  -5.7414  -5.2428
    -5.1296  -4.6923  -4.1647  -3.9596  -3.2078  -3.0088  -2.9147  -2.3261
    -1.9517  -1.8976  -1.7993  -1.2327  -1.0067  -0.7539  -0.2797   0.3775
     0.6890   1.1478   1.7907   2.1723   2.7544   3.0551   3.3370

          k = 0.0000 0.0632 0.0000 ( 20353 PWs)   bands (ev):

   -94.5098 -94.4881 -94.4881 -94.4879 -94.4872 -94.4871 -94.4821 -94.4820
   -94.4712 -94.4707 -94.4707 -94.4670 -94.4665 -94.4662 -94.4660 -94.4651
   -94.4648 -94.4629 -94.4621 -94.4617 -94.4578 -94.4577 -94.4574 -94.4513
   -94.4512 -94.4512 -94.4460 -94.4459 -94.4455 -94.4442 -94.4434 -94.4430
   -94.4134 -94.4134 -94.4019 -94.3729 -14.9531 -14.9354 -14.9275 -14.9194
   -14.9021 -14.8974 -14.8957 -14.8920 -14.8850 -14.8847 -14.8813 -14.8750
   -14.8696 -14.8646 -14.8582 -14.8558 -14.8504 -14.8486 -14.8412 -14.8382
   -14.8344 -14.8320 -14.8262 -14.8194 -14.8172 -14.8140 -14.8134 -14.8079
   -14.8036 -14.7931 -14.7923 -14.7821 -14.7756 -14.7750 -14.7710 -14.7707
   -14.7646 -14.7609 -14.7501 -14.7377 -14.7342 -14.7246 -14.7223 -14.7218
   -14.7151 -14.7149 -14.7087 -14.7045 -14.7010 -14.7003 -14.6916 -14.6902
   -14.6866 -14.6842 -14.6797 -14.6771 -14.6708 -14.6618 -14.6563 -14.6430
   -12.7823  -9.2791  -7.7884  -7.4628  -6.2526  -5.8835  -5.7937  -5.6563
    -5.4619  -5.4361  -4.3937  -4.1493  -3.8605  -2.7822  -2.4346  -1.7989
    -1.3835  -1.3059  -0.6352  -0.2735  -0.1386   0.0990   0.7088   1.3270
     1.5247   1.6034   1.7579   1.9788   2.5450   2.8725   2.9134

          k = 0.0000-0.0948 0.0000 ( 20384 PWs)   bands (ev):

   -94.5098 -94.4881 -94.4881 -94.4879 -94.4872 -94.4871 -94.4821 -94.4820
   -94.4712 -94.4707 -94.4707 -94.4670 -94.4663 -94.4663 -94.4659 -94.4652
   -94.4648 -94.4627 -94.4622 -94.4617 -94.4578 -94.4577 -94.4574 -94.4513
   -94.4513 -94.4512 -94.4459 -94.4459 -94.4455 -94.4440 -94.4436 -94.4430
   -94.4134 -94.4134 -94.4019 -94.3729 -14.9382 -14.9221 -14.9150 -14.9057
   -14.9022 -14.8963 -14.8892 -14.8886 -14.8741 -14.8708 -14.8685 -14.8609
   -14.8598 -14.8551 -14.8517 -14.8469 -14.8446 -14.8421 -14.8316 -14.8269
   -14.8265 -14.8249 -14.8224 -14.8159 -14.8095 -14.8042 -14.8027 -14.8015
   -14.8011 -14.7999 -14.7936 -14.7897 -14.7772 -14.7729 -14.7716 -14.7626
   -14.7580 -14.7526 -14.7524 -14.7497 -14.7458 -14.7449 -14.7406 -14.7384
   -14.7346 -14.7324 -14.7275 -14.7273 -14.7235 -14.7113 -14.7105 -14.7043
   -14.6960 -14.6926 -14.6832 -14.6813 -14.6718 -14.6629 -14.6564 -14.6424
   -12.7783  -8.5440  -8.4981  -7.1053  -7.0487  -5.9567  -5.9560  -5.8073
    -5.5370  -4.9230  -4.6784  -4.4771  -4.2548  -2.7920  -2.3469  -1.4113
    -0.6412  -0.2785  -0.1989  -0.0334   0.1010   0.4032   1.2442   1.2799
     1.3886   1.7717   2.2421   2.3935   2.4943   2.6478   2.6819

          k = 0.0274-0.0158 0.0000 ( 20271 PWs)   bands (ev):

   -94.5098 -94.4881 -94.4881 -94.4879 -94.4872 -94.4871 -94.4821 -94.4820
   -94.4712 -94.4707 -94.4706 -94.4670 -94.4666 -94.4663 -94.4660 -94.4650
   -94.4646 -94.4631 -94.4618 -94.4618 -94.4578 -94.4578 -94.4573 -94.4514
   -94.4512 -94.4512 -94.4461 -94.4459 -94.4454 -94.4444 -94.4431 -94.4430
   -94.4134 -94.4134 -94.4019 -94.3728 -14.9700 -14.9619 -14.9585 -14.9287
   -14.9213 -14.9182 -14.9119 -14.9113 -14.9066 -14.9024 -14.8922 -14.8874
   -14.8850 -14.8811 -14.8631 -14.8566 -14.8563 -14.8517 -14.8472 -14.8449
   -14.8435 -14.8400 -14.8393 -14.8362 -14.8324 -14.8291 -14.8262 -14.8229
   -14.8208 -14.8170 -14.7774 -14.7685 -14.7676 -14.7660 -14.7647 -14.7606
   -14.7502 -14.7500 -14.7428 -14.7391 -14.7176 -14.7052 -14.7041 -14.6995
   -14.6907 -14.6898 -14.6863 -14.6817 -14.6793 -14.6788 -14.6741 -14.6723
   -14.6703 -14.6694 -14.6687 -14.6623 -14.6570 -14.6508 -14.6485 -14.6433
   -12.7903  -9.7315  -8.2201  -6.1844  -6.0073  -5.9603  -5.6512  -5.2391
    -5.1451  -4.6812  -4.1657  -3.9619  -3.2063  -3.0092  -2.9168  -2.3252
    -1.9521  -1.9005  -1.7946  -1.2309  -1.0106  -0.7552  -0.2781   0.3746
     0.6916   1.1487   1.7914   2.1753   2.7506   3.0542   3.3381

          k = 0.0274 0.0158 0.0000 ( 20271 PWs)   bands (ev):

   -94.5098 -94.4881 -94.4881 -94.4879 -94.4872 -94.4871 -94.4821 -94.4820
   -94.4712 -94.4707 -94.4706 -94.4671 -94.4666 -94.4663 -94.4660 -94.4649
   -94.4646 -94.4631 -94.4619 -94.4617 -94.4578 -94.4578 -94.4573 -94.4514
   -94.4512 -94.4512 -94.4461 -94.4459 -94.4454 -94.4444 -94.4431 -94.4430
   -94.4134 -94.4134 -94.4019 -94.3728 -14.9700 -14.9618 -14.9586 -14.9287
   -14.9212 -14.9182 -14.9121 -14.9112 -14.9066 -14.9024 -14.8921 -14.8874
   -14.8851 -14.8812 -14.8632 -14.8567 -14.8563 -14.8517 -14.8472 -14.8449
   -14.8436 -14.8400 -14.8392 -14.8363 -14.8323 -14.8292 -14.8262 -14.8229
   -14.8207 -14.8171 -14.7775 -14.7685 -14.7676 -14.7658 -14.7646 -14.7607
   -14.7502 -14.7499 -14.7429 -14.7390 -14.7176 -14.7051 -14.7042 -14.6995
   -14.6906 -14.6898 -14.6863 -14.6816 -14.6792 -14.6789 -14.6741 -14.6723
   -14.6704 -14.6694 -14.6688 -14.6623 -14.6570 -14.6508 -14.6486 -14.6433
   -12.7903  -9.7315  -8.2201  -6.1848  -6.0063  -5.9600  -5.6530  -5.2393
    -5.1432  -4.6822  -4.1656  -3.9606  -3.2091  -3.0130  -2.9117  -2.3250
    -1.9515  -1.8975  -1.7977  -1.2339  -1.0130  -0.7471  -0.2802   0.3758
     0.6874   1.1472   1.7967   2.1744   2.7505   3.0556   3.3383

          k = 0.0274 0.0474 0.0000 ( 20341 PWs)   bands (ev):

   -94.5098 -94.4881 -94.4881 -94.4879 -94.4872 -94.4871 -94.4821 -94.4820
   -94.4712 -94.4707 -94.4707 -94.4670 -94.4665 -94.4661 -94.4661 -94.4649
   -94.4648 -94.4629 -94.4621 -94.4617 -94.4578 -94.4577 -94.4574 -94.4513
   -94.4512 -94.4512 -94.4461 -94.4459 -94.4455 -94.4443 -94.4433 -94.4430
   -94.4134 -94.4134 -94.4019 -94.3728 -14.9549 -14.9468 -14.9357 -14.9166
   -14.9126 -14.9000 -14.8988 -14.8934 -14.8919 -14.8884 -14.8839 -14.8774
   -14.8729 -14.8711 -14.8629 -14.8543 -14.8525 -14.8511 -14.8467 -14.8379
   -14.8376 -14.8354 -14.8318 -14.8254 -14.8219 -14.8191 -14.8162 -14.8117
   -14.8096 -14.8018 -14.7869 -14.7760 -14.7729 -14.7713 -14.7681 -14.7666
   -14.7652 -14.7605 -14.7460 -14.7403 -14.7289 -14.7204 -14.7143 -14.7129
   -14.7068 -14.7052 -14.7024 -14.6997 -14.6975 -14.6924 -14.6864 -14.6846
   -14.6800 -14.6790 -14.6714 -14.6709 -14.6701 -14.6617 -14.6558 -14.6491
   -12.7843  -9.4301  -7.9319  -6.7633  -6.6734  -6.0607  -5.7945  -5.6227
    -5.2030  -5.1151  -4.2778  -3.9427  -3.4156  -3.1158  -2.7468  -2.0407
    -1.8526  -0.9187  -0.9002  -0.8002  -0.0584  -0.0110   0.2982   0.6701
     1.2133   1.4553   1.9528   2.1822   2.5484   2.7713   3.1789

          k = 0.0274-0.1106 0.0000 ( 20377 PWs)   bands (ev):

   -94.5098 -94.4881 -94.4881 -94.4879 -94.4872 -94.4871 -94.4821 -94.4820
   -94.4712 -94.4707 -94.4707 -94.4670 -94.4664 -94.4662 -94.4659 -94.4651
   -94.4649 -94.4627 -94.4623 -94.4617 -94.4578 -94.4577 -94.4574 -94.4513
   -94.4513 -94.4512 -94.4460 -94.4458 -94.4455 -94.4440 -94.4435 -94.4430
   -94.4134 -94.4134 -94.4019 -94.3729 -14.9360 -14.9199 -14.9111 -14.9094
   -14.8976 -14.8924 -14.8878 -14.8820 -14.8794 -14.8741 -14.8693 -14.8661
   -14.8615 -14.8565 -14.8522 -14.8488 -14.8464 -14.8407 -14.8370 -14.8304
   -14.8267 -14.8219 -14.8175 -14.8165 -14.8117 -14.8075 -14.8037 -14.8022
   -14.7990 -14.7981 -14.7913 -14.7887 -14.7833 -14.7777 -14.7722 -14.7692
   -14.7667 -14.7591 -14.7543 -14.7499 -14.7450 -14.7411 -14.7387 -14.7371
   -14.7314 -14.7272 -14.7227 -14.7185 -14.7140 -14.7098 -14.7056 -14.6984
   -14.6952 -14.6882 -14.6843 -14.6799 -14.6735 -14.6662 -14.6637 -14.6501
   -12.7783  -8.8250  -7.9148  -7.3589  -7.0081  -6.5409  -5.9232  -5.8487
    -5.3684  -5.0549  -4.3507  -4.2514  -3.5206  -3.2239  -2.4844  -1.6440
    -1.1117  -0.5624  -0.1817   0.0722   0.3771   0.4805   0.9068   1.3803
     1.5447   1.7039   1.7976   2.3241   2.6679   2.8247   2.9094

          k = 0.0274-0.0790 0.0000 ( 20377 PWs)   bands (ev):

   -94.5098 -94.4881 -94.4881 -94.4879 -94.4872 -94.4871 -94.4821 -94.4820
   -94.4712 -94.4707 -94.4707 -94.4670 -94.4664 -94.4662 -94.4659 -94.4653
   -94.4648 -94.4627 -94.4622 -94.4617 -94.4579 -94.4577 -94.4574 -94.4513
   -94.4513 -94.4512 -94.4460 -94.4459 -94.4455 -94.4440 -94.4436 -94.4430
   -94.4134 -94.4134 -94.4019 -94.3729 -14.9360 -14.9199 -14.9112 -14.9093
   -14.8976 -14.8924 -14.8879 -14.8819 -14.8794 -14.8740 -14.8693 -14.8662
   -14.8614 -14.8563 -14.8522 -14.8491 -14.8459 -14.8410 -14.8371 -14.8305
   -14.8267 -14.8220 -14.8174 -14.8163 -14.8117 -14.8073 -14.8038 -14.8024
   -14.7994 -14.7980 -14.7909 -14.7888 -14.7834 -14.7780 -14.7723 -14.7691
   -14.7666 -14.7592 -14.7543 -14.7500 -14.7449 -14.7411 -14.7386 -14.7371
   -14.7315 -14.7271 -14.7228 -14.7186 -14.7143 -14.7098 -14.7054 -14.6984
   -14.6953 -14.6882 -14.6842 -14.6799 -14.6735 -14.6662 -14.6637 -14.6501
   -12.7783  -8.8250  -7.9148  -7.3589  -7.0081  -6.5409  -5.9234  -5.8485
    -5.3680  -5.0551  -4.3500  -4.2524  -3.5211  -3.2238  -2.4814  -1.6457
    -1.1185  -0.5570  -0.1751   0.0780   0.3588   0.4846   0.9092   1.3740
     1.5455   1.7078   1.8021   2.3200   2.6676   2.8347   2.9126

          k = 0.0274-0.0474 0.0000 ( 20341 PWs)   bands (ev):

   -94.5098 -94.4881 -94.4881 -94.4879 -94.4872 -94.4871 -94.4821 -94.4820
   -94.4712 -94.4707 -94.4707 -94.4670 -94.4665 -94.4662 -94.4660 -94.4651
   -94.4647 -94.4629 -94.4620 -94.4618 -94.4578 -94.4577 -94.4574 -94.4513
   -94.4512 -94.4512 -94.4460 -94.4459 -94.4455 -94.4443 -94.4433 -94.4430
   -94.4134 -94.4134 -94.4019 -94.3728 -14.9549 -14.9469 -14.9358 -14.9165
   -14.9128 -14.8998 -14.8988 -14.8933 -14.8919 -14.8885 -14.8839 -14.8771
   -14.8729 -14.8711 -14.8628 -14.8543 -14.8525 -14.8512 -14.8467 -14.8379
   -14.8375 -14.8355 -14.8318 -14.8253 -14.8219 -14.8194 -14.8161 -14.8119
   -14.8095 -14.8018 -14.7868 -14.7759 -14.7729 -14.7712 -14.7684 -14.7666
   -14.7653 -14.7604 -14.7461 -14.7404 -14.7287 -14.7203 -14.7144 -14.7131
   -14.7069 -14.7053 -14.7025 -14.6996 -14.6976 -14.6923 -14.6864 -14.6845
   -14.6800 -14.6791 -14.6714 -14.6708 -14.6703 -14.6616 -14.6557 -14.6491
   -12.7843  -9.4301  -7.9319  -6.7632  -6.6734  -6.0608  -5.7944  -5.6227
    -5.2032  -5.1142  -4.2811  -3.9407  -3.4151  -3.1168  -2.7423  -2.0460
    -1.8524  -0.9132  -0.8985  -0.8042  -0.0634  -0.0098   0.2951   0.6757
     1.2184   1.4563   1.9495   2.1725   2.5478   2.7735   3.1847

          k = 0.0547-0.0316 0.0000 ( 20353 PWs)   bands (ev):

   -94.5098 -94.4881 -94.4881 -94.4879 -94.4872 -94.4871 -94.4821 -94.4820
   -94.4712 -94.4707 -94.4707 -94.4670 -94.4665 -94.4661 -94.4661 -94.4653
   -94.4646 -94.4629 -94.4620 -94.4618 -94.4579 -94.4577 -94.4574 -94.4513
   -94.4512 -94.4512 -94.4461 -94.4458 -94.4455 -94.4442 -94.4434 -94.4430
   -94.4134 -94.4134 -94.4019 -94.3729 -14.9530 -14.9356 -14.9275 -14.9194
   -14.9020 -14.8975 -14.8956 -14.8920 -14.8849 -14.8848 -14.8813 -14.8750
   -14.8696 -14.8645 -14.8582 -14.8557 -14.8505 -14.8486 -14.8412 -14.8382
   -14.8343 -14.8319 -14.8263 -14.8194 -14.8172 -14.8141 -14.8136 -14.8078
   -14.8036 -14.7931 -14.7923 -14.7820 -14.7754 -14.7751 -14.7711 -14.7707
   -14.7647 -14.7608 -14.7501 -14.7378 -14.7343 -14.7246 -14.7223 -14.7219
   -14.7151 -14.7150 -14.7087 -14.7045 -14.7008 -14.7003 -14.6916 -14.6901
   -14.6867 -14.6842 -14.6796 -14.6771 -14.6708 -14.6617 -14.6564 -14.6430
   -12.7824  -9.2790  -7.7871  -7.4610  -6.1984  -6.0274  -5.7217  -5.6566
    -5.5222  -5.3560  -4.3935  -4.1594  -3.8541  -2.7818  -2.4352  -1.7988
    -1.3836  -1.3094  -0.6310  -0.2755  -0.1396   0.1004   0.7094   1.3251
     1.5258   1.6053   1.7600   1.9774   2.5458   2.8711   2.9104

          k = 0.0547 0.0000 0.0000 ( 20341 PWs)   bands (ev):

   -94.5098 -94.4881 -94.4881 -94.4879 -94.4872 -94.4871 -94.4821 -94.4820
   -94.4712 -94.4707 -94.4707 -94.4670 -94.4665 -94.4662 -94.4661 -94.4651
   -94.4647 -94.4629 -94.4620 -94.4617 -94.4578 -94.4577 -94.4574 -94.4513
   -94.4512 -94.4512 -94.4461 -94.4458 -94.4455 -94.4443 -94.4433 -94.4430
   -94.4134 -94.4134 -94.4019 -94.3728 -14.9549 -14.9468 -14.9358 -14.9166
   -14.9127 -14.8999 -14.8988 -14.8933 -14.8919 -14.8886 -14.8839 -14.8773
   -14.8729 -14.8711 -14.8629 -14.8543 -14.8525 -14.8511 -14.8466 -14.8378
   -14.8375 -14.8355 -14.8318 -14.8253 -14.8218 -14.8192 -14.8162 -14.8119
   -14.8095 -14.8018 -14.7868 -14.7760 -14.7729 -14.7712 -14.7682 -14.7666
   -14.7653 -14.7605 -14.7461 -14.7404 -14.7288 -14.7203 -14.7144 -14.7130
   -14.7068 -14.7053 -14.7024 -14.6997 -14.6975 -14.6923 -14.6864 -14.6845
   -14.6800 -14.6791 -14.6714 -14.6709 -14.6702 -14.6617 -14.6557 -14.6491
   -12.7844  -9.4301  -7.9311  -6.7554  -6.6798  -6.0143  -5.8866  -5.5988
    -5.1523  -5.1450  -4.2800  -3.9416  -3.4120  -3.1200  -2.7434  -2.0452
    -1.8515  -0.9161  -0.8981  -0.8024  -0.0637  -0.0108   0.2971   0.6734
     1.2145   1.4592   1.9514   2.1776   2.5494   2.7719   3.1811

          k = 0.0547 0.0316 0.0000 ( 20353 PWs)   bands (ev):

   -94.5098 -94.4881 -94.4881 -94.4879 -94.4872 -94.4871 -94.4821 -94.4820
   -94.4712 -94.4707 -94.4707 -94.4671 -94.4665 -94.4661 -94.4661 -94.4650
   -94.4648 -94.4629 -94.4621 -94.4617 -94.4578 -94.4577 -94.4574 -94.4513
   -94.4512 -94.4512 -94.4461 -94.4458 -94.4455 -94.4442 -94.4433 -94.4431
   -94.4134 -94.4134 -94.4019 -94.3729 -14.9530 -14.9353 -14.9276 -14.9193
   -14.9022 -14.8973 -14.8957 -14.8920 -14.8850 -14.8848 -14.8813 -14.8750
   -14.8696 -14.8646 -14.8582 -14.8559 -14.8504 -14.8485 -14.8412 -14.8382
   -14.8344 -14.8320 -14.8261 -14.8195 -14.8172 -14.8138 -14.8134 -14.8079
   -14.8036 -14.7931 -14.7924 -14.7821 -14.7754 -14.7751 -14.7709 -14.7707
   -14.7646 -14.7609 -14.7501 -14.7376 -14.7342 -14.7246 -14.7222 -14.7220
[...]

   -94.5866 -94.5856 -94.5848 -94.5650 -94.5641 -94.5635 -94.5629 -94.5627
   -94.5621 -94.5619 -94.5613 -94.5605 -94.5550 -94.5545 -94.5538 -94.5521
   -94.5517 -94.5512 -94.5246 -94.5205 -94.5204 -94.5195 -94.5189 -94.5185
   -94.5127 -94.5126 -94.5050 -94.5039 -94.5028 -94.5025 -94.4974 -94.4968
   -94.4962 -94.4850 -94.4842 -94.3573 -15.0324 -15.0115 -15.0108 -14.9947
   -14.9863 -14.9804 -14.9748 -14.9680 -14.9643 -14.9594 -14.9570 -14.9514
   -14.9485 -14.9439 -14.9416 -14.9332 -14.9289 -14.9245 -14.9137 -14.9085
   -14.9074 -14.9036 -14.9006 -14.8967 -14.8895 -14.8870 -14.8836 -14.8765
   -14.8713 -14.8635 -14.8581 -14.8548 -14.8503 -14.8470 -14.8417 -14.8378
   -14.8319 -14.8179 -14.8128 -14.8078 -14.8002 -14.7982 -14.7959 -14.7943
   -14.7881 -14.7852 -14.7812 -14.7759 -14.7743 -14.7699 -14.7682 -14.7583
   -14.7553 -14.7509 -14.7465 -14.7376 -14.7309 -14.7235 -14.7201 -14.7153
   -12.4018  -9.3228  -7.8217  -7.4705  -6.0733  -5.7840  -5.7505  -5.6262
    -5.4368  -5.3540  -4.4755  -4.2435  -3.9001  -2.9321  -2.4807  -1.7738
    -1.3927  -1.3769  -0.8472  -0.3097  -0.2102   0.0732   0.5376   1.3507
     1.4679   1.6133   1.7588   1.8046   2.3304   2.8076   2.8361

          k = 0.0547 0.0000 0.0000 ( 20341 PWs)   bands (ev):

   -94.5866 -94.5856 -94.5848 -94.5649 -94.5641 -94.5637 -94.5629 -94.5626
   -94.5620 -94.5620 -94.5612 -94.5606 -94.5550 -94.5545 -94.5539 -94.5521
   -94.5516 -94.5512 -94.5246 -94.5205 -94.5204 -94.5195 -94.5189 -94.5185
   -94.5127 -94.5126 -94.5050 -94.5039 -94.5028 -94.5025 -94.4974 -94.4968
   -94.4961 -94.4849 -94.4842 -94.3573 -15.0322 -15.0286 -15.0166 -14.9941
   -14.9890 -14.9825 -14.9793 -14.9718 -14.9698 -14.9626 -14.9589 -14.9564
   -14.9525 -14.9467 -14.9392 -14.9365 -14.9359 -14.9285 -14.9152 -14.9131
   -14.9090 -14.9066 -14.9056 -14.8982 -14.8958 -14.8897 -14.8873 -14.8786
   -14.8698 -14.8672 -14.8573 -14.8547 -14.8480 -14.8438 -14.8388 -14.8333
   -14.8282 -14.8202 -14.8055 -14.8015 -14.7971 -14.7946 -14.7917 -14.7896
   -14.7833 -14.7747 -14.7712 -14.7688 -14.7675 -14.7648 -14.7636 -14.7569
   -14.7542 -14.7508 -14.7428 -14.7350 -14.7298 -14.7235 -14.7201 -14.7142
   -12.4034  -9.4738  -7.9581  -6.8062  -6.6469  -5.8648  -5.5733  -5.5392
    -5.2232  -5.1377  -4.3504  -4.0574  -3.5409  -3.1245  -2.7993  -2.0798
    -1.8010  -1.1026  -0.9855  -0.8078  -0.1695  -0.0434   0.3012   0.5225
     1.1817   1.3593   1.8303   2.1099   2.4445   2.5872   3.1254

          k = 0.0547 0.0316 0.0000 ( 20353 PWs)   bands (ev):

   -94.5866 -94.5856 -94.5848 -94.5648 -94.5640 -94.5638 -94.5630 -94.5626
   -94.5620 -94.5620 -94.5611 -94.5606 -94.5550 -94.5544 -94.5539 -94.5522
   -94.5516 -94.5513 -94.5246 -94.5205 -94.5204 -94.5195 -94.5189 -94.5185
   -94.5127 -94.5126 -94.5050 -94.5038 -94.5029 -94.5024 -94.4974 -94.4969
   -94.4961 -94.4849 -94.4843 -94.3573 -15.0323 -15.0116 -15.0109 -14.9944
   -14.9863 -14.9806 -14.9748 -14.9678 -14.9643 -14.9595 -14.9577 -14.9512
   -14.9481 -14.9442 -14.9416 -14.9333 -14.9288 -14.9245 -14.9136 -14.9084
   -14.9073 -14.9039 -14.9003 -14.8968 -14.8889 -14.8869 -14.8837 -14.8769
   -14.8710 -14.8636 -14.8583 -14.8547 -14.8506 -14.8468 -14.8418 -14.8377
   -14.8314 -14.8184 -14.8126 -14.8075 -14.7997 -14.7985 -14.7963 -14.7939
   -14.7881 -14.7854 -14.7812 -14.7765 -14.7743 -14.7697 -14.7684 -14.7583
   -14.7556 -14.7514 -14.7467 -14.7370 -14.7310 -14.7230 -14.7202 -14.7153
   -12.4018  -9.3228  -7.8203  -7.4728  -6.0757  -5.7833  -5.7507  -5.6239
    -5.4359  -5.3542  -4.4726  -4.2442  -3.8984  -2.9355  -2.4766  -1.7807
    -1.3953  -1.3810  -0.8372  -0.3093  -0.2220   0.0716   0.5381   1.3575
     1.4732   1.6200   1.7619   1.8066   2.3227   2.8009   2.8349

          k = 0.0547-0.1264 0.0000 ( 20377 PWs)   bands (ev):

   -94.5866 -94.5856 -94.5848 -94.5647 -94.5640 -94.5639 -94.5630 -94.5626
   -94.5620 -94.5619 -94.5611 -94.5606 -94.5550 -94.5544 -94.5539 -94.5521
   -94.5516 -94.5513 -94.5246 -94.5205 -94.5204 -94.5195 -94.5189 -94.5185
   -94.5127 -94.5126 -94.5050 -94.5037 -94.5031 -94.5024 -94.4974 -94.4969
   -94.4961 -94.4850 -94.4843 -94.3573 -15.0127 -14.9974 -14.9942 -14.9893
   -14.9744 -14.9702 -14.9684 -14.9647 -14.9593 -14.9570 -14.9511 -14.9477
   -14.9400 -14.9367 -14.9342 -14.9275 -14.9184 -14.9097 -14.9075 -14.9058
   -14.9018 -14.8990 -14.8972 -14.8926 -14.8864 -14.8811 -14.8763 -14.8706
   -14.8680 -14.8668 -14.8591 -14.8573 -14.8539 -14.8509 -14.8465 -14.8399
   -14.8342 -14.8283 -14.8258 -14.8201 -14.8162 -14.8077 -14.8056 -14.8041
   -14.7986 -14.7941 -14.7904 -14.7875 -14.7815 -14.7770 -14.7732 -14.7647
   -14.7620 -14.7576 -14.7530 -14.7429 -14.7385 -14.7307 -14.7206 -14.7171
   -12.3987  -8.8709  -7.9510  -7.3696  -7.0120  -6.4746  -5.6986  -5.5528
    -5.4145  -5.1442  -4.4575  -4.2999  -3.6302  -3.2440  -2.5866  -1.7465
    -1.0559  -0.7355  -0.1742  -0.0118   0.1774   0.4476   0.9257   1.1130
     1.4140   1.6863   1.7561   2.3343   2.6208   2.7980   3.0127

          k = 0.0547-0.0948 0.0000 ( 20397 PWs)   bands (ev):

   -94.5866 -94.5856 -94.5848 -94.5648 -94.5640 -94.5637 -94.5630 -94.5627
   -94.5621 -94.5619 -94.5612 -94.5606 -94.5550 -94.5545 -94.5539 -94.5521
   -94.5517 -94.5513 -94.5246 -94.5205 -94.5204 -94.5195 -94.5189 -94.5185
   -94.5127 -94.5126 -94.5050 -94.5036 -94.5031 -94.5024 -94.4974 -94.4969
   -94.4961 -94.4850 -94.4843 -94.3573 -14.9931 -14.9848 -14.9838 -14.9774
   -14.9753 -14.9738 -14.9669 -14.9665 -14.9612 -14.9533 -14.9514 -14.9506
   -14.9293 -14.9274 -14.9262 -14.9180 -14.9156 -14.9129 -14.9039 -14.9010
   -14.9001 -14.8959 -14.8955 -14.8934 -14.8824 -14.8777 -14.8736 -14.8695
   -14.8687 -14.8668 -14.8634 -14.8625 -14.8547 -14.8521 -14.8481 -14.8465
   -14.8460 -14.8342 -14.8281 -14.8253 -14.8245 -14.8093 -14.8051 -14.8038
   -14.8018 -14.8009 -14.7969 -14.7899 -14.7811 -14.7771 -14.7733 -14.7697
   -14.7673 -14.7578 -14.7551 -14.7492 -14.7461 -14.7442 -14.7190 -14.7176
   -12.3972  -8.1983  -8.1622  -7.9392  -6.6884  -6.6283  -6.5474  -5.4883
    -5.4848  -4.8667  -4.3463  -4.3015  -3.1899  -3.1469  -2.8632  -1.6381
    -0.6566  -0.6044  -0.5224  -0.3097  -0.2410   0.4937   1.2922   1.4603
     1.4813   2.3989   2.4694   2.6441   2.9740   3.0624   3.1739

          k = 0.0547-0.0632 0.0000 ( 20377 PWs)   bands (ev):

   -94.5866 -94.5856 -94.5848 -94.5649 -94.5641 -94.5635 -94.5629 -94.5628
   -94.5621 -94.5618 -94.5613 -94.5605 -94.5550 -94.5545 -94.5538 -94.5521
   -94.5518 -94.5512 -94.5246 -94.5205 -94.5204 -94.5195 -94.5189 -94.5185
   -94.5127 -94.5126 -94.5050 -94.5038 -94.5029 -94.5025 -94.4974 -94.4968
   -94.4962 -94.4850 -94.4842 -94.3573 -15.0126 -14.9979 -14.9936 -14.9898
   -14.9737 -14.9705 -14.9682 -14.9645 -14.9599 -14.9564 -14.9513 -14.9479
   -14.9397 -14.9370 -14.9338 -14.9280 -14.9178 -14.9105 -14.9081 -14.9056
   -14.9017 -14.8984 -14.8962 -14.8930 -14.8858 -14.8815 -14.8775 -14.8710
   -14.8690 -14.8662 -14.8601 -14.8575 -14.8517 -14.8500 -14.8470 -14.8400
   -14.8341 -14.8287 -14.8263 -14.8203 -14.8168 -14.8097 -14.8046 -14.8028
   -14.7990 -14.7940 -14.7914 -14.7853 -14.7806 -14.7776 -14.7739 -14.7635
   -14.7610 -14.7590 -14.7524 -14.7438 -14.7385 -14.7311 -14.7207 -14.7169
   -12.3987  -8.8710  -7.9512  -7.3690  -7.0123  -6.4723  -5.7001  -5.5517
    -5.4170  -5.1432  -4.4643  -4.2969  -3.6278  -3.2505  -2.5818  -1.7365
    -1.0542  -0.7414  -0.1739  -0.0230   0.1904   0.4458   0.9130   1.1277
     1.4174   1.6917   1.7505   2.3329   2.6136   2.7851   2.9996

          k =-0.0821 0.0474 0.0000 ( 20384 PWs)   bands (ev):

   -94.5866 -94.5856 -94.5848 -94.5649 -94.5640 -94.5634 -94.5630 -94.5628
   -94.5621 -94.5618 -94.5613 -94.5605 -94.5550 -94.5545 -94.5538 -94.5520
   -94.5518 -94.5512 -94.5246 -94.5205 -94.5204 -94.5195 -94.5189 -94.5185
   -94.5127 -94.5126 -94.5050 -94.5038 -94.5027 -94.5026 -94.4974 -94.4968
   -94.4962 -94.4850 -94.4842 -94.3573 -15.0148 -15.0059 -14.9879 -14.9867
   -14.9846 -14.9727 -14.9714 -14.9662 -14.9567 -14.9510 -14.9436 -14.9421
   -14.9390 -14.9357 -14.9346 -14.9319 -14.9132 -14.9100 -14.9073 -14.9051
   -14.9035 -14.8996 -14.8969 -14.8919 -14.8893 -14.8792 -14.8771 -14.8711
   -14.8668 -14.8640 -14.8591 -14.8536 -14.8493 -14.8448 -14.8441 -14.8394
   -14.8371 -14.8280 -14.8267 -14.8226 -14.8142 -14.8126 -14.8081 -14.8080
   -14.8034 -14.7973 -14.7901 -14.7897 -14.7851 -14.7826 -14.7805 -14.7624
   -14.7616 -14.7545 -14.7541 -14.7418 -14.7319 -14.7241 -14.7216 -14.7177
   -12.3987  -8.6415  -8.4768  -7.1185  -7.0134  -5.8917  -5.7973  -5.5410
    -5.4608  -5.1688  -4.7160  -4.4416  -4.3339  -2.9551  -2.4077  -1.5066
    -0.7358  -0.3309  -0.3103  -0.0285   0.1078   0.1517   1.1395   1.3816
     1.4046   1.4892   2.2980   2.3701   2.3971   2.6579   2.7458

          k =-0.0821 0.0790 0.0000 ( 20377 PWs)   bands (ev):

   -94.5866 -94.5856 -94.5848 -94.5649 -94.5640 -94.5636 -94.5629 -94.5628
   -94.5621 -94.5619 -94.5613 -94.5605 -94.5550 -94.5545 -94.5539 -94.5521
   -94.5517 -94.5512 -94.5246 -94.5205 -94.5204 -94.5195 -94.5189 -94.5185
   -94.5127 -94.5126 -94.5050 -94.5038 -94.5028 -94.5025 -94.4974 -94.4968
   -94.4962 -94.4850 -94.4842 -94.3573 -15.0127 -14.9972 -14.9942 -14.9897
   -14.9744 -14.9701 -14.9681 -14.9645 -14.9592 -14.9572 -14.9512 -14.9478
   -14.9398 -14.9367 -14.9344 -14.9278 -14.9182 -14.9097 -14.9075 -14.9057
   -14.9023 -14.8990 -14.8972 -14.8923 -14.8863 -14.8809 -14.8769 -14.8705
   -14.8683 -14.8674 -14.8595 -14.8571 -14.8530 -14.8508 -14.8467 -14.8404
   -14.8344 -14.8282 -14.8256 -14.8204 -14.8165 -14.8073 -14.8054 -14.8037
   -14.7994 -14.7944 -14.7899 -14.7872 -14.7815 -14.7772 -14.7733 -14.7643
   -14.7611 -14.7576 -14.7527 -14.7439 -14.7383 -14.7311 -14.7211 -14.7165
   -12.3987  -8.8709  -7.9513  -7.3686  -7.0130  -6.4721  -5.6999  -5.5520
    -5.4158  -5.1451  -4.4564  -4.3031  -3.6296  -3.2458  -2.5856  -1.7404
    -1.0523  -0.7378  -0.1706  -0.0153   0.1689   0.4503   0.9266   1.1203
     1.4136   1.6955   1.7472   2.3338   2.6117   2.7916   3.0112

          k =-0.0821 0.1106 0.0000 ( 20377 PWs)   bands (ev):

   -94.5866 -94.5856 -94.5848 -94.5648 -94.5640 -94.5638 -94.5630 -94.5627
   -94.5620 -94.5619 -94.5612 -94.5606 -94.5550 -94.5544 -94.5539 -94.5521
   -94.5516 -94.5513 -94.5246 -94.5205 -94.5204 -94.5195 -94.5189 -94.5185
   -94.5127 -94.5126 -94.5050 -94.5037 -94.5029 -94.5025 -94.4974 -94.4969
   -94.4961 -94.4850 -94.4843 -94.3573 -15.0126 -14.9979 -14.9939 -14.9894
   -14.9736 -14.9705 -14.9686 -14.9648 -14.9600 -14.9563 -14.9513 -14.9478
   -14.9398 -14.9370 -14.9337 -14.9278 -14.9182 -14.9101 -14.9082 -14.9056
   -14.9014 -14.8984 -14.8965 -14.8934 -14.8858 -14.8817 -14.8770 -14.8711
   -14.8685 -14.8662 -14.8605 -14.8570 -14.8520 -14.8502 -14.8467 -14.8399
   -14.8340 -14.8288 -14.8264 -14.8201 -14.8164 -14.8092 -14.8048 -14.8035
   -14.7988 -14.7940 -14.7914 -14.7854 -14.7803 -14.7781 -14.7733 -14.7643
   -14.7615 -14.7594 -14.7527 -14.7429 -14.7386 -14.7306 -14.7210 -14.7167
   -12.3987  -8.8708  -7.9512  -7.3699  -7.0115  -6.4742  -5.6985  -5.5522
    -5.4163  -5.1431  -4.4629  -4.2950  -3.6287  -3.2493  -2.5834  -1.7429
    -1.0543  -0.7409  -0.1817  -0.0170   0.1977   0.4429   0.9135   1.1220
     1.4180   1.6901   1.7522   2.3319   2.6259   2.7910   2.9955

          k =-0.0821-0.0474 0.0000 ( 20384 PWs)   bands (ev):

   -94.5866 -94.5856 -94.5848 -94.5647 -94.5640 -94.5639 -94.5631 -94.5626
   -94.5620 -94.5619 -94.5611 -94.5606 -94.5550 -94.5544 -94.5539 -94.5521
   -94.5516 -94.5513 -94.5246 -94.5205 -94.5204 -94.5195 -94.5189 -94.5185
   -94.5127 -94.5126 -94.5050 -94.5037 -94.5030 -94.5024 -94.4974 -94.4969
   -94.4961 -94.4850 -94.4843 -94.3573 -15.0149 -15.0055 -14.9878 -14.9872
   -14.9842 -14.9738 -14.9711 -14.9666 -14.9568 -14.9510 -14.9430 -14.9426
   -14.9383 -14.9356 -14.9347 -14.9316 -14.9133 -14.9098 -14.9079 -14.9054
   -14.9025 -14.8996 -14.8975 -14.8926 -14.8901 -14.8786 -14.8769 -14.8699
   -14.8671 -14.8637 -14.8593 -14.8538 -14.8506 -14.8442 -14.8430 -14.8396
   -14.8361 -14.8281 -14.8267 -14.8222 -14.8141 -14.8126 -14.8082 -14.8076
   -14.8038 -14.7985 -14.7904 -14.7885 -14.7854 -14.7831 -14.7801 -14.7643
   -14.7615 -14.7545 -14.7544 -14.7406 -14.7318 -14.7238 -14.7216 -14.7177
   -12.3987  -8.6405  -8.4778  -7.1075  -7.0274  -5.8913  -5.7943  -5.5419
    -5.4599  -5.1676  -4.7188  -4.4356  -4.3351  -2.9563  -2.4057  -1.5101
    -0.7366  -0.3475  -0.3205  -0.0249   0.1121   0.1549   1.1657   1.3831
     1.4024   1.4843   2.3068   2.3694   2.3836   2.6555   2.7467

     the Fermi energy is     0.1539 ev

!    total energy              =   -5014.28916406 Ry
     Harris-Foulkes estimate   =   -5014.28916401 Ry
     estimated scf accuracy    <       0.00000005 Ry

     The total energy is the sum of the following terms:

     one-electron contribution =  -27238.45805857 Ry
     hartree contribution      =   13625.85496091 Ry
     xc contribution           =    -602.51940608 Ry
     ewald contribution        =    9200.86877050 Ry
     electric field correction =       0.00001314 Ry
     smearing contrib. (-TS)   =      -0.03544396 Ry

     convergence has been achieved in   7 iterations
 
 BEEF-vdW xc energy contributions
           1 :   -538.358314265002     
           2 :    488.490427068354     
           3 :   -405.032988161564     
           4 :    312.332971680345     
           5 :   -231.787004878547     
           6 :    173.921828114230     
           7 :   -136.959707946036     
           8 :    111.589715293938     
           9 :   -88.3966997084221     
          10 :    63.3650812657094     
          11 :   -38.6820784557457     
          12 :    19.3192725674983     
          13 :   -8.43970266521137     
          14 :    4.92569917255105     
          15 :   -4.37713776082410     
          16 :    2.35574441025813     
          17 :    2.72617413438525     
          18 :   -9.08341602502765     
          19 :    13.4849170020991     
          20 :   -13.9647331360168     
          21 :    11.2701985636406     
          22 :   -8.13079281346131     
          23 :    7.10651393702506     
          24 :   -8.74392873655393     
          25 :    11.3836926834255     
          26 :   -12.6309025860367     
          27 :    11.2599266085406     
          28 :   -8.09674111905065     
          29 :    5.28845782117037     
          30 :   -4.61587824372987     
          31 :   -39.9827917080098     
          32 :   -27.1391171778538     

     Forces acting on atoms (Ry/au):


     negative rho (up, down):  8.904E-04 0.000E+00
     atom    1 type  1   force =     0.00313949    0.00113123    0.00215188
     atom    2 type  1   force =    -0.00266482    0.00225274    0.00201899
     atom    3 type  1   force =    -0.00058265   -0.00338492    0.00207252
     atom    4 type  1   force =     0.00009688   -0.00001301   -0.00229171
     atom    5 type  1   force =    -0.00101250   -0.00166471    0.00135756
     atom    6 type  1   force =     0.00016444   -0.00003486   -0.00896507
     atom    7 type  1   force =     0.00176321    0.00007784    0.00158472
     atom    8 type  1   force =    -0.00106781    0.00168536    0.00124489
     atom    9 type  1   force =     0.00003642   -0.00005910   -0.00031172
     atom   10 type  1   force =     0.00050675    0.00006676    0.00004682
     atom   11 type  1   force =     0.00005412    0.00049086    0.00022202
     atom   12 type  1   force =    -0.00009450   -0.00063106    0.00016529
     atom   13 type  2   force =    -0.00066966    0.00024165    0.00029086
     atom   14 type  3   force =     0.00055331   -0.00018836    0.00000114
     atom   15 type  3   force =    -0.00000454    0.00005949    0.00024507
     atom   16 type  3   force =    -0.00021814   -0.00002992    0.00016673

     Total force =     0.001472     Total SCF correction =     0.000728
     SCF correction compared to forces is large: reduce conv_thr to get better values


     entering subroutine stress ...


     negative rho (up, down):  8.904E-04 0.000E+00
          total   stress  (Ry/bohr**3)                   (kbar)     P=   -7.17
  -0.00006939  -0.00000006  -0.00000012        -10.21     -0.01     -0.02
  -0.00000006  -0.00006940   0.00000001         -0.01    -10.21      0.00
  -0.00000012   0.00000001  -0.00000741         -0.02      0.00     -1.09


     bfgs converged in  35 scf cycles and  34 bfgs steps
     (criteria: energy <  1.0E+00, force <  1.9E-03)

     End of BFGS Geometry Optimization

     Final energy   =   -5014.2891640636 Ry
Begin final coordinates

ATOMIC_POSITIONS (crystal)
Ga1      0.166666667   0.166666667   0.400460194    0   0   0
Ga1      0.666666667   0.166666667   0.400460194    0   0   0
Ga1      0.166666667   0.666666667   0.400460194    0   0   0
Ga1      0.666666667   0.666666667   0.400460194    0   0   0
Ga1      0.833333333   0.333333333   0.500000000    0   0   0
Ga1      0.333333333   0.333333333   0.500000000    0   0   0
Ga1      0.833333333   0.833333333   0.500000000    0   0   0
Ga1      0.333333333   0.833333333   0.500000000    0   0   0
Ga1      0.005627103  -0.000092877   0.614595967
Ga1      0.508251338   0.003386609   0.595128000
Ga1      0.004914953   0.488986633   0.594953445
Ga1      0.491106104   0.508178019   0.595017564
C1       0.001332149  -0.000176860   0.696657479
H1       0.178448732  -0.018959299   0.711589429
H1       0.841400467   0.177970058   0.710746675
H1      -0.018399242   0.840790564   0.710742966
End final coordinates



     Writing output data file calc.save
 
     init_run     :      6.96s CPU      9.24s WALL (       1 calls)
     electrons    :   5598.96s CPU   7306.50s WALL (      35 calls)
     update_pot   :     47.57s CPU     54.57s WALL (      34 calls)
     forces       :    164.49s CPU    174.70s WALL (      35 calls)
     stress       :    562.43s CPU    591.93s WALL (      35 calls)

     Called by init_run:
     wfcinit      :      4.85s CPU      6.71s WALL (       1 calls)
     potinit      :      0.69s CPU      0.86s WALL (       1 calls)

     Called by electrons:
     c_bands      :   4154.60s CPU   5401.60s WALL (     280 calls)
     sum_band     :    661.98s CPU    871.68s WALL (     280 calls)
     v_of_rho     :    134.63s CPU    181.77s WALL (     311 calls)
     newd         :    214.90s CPU    249.54s WALL (     311 calls)
     mix_rho      :      3.73s CPU      5.32s WALL (     280 calls)
     vdW_energy   :    142.16s CPU    181.58s WALL (    1571 calls)
     vdW_ffts     :    202.46s CPU    286.31s WALL (    3212 calls)
     vdW_v        :     86.46s CPU    103.76s WALL (    1571 calls)

     Called by c_bands:
     init_us_2    :     21.24s CPU     24.57s WALL (   12620 calls)
     cegterg      :   4002.52s CPU   5242.67s WALL (    5609 calls)

     Called by *egterg:
     h_psi        :   2042.77s CPU   3041.88s WALL (   27495 calls)
     s_psi        :    143.74s CPU    151.81s WALL (   27495 calls)
     g_psi        :     18.31s CPU     18.59s WALL (   21866 calls)
     cdiaghg      :   1068.01s CPU   1089.05s WALL (   26715 calls)

     Called by h_psi:
     add_vuspsi   :    144.55s CPU    151.99s WALL (   27495 calls)

     General routines
     calbec       :    244.12s CPU    249.20s WALL (   34495 calls)
     fft          :    321.33s CPU    445.94s WALL (   94181 calls)
     ffts         :      0.46s CPU      0.66s WALL (     591 calls)
     fftw         :   1745.66s CPU   2928.74s WALL ( 4248434 calls)
     interpolate  :      2.40s CPU      4.22s WALL (     591 calls)
     davcio       :      0.02s CPU      0.46s WALL (      20 calls)
 
     Parallel routines
     fft_scatter  :   1154.21s CPU   1870.18s WALL ( 4343206 calls)
 
     PWSCF        :     1h46m CPU        2h16m WALL

 
   This run was terminated on:   2:16:26  18Apr2018            

=------------------------------------------------------------------------------=
   JOB DONE.
=------------------------------------------------------------------------------=
