  python dir          : /u/if/mamunm/src/espresso
  espresso dir        : /nfs/slac/g/suncatfs/sw/espv18/espresso-dynpy-beef/bin
  pseudo dir          : /u/if/mamunm/psp/gbrv1.5pbe
  ase-espresso py git : GITVERSION



     Program PWSCF v.5.1rc2 (svn rev. 11289) starts on 23Apr2018 at 14:31:46 

     This program is part of the open-source Quantum ESPRESSO suite
     for quantum simulation of materials; please cite
         "P. Giannozzi et al., J. Phys.:Condens. Matter 21 395502 (2009);
          URL http://www.quantum-espresso.org", 
     in publications or presentations arising from this work. More details at
     http://www.quantum-espresso.org/quote

     Parallel version (MPI), running on    36 processors
     K-points division:     npool     =       3
     R & G space division:  proc/nbgrp/npool/nimage =      12
     Reading input from pw.inp
     Message from routine read_cards :
     DEPRECATED: no units specified in CELL_PARAMETERS card

     Current dimensions of program PWSCF are:
     Max number of different atomic species (ntypx) = 10
     Max number of k-points (npk) =  40000
     Max angular momentum in pseudopotentials (lmaxx) =  3
     Presently stress not available with electric field


     **************************************************************************
     Initializing libbeef V0.1.1 with the BEEF-vdW functional.
     Citation: Wellendorff et al., PRB 85, 235149 (2012).
     **************************************************************************


     IMPORTANT: XC functional enforced from input :
     Exchange-correlation      = BEEF-VDW ( 1  4 27 13 2)
     Any further DFT definition will be discarded
     Please, verify this is what you really want


     Subspace diagonalization in iterative solution of the eigenvalue problem:
     a serial algorithm will be used

 
     Parallelization info
     --------------------
     sticks:   dense  smooth     PW     G-vecs:    dense   smooth      PW
     Min         226      89     26                42660    10745    1708
     Max         227      90     27                42689    10802    1729
     Sum        2713    1069    313               511963   129143   20533
 


     bravais-lattice index     =            0
     lattice parameter (alat)  =       1.8897  a.u.
     unit-cell volume          =    4301.6107 (a.u.)^3
     number of atoms/cell      =           15
     number of atomic types    =            3
     number of electrons       =       186.00
     number of Kohn-Sham states=          103
     kinetic-energy cutoff     =      36.7493  Ry
     charge density cutoff     =     367.4932  Ry
     convergence threshold     =      1.0E-05
     mixing beta               =       0.3000
     number of iterations used =           10  plain     mixing
     Exchange-correlation      = BEEF-VDW ( 1  4 27 13 2)
     nstep                     =           50


     celldm(1)=   1.889726  celldm(2)=   0.000000  celldm(3)=   0.000000
     celldm(4)=   0.000000  celldm(5)=   0.000000  celldm(6)=   0.000000

     crystal axes: (cart. coord. in units of alat)
               a(1) = (   5.483647   0.000000   0.000000 )  
               a(2) = (   2.741823   4.748977   0.000000 )  
               a(3) = (   0.000000   0.000000  24.477379 )  

     reciprocal axes: (cart. coord. in units 2 pi/alat)
               b(1) = (  0.182360 -0.105286  0.000000 )  
               b(2) = (  0.000000  0.210572  0.000000 )  
               b(3) = (  0.000000  0.000000  0.040854 )  


     PseudoPot. # 1 for Tc read from file:
     /u/if/mamunm/psp/gbrv1.5pbe/Tc.UPF
     MD5 check sum: 9eb49e5b028550b2339a02317eb7b844
     Pseudo is Ultrasoft + core correction, Zval = 15.0
     Generated by new atomic code, or converted to UPF format
     Using radial grid of  965 points,  6 beta functions with: 
                l(1) =   0
                l(2) =   0
                l(3) =   1
                l(4) =   1
                l(5) =   2
                l(6) =   2
     Q(r) pseudized with  8 coefficients,  rinner =    1.300   1.300   1.300
                                                       1.300   1.300

     PseudoPot. # 2 for C  read from file:
     /u/if/mamunm/psp/gbrv1.5pbe/C.UPF
     MD5 check sum: d1aef80898a10debaa0f26306b886e00
     Pseudo is Ultrasoft + core correction, Zval =  4.0
     Generated by new atomic code, or converted to UPF format
     Using radial grid of  721 points,  4 beta functions with: 
                l(1) =   0
                l(2) =   0
                l(3) =   1
                l(4) =   1
     Q(r) pseudized with  8 coefficients,  rinner =    1.100   1.100   1.100


     PseudoPot. # 3 for H  read from file:
     /u/if/mamunm/psp/gbrv1.5pbe/H.UPF
     MD5 check sum: 761ae9a214b05c3daf00ab9f6b793d6f
     Pseudo is Ultrasoft, Zval =  1.0
     Generated by new atomic code, or converted to UPF format
     Using radial grid of  615 points,  2 beta functions with: 
                l(1) =   0
                l(2) =   0
     Q(r) pseudized with  8 coefficients,  rinner =    0.700

     vdW kernel table read from file vdW_kernel_table
     MD5 check sum: 095c7af220d748ca6e76c0b4c6cfb241

     atomic species   valence    mass     pseudopotential
        Tc1           15.00    97.90721     Tc( 1.00)
        C1             4.00    12.01100     C ( 1.00)
        H1             1.00     1.00800     H ( 1.00)

     No symmetry found



   Cartesian axes

     site n.     atom                  positions (alat units)
         1           Tc1 tau(   1) = (   1.3709117   0.7914962  10.0000000  )
         2           Tc1 tau(   2) = (   4.1127351   0.7914962  10.0000000  )
         3           Tc1 tau(   3) = (   2.7418234   3.1659850  10.0000000  )
         4           Tc1 tau(   4) = (   5.4836469   3.1659850  10.0000000  )
         5           Tc1 tau(   5) = (   5.4836469   1.5829925  12.2386895  )
         6           Tc1 tau(   6) = (   2.7418234   1.5829925  12.2386895  )
         7           Tc1 tau(   7) = (   6.8545586   3.9574812  12.2386895  )
         8           Tc1 tau(   8) = (   4.1127351   3.9574812  12.2386895  )
         9           Tc1 tau(   9) = (   0.0000000   0.0000000  14.4773789  )
        10           Tc1 tau(  10) = (   2.7418234   0.0000000  14.4773789  )
        11           Tc1 tau(  11) = (   1.3709117   2.3744887  14.4773789  )
        12           Tc1 tau(  12) = (   4.1127351   2.3744887  14.4773789  )
        13           C1  tau(  13) = (   1.3709117   0.7914962  15.9268789  )
        14           H1  tau(  14) = (   2.0009117   1.4214962  16.5568789  )
        15           H1  tau(  15) = (   0.7409117   0.1614962  16.5568789  )

     number of k points=    20  Fermi-Dirac smearing, width (Ry)=  0.0110
                       cart. coord. in units 2pi/alat
        k(    1) = (   0.0000000   0.0000000   0.0000000), wk =   0.0555556
        k(    2) = (   0.0000000   0.0350953   0.0000000), wk =   0.1111111
        k(    3) = (   0.0000000   0.0701905   0.0000000), wk =   0.1111111
        k(    4) = (   0.0000000  -0.1052858   0.0000000), wk =   0.0555556
        k(    5) = (   0.0303934  -0.0175476   0.0000000), wk =   0.1111111
        k(    6) = (   0.0303934   0.0175476   0.0000000), wk =   0.1111111
        k(    7) = (   0.0303934   0.0526429   0.0000000), wk =   0.1111111
        k(    8) = (   0.0303934  -0.1228335   0.0000000), wk =   0.1111111
        k(    9) = (   0.0303934  -0.0877382   0.0000000), wk =   0.1111111
        k(   10) = (   0.0303934  -0.0526429   0.0000000), wk =   0.1111111
        k(   11) = (   0.0607868  -0.0350953   0.0000000), wk =   0.1111111
        k(   12) = (   0.0607868   0.0000000   0.0000000), wk =   0.1111111
        k(   13) = (   0.0607868   0.0350953   0.0000000), wk =   0.1111111
        k(   14) = (   0.0607868  -0.1403811   0.0000000), wk =   0.1111111
        k(   15) = (   0.0607868  -0.1052858   0.0000000), wk =   0.1111111
        k(   16) = (   0.0607868  -0.0701905   0.0000000), wk =   0.1111111
        k(   17) = (  -0.0911802   0.0526429   0.0000000), wk =   0.0555556
        k(   18) = (  -0.0911802   0.0877382   0.0000000), wk =   0.1111111
        k(   19) = (  -0.0911802   0.1228335   0.0000000), wk =   0.1111111
        k(   20) = (  -0.0911802  -0.0526429   0.0000000), wk =   0.0555556

     Dense  grid:   511963 G-vectors     FFT dimensions: (  64,  64, 288)

     Smooth grid:   129143 G-vectors     FFT dimensions: (  40,  40, 180)

     Largest allocated arrays     est. size (Mb)     dimensions
        Kohn-Sham Wavefunctions         2.20 Mb     (    1398,  103)
        NL pseudopotentials             4.86 Mb     (    1398,  228)
        Each V/rho on FFT grid          1.50 Mb     (   98304)
        Each G-vector array             0.33 Mb     (   42662)
        G-vector shells                 0.11 Mb     (   14814)
     Largest temporary arrays     est. size (Mb)     dimensions
        Auxiliary wavefunctions         8.79 Mb     (    1398,  412)
        Each subspace H/S matrix        2.59 Mb     (     412,  412)
        Each <psi_i|beta_j> matrix      0.36 Mb     (     228,  103)
        Arrays for rho mixing          15.00 Mb     (   98304,   10)

     Check: negative/imaginary core charge=   -0.000022    0.000000

     Initial potential from superposition of free atoms
     Check: negative starting charge=   -1.504671

     starting charge  173.99961, renormalised to  186.00000

     negative rho (up, down):  1.608E+00 0.000E+00


     ************************************************************************
     *
     * You are using vdW-DF for exchange-correlation in this calculation.
     * Please cite the following three references that made this development
     * possible:
     *
     *   M. Dion, H. Rydberg, E. Schroder, D. C. Langreth, and
     *   B. I. Lundqvist, Phys. Rev. Lett. 92, 246401 (2004).
     *
     *   T. Thonhauser, V. R. Cooper, S. Li, A. Puzder, P. Hyldgaard, and
     *   D. C. Langreth, Phys. Rev. B 76, 125112 (2007).
     *
     *   G. Roman-Perez and J. M. Soler, Phys. Rev. Lett. 103, 096102 (2009).
     *
     *
     * If you are using vdW-DF2, please also cite:
     *
     *   K. Lee, E. D. Murray, L. Kong, B. I. Lundqvist, and
     *   D. C. Langreth, Phys. Rev. B 82, 081101(R) (2010).
     *
     *
     * If you are calculating the stress with vdW-DF, please also cite:
     *
     *   R. Sabatini, E. Kucukbenli, B. Kolb, T. Thonhauser, and
     *   S. de Gironcoli, J. Phys.: Condens. Matter 24, 424209 (2012).
     *
     ************************************************************************

     Carrying out vdW-DF run using the following parameters:

     Nqs =      20    Nr_points =    1024   r_max =   100.000
     q_mesh =
               0.00001000     0.04494208     0.09755937     0.15916263
               0.23128650     0.31572767     0.41458969     0.53033537
               0.66584808     0.82450364     1.01025438     1.22772762
               1.48234092     1.78043706     2.12944203     2.53805004
               3.01644009     3.57652955     4.23227104     5.00000000

     Gradients computed in reciprocal space

     ************************************************************************


 
     Adding external electric field

     Computed dipole along edir(3) : 
        Dipole               -3.0479 Ry au,         -7.7469 Debye
        Dipole field         -0.0089 Ry au
 
        Potential amp.        0.8031 Ry
        Total length         45.0992 bohr
 
     Starting wfc are  162 randomized atomic wfcs

     total cpu time spent up to now is        6.9 secs

     Self-consistent Calculation

     iteration #  1     ecut=    36.75 Ry     beta=0.30
     Davidson diagonalization with overlap
     ethr =  1.00E-02,  avg # of iterations =  8.2

     negative rho (up, down):  1.603E+00 0.000E+00
 
     Adding external electric field

     Computed dipole along edir(3) : 
        Dipole               64.3283 Ry au,        163.5062 Debye
        Dipole field          0.1879 Ry au
 
        Potential amp.      -16.9504 Ry
        Total length         45.0992 bohr
 

     total cpu time spent up to now is       20.2 secs

     total energy              =   -1907.46317687 Ry
     Harris-Foulkes estimate   =   -2114.64686638 Ry
     estimated scf accuracy    <     435.80433096 Ry

     iteration #  2     ecut=    36.75 Ry     beta=0.30
     Davidson diagonalization with overlap
     ethr =  1.00E-02,  avg # of iterations = 18.2

     negative rho (up, down):  1.571E+00 0.000E+00
 
     Adding external electric field

     Computed dipole along edir(3) : 
        Dipole                9.5021 Ry au,         24.1519 Debye
        Dipole field          0.0278 Ry au
 
        Potential amp.       -2.5038 Ry
        Total length         45.0992 bohr
 

     total cpu time spent up to now is       56.4 secs

     total energy              =   -1794.07682750 Ry
     Harris-Foulkes estimate   =   -2949.32742804 Ry
     estimated scf accuracy    <   18964.84721589 Ry

     iteration #  3     ecut=    36.75 Ry     beta=0.30
     Davidson diagonalization with overlap
     ethr =  1.00E-02,  avg # of iterations = 10.4

     negative rho (up, down):  1.557E+00 0.000E+00
 
     Adding external electric field

     Computed dipole along edir(3) : 
        Dipole               11.1136 Ry au,         28.2481 Debye
        Dipole field          0.0325 Ry au
 
        Potential amp.       -2.9284 Ry
        Total length         45.0992 bohr
 

     total cpu time spent up to now is       82.3 secs

     total energy              =   -2044.05780556 Ry
     Harris-Foulkes estimate   =   -2283.48035942 Ry
     estimated scf accuracy    <    2988.40476197 Ry

     iteration #  4     ecut=    36.75 Ry     beta=0.30
     Davidson diagonalization with overlap
     ethr =  1.00E-02,  avg # of iterations =  7.0

     negative rho (up, down):  1.597E+00 0.000E+00
 
     Adding external electric field

     Computed dipole along edir(3) : 
        Dipole                7.3336 Ry au,         18.6400 Debye
        Dipole field          0.0214 Ry au
 
        Potential amp.       -1.9324 Ry
        Total length         45.0992 bohr
 

     total cpu time spent up to now is       98.8 secs

     total energy              =   -2100.57454792 Ry
     Harris-Foulkes estimate   =   -2134.09074466 Ry
     estimated scf accuracy    <     475.95915993 Ry

     iteration #  5     ecut=    36.75 Ry     beta=0.30
     Davidson diagonalization with overlap
     ethr =  1.00E-02,  avg # of iterations =  6.6

     negative rho (up, down):  1.589E+00 0.000E+00
 
     Adding external electric field

     Computed dipole along edir(3) : 
        Dipole                7.6691 Ry au,         19.4928 Debye
        Dipole field          0.0224 Ry au
 
        Potential amp.       -2.0208 Ry
        Total length         45.0992 bohr
 

     total cpu time spent up to now is      115.4 secs

     total energy              =   -2118.52190318 Ry
     Harris-Foulkes estimate   =   -2127.94114385 Ry
     estimated scf accuracy    <     144.45849361 Ry

     iteration #  6     ecut=    36.75 Ry     beta=0.30
     Davidson diagonalization with overlap
     ethr =  1.00E-02,  avg # of iterations =  4.0

     negative rho (up, down):  1.581E+00 0.000E+00
 
     Adding external electric field

     Computed dipole along edir(3) : 
        Dipole                6.9240 Ry au,         17.5990 Debye
        Dipole field          0.0202 Ry au
 
        Potential amp.       -1.8245 Ry
        Total length         45.0992 bohr
 

     total cpu time spent up to now is      126.1 secs

     total energy              =   -2118.37831368 Ry
     Harris-Foulkes estimate   =   -2121.45413841 Ry
     estimated scf accuracy    <     107.67002899 Ry

     iteration #  7     ecut=    36.75 Ry     beta=0.30
     Davidson diagonalization with overlap
     ethr =  1.00E-02,  avg # of iterations =  1.4

     negative rho (up, down):  1.578E+00 0.000E+00
 
     Adding external electric field

     Computed dipole along edir(3) : 
        Dipole                7.2725 Ry au,         18.4848 Debye
        Dipole field          0.0212 Ry au
 
        Potential amp.       -1.9163 Ry
        Total length         45.0992 bohr
 

     total cpu time spent up to now is      135.0 secs

     total energy              =   -2119.71461657 Ry
     Harris-Foulkes estimate   =   -2119.45793085 Ry
     estimated scf accuracy    <       8.90978276 Ry

     iteration #  8     ecut=    36.75 Ry     beta=0.30
     Davidson diagonalization with overlap
     ethr =  4.79E-03,  avg # of iterations =  4.0

     negative rho (up, down):  1.599E+00 0.000E+00
 
     Adding external electric field

     Computed dipole along edir(3) : 
        Dipole                3.7456 Ry au,          9.5204 Debye
        Dipole field          0.0109 Ry au
 
        Potential amp.       -0.9870 Ry
        Total length         45.0992 bohr
 

     total cpu time spent up to now is      144.7 secs

     total energy              =   -2117.59739217 Ry
     Harris-Foulkes estimate   =   -2119.94070127 Ry
     estimated scf accuracy    <       6.29509417 Ry

     iteration #  9     ecut=    36.75 Ry     beta=0.30
     Davidson diagonalization with overlap
     ethr =  3.38E-03,  avg # of iterations =  4.9

     negative rho (up, down):  1.605E+00 0.000E+00
 
     Adding external electric field

     Computed dipole along edir(3) : 
        Dipole                2.2680 Ry au,          5.7647 Debye
        Dipole field          0.0066 Ry au
 
        Potential amp.       -0.5976 Ry
        Total length         45.0992 bohr
 

     total cpu time spent up to now is      155.6 secs

     total energy              =   -2117.50088219 Ry
     Harris-Foulkes estimate   =   -2118.22506085 Ry
     estimated scf accuracy    <       4.79792193 Ry

     iteration # 10     ecut=    36.75 Ry     beta=0.30
     Davidson diagonalization with overlap
     ethr =  2.58E-03,  avg # of iterations =  1.6

     negative rho (up, down):  1.605E+00 0.000E+00
 
     Adding external electric field

     Computed dipole along edir(3) : 
        Dipole                1.8825 Ry au,          4.7849 Debye
        Dipole field          0.0055 Ry au
 
        Potential amp.       -0.4960 Ry
        Total length         45.0992 bohr
 

     total cpu time spent up to now is      164.3 secs

     total energy              =   -2117.48302306 Ry
     Harris-Foulkes estimate   =   -2117.68782261 Ry
     estimated scf accuracy    <       2.47173599 Ry

     iteration # 11     ecut=    36.75 Ry     beta=0.30
     Davidson diagonalization with overlap
     ethr =  1.33E-03,  avg # of iterations =  2.4

     negative rho (up, down):  1.604E+00 0.000E+00
 
     Adding external electric field

     Computed dipole along edir(3) : 
        Dipole                1.7320 Ry au,          4.4022 Debye
        Dipole field          0.0051 Ry au
 
        Potential amp.       -0.4564 Ry
        Total length         45.0992 bohr
 

     total cpu time spent up to now is      173.7 secs

     total energy              =   -2117.54804503 Ry
     Harris-Foulkes estimate   =   -2117.59256793 Ry
     estimated scf accuracy    <       1.12681211 Ry

     iteration # 12     ecut=    36.75 Ry     beta=0.30
     Davidson diagonalization with overlap
     ethr =  6.06E-04,  avg # of iterations =  3.8

     negative rho (up, down):  1.601E+00 0.000E+00
 
     Adding external electric field

     Computed dipole along edir(3) : 
        Dipole                0.3722 Ry au,          0.9460 Debye
        Dipole field          0.0011 Ry au
 
        Potential amp.       -0.0981 Ry
        Total length         45.0992 bohr
 

     total cpu time spent up to now is      184.1 secs

     total energy              =   -2117.33150079 Ry
     Harris-Foulkes estimate   =   -2117.58926062 Ry
     estimated scf accuracy    <       2.78259703 Ry

     iteration # 13     ecut=    36.75 Ry     beta=0.30
     Davidson diagonalization with overlap
     ethr =  6.06E-04,  avg # of iterations =  3.1

     negative rho (up, down):  1.597E+00 0.000E+00
 
     Adding external electric field

     Computed dipole along edir(3) : 
        Dipole                0.3174 Ry au,          0.8069 Debye
        Dipole field          0.0009 Ry au
 
        Potential amp.       -0.0836 Ry
        Total length         45.0992 bohr
 

     total cpu time spent up to now is      194.1 secs

     total energy              =   -2117.34422474 Ry
     Harris-Foulkes estimate   =   -2117.39573389 Ry
     estimated scf accuracy    <       0.18819341 Ry

     iteration # 14     ecut=    36.75 Ry     beta=0.30
     Davidson diagonalization with overlap
     ethr =  1.01E-04,  avg # of iterations =  6.7

     negative rho (up, down):  1.597E+00 0.000E+00
 
     Adding external electric field

     Computed dipole along edir(3) : 
        Dipole               -0.2955 Ry au,         -0.7511 Debye
        Dipole field         -0.0009 Ry au
 
        Potential amp.        0.0779 Ry
        Total length         45.0992 bohr
 

     total cpu time spent up to now is      207.1 secs

     total energy              =   -2117.33527069 Ry
     Harris-Foulkes estimate   =   -2117.38068120 Ry
     estimated scf accuracy    <       0.15794711 Ry

     iteration # 15     ecut=    36.75 Ry     beta=0.30
     Davidson diagonalization with overlap
     ethr =  8.49E-05,  avg # of iterations =  5.2

     negative rho (up, down):  1.594E+00 0.000E+00
 
     Adding external electric field

     Computed dipole along edir(3) : 
        Dipole                0.0325 Ry au,          0.0825 Debye
        Dipole field          0.0001 Ry au
 
        Potential amp.       -0.0086 Ry
        Total length         45.0992 bohr
 

     total cpu time spent up to now is      219.0 secs

     total energy              =   -2117.34218905 Ry
     Harris-Foulkes estimate   =   -2117.38444416 Ry
     estimated scf accuracy    <       0.19299128 Ry

     iteration # 16     ecut=    36.75 Ry     beta=0.30
     Davidson diagonalization with overlap
     ethr =  8.49E-05,  avg # of iterations =  3.1

     negative rho (up, down):  1.592E+00 0.000E+00
 
     Adding external electric field

     Computed dipole along edir(3) : 
        Dipole                0.0961 Ry au,          0.2443 Debye
        Dipole field          0.0003 Ry au
 
        Potential amp.       -0.0253 Ry
        Total length         45.0992 bohr
 

     total cpu time spent up to now is      228.7 secs

     total energy              =   -2117.35686225 Ry
     Harris-Foulkes estimate   =   -2117.36148448 Ry
     estimated scf accuracy    <       0.02855168 Ry

     iteration # 17     ecut=    36.75 Ry     beta=0.30
     Davidson diagonalization with overlap
     ethr =  1.54E-05,  avg # of iterations =  5.5

     negative rho (up, down):  1.591E+00 0.000E+00
 
     Adding external electric field

     Computed dipole along edir(3) : 
        Dipole                0.1509 Ry au,          0.3836 Debye
        Dipole field          0.0004 Ry au
 
        Potential amp.       -0.0398 Ry
        Total length         45.0992 bohr
 

     total cpu time spent up to now is      240.5 secs

     total energy              =   -2117.35912400 Ry
     Harris-Foulkes estimate   =   -2117.36298503 Ry
     estimated scf accuracy    <       0.06901594 Ry

     iteration # 18     ecut=    36.75 Ry     beta=0.30
     Davidson diagonalization with overlap
     ethr =  1.54E-05,  avg # of iterations =  1.1

     negative rho (up, down):  1.591E+00 0.000E+00
 
     Adding external electric field

     Computed dipole along edir(3) : 
        Dipole                0.1508 Ry au,          0.3833 Debye
        Dipole field          0.0004 Ry au
 
        Potential amp.       -0.0397 Ry
        Total length         45.0992 bohr
 

     total cpu time spent up to now is      249.6 secs

     total energy              =   -2117.35871268 Ry
     Harris-Foulkes estimate   =   -2117.36074504 Ry
     estimated scf accuracy    <       0.01137683 Ry

     iteration # 19     ecut=    36.75 Ry     beta=0.30
     Davidson diagonalization with overlap
     ethr =  6.12E-06,  avg # of iterations =  5.3

     negative rho (up, down):  1.591E+00 0.000E+00
 
     Adding external electric field

     Computed dipole along edir(3) : 
        Dipole                0.1583 Ry au,          0.4022 Debye
        Dipole field          0.0005 Ry au
 
        Potential amp.       -0.0417 Ry
        Total length         45.0992 bohr
 

     total cpu time spent up to now is      261.3 secs

     total energy              =   -2117.36015287 Ry
     Harris-Foulkes estimate   =   -2117.36086551 Ry
     estimated scf accuracy    <       0.00779291 Ry

     iteration # 20     ecut=    36.75 Ry     beta=0.30
     Davidson diagonalization with overlap
     ethr =  4.19E-06,  avg # of iterations =  1.0

     negative rho (up, down):  1.590E+00 0.000E+00
 
     Adding external electric field

     Computed dipole along edir(3) : 
        Dipole                0.1793 Ry au,          0.4557 Debye
        Dipole field          0.0005 Ry au
 
        Potential amp.       -0.0472 Ry
        Total length         45.0992 bohr
 

     total cpu time spent up to now is      269.7 secs

     total energy              =   -2117.36018909 Ry
     Harris-Foulkes estimate   =   -2117.36038395 Ry
     estimated scf accuracy    <       0.00232741 Ry

     iteration # 21     ecut=    36.75 Ry     beta=0.30
     Davidson diagonalization with overlap
     ethr =  1.25E-06,  avg # of iterations =  4.3

     negative rho (up, down):  1.590E+00 0.000E+00
 
     Adding external electric field

     Computed dipole along edir(3) : 
        Dipole                0.1841 Ry au,          0.4679 Debye
        Dipole field          0.0005 Ry au
 
        Potential amp.       -0.0485 Ry
        Total length         45.0992 bohr
 

     total cpu time spent up to now is      280.1 secs

     total energy              =   -2117.36033355 Ry
     Harris-Foulkes estimate   =   -2117.36037474 Ry
     estimated scf accuracy    <       0.00025546 Ry

     iteration # 22     ecut=    36.75 Ry     beta=0.30
     Davidson diagonalization with overlap
     ethr =  1.37E-07,  avg # of iterations =  4.6

     negative rho (up, down):  1.590E+00 0.000E+00
 
     Adding external electric field

     Computed dipole along edir(3) : 
        Dipole                0.1961 Ry au,          0.4984 Debye
        Dipole field          0.0006 Ry au
 
        Potential amp.       -0.0517 Ry
        Total length         45.0992 bohr
 

     total cpu time spent up to now is      292.1 secs

     total energy              =   -2117.36035486 Ry
     Harris-Foulkes estimate   =   -2117.36038874 Ry
     estimated scf accuracy    <       0.00065596 Ry

     iteration # 23     ecut=    36.75 Ry     beta=0.30
     Davidson diagonalization with overlap
     ethr =  1.37E-07,  avg # of iterations =  3.8

     negative rho (up, down):  1.590E+00 0.000E+00
 
     Adding external electric field

     Computed dipole along edir(3) : 
        Dipole                0.1991 Ry au,          0.5060 Debye
        Dipole field          0.0006 Ry au
 
        Potential amp.       -0.0525 Ry
        Total length         45.0992 bohr
 

     total cpu time spent up to now is      301.6 secs

     total energy              =   -2117.36036455 Ry
     Harris-Foulkes estimate   =   -2117.36037727 Ry
     estimated scf accuracy    <       0.00016324 Ry

     iteration # 24     ecut=    36.75 Ry     beta=0.30
     Davidson diagonalization with overlap
     ethr =  8.78E-08,  avg # of iterations =  3.1

     negative rho (up, down):  1.590E+00 0.000E+00
 
     Adding external electric field

     Computed dipole along edir(3) : 
        Dipole                0.2052 Ry au,          0.5216 Debye
        Dipole field          0.0006 Ry au
 
        Potential amp.       -0.0541 Ry
        Total length         45.0992 bohr
 

     total cpu time spent up to now is      311.2 secs

     total energy              =   -2117.36036626 Ry
     Harris-Foulkes estimate   =   -2117.36036757 Ry
     estimated scf accuracy    <       0.00020313 Ry

     iteration # 25     ecut=    36.75 Ry     beta=0.30
     Davidson diagonalization with overlap
     ethr =  8.78E-08,  avg # of iterations =  1.0

     negative rho (up, down):  1.590E+00 0.000E+00

     negative rho (up, down):  1.590E+00 0.000E+00

     negative rho (up, down):  1.590E+00 0.000E+00

     negative rho (up, down):  1.590E+00 0.000E+00

     negative rho (up, down):  1.590E+00 0.000E+00

     negative rho (up, down):  1.590E+00 0.000E+00

     negative rho (up, down):  1.590E+00 0.000E+00

     negative rho (up, down):  1.590E+00 0.000E+00

     negative rho (up, down):  1.590E+00 0.000E+00

     negative rho (up, down):  1.590E+00 0.000E+00

     negative rho (up, down):  1.590E+00 0.000E+00

     negative rho (up, down):  1.590E+00 0.000E+00

     negative rho (up, down):  1.590E+00 0.000E+00

     negative rho (up, down):  1.590E+00 0.000E+00

     negative rho (up, down):  1.590E+00 0.000E+00

     negative rho (up, down):  1.590E+00 0.000E+00

     negative rho (up, down):  1.590E+00 0.000E+00

     negative rho (up, down):  1.590E+00 0.000E+00

     negative rho (up, down):  1.590E+00 0.000E+00

     negative rho (up, down):  1.590E+00 0.000E+00

     negative rho (up, down):  1.590E+00 0.000E+00

     negative rho (up, down):  1.590E+00 0.000E+00

     negative rho (up, down):  1.590E+00 0.000E+00

     negative rho (up, down):  1.590E+00 0.000E+00

     negative rho (up, down):  1.590E+00 0.000E+00

     negative rho (up, down):  1.590E+00 0.000E+00

     negative rho (up, down):  1.590E+00 0.000E+00

     negative rho (up, down):  1.590E+00 0.000E+00

     negative rho (up, down):  1.590E+00 0.000E+00

     negative rho (up, down):  1.590E+00 0.000E+00

     negative rho (up, down):  1.590E+00 0.000E+00

     negative rho (up, down):  1.590E+00 0.000E+00

     negative rho (up, down):  1.590E+00 0.000E+00

     negative rho (up, down):  1.590E+00 0.000E+00

     negative rho (up, down):  1.590E+00 0.000E+00
 
     Adding external electric field

     Computed dipole along edir(3) : 
        Dipole                0.2019 Ry au,          0.5132 Debye
        Dipole field          0.0006 Ry au
 
        Potential amp.       -0.0532 Ry
        Total length         45.0992 bohr
 

     total cpu time spent up to now is      346.9 secs

     End of self-consistent calculation

          k = 0.0000 0.0000 0.0000 ( 16073 PWs)   bands (ev):

   -64.4040 -64.2741 -64.2502 -64.2462 -64.2319 -64.1711 -64.1390 -64.1053
   -64.0372 -64.0249 -64.0120 -64.0083 -36.8432 -36.8361 -36.8266 -36.7846
   -36.7185 -36.6895 -36.6703 -36.5489 -36.5471 -36.5384 -36.2817 -36.2278
   -36.1929 -36.1742 -36.1369 -36.1106 -36.1086 -36.1036 -36.0968 -36.0730
   -35.9676 -35.9519 -35.9370 -35.9326 -35.9245 -35.9110 -35.8762 -35.8696
   -35.8642 -35.8084 -35.8059 -35.8037 -35.7125 -35.6991 -35.6103 -35.6070
   -10.0093  -4.3833  -3.7361  -3.2224  -2.4192  -2.3315  -2.2950  -2.2137
    -2.1302  -1.9828  -1.8583  -1.8103  -1.7237  -1.7041  -1.4759  -1.4701
    -1.3356  -0.6202  -0.5373  -0.0926   0.4368   0.5976   0.6157   0.7834
     0.8802   1.0742   1.1907   1.1969   1.4482   1.4809   1.5226   1.5854
     1.5860   1.6899   1.7220   1.7988   2.1927   2.2063   2.4185   2.9071
     3.1539   3.1933   3.2137   3.4024   3.5560   3.5753   3.7167   3.9068
     4.0183   4.0870   4.2531   4.7178   4.7757   4.8813   4.8941

          k = 0.0000 0.0351 0.0000 ( 16137 PWs)   bands (ev):

   -64.3938 -64.2707 -64.2567 -64.2457 -64.2347 -64.1728 -64.1311 -64.1064
   -64.0395 -64.0291 -64.0143 -64.0101 -36.8079 -36.8014 -36.7764 -36.7528
   -36.6964 -36.6581 -36.6401 -36.5207 -36.5128 -36.4917 -36.2912 -36.2464
   -36.2052 -36.1982 -36.1639 -36.1452 -36.1111 -36.0912 -36.0730 -36.0466
   -35.9902 -35.9755 -35.9482 -35.9316 -35.9249 -35.9189 -35.9070 -35.8854
   -35.8808 -35.8388 -35.8359 -35.7931 -35.7563 -35.7194 -35.6662 -35.6221
    -9.9972  -4.3934  -3.5212  -3.0486  -2.2572  -2.1624  -2.1055  -1.9820
    -1.9113  -1.8276  -1.7081  -1.6648  -1.5877  -1.5620  -1.3421  -1.2471
    -1.1207  -0.5714  -0.4492  -0.0597   0.3439   0.6985   0.7063   0.7258
     0.8024   0.9381   1.0133   1.2743   1.3891   1.4062   1.4391   1.5666
     1.6401   1.6517   1.7612   1.9306   2.0032   2.0511   2.2514   2.5430
     2.8105   2.9302   3.1759   3.1907   3.2695   3.4149   3.5045   3.6204
     3.8437   4.0316   4.1473   4.2149   4.5149   4.5325   4.5919

          k = 0.0000 0.0702 0.0000 ( 16149 PWs)   bands (ev):

   -64.3658 -64.2884 -64.2566 -64.2432 -64.2362 -64.1779 -64.1119 -64.1066
   -64.0483 -64.0434 -64.0174 -64.0106 -36.7282 -36.7198 -36.6840 -36.6401
   -36.6250 -36.5918 -36.5803 -36.4620 -36.4375 -36.3703 -36.3170 -36.2966
   -36.2672 -36.2378 -36.1758 -36.1500 -36.1206 -36.0807 -36.0595 -36.0485
   -36.0433 -36.0250 -36.0191 -35.9714 -35.9539 -35.9405 -35.9305 -35.9086
   -35.8972 -35.8946 -35.8778 -35.8686 -35.7982 -35.7605 -35.7495 -35.6584
    -9.9731  -4.4100  -3.0439  -2.5731  -1.9431  -1.7488  -1.6394  -1.5751
    -1.4522  -1.3227  -1.2680  -1.2305  -1.1931  -1.1352  -1.0247  -0.8066
    -0.5413  -0.4229  -0.1630  -0.0551   0.1499   0.2640   0.4163   0.6484
     0.8091   0.8953   0.9352   1.0318   1.1311   1.2647   1.3885   1.4686
     1.5696   1.6387   1.7511   1.8702   1.9419   2.0071   2.0584   2.2479
     2.3591   2.4409   2.5390   2.6283   2.6605   2.8102   2.9128   3.0603
     3.2528   3.4005   3.5944   3.8415   3.9035   3.9405   4.0438

          k = 0.0000-0.1053 0.0000 ( 16164 PWs)   bands (ev):

   -64.3300 -64.3240 -64.2536 -64.2410 -64.2346 -64.1819 -64.1112 -64.0835
   -64.0729 -64.0458 -64.0181 -64.0106 -36.6733 -36.6618 -36.6328 -36.5970
   -36.5882 -36.5541 -36.4495 -36.4259 -36.4128 -36.3799 -36.3580 -36.3519
   -36.2493 -36.2048 -36.1516 -36.1335 -36.1237 -36.1074 -36.1051 -36.0613
   -36.0560 -36.0513 -36.0225 -36.0139 -35.9952 -35.9914 -35.9848 -35.9821
   -35.9128 -35.9090 -35.8726 -35.8637 -35.8518 -35.7777 -35.7141 -35.7018
    -9.9612  -4.4179  -2.7768  -2.0509  -1.9911  -1.4006  -1.3448  -1.3061
    -1.2811  -1.1142  -1.0282  -0.9409  -0.8291  -0.6283  -0.6011  -0.4578
    -0.4136  -0.3015  -0.2568  -0.0520   0.2144   0.2457   0.3778   0.3970
     0.4497   0.5957   0.8415   0.9621   1.2579   1.2686   1.3915   1.4475
     1.4563   1.5351   1.5544   1.6528   1.6573   1.7332   1.7848   1.8488
     1.9668   2.0338   2.3736   2.7056   2.7561   2.7713   2.7831   2.8025
     2.9849   3.2431   3.2968   3.4501   3.4978   3.5915   3.6266

          k = 0.0304-0.0175 0.0000 ( 16137 PWs)   bands (ev):

   -64.3938 -64.2724 -64.2541 -64.2473 -64.2343 -64.1701 -64.1312 -64.1099
   -64.0382 -64.0293 -64.0132 -64.0110 -36.8082 -36.8016 -36.7763 -36.7533
   -36.6972 -36.6550 -36.6417 -36.5214 -36.5090 -36.4933 -36.2897 -36.2363
   -36.2189 -36.1972 -36.1703 -36.1413 -36.1051 -36.0888 -36.0808 -36.0445
   -35.9909 -35.9653 -35.9500 -35.9364 -35.9245 -35.9212 -35.9122 -35.8847
   -35.8781 -35.8400 -35.8363 -35.7920 -35.7640 -35.7104 -35.6676 -35.6206
    -9.9982  -4.3712  -3.5299  -3.0518  -2.2725  -2.1540  -2.0925  -1.9828
    -1.9201  -1.8495  -1.7012  -1.6440  -1.6031  -1.5578  -1.3684  -1.2435
    -1.0954  -0.5928  -0.4423  -0.0846   0.3576   0.6993   0.7121   0.7250
     0.7825   0.9520   1.0310   1.3181   1.3832   1.4054   1.4324   1.5942
     1.6328   1.6579   1.7089   1.9237   2.0186   2.0585   2.2418   2.5603
     2.8093   2.9459   3.1717   3.1871   3.3220   3.4220   3.4577   3.5802
     3.8408   4.0371   4.1150   4.2160   4.5139   4.5311   4.5846

          k = 0.0304 0.0175 0.0000 ( 16137 PWs)   bands (ev):

   -64.3938 -64.2696 -64.2559 -64.2491 -64.2329 -64.1738 -64.1311 -64.1051
   -64.0400 -64.0281 -64.0170 -64.0083 -36.8087 -36.7941 -36.7859 -36.7485
   -36.6956 -36.6621 -36.6379 -36.5183 -36.5173 -36.4911 -36.2965 -36.2411
   -36.2051 -36.1985 -36.1570 -36.1482 -36.1139 -36.0935 -36.0694 -36.0477
   -35.9911 -35.9774 -35.9508 -35.9302 -35.9236 -35.9135 -35.9053 -35.8862
   -35.8831 -35.8379 -35.8350 -35.7944 -35.7535 -35.7238 -35.6649 -35.6234
    -9.9966  -4.4110  -3.5126  -3.0456  -2.2316  -2.1888  -2.1074  -1.9828
    -1.9103  -1.7965  -1.7204  -1.6782  -1.5760  -1.5673  -1.3121  -1.2486
    -1.1509  -0.5568  -0.4499  -0.0364   0.3313   0.6826   0.7026   0.7309
     0.8410   0.8995   1.0004   1.2452   1.3921   1.4014   1.4507   1.5530
     1.6404   1.6453   1.7979   1.9422   1.9949   2.0355   2.2619   2.5256
     2.8256   2.9049   3.1729   3.1971   3.2378   3.4125   3.5165   3.6643
     3.8412   4.0354   4.1764   4.2176   4.5136   4.5346   4.6003

          k = 0.0304 0.0526 0.0000 ( 16202 PWs)   bands (ev):

   -64.3746 -64.2730 -64.2633 -64.2518 -64.2300 -64.1792 -64.1164 -64.1045
   -64.0444 -64.0360 -64.0270 -64.0057 -36.7599 -36.7195 -36.7009 -36.6873
   -36.6530 -36.6106 -36.5922 -36.4844 -36.4450 -36.4162 -36.3143 -36.2773
   -36.2567 -36.2345 -36.1878 -36.1240 -36.1079 -36.0914 -36.0748 -36.0520
   -36.0279 -35.9957 -35.9761 -35.9552 -35.9504 -35.9379 -35.9242 -35.9104
   -35.8995 -35.8886 -35.8381 -35.8114 -35.8074 -35.7597 -35.7497 -35.6524
    -9.9778  -4.4387  -3.1565  -2.7085  -1.9228  -1.8796  -1.8245  -1.6033
    -1.5544  -1.5165  -1.4587  -1.3579  -1.3008  -1.2567  -1.0406  -0.8902
    -0.7967  -0.4883  -0.2286   0.0094   0.1294   0.3355   0.5704   0.6408
     0.8275   0.8889   0.9090   1.0735   1.3033   1.3430   1.3772   1.4480
     1.5585   1.7290   1.7429   1.7993   1.8282   2.0052   2.2510   2.3777
     2.4336   2.5022   2.6008   2.9026   2.9638   3.0562   3.0644   3.1328
     3.2239   3.5559   3.6128   3.9963   4.0189   4.2386   4.2589

          k = 0.0304-0.1228 0.0000 ( 16203 PWs)   bands (ev):

   -64.3414 -64.3024 -64.2716 -64.2409 -64.2266 -64.1822 -64.1106 -64.0904
   -64.0583 -64.0461 -64.0338 -64.0025 -36.6746 -36.6493 -36.6114 -36.5959
   -36.5702 -36.5516 -36.5285 -36.4577 -36.3910 -36.3640 -36.3493 -36.3040
   -36.2785 -36.2479 -36.1922 -36.1505 -36.1306 -36.0875 -36.0802 -36.0723
   -36.0490 -36.0304 -36.0232 -36.0102 -35.9951 -35.9847 -35.9584 -35.9458
   -35.9194 -35.9030 -35.8701 -35.8505 -35.8433 -35.7908 -35.7593 -35.7026
    -9.9606  -4.4308  -2.7689  -2.1233  -1.7166  -1.4239  -1.3461  -1.3127
    -1.1986  -1.1074  -0.9925  -0.8843  -0.8706  -0.7693  -0.5950  -0.5467
    -0.4788  -0.2945  -0.1409  -0.0812   0.1185   0.1590   0.2733   0.4700
     0.5275   0.6306   0.7424   0.8863   1.0648   1.1773   1.2112   1.2783
     1.4043   1.4403   1.4661   1.5542   1.6480   1.8239   1.9039   1.9997
     2.1055   2.2172   2.3085   2.5162   2.6794   2.7913   2.8933   2.9662
     3.0805   3.1627   3.2756   3.4973   3.5721   3.7771   3.8483

          k = 0.0304-0.0877 0.0000 ( 16203 PWs)   bands (ev):

   -64.3416 -64.3025 -64.2725 -64.2398 -64.2280 -64.1772 -64.1164 -64.0900
   -64.0591 -64.0442 -64.0330 -64.0027 -36.6829 -36.6406 -36.6126 -36.5962
   -36.5708 -36.5500 -36.5279 -36.4535 -36.4054 -36.3607 -36.3460 -36.3068
   -36.2722 -36.2122 -36.2031 -36.1466 -36.1315 -36.1173 -36.0869 -36.0767
   -36.0426 -36.0321 -36.0248 -36.0150 -35.9961 -35.9805 -35.9577 -35.9472
   -35.9179 -35.9022 -35.8677 -35.8484 -35.8418 -35.7878 -35.7605 -35.7008
    -9.9622  -4.3969  -2.7726  -2.1568  -1.7343  -1.4573  -1.3390  -1.2967
    -1.2065  -1.0912  -1.0156  -0.8906  -0.8691  -0.8379  -0.6035  -0.5226
    -0.4491  -0.2393  -0.1471  -0.0807   0.1300   0.1920   0.2926   0.4832
     0.5545   0.6023   0.7141   0.8671   1.0734   1.1577   1.2061   1.2783
     1.3804   1.4481   1.5080   1.5424   1.7093   1.8057   1.9371   1.9998
     2.1136   2.2181   2.2462   2.5253   2.6801   2.7953   2.9008   2.9462
     3.0818   3.2188   3.2614   3.3600   3.5666   3.7731   3.8386

          k = 0.0304-0.0526 0.0000 ( 16202 PWs)   bands (ev):

   -64.3748 -64.2757 -64.2650 -64.2462 -64.2327 -64.1707 -64.1189 -64.1126
   -64.0407 -64.0383 -64.0238 -64.0067 -36.7650 -36.7093 -36.7054 -36.6909
   -36.6563 -36.6041 -36.5945 -36.4833 -36.4303 -36.4214 -36.3116 -36.2814
   -36.2533 -36.2361 -36.1858 -36.1336 -36.1009 -36.0915 -36.0782 -36.0451
   -36.0256 -35.9989 -35.9859 -35.9621 -35.9559 -35.9384 -35.9223 -35.9161
   -35.9031 -35.8861 -35.8358 -35.8093 -35.8075 -35.7615 -35.7385 -35.6496
    -9.9809  -4.3663  -3.1828  -2.7263  -1.9837  -1.8883  -1.7465  -1.6510
    -1.5824  -1.5260  -1.4265  -1.3829  -1.2901  -1.2754  -1.0976  -0.9441
    -0.6492  -0.5161  -0.3083  -0.0402   0.2449   0.3333   0.5959   0.6978
     0.8423   0.8976   0.9994   1.0562   1.1335   1.3395   1.3824   1.4674
     1.6215   1.7296   1.7601   1.8207   1.8524   2.0094   2.2521   2.3775
     2.3894   2.5332   2.6245   2.9031   2.9679   3.0321   3.0713   3.1173
     3.2158   3.4216   3.6355   3.9648   4.0461   4.1795   4.2614

          k = 0.0608-0.0351 0.0000 ( 16149 PWs)   bands (ev):

   -64.3660 -64.2895 -64.2556 -64.2452 -64.2360 -64.1668 -64.1231 -64.1082
   -64.0482 -64.0400 -64.0163 -64.0115 -36.7294 -36.7196 -36.6885 -36.6428
   -36.6231 -36.5880 -36.5793 -36.4604 -36.4301 -36.3666 -36.3176 -36.2902
   -36.2763 -36.2303 -36.1930 -36.1475 -36.1197 -36.0862 -36.0570 -36.0465
   -36.0384 -36.0302 -36.0111 -35.9726 -35.9561 -35.9400 -35.9343 -35.9093
   -35.9017 -35.8934 -35.8834 -35.8766 -35.7994 -35.7585 -35.7358 -35.6568
    -9.9761  -4.3485  -3.0681  -2.5887  -1.9584  -1.7537  -1.6326  -1.6035
    -1.4590  -1.3337  -1.2714  -1.2185  -1.2056  -1.1254  -1.0587  -0.8066
    -0.4748  -0.4338  -0.2204  -0.0676   0.1503   0.3039   0.4229   0.6929
     0.8235   0.9014   0.9232   1.0627   1.1080   1.2352   1.3996   1.4729
     1.5563   1.6560   1.8111   1.8723   1.9300   1.9968   2.0625   2.2412
     2.3598   2.4486   2.5208   2.6358   2.6622   2.8127   2.9350   3.0971
     3.2336   3.2798   3.6034   3.8373   3.9000   3.9384   4.0428

          k = 0.0608 0.0000 0.0000 ( 16202 PWs)   bands (ev):

   -64.3748 -64.2737 -64.2651 -64.2500 -64.2303 -64.1734 -64.1176 -64.1109
   -64.0416 -64.0365 -64.0263 -64.0058 -36.7605 -36.7217 -36.6999 -36.6866
   -36.6548 -36.6089 -36.5919 -36.4837 -36.4390 -36.4176 -36.3131 -36.2797
   -36.2536 -36.2357 -36.1866 -36.1300 -36.1028 -36.0926 -36.0735 -36.0498
   -36.0268 -35.9969 -35.9831 -35.9598 -35.9506 -35.9382 -35.9246 -35.9135
   -35.9008 -35.8871 -35.8404 -35.8112 -35.8070 -35.7604 -35.7412 -35.6509
    -9.9798  -4.3990  -3.1699  -2.7168  -1.9514  -1.8895  -1.7857  -1.6168
    -1.5759  -1.5269  -1.4364  -1.3677  -1.2982  -1.2638  -1.0733  -0.9309
    -0.7092  -0.4990  -0.2730  -0.0307   0.2061   0.3336   0.5848   0.6704
     0.8329   0.8964   0.9352   1.0676   1.2173   1.3434   1.3802   1.4624
     1.5975   1.7320   1.7529   1.8093   1.8283   2.0099   2.2528   2.3785
     2.4079   2.5172   2.6127   2.9027   2.9641   3.0472   3.0667   3.1254
     3.2176   3.4867   3.6299   3.9742   4.0347   4.2087   4.2603

          k = 0.0608 0.0351 0.0000 ( 16149 PWs)   bands (ev):

   -64.3658 -64.2867 -64.2558 -64.2495 -64.2313 -64.1817 -64.1102 -64.1040
   -64.0479 -64.0443 -64.0207 -64.0083 -36.7287 -36.7128 -36.6881 -36.6351
   -36.6241 -36.6006 -36.5784 -36.4620 -36.4461 -36.3803 -36.3133 -36.2891
   -36.2708 -36.2352 -36.1645 -36.1515 -36.1181 -36.0821 -36.0643 -36.0527
   -36.0398 -36.0228 -36.0207 -35.9724 -35.9516 -35.9404 -35.9314 -35.9079
   -35.8980 -35.8909 -35.8728 -35.8661 -35.7974 -35.7629 -35.7574 -35.6596
    -9.9715  -4.4550  -3.0220  -2.5604  -1.9328  -1.7454  -1.6391  -1.5662
    -1.4393  -1.2930  -1.2716  -1.2367  -1.1781  -1.1495  -0.9836  -0.7778
    -0.6334  -0.4144  -0.1384   0.0121   0.1439   0.1843   0.4089   0.5968
     0.7964   0.8904   0.9510   1.0164   1.1476   1.3015   1.3669   1.4603
     1.5858   1.6150   1.7234   1.8695   1.9487   2.0195   2.0399   2.2455
     2.3617   2.4344   2.5564   2.6207   2.6590   2.8054   2.8887   3.0609
     3.2466   3.5061   3.5773   3.8405   3.9107   3.9382   4.0525

          k = 0.0608-0.1404 0.0000 ( 16203 PWs)   bands (ev):

   -64.3417 -64.3010 -64.2728 -64.2414 -64.2251 -64.1852 -64.1076 -64.0907
   -64.0573 -64.0471 -64.0351 -64.0021 -36.6759 -36.6380 -36.6176 -36.5917
   -36.5657 -36.5615 -36.5311 -36.4618 -36.3906 -36.3719 -36.3525 -36.3094
   -36.2699 -36.2364 -36.1912 -36.1492 -36.1276 -36.0926 -36.0830 -36.0661
   -36.0484 -36.0324 -36.0229 -36.0135 -35.9972 -35.9838 -35.9579 -35.9458
   -35.9184 -35.9013 -35.8604 -35.8503 -35.8425 -35.8003 -35.7614 -35.7031
    -9.9595  -4.4592  -2.7530  -2.1153  -1.7059  -1.4050  -1.3440  -1.2838
    -1.2154  -1.0891  -0.9664  -0.9031  -0.8727  -0.7424  -0.6525  -0.5392
    -0.4416  -0.3510  -0.1478  -0.0709   0.1344   0.1541   0.2442   0.4681
     0.5249   0.6433   0.7200   0.8929   1.0667   1.1459   1.2038   1.2849
     1.3808   1.4490   1.4830   1.5538   1.6622   1.8108   1.9046   2.0034
     2.1183   2.2144   2.3095   2.5070   2.6771   2.7968   2.8999   2.9484
     3.0877   3.1840   3.2720   3.4902   3.5677   3.7683   3.8582

          k = 0.0608-0.1053 0.0000 ( 16272 PWs)   bands (ev):

   -64.3156 -64.3059 -64.2996 -64.2375 -64.2222 -64.1783 -64.1183 -64.0731
   -64.0589 -64.0553 -64.0441 -63.9986 -36.6156 -36.5788 -36.5728 -36.5664
   -36.5618 -36.5187 -36.4969 -36.4730 -36.4683 -36.3894 -36.3103 -36.2723
   -36.2457 -36.2246 -36.2189 -36.1793 -36.1585 -36.1561 -36.1123 -36.0745
   -36.0394 -36.0270 -36.0254 -36.0127 -36.0062 -36.0025 -35.9821 -35.9454
   -35.9170 -35.9035 -35.8706 -35.8546 -35.8367 -35.7803 -35.7782 -35.7650
    -9.9559  -4.4115  -2.6132  -1.6622  -1.5402  -1.5392  -1.0521  -0.9630
    -0.9367  -0.9065  -0.8471  -0.7892  -0.5744  -0.5490  -0.5283  -0.5163
    -0.4518  -0.4303  -0.2647   0.0651   0.0732   0.3649   0.3768   0.4620
     0.4883   0.5172   0.6056   0.6537   0.7238   0.7612   0.7901   0.8577
     1.0589   1.1343   1.4278   1.4591   1.6365   1.8127   1.8235   1.9113
     1.9640   1.9765   2.1766   2.5755   2.6660   2.9080   2.9371   2.9903
     3.0963   3.1819   3.4544   3.4629   3.5537   3.6098   4.3468

          k = 0.0608-0.0702 0.0000 ( 16203 PWs)   bands (ev):

   -64.3419 -64.3029 -64.2718 -64.2421 -64.2276 -64.1681 -64.1262 -64.0899
   -64.0592 -64.0420 -64.0326 -64.0028 -36.6835 -36.6433 -36.6156 -36.5989
   -36.5703 -36.5442 -36.5263 -36.4500 -36.4058 -36.3517 -36.3436 -36.3029
   -36.2761 -36.2273 -36.1970 -36.1494 -36.1365 -36.1172 -36.0875 -36.0686
   -36.0466 -36.0319 -36.0271 -36.0134 -35.9939 -35.9801 -35.9574 -35.9485
   -35.9198 -35.9049 -35.8779 -35.8483 -35.8445 -35.7754 -35.7580 -35.7000
    -9.9642  -4.3569  -2.7901  -2.1733  -1.7530  -1.4745  -1.3358  -1.3191
    -1.1884  -1.1123  -1.0189  -0.8818  -0.8607  -0.8390  -0.5923  -0.5166
    -0.4657  -0.2151  -0.1419  -0.0915   0.1238   0.1846   0.3162   0.4841
     0.5520   0.5986   0.7399   0.8580   1.0724   1.1861   1.2144   1.2705
     1.3915   1.4504   1.4982   1.5448   1.6944   1.8285   1.9488   1.9934
     2.0864   2.2180   2.2415   2.5325   2.6825   2.7925   2.8938   2.9692
     3.0783   3.1647   3.2690   3.3782   3.5657   3.7718   3.8342

          k =-0.0912 0.0526 0.0000 ( 16164 PWs)   bands (ev):

   -64.3319 -64.3228 -64.2539 -64.2425 -64.2358 -64.1637 -64.1308 -64.0829
   -64.0734 -64.0408 -64.0170 -64.0115 -36.6747 -36.6606 -36.6460 -36.5945
   -36.5900 -36.5456 -36.4410 -36.4198 -36.4135 -36.3747 -36.3552 -36.3503
   -36.2506 -36.1915 -36.1758 -36.1396 -36.1232 -36.1191 -36.0906 -36.0769
   -36.0573 -36.0353 -36.0302 -36.0145 -35.9973 -35.9898 -35.9860 -35.9781
   -35.9153 -35.9063 -35.8806 -35.8697 -35.8599 -35.7575 -35.7121 -35.6999
    -9.9653  -4.3380  -2.8120  -2.0951  -2.0023  -1.4569  -1.3383  -1.3040
    -1.2862  -1.1434  -1.0330  -0.9423  -0.8282  -0.6291  -0.5777  -0.4541
    -0.4139  -0.2890  -0.2645  -0.0272   0.2135   0.2627   0.3765   0.4125
     0.4415   0.6373   0.8456   0.9573   1.2553   1.3127   1.3732   1.4451
     1.4661   1.5411   1.5647   1.6559   1.6706   1.6964   1.7745   1.8534
     2.0033   2.0401   2.3183   2.7022   2.7547   2.7662   2.7807   2.7934
     3.1090   3.2513   3.2772   3.3873   3.4688   3.5727   3.5970

          k =-0.0912 0.0877 0.0000 ( 16203 PWs)   bands (ev):

   -64.3419 -64.3024 -64.2718 -64.2430 -64.2267 -64.1701 -64.1241 -64.0901
   -64.0586 -64.0424 -64.0332 -64.0026 -36.6750 -36.6557 -36.6108 -36.5991
   -36.5703 -36.5450 -36.5273 -36.4518 -36.3964 -36.3570 -36.3451 -36.2980
   -36.2816 -36.2429 -36.1935 -36.1523 -36.1303 -36.1031 -36.0838 -36.0721
   -36.0478 -36.0318 -36.0267 -36.0103 -35.9947 -35.9804 -35.9580 -35.9483
   -35.9199 -35.9072 -35.8787 -35.8501 -35.8445 -35.7757 -35.7574 -35.7008
    -9.9637  -4.3724  -2.7898  -2.1521  -1.7431  -1.4622  -1.3374  -1.3263
    -1.1876  -1.1161  -1.0082  -0.8792  -0.8661  -0.8151  -0.5823  -0.5241
    -0.4811  -0.2412  -0.1330  -0.0944   0.1178   0.1710   0.3043   0.4749
     0.5345   0.6165   0.7557   0.8647   1.0687   1.1953   1.2270   1.2666
     1.4064   1.4470   1.4721   1.5521   1.6603   1.8314   1.9177   1.9989
     2.0894   2.2204   2.2765   2.5248   2.6828   2.7886   2.8887   2.9857
     3.0715   3.1452   3.2772   3.4409   3.5666   3.7786   3.8375

          k =-0.0912 0.1228 0.0000 ( 16203 PWs)   bands (ev):

   -64.3419 -64.3006 -64.2737 -64.2413 -64.2254 -64.1818 -64.1116 -64.0905
   -64.0575 -64.0456 -64.0349 -64.0022 -36.6765 -36.6426 -36.6123 -36.5923
   -36.5658 -36.5613 -36.5312 -36.4595 -36.3942 -36.3746 -36.3507 -36.3079
   -36.2706 -36.2159 -36.1970 -36.1483 -36.1208 -36.1051 -36.0882 -36.0782
   -36.0424 -36.0335 -36.0246 -36.0149 -35.9985 -35.9804 -35.9576 -35.9468
   -35.9171 -35.9022 -35.8598 -35.8498 -35.8416 -35.7969 -35.7621 -35.7021
    -9.9605  -4.4408  -2.7563  -2.1285  -1.7131  -1.4231  -1.3409  -1.2712
    -1.2249  -1.0777  -0.9687  -0.9179  -0.8735  -0.8107  -0.6254  -0.5309
    -0.4273  -0.3168  -0.1480  -0.0706   0.1362   0.1794   0.2481   0.4724
     0.5307   0.6389   0.7044   0.8811   1.0707   1.1415   1.2005   1.2842
     1.3780   1.4465   1.5041   1.5457   1.6852   1.8013   1.9175   2.0053
     2.1216   2.2151   2.2851   2.5093   2.6776   2.7964   2.9011   2.9449
     3.0853   3.2090   3.2706   3.4167   3.5662   3.7719   3.8512

          k =-0.0912-0.0526 0.0000 ( 16164 PWs)   bands (ev):

   -64.3326 -64.3202 -64.2504 -64.2497 -64.2279 -64.1878 -64.1050 -64.0852
   -64.0706 -64.0481 -64.0212 -64.0084 -36.6745 -36.6543 -36.6205 -36.6065
   -36.5781 -36.5680 -36.4729 -36.4186 -36.4080 -36.3943 -36.3619 -36.3481
   -36.2482 -36.1854 -36.1425 -36.1355 -36.1215 -36.1167 -36.0965 -36.0620
   -36.0607 -36.0491 -36.0234 -36.0123 -35.9999 -35.9901 -35.9869 -35.9807
   -35.9170 -35.9040 -35.8685 -35.8669 -35.8332 -35.7971 -35.7173 -35.7017
    -9.9590  -4.4747  -2.7455  -2.0356  -1.9706  -1.3702  -1.3407  -1.3074
    -1.2570  -1.0789  -0.9927  -0.9103  -0.8323  -0.6658  -0.6291  -0.4644
    -0.3989  -0.3259  -0.2508  -0.1006   0.2143   0.2294   0.3758   0.3857
     0.4605   0.5514   0.8350   0.9642   1.2342   1.2716   1.4040   1.4446
     1.4515   1.5267   1.5433   1.6451   1.6559   1.7756   1.7904   1.8416
     1.9401   2.0260   2.4125   2.7069   2.7578   2.7675   2.7947   2.8199
     2.9022   3.2323   3.3114   3.4470   3.5197   3.5878   3.6530

     the Fermi energy is     2.8791 ev

!    total energy              =   -2117.36036333 Ry
     Harris-Foulkes estimate   =   -2117.36037488 Ry
     estimated scf accuracy    <       0.00000846 Ry

     The total energy is the sum of the following terms:

     one-electron contribution =  -19123.16060972 Ry
     hartree contribution      =    9564.86144332 Ry
     xc contribution           =    -402.31705855 Ry
     ewald contribution        =    7843.34579093 Ry
     electric field correction =       0.00011911 Ry
     smearing contrib. (-TS)   =      -0.09004841 Ry

     convergence has been achieved in  25 iterations
 
 BEEF-vdW xc energy contributions
           1 :   -352.365616667494     
           2 :    323.946524557387     
           3 :   -273.432336310654     
           4 :    210.978479125984     
           5 :   -147.389069840191     
           6 :    91.1633507791175     
           7 :   -46.8496928597993     
           8 :    14.9174766519433     
           9 :    6.99742560191032     
          10 :   -22.2347565214254     
          11 :    33.4085293086908     
          12 :   -41.5285496486086     
          13 :    46.0754736371456     
          14 :   -45.8281469387616     
          15 :    39.9280774273540     
          16 :   -28.7003453716131     
          17 :    13.8829543837065     
          18 :    1.77267961255899     
          19 :   -15.3312204461444     
          20 :    24.5465952174656     
          21 :   -28.4359404615486     
          22 :    27.3458272016815     
          23 :   -22.5591729996933     
          24 :    15.6654718162519     
          25 :   -8.00204286041571     
          26 :   0.382700472710894     
          27 :    6.82864346224972     
          28 :   -13.4272533309814     
          29 :    19.0668244794592     
          30 :   -23.1362570963469     
          31 :   -33.6827738646541     
          32 :   -24.7379534880175     

     Forces acting on atoms (Ry/au):


     negative rho (up, down):  1.590E+00 0.000E+00
     atom    1 type  1   force =    -0.00044671    0.00004343    0.02921361
     atom    2 type  1   force =    -0.00012579   -0.00478349    0.02935891
     atom    3 type  1   force =    -0.00448435    0.00241665    0.03156068
     atom    4 type  1   force =     0.00388104    0.00226330    0.02735003
     atom    5 type  1   force =    -0.00260235    0.00244547    0.00428934
     atom    6 type  1   force =     0.00334172    0.00093210   -0.00085474
     atom    7 type  1   force =     0.00159313   -0.00002766   -0.05674644
     atom    8 type  1   force =     0.00175324   -0.00354968    0.00192385
     atom    9 type  1   force =    -0.01059144   -0.00507726   -0.01917652
     atom   10 type  1   force =     0.00664524   -0.00507212   -0.00429269
     atom   11 type  1   force =    -0.00192669    0.00972325   -0.01240011
     atom   12 type  1   force =    -0.00010791    0.00053256   -0.05259313
     atom   13 type  2   force =     0.02235214    0.00157319   -0.01557480
     atom   14 type  3   force =    -0.00241443    0.00657099    0.01908927
     atom   15 type  3   force =    -0.01686684   -0.00799072    0.01885272

     Total force =     0.073988     Total SCF correction =     0.008174
     SCF correction compared to forces is large: reduce conv_thr to get better values


     entering subroutine stress ...


     negative rho (up, down):  1.590E+00 0.000E+00
          total   stress  (Ry/bohr**3)                   (kbar)     P=  -27.88
  -0.00019800  -0.00000219  -0.00000512        -29.13     -0.32     -0.75
  -0.00000219  -0.00019742  -0.00000012         -0.32    -29.04     -0.02
  -0.00000512  -0.00000012  -0.00017324         -0.75     -0.02    -25.48


     BFGS Geometry Optimization

     number of scf cycles    =   1
     number of bfgs steps    =   0

     energy   new            =   -2117.3603633252 Ry

     new trust radius        =       0.0525959376 bohr
     new conv_thr            =       0.0000099958 Ry


ATOMIC_POSITIONS (crystal)
Tc1      0.166666667   0.166666667   0.408540475    0   0   0
Tc1      0.666666667   0.166666667   0.408540475    0   0   0
Tc1      0.166666667   0.666666667   0.408540475    0   0   0
Tc1      0.666666667   0.666666667   0.408540475    0   0   0
Tc1      0.833333333   0.333333333   0.500000000    0   0   0
Tc1      0.333333333   0.333333333   0.500000000    0   0   0
Tc1      0.833333333   0.833333333   0.500000000    0   0   0
Tc1      0.333333333   0.833333333   0.500000000    0   0   0
Tc1     -0.000739206  -0.000565758   0.591044948
Tc1      0.500923865  -0.000565185   0.591366722
Tc1     -0.000727657   0.501083459   0.591191447
Tc1      0.499959915   0.500059343   0.590322513
C1       0.168736020   0.166841967   0.650340755
H1       0.214624551   0.300059006   0.676828209
H1       0.116927222   0.033116127   0.676823095



     Writing output data file calc.save
     Check: negative starting charge=   -1.504671
     NEW-OLD atomic charge density approx. for the potential

     Check: negative/imaginary core charge=   -0.000022    0.000000
     Check: negative starting charge=   -1.508167

     negative rho (up, down):  1.593E+00 0.000E+00
 
     Adding external electric field

     Computed dipole along edir(3) : 
        Dipole                0.1135 Ry au,          0.2884 Debye
        Dipole field          0.0003 Ry au
 
        Potential amp.       -0.0299 Ry
        Total length         45.0992 bohr
 

     total cpu time spent up to now is      371.1 secs

     Self-consistent Calculation

     iteration #  1     ecut=    36.75 Ry     beta=0.30
     Davidson diagonalization with overlap
     ethr =  1.00E-06,  avg # of iterations = 11.6

     negative rho (up, down):  1.593E+00 0.000E+00
 
     Adding external electric field

     Computed dipole along edir(3) : 
        Dipole                1.9779 Ry au,          5.0273 Debye
        Dipole field          0.0058 Ry au
 
        Potential amp.       -0.5212 Ry
        Total length         45.0992 bohr
 

     total cpu time spent up to now is      392.8 secs

     total energy              =   -2117.12575126 Ry
     Harris-Foulkes estimate   =   -2117.36090686 Ry
     estimated scf accuracy    <       0.48781129 Ry

     iteration #  2     ecut=    36.75 Ry     beta=0.30
     Davidson diagonalization with overlap
     ethr =  2.62E-04,  avg # of iterations = 10.4

     negative rho (up, down):  1.592E+00 0.000E+00
 
     Adding external electric field

     Computed dipole along edir(3) : 
        Dipole                0.1220 Ry au,          0.3102 Debye
        Dipole field          0.0004 Ry au
 
        Potential amp.       -0.0322 Ry
        Total length         45.0992 bohr
 

     total cpu time spent up to now is      413.2 secs

     total energy              =   -2114.20948882 Ry
     Harris-Foulkes estimate   =   -2120.66195277 Ry
     estimated scf accuracy    <     278.72165259 Ry

     iteration #  3     ecut=    36.75 Ry     beta=0.30
     Davidson diagonalization with overlap
     ethr =  2.62E-04,  avg # of iterations =  6.2

     negative rho (up, down):  1.592E+00 0.000E+00
 
     Adding external electric field

     Computed dipole along edir(3) : 
        Dipole                0.1381 Ry au,          0.3509 Debye
        Dipole field          0.0004 Ry au
 
        Potential amp.       -0.0364 Ry
        Total length         45.0992 bohr
 

     total cpu time spent up to now is      428.4 secs

     total energy              =   -2117.32972056 Ry
     Harris-Foulkes estimate   =   -2117.40069732 Ry
     estimated scf accuracy    <       0.84385348 Ry

     iteration #  4     ecut=    36.75 Ry     beta=0.30
     Davidson diagonalization with overlap
     ethr =  2.62E-04,  avg # of iterations =  3.5

     negative rho (up, down):  1.593E+00 0.000E+00
 
     Adding external electric field

     Computed dipole along edir(3) : 
        Dipole                0.1505 Ry au,          0.3826 Debye
        Dipole field          0.0004 Ry au
 
        Potential amp.       -0.0397 Ry
        Total length         45.0992 bohr
 

     total cpu time spent up to now is      437.8 secs

     total energy              =   -2117.35891536 Ry
     Harris-Foulkes estimate   =   -2117.36004965 Ry
     estimated scf accuracy    <       0.01613180 Ry

     iteration #  5     ecut=    36.75 Ry     beta=0.30
     Davidson diagonalization with overlap
     ethr =  8.67E-06,  avg # of iterations =  6.2

     negative rho (up, down):  1.593E+00 0.000E+00
 
     Adding external electric field

     Computed dipole along edir(3) : 
        Dipole                0.1604 Ry au,          0.4076 Debye
        Dipole field          0.0005 Ry au
 
        Potential amp.       -0.0423 Ry
        Total length         45.0992 bohr
 

     total cpu time spent up to now is      452.1 secs

     total energy              =   -2117.36479042 Ry
     Harris-Foulkes estimate   =   -2117.36518834 Ry
     estimated scf accuracy    <       0.00588301 Ry

     iteration #  6     ecut=    36.75 Ry     beta=0.30
     Davidson diagonalization with overlap
     ethr =  3.16E-06,  avg # of iterations =  1.1

     negative rho (up, down):  1.593E+00 0.000E+00
 
     Adding external electric field

     Computed dipole along edir(3) : 
        Dipole                0.1699 Ry au,          0.4319 Debye
        Dipole field          0.0005 Ry au
 
        Potential amp.       -0.0448 Ry
        Total length         45.0992 bohr
 

     total cpu time spent up to now is      460.5 secs

     total energy              =   -2117.36466850 Ry
     Harris-Foulkes estimate   =   -2117.36492454 Ry
     estimated scf accuracy    <       0.00321858 Ry

     iteration #  7     ecut=    36.75 Ry     beta=0.30
     Davidson diagonalization with overlap
     ethr =  1.73E-06,  avg # of iterations =  3.4

     negative rho (up, down):  1.593E+00 0.000E+00
 
     Adding external electric field

     Computed dipole along edir(3) : 
        Dipole                0.1761 Ry au,          0.4477 Debye
        Dipole field          0.0005 Ry au
 
        Potential amp.       -0.0464 Ry
        Total length         45.0992 bohr
 

     total cpu time spent up to now is      469.7 secs

     total energy              =   -2117.36476861 Ry
     Harris-Foulkes estimate   =   -2117.36480359 Ry
     estimated scf accuracy    <       0.00033484 Ry

     iteration #  8     ecut=    36.75 Ry     beta=0.30
     Davidson diagonalization with overlap
     ethr =  1.80E-07,  avg # of iterations =  4.9

     negative rho (up, down):  1.593E+00 0.000E+00
 
     Adding external electric field

     Computed dipole along edir(3) : 
        Dipole                0.1963 Ry au,          0.4990 Debye
        Dipole field          0.0006 Ry au
 
        Potential amp.       -0.0517 Ry
        Total length         45.0992 bohr
 

     total cpu time spent up to now is      482.0 secs

     total energy              =   -2117.36481509 Ry
     Harris-Foulkes estimate   =   -2117.36482193 Ry
     estimated scf accuracy    <       0.00035354 Ry

     iteration #  9     ecut=    36.75 Ry     beta=0.30
     Davidson diagonalization with overlap
     ethr =  1.80E-07,  avg # of iterations =  3.7

     negative rho (up, down):  1.593E+00 0.000E+00
 
     Adding external electric field

     Computed dipole along edir(3) : 
        Dipole                0.1999 Ry au,          0.5082 Debye
        Dipole field          0.0006 Ry au
 
        Potential amp.       -0.0527 Ry
        Total length         45.0992 bohr
 

     total cpu time spent up to now is      491.8 secs

     total energy              =   -2117.36481816 Ry
     Harris-Foulkes estimate   =   -2117.36484499 Ry
     estimated scf accuracy    <       0.00069053 Ry

     iteration # 10     ecut=    36.75 Ry     beta=0.30
     Davidson diagonalization with overlap
     ethr =  1.80E-07,  avg # of iterations =  1.0

     negative rho (up, down):  1.593E+00 0.000E+00
 
     Adding external electric field

     Computed dipole along edir(3) : 
        Dipole                0.2013 Ry au,          0.5116 Debye
        Dipole field          0.0006 Ry au
 
        Potential amp.       -0.0530 Ry
        Total length         45.0992 bohr
 

     total cpu time spent up to now is      500.3 secs

     total energy              =   -2117.36480735 Ry
     Harris-Foulkes estimate   =   -2117.36482546 Ry
     estimated scf accuracy    <       0.00034596 Ry

     iteration # 11     ecut=    36.75 Ry     beta=0.30
     Davidson diagonalization with overlap
     ethr =  1.80E-07,  avg # of iterations =  1.8

     negative rho (up, down):  1.593E+00 0.000E+00
 
     Adding external electric field

     Computed dipole along edir(3) : 
        Dipole                0.2054 Ry au,          0.5220 Debye
        Dipole field          0.0006 Ry au
 
        Potential amp.       -0.0541 Ry
        Total length         45.0992 bohr
 

     total cpu time spent up to now is      508.9 secs

     total energy              =   -2117.36480823 Ry
     Harris-Foulkes estimate   =   -2117.36480952 Ry
     estimated scf accuracy    <       0.00009226 Ry

     iteration # 12     ecut=    36.75 Ry     beta=0.30
     Davidson diagonalization with overlap
     ethr =  4.96E-08,  avg # of iterations =  4.6

     negative rho (up, down):  1.593E+00 0.000E+00
 
     Adding external electric field

     Computed dipole along edir(3) : 
        Dipole                0.2078 Ry au,          0.5281 Debye
        Dipole field          0.0006 Ry au
 
        Potential amp.       -0.0548 Ry
        Total length         45.0992 bohr
 

     total cpu time spent up to now is      519.3 secs

     total energy              =   -2117.36481307 Ry
     Harris-Foulkes estimate   =   -2117.36481172 Ry
     estimated scf accuracy    <       0.00001434 Ry

     iteration # 13     ecut=    36.75 Ry     beta=0.30
     Davidson diagonalization with overlap
     ethr =  7.71E-09,  avg # of iterations =  4.2

     negative rho (up, down):  1.593E+00 0.000E+00
 
     Adding external electric field

     Computed dipole along edir(3) : 
        Dipole                0.2094 Ry au,          0.5321 Debye
        Dipole field          0.0006 Ry au
 
        Potential amp.       -0.0552 Ry
        Total length         45.0992 bohr
 

     total cpu time spent up to now is      529.9 secs

     total energy              =   -2117.36481346 Ry
     Harris-Foulkes estimate   =   -2117.36481290 Ry
     estimated scf accuracy    <       0.00001103 Ry

     iteration # 14     ecut=    36.75 Ry     beta=0.30
     Davidson diagonalization with overlap
     ethr =  5.93E-09,  avg # of iterations =  1.6

     negative rho (up, down):  1.593E+00 0.000E+00

     negative rho (up, down):  1.593E+00 0.000E+00

     negative rho (up, down):  1.593E+00 0.000E+00

     negative rho (up, down):  1.593E+00 0.000E+00

     negative rho (up, down):  1.593E+00 0.000E+00

     negative rho (up, down):  1.593E+00 0.000E+00

     negative rho (up, down):  1.593E+00 0.000E+00

     negative rho (up, down):  1.593E+00 0.000E+00

     negative rho (up, down):  1.593E+00 0.000E+00

     negative rho (up, down):  1.593E+00 0.000E+00

     negative rho (up, down):  1.593E+00 0.000E+00

     negative rho (up, down):  1.593E+00 0.000E+00

     negative rho (up, down):  1.593E+00 0.000E+00

     negative rho (up, down):  1.593E+00 0.000E+00

     negative rho (up, down):  1.593E+00 0.000E+00

     negative rho (up, down):  1.593E+00 0.000E+00

     negative rho (up, down):  1.593E+00 0.000E+00

     negative rho (up, down):  1.593E+00 0.000E+00

     negative rho (up, down):  1.593E+00 0.000E+00

     negative rho (up, down):  1.593E+00 0.000E+00

     negative rho (up, down):  1.593E+00 0.000E+00

     negative rho (up, down):  1.593E+00 0.000E+00

     negative rho (up, down):  1.593E+00 0.000E+00

     negative rho (up, down):  1.593E+00 0.000E+00

     negative rho (up, down):  1.593E+00 0.000E+00

     negative rho (up, down):  1.593E+00 0.000E+00

     negative rho (up, down):  1.593E+00 0.000E+00

     negative rho (up, down):  1.593E+00 0.000E+00

     negative rho (up, down):  1.593E+00 0.000E+00

     negative rho (up, down):  1.593E+00 0.000E+00

     negative rho (up, down):  1.593E+00 0.000E+00

     negative rho (up, down):  1.593E+00 0.000E+00

     negative rho (up, down):  1.593E+00 0.000E+00

     negative rho (up, down):  1.593E+00 0.000E+00

     negative rho (up, down):  1.593E+00 0.000E+00
 
     Adding external electric field

     Computed dipole along edir(3) : 
        Dipole                0.2130 Ry au,          0.5415 Debye
        Dipole field          0.0006 Ry au
 
        Potential amp.       -0.0561 Ry
        Total length         45.0992 bohr
 

     total cpu time spent up to now is      565.7 secs

     End of self-consistent calculation

          k = 0.0000 0.0000 0.0000 ( 16073 PWs)   bands (ev):

   -64.4064 -64.2678 -64.2509 -64.2474 -64.2356 -64.1652 -64.1398 -64.1020
   -64.0392 -64.0264 -64.0127 -64.0082 -36.8499 -36.8410 -36.8317 -36.7868
   -36.7256 -36.6919 -36.6742 -36.5486 -36.5454 -36.5372 -36.2740 -36.2247
   -36.1922 -36.1767 -36.1344 -36.1142 -36.1124 -36.1054 -36.0972 -36.0745
   -35.9659 -35.9501 -35.9350 -35.9303 -35.9183 -35.9101 -35.8731 -35.8715
   -35.8675 -35.8088 -35.8066 -35.8042 -35.7101 -35.6975 -35.6108 -35.6077
    -9.9065  -4.2479  -3.7390  -3.2239  -2.4362  -2.3418  -2.3100  -2.2196
    -2.1327  -1.9877  -1.8789  -1.8158  -1.7369  -1.7164  -1.4720  -1.4705
    -1.3343  -0.6158  -0.5290  -0.0935   0.4317   0.6097   0.6224   0.7792
     0.8836   1.0906   1.1776   1.1845   1.4356   1.4681   1.4996   1.5593
     1.5743   1.6858   1.7221   1.7971   2.1829   2.2002   2.4199   2.9117
     3.1541   3.1950   3.2139   3.4033   3.5516   3.5711   3.7105   3.9218
     4.0184   4.0958   4.2558   4.7245   4.7842   4.8921   4.9278

          k = 0.0000 0.0351 0.0000 ( 16137 PWs)   bands (ev):

   -64.3962 -64.2661 -64.2566 -64.2467 -64.2376 -64.1670 -64.1319 -64.1032
   -64.0415 -64.0304 -64.0151 -64.0100 -36.8143 -36.8063 -36.7818 -36.7553
   -36.7030 -36.6610 -36.6442 -36.5199 -36.5113 -36.4902 -36.2842 -36.2449
   -36.2067 -36.1998 -36.1662 -36.1474 -36.1092 -36.0942 -36.0721 -36.0470
   -35.9876 -35.9742 -35.9472 -35.9296 -35.9226 -35.9177 -35.9054 -35.8844
   -35.8818 -35.8391 -35.8363 -35.7937 -35.7537 -35.7175 -35.6666 -35.6226
    -9.8939  -4.2592  -3.5213  -3.0496  -2.2727  -2.1743  -2.1195  -1.9898
    -1.9135  -1.8323  -1.7284  -1.6729  -1.5995  -1.5739  -1.3409  -1.2438
    -1.1204  -0.5708  -0.4392  -0.0637   0.3338   0.6898   0.7124   0.7354
     0.8099   0.9433   1.0024   1.2570   1.3751   1.3909   1.4277   1.5634
     1.6262   1.6464   1.7547   1.9285   1.9942   2.0464   2.2537   2.5427
     2.8104   2.9262   3.1782   3.1952   3.2700   3.4097   3.5033   3.6202
     3.8454   4.0394   4.1436   4.2205   4.5239   4.5392   4.5995

          k = 0.0000 0.0702 0.0000 ( 16149 PWs)   bands (ev):

   -64.3679 -64.2896 -64.2543 -64.2441 -64.2353 -64.1726 -64.1112 -64.1048
   -64.0495 -64.0452 -64.0184 -64.0106 -36.7342 -36.7250 -36.6877 -36.6472
   -36.6289 -36.5962 -36.5853 -36.4604 -36.4362 -36.3660 -36.3162 -36.3005
   -36.2689 -36.2380 -36.1755 -36.1507 -36.1174 -36.0795 -36.0567 -36.0500
   -36.0419 -36.0260 -36.0179 -35.9708 -35.9533 -35.9406 -35.9325 -35.9073
   -35.8961 -35.8923 -35.8758 -35.8656 -35.7964 -35.7608 -35.7479 -35.6589
    -9.8687  -4.2759  -3.0380  -2.5752  -1.9564  -1.7598  -1.6493  -1.5878
    -1.4602  -1.3287  -1.2747  -1.2467  -1.2061  -1.1463  -1.0268  -0.8022
    -0.5434  -0.4264  -0.1588  -0.0655   0.1414   0.2511   0.4114   0.6376
     0.7965   0.8945   0.9330   1.0259   1.1308   1.2630   1.3916   1.4704
     1.5618   1.6433   1.7363   1.8477   1.9311   1.9973   2.0540   2.2495
     2.3629   2.4418   2.5407   2.6304   2.6602   2.8033   2.9223   3.0587
     3.2444   3.4072   3.6013   3.8594   3.9056   3.9375   4.0475

          k = 0.0000-0.1053 0.0000 ( 16164 PWs)   bands (ev):

   -64.3312 -64.3265 -64.2529 -64.2432 -64.2298 -64.1771 -64.1080 -64.0849
   -64.0733 -64.0478 -64.0191 -64.0107 -36.6784 -36.6677 -36.6376 -36.6040
   -36.5906 -36.5602 -36.4498 -36.4287 -36.4169 -36.3792 -36.3621 -36.3531
   -36.2390 -36.2058 -36.1461 -36.1347 -36.1243 -36.1050 -36.1022 -36.0632
   -36.0559 -36.0507 -36.0215 -36.0124 -35.9973 -35.9944 -35.9862 -35.9817
   -35.9112 -35.9074 -35.8707 -35.8585 -35.8478 -35.7765 -35.7149 -35.7019
    -9.8563  -4.2838  -2.7655  -2.0581  -1.9977  -1.4137  -1.3553  -1.3212
    -1.2825  -1.1225  -1.0411  -0.9472  -0.8340  -0.6457  -0.6104  -0.4621
    -0.4173  -0.3151  -0.2666  -0.0488   0.2025   0.2207   0.3749   0.3875
     0.4424   0.5843   0.8504   0.9634   1.2437   1.2594   1.3779   1.4478
     1.4663   1.5282   1.5530   1.6557   1.6586   1.7427   1.7782   1.8621
     1.9506   2.0080   2.3771   2.7155   2.7526   2.7666   2.7807   2.8079
     2.9928   3.2544   3.3054   3.4345   3.5002   3.5866   3.6380

          k = 0.0304-0.0175 0.0000 ( 16137 PWs)   bands (ev):

   -64.3962 -64.2680 -64.2541 -64.2477 -64.2377 -64.1643 -64.1320 -64.1068
   -64.0401 -64.0308 -64.0134 -64.0114 -36.8143 -36.8070 -36.7814 -36.7557
   -36.7040 -36.6578 -36.6460 -36.5207 -36.5073 -36.4921 -36.2828 -36.2330
   -36.2205 -36.2001 -36.1725 -36.1440 -36.1033 -36.0912 -36.0801 -36.0450
   -35.9886 -35.9637 -35.9496 -35.9334 -35.9241 -35.9182 -35.9113 -35.8818
   -35.8807 -35.8404 -35.8367 -35.7926 -35.7612 -35.7088 -35.6680 -35.6212
    -9.8949  -4.2342  -3.5308  -3.0523  -2.2889  -2.1630  -2.1084  -1.9905
    -1.9226  -1.8556  -1.7211  -1.6516  -1.6151  -1.5693  -1.3665  -1.2424
    -1.0951  -0.5900  -0.4370  -0.0891   0.3447   0.6941   0.7158   0.7366
     0.7915   0.9567   1.0197   1.3038   1.3680   1.3950   1.4150   1.5846
     1.6301   1.6418   1.7078   1.9223   2.0081   2.0557   2.2456   2.5603
     2.8091   2.9397   3.1716   3.1947   3.3220   3.4171   3.4578   3.5798
     3.8431   4.0436   4.1097   4.2228   4.5221   4.5377   4.5935

          k = 0.0304 0.0175 0.0000 ( 16137 PWs)   bands (ev):

   -64.3962 -64.2648 -64.2562 -64.2499 -64.2359 -64.1681 -64.1319 -64.1018
   -64.0420 -64.0293 -64.0178 -64.0083 -36.8152 -36.7992 -36.7909 -36.7515
   -36.7023 -36.6647 -36.6420 -36.5180 -36.5154 -36.4894 -36.2904 -36.2387
   -36.2061 -36.2003 -36.1589 -36.1506 -36.1124 -36.0970 -36.0679 -36.0481
   -35.9893 -35.9750 -35.9499 -35.9278 -35.9206 -35.9143 -35.9031 -35.8866
   -35.8830 -35.8384 -35.8352 -35.7949 -35.7514 -35.7214 -35.6654 -35.6239
    -9.8935  -4.2760  -3.5144  -3.0481  -2.2478  -2.2023  -2.1195  -1.9906
    -1.9122  -1.8015  -1.7382  -1.6886  -1.5878  -1.5794  -1.3134  -1.2429
    -1.1490  -0.5547  -0.4410  -0.0380   0.3220   0.6842   0.7016   0.7355
     0.8482   0.9027   0.9911   1.2320   1.3782   1.3837   1.4416   1.5486
     1.6199   1.6441   1.7931   1.9401   1.9875   2.0296   2.2631   2.5265
     2.8253   2.9028   3.1789   3.1943   3.2407   3.4077   3.5126   3.6632
     3.8431   4.0420   4.1810   4.2177   4.5257   4.5407   4.6080

          k = 0.0304 0.0526 0.0000 ( 16202 PWs)   bands (ev):

   -64.3769 -64.2731 -64.2650 -64.2474 -64.2316 -64.1739 -64.1172 -64.1013
   -64.0465 -64.0370 -64.0278 -64.0059 -36.7657 -36.7250 -36.7066 -36.6912
   -36.6583 -36.6147 -36.5969 -36.4837 -36.4411 -36.4144 -36.3121 -36.2787
   -36.2581 -36.2349 -36.1885 -36.1222 -36.1096 -36.0936 -36.0719 -36.0492
   -36.0269 -35.9976 -35.9770 -35.9539 -35.9493 -35.9367 -35.9235 -35.9091
   -35.8968 -35.8877 -35.8356 -35.8116 -35.8079 -35.7590 -35.7475 -35.6529
    -9.8739  -4.3041  -3.1577  -2.7111  -1.9379  -1.8938  -1.8360  -1.6098
    -1.5650  -1.5239  -1.4667  -1.3731  -1.3139  -1.2646  -1.0418  -0.8863
    -0.7897  -0.4901  -0.2212   0.0039   0.1194   0.3217   0.5733   0.6273
     0.8207   0.8924   0.9112   1.0707   1.2927   1.3319   1.3674   1.4479
     1.5631   1.7168   1.7399   1.7912   1.8093   1.9989   2.2460   2.3753
     2.4335   2.5081   2.6074   2.9056   2.9523   3.0561   3.0671   3.1357
     3.2187   3.5613   3.6166   4.0039   4.0247   4.2443   4.2711

          k = 0.0304-0.1228 0.0000 ( 16203 PWs)   bands (ev):

   -64.3433 -64.3040 -64.2735 -64.2356 -64.2271 -64.1774 -64.1075 -64.0915
   -64.0591 -64.0480 -64.0345 -64.0029 -36.6800 -36.6557 -36.6155 -36.6027
   -36.5746 -36.5574 -36.5327 -36.4593 -36.3898 -36.3627 -36.3511 -36.3019
   -36.2772 -36.2479 -36.1919 -36.1496 -36.1274 -36.0879 -36.0792 -36.0710
   -36.0485 -36.0324 -36.0225 -36.0103 -35.9954 -35.9829 -35.9581 -35.9464
   -35.9183 -35.9003 -35.8673 -35.8464 -35.8423 -35.7888 -35.7597 -35.7030
    -9.8558  -4.2955  -2.7635  -2.1268  -1.7265  -1.4350  -1.3589  -1.3214
    -1.2100  -1.1140  -1.0040  -0.8990  -0.8817  -0.7717  -0.6043  -0.5458
    -0.4919  -0.2965  -0.1486  -0.0850   0.1109   0.1451   0.2700   0.4615
     0.5115   0.6241   0.7402   0.8814   1.0630   1.1734   1.2086   1.2626
     1.4091   1.4455   1.4638   1.5465   1.6470   1.8289   1.8954   1.9996
     2.1065   2.2117   2.3082   2.5126   2.6743   2.7991   2.8930   2.9700
     3.0874   3.1649   3.2768   3.5080   3.5751   3.7715   3.8500

          k = 0.0304-0.0877 0.0000 ( 16203 PWs)   bands (ev):

   -64.3435 -64.3040 -64.2741 -64.2336 -64.2298 -64.1721 -64.1136 -64.0910
   -64.0600 -64.0461 -64.0335 -64.0032 -36.6884 -36.6449 -36.6202 -36.6014
   -36.5749 -36.5559 -36.5315 -36.4558 -36.4040 -36.3602 -36.3471 -36.3043
   -36.2741 -36.2133 -36.2000 -36.1466 -36.1284 -36.1142 -36.0880 -36.0744
   -36.0429 -36.0337 -36.0237 -36.0149 -35.9954 -35.9800 -35.9570 -35.9477
   -35.9171 -35.8994 -35.8654 -35.8462 -35.8388 -35.7861 -35.7609 -35.7013
    -9.8573  -4.2607  -2.7602  -2.1618  -1.7430  -1.4659  -1.3477  -1.3125
    -1.2184  -1.0962  -1.0299  -0.9000  -0.8794  -0.8467  -0.6176  -0.5308
    -0.4518  -0.2495  -0.1581  -0.0872   0.1195   0.1882   0.2896   0.4699
     0.5463   0.5955   0.7119   0.8621   1.0719   1.1527   1.1993   1.2719
     1.3760   1.4477   1.5106   1.5449   1.7094   1.8110   1.9282   1.9977
     2.1082   2.2110   2.2478   2.5262   2.6774   2.8068   2.9040   2.9381
     3.0924   3.2215   3.2619   3.3629   3.5701   3.7735   3.8384

          k = 0.0304-0.0526 0.0000 ( 16202 PWs)   bands (ev):

   -64.3770 -64.2746 -64.2665 -64.2422 -64.2354 -64.1651 -64.1185 -64.1109
   -64.0425 -64.0397 -64.0239 -64.0072 -36.7705 -36.7129 -36.7120 -36.6952
   -36.6620 -36.6077 -36.5993 -36.4824 -36.4277 -36.4199 -36.3087 -36.2828
   -36.2545 -36.2379 -36.1866 -36.1322 -36.1013 -36.0916 -36.0782 -36.0428
   -36.0242 -36.0006 -35.9852 -35.9608 -35.9535 -35.9373 -35.9218 -35.9152
   -35.9010 -35.8850 -35.8331 -35.8095 -35.8078 -35.7609 -35.7368 -35.6503
    -9.8767  -4.2295  -3.1771  -2.7268  -1.9972  -1.9004  -1.7611  -1.6575
    -1.5918  -1.5313  -1.4432  -1.3913  -1.3016  -1.2854  -1.0994  -0.9431
    -0.6520  -0.5224  -0.3028  -0.0494   0.2353   0.3193   0.5934   0.6944
     0.8420   0.8988   0.9919   1.0509   1.1334   1.3324   1.3720   1.4670
     1.6220   1.7234   1.7560   1.8006   1.8431   2.0048   2.2481   2.3743
     2.3913   2.5376   2.6247   2.9056   2.9606   3.0324   3.0712   3.1205
     3.2120   3.4249   3.6370   3.9774   4.0496   4.1772   4.2733

          k = 0.0608-0.0351 0.0000 ( 16149 PWs)   bands (ev):

   -64.3681 -64.2904 -64.2539 -64.2439 -64.2371 -64.1612 -64.1206 -64.1088
   -64.0493 -64.0417 -64.0164 -64.0123 -36.7350 -36.7253 -36.6913 -36.6493
   -36.6277 -36.5922 -36.5844 -36.4592 -36.4289 -36.3633 -36.3157 -36.2950
   -36.2774 -36.2316 -36.1917 -36.1485 -36.1159 -36.0860 -36.0542 -36.0475
   -36.0395 -36.0288 -36.0098 -35.9722 -35.9557 -35.9398 -35.9357 -35.9084
   -35.9005 -35.8911 -35.8810 -35.8735 -35.7976 -35.7591 -35.7345 -35.6574
    -9.8717  -4.2084  -3.0600  -2.5904  -1.9726  -1.7621  -1.6430  -1.6185
    -1.4693  -1.3401  -1.2792  -1.2338  -1.2179  -1.1363  -1.0623  -0.8103
    -0.4803  -0.4370  -0.2203  -0.0742   0.1411   0.2907   0.4166   0.6853
     0.8131   0.8943   0.9218   1.0579   1.1173   1.2296   1.4038   1.4743
     1.5497   1.6582   1.7931   1.8653   1.9156   1.9852   2.0587   2.2437
     2.3645   2.4452   2.5230   2.6357   2.6659   2.8047   2.9384   3.0987
     3.2322   3.2796   3.6105   3.8543   3.9022   3.9355   4.0458

          k = 0.0608 0.0000 0.0000 ( 16202 PWs)   bands (ev):

   -64.3770 -64.2731 -64.2667 -64.2458 -64.2325 -64.1678 -64.1178 -64.1084
   -64.0435 -64.0379 -64.0266 -64.0063 -36.7665 -36.7261 -36.7061 -36.6905
   -36.6605 -36.6126 -36.5967 -36.4830 -36.4356 -36.4160 -36.3111 -36.2807
   -36.2543 -36.2370 -36.1876 -36.1286 -36.1040 -36.0941 -36.0717 -36.0468
   -36.0257 -35.9986 -35.9829 -35.9586 -35.9494 -35.9368 -35.9238 -35.9128
   -35.8984 -35.8862 -35.8374 -35.8113 -35.8074 -35.7599 -35.7392 -35.6514
    -9.8759  -4.2606  -3.1701  -2.7186  -1.9674  -1.9018  -1.7978  -1.6238
[...]
     1.4885   1.6341   1.6619   1.7465   1.8671   1.9311   2.0159   2.2083
     2.3757   2.4050   2.5236   2.5960   2.6243   2.7581   2.9290   3.0546
     3.2051   3.3557   3.5516   3.8736   3.8898   3.9339   4.0282

          k = 0.0608 0.0000 0.0000 ( 16202 PWs)   bands (ev):

   -64.4118 -64.3055 -64.2951 -64.2735 -64.2586 -64.1701 -64.1452 -64.1197
   -64.1049 -64.0687 -64.0516 -64.0266 -36.8502 -36.7927 -36.7553 -36.7118
   -36.6980 -36.6720 -36.6543 -36.5069 -36.4597 -36.4365 -36.3628 -36.3278
   -36.2772 -36.2491 -36.2175 -36.1547 -36.1348 -36.1221 -36.0882 -36.0554
   -36.0503 -36.0362 -35.9993 -35.9787 -35.9708 -35.9596 -35.9456 -35.9267
   -35.9174 -35.8980 -35.8570 -35.8360 -35.8318 -35.7827 -35.7711 -35.6775
    -9.8060  -3.9321  -3.2504  -2.7774  -2.0709  -1.9934  -1.8787  -1.7037
    -1.6523  -1.5849  -1.5228  -1.4124  -1.3707  -1.3164  -1.0945  -0.9423
    -0.7541  -0.5590  -0.2680  -0.0598   0.1275   0.2484   0.5500   0.6220
     0.7427   0.8256   0.9075   1.0069   1.1967   1.2659   1.3451   1.3963
     1.5796   1.6228   1.6869   1.7456   1.7556   1.9548   2.1919   2.3410
     2.3960   2.5258   2.5998   2.8654   2.9073   2.9645   3.0459   3.1160
     3.2339   3.5011   3.6390   3.9730   4.0292   4.1970   4.2938

          k = 0.0608 0.0351 0.0000 ( 16149 PWs)   bands (ev):

   -64.4030 -64.3192 -64.2841 -64.2772 -64.2583 -64.1722 -64.1402 -64.1153
   -64.1093 -64.0722 -64.0544 -64.0262 -36.8265 -36.7580 -36.7518 -36.6793
   -36.6686 -36.6646 -36.6309 -36.4920 -36.4677 -36.4053 -36.3698 -36.3219
   -36.3004 -36.2482 -36.1865 -36.1837 -36.1369 -36.0967 -36.0950 -36.0733
   -36.0710 -36.0430 -36.0315 -35.9950 -35.9744 -35.9695 -35.9618 -35.9271
   -35.9075 -35.9065 -35.8852 -35.8830 -35.8077 -35.7930 -35.7828 -35.6849
    -9.7983  -3.9526  -3.1835  -2.6204  -2.0361  -1.8764  -1.7121  -1.6673
    -1.5171  -1.3802  -1.3332  -1.3022  -1.2335  -1.2175  -1.0178  -0.7639
    -0.6506  -0.4664  -0.1675   0.0021   0.0364   0.1397   0.3501   0.5762
     0.6438   0.8451   0.9344   0.9458   1.0712   1.3065   1.3195   1.4419
     1.4976   1.5946   1.6754   1.7035   1.8934   1.9660   1.9774   2.2254
     2.3784   2.4122   2.5325   2.5943   2.6149   2.7528   2.9836   3.0430
     3.2081   3.4452   3.5629   3.8848   3.8987   3.9256   4.0598

          k = 0.0608-0.1404 0.0000 ( 16203 PWs)   bands (ev):

   -64.3790 -64.3327 -64.3051 -64.2680 -64.2527 -64.1689 -64.1294 -64.1230
   -64.1053 -64.0790 -64.0655 -64.0239 -36.7674 -36.7113 -36.6769 -36.6436
   -36.6275 -36.6187 -36.5630 -36.5091 -36.4214 -36.4004 -36.3857 -36.3265
   -36.2975 -36.2555 -36.2167 -36.1726 -36.1469 -36.1220 -36.1136 -36.0839
   -36.0732 -36.0593 -36.0394 -36.0339 -36.0200 -36.0070 -35.9821 -35.9656
   -35.9339 -35.9138 -35.8781 -35.8647 -35.8424 -35.8243 -35.7890 -35.7271
    -9.7873  -3.9438  -2.9562  -2.1674  -1.7794  -1.5419  -1.4151  -1.3956
    -1.2863  -1.1613  -1.0308  -0.9868  -0.9553  -0.8097  -0.6953  -0.6185
    -0.4381  -0.3571  -0.2383  -0.1152   0.0411   0.1315   0.2003   0.3625
     0.4580   0.5702   0.6974   0.8690   1.0126   1.0874   1.1277   1.2069
     1.3072   1.4009   1.4946   1.5227   1.6384   1.7779   1.8771   1.9743
     2.0793   2.1921   2.2850   2.4662   2.6404   2.8158   2.8802   2.9414
     3.1189   3.2016   3.2407   3.4743   3.5647   3.7333   3.8399

          k = 0.0608-0.1053 0.0000 ( 16272 PWs)   bands (ev):

   -64.3515 -64.3433 -64.3279 -64.2631 -64.2503 -64.1571 -64.1443 -64.1115
   -64.1028 -64.0862 -64.0724 -64.0224 -36.7132 -36.6933 -36.6494 -36.6092
   -36.5971 -36.5721 -36.5312 -36.5159 -36.4949 -36.4031 -36.3280 -36.2938
   -36.2699 -36.2650 -36.2551 -36.2026 -36.1830 -36.1815 -36.1323 -36.0797
   -36.0629 -36.0503 -36.0413 -36.0361 -36.0308 -36.0257 -36.0052 -35.9530
   -35.9384 -35.9225 -35.8787 -35.8671 -35.8573 -35.8070 -35.7987 -35.7864
    -9.7841  -3.9132  -2.7573  -1.6778  -1.6159  -1.5895  -1.1528  -1.1296
    -0.9989  -0.9665  -0.9305  -0.8472  -0.7798  -0.6855  -0.6275  -0.5794
    -0.5090  -0.4801  -0.2655  -0.0163   0.0147   0.3064   0.3277   0.3428
     0.4313   0.5308   0.5599   0.5969   0.6855   0.7346   0.7720   0.9202
     1.0040   1.0510   1.4026   1.4319   1.4712   1.7872   1.8594   1.9127
     1.9554   1.9811   2.1897   2.4467   2.6419   2.7997   2.9898   3.0154
     3.1756   3.2160   3.3864   3.4374   3.4862   3.5826   4.3344

          k = 0.0608-0.0702 0.0000 ( 16203 PWs)   bands (ev):

   -64.3770 -64.3379 -64.3029 -64.2651 -64.2559 -64.1584 -64.1400 -64.1214
   -64.1029 -64.0900 -64.0536 -64.0273 -36.7774 -36.7204 -36.6661 -36.6439
   -36.6259 -36.6155 -36.5619 -36.4966 -36.4343 -36.3802 -36.3723 -36.3263
   -36.3059 -36.2402 -36.2239 -36.1741 -36.1608 -36.1419 -36.1115 -36.0872
   -36.0701 -36.0593 -36.0457 -36.0354 -36.0153 -35.9995 -35.9826 -35.9685
   -35.9387 -35.9134 -35.8884 -35.8659 -35.8444 -35.8102 -35.7850 -35.7261
    -9.7918  -3.8937  -2.8159  -2.2328  -1.8156  -1.5492  -1.4520  -1.3955
    -1.2815  -1.1789  -1.1414  -0.9829  -0.9156  -0.8882  -0.6978  -0.5800
    -0.5142  -0.3235  -0.2175  -0.1398   0.0296   0.1674   0.2885   0.3893
     0.5199   0.5479   0.6719   0.8199   1.0278   1.0659   1.1546   1.2546
     1.3272   1.4463   1.4878   1.5606   1.6815   1.7586   1.8718   1.9526
     2.0230   2.1607   2.2455   2.5082   2.6326   2.8272   2.8510   2.8911
     3.1123   3.2062   3.2587   3.3631   3.5803   3.7284   3.7956

          k =-0.0912 0.0526 0.0000 ( 16164 PWs)   bands (ev):

   -64.3655 -64.3590 -64.2848 -64.2697 -64.2596 -64.1615 -64.1361 -64.1173
   -64.1048 -64.0981 -64.0409 -64.0351 -36.7748 -36.7360 -36.6693 -36.6477
   -36.6374 -36.6286 -36.4938 -36.4734 -36.4377 -36.3979 -36.3878 -36.3826
   -36.2742 -36.2089 -36.1823 -36.1596 -36.1435 -36.1298 -36.1245 -36.1081
   -36.0792 -36.0593 -36.0468 -36.0356 -36.0320 -36.0215 -36.0139 -35.9959
   -35.9310 -35.9219 -35.8893 -35.8719 -35.8485 -35.8023 -35.7416 -35.7249
    -9.7920  -3.8905  -2.8233  -2.1302  -2.0808  -1.5608  -1.4231  -1.3845
    -1.3623  -1.2372  -1.1309  -0.9982  -0.8982  -0.7413  -0.6301  -0.5055
    -0.4675  -0.4234  -0.3283  -0.0434   0.0818   0.1612   0.3455   0.3723
     0.4128   0.5559   0.8048   0.9876   1.1267   1.1639   1.3145   1.4320
     1.4496   1.4865   1.5445   1.6137   1.6374   1.7053   1.7593   1.8664
     1.8979   1.9151   2.3850   2.5855   2.6607   2.7239   2.7815   2.8350
     3.1172   3.2700   3.2924   3.4224   3.4630   3.5479   3.5608

          k =-0.0912 0.0877 0.0000 ( 16203 PWs)   bands (ev):

   -64.3777 -64.3363 -64.3034 -64.2666 -64.2543 -64.1626 -64.1357 -64.1227
   -64.1031 -64.0872 -64.0568 -64.0260 -36.7702 -36.7252 -36.6654 -36.6472
   -36.6277 -36.6147 -36.5677 -36.4839 -36.4283 -36.3908 -36.3757 -36.3249
   -36.3044 -36.2656 -36.2241 -36.1788 -36.1514 -36.1210 -36.1093 -36.0787
   -36.0718 -36.0629 -36.0472 -36.0298 -36.0192 -35.9996 -35.9839 -35.9658
   -35.9381 -35.9215 -35.8865 -35.8654 -35.8437 -35.8125 -35.7842 -35.7271
    -9.7905  -3.9042  -2.8741  -2.1913  -1.8078  -1.5512  -1.4424  -1.3903
    -1.2939  -1.1959  -1.1063  -0.9799  -0.9290  -0.8508  -0.6867  -0.5762
    -0.5369  -0.3171  -0.2027  -0.1068   0.0336   0.1008   0.2683   0.3953
     0.4635   0.5536   0.7080   0.8622   1.0104   1.0978   1.1664   1.2292
     1.3841   1.3925   1.4296   1.5167   1.6113   1.8341   1.8683   1.9644
     2.0651   2.1643   2.2414   2.4882   2.6305   2.7965   2.8542   2.9755
     3.0986   3.1463   3.2840   3.4730   3.6002   3.7251   3.8109

          k =-0.0912 0.1228 0.0000 ( 16203 PWs)   bands (ev):

   -64.3791 -64.3326 -64.3052 -64.2678 -64.2527 -64.1687 -64.1298 -64.1231
   -64.1051 -64.0792 -64.0653 -64.0239 -36.7679 -36.7108 -36.6772 -36.6424
   -36.6289 -36.6177 -36.5633 -36.5090 -36.4227 -36.4009 -36.3836 -36.3257
   -36.2993 -36.2531 -36.2166 -36.1739 -36.1478 -36.1221 -36.1135 -36.0834
   -36.0738 -36.0592 -36.0392 -36.0340 -36.0203 -36.0078 -35.9820 -35.9653
   -35.9338 -35.9141 -35.8780 -35.8639 -35.8422 -35.8246 -35.7892 -35.7268
    -9.7875  -3.9378  -2.9561  -2.1700  -1.7807  -1.5444  -1.4152  -1.3948
    -1.2878  -1.1602  -1.0343  -0.9815  -0.9560  -0.8271  -0.6993  -0.6155
    -0.4452  -0.3492  -0.2405  -0.1061   0.0404   0.1431   0.2002   0.3611
     0.4635   0.5677   0.6973   0.8708   1.0149   1.0849   1.1274   1.2088
     1.3065   1.4022   1.4973   1.5270   1.6389   1.7755   1.8796   1.9751
     2.0804   2.1906   2.2734   2.4739   2.6440   2.8219   2.8729   2.9387
     3.1169   3.2034   3.2388   3.4583   3.5640   3.7284   3.8417

          k =-0.0912-0.0526 0.0000 ( 16164 PWs)   bands (ev):

   -64.3732 -64.3490 -64.2828 -64.2772 -64.2546 -64.1727 -64.1253 -64.1183
   -64.1093 -64.0876 -64.0562 -64.0262 -36.7715 -36.7045 -36.6883 -36.6502
   -36.6484 -36.6118 -36.5250 -36.4891 -36.4409 -36.4132 -36.3951 -36.3697
   -36.2661 -36.1953 -36.1615 -36.1518 -36.1506 -36.1285 -36.1182 -36.1060
   -36.0968 -36.0522 -36.0480 -36.0420 -36.0285 -36.0156 -36.0145 -36.0021
   -35.9304 -35.9160 -35.8854 -35.8495 -35.8449 -35.8294 -35.7513 -35.7212
    -9.7860  -3.9576  -2.9915  -2.1032  -2.0082  -1.5346  -1.4667  -1.3902
    -1.2831  -1.1829  -1.0336  -0.8962  -0.8727  -0.8214  -0.6581  -0.5003
    -0.4749  -0.3435  -0.2802  -0.1422   0.0313   0.1840   0.2769   0.3583
     0.4473   0.4984   0.7821   1.0029   1.0457   1.1766   1.2819   1.3874
     1.4448   1.4904   1.5580   1.6236   1.6315   1.7042   1.7508   1.8428
     1.9414   1.9845   2.4768   2.6141   2.6471   2.7612   2.8013   2.8358
     3.0372   3.2847   3.3004   3.4111   3.4895   3.5184   3.5579

     the Fermi energy is     2.8583 ev

!    total energy              =   -2117.38030304 Ry
     Harris-Foulkes estimate   =   -2117.38030295 Ry
     estimated scf accuracy    <       0.00000009 Ry

     The total energy is the sum of the following terms:

     one-electron contribution =  -19245.24511510 Ry
     hartree contribution      =    9625.71592635 Ry
     xc contribution           =    -402.38699504 Ry
     ewald contribution        =    7904.62339759 Ry
     electric field correction =       0.00012330 Ry
     smearing contrib. (-TS)   =      -0.08764014 Ry

     convergence has been achieved in   9 iterations
 
 BEEF-vdW xc energy contributions
           1 :   -352.442725563971     
           2 :    324.067485544578     
           3 :   -273.616746323820     
           4 :    211.202803147822     
           5 :   -147.593829242063     
           6 :    91.2866389622920     
           7 :   -46.8624497936723     
           8 :    14.8391929367613     
           9 :    7.10753132892785     
          10 :   -22.3045757419517     
          11 :    33.3872482167219     
          12 :   -41.4106316010839     
          13 :    45.9024985869881     
          14 :   -45.6678151779273     
          15 :    39.8426586347965     
          16 :   -28.7199994955433     
          17 :    13.9935013541856     
          18 :    1.62244008372295     
          19 :   -15.2059418926170     
          20 :    24.4963939038009     
          21 :   -28.4742260801187     
          22 :    27.4436040700053     
          23 :   -22.6590020459903     
          24 :    15.7079563322315     
          25 :   -7.95365327200506     
          26 :   0.253030015754860     
          27 :    6.98978012586372     
          28 :   -13.5517142487672     
          29 :    19.0987663344364     
          30 :   -23.0577344947454     
          31 :   -33.6881812781053     
          32 :   -24.7531427658878     

     Forces acting on atoms (Ry/au):


     negative rho (up, down):  1.587E+00 0.000E+00
     atom    1 type  1   force =    -0.00096608   -0.00043524    0.02478193
     atom    2 type  1   force =    -0.00114817   -0.00614093    0.02559312
     atom    3 type  1   force =    -0.00623722    0.00223256    0.02597570
     atom    4 type  1   force =     0.00375103    0.00224655    0.02334004
     atom    5 type  1   force =     0.00365268    0.00112179   -0.00943293
     atom    6 type  1   force =    -0.00557979   -0.00359636   -0.01198583
     atom    7 type  1   force =     0.00005488   -0.00036679   -0.06849234
     atom    8 type  1   force =     0.00308522    0.00286821   -0.00863224
     atom    9 type  1   force =     0.00025036    0.00009878   -0.00027432
     atom   10 type  1   force =     0.00184563    0.00088167   -0.00031158
     atom   11 type  1   force =     0.00027933   -0.00041051   -0.00003972
     atom   12 type  1   force =    -0.00027994    0.00020105   -0.00008436
     atom   13 type  2   force =     0.00057179    0.00111318   -0.00041741
     atom   14 type  3   force =     0.00065185   -0.00046803    0.00001424
     atom   15 type  3   force =     0.00006841    0.00065408   -0.00003431

     Total force =     0.002761     Total SCF correction =     0.000430
     SCF correction compared to forces is large: reduce conv_thr to get better values


     entering subroutine stress ...


     negative rho (up, down):  1.587E+00 0.000E+00
          total   stress  (Ry/bohr**3)                   (kbar)     P=  -23.61
  -0.00018397  -0.00000425   0.00000891        -27.06     -0.63      1.31
  -0.00000425  -0.00018288   0.00000480         -0.63    -26.90      0.71
   0.00000891   0.00000480  -0.00011458          1.31      0.71    -16.86


     bfgs converged in  40 scf cycles and  39 bfgs steps
     (criteria: energy <  1.0E+00, force <  1.9E-03)

     End of BFGS Geometry Optimization

     Final energy   =   -2117.3803030406 Ry
Begin final coordinates

ATOMIC_POSITIONS (crystal)
Tc1      0.166666667   0.166666667   0.408540475    0   0   0
Tc1      0.666666667   0.166666667   0.408540475    0   0   0
Tc1      0.166666667   0.666666667   0.408540475    0   0   0
Tc1      0.666666667   0.666666667   0.408540475    0   0   0
Tc1      0.833333333   0.333333333   0.500000000    0   0   0
Tc1      0.333333333   0.333333333   0.500000000    0   0   0
Tc1      0.833333333   0.833333333   0.500000000    0   0   0
Tc1      0.333333333   0.833333333   0.500000000    0   0   0
Tc1     -0.003823663  -0.003166874   0.589393628
Tc1      0.494860793  -0.001576197   0.592105012
Tc1     -0.001872294   0.496496215   0.591629602
Tc1      0.498093455   0.498223737   0.584222841
C1       0.165476426   0.164984530   0.651034344
H1       0.210199931   0.235774422   0.689699113
H1       0.057323956   0.043571169   0.666640766
End final coordinates



     Writing output data file calc.save
 
     init_run     :      4.65s CPU      5.63s WALL (       1 calls)
     electrons    :   5796.06s CPU   7690.22s WALL (      40 calls)
     update_pot   :     69.74s CPU     82.56s WALL (      39 calls)
     forces       :    205.77s CPU    214.09s WALL (      40 calls)
     stress       :    570.65s CPU    613.11s WALL (      40 calls)

     Called by init_run:
     wfcinit      :      1.97s CPU      2.48s WALL (       1 calls)
     potinit      :      0.97s CPU      1.26s WALL (       1 calls)

     Called by electrons:
     c_bands      :   3326.19s CPU   4439.13s WALL (     570 calls)
     sum_band     :    838.68s CPU   1062.90s WALL (     570 calls)
     v_of_rho     :    578.23s CPU    932.47s WALL (     608 calls)
     newd         :    504.23s CPU    553.74s WALL (     608 calls)
     mix_rho      :     10.32s CPU     13.17s WALL (     570 calls)
     vdW_energy   :    197.00s CPU    215.44s WALL (    2048 calls)
     vdW_ffts     :    224.92s CPU    328.58s WALL (    4176 calls)
     vdW_v        :    118.28s CPU    140.87s WALL (    2048 calls)

     Called by c_bands:
     init_us_2    :     19.25s CPU     21.40s WALL (    8547 calls)
     cegterg      :   2619.57s CPU   3177.13s WALL (    3990 calls)

     Called by *egterg:
     h_psi        :   1242.61s CPU   1689.60s WALL (   19515 calls)
     s_psi        :    160.90s CPU    167.26s WALL (   19515 calls)
     g_psi        :     15.30s CPU     15.62s WALL (   15518 calls)
     cdiaghg      :    639.73s CPU    655.09s WALL (   19221 calls)

     Called by h_psi:
     add_vuspsi   :    165.26s CPU    171.81s WALL (   19515 calls)

     General routines
     calbec       :    232.74s CPU    250.64s WALL (   24065 calls)
     fft          :    338.15s CPU    500.56s WALL (  124295 calls)
     ffts         :      0.67s CPU      1.04s WALL (    1178 calls)
     fftw         :    868.57s CPU   1381.51s WALL ( 2508480 calls)
     interpolate  :      4.18s CPU      7.28s WALL (    1178 calls)
     davcio       :      0.00s CPU      0.15s WALL (       7 calls)
 
     Parallel routines
     fft_scatter  :    587.59s CPU   1043.90s WALL ( 2633953 calls)
 
     PWSCF        :     1h51m CPU        2h24m WALL

 
   This run was terminated on:  16:56:11  23Apr2018            

=------------------------------------------------------------------------------=
   JOB DONE.
=------------------------------------------------------------------------------=
Job  /afs/slac/g/suncat/bin/suncat-tsmpirun -x LD_LIBRARY_PATH -wdir /scratch/qe20371_932Bb pw.x -npool 3 -in pw.inp

TID   HOST_NAME   COMMAND_LINE            STATUS            TERMINATION_TIME
===== ========== ================  =======================  ===================
00000 suncat2069 pw.x -npool 3 -i  Done                     04/23/2018 16:56:11
00001 suncat2069 pw.x -npool 3 -i  Done                     04/23/2018 16:56:11
00002 suncat2069 pw.x -npool 3 -i  Done                     04/23/2018 16:56:11
00003 suncat2069 pw.x -npool 3 -i  Done                     04/23/2018 16:56:11
00004 suncat2021 pw.x -npool 3 -i  Done                     04/23/2018 16:56:11
00005 suncat2021 pw.x -npool 3 -i  Done                     04/23/2018 16:56:11
00006 suncat2021 pw.x -npool 3 -i  Done                     04/23/2018 16:56:11
00007 suncat2021 pw.x -npool 3 -i  Done                     04/23/2018 16:56:11
00008 suncat2021 pw.x -npool 3 -i  Done                     04/23/2018 16:56:11
00009 suncat2021 pw.x -npool 3 -i  Done                     04/23/2018 16:56:11
00010 suncat2021 pw.x -npool 3 -i  Done                     04/23/2018 16:56:11
00011 suncat2021 pw.x -npool 3 -i  Done                     04/23/2018 16:56:11
00012 suncat2021 pw.x -npool 3 -i  Done                     04/23/2018 16:56:11
00013 suncat2021 pw.x -npool 3 -i  Done                     04/23/2018 16:56:11
00014 suncat2021 pw.x -npool 3 -i  Done                     04/23/2018 16:56:11
00015 suncat2021 pw.x -npool 3 -i  Done                     04/23/2018 16:56:11
00016 suncat2021 pw.x -npool 3 -i  Done                     04/23/2018 16:56:11
00017 suncat2021 pw.x -npool 3 -i  Done                     04/23/2018 16:56:11
00018 suncat2021 pw.x -npool 3 -i  Done                     04/23/2018 16:56:11
00019 suncat2021 pw.x -npool 3 -i  Done                     04/23/2018 16:56:11
00020 suncat2001 pw.x -npool 3 -i  Done                     04/23/2018 16:56:11
00021 suncat2001 pw.x -npool 3 -i  Done                     04/23/2018 16:56:11
00022 suncat2001 pw.x -npool 3 -i  Done                     04/23/2018 16:56:11
00023 suncat2001 pw.x -npool 3 -i  Done                     04/23/2018 16:56:11
00024 suncat2001 pw.x -npool 3 -i  Done                     04/23/2018 16:56:11
00025 suncat2001 pw.x -npool 3 -i  Done                     04/23/2018 16:56:11
00026 suncat2001 pw.x -npool 3 -i  Done                     04/23/2018 16:56:11
00027 suncat2001 pw.x -npool 3 -i  Done                     04/23/2018 16:56:11
00028 suncat2001 pw.x -npool 3 -i  Done                     04/23/2018 16:56:11
00029 suncat2001 pw.x -npool 3 -i  Done                     04/23/2018 16:56:11
00030 suncat2001 pw.x -npool 3 -i  Done                     04/23/2018 16:56:11
00031 suncat2001 pw.x -npool 3 -i  Done                     04/23/2018 16:56:11
00032 suncat2001 pw.x -npool 3 -i  Done                     04/23/2018 16:56:11
00033 suncat2001 pw.x -npool 3 -i  Done                     04/23/2018 16:56:11
00034 suncat2001 pw.x -npool 3 -i  Done                     04/23/2018 16:56:11
00035 suncat2001 pw.x -npool 3 -i  Done                     04/23/2018 16:56:11
