  python dir          : /nfs/slac/g/suncatfs/sw/espv20/lib/python2.7/site-packages/espresso
  espresso dir        : /nfs/slac/g/suncatfs/sw/espv18/espresso-dynpy-beef/bin
  pseudo dir          : /afs/slac.stanford.edu/u/if/mamunm/psp/gbrv1.5pbe
  ase-espresso py git : ffa2778-git



     Program PWSCF v.5.1rc2 (svn rev. 11289) starts on 17Jan2018 at 19:44:17 

     This program is part of the open-source Quantum ESPRESSO suite
     for quantum simulation of materials; please cite
         "P. Giannozzi et al., J. Phys.:Condens. Matter 21 395502 (2009);
          URL http://www.quantum-espresso.org", 
     in publications or presentations arising from this work. More details at
     http://www.quantum-espresso.org/quote

     Parallel version (MPI), running on    32 processors
     R & G space division:  proc/nbgrp/npool/nimage =      32
     Reading input from pw.inp
     Message from routine read_cards :
     DEPRECATED: no units specified in CELL_PARAMETERS card

     Current dimensions of program PWSCF are:
     Max number of different atomic species (ntypx) = 10
     Max number of k-points (npk) =  40000
     Max angular momentum in pseudopotentials (lmaxx) =  3
     Presently stress not available with electric field


     **************************************************************************
     Initializing libbeef V0.1.1 with the BEEF-vdW functional.
     Citation: Wellendorff et al., PRB 85, 235149 (2012).
     **************************************************************************


     IMPORTANT: XC functional enforced from input :
     Exchange-correlation      = BEEF-VDW ( 1  4 27 13 2)
     Any further DFT definition will be discarded
     Please, verify this is what you really want


     Subspace diagonalization in iterative solution of the eigenvalue problem:
     a serial algorithm will be used

 
     Parallelization info
     --------------------
     sticks:   dense  smooth     PW     G-vecs:    dense   smooth      PW
     Min          88      35     10                16662     4195     652
     Max          90      36     13                16672     4240     670
     Sum        2839    1135    337               533365   134957   21217
 


     bravais-lattice index     =            0
     lattice parameter (alat)  =       1.8897  a.u.
     unit-cell volume          =    4481.2752 (a.u.)^3
     number of atoms/cell      =           13
     number of atomic types    =            2
     number of electrons       =       197.00
     number of Kohn-Sham states=          108
     kinetic-energy cutoff     =      36.7493  Ry
     charge density cutoff     =     367.4932  Ry
     convergence threshold     =      1.0E-05
     mixing beta               =       0.3000
     number of iterations used =           10  plain     mixing
     Exchange-correlation      = BEEF-VDW ( 1  4 27 13 2)
     nstep                     =           50


     celldm(1)=   1.889726  celldm(2)=   0.000000  celldm(3)=   0.000000
     celldm(4)=   0.000000  celldm(5)=   0.000000  celldm(6)=   0.000000

     crystal axes: (cart. coord. in units of alat)
               a(1) = (   5.587338   0.000000   0.000000 )  
               a(2) = (   2.793669   4.838777   0.000000 )  
               a(3) = (   0.000000   0.000000  24.562042 )  

     reciprocal axes: (cart. coord. in units 2 pi/alat)
               b(1) = (  0.178976 -0.103332  0.000000 )  
               b(2) = (  0.000000  0.206664  0.000000 )  
               b(3) = (  0.000000  0.000000  0.040713 )  


     PseudoPot. # 1 for Pt read from file:
     /afs/slac.stanford.edu/u/if/mamunm/psp/gbrv1.5pbe/Pt.UPF
     MD5 check sum: f09d6de1a584b5a045c4fc126da2d0c4
     Pseudo is Ultrasoft + core correction, Zval = 16.0
     Generated by new atomic code, or converted to UPF format
     Using radial grid of  985 points,  6 beta functions with: 
                l(1) =   0
                l(2) =   0
                l(3) =   1
                l(4) =   1
                l(5) =   2
                l(6) =   2
     Q(r) pseudized with  8 coefficients,  rinner =    1.300   1.300   1.300
                                                       1.300   1.300

     PseudoPot. # 2 for N  read from file:
     /afs/slac.stanford.edu/u/if/mamunm/psp/gbrv1.5pbe/N.UPF
     MD5 check sum: 95339753478d7afb44899504a8723017
     Pseudo is Ultrasoft + core correction, Zval =  5.0
     Generated by new atomic code, or converted to UPF format
     Using radial grid of  729 points,  4 beta functions with: 
                l(1) =   0
                l(2) =   0
                l(3) =   1
                l(4) =   1
     Q(r) pseudized with  8 coefficients,  rinner =    0.900   0.900   0.900


     vdW kernel table read from file vdW_kernel_table
     MD5 check sum: 095c7af220d748ca6e76c0b4c6cfb241

     atomic species   valence    mass     pseudopotential
        Pt1           16.00   195.08400     Pt( 1.00)
        N1             5.00    14.00700     N ( 1.00)

     No symmetry found



   Cartesian axes

     site n.     atom                  positions (alat units)
         1           Pt1 tau(   1) = (   1.3968345   0.8064628  10.0000000  )
         2           Pt1 tau(   2) = (   4.1905036   0.8064628  10.0000000  )
         3           Pt1 tau(   3) = (   2.7936691   3.2258512  10.0000000  )
         4           Pt1 tau(   4) = (   5.5873381   3.2258512  10.0000000  )
         5           Pt1 tau(   5) = (   5.5873381   1.6129256  12.2810212  )
         6           Pt1 tau(   6) = (   2.7936691   1.6129256  12.2810212  )
         7           Pt1 tau(   7) = (   6.9841727   4.0323140  12.2810212  )
         8           Pt1 tau(   8) = (   4.1905036   4.0323140  12.2810212  )
         9           Pt1 tau(   9) = (   0.0000000   0.0000000  14.5620425  )
        10           Pt1 tau(  10) = (   2.7936691   0.0000000  14.5620425  )
        11           Pt1 tau(  11) = (   1.3968345   2.4193884  14.5620425  )
        12           Pt1 tau(  12) = (   4.1905036   2.4193884  14.5620425  )
        13           N1  tau(  13) = (   2.7936691   1.6129256  16.6320425  )

     number of k points=    20  Fermi-Dirac smearing, width (Ry)=  0.0110
                       cart. coord. in units 2pi/alat
        k(    1) = (   0.0000000   0.0000000   0.0000000), wk =   0.0555556
        k(    2) = (   0.0000000   0.0344440   0.0000000), wk =   0.1111111
        k(    3) = (   0.0000000   0.0688879   0.0000000), wk =   0.1111111
        k(    4) = (   0.0000000  -0.1033319   0.0000000), wk =   0.0555556
        k(    5) = (   0.0298294  -0.0172220   0.0000000), wk =   0.1111111
        k(    6) = (   0.0298294   0.0172220   0.0000000), wk =   0.1111111
        k(    7) = (   0.0298294   0.0516660   0.0000000), wk =   0.1111111
        k(    8) = (   0.0298294  -0.1205539   0.0000000), wk =   0.1111111
        k(    9) = (   0.0298294  -0.0861099   0.0000000), wk =   0.1111111
        k(   10) = (   0.0298294  -0.0516660   0.0000000), wk =   0.1111111
        k(   11) = (   0.0596587  -0.0344440   0.0000000), wk =   0.1111111
        k(   12) = (   0.0596587   0.0000000   0.0000000), wk =   0.1111111
        k(   13) = (   0.0596587   0.0344440   0.0000000), wk =   0.1111111
        k(   14) = (   0.0596587  -0.1377759   0.0000000), wk =   0.1111111
        k(   15) = (   0.0596587  -0.1033319   0.0000000), wk =   0.1111111
        k(   16) = (   0.0596587  -0.0688879   0.0000000), wk =   0.1111111
        k(   17) = (  -0.0894881   0.0516660   0.0000000), wk =   0.0555556
        k(   18) = (  -0.0894881   0.0861099   0.0000000), wk =   0.1111111
        k(   19) = (  -0.0894881   0.1205539   0.0000000), wk =   0.1111111
        k(   20) = (  -0.0894881  -0.0516660   0.0000000), wk =   0.0555556

     Dense  grid:   533365 G-vectors     FFT dimensions: (  72,  72, 288)

     Smooth grid:   134957 G-vectors     FFT dimensions: (  45,  45, 180)

     Largest allocated arrays     est. size (Mb)     dimensions
        Kohn-Sham Wavefunctions         0.93 Mb     (     564,  108)
        NL pseudopotentials             1.93 Mb     (     564,  224)
        Each V/rho on FFT grid          0.71 Mb     (   46656)
        Each G-vector array             0.13 Mb     (   16671)
        G-vector shells                 0.06 Mb     (    7602)
     Largest temporary arrays     est. size (Mb)     dimensions
        Auxiliary wavefunctions         3.72 Mb     (     564,  432)
        Each subspace H/S matrix        2.85 Mb     (     432,  432)
        Each <psi_i|beta_j> matrix      0.37 Mb     (     224,  108)
        Arrays for rho mixing           7.12 Mb     (   46656,   10)

     Initial potential from superposition of free atoms
     Check: negative starting charge=   -2.200788

     starting charge  190.99986, renormalised to  197.00000

     negative rho (up, down):  2.270E+00 0.000E+00


     ************************************************************************
     *
     * You are using vdW-DF for exchange-correlation in this calculation.
     * Please cite the following three references that made this development
     * possible:
     *
     *   M. Dion, H. Rydberg, E. Schroder, D. C. Langreth, and
     *   B. I. Lundqvist, Phys. Rev. Lett. 92, 246401 (2004).
     *
     *   T. Thonhauser, V. R. Cooper, S. Li, A. Puzder, P. Hyldgaard, and
     *   D. C. Langreth, Phys. Rev. B 76, 125112 (2007).
     *
     *   G. Roman-Perez and J. M. Soler, Phys. Rev. Lett. 103, 096102 (2009).
     *
     *
     * If you are using vdW-DF2, please also cite:
     *
     *   K. Lee, E. D. Murray, L. Kong, B. I. Lundqvist, and
     *   D. C. Langreth, Phys. Rev. B 82, 081101(R) (2010).
     *
     *
     * If you are calculating the stress with vdW-DF, please also cite:
     *
     *   R. Sabatini, E. Kucukbenli, B. Kolb, T. Thonhauser, and
     *   S. de Gironcoli, J. Phys.: Condens. Matter 24, 424209 (2012).
     *
     ************************************************************************

     Carrying out vdW-DF run using the following parameters:

     Nqs =      20    Nr_points =    1024   r_max =   100.000
     q_mesh =
               0.00001000     0.04494208     0.09755937     0.15916263
               0.23128650     0.31572767     0.41458969     0.53033537
               0.66584808     0.82450364     1.01025438     1.22772762
               1.48234092     1.78043706     2.12944203     2.53805004
               3.01644009     3.57652955     4.23227104     5.00000000

     Gradients computed in reciprocal space

     ************************************************************************


 
     Adding external electric field

     Computed dipole along edir(3) : 
        Dipole               -1.2914 Ry au,         -3.2824 Debye
        Dipole field         -0.0036 Ry au
 
        Potential amp.        0.3278 Ry
        Total length         45.2551 bohr
 
     Starting wfc are  148 randomized atomic wfcs

     total cpu time spent up to now is       20.5 secs

     per-process dynamical memory:    50.6 Mb

     Self-consistent Calculation

     iteration #  1     ecut=    36.75 Ry     beta=0.30
     Davidson diagonalization with overlap
     ethr =  1.00E-02,  avg # of iterations =  2.5

     negative rho (up, down):  2.173E+00 0.000E+00
 
     Adding external electric field

     Computed dipole along edir(3) : 
        Dipole               13.9999 Ry au,         35.5842 Debye
        Dipole field          0.0393 Ry au
 
        Potential amp.       -3.5533 Ry
        Total length         45.2551 bohr
 

     total cpu time spent up to now is       59.2 secs

     total energy              =   -2547.67817382 Ry
     Harris-Foulkes estimate   =   -2571.48523794 Ry
     estimated scf accuracy    <      50.44974035 Ry

     iteration #  2     ecut=    36.75 Ry     beta=0.30
     Davidson diagonalization with overlap
     ethr =  1.00E-02,  avg # of iterations = 11.1

     negative rho (up, down):  2.168E+00 0.000E+00
 
     Adding external electric field

     Computed dipole along edir(3) : 
        Dipole               -2.0193 Ry au,         -5.1325 Debye
        Dipole field         -0.0057 Ry au
 
        Potential amp.        0.5125 Ry
        Total length         45.2551 bohr
 

     total cpu time spent up to now is      144.1 secs

     total energy              =   -2522.53068807 Ry
     Harris-Foulkes estimate   =   -2668.98986372 Ry
     estimated scf accuracy    <    2958.16862396 Ry

     iteration #  3     ecut=    36.75 Ry     beta=0.30
     Davidson diagonalization with overlap
     ethr =  1.00E-02,  avg # of iterations =  7.9

     negative rho (up, down):  2.162E+00 0.000E+00
 
     Adding external electric field

     Computed dipole along edir(3) : 
        Dipole               -0.3219 Ry au,         -0.8182 Debye
        Dipole field         -0.0009 Ry au
 
        Potential amp.        0.0817 Ry
        Total length         45.2551 bohr
 

     total cpu time spent up to now is      221.5 secs

     total energy              =   -2559.61683326 Ry
     Harris-Foulkes estimate   =   -2581.27176745 Ry
     estimated scf accuracy    <     240.21850536 Ry

     iteration #  4     ecut=    36.75 Ry     beta=0.30
     Davidson diagonalization with overlap
     ethr =  1.00E-02,  avg # of iterations =  5.2

     negative rho (up, down):  2.155E+00 0.000E+00
 
     Adding external electric field

     Computed dipole along edir(3) : 
        Dipole                0.2407 Ry au,          0.6118 Debye
        Dipole field          0.0007 Ry au
 
        Potential amp.       -0.0611 Ry
        Total length         45.2551 bohr
 

     total cpu time spent up to now is      277.4 secs

     total energy              =   -2566.87676988 Ry
     Harris-Foulkes estimate   =   -2569.71724185 Ry
     estimated scf accuracy    <      13.52030787 Ry

     iteration #  5     ecut=    36.75 Ry     beta=0.30
     Davidson diagonalization with overlap
     ethr =  6.86E-03,  avg # of iterations =  2.4

     negative rho (up, down):  2.143E+00 0.000E+00
 
     Adding external electric field

     Computed dipole along edir(3) : 
        Dipole               -0.2056 Ry au,         -0.5226 Debye
        Dipole field         -0.0006 Ry au
 
        Potential amp.        0.0522 Ry
        Total length         45.2551 bohr
 

     total cpu time spent up to now is      315.5 secs

     total energy              =   -2567.76595749 Ry
     Harris-Foulkes estimate   =   -2568.54018298 Ry
     estimated scf accuracy    <       9.14988356 Ry

     iteration #  6     ecut=    36.75 Ry     beta=0.30
     Davidson diagonalization with overlap
     ethr =  4.64E-03,  avg # of iterations =  1.4

     negative rho (up, down):  2.135E+00 0.000E+00
 
     Adding external electric field

     Computed dipole along edir(3) : 
        Dipole               -0.5918 Ry au,         -1.5043 Debye
        Dipole field         -0.0017 Ry au
 
        Potential amp.        0.1502 Ry
        Total length         45.2551 bohr
 

     total cpu time spent up to now is      351.7 secs

     total energy              =   -2567.96700736 Ry
     Harris-Foulkes estimate   =   -2568.32491443 Ry
     estimated scf accuracy    <       6.83165226 Ry

     iteration #  7     ecut=    36.75 Ry     beta=0.30
     Davidson diagonalization with overlap
     ethr =  3.47E-03,  avg # of iterations =  1.0

     negative rho (up, down):  2.127E+00 0.000E+00
 
     Adding external electric field

     Computed dipole along edir(3) : 
        Dipole               -0.4690 Ry au,         -1.1921 Debye
        Dipole field         -0.0013 Ry au
 
        Potential amp.        0.1190 Ry
        Total length         45.2551 bohr
 

     total cpu time spent up to now is      386.6 secs

     total energy              =   -2568.11307247 Ry
     Harris-Foulkes estimate   =   -2568.27004291 Ry
     estimated scf accuracy    <       4.49769268 Ry

     iteration #  8     ecut=    36.75 Ry     beta=0.30
     Davidson diagonalization with overlap
     ethr =  2.28E-03,  avg # of iterations =  1.0

     negative rho (up, down):  2.123E+00 0.000E+00
 
     Adding external electric field

     Computed dipole along edir(3) : 
        Dipole               -0.5106 Ry au,         -1.2979 Debye
        Dipole field         -0.0014 Ry au
 
        Potential amp.        0.1296 Ry
        Total length         45.2551 bohr
 

     total cpu time spent up to now is      421.2 secs

     total energy              =   -2568.17598601 Ry
     Harris-Foulkes estimate   =   -2568.20061256 Ry
     estimated scf accuracy    <       0.36103220 Ry

     iteration #  9     ecut=    36.75 Ry     beta=0.30
     Davidson diagonalization with overlap
     ethr =  1.83E-04,  avg # of iterations =  1.8

     negative rho (up, down):  2.118E+00 0.000E+00
 
     Adding external electric field

     Computed dipole along edir(3) : 
        Dipole               -0.5014 Ry au,         -1.2745 Debye
        Dipole field         -0.0014 Ry au
 
        Potential amp.        0.1273 Ry
        Total length         45.2551 bohr
 

     total cpu time spent up to now is      457.1 secs

     total energy              =   -2568.18510404 Ry
     Harris-Foulkes estimate   =   -2568.19295359 Ry
     estimated scf accuracy    <       0.04070598 Ry

     iteration # 10     ecut=    36.75 Ry     beta=0.30
     Davidson diagonalization with overlap
     ethr =  2.07E-05,  avg # of iterations =  3.0

     negative rho (up, down):  2.117E+00 0.000E+00
 
     Adding external electric field

     Computed dipole along edir(3) : 
        Dipole               -0.4972 Ry au,         -1.2637 Debye
        Dipole field         -0.0014 Ry au
 
        Potential amp.        0.1262 Ry
        Total length         45.2551 bohr
 

     total cpu time spent up to now is      496.0 secs

     total energy              =   -2568.18729755 Ry
     Harris-Foulkes estimate   =   -2568.19075083 Ry
     estimated scf accuracy    <       0.08684676 Ry

     iteration # 11     ecut=    36.75 Ry     beta=0.30
     Davidson diagonalization with overlap
     ethr =  2.07E-05,  avg # of iterations =  1.1

     negative rho (up, down):  2.116E+00 0.000E+00
 
     Adding external electric field

     Computed dipole along edir(3) : 
        Dipole               -0.4838 Ry au,         -1.2297 Debye
        Dipole field         -0.0014 Ry au
 
        Potential amp.        0.1228 Ry
        Total length         45.2551 bohr
 

     total cpu time spent up to now is      530.8 secs

     total energy              =   -2568.18727480 Ry
     Harris-Foulkes estimate   =   -2568.18934199 Ry
     estimated scf accuracy    <       0.10158869 Ry

     iteration # 12     ecut=    36.75 Ry     beta=0.30
     Davidson diagonalization with overlap
     ethr =  2.07E-05,  avg # of iterations =  1.0

     negative rho (up, down):  2.116E+00 0.000E+00
 
     Adding external electric field

     Computed dipole along edir(3) : 
        Dipole               -0.4597 Ry au,         -1.1685 Debye
        Dipole field         -0.0013 Ry au
 
        Potential amp.        0.1167 Ry
        Total length         45.2551 bohr
 

     total cpu time spent up to now is      565.8 secs

     total energy              =   -2568.18763945 Ry
     Harris-Foulkes estimate   =   -2568.18808002 Ry
     estimated scf accuracy    <       0.02196784 Ry

     iteration # 13     ecut=    36.75 Ry     beta=0.30
     Davidson diagonalization with overlap
     ethr =  1.12E-05,  avg # of iterations =  1.0

     negative rho (up, down):  2.115E+00 0.000E+00
 
     Adding external electric field

     Computed dipole along edir(3) : 
        Dipole               -0.3886 Ry au,         -0.9876 Debye
        Dipole field         -0.0011 Ry au
 
        Potential amp.        0.0986 Ry
        Total length         45.2551 bohr
 

     total cpu time spent up to now is      600.7 secs

     total energy              =   -2568.18769089 Ry
     Harris-Foulkes estimate   =   -2568.18799903 Ry
     estimated scf accuracy    <       0.00775307 Ry

     iteration # 14     ecut=    36.75 Ry     beta=0.30
     Davidson diagonalization with overlap
     ethr =  3.94E-06,  avg # of iterations =  1.6

     negative rho (up, down):  2.116E+00 0.000E+00
 
     Adding external electric field

     Computed dipole along edir(3) : 
        Dipole               -0.3479 Ry au,         -0.8844 Debye
        Dipole field         -0.0010 Ry au
 
        Potential amp.        0.0883 Ry
        Total length         45.2551 bohr
 

     total cpu time spent up to now is      636.3 secs

     total energy              =   -2568.18780238 Ry
     Harris-Foulkes estimate   =   -2568.18788268 Ry
     estimated scf accuracy    <       0.00040919 Ry

     iteration # 15     ecut=    36.75 Ry     beta=0.30
     Davidson diagonalization with overlap
     ethr =  2.08E-07,  avg # of iterations =  3.5

     negative rho (up, down):  2.116E+00 0.000E+00
 
     Adding external electric field

     Computed dipole along edir(3) : 
        Dipole               -0.3363 Ry au,         -0.8547 Debye
        Dipole field         -0.0009 Ry au
 
        Potential amp.        0.0853 Ry
        Total length         45.2551 bohr
 

     total cpu time spent up to now is      675.6 secs

     total energy              =   -2568.18780434 Ry
     Harris-Foulkes estimate   =   -2568.18784387 Ry
     estimated scf accuracy    <       0.00018139 Ry

     iteration # 16     ecut=    36.75 Ry     beta=0.30
     Davidson diagonalization with overlap
     ethr =  9.21E-08,  avg # of iterations =  1.8

     negative rho (up, down):  2.116E+00 0.000E+00
 
     Adding external electric field

     Computed dipole along edir(3) : 
        Dipole               -0.3209 Ry au,         -0.8157 Debye
        Dipole field         -0.0009 Ry au
 
        Potential amp.        0.0815 Ry
        Total length         45.2551 bohr
 

     total cpu time spent up to now is      711.4 secs

     total energy              =   -2568.18780917 Ry
     Harris-Foulkes estimate   =   -2568.18784986 Ry
     estimated scf accuracy    <       0.00008675 Ry

     iteration # 17     ecut=    36.75 Ry     beta=0.30
     Davidson diagonalization with overlap
     ethr =  4.40E-08,  avg # of iterations =  1.6

     negative rho (up, down):  2.117E+00 0.000E+00
 
     Adding external electric field

     Computed dipole along edir(3) : 
        Dipole               -0.3129 Ry au,         -0.7954 Debye
        Dipole field         -0.0009 Ry au
 
        Potential amp.        0.0794 Ry
        Total length         45.2551 bohr
 

     total cpu time spent up to now is      747.2 secs

     total energy              =   -2568.18781176 Ry
     Harris-Foulkes estimate   =   -2568.18783083 Ry
     estimated scf accuracy    <       0.00004425 Ry

     iteration # 18     ecut=    36.75 Ry     beta=0.30
     Davidson diagonalization with overlap
     ethr =  2.25E-08,  avg # of iterations =  1.0

     negative rho (up, down):  2.117E+00 0.000E+00

     negative rho (up, down):  2.117E+00 0.000E+00

     negative rho (up, down):  2.117E+00 0.000E+00

     negative rho (up, down):  2.117E+00 0.000E+00

     negative rho (up, down):  2.117E+00 0.000E+00

     negative rho (up, down):  2.117E+00 0.000E+00

     negative rho (up, down):  2.117E+00 0.000E+00

     negative rho (up, down):  2.117E+00 0.000E+00

     negative rho (up, down):  2.117E+00 0.000E+00

     negative rho (up, down):  2.117E+00 0.000E+00

     negative rho (up, down):  2.117E+00 0.000E+00

     negative rho (up, down):  2.117E+00 0.000E+00

     negative rho (up, down):  2.117E+00 0.000E+00

     negative rho (up, down):  2.117E+00 0.000E+00

     negative rho (up, down):  2.117E+00 0.000E+00

     negative rho (up, down):  2.117E+00 0.000E+00

     negative rho (up, down):  2.117E+00 0.000E+00

     negative rho (up, down):  2.117E+00 0.000E+00

     negative rho (up, down):  2.117E+00 0.000E+00

     negative rho (up, down):  2.117E+00 0.000E+00

     negative rho (up, down):  2.117E+00 0.000E+00

     negative rho (up, down):  2.117E+00 0.000E+00

     negative rho (up, down):  2.117E+00 0.000E+00

     negative rho (up, down):  2.117E+00 0.000E+00

     negative rho (up, down):  2.117E+00 0.000E+00

     negative rho (up, down):  2.117E+00 0.000E+00

     negative rho (up, down):  2.117E+00 0.000E+00

     negative rho (up, down):  2.117E+00 0.000E+00

     negative rho (up, down):  2.117E+00 0.000E+00

     negative rho (up, down):  2.117E+00 0.000E+00

     negative rho (up, down):  2.117E+00 0.000E+00

     negative rho (up, down):  2.117E+00 0.000E+00

     negative rho (up, down):  2.117E+00 0.000E+00

     negative rho (up, down):  2.117E+00 0.000E+00

     negative rho (up, down):  2.117E+00 0.000E+00
 
     Adding external electric field

     Computed dipole along edir(3) : 
        Dipole               -0.2946 Ry au,         -0.7489 Debye
        Dipole field         -0.0008 Ry au
 
        Potential amp.        0.0748 Ry
        Total length         45.2551 bohr
 

     total cpu time spent up to now is      832.4 secs

     End of self-consistent calculation

          k = 0.0000 0.0000 0.0000 ( 16787 PWs)   bands (ev):

   -51.5637 -51.5545 -51.5534 -51.4951 -51.4420 -51.4408 -51.4346 -51.3462
   -51.3333 -51.3322 -51.3152 -51.2992 -51.2984 -51.2302 -51.2301 -51.2124
   -51.2117 -51.1915 -51.1868 -51.1861 -51.1735 -51.1140 -51.0723 -51.0712
   -50.9664 -50.9661 -50.9452 -50.9288 -50.9286 -50.8780 -50.8779 -50.8037
   -50.7476 -50.7297 -50.7285 -50.6884 -10.7221  -7.3170  -5.5821  -5.1778
    -4.8309  -4.8306  -4.8212  -4.6302  -4.6101  -4.6100  -4.1689  -4.1688
    -4.1662  -4.0208  -3.9984  -3.9981  -2.6950  -2.6225  -2.6221  -2.2426
    -2.2304  -2.2303  -2.0631  -1.9464  -1.9464  -1.6801  -1.6801  -1.6404
    -1.5297  -1.5212  -1.5211  -1.4317  -1.4317  -1.0803  -1.0796  -0.8545
    -0.1980  -0.1489  -0.1486  -0.0522   0.0393   0.0393   0.1761   0.1767
     0.5456   0.5457   0.6187   0.7155   0.7160   1.1946   1.2120   1.2121
     1.2454   1.3475   1.3477   1.5257   1.6014   1.6072   1.6077   1.7944
     1.8019   1.8022   1.8815   1.8819   1.9948   1.9952   2.0005   2.6491
     2.8061   2.8061   3.7023   4.4630

          k = 0.0000 0.0344 0.0000 ( 16839 PWs)   bands (ev):

   -51.5502 -51.5424 -51.5348 -51.4831 -51.4368 -51.4334 -51.4290 -51.3457
   -51.3322 -51.3297 -51.3195 -51.3107 -51.2963 -51.2483 -51.2344 -51.2256
   -51.2162 -51.1972 -51.1767 -51.1730 -51.1605 -51.1116 -51.0755 -51.0729
   -50.9784 -50.9695 -50.9480 -50.9403 -50.9316 -50.8988 -50.8833 -50.8028
   -50.7469 -50.7297 -50.7296 -50.6884 -10.7170  -7.0822  -5.3462  -4.9548
    -4.8207  -4.6503  -4.6447  -4.5353  -4.4593  -4.4452  -4.1061  -4.0686
    -4.0679  -3.8902  -3.7929  -3.7780  -2.6703  -2.6145  -2.5796  -2.1812
    -2.1668  -2.1375  -2.1288  -2.0717  -1.9703  -1.7808  -1.7254  -1.6972
    -1.5483  -1.5321  -1.4694  -1.4629  -1.2647  -1.2259  -1.1093  -0.9866
    -0.4429  -0.3893  -0.3319  -0.1364  -0.1050  -0.0162  -0.0119   0.0616
     0.1347   0.4623   0.5084   0.6662   0.6825   0.7929   0.7931   1.0087
     1.0627   1.0760   1.1379   1.2489   1.3089   1.3473   1.3550   1.3860
     1.4679   1.5875   1.6177   1.6923   1.7292   1.8327   1.9202   2.2651
     2.7725   3.2917   3.3402   3.8562

          k = 0.0000 0.0689 0.0000 ( 16852 PWs)   bands (ev):

   -51.5207 -51.5123 -51.4837 -51.4551 -51.4285 -51.4180 -51.4126 -51.3584
   -51.3453 -51.3385 -51.3215 -51.3069 -51.3027 -51.2827 -51.2532 -51.2488
   -51.2344 -51.2020 -51.1547 -51.1425 -51.1185 -51.1060 -51.0832 -51.0738
   -51.0086 -50.9905 -50.9647 -50.9549 -50.9392 -50.9373 -50.8972 -50.8009
   -50.7450 -50.7324 -50.7294 -50.6884 -10.7072  -6.4319  -4.9720  -4.7396
    -4.3816  -4.3346  -4.1885  -4.1873  -4.0786  -4.0633  -3.9338  -3.7467
    -3.7465  -3.5686  -3.2140  -3.1863  -2.6983  -2.6678  -2.6293  -2.4568
    -2.4044  -2.1975  -2.1536  -2.0951  -2.0272  -1.8716  -1.8527  -1.6784
    -1.5489  -1.4701  -1.3800  -1.3723  -1.3379  -1.2977  -1.2233  -0.9845
    -0.8897  -0.7835  -0.7587  -0.6794  -0.5326  -0.5212  -0.3881  -0.3676
    -0.3486  -0.2700  -0.1823  -0.0789   0.2050   0.2101   0.3677   0.4598
     0.4827   0.6132   0.6291   0.6506   0.8253   0.8340   0.9921   1.0597
     1.1939   1.3658   1.4280   1.5206   1.5619   1.6969   1.9186   2.1573
     2.9039   3.5609   3.6363   4.2928

          k = 0.0000-0.1033 0.0000 ( 16880 PWs)   bands (ev):

   -51.5009 -51.4913 -51.4612 -51.4252 -51.4105 -51.4032 -51.3965 -51.3814
   -51.3794 -51.3576 -51.3381 -51.3078 -51.2876 -51.2739 -51.2681 -51.2629
   -51.2579 -51.2022 -51.1404 -51.1220 -51.1062 -51.0916 -51.0741 -51.0624
   -51.0244 -51.0149 -51.0059 -50.9773 -50.9407 -50.9263 -50.9104 -50.8000
   -50.7437 -50.7340 -50.7293 -50.6884 -10.7024  -5.5929  -5.5684  -4.2860
    -4.2387  -3.9098  -3.8760  -3.8754  -3.8647  -3.8353  -3.8327  -3.3309
    -3.3270  -3.1386  -3.0855  -2.9650  -2.9288  -2.6728  -2.6133  -2.6023
    -2.5918  -2.4384  -2.4062  -2.0194  -1.9869  -1.8077  -1.7021  -1.6800
    -1.6672  -1.6052  -1.5147  -1.4348  -1.3092  -1.3059  -1.2749  -1.2635
    -1.2502  -1.2047  -1.1731  -1.1460  -1.1062  -0.6486  -0.5697  -0.5120
    -0.4355  -0.3903  -0.3032  -0.1357  -0.1265  -0.0769  -0.0068   0.0956
     0.1611   0.3431   0.3612   0.5292   0.5662   0.6350   0.7129   1.0246
     1.1499   1.3667   1.4079   1.5409   1.5667   1.7379   1.9151   2.1288
     3.5067   3.5487   3.6378   3.8239

          k = 0.0298-0.0172 0.0000 ( 16839 PWs)   bands (ev):

   -51.5506 -51.5415 -51.5351 -51.4830 -51.4366 -51.4342 -51.4286 -51.3457
   -51.3328 -51.3289 -51.3201 -51.3099 -51.2967 -51.2483 -51.2344 -51.2262
   -51.2159 -51.1969 -51.1772 -51.1724 -51.1606 -51.1116 -51.0764 -51.0720
   -50.9787 -50.9689 -50.9483 -50.9401 -50.9318 -50.8990 -50.8831 -50.8028
   -50.7468 -50.7308 -50.7286 -50.6884 -10.7170  -7.0822  -5.3462  -4.9548
    -4.8207  -4.6501  -4.6449  -4.5353  -4.4594  -4.4451  -4.1061  -4.0687
    -4.0678  -3.8903  -3.7927  -3.7782  -2.6701  -2.6148  -2.5794  -2.1812
    -2.1668  -2.1376  -2.1288  -2.0716  -1.9703  -1.7809  -1.7254  -1.6971
    -1.5484  -1.5321  -1.4693  -1.4629  -1.2647  -1.2261  -1.1089  -0.9867
    -0.4429  -0.3893  -0.3321  -0.1362  -0.1049  -0.0163  -0.0119   0.0616
     0.1348   0.4623   0.5083   0.6659   0.6827   0.7930   0.7931   1.0087
     1.0625   1.0761   1.1380   1.2490   1.3088   1.3474   1.3553   1.3857
     1.4676   1.5874   1.6179   1.6923   1.7293   1.8327   1.9203   2.2651
     2.7725   3.2917   3.3401   3.8561

          k = 0.0298 0.0172 0.0000 ( 16839 PWs)   bands (ev):

   -51.5506 -51.5416 -51.5351 -51.4830 -51.4366 -51.4341 -51.4286 -51.3457
   -51.3328 -51.3290 -51.3201 -51.3099 -51.2966 -51.2483 -51.2344 -51.2262
   -51.2159 -51.1969 -51.1772 -51.1724 -51.1606 -51.1116 -51.0763 -51.0721
   -50.9786 -50.9689 -50.9483 -50.9402 -50.9318 -50.8990 -50.8831 -50.8028
   -50.7468 -50.7308 -50.7286 -50.6884 -10.7170  -7.0822  -5.3462  -4.9548
    -4.8207  -4.6501  -4.6449  -4.5353  -4.4594  -4.4451  -4.1061  -4.0687
    -4.0678  -3.8903  -3.7927  -3.7782  -2.6701  -2.6148  -2.5794  -2.1812
    -2.1668  -2.1376  -2.1288  -2.0716  -1.9703  -1.7809  -1.7254  -1.6971
    -1.5484  -1.5321  -1.4693  -1.4629  -1.2647  -1.2261  -1.1089  -0.9867
    -0.4429  -0.3893  -0.3320  -0.1362  -0.1049  -0.0163  -0.0119   0.0616
     0.1348   0.4623   0.5083   0.6659   0.6827   0.7930   0.7931   1.0087
     1.0625   1.0761   1.1380   1.2490   1.3088   1.3474   1.3553   1.3857
     1.4676   1.5875   1.6179   1.6923   1.7293   1.8327   1.9203   2.2651
     2.7725   3.2917   3.3401   3.8562

          k = 0.0298 0.0517 0.0000 ( 16840 PWs)   bands (ev):

   -51.5317 -51.5104 -51.5054 -51.4632 -51.4306 -51.4241 -51.4163 -51.3593
   -51.3445 -51.3259 -51.3153 -51.3045 -51.2993 -51.2854 -51.2516 -51.2406
   -51.2215 -51.2061 -51.1622 -51.1442 -51.1367 -51.1082 -51.0814 -51.0741
   -51.0097 -50.9643 -50.9560 -50.9538 -50.9381 -50.9353 -50.8940 -50.8014
   -50.7454 -50.7323 -50.7289 -50.6884 -10.7096  -6.6360  -4.9130  -4.6868
    -4.6680  -4.5455  -4.3066  -4.2836  -4.1839  -4.1393  -3.9390  -3.9310
    -3.8088  -3.5912  -3.5736  -3.2872  -2.7182  -2.5657  -2.5564  -2.4929
    -2.2568  -2.1675  -2.0914  -2.0413  -1.9917  -1.9696  -1.7637  -1.7381
    -1.6233  -1.5495  -1.4379  -1.3323  -1.2811  -1.2643  -1.2355  -0.9187
    -0.8172  -0.7564  -0.6130  -0.5191  -0.3548  -0.2756  -0.2034  -0.1907
    -0.1799  -0.1164  -0.0805   0.1072   0.1241   0.3342   0.3790   0.6133
     0.6310   0.7830   0.8079   0.8794   0.9517   1.1223   1.1613   1.2404
     1.3625   1.4296   1.5108   1.5724   1.6854   1.8001   2.0092   2.0382
     2.5500   2.6148   3.0567   4.6631

          k = 0.0298-0.1206 0.0000 ( 16875 PWs)   bands (ev):

   -51.5014 -51.4774 -51.4595 -51.4328 -51.4229 -51.4145 -51.4012 -51.3985
   -51.3567 -51.3410 -51.3264 -51.3148 -51.2907 -51.2799 -51.2738 -51.2595
   -51.2421 -51.2133 -51.1376 -51.1131 -51.1063 -51.0932 -51.0804 -51.0754
   -51.0472 -51.0025 -50.9721 -50.9701 -50.9462 -50.9391 -50.9129 -50.8000
   -50.7432 -50.7351 -50.7287 -50.6884 -10.7025  -5.8544  -5.0537  -4.3864
    -4.2744  -4.0901  -3.9185  -3.9041  -3.8045  -3.7231  -3.6885  -3.5413
    -3.3200  -3.2219  -3.0556  -3.0047  -2.8915  -2.6831  -2.6597  -2.6360
    -2.5657  -2.3828  -2.3090  -2.2031  -2.1264  -1.8910  -1.8386  -1.7861
    -1.6772  -1.6451  -1.5852  -1.5408  -1.5097  -1.4456  -1.3415  -1.1950
    -1.1647  -1.0512  -0.9580  -0.9494  -0.8845  -0.7937  -0.5365  -0.4652
    -0.4113  -0.3198  -0.2348  -0.1796  -0.1259   0.0062   0.0978   0.2723
     0.3804   0.4784   0.5920   0.6772   0.7939   0.8884   0.9894   1.0262
     1.1383   1.2196   1.3187   1.3858   1.4745   1.6939   1.7649   2.1119
     2.2320   2.8720   3.4256   4.1667

          k = 0.0298-0.0861 0.0000 ( 16875 PWs)   bands (ev):

   -51.5014 -51.4774 -51.4595 -51.4327 -51.4229 -51.4145 -51.4012 -51.3984
   -51.3567 -51.3410 -51.3264 -51.3148 -51.2907 -51.2799 -51.2738 -51.2595
   -51.2420 -51.2133 -51.1376 -51.1131 -51.1063 -51.0932 -51.0804 -51.0754
   -51.0472 -51.0025 -50.9721 -50.9701 -50.9462 -50.9391 -50.9129 -50.8000
   -50.7432 -50.7351 -50.7287 -50.6884 -10.7025  -5.8544  -5.0537  -4.3864
    -4.2744  -4.0901  -3.9185  -3.9041  -3.8045  -3.7231  -3.6885  -3.5413
    -3.3200  -3.2219  -3.0556  -3.0047  -2.8915  -2.6831  -2.6597  -2.6360
    -2.5657  -2.3828  -2.3090  -2.2031  -2.1264  -1.8910  -1.8386  -1.7861
    -1.6772  -1.6451  -1.5852  -1.5408  -1.5096  -1.4456  -1.3415  -1.1950
    -1.1647  -1.0512  -0.9580  -0.9494  -0.8845  -0.7937  -0.5365  -0.4652
    -0.4113  -0.3198  -0.2348  -0.1796  -0.1259   0.0062   0.0978   0.2723
     0.3804   0.4784   0.5920   0.6772   0.7939   0.8884   0.9894   1.0262
     1.1383   1.2196   1.3187   1.3858   1.4745   1.6939   1.7649   2.1119
     2.2320   2.8720   3.4256   4.1667

          k = 0.0298-0.0517 0.0000 ( 16840 PWs)   bands (ev):

   -51.5318 -51.5103 -51.5054 -51.4632 -51.4305 -51.4242 -51.4163 -51.3593
   -51.3444 -51.3259 -51.3153 -51.3045 -51.2993 -51.2854 -51.2516 -51.2406
   -51.2215 -51.2060 -51.1622 -51.1442 -51.1367 -51.1082 -51.0814 -51.0740
   -51.0097 -50.9643 -50.9560 -50.9538 -50.9381 -50.9352 -50.8940 -50.8014
   -50.7453 -50.7324 -50.7289 -50.6884 -10.7096  -6.6360  -4.9129  -4.6868
    -4.6680  -4.5455  -4.3066  -4.2836  -4.1839  -4.1393  -3.9390  -3.9310
    -3.8088  -3.5912  -3.5736  -3.2872  -2.7182  -2.5657  -2.5564  -2.4929
    -2.2568  -2.1675  -2.0914  -2.0413  -1.9917  -1.9696  -1.7637  -1.7381
    -1.6233  -1.5495  -1.4379  -1.3323  -1.2811  -1.2643  -1.2355  -0.9187
    -0.8172  -0.7564  -0.6130  -0.5192  -0.3548  -0.2756  -0.2034  -0.1907
    -0.1798  -0.1164  -0.0805   0.1072   0.1241   0.3342   0.3790   0.6133
     0.6310   0.7830   0.8079   0.8794   0.9517   1.1223   1.1613   1.2404
     1.3624   1.4297   1.5108   1.5724   1.6854   1.8001   2.0092   2.0382
     2.5500   2.6148   3.0567   4.6631

          k = 0.0597-0.0344 0.0000 ( 16852 PWs)   bands (ev):

   -51.5216 -51.5111 -51.4836 -51.4546 -51.4291 -51.4190 -51.4118 -51.3593
   -51.3446 -51.3380 -51.3212 -51.3077 -51.3027 -51.2829 -51.2535 -51.2489
   -51.2345 -51.2011 -51.1553 -51.1418 -51.1183 -51.1061 -51.0841 -51.0729
   -51.0090 -50.9898 -50.9646 -50.9551 -50.9397 -50.9375 -50.8969 -50.8009
   -50.7446 -50.7337 -50.7285 -50.6884 -10.7072  -6.4319  -4.9720  -4.7396
    -4.3815  -4.3347  -4.1884  -4.1874  -4.0790  -4.0629  -3.9338  -3.7468
    -3.7465  -3.5686  -3.2137  -3.1865  -2.6979  -2.6682  -2.6293  -2.4568
    -2.4044  -2.1975  -2.1535  -2.0949  -2.0274  -1.8716  -1.8528  -1.6785
    -1.5487  -1.4702  -1.3800  -1.3723  -1.3376  -1.2981  -1.2233  -0.9847
    -0.8896  -0.7834  -0.7587  -0.6793  -0.5328  -0.5211  -0.3883  -0.3672
    -0.3486  -0.2701  -0.1821  -0.0789   0.2049   0.2101   0.3679   0.4598
     0.4827   0.6132   0.6291   0.6505   0.8252   0.8338   0.9921   1.0600
     1.1935   1.3661   1.4274   1.5206   1.5621   1.6972   1.9188   2.1572
     2.9038   3.5608   3.6363   4.2927

          k = 0.0597 0.0000 0.0000 ( 16840 PWs)   bands (ev):

   -51.5320 -51.5095 -51.5059 -51.4630 -51.4296 -51.4259 -51.4159 -51.3595
   -51.3443 -51.3254 -51.3156 -51.3044 -51.2997 -51.2853 -51.2523 -51.2408
   -51.2210 -51.2056 -51.1624 -51.1440 -51.1368 -51.1081 -51.0822 -51.0734
   -51.0095 -50.9643 -50.9559 -50.9543 -50.9383 -50.9351 -50.8939 -50.8014
   -50.7451 -50.7332 -50.7283 -50.6884 -10.7096  -6.6360  -4.9129  -4.6868
    -4.6680  -4.5455  -4.3066  -4.2836  -4.1839  -4.1393  -3.9390  -3.9310
    -3.8088  -3.5913  -3.5735  -3.2872  -2.7181  -2.5657  -2.5565  -2.4929
    -2.2568  -2.1674  -2.0915  -2.0411  -1.9918  -1.9696  -1.7638  -1.7380
    -1.6233  -1.5495  -1.4380  -1.3324  -1.2810  -1.2643  -1.2355  -0.9187
    -0.8174  -0.7563  -0.6127  -0.5193  -0.3547  -0.2758  -0.2036  -0.1907
    -0.1794  -0.1164  -0.0805   0.1070   0.1240   0.3344   0.3789   0.6131
     0.6314   0.7828   0.8078   0.8793   0.9518   1.1223   1.1617   1.2401
     1.3622   1.4299   1.5109   1.5725   1.6855   1.8001   2.0092   2.0382
     2.5501   2.6147   3.0567   4.6631

          k = 0.0597 0.0344 0.0000 ( 16852 PWs)   bands (ev):

   -51.5216 -51.5112 -51.4836 -51.4546 -51.4291 -51.4190 -51.4118 -51.3592
   -51.3447 -51.3380 -51.3212 -51.3077 -51.3027 -51.2829 -51.2535 -51.2489
   -51.2345 -51.2011 -51.1553 -51.1418 -51.1183 -51.1061 -51.0841 -51.0729
   -51.0089 -50.9898 -50.9646 -50.9550 -50.9397 -50.9375 -50.8969 -50.8009
   -50.7446 -50.7337 -50.7285 -50.6884 -10.7072  -6.4319  -4.9720  -4.7396
    -4.3815  -4.3347  -4.1884  -4.1874  -4.0790  -4.0629  -3.9338  -3.7468
    -3.7465  -3.5686  -3.2137  -3.1865  -2.6979  -2.6682  -2.6293  -2.4568
    -2.4044  -2.1975  -2.1536  -2.0949  -2.0273  -1.8716  -1.8528  -1.6785
    -1.5488  -1.4702  -1.3800  -1.3723  -1.3376  -1.2981  -1.2233  -0.9847
    -0.8896  -0.7834  -0.7587  -0.6793  -0.5328  -0.5211  -0.3883  -0.3672
    -0.3486  -0.2701  -0.1822  -0.0789   0.2049   0.2101   0.3679   0.4598
     0.4827   0.6132   0.6291   0.6505   0.8252   0.8338   0.9921   1.0600
     1.1935   1.3660   1.4275   1.5206   1.5621   1.6972   1.9188   2.1572
     2.9038   3.5608   3.6363   4.2927

          k = 0.0597-0.1378 0.0000 ( 16875 PWs)   bands (ev):

   -51.5018 -51.4768 -51.4588 -51.4330 -51.4237 -51.4147 -51.4006 -51.3989
   -51.3564 -51.3405 -51.3264 -51.3153 -51.2909 -51.2803 -51.2733 -51.2595
   -51.2427 -51.2124 -51.1379 -51.1128 -51.1058 -51.0940 -51.0803 -51.0749
   -51.0477 -51.0021 -50.9721 -50.9700 -50.9463 -50.9396 -50.9126 -50.8000
   -50.7427 -50.7359 -50.7283 -50.6884 -10.7025  -5.8544  -5.0537  -4.3864
    -4.2744  -4.0901  -3.9185  -3.9041  -3.8044  -3.7233  -3.6884  -3.5413
    -3.3200  -3.2219  -3.0555  -3.0048  -2.8915  -2.6831  -2.6597  -2.6361
    -2.5657  -2.3827  -2.3090  -2.2031  -2.1263  -1.8911  -1.8385  -1.7862
    -1.6772  -1.6451  -1.5852  -1.5408  -1.5096  -1.4458  -1.3416  -1.1949
    -1.1647  -1.0512  -0.9579  -0.9494  -0.8846  -0.7937  -0.5363  -0.4654
    -0.4112  -0.3201  -0.2346  -0.1796  -0.1259   0.0061   0.0979   0.2723
     0.3804   0.4782   0.5923   0.6772   0.7937   0.8882   0.9894   1.0265
     1.1380   1.2199   1.3184   1.3856   1.4749   1.6939   1.7652   2.1117
     2.2320   2.8720   3.4256   4.1668

          k = 0.0597-0.1033 0.0000 ( 16878 PWs)   bands (ev):

   -51.4699 -51.4637 -51.4369 -51.4342 -51.4233 -51.4154 -51.4023 -51.4010
   -51.3936 -51.3415 -51.3256 -51.3042 -51.2918 -51.2881 -51.2742 -51.2448
   -51.2436 -51.2423 -51.1096 -51.1040 -51.1003 -51.0969 -51.0787 -51.0632
   -51.0593 -51.0465 -50.9616 -50.9614 -50.9458 -50.9448 -50.9361 -50.7995
   -50.7401 -50.7388 -50.7281 -50.6884 -10.7002  -5.0704  -5.0370  -5.0342
    -3.8756  -3.8270  -3.8268  -3.5083  -3.4568  -3.4218  -3.3884  -3.3557
    -3.3534  -3.1733  -3.1667  -3.1496  -2.8238  -2.7958  -2.7002  -2.6467
    -2.6168  -2.4259  -2.4159  -2.3751  -2.1669  -2.1399  -2.1056  -1.9974
    -1.9893  -1.9767  -1.9055  -1.5958  -1.5870  -1.3701  -1.3198  -1.2155
    -1.2067  -1.1792  -1.1469  -1.1275  -1.1022  -0.5703  -0.5589  -0.5086
    -0.4394  -0.3295  -0.1461  -0.0964  -0.0432   0.1725   0.1780   0.2537
     0.5856   0.6606   0.7458   0.7987   0.9222   1.0223   1.0314   1.0383
     1.0533   1.0811   1.1421   1.1566   1.1754   1.2194   1.2737   1.8301
     1.9154   2.4290   3.8978   4.0589

          k = 0.0597-0.0689 0.0000 ( 16875 PWs)   bands (ev):

   -51.5018 -51.4768 -51.4588 -51.4330 -51.4237 -51.4148 -51.4006 -51.3989
   -51.3563 -51.3405 -51.3264 -51.3153 -51.2910 -51.2803 -51.2733 -51.2595
   -51.2427 -51.2123 -51.1379 -51.1128 -51.1058 -51.0940 -51.0803 -51.0749
   -51.0477 -51.0021 -50.9721 -50.9700 -50.9463 -50.9396 -50.9125 -50.8000
   -50.7427 -50.7360 -50.7283 -50.6884 -10.7025  -5.8544  -5.0537  -4.3864
    -4.2744  -4.0901  -3.9185  -3.9041  -3.8044  -3.7233  -3.6883  -3.5413
    -3.3200  -3.2219  -3.0555  -3.0048  -2.8915  -2.6831  -2.6597  -2.6361
    -2.5657  -2.3827  -2.3090  -2.2031  -2.1263  -1.8911  -1.8385  -1.7862
    -1.6771  -1.6451  -1.5852  -1.5408  -1.5096  -1.4458  -1.3416  -1.1949
    -1.1647  -1.0512  -0.9579  -0.9494  -0.8846  -0.7937  -0.5363  -0.4654
    -0.4112  -0.3201  -0.2346  -0.1796  -0.1259   0.0061   0.0979   0.2723
     0.3804   0.4782   0.5923   0.6772   0.7937   0.8881   0.9895   1.0265
     1.1380   1.2199   1.3183   1.3856   1.4750   1.6939   1.7652   2.1117
     2.2320   2.8720   3.4256   4.1668

          k =-0.0895 0.0517 0.0000 ( 16880 PWs)   bands (ev):

   -51.5023 -51.4897 -51.4598 -51.4261 -51.4116 -51.4025 -51.3978 -51.3806
   -51.3798 -51.3567 -51.3371 -51.3093 -51.2885 -51.2733 -51.2678 -51.2642
   -51.2569 -51.2012 -51.1411 -51.1211 -51.1057 -51.0930 -51.0732 -51.0624
   -51.0237 -51.0165 -51.0051 -50.9772 -50.9410 -50.9273 -50.9095 -50.8000
   -50.7428 -50.7358 -50.7283 -50.6884 -10.7024  -5.5932  -5.5681  -4.2858
    -4.2388  -3.9097  -3.8764  -3.8750  -3.8650  -3.8356  -3.8321  -3.3303
    -3.3276  -3.1385  -3.0855  -2.9646  -2.9293  -2.6732  -2.6133  -2.6027
    -2.5910  -2.4379  -2.4068  -2.0191  -1.9872  -1.8079  -1.7021  -1.6798
    -1.6672  -1.6052  -1.5149  -1.4349  -1.3089  -1.3061  -1.2749  -1.2635
    -1.2499  -1.2039  -1.1740  -1.1462  -1.1062  -0.6487  -0.5693  -0.5117
    -0.4357  -0.3904  -0.3037  -0.1354  -0.1264  -0.0765  -0.0072   0.0961
     0.1608   0.3429   0.3616   0.5291   0.5662   0.6350   0.7126   1.0249
     1.1494   1.3672   1.4071   1.5409   1.5670   1.7381   1.9153   2.1287
     3.5065   3.5487   3.6378   3.8240

          k =-0.0895 0.0861 0.0000 ( 16875 PWs)   bands (ev):

   -51.5019 -51.4767 -51.4587 -51.4325 -51.4231 -51.4160 -51.4006 -51.3989
   -51.3563 -51.3403 -51.3263 -51.3152 -51.2912 -51.2803 -51.2743 -51.2596
   -51.2417 -51.2122 -51.1380 -51.1127 -51.1059 -51.0941 -51.0806 -51.0746
   -51.0471 -51.0027 -50.9720 -50.9700 -50.9464 -50.9395 -50.9125 -50.8000
   -50.7425 -50.7364 -50.7282 -50.6884 -10.7025  -5.8544  -5.0537  -4.3864
    -4.2744  -4.0901  -3.9185  -3.9041  -3.8044  -3.7231  -3.6885  -3.5414
    -3.3200  -3.2219  -3.0555  -3.0048  -2.8915  -2.6831  -2.6596  -2.6361
    -2.5657  -2.3828  -2.3090  -2.2031  -2.1263  -1.8913  -1.8386  -1.7861
    -1.6770  -1.6451  -1.5853  -1.5409  -1.5094  -1.4458  -1.3416  -1.1949
    -1.1646  -1.0514  -0.9578  -0.9493  -0.8846  -0.7937  -0.5364  -0.4653
    -0.4110  -0.3200  -0.2348  -0.1796  -0.1259   0.0060   0.0979   0.2723
     0.3804   0.4782   0.5923   0.6771   0.7937   0.8881   0.9895   1.0265
     1.1381   1.2199   1.3183   1.3856   1.4750   1.6939   1.7652   2.1117
     2.2320   2.8720   3.4255   4.1669

          k =-0.0895 0.1206 0.0000 ( 16875 PWs)   bands (ev):

   -51.5018 -51.4767 -51.4588 -51.4325 -51.4230 -51.4160 -51.4006 -51.3989
   -51.3564 -51.3403 -51.3263 -51.3151 -51.2911 -51.2803 -51.2744 -51.2596
   -51.2417 -51.2123 -51.1380 -51.1127 -51.1059 -51.0940 -51.0806 -51.0747
   -51.0470 -51.0027 -50.9720 -50.9700 -50.9464 -50.9395 -50.9125 -50.8000
   -50.7425 -50.7363 -50.7282 -50.6884 -10.7025  -5.8544  -5.0537  -4.3864
    -4.2744  -4.0901  -3.9185  -3.9041  -3.8044  -3.7231  -3.6885  -3.5414
    -3.3200  -3.2219  -3.0555  -3.0048  -2.8915  -2.6831  -2.6596  -2.6361
    -2.5657  -2.3828  -2.3090  -2.2031  -2.1263  -1.8913  -1.8386  -1.7861
    -1.6770  -1.6452  -1.5853  -1.5409  -1.5094  -1.4458  -1.3416  -1.1949
    -1.1646  -1.0514  -0.9578  -0.9493  -0.8846  -0.7937  -0.5365  -0.4653
    -0.4110  -0.3200  -0.2348  -0.1796  -0.1259   0.0060   0.0979   0.2723
     0.3804   0.4782   0.5923   0.6771   0.7937   0.8881   0.9895   1.0264
     1.1381   1.2199   1.3183   1.3856   1.4749   1.6939   1.7652   2.1117
     2.2320   2.8720   3.4255   4.1669

          k =-0.0895-0.0517 0.0000 ( 16880 PWs)   bands (ev):

   -51.5022 -51.4898 -51.4599 -51.4260 -51.4115 -51.4025 -51.3978 -51.3805
   -51.3799 -51.3568 -51.3372 -51.3093 -51.2885 -51.2733 -51.2678 -51.2642
   -51.2569 -51.2013 -51.1411 -51.1211 -51.1058 -51.0929 -51.0732 -51.0624
   -51.0237 -51.0164 -51.0051 -50.9772 -50.9410 -50.9273 -50.9095 -50.8000
   -50.7429 -50.7357 -50.7284 -50.6884 -10.7024  -5.5932  -5.5681  -4.2858
    -4.2388  -3.9097  -3.8764  -3.8751  -3.8650  -3.8356  -3.8322  -3.3303
    -3.3276  -3.1385  -3.0855  -2.9646  -2.9292  -2.6732  -2.6133  -2.6027
    -2.5911  -2.4379  -2.4068  -2.0191  -1.9872  -1.8079  -1.7021  -1.6798
    -1.6672  -1.6052  -1.5149  -1.4349  -1.3089  -1.3061  -1.2749  -1.2635
    -1.2499  -1.2039  -1.1739  -1.1462  -1.1062  -0.6487  -0.5693  -0.5118
    -0.4357  -0.3904  -0.3036  -0.1354  -0.1264  -0.0765  -0.0072   0.0960
     0.1608   0.3429   0.3616   0.5291   0.5662   0.6350   0.7126   1.0249
     1.1494   1.3672   1.4072   1.5409   1.5670   1.7381   1.9153   2.1287
     3.5065   3.5487   3.6378   3.8240

     the Fermi energy is     1.4688 ev

!    total energy              =   -2568.18780492 Ry
     Harris-Foulkes estimate   =   -2568.18784531 Ry
     estimated scf accuracy    <       0.00000922 Ry

     The total energy is the sum of the following terms:

     one-electron contribution =  -20485.19809645 Ry
     hartree contribution      =   10279.41106309 Ry
     xc contribution           =    -708.48199520 Ry
     ewald contribution        =    8346.19152448 Ry
     electric field correction =       0.00024343 Ry
     smearing contrib. (-TS)   =      -0.11054427 Ry

     convergence has been achieved in  18 iterations
 
 BEEF-vdW xc energy contributions
           1 :   -630.646875706423     
           2 :    586.800399080599     
           3 :   -508.247190968121     
           4 :    409.983757990581     
           5 :   -308.338438606026     
           6 :    216.845187967062     
           7 :   -143.583507566591     
           8 :    90.4958899608652     
           9 :   -54.6243149835288     
          10 :    30.5444691016781     
          11 :   -12.9597913028356     
          12 :   -1.51636255908988     
          13 :    13.8560367080769     
          14 :   -23.2651613123707     
          15 :    28.4298509113164     
          16 :   -28.7108155643220     
          17 :    24.7656437489745     
          18 :   -18.4230209823722     
          19 :    11.9861294348324     
          20 :   -7.37029699604057     
          21 :    5.47525719115526     
          22 :   -6.03457462083395     
          23 :    7.93731619922380     
          24 :   -9.82759244628562     
          25 :    10.6950576649593     
          26 :   -10.2148332596961     
          27 :    8.73667126357145     
          28 :   -6.99324886632382     
          29 :    5.69829307915268     
          30 :   -5.22838219404264     
          31 :   -51.8468507352208     
          32 :   -38.3289284881147     

     Forces acting on atoms (Ry/au):


     negative rho (up, down):  2.117E+00 0.000E+00
     atom    1 type  1   force =    -0.00178554   -0.00110425   -0.01661693
     atom    2 type  1   force =     0.00178550   -0.00109959   -0.01661982
     atom    3 type  1   force =     0.00000333    0.00214909   -0.01657332
     atom    4 type  1   force =    -0.00000344    0.00006612   -0.01017769
     atom    5 type  1   force =     0.00000059    0.00324092    0.00692900
     atom    6 type  1   force =     0.00000122    0.00000042   -0.01257386
     atom    7 type  1   force =    -0.00280335   -0.00162276    0.00700761
     atom    8 type  1   force =     0.00280340   -0.00162314    0.00699510
     atom    9 type  1   force =     0.00000374   -0.00007236    0.00834228
     atom   10 type  1   force =    -0.00000347    0.02886868    0.06671115
     atom   11 type  1   force =     0.02504564   -0.01438413    0.06677213
     atom   12 type  1   force =    -0.02505000   -0.01438146    0.06677675
     atom   13 type  2   force =     0.00000237   -0.00003752   -0.15697241

     Total force =     0.204596     Total SCF correction =     0.023180
     SCF correction compared to forces is large: reduce conv_thr to get better values


     entering subroutine stress ...


     negative rho (up, down):  2.117E+00 0.000E+00
          total   stress  (Ry/bohr**3)                   (kbar)     P=  -15.66
  -0.00013568  -0.00000000  -0.00000000        -19.96     -0.00     -0.00
  -0.00000000  -0.00013571   0.00000002         -0.00    -19.96      0.00
  -0.00000000   0.00000002  -0.00004789         -0.00      0.00     -7.04

 !ASE

     Writing output data file calc.save
 
     init_run     :     11.95s CPU     20.15s WALL (       1 calls)
     electrons    :    496.19s CPU    812.14s WALL (       1 calls)
     forces       :      3.30s CPU      4.28s WALL (       1 calls)
     stress       :      8.66s CPU     10.39s WALL (       1 calls)

     Called by init_run:
     wfcinit      :      9.79s CPU     17.05s WALL (       1 calls)
     potinit      :      1.06s CPU      1.82s WALL (       1 calls)

     Called by electrons:
     c_bands      :    380.26s CPU    613.39s WALL (      18 calls)
     sum_band     :     64.28s CPU    111.33s WALL (      18 calls)
     v_of_rho     :     16.68s CPU     29.41s WALL (      19 calls)
     newd         :      7.22s CPU      7.56s WALL (      19 calls)
     mix_rho      :      0.61s CPU      1.11s WALL (      18 calls)
     vdW_energy   :      2.62s CPU      2.91s WALL (      55 calls)
     vdW_ffts     :     27.11s CPU     52.66s WALL (     112 calls)
     vdW_v        :      5.74s CPU      9.61s WALL (      55 calls)

     Called by c_bands:
     init_us_2    :      0.89s CPU      0.93s WALL (     780 calls)
     cegterg      :    373.50s CPU    605.49s WALL (     360 calls)

     Called by *egterg:
     h_psi        :    258.88s CPU    479.34s WALL (    1376 calls)
     s_psi        :      9.90s CPU      9.99s WALL (    1376 calls)
     g_psi        :      0.58s CPU      0.59s WALL (     996 calls)
     cdiaghg      :     66.13s CPU     69.28s WALL (    1356 calls)

     Called by h_psi:
     add_vuspsi   :     10.16s CPU     10.19s WALL (    1376 calls)

     General routines
     calbec       :     20.18s CPU     26.07s WALL (    1776 calls)
     fft          :     40.91s CPU     79.49s WALL (    3357 calls)
     ffts         :      0.12s CPU      0.24s WALL (      37 calls)
     fftw         :    270.50s CPU    530.47s WALL (  225556 calls)
     interpolate  :      0.55s CPU      1.10s WALL (      37 calls)
     davcio       :      0.00s CPU      0.02s WALL (      20 calls)
 
     Parallel routines
     fft_scatter  :    273.63s CPU    571.03s WALL (  228950 calls)
 
     PWSCF        :  8m40.77s CPU    14m 8.14s WALL

 
   This run was terminated on:  19:58:26  17Jan2018            

=------------------------------------------------------------------------------=
   JOB DONE.
=------------------------------------------------------------------------------=
Job  /afs/slac/g/suncat/bin/suncat-tsmpirun -x LD_LIBRARY_PATH -wdir /scratch/qe842471_ZJ858 pw.x -in pw.inp

TID   HOST_NAME   COMMAND_LINE            STATUS            TERMINATION_TIME
===== ========== ================  =======================  ===================
00000 suncat0264 pw.x -in pw.inp   Done                     01/17/2018 19:58:26
00001 suncat0264 pw.x -in pw.inp   Done                     01/17/2018 19:58:26
00002 suncat0264 pw.x -in pw.inp   Done                     01/17/2018 19:58:26
00003 suncat0264 pw.x -in pw.inp   Done                     01/17/2018 19:58:26
00004 suncat0264 pw.x -in pw.inp   Done                     01/17/2018 19:58:26
00005 suncat0264 pw.x -in pw.inp   Done                     01/17/2018 19:58:26
00006 suncat0264 pw.x -in pw.inp   Done                     01/17/2018 19:58:26
00007 suncat0264 pw.x -in pw.inp   Done                     01/17/2018 19:58:26
00008 suncat0259 pw.x -in pw.inp   Done                     01/17/2018 19:58:26
00009 suncat0259 pw.x -in pw.inp   Done                     01/17/2018 19:58:26
00010 suncat0259 pw.x -in pw.inp   Done                     01/17/2018 19:58:26
00011 suncat0259 pw.x -in pw.inp   Done                     01/17/2018 19:58:26
00012 suncat0259 pw.x -in pw.inp   Done                     01/17/2018 19:58:26
00013 suncat0259 pw.x -in pw.inp   Done                     01/17/2018 19:58:26
00014 suncat0259 pw.x -in pw.inp   Done                     01/17/2018 19:58:26
00015 suncat0259 pw.x -in pw.inp   Done                     01/17/2018 19:58:26
00016 suncat0258 pw.x -in pw.inp   Done                     01/17/2018 19:58:26
00017 suncat0258 pw.x -in pw.inp   Done                     01/17/2018 19:58:26
00018 suncat0258 pw.x -in pw.inp   Done                     01/17/2018 19:58:26
00019 suncat0258 pw.x -in pw.inp   Done                     01/17/2018 19:58:26
00020 suncat0258 pw.x -in pw.inp   Done                     01/17/2018 19:58:26
00021 suncat0258 pw.x -in pw.inp   Done                     01/17/2018 19:58:26
00022 suncat0258 pw.x -in pw.inp   Done                     01/17/2018 19:58:26
00023 suncat0258 pw.x -in pw.inp   Done                     01/17/2018 19:58:26
00024 suncat0256 pw.x -in pw.inp   Done                     01/17/2018 19:58:26
00025 suncat0256 pw.x -in pw.inp   Done                     01/17/2018 19:58:26
00026 suncat0256 pw.x -in pw.inp   Done                     01/17/2018 19:58:26
00027 suncat0256 pw.x -in pw.inp   Done                     01/17/2018 19:58:26
00028 suncat0256 pw.x -in pw.inp   Done                     01/17/2018 19:58:26
00029 suncat0256 pw.x -in pw.inp   Done                     01/17/2018 19:58:26
00030 suncat0256 pw.x -in pw.inp   Done                     01/17/2018 19:58:26
00031 suncat0256 pw.x -in pw.inp   Done                     01/17/2018 19:58:26

     Program PWSCF v.5.1rc2 (svn rev. 11289) starts on 17Jan2018 at 19:58:31 

     This program is part of the open-source Quantum ESPRESSO suite
     for quantum simulation of materials; please cite
         "P. Giannozzi et al., J. Phys.:Condens. Matter 21 395502 (2009);
          URL http://www.quantum-espresso.org", 
     in publications or presentations arising from this work. More details at
     http://www.quantum-espresso.org/quote

     Parallel version (MPI), running on    32 processors
     R & G space division:  proc/nbgrp/npool/nimage =      32
     Reading input from pw.inp
     Message from routine read_cards :
     DEPRECATED: no units specified in CELL_PARAMETERS card

     Current dimensions of program PWSCF are:
     Max number of different atomic species (ntypx) = 10
     Max number of k-points (npk) =  40000
     Max angular momentum in pseudopotentials (lmaxx) =  3
     Presently stress not available with electric field


     **************************************************************************
     Initializing libbeef V0.1.1 with the BEEF-vdW functional.
     Citation: Wellendorff et al., PRB 85, 235149 (2012).
     **************************************************************************


     IMPORTANT: XC functional enforced from input :
     Exchange-correlation      = BEEF-VDW ( 1  4 27 13 2)
     Any further DFT definition will be discarded
     Please, verify this is what you really want


     Subspace diagonalization in iterative solution of the eigenvalue problem:
     a serial algorithm will be used

 
     Parallelization info
     --------------------
     sticks:   dense  smooth     PW     G-vecs:    dense   smooth      PW
     Min          88      35     10                16662     4195     652
     Max          90      36     13                16672     4240     670
     Sum        2839    1135    337               533365   134957   21217
 


     bravais-lattice index     =            0
     lattice parameter (alat)  =       1.8897  a.u.
     unit-cell volume          =    4481.2752 (a.u.)^3
     number of atoms/cell      =           13
     number of atomic types    =            2
     number of electrons       =       197.00
     number of Kohn-Sham states=          108
     kinetic-energy cutoff     =      36.7493  Ry
     charge density cutoff     =     367.4932  Ry
     convergence threshold     =      1.0E-05
     mixing beta               =       0.3000
     number of iterations used =           10  plain     mixing
     Exchange-correlation      = BEEF-VDW ( 1  4 27 13 2)
     nstep                     =           50


     celldm(1)=   1.889726  celldm(2)=   0.000000  celldm(3)=   0.000000
     celldm(4)=   0.000000  celldm(5)=   0.000000  celldm(6)=   0.000000

     crystal axes: (cart. coord. in units of alat)
               a(1) = (   5.587338   0.000000   0.000000 )  
               a(2) = (   2.793669   4.838777   0.000000 )  
               a(3) = (   0.000000   0.000000  24.562042 )  

     reciprocal axes: (cart. coord. in units 2 pi/alat)
               b(1) = (  0.178976 -0.103332  0.000000 )  
               b(2) = (  0.000000  0.206664  0.000000 )  
               b(3) = (  0.000000  0.000000  0.040713 )  


     PseudoPot. # 1 for Pt read from file:
     /afs/slac.stanford.edu/u/if/mamunm/psp/gbrv1.5pbe/Pt.UPF
     MD5 check sum: f09d6de1a584b5a045c4fc126da2d0c4
     Pseudo is Ultrasoft + core correction, Zval = 16.0
     Generated by new atomic code, or converted to UPF format
     Using radial grid of  985 points,  6 beta functions with: 
                l(1) =   0
                l(2) =   0
                l(3) =   1
                l(4) =   1
                l(5) =   2
                l(6) =   2
     Q(r) pseudized with  8 coefficients,  rinner =    1.300   1.300   1.300
                                                       1.300   1.300

     PseudoPot. # 2 for N  read from file:
     /afs/slac.stanford.edu/u/if/mamunm/psp/gbrv1.5pbe/N.UPF
     MD5 check sum: 95339753478d7afb44899504a8723017
     Pseudo is Ultrasoft + core correction, Zval =  5.0
     Generated by new atomic code, or converted to UPF format
     Using radial grid of  729 points,  4 beta functions with: 
                l(1) =   0
                l(2) =   0
                l(3) =   1
                l(4) =   1
     Q(r) pseudized with  8 coefficients,  rinner =    0.900   0.900   0.900


     vdW kernel table read from file vdW_kernel_table
     MD5 check sum: 095c7af220d748ca6e76c0b4c6cfb241

     atomic species   valence    mass     pseudopotential
        Pt1           16.00   195.08400     Pt( 1.00)
        N1             5.00    14.00700     N ( 1.00)

     No symmetry found



   Cartesian axes

     site n.     atom                  positions (alat units)
         1           Pt1 tau(   1) = (   1.3968345   0.8064628  10.0000000  )
         2           Pt1 tau(   2) = (   4.1905036   0.8064628  10.0000000  )
         3           Pt1 tau(   3) = (   2.7936691   3.2258512  10.0000000  )
         4           Pt1 tau(   4) = (   5.5873381   3.2258512  10.0000000  )
         5           Pt1 tau(   5) = (   5.5873381   1.6129256  12.2810212  )
         6           Pt1 tau(   6) = (   2.7936691   1.6129256  12.2810212  )
         7           Pt1 tau(   7) = (   6.9841727   4.0323140  12.2810212  )
         8           Pt1 tau(   8) = (   4.1905036   4.0323140  12.2810212  )
         9           Pt1 tau(   9) = (   2.7936787   4.8385907  14.5834913  )
        10           Pt1 tau(  10) = (   2.7936601   0.0742244  14.7335637  )
        11           Pt1 tau(  11) = (   1.4612295   2.3824053  14.7337205  )
        12           Pt1 tau(  12) = (   4.1260975   2.3824122  14.7337324  )
        13           N1  tau(  13) = (   2.7936752   1.6128291  16.2284502  )

     number of k points=    20  Fermi-Dirac smearing, width (Ry)=  0.0110
                       cart. coord. in units 2pi/alat
        k(    1) = (   0.0000000   0.0000000   0.0000000), wk =   0.0555556
        k(    2) = (   0.0000000   0.0344440   0.0000000), wk =   0.1111111
        k(    3) = (   0.0000000   0.0688879   0.0000000), wk =   0.1111111
        k(    4) = (   0.0000000  -0.1033319   0.0000000), wk =   0.0555556
        k(    5) = (   0.0298294  -0.0172220   0.0000000), wk =   0.1111111
        k(    6) = (   0.0298294   0.0172220   0.0000000), wk =   0.1111111
        k(    7) = (   0.0298294   0.0516660   0.0000000), wk =   0.1111111
        k(    8) = (   0.0298294  -0.1205539   0.0000000), wk =   0.1111111
        k(    9) = (   0.0298294  -0.0861099   0.0000000), wk =   0.1111111
        k(   10) = (   0.0298294  -0.0516660   0.0000000), wk =   0.1111111
        k(   11) = (   0.0596587  -0.0344440   0.0000000), wk =   0.1111111
        k(   12) = (   0.0596587   0.0000000   0.0000000), wk =   0.1111111
        k(   13) = (   0.0596587   0.0344440   0.0000000), wk =   0.1111111
        k(   14) = (   0.0596587  -0.1377759   0.0000000), wk =   0.1111111
        k(   15) = (   0.0596587  -0.1033319   0.0000000), wk =   0.1111111
        k(   16) = (   0.0596587  -0.0688879   0.0000000), wk =   0.1111111
        k(   17) = (  -0.0894881   0.0516660   0.0000000), wk =   0.0555556
        k(   18) = (  -0.0894881   0.0861099   0.0000000), wk =   0.1111111
        k(   19) = (  -0.0894881   0.1205539   0.0000000), wk =   0.1111111
        k(   20) = (  -0.0894881  -0.0516660   0.0000000), wk =   0.0555556

     Dense  grid:   533365 G-vectors     FFT dimensions: (  72,  72, 288)

     Smooth grid:   134957 G-vectors     FFT dimensions: (  45,  45, 180)

     Largest allocated arrays     est. size (Mb)     dimensions
        Kohn-Sham Wavefunctions         0.93 Mb     (     564,  108)
        NL pseudopotentials             1.93 Mb     (     564,  224)
        Each V/rho on FFT grid          0.71 Mb     (   46656)
        Each G-vector array             0.13 Mb     (   16671)
        G-vector shells                 0.06 Mb     (    7602)
     Largest temporary arrays     est. size (Mb)     dimensions
        Auxiliary wavefunctions         3.72 Mb     (     564,  432)
        Each subspace H/S matrix        2.85 Mb     (     432,  432)
        Each <psi_i|beta_j> matrix      0.37 Mb     (     224,  108)
        Arrays for rho mixing           7.12 Mb     (   46656,   10)

     Check: negative/imaginary core charge=   -0.000001    0.000000

     Initial potential from superposition of free atoms
     Check: negative starting charge=   -2.198783

     starting charge  190.99986, renormalised to  197.00000

     negative rho (up, down):  2.268E+00 0.000E+00


     ************************************************************************
     *
     * You are using vdW-DF for exchange-correlation in this calculation.
     * Please cite the following three references that made this development
     * possible:
     *
     *   M. Dion, H. Rydberg, E. Schroder, D. C. Langreth, and
     *   B. I. Lundqvist, Phys. Rev. Lett. 92, 246401 (2004).
     *
     *   T. Thonhauser, V. R. Cooper, S. Li, A. Puzder, P. Hyldgaard, and
     *   D. C. Langreth, Phys. Rev. B 76, 125112 (2007).
     *
     *   G. Roman-Perez and J. M. Soler, Phys. Rev. Lett. 103, 096102 (2009).
     *
     *
     * If you are using vdW-DF2, please also cite:
     *
     *   K. Lee, E. D. Murray, L. Kong, B. I. Lundqvist, and
     *   D. C. Langreth, Phys. Rev. B 82, 081101(R) (2010).
     *
     *
     * If you are calculating the stress with vdW-DF, please also cite:
     *
     *   R. Sabatini, E. Kucukbenli, B. Kolb, T. Thonhauser, and
     *   S. de Gironcoli, J. Phys.: Condens. Matter 24, 424209 (2012).
     *
     ************************************************************************

     Carrying out vdW-DF run using the following parameters:

     Nqs =      20    Nr_points =    1024   r_max =   100.000
     q_mesh =
               0.00001000     0.04494208     0.09755937     0.15916263
               0.23128650     0.31572767     0.41458969     0.53033537
               0.66584808     0.82450364     1.01025438     1.22772762
               1.48234092     1.78043706     2.12944203     2.53805004
               3.01644009     3.57652955     4.23227104     5.00000000

     Gradients computed in reciprocal space

     ************************************************************************


 
     Adding external electric field

     Computed dipole along edir(3) : 
        Dipole               -1.1584 Ry au,         -2.9442 Debye
        Dipole field         -0.0032 Ry au
 
        Potential amp.        0.2940 Ry
        Total length         45.2551 bohr
 
     Starting wfc are  148 randomized atomic wfcs

     total cpu time spent up to now is       20.4 secs

     per-process dynamical memory:    50.7 Mb

     Self-consistent Calculation

     iteration #  1     ecut=    36.75 Ry     beta=0.30
     Davidson diagonalization with overlap
     ethr =  1.00E-02,  avg # of iterations =  3.2

     negative rho (up, down):  2.172E+00 0.000E+00
 
     Adding external electric field

     Computed dipole along edir(3) : 
        Dipole               17.6439 Ry au,         44.8464 Debye
        Dipole field          0.0495 Ry au
 
        Potential amp.       -4.4782 Ry
        Total length         45.2551 bohr
 

     total cpu time spent up to now is       60.1 secs

     total energy              =   -2544.31007750 Ry
     Harris-Foulkes estimate   =   -2571.36120519 Ry
     estimated scf accuracy    <      57.42660515 Ry

     iteration #  2     ecut=    36.75 Ry     beta=0.30
     Davidson diagonalization with overlap
     ethr =  1.00E-02,  avg # of iterations = 12.8

     negative rho (up, down):  2.167E+00 0.000E+00
 
     Adding external electric field

     Computed dipole along edir(3) : 
        Dipole                0.0129 Ry au,          0.0328 Debye
        Dipole field          0.0000 Ry au
 
        Potential amp.       -0.0033 Ry
        Total length         45.2551 bohr
 

     total cpu time spent up to now is      165.1 secs

     total energy              =   -2495.52866898 Ry
     Harris-Foulkes estimate   =   -2712.35692375 Ry
     estimated scf accuracy    <    6351.69217157 Ry

     iteration #  3     ecut=    36.75 Ry     beta=0.30
     Davidson diagonalization with overlap
     ethr =  1.00E-02,  avg # of iterations =  7.3

     negative rho (up, down):  2.163E+00 0.000E+00
 
     Adding external electric field

     Computed dipole along edir(3) : 
        Dipole                0.9449 Ry au,          2.4017 Debye
        Dipole field          0.0026 Ry au
 
        Potential amp.       -0.2398 Ry
        Total length         45.2551 bohr
 

     total cpu time spent up to now is      242.6 secs

     total energy              =   -2546.79618465 Ry
     Harris-Foulkes estimate   =   -2596.97017755 Ry
     estimated scf accuracy    <     941.36386036 Ry

     iteration #  4     ecut=    36.75 Ry     beta=0.30
     Davidson diagonalization with overlap
     ethr =  1.00E-02,  avg # of iterations =  5.6

     negative rho (up, down):  2.156E+00 0.000E+00
 
     Adding external electric field

     Computed dipole along edir(3) : 
        Dipole                1.3816 Ry au,          3.5118 Debye
        Dipole field          0.0039 Ry au
 
        Potential amp.       -0.3507 Ry
        Total length         45.2551 bohr
 

     total cpu time spent up to now is      312.5 secs

     total energy              =   -2567.02935903 Ry
     Harris-Foulkes estimate   =   -2569.95009433 Ry
     estimated scf accuracy    <      11.36987319 Ry

     iteration #  5     ecut=    36.75 Ry     beta=0.30
     Davidson diagonalization with overlap
     ethr =  5.77E-03,  avg # of iterations =  2.2

     negative rho (up, down):  2.143E+00 0.000E+00
 
     Adding external electric field

     Computed dipole along edir(3) : 
        Dipole                0.0622 Ry au,          0.1580 Debye
        Dipole field          0.0002 Ry au
 
        Potential amp.       -0.0158 Ry
        Total length         45.2551 bohr
 

     total cpu time spent up to now is      349.9 secs

     total energy              =   -2568.04643676 Ry
     Harris-Foulkes estimate   =   -2568.71396583 Ry
     estimated scf accuracy    <       3.33642497 Ry

     iteration #  6     ecut=    36.75 Ry     beta=0.30
     Davidson diagonalization with overlap
     ethr =  1.69E-03,  avg # of iterations =  2.0

     negative rho (up, down):  2.151E+00 0.000E+00
 
     Adding external electric field

     Computed dipole along edir(3) : 
        Dipole                0.2929 Ry au,          0.7445 Debye
        Dipole field          0.0008 Ry au
 
        Potential amp.       -0.0743 Ry
        Total length         45.2551 bohr
 

     total cpu time spent up to now is      388.1 secs

     total energy              =   -2568.15945538 Ry
     Harris-Foulkes estimate   =   -2568.51283440 Ry
     estimated scf accuracy    <       5.66325979 Ry

     iteration #  7     ecut=    36.75 Ry     beta=0.30
     Davidson diagonalization with overlap
     ethr =  1.69E-03,  avg # of iterations =  1.1

     negative rho (up, down):  2.127E+00 0.000E+00
 
     Adding external electric field

     Computed dipole along edir(3) : 
        Dipole                0.0226 Ry au,          0.0574 Debye
        Dipole field          0.0001 Ry au
 
        Potential amp.       -0.0057 Ry
        Total length         45.2551 bohr
 

     total cpu time spent up to now is      423.1 secs

     total energy              =   -2568.34320589 Ry
     Harris-Foulkes estimate   =   -2568.43182620 Ry
     estimated scf accuracy    <       1.84224365 Ry

     iteration #  8     ecut=    36.75 Ry     beta=0.30
     Davidson diagonalization with overlap
     ethr =  9.35E-04,  avg # of iterations =  1.0

     negative rho (up, down):  2.122E+00 0.000E+00
 
     Adding external electric field

     Computed dipole along edir(3) : 
        Dipole               -0.0759 Ry au,         -0.1930 Debye
        Dipole field         -0.0002 Ry au
 
        Potential amp.        0.0193 Ry
        Total length         45.2551 bohr
 

     total cpu time spent up to now is      458.2 secs

     total energy              =   -2568.36241348 Ry
     Harris-Foulkes estimate   =   -2568.37852687 Ry
     estimated scf accuracy    <       0.18611303 Ry

     iteration #  9     ecut=    36.75 Ry     beta=0.30
     Davidson diagonalization with overlap
     ethr =  9.45E-05,  avg # of iterations =  1.8

     negative rho (up, down):  2.117E+00 0.000E+00
 
     Adding external electric field

     Computed dipole along edir(3) : 
        Dipole               -0.2463 Ry au,         -0.6262 Debye
        Dipole field         -0.0007 Ry au
 
        Potential amp.        0.0625 Ry
        Total length         45.2551 bohr
 

     total cpu time spent up to now is      493.8 secs

     total energy              =   -2568.36556000 Ry
     Harris-Foulkes estimate   =   -2568.37321740 Ry
     estimated scf accuracy    <       0.04258569 Ry

     iteration # 10     ecut=    36.75 Ry     beta=0.30
     Davidson diagonalization with overlap
     ethr =  2.16E-05,  avg # of iterations =  2.8

     negative rho (up, down):  2.116E+00 0.000E+00
 
     Adding external electric field

     Computed dipole along edir(3) : 
        Dipole               -0.2630 Ry au,         -0.6684 Debye
        Dipole field         -0.0007 Ry au
 
        Potential amp.        0.0667 Ry
        Total length         45.2551 bohr
 

     total cpu time spent up to now is      533.0 secs

     total energy              =   -2568.36824401 Ry
     Harris-Foulkes estimate   =   -2568.37171403 Ry
     estimated scf accuracy    <       0.12474588 Ry

     iteration # 11     ecut=    36.75 Ry     beta=0.30
     Davidson diagonalization with overlap
     ethr =  2.16E-05,  avg # of iterations =  1.0

     negative rho (up, down):  2.116E+00 0.000E+00
 
     Adding external electric field

     Computed dipole along edir(3) : 
        Dipole               -0.2886 Ry au,         -0.7335 Debye
        Dipole field         -0.0008 Ry au
 
        Potential amp.        0.0732 Ry
        Total length         45.2551 bohr
 

     total cpu time spent up to now is      567.8 secs

     total energy              =   -2568.36758076 Ry
     Harris-Foulkes estimate   =   -2568.36954647 Ry
     estimated scf accuracy    <       0.02858345 Ry

     iteration # 12     ecut=    36.75 Ry     beta=0.30
     Davidson diagonalization with overlap
     ethr =  1.45E-05,  avg # of iterations =  1.1

     negative rho (up, down):  2.115E+00 0.000E+00
 
     Adding external electric field

     Computed dipole along edir(3) : 
        Dipole               -0.2929 Ry au,         -0.7444 Debye
        Dipole field         -0.0008 Ry au
 
        Potential amp.        0.0743 Ry
        Total length         45.2551 bohr
 

     total cpu time spent up to now is      602.7 secs

     total energy              =   -2568.36874086 Ry
     Harris-Foulkes estimate   =   -2568.36886342 Ry
     estimated scf accuracy    <       0.00349345 Ry

     iteration # 13     ecut=    36.75 Ry     beta=0.30
     Davidson diagonalization with overlap
     ethr =  1.77E-06,  avg # of iterations =  3.4

     negative rho (up, down):  2.115E+00 0.000E+00
 
     Adding external electric field

     Computed dipole along edir(3) : 
        Dipole               -0.2509 Ry au,         -0.6376 Debye
        Dipole field         -0.0007 Ry au
 
        Potential amp.        0.0637 Ry
        Total length         45.2551 bohr
 

     total cpu time spent up to now is      640.8 secs

     total energy              =   -2568.36878612 Ry
     Harris-Foulkes estimate   =   -2568.36893416 Ry
     estimated scf accuracy    <       0.00082465 Ry

     iteration # 14     ecut=    36.75 Ry     beta=0.30
     Davidson diagonalization with overlap
     ethr =  4.19E-07,  avg # of iterations =  2.0

     negative rho (up, down):  2.115E+00 0.000E+00
 
     Adding external electric field

     Computed dipole along edir(3) : 
        Dipole               -0.2173 Ry au,         -0.5523 Debye
        Dipole field         -0.0006 Ry au
 
        Potential amp.        0.0552 Ry
        Total length         45.2551 bohr
 

     total cpu time spent up to now is      677.2 secs

     total energy              =   -2568.36884827 Ry
     Harris-Foulkes estimate   =   -2568.36892506 Ry
     estimated scf accuracy    <       0.00151422 Ry

     iteration # 15     ecut=    36.75 Ry     beta=0.30
     Davidson diagonalization with overlap
     ethr =  4.19E-07,  avg # of iterations =  1.0

     negative rho (up, down):  2.115E+00 0.000E+00
 
     Adding external electric field

     Computed dipole along edir(3) : 
        Dipole               -0.1964 Ry au,         -0.4993 Debye
        Dipole field         -0.0006 Ry au
 
        Potential amp.        0.0499 Ry
        Total length         45.2551 bohr
 

     total cpu time spent up to now is      711.9 secs

     total energy              =   -2568.36886364 Ry
     Harris-Foulkes estimate   =   -2568.36890154 Ry
     estimated scf accuracy    <       0.00010901 Ry

     iteration # 16     ecut=    36.75 Ry     beta=0.30
     Davidson diagonalization with overlap
     ethr =  5.53E-08,  avg # of iterations =  2.0

     negative rho (up, down):  2.116E+00 0.000E+00
 
     Adding external electric field

     Computed dipole along edir(3) : 
        Dipole               -0.1817 Ry au,         -0.4619 Debye
        Dipole field         -0.0005 Ry au
 
        Potential amp.        0.0461 Ry
        Total length         45.2551 bohr
 

     total cpu time spent up to now is      748.2 secs

     total energy              =   -2568.36886319 Ry
     Harris-Foulkes estimate   =   -2568.36888695 Ry
     estimated scf accuracy    <       0.00003488 Ry

     iteration # 17     ecut=    36.75 Ry     beta=0.30
     Davidson diagonalization with overlap
     ethr =  1.77E-08,  avg # of iterations =  2.0

     negative rho (up, down):  2.116E+00 0.000E+00
 
     Adding external electric field

     Computed dipole along edir(3) : 
        Dipole               -0.1733 Ry au,         -0.4404 Debye
        Dipole field         -0.0005 Ry au
 
        Potential amp.        0.0440 Ry
        Total length         45.2551 bohr
 

     total cpu time spent up to now is      785.8 secs

     total energy              =   -2568.36886264 Ry
     Harris-Foulkes estimate   =   -2568.36887763 Ry
     estimated scf accuracy    <       0.00004038 Ry

     iteration # 18     ecut=    36.75 Ry     beta=0.30
     Davidson diagonalization with overlap
     ethr =  1.77E-08,  avg # of iterations =  1.1

     negative rho (up, down):  2.117E+00 0.000E+00

     negative rho (up, down):  2.117E+00 0.000E+00

     negative rho (up, down):  2.117E+00 0.000E+00

     negative rho (up, down):  2.117E+00 0.000E+00

     negative rho (up, down):  2.117E+00 0.000E+00

     negative rho (up, down):  2.117E+00 0.000E+00

     negative rho (up, down):  2.117E+00 0.000E+00

     negative rho (up, down):  2.117E+00 0.000E+00

     negative rho (up, down):  2.117E+00 0.000E+00

     negative rho (up, down):  2.117E+00 0.000E+00

     negative rho (up, down):  2.117E+00 0.000E+00

     negative rho (up, down):  2.117E+00 0.000E+00

     negative rho (up, down):  2.117E+00 0.000E+00

     negative rho (up, down):  2.117E+00 0.000E+00

     negative rho (up, down):  2.117E+00 0.000E+00

     negative rho (up, down):  2.117E+00 0.000E+00

     negative rho (up, down):  2.117E+00 0.000E+00

     negative rho (up, down):  2.117E+00 0.000E+00

     negative rho (up, down):  2.117E+00 0.000E+00

     negative rho (up, down):  2.117E+00 0.000E+00

     negative rho (up, down):  2.117E+00 0.000E+00

     negative rho (up, down):  2.117E+00 0.000E+00

     negative rho (up, down):  2.117E+00 0.000E+00

     negative rho (up, down):  2.117E+00 0.000E+00

     negative rho (up, down):  2.117E+00 0.000E+00

     negative rho (up, down):  2.117E+00 0.000E+00

     negative rho (up, down):  2.117E+00 0.000E+00

     negative rho (up, down):  2.117E+00 0.000E+00

     negative rho (up, down):  2.117E+00 0.000E+00

     negative rho (up, down):  2.117E+00 0.000E+00

     negative rho (up, down):  2.117E+00 0.000E+00

     negative rho (up, down):  2.117E+00 0.000E+00

     negative rho (up, down):  2.117E+00 0.000E+00

[...]
    -0.7693  -0.6773  -0.5690  -0.3126  -0.2288  -0.0831  -0.0535   0.0391
     0.0636   0.1370   0.1941   0.3409   0.5553   0.6098   0.7824   0.8493
     0.9486   0.9981   1.1254   1.1567   1.2138   1.4203   1.4766   1.5874
     1.6099   1.7362   1.8181   1.9583   2.0828   2.1762   2.5386   2.5685
     2.9927   3.5428   4.1878   4.8812

          k = 0.0597-0.0344 0.0000 ( 16852 PWs)   bands (ev):

   -51.7896 -51.6587 -51.6128 -51.2714 -51.2617 -51.1823 -51.0982 -51.0754
   -51.0531 -51.0433 -51.0056 -50.9930 -50.9338 -50.9248 -50.9229 -50.9099
   -50.9053 -50.8511 -50.8276 -50.8132 -50.7954 -50.7729 -50.7695 -50.7222
   -50.6542 -50.6301 -50.5938 -50.5819 -50.5782 -50.5648 -50.5377 -50.4715
   -50.3773 -50.3666 -50.3585 -50.3567 -13.9395  -5.9718  -5.1417  -4.5511
    -4.4789  -4.2807  -4.1411  -3.9278  -3.6630  -3.6328  -3.6320  -3.4812
    -3.4575  -3.2637  -3.2382  -3.0947  -3.0202  -2.8243  -2.3505  -2.2238
    -2.2005  -2.0849  -1.9827  -1.8401  -1.6699  -1.6574  -1.6237  -1.5667
    -1.4789  -1.4633  -1.2849  -1.0708  -1.0515  -0.9798  -0.9090  -0.8353
    -0.7796  -0.7782  -0.5583  -0.4542  -0.3375  -0.2762  -0.2162  -0.1797
    -0.0473  -0.0360   0.1098   0.1955   0.4355   0.4396   0.6304   0.7354
     0.8029   0.8634   0.9771   1.0418   1.0685   1.1977   1.3305   1.3642
     1.5652   1.6131   1.6884   1.8809   1.9748   2.1824   2.6549   2.9813
     3.5231   4.0191   4.1833   4.6118

          k = 0.0597 0.0000 0.0000 ( 16840 PWs)   bands (ev):

   -51.7997 -51.6507 -51.6138 -51.2746 -51.2650 -51.1778 -51.1061 -51.0789
   -51.0574 -51.0565 -51.0066 -50.9943 -50.9355 -50.9270 -50.9209 -50.9119
   -50.8712 -50.8702 -50.8241 -50.8063 -50.7966 -50.7844 -50.7721 -50.7243
   -50.6538 -50.6100 -50.5938 -50.5751 -50.5730 -50.5650 -50.5352 -50.4720
   -50.3774 -50.3671 -50.3578 -50.3570 -13.9511  -6.1494  -5.1145  -4.7027
    -4.5408  -4.3037  -4.1245  -4.0531  -4.0123  -3.7170  -3.6732  -3.5536
    -3.5359  -3.3747  -3.3193  -3.1878  -3.1103  -2.9611  -2.2908  -2.2212
    -2.1403  -2.0879  -1.9319  -1.8171  -1.7388  -1.6547  -1.5728  -1.5224
    -1.4220  -1.2892  -1.2313  -1.1042  -1.0454  -0.9352  -0.9241  -0.8667
    -0.7691  -0.6778  -0.5689  -0.3128  -0.2289  -0.0825  -0.0536   0.0394
     0.0635   0.1370   0.1940   0.3408   0.5552   0.6101   0.7822   0.8494
     0.9485   0.9984   1.1256   1.1567   1.2134   1.4206   1.4765   1.5877
     1.6103   1.7361   1.8178   1.9586   2.0831   2.1761   2.5386   2.5686
     2.9928   3.5423   4.1882   4.8812

          k = 0.0597 0.0344 0.0000 ( 16852 PWs)   bands (ev):

   -51.7896 -51.6585 -51.6130 -51.2715 -51.2617 -51.1823 -51.0983 -51.0754
   -51.0530 -51.0433 -51.0056 -50.9931 -50.9339 -50.9248 -50.9229 -50.9098
   -50.9054 -50.8513 -50.8276 -50.8132 -50.7955 -50.7727 -50.7694 -50.7222
   -50.6543 -50.6300 -50.5939 -50.5821 -50.5782 -50.5648 -50.5376 -50.4715
   -50.3773 -50.3666 -50.3588 -50.3564 -13.9395  -5.9718  -5.1417  -4.5510
    -4.4789  -4.2808  -4.1411  -3.9278  -3.6631  -3.6329  -3.6320  -3.4813
    -3.4574  -3.2637  -3.2383  -3.0947  -3.0202  -2.8244  -2.3505  -2.2238
    -2.2004  -2.0850  -1.9827  -1.8401  -1.6698  -1.6574  -1.6236  -1.5666
    -1.4790  -1.4632  -1.2850  -1.0708  -1.0515  -0.9797  -0.9091  -0.8353
    -0.7796  -0.7782  -0.5583  -0.4543  -0.3375  -0.2763  -0.2162  -0.1797
    -0.0473  -0.0360   0.1099   0.1955   0.4354   0.4396   0.6304   0.7354
     0.8029   0.8635   0.9771   1.0418   1.0685   1.1977   1.3305   1.3642
     1.5652   1.6132   1.6883   1.8808   1.9748   2.1824   2.6551   2.9814
     3.5231   4.0190   4.1833   4.6118

          k = 0.0597-0.1378 0.0000 ( 16875 PWs)   bands (ev):

   -51.7618 -51.6843 -51.6091 -51.2692 -51.2460 -51.1962 -51.0749 -51.0651
   -51.0430 -51.0251 -50.9999 -50.9849 -50.9569 -50.9305 -50.9221 -50.9152
   -50.9075 -50.8695 -50.8311 -50.8007 -50.7862 -50.7789 -50.7450 -50.7177
   -50.6809 -50.6420 -50.6113 -50.5827 -50.5813 -50.5695 -50.5526 -50.4706
   -50.3771 -50.3653 -50.3606 -50.3559 -13.9162  -5.5400  -5.0202  -4.4851
    -4.3685  -4.0668  -3.8305  -3.7048  -3.5370  -3.3965  -3.2823  -3.2534
    -3.1463  -3.0299  -2.9697  -2.8717  -2.7475  -2.6259  -2.4617  -2.3497
    -2.2803  -2.1877  -2.0867  -2.0321  -1.9701  -1.8830  -1.7900  -1.6663
    -1.6090  -1.5493  -1.4161  -1.3278  -1.2350  -1.1952  -1.1290  -1.0833
    -0.9679  -0.8321  -0.6868  -0.6707  -0.6011  -0.5097  -0.3944  -0.2461
    -0.1690  -0.0824  -0.0158   0.0434   0.1667   0.3438   0.4013   0.5108
     0.6763   0.7734   0.8734   0.9337   1.0285   1.2222   1.2939   1.3674
     1.4474   1.5731   1.6784   1.6944   1.8143   2.1035   2.2785   2.7196
     3.1941   3.6375   4.2488   4.7629

          k = 0.0597-0.1033 0.0000 ( 16878 PWs)   bands (ev):

   -51.7267 -51.7192 -51.6066 -51.2687 -51.2277 -51.2128 -51.0578 -51.0511
   -51.0364 -51.0286 -51.0087 -50.9704 -50.9540 -50.9449 -50.9259 -50.9165
   -50.9139 -50.8798 -50.8125 -50.8101 -50.7896 -50.7616 -50.7471 -50.7043
   -50.6829 -50.6817 -50.5887 -50.5868 -50.5784 -50.5765 -50.5742 -50.4701
   -50.3770 -50.3641 -50.3618 -50.3557 -13.9045  -5.3154  -4.6391  -4.5018
    -4.3427  -4.2293  -3.7901  -3.4261  -3.3094  -3.0460  -3.0372  -2.9911
    -2.9262  -2.8771  -2.7923  -2.7320  -2.7103  -2.6091  -2.5249  -2.4313
    -2.4018  -2.3751  -2.2210  -2.2043  -2.1855  -2.1019  -1.8683  -1.8284
    -1.7140  -1.7110  -1.6916  -1.6254  -1.5885  -1.3589  -1.1678  -1.0073
    -0.9622  -0.9469  -0.8622  -0.8501  -0.6405  -0.6336  -0.3634  -0.2242
    -0.1473  -0.0450   0.0720   0.1383   0.3597   0.3604   0.5137   0.5807
     0.7548   0.7814   0.9340   0.9522   1.2559   1.2980   1.3094   1.3302
     1.3877   1.3901   1.4044   1.5251   1.6113   1.6245   1.8306   2.3880
     3.0291   3.6850   4.3199   4.5731

          k = 0.0597-0.0689 0.0000 ( 16875 PWs)   bands (ev):

   -51.7617 -51.6845 -51.6090 -51.2692 -51.2461 -51.1961 -51.0747 -51.0651
   -51.0431 -51.0252 -51.0000 -50.9851 -50.9570 -50.9304 -50.9221 -50.9152
   -50.9074 -50.8694 -50.8311 -50.8008 -50.7864 -50.7787 -50.7450 -50.7178
   -50.6809 -50.6419 -50.6112 -50.5825 -50.5812 -50.5694 -50.5528 -50.4706
   -50.3771 -50.3654 -50.3603 -50.3560 -13.9162  -5.5399  -5.0203  -4.4851
    -4.3686  -4.0668  -3.8305  -3.7048  -3.5368  -3.3965  -3.2822  -3.2535
    -3.1462  -3.0299  -2.9697  -2.8718  -2.7476  -2.6259  -2.4617  -2.3498
    -2.2803  -2.1876  -2.0867  -2.0320  -1.9701  -1.8830  -1.7900  -1.6663
    -1.6089  -1.5493  -1.4160  -1.3279  -1.2350  -1.1952  -1.1290  -1.0833
    -0.9679  -0.8320  -0.6868  -0.6707  -0.6011  -0.5097  -0.3944  -0.2461
    -0.1689  -0.0824  -0.0159   0.0434   0.1667   0.3439   0.4013   0.5108
     0.6763   0.7734   0.8734   0.9338   1.0284   1.2222   1.2938   1.3673
     1.4474   1.5731   1.6784   1.6945   1.8143   2.1034   2.2785   2.7196
     3.1940   3.6375   4.2488   4.7628

          k =-0.0895 0.0517 0.0000 ( 16880 PWs)   bands (ev):

   -51.7631 -51.6818 -51.6102 -51.2670 -51.2503 -51.1942 -51.0788 -51.0670
   -51.0370 -51.0339 -50.9881 -50.9742 -50.9532 -50.9391 -50.9297 -50.9184
   -50.9108 -50.8577 -50.8450 -50.8013 -50.7852 -50.7794 -50.7289 -50.7230
   -50.6604 -50.6482 -50.6428 -50.5846 -50.5729 -50.5665 -50.5483 -50.4706
   -50.3772 -50.3656 -50.3594 -50.3566 -13.9163  -5.5031  -5.0691  -4.6761
    -4.3289  -4.0316  -3.8642  -3.5820  -3.4479  -3.4385  -3.4025  -3.2661
    -3.0849  -2.9917  -2.8743  -2.8145  -2.7929  -2.5931  -2.5695  -2.2920
    -2.1677  -2.1414  -2.0943  -2.0289  -1.9796  -1.8660  -1.7848  -1.6949
    -1.5463  -1.4705  -1.3816  -1.2776  -1.1713  -1.0313  -1.0153  -0.9909
    -0.9153  -0.8594  -0.8176  -0.7798  -0.7561  -0.6000  -0.3339  -0.2587
    -0.1500  -0.1346  -0.0720   0.0710   0.0953   0.1933   0.2255   0.2690
     0.4595   0.6883   0.7241   0.7688   0.8707   0.9642   1.3025   1.3232
     1.4784   1.5954   1.6859   1.9011   1.9858   2.1275   2.6564   3.1967
     3.7016   4.1102   4.3132   4.3403

          k =-0.0895 0.0861 0.0000 ( 16875 PWs)   bands (ev):

   -51.7619 -51.6843 -51.6091 -51.2692 -51.2459 -51.1962 -51.0745 -51.0651
   -51.0427 -51.0255 -50.9994 -50.9855 -50.9590 -50.9301 -50.9213 -50.9161
   -50.9058 -50.8691 -50.8314 -50.8009 -50.7865 -50.7786 -50.7448 -50.7179
   -50.6822 -50.6403 -50.6115 -50.5827 -50.5813 -50.5694 -50.5528 -50.4706
   -50.3772 -50.3656 -50.3597 -50.3564 -13.9162  -5.5400  -5.0203  -4.4852
    -4.3683  -4.0667  -3.8307  -3.7047  -3.5369  -3.3964  -3.2823  -3.2535
    -3.1461  -3.0297  -2.9699  -2.8718  -2.7475  -2.6262  -2.4618  -2.3499
    -2.2801  -2.1873  -2.0868  -2.0323  -1.9697  -1.8829  -1.7902  -1.6664
    -1.6093  -1.5493  -1.4162  -1.3279  -1.2349  -1.1950  -1.1289  -1.0833
    -0.9681  -0.8317  -0.6871  -0.6709  -0.6011  -0.5097  -0.3944  -0.2457
    -0.1687  -0.0823  -0.0157   0.0431   0.1666   0.3438   0.4012   0.5109
     0.6766   0.7734   0.8732   0.9337   1.0285   1.2225   1.2939   1.3669
     1.4475   1.5735   1.6783   1.6943   1.8144   2.1035   2.2784   2.7196
     3.1939   3.6374   4.2493   4.7624

          k =-0.0895 0.1206 0.0000 ( 16875 PWs)   bands (ev):

   -51.7619 -51.6841 -51.6092 -51.2693 -51.2459 -51.1963 -51.0746 -51.0652
   -51.0427 -51.0254 -50.9993 -50.9854 -50.9592 -50.9301 -50.9212 -50.9162
   -50.9057 -50.8692 -50.8315 -50.8009 -50.7864 -50.7787 -50.7447 -50.7178
   -50.6823 -50.6402 -50.6116 -50.5828 -50.5813 -50.5694 -50.5527 -50.4706
   -50.3772 -50.3655 -50.3599 -50.3563 -13.9162  -5.5400  -5.0203  -4.4852
    -4.3684  -4.0667  -3.8306  -3.7048  -3.5371  -3.3964  -3.2823  -3.2534
    -3.1462  -3.0297  -2.9699  -2.8718  -2.7475  -2.6261  -2.4618  -2.3498
    -2.2801  -2.1873  -2.0868  -2.0323  -1.9697  -1.8829  -1.7902  -1.6663
    -1.6092  -1.5493  -1.4163  -1.3277  -1.2349  -1.1951  -1.1290  -1.0833
    -0.9680  -0.8318  -0.6871  -0.6708  -0.6011  -0.5097  -0.3944  -0.2457
    -0.1688  -0.0823  -0.0157   0.0431   0.1666   0.3438   0.4012   0.5109
     0.6765   0.7734   0.8732   0.9337   1.0285   1.2225   1.2940   1.3669
     1.4475   1.5735   1.6783   1.6942   1.8144   2.1035   2.2784   2.7196
     3.1940   3.6374   4.2491   4.7625

          k =-0.0895-0.0517 0.0000 ( 16880 PWs)   bands (ev):

   -51.7632 -51.6816 -51.6104 -51.2670 -51.2502 -51.1942 -51.0790 -51.0671
   -51.0370 -51.0337 -50.9880 -50.9737 -50.9535 -50.9393 -50.9298 -50.9181
   -50.9109 -50.8577 -50.8452 -50.8012 -50.7853 -50.7792 -50.7288 -50.7230
   -50.6603 -50.6486 -50.6425 -50.5846 -50.5732 -50.5665 -50.5481 -50.4706
   -50.3772 -50.3655 -50.3598 -50.3563 -13.9162  -5.5032  -5.0689  -4.6762
    -4.3288  -4.0316  -3.8642  -3.5821  -3.4479  -3.4387  -3.4025  -3.2659
    -3.0849  -2.9917  -2.8744  -2.8143  -2.7927  -2.5930  -2.5696  -2.2919
    -2.1678  -2.1413  -2.0943  -2.0289  -1.9798  -1.8659  -1.7849  -1.6947
    -1.5464  -1.4706  -1.3815  -1.2777  -1.1713  -1.0313  -1.0153  -0.9909
    -0.9152  -0.8595  -0.8176  -0.7798  -0.7562  -0.5998  -0.3339  -0.2588
    -0.1501  -0.1345  -0.0721   0.0710   0.0954   0.1931   0.2255   0.2691
     0.4594   0.6883   0.7240   0.7688   0.8707   0.9642   1.3025   1.3232
     1.4784   1.5955   1.6859   1.9010   1.9859   2.1275   2.6566   3.1968
     3.7018   4.1102   4.3130   4.3404

     the Fermi energy is     1.8047 ev

!    total energy              =   -2568.42768416 Ry
     Harris-Foulkes estimate   =   -2568.42769791 Ry
     estimated scf accuracy    <       0.00000853 Ry

     The total energy is the sum of the following terms:

     one-electron contribution =  -20404.70941696 Ry
     hartree contribution      =   10240.67748768 Ry
     xc contribution           =    -708.86760488 Ry
     ewald contribution        =    8304.56864117 Ry
     electric field correction =       0.00000461 Ry
     smearing contrib. (-TS)   =      -0.09679578 Ry

     convergence has been achieved in  17 iterations
 
 BEEF-vdW xc energy contributions
           1 :   -631.047892558104     
           2 :    587.322605752011     
           3 :   -508.891603855377     
           4 :    410.638737384868     
           5 :   -308.861005674438     
           6 :    217.128266911440     
           7 :   -143.586607770094     
           8 :    90.2457466709345     
           9 :   -54.1965576183538     
          10 :    30.0374881686018     
          11 :   -12.4693130794694     
          12 :   -1.91326738855969     
          13 :    14.1055614716572     
          14 :   -23.3405748119546     
          15 :    28.3409524139624     
          16 :   -28.5096185429973     
          17 :    24.5377764370644     
          18 :   -18.2609928822612     
          19 :    11.9519464591152     
          20 :   -7.46490802721235     
          21 :    5.63329721033574     
          22 :   -6.15246019119331     
          23 :    7.92552416193030     
          24 :   -9.66026285040061     
          25 :    10.4287025478125     
          26 :   -9.96602666740705     
          27 :    8.62670619433493     
          28 :   -7.08467731103713     
          29 :    5.95786944579584     
          30 :   -5.53713135898954     
          31 :   -51.8718028858846     
          32 :   -38.3785637157647     

     Forces acting on atoms (Ry/au):


     negative rho (up, down):  2.116E+00 0.000E+00
     atom    1 type  1   force =    -0.00041246   -0.00016417   -0.02007489
     atom    2 type  1   force =     0.00041752   -0.00017202   -0.02007712
     atom    3 type  1   force =    -0.00000820    0.00042363   -0.02009903
     atom    4 type  1   force =     0.00001048   -0.00010319   -0.00972163
     atom    5 type  1   force =    -0.00001115    0.00946144    0.02105791
     atom    6 type  1   force =     0.00001358   -0.00007634    0.00638110
     atom    7 type  1   force =    -0.00822705   -0.00469051    0.02115867
     atom    8 type  1   force =     0.00822095   -0.00470201    0.02112594
     atom    9 type  1   force =    -0.00007401   -0.00018493    0.00070790
     atom   10 type  1   force =     0.00007820   -0.00011226    0.00014479
     atom   11 type  1   force =     0.00012373    0.00017013    0.00012733
     atom   12 type  1   force =    -0.00015487    0.00006231    0.00015739
     atom   13 type  2   force =     0.00002327    0.00008793   -0.00088835

     Total force =     0.054348     Total SCF correction =     0.010266
     SCF correction compared to forces is large: reduce conv_thr to get better values


     entering subroutine stress ...


     negative rho (up, down):  2.116E+00 0.000E+00
          total   stress  (Ry/bohr**3)                   (kbar)     P=   -6.59
  -0.00009374  -0.00000000   0.00000002        -13.79     -0.00      0.00
  -0.00000000  -0.00009364  -0.00000004         -0.00    -13.78     -0.01
   0.00000002  -0.00000004   0.00005297          0.00     -0.01      7.79

 !ASE

     Writing output data file calc.save
 
     init_run     :     11.74s CPU     20.02s WALL (       1 calls)
     electrons    :    502.73s CPU    820.60s WALL (       1 calls)
     forces       :      3.32s CPU      4.22s WALL (       1 calls)
     stress       :      8.13s CPU      9.96s WALL (       1 calls)

     Called by init_run:
     wfcinit      :      9.69s CPU     17.11s WALL (       1 calls)
     potinit      :      1.05s CPU      1.78s WALL (       1 calls)

     Called by electrons:
     c_bands      :    389.67s CPU    628.29s WALL (      17 calls)
     sum_band     :     61.56s CPU    105.43s WALL (      17 calls)
     v_of_rho     :     15.90s CPU     28.30s WALL (      18 calls)
     newd         :      6.81s CPU      7.12s WALL (      18 calls)
     mix_rho      :      0.57s CPU      1.04s WALL (      17 calls)
     vdW_energy   :      2.49s CPU      2.51s WALL (      54 calls)
     vdW_ffts     :     27.72s CPU     53.56s WALL (     110 calls)
     vdW_v        :      5.66s CPU      9.55s WALL (      54 calls)

     Called by c_bands:
     init_us_2    :      0.67s CPU      0.69s WALL (     740 calls)
     cegterg      :    383.35s CPU    620.81s WALL (     340 calls)

     Called by *egterg:
     h_psi        :    258.97s CPU    484.25s WALL (    1405 calls)
     s_psi        :      9.72s CPU      9.77s WALL (    1405 calls)
     g_psi        :      0.62s CPU      0.62s WALL (    1045 calls)
     cdiaghg      :     73.72s CPU     77.02s WALL (    1385 calls)

     Called by h_psi:
     add_vuspsi   :      9.93s CPU      9.94s WALL (    1405 calls)

     General routines
     calbec       :     19.95s CPU     25.98s WALL (    1785 calls)
     fft          :     41.44s CPU     79.95s WALL (    3291 calls)
     ffts         :      0.12s CPU      0.23s WALL (      35 calls)
     fftw         :    270.17s CPU    532.02s WALL (  224848 calls)
     interpolate  :      0.55s CPU      1.04s WALL (      35 calls)
     davcio       :      0.00s CPU      0.02s WALL (      20 calls)
 
     Parallel routines
     fft_scatter  :    274.57s CPU    573.36s WALL (  228174 calls)
 
     PWSCF        :  8m46.62s CPU    14m15.95s WALL

 
   This run was terminated on:  22:41:33  17Jan2018            

=------------------------------------------------------------------------------=
   JOB DONE.
=------------------------------------------------------------------------------=
Job  /afs/slac/g/suncat/bin/suncat-tsmpirun -x LD_LIBRARY_PATH -wdir /scratch/qe842471_ZJ858 pw.x -in pw.inp

TID   HOST_NAME   COMMAND_LINE            STATUS            TERMINATION_TIME
===== ========== ================  =======================  ===================
00000 suncat0264 pw.x -in pw.inp   Done                     01/17/2018 22:41:33
00001 suncat0264 pw.x -in pw.inp   Done                     01/17/2018 22:41:33
00002 suncat0264 pw.x -in pw.inp   Done                     01/17/2018 22:41:33
00003 suncat0264 pw.x -in pw.inp   Done                     01/17/2018 22:41:33
00004 suncat0264 pw.x -in pw.inp   Done                     01/17/2018 22:41:33
00005 suncat0264 pw.x -in pw.inp   Done                     01/17/2018 22:41:33
00006 suncat0264 pw.x -in pw.inp   Done                     01/17/2018 22:41:33
00007 suncat0264 pw.x -in pw.inp   Done                     01/17/2018 22:41:33
00008 suncat0259 pw.x -in pw.inp   Done                     01/17/2018 22:41:33
00009 suncat0259 pw.x -in pw.inp   Done                     01/17/2018 22:41:33
00010 suncat0259 pw.x -in pw.inp   Done                     01/17/2018 22:41:33
00011 suncat0259 pw.x -in pw.inp   Done                     01/17/2018 22:41:33
00012 suncat0259 pw.x -in pw.inp   Done                     01/17/2018 22:41:33
00013 suncat0259 pw.x -in pw.inp   Done                     01/17/2018 22:41:33
00014 suncat0259 pw.x -in pw.inp   Done                     01/17/2018 22:41:33
00015 suncat0259 pw.x -in pw.inp   Done                     01/17/2018 22:41:33
00016 suncat0258 pw.x -in pw.inp   Done                     01/17/2018 22:41:33
00017 suncat0258 pw.x -in pw.inp   Done                     01/17/2018 22:41:33
00018 suncat0258 pw.x -in pw.inp   Done                     01/17/2018 22:41:33
00019 suncat0258 pw.x -in pw.inp   Done                     01/17/2018 22:41:33
00020 suncat0258 pw.x -in pw.inp   Done                     01/17/2018 22:41:33
00021 suncat0258 pw.x -in pw.inp   Done                     01/17/2018 22:41:33
00022 suncat0258 pw.x -in pw.inp   Done                     01/17/2018 22:41:33
00023 suncat0258 pw.x -in pw.inp   Done                     01/17/2018 22:41:33
00024 suncat0256 pw.x -in pw.inp   Done                     01/17/2018 22:41:33
00025 suncat0256 pw.x -in pw.inp   Done                     01/17/2018 22:41:33
00026 suncat0256 pw.x -in pw.inp   Done                     01/17/2018 22:41:33
00027 suncat0256 pw.x -in pw.inp   Done                     01/17/2018 22:41:33
00028 suncat0256 pw.x -in pw.inp   Done                     01/17/2018 22:41:33
00029 suncat0256 pw.x -in pw.inp   Done                     01/17/2018 22:41:33
00030 suncat0256 pw.x -in pw.inp   Done                     01/17/2018 22:41:33
00031 suncat0256 pw.x -in pw.inp   Done                     01/17/2018 22:41:33
