  python dir          : /u/if/mamunm/src/espresso
  espresso dir        : /nfs/slac/g/suncatfs/sw/espv18/espresso-dynpy-beef/bin
  pseudo dir          : /u/if/mamunm/psp/gbrv1.5pbe
  ase-espresso py git : GITVERSION



     Program PWSCF v.5.1rc2 (svn rev. 11289) starts on 24Apr2018 at  9:51:34 

     This program is part of the open-source Quantum ESPRESSO suite
     for quantum simulation of materials; please cite
         "P. Giannozzi et al., J. Phys.:Condens. Matter 21 395502 (2009);
          URL http://www.quantum-espresso.org", 
     in publications or presentations arising from this work. More details at
     http://www.quantum-espresso.org/quote

     Parallel version (MPI), running on    32 processors
     K-points division:     npool     =       4
     R & G space division:  proc/nbgrp/npool/nimage =       8
     Reading input from pw.inp
     Message from routine read_cards :
     DEPRECATED: no units specified in CELL_PARAMETERS card

     Current dimensions of program PWSCF are:
     Max number of different atomic species (ntypx) = 10
     Max number of k-points (npk) =  40000
     Max angular momentum in pseudopotentials (lmaxx) =  3
     Presently stress not available with electric field


     **************************************************************************
     Initializing libbeef V0.1.1 with the BEEF-vdW functional.
     Citation: Wellendorff et al., PRB 85, 235149 (2012).
     **************************************************************************


     IMPORTANT: XC functional enforced from input :
     Exchange-correlation      = BEEF-VDW ( 1  4 27 13 2)
     Any further DFT definition will be discarded
     Please, verify this is what you really want


     Subspace diagonalization in iterative solution of the eigenvalue problem:
     a serial algorithm will be used

 
     Parallelization info
     --------------------
     sticks:   dense  smooth     PW     G-vecs:    dense   smooth      PW
     Min         329     130     39                61797    15613    2499
     Max         330     131     40                61814    15645    2512
     Sum        2635    1045    313               494447   125015   20053
 


     bravais-lattice index     =            0
     lattice parameter (alat)  =       1.8897  a.u.
     unit-cell volume          =    4158.3597 (a.u.)^3
     number of atoms/cell      =           14
     number of atomic types    =            3
     number of electrons       =       161.00
     number of Kohn-Sham states=           90
     kinetic-energy cutoff     =      36.7493  Ry
     charge density cutoff     =     367.4932  Ry
     convergence threshold     =      1.0E-05
     mixing beta               =       0.3000
     number of iterations used =           10  plain     mixing
     Exchange-correlation      = BEEF-VDW ( 1  4 27 13 2)
     nstep                     =           50


     celldm(1)=   1.889726  celldm(2)=   0.000000  celldm(3)=   0.000000
     celldm(4)=   0.000000  celldm(5)=   0.000000  celldm(6)=   0.000000

     crystal axes: (cart. coord. in units of alat)
               a(1) = (   5.399178   0.000000   0.000000 )  
               a(2) = (   2.699589   4.675825   0.000000 )  
               a(3) = (   0.000000   0.000000  24.408411 )  

     reciprocal axes: (cart. coord. in units 2 pi/alat)
               b(1) = (  0.185213 -0.106933  0.000000 )  
               b(2) = (  0.000000  0.213866  0.000000 )  
               b(3) = (  0.000000  0.000000  0.040969 )  


     PseudoPot. # 1 for V  read from file:
     /u/if/mamunm/psp/gbrv1.5pbe/V.UPF
     MD5 check sum: 22b79981416ebb76fdaf5b1b8640f6fb
     Pseudo is Ultrasoft + core correction, Zval = 13.0
     Generated by new atomic code, or converted to UPF format
     Using radial grid of  853 points,  6 beta functions with: 
                l(1) =   0
                l(2) =   0
                l(3) =   1
                l(4) =   1
                l(5) =   2
                l(6) =   2
     Q(r) pseudized with  8 coefficients,  rinner =    1.100   1.100   1.100
                                                       1.100   1.100

     PseudoPot. # 2 for C  read from file:
     /u/if/mamunm/psp/gbrv1.5pbe/C.UPF
     MD5 check sum: d1aef80898a10debaa0f26306b886e00
     Pseudo is Ultrasoft + core correction, Zval =  4.0
     Generated by new atomic code, or converted to UPF format
     Using radial grid of  721 points,  4 beta functions with: 
                l(1) =   0
                l(2) =   0
                l(3) =   1
                l(4) =   1
     Q(r) pseudized with  8 coefficients,  rinner =    1.100   1.100   1.100


     PseudoPot. # 3 for H  read from file:
     /u/if/mamunm/psp/gbrv1.5pbe/H.UPF
     MD5 check sum: 761ae9a214b05c3daf00ab9f6b793d6f
     Pseudo is Ultrasoft, Zval =  1.0
     Generated by new atomic code, or converted to UPF format
     Using radial grid of  615 points,  2 beta functions with: 
                l(1) =   0
                l(2) =   0
     Q(r) pseudized with  8 coefficients,  rinner =    0.700

     vdW kernel table read from file vdW_kernel_table
     MD5 check sum: 095c7af220d748ca6e76c0b4c6cfb241

     atomic species   valence    mass     pseudopotential
        V1            13.00    50.94150     V ( 1.00)
        C1             4.00    12.01100     C ( 1.00)
        H1             1.00     1.00800     H ( 1.00)

     No symmetry found



   Cartesian axes

     site n.     atom                  positions (alat units)
         1           V1  tau(   1) = (   1.3497945   0.7793042  10.0000000  )
         2           V1  tau(   2) = (   4.0493836   0.7793042  10.0000000  )
         3           V1  tau(   3) = (   2.6995891   3.1172170  10.0000000  )
         4           V1  tau(   4) = (   5.3991782   3.1172170  10.0000000  )
         5           V1  tau(   5) = (   5.3991782   1.5586085  12.2042053  )
         6           V1  tau(   6) = (   2.6995891   1.5586085  12.2042053  )
         7           V1  tau(   7) = (   6.7489727   3.8965212  12.2042053  )
         8           V1  tau(   8) = (   4.0493836   3.8965212  12.2042053  )
         9           V1  tau(   9) = (   0.0000000   0.0000000  14.4084105  )
        10           V1  tau(  10) = (   2.6995891   0.0000000  14.4084105  )
        11           V1  tau(  11) = (   1.3497945   2.3379127  14.4084105  )
        12           V1  tau(  12) = (   4.0493836   2.3379127  14.4084105  )
        13           C1  tau(  13) = (   2.6995891   1.5586085  15.8969105  )
        14           H1  tau(  14) = (   2.6995891   1.5586085  16.9969105  )

     number of k points=    20  Fermi-Dirac smearing, width (Ry)=  0.0110
                       cart. coord. in units 2pi/alat
        k(    1) = (   0.0000000   0.0000000   0.0000000), wk =   0.0555556
        k(    2) = (   0.0000000   0.0356443   0.0000000), wk =   0.1111111
        k(    3) = (   0.0000000   0.0712887   0.0000000), wk =   0.1111111
        k(    4) = (   0.0000000  -0.1069330   0.0000000), wk =   0.0555556
        k(    5) = (   0.0308689  -0.0178222   0.0000000), wk =   0.1111111
        k(    6) = (   0.0308689   0.0178222   0.0000000), wk =   0.1111111
        k(    7) = (   0.0308689   0.0534665   0.0000000), wk =   0.1111111
        k(    8) = (   0.0308689  -0.1247552   0.0000000), wk =   0.1111111
        k(    9) = (   0.0308689  -0.0891108   0.0000000), wk =   0.1111111
        k(   10) = (   0.0308689  -0.0534665   0.0000000), wk =   0.1111111
        k(   11) = (   0.0617378  -0.0356443   0.0000000), wk =   0.1111111
        k(   12) = (   0.0617378   0.0000000   0.0000000), wk =   0.1111111
        k(   13) = (   0.0617378   0.0356443   0.0000000), wk =   0.1111111
        k(   14) = (   0.0617378  -0.1425773   0.0000000), wk =   0.1111111
        k(   15) = (   0.0617378  -0.1069330   0.0000000), wk =   0.1111111
        k(   16) = (   0.0617378  -0.0712887   0.0000000), wk =   0.1111111
        k(   17) = (  -0.0926067   0.0534665   0.0000000), wk =   0.0555556
        k(   18) = (  -0.0926067   0.0891108   0.0000000), wk =   0.1111111
        k(   19) = (  -0.0926067   0.1247552   0.0000000), wk =   0.1111111
        k(   20) = (  -0.0926067  -0.0534665   0.0000000), wk =   0.0555556

     Dense  grid:   494447 G-vectors     FFT dimensions: (  64,  64, 288)

     Smooth grid:   125015 G-vectors     FFT dimensions: (  40,  40, 180)

     Largest allocated arrays     est. size (Mb)     dimensions
        Kohn-Sham Wavefunctions         2.81 Mb     (    2047,   90)
        NL pseudopotentials             7.06 Mb     (    2047,  226)
        Each V/rho on FFT grid          2.25 Mb     (  147456)
        Each G-vector array             0.47 Mb     (   61814)
        G-vector shells                 0.12 Mb     (   16161)
     Largest temporary arrays     est. size (Mb)     dimensions
        Auxiliary wavefunctions        11.24 Mb     (    2047,  360)
        Each subspace H/S matrix        1.98 Mb     (     360,  360)
        Each <psi_i|beta_j> matrix      0.31 Mb     (     226,   90)
        Arrays for rho mixing          22.50 Mb     (  147456,   10)

     Check: negative/imaginary core charge=   -0.000001    0.000000

     Initial potential from superposition of free atoms
     Check: negative starting charge=   -0.011536

     starting charge  160.98522, renormalised to  161.00000

     negative rho (up, down):  1.154E-02 0.000E+00


     ************************************************************************
     *
     * You are using vdW-DF for exchange-correlation in this calculation.
     * Please cite the following three references that made this development
     * possible:
     *
     *   M. Dion, H. Rydberg, E. Schroder, D. C. Langreth, and
     *   B. I. Lundqvist, Phys. Rev. Lett. 92, 246401 (2004).
     *
     *   T. Thonhauser, V. R. Cooper, S. Li, A. Puzder, P. Hyldgaard, and
     *   D. C. Langreth, Phys. Rev. B 76, 125112 (2007).
     *
     *   G. Roman-Perez and J. M. Soler, Phys. Rev. Lett. 103, 096102 (2009).
     *
     *
     * If you are using vdW-DF2, please also cite:
     *
     *   K. Lee, E. D. Murray, L. Kong, B. I. Lundqvist, and
     *   D. C. Langreth, Phys. Rev. B 82, 081101(R) (2010).
     *
     *
     * If you are calculating the stress with vdW-DF, please also cite:
     *
     *   R. Sabatini, E. Kucukbenli, B. Kolb, T. Thonhauser, and
     *   S. de Gironcoli, J. Phys.: Condens. Matter 24, 424209 (2012).
     *
     ************************************************************************

     Carrying out vdW-DF run using the following parameters:

     Nqs =      20    Nr_points =    1024   r_max =   100.000
     q_mesh =
               0.00001000     0.04494208     0.09755937     0.15916263
               0.23128650     0.31572767     0.41458969     0.53033537
               0.66584808     0.82450364     1.01025438     1.22772762
               1.48234092     1.78043706     2.12944203     2.53805004
               3.01644009     3.57652955     4.23227104     5.00000000

     Gradients computed in reciprocal space

     ************************************************************************


 
     Adding external electric field

     Computed dipole along edir(3) : 
        Dipole               -0.0030 Ry au,         -0.0077 Debye
        Dipole field         -0.0000 Ry au
 
        Potential amp.        0.0008 Ry
        Total length         44.9721 bohr
 
     Starting wfc are  125 randomized atomic wfcs

     total cpu time spent up to now is        9.7 secs

     per-process dynamical memory:    71.5 Mb

     Self-consistent Calculation

     iteration #  1     ecut=    36.75 Ry     beta=0.30
     Davidson diagonalization with overlap
     ethr =  1.00E-02,  avg # of iterations =  2.2

     negative rho (up, down):  1.228E-02 0.000E+00
 
     Adding external electric field

     Computed dipole along edir(3) : 
        Dipole               -3.8252 Ry au,         -9.7227 Debye
        Dipole field         -0.0116 Ry au
 
        Potential amp.        1.0397 Ry
        Total length         44.9721 bohr
 

     total cpu time spent up to now is       24.1 secs

     total energy              =   -1756.42052888 Ry
     Harris-Foulkes estimate   =   -1762.35851201 Ry
     estimated scf accuracy    <      12.31996757 Ry

     iteration #  2     ecut=    36.75 Ry     beta=0.30
     Davidson diagonalization with overlap
     ethr =  7.65E-03,  avg # of iterations =  9.7

     negative rho (up, down):  1.130E-02 0.000E+00
 
     Adding external electric field

     Computed dipole along edir(3) : 
        Dipole                3.1564 Ry au,          8.0228 Debye
        Dipole field          0.0095 Ry au
 
        Potential amp.       -0.8579 Ry
        Total length         44.9721 bohr
 

     total cpu time spent up to now is       47.0 secs

     total energy              =   -1739.36437158 Ry
     Harris-Foulkes estimate   =   -1789.58621601 Ry
     estimated scf accuracy    <    1339.59105996 Ry

     iteration #  3     ecut=    36.75 Ry     beta=0.30
     Davidson diagonalization with overlap
     ethr =  7.65E-03,  avg # of iterations =  8.8

     negative rho (up, down):  1.065E-02 0.000E+00
 
     Adding external electric field

     Computed dipole along edir(3) : 
        Dipole                1.0390 Ry au,          2.6408 Debye
        Dipole field          0.0031 Ry au
 
        Potential amp.       -0.2824 Ry
        Total length         44.9721 bohr
 

     total cpu time spent up to now is       69.0 secs

     total energy              =   -1752.36173601 Ry
     Harris-Foulkes estimate   =   -1775.42340742 Ry
     estimated scf accuracy    <     728.67949034 Ry

     iteration #  4     ecut=    36.75 Ry     beta=0.30
     Davidson diagonalization with overlap
     ethr =  7.65E-03,  avg # of iterations =  5.2

     negative rho (up, down):  1.087E-02 0.000E+00
 
     Adding external electric field

     Computed dipole along edir(3) : 
        Dipole                0.6555 Ry au,          1.6660 Debye
        Dipole field          0.0020 Ry au
 
        Potential amp.       -0.1782 Ry
        Total length         44.9721 bohr
 

     total cpu time spent up to now is       86.2 secs

     total energy              =   -1761.46692197 Ry
     Harris-Foulkes estimate   =   -1762.40623723 Ry
     estimated scf accuracy    <      23.56054176 Ry

     iteration #  5     ecut=    36.75 Ry     beta=0.30
     Davidson diagonalization with overlap
     ethr =  7.65E-03,  avg # of iterations =  1.1

     negative rho (up, down):  1.116E-02 0.000E+00
 
     Adding external electric field

     Computed dipole along edir(3) : 
        Dipole                0.5105 Ry au,          1.2976 Debye
        Dipole field          0.0015 Ry au
 
        Potential amp.       -0.1388 Ry
        Total length         44.9721 bohr
 

     total cpu time spent up to now is       99.2 secs

     total energy              =   -1761.50624517 Ry
     Harris-Foulkes estimate   =   -1761.73948786 Ry
     estimated scf accuracy    <       8.21985371 Ry

     iteration #  6     ecut=    36.75 Ry     beta=0.30
     Davidson diagonalization with overlap
     ethr =  5.11E-03,  avg # of iterations =  1.2

     negative rho (up, down):  1.231E-02 0.000E+00
 
     Adding external electric field

     Computed dipole along edir(3) : 
        Dipole                0.7703 Ry au,          1.9580 Debye
        Dipole field          0.0023 Ry au
 
        Potential amp.       -0.2094 Ry
        Total length         44.9721 bohr
 

     total cpu time spent up to now is      112.3 secs

     total energy              =   -1761.30072603 Ry
     Harris-Foulkes estimate   =   -1761.65512456 Ry
     estimated scf accuracy    <       3.20755547 Ry

     iteration #  7     ecut=    36.75 Ry     beta=0.30
     Davidson diagonalization with overlap
     ethr =  1.99E-03,  avg # of iterations =  5.0

     negative rho (up, down):  1.234E-02 0.000E+00
 
     Adding external electric field

     Computed dipole along edir(3) : 
        Dipole                0.4432 Ry au,          1.1264 Debye
        Dipole field          0.0013 Ry au
 
        Potential amp.       -0.1205 Ry
        Total length         44.9721 bohr
 

     total cpu time spent up to now is      128.6 secs

     total energy              =   -1761.59483948 Ry
     Harris-Foulkes estimate   =   -1761.82079017 Ry
     estimated scf accuracy    <       5.13702577 Ry

     iteration #  8     ecut=    36.75 Ry     beta=0.30
     Davidson diagonalization with overlap
     ethr =  1.99E-03,  avg # of iterations =  1.3

     negative rho (up, down):  1.243E-02 0.000E+00
 
     Adding external electric field

     Computed dipole along edir(3) : 
        Dipole                0.4669 Ry au,          1.1867 Debye
        Dipole field          0.0014 Ry au
 
        Potential amp.       -0.1269 Ry
        Total length         44.9721 bohr
 

     total cpu time spent up to now is      141.6 secs

     total energy              =   -1761.57164551 Ry
     Harris-Foulkes estimate   =   -1761.67012209 Ry
     estimated scf accuracy    <       1.24845105 Ry

     iteration #  9     ecut=    36.75 Ry     beta=0.30
     Davidson diagonalization with overlap
     ethr =  7.75E-04,  avg # of iterations =  4.2

     negative rho (up, down):  1.270E-02 0.000E+00
 
     Adding external electric field

     Computed dipole along edir(3) : 
        Dipole                0.5130 Ry au,          1.3038 Debye
        Dipole field          0.0016 Ry au
 
        Potential amp.       -0.1394 Ry
        Total length         44.9721 bohr
 

     total cpu time spent up to now is      156.8 secs

     total energy              =   -1761.74718507 Ry
     Harris-Foulkes estimate   =   -1761.72031292 Ry
     estimated scf accuracy    <       0.98733875 Ry

     iteration # 10     ecut=    36.75 Ry     beta=0.30
     Davidson diagonalization with overlap
     ethr =  6.13E-04,  avg # of iterations =  1.8

     negative rho (up, down):  1.307E-02 0.000E+00
 
     Adding external electric field

     Computed dipole along edir(3) : 
        Dipole                0.4737 Ry au,          1.2041 Debye
        Dipole field          0.0014 Ry au
 
        Potential amp.       -0.1288 Ry
        Total length         44.9721 bohr
 

     total cpu time spent up to now is      170.4 secs

     total energy              =   -1761.69330977 Ry
     Harris-Foulkes estimate   =   -1761.77366549 Ry
     estimated scf accuracy    <       2.28298341 Ry

     iteration # 11     ecut=    36.75 Ry     beta=0.30
     Davidson diagonalization with overlap
     ethr =  6.13E-04,  avg # of iterations =  1.0

     negative rho (up, down):  1.333E-02 0.000E+00
 
     Adding external electric field

     Computed dipole along edir(3) : 
        Dipole                0.4050 Ry au,          1.0295 Debye
        Dipole field          0.0012 Ry au
 
        Potential amp.       -0.1101 Ry
        Total length         44.9721 bohr
 

     total cpu time spent up to now is      183.3 secs

     total energy              =   -1761.63930036 Ry
     Harris-Foulkes estimate   =   -1761.70626162 Ry
     estimated scf accuracy    <       1.28074876 Ry

     iteration # 12     ecut=    36.75 Ry     beta=0.30
     Davidson diagonalization with overlap
     ethr =  6.13E-04,  avg # of iterations =  1.0

     negative rho (up, down):  1.340E-02 0.000E+00
 
     Adding external electric field

     Computed dipole along edir(3) : 
        Dipole                0.3446 Ry au,          0.8759 Debye
        Dipole field          0.0010 Ry au
 
        Potential amp.       -0.0937 Ry
        Total length         44.9721 bohr
 

     total cpu time spent up to now is      196.3 secs

     total energy              =   -1761.63599068 Ry
     Harris-Foulkes estimate   =   -1761.65656509 Ry
     estimated scf accuracy    <       0.33957931 Ry

     iteration # 13     ecut=    36.75 Ry     beta=0.30
     Davidson diagonalization with overlap
     ethr =  2.11E-04,  avg # of iterations =  6.0

     negative rho (up, down):  1.407E-02 0.000E+00
 
     Adding external electric field

     Computed dipole along edir(3) : 
        Dipole                0.2057 Ry au,          0.5229 Debye
        Dipole field          0.0006 Ry au
 
        Potential amp.       -0.0559 Ry
        Total length         44.9721 bohr
 

     total cpu time spent up to now is      212.4 secs

     total energy              =   -1761.64462044 Ry
     Harris-Foulkes estimate   =   -1761.65079157 Ry
     estimated scf accuracy    <       0.01684968 Ry

     iteration # 14     ecut=    36.75 Ry     beta=0.30
     Davidson diagonalization with overlap
     ethr =  1.05E-05,  avg # of iterations =  7.2

     negative rho (up, down):  1.414E-02 0.000E+00
 
     Adding external electric field

     Computed dipole along edir(3) : 
        Dipole                0.1875 Ry au,          0.4765 Debye
        Dipole field          0.0006 Ry au
 
        Potential amp.       -0.0510 Ry
        Total length         44.9721 bohr
 

     total cpu time spent up to now is      232.5 secs

     total energy              =   -1761.65945247 Ry
     Harris-Foulkes estimate   =   -1761.66512011 Ry
     estimated scf accuracy    <       0.27533306 Ry

     iteration # 15     ecut=    36.75 Ry     beta=0.30
     Davidson diagonalization with overlap
     ethr =  1.05E-05,  avg # of iterations =  6.8

     negative rho (up, down):  1.442E-02 0.000E+00
 
     Adding external electric field

     Computed dipole along edir(3) : 
        Dipole                0.1383 Ry au,          0.3514 Debye
        Dipole field          0.0004 Ry au
 
        Potential amp.       -0.0376 Ry
        Total length         44.9721 bohr
 

     total cpu time spent up to now is      249.3 secs

     total energy              =   -1761.65375344 Ry
     Harris-Foulkes estimate   =   -1761.66158103 Ry
     estimated scf accuracy    <       0.17992037 Ry

     iteration # 16     ecut=    36.75 Ry     beta=0.30
     Davidson diagonalization with overlap
     ethr =  1.05E-05,  avg # of iterations =  5.7

     negative rho (up, down):  1.439E-02 0.000E+00
 
     Adding external electric field

     Computed dipole along edir(3) : 
        Dipole                0.1167 Ry au,          0.2967 Debye
        Dipole field          0.0004 Ry au
 
        Potential amp.       -0.0317 Ry
        Total length         44.9721 bohr
 

     total cpu time spent up to now is      266.9 secs

     total energy              =   -1761.65505758 Ry
     Harris-Foulkes estimate   =   -1761.65669894 Ry
     estimated scf accuracy    <       0.03186516 Ry

     iteration # 17     ecut=    36.75 Ry     beta=0.30
     Davidson diagonalization with overlap
     c_bands:  1 eigenvalues not converged
     ethr =  1.05E-05,  avg # of iterations =  2.6

     negative rho (up, down):  1.466E-02 0.000E+00
 
     Adding external electric field

     Computed dipole along edir(3) : 
        Dipole                0.0910 Ry au,          0.2313 Debye
        Dipole field          0.0003 Ry au
 
        Potential amp.       -0.0247 Ry
        Total length         44.9721 bohr
 

     total cpu time spent up to now is      281.2 secs

     total energy              =   -1761.65538083 Ry
     Harris-Foulkes estimate   =   -1761.65569486 Ry
     estimated scf accuracy    <       0.00660216 Ry

     iteration # 18     ecut=    36.75 Ry     beta=0.30
     Davidson diagonalization with overlap
     ethr =  4.10E-06,  avg # of iterations =  8.2

     negative rho (up, down):  1.479E-02 0.000E+00
 
     Adding external electric field

     Computed dipole along edir(3) : 
        Dipole                0.0770 Ry au,          0.1958 Debye
        Dipole field          0.0002 Ry au
 
        Potential amp.       -0.0209 Ry
        Total length         44.9721 bohr
 

     total cpu time spent up to now is      299.9 secs

     total energy              =   -1761.65577282 Ry
     Harris-Foulkes estimate   =   -1761.65604020 Ry
     estimated scf accuracy    <       0.00248836 Ry

     iteration # 19     ecut=    36.75 Ry     beta=0.30
     Davidson diagonalization with overlap
     c_bands:  1 eigenvalues not converged
     ethr =  1.55E-06,  avg # of iterations =  6.2

     negative rho (up, down):  1.493E-02 0.000E+00
 
     Adding external electric field

     Computed dipole along edir(3) : 
        Dipole                0.0666 Ry au,          0.1693 Debye
        Dipole field          0.0002 Ry au
 
        Potential amp.       -0.0181 Ry
        Total length         44.9721 bohr
 

     total cpu time spent up to now is      316.2 secs

     total energy              =   -1761.65594466 Ry
     Harris-Foulkes estimate   =   -1761.65602120 Ry
     estimated scf accuracy    <       0.00337970 Ry

     iteration # 20     ecut=    36.75 Ry     beta=0.30
     Davidson diagonalization with overlap
     ethr =  1.55E-06,  avg # of iterations =  1.2

     negative rho (up, down):  1.504E-02 0.000E+00
 
     Adding external electric field

     Computed dipole along edir(3) : 
        Dipole                0.0586 Ry au,          0.1490 Debye
        Dipole field          0.0002 Ry au
 
        Potential amp.       -0.0159 Ry
        Total length         44.9721 bohr
 

     total cpu time spent up to now is      329.4 secs

     total energy              =   -1761.65598717 Ry
     Harris-Foulkes estimate   =   -1761.65600896 Ry
     estimated scf accuracy    <       0.00052835 Ry

     iteration # 21     ecut=    36.75 Ry     beta=0.30
     Davidson diagonalization with overlap
     ethr =  3.28E-07,  avg # of iterations =  8.8

     negative rho (up, down):  1.510E-02 0.000E+00
 
     Adding external electric field

     Computed dipole along edir(3) : 
        Dipole                0.0586 Ry au,          0.1490 Debye
        Dipole field          0.0002 Ry au
 
        Potential amp.       -0.0159 Ry
        Total length         44.9721 bohr
 

     total cpu time spent up to now is      348.6 secs

     total energy              =   -1761.65605204 Ry
     Harris-Foulkes estimate   =   -1761.65607376 Ry
     estimated scf accuracy    <       0.00105755 Ry

     iteration # 22     ecut=    36.75 Ry     beta=0.30
     Davidson diagonalization with overlap
     ethr =  3.28E-07,  avg # of iterations =  1.0

     negative rho (up, down):  1.520E-02 0.000E+00
 
     Adding external electric field

     Computed dipole along edir(3) : 
        Dipole                0.0536 Ry au,          0.1361 Debye
        Dipole field          0.0002 Ry au
 
        Potential amp.       -0.0146 Ry
        Total length         44.9721 bohr
 

     total cpu time spent up to now is      361.6 secs

     total energy              =   -1761.65601956 Ry
     Harris-Foulkes estimate   =   -1761.65606115 Ry
     estimated scf accuracy    <       0.00094645 Ry

     iteration # 23     ecut=    36.75 Ry     beta=0.30
     Davidson diagonalization with overlap
     ethr =  3.28E-07,  avg # of iterations =  3.9

     negative rho (up, down):  1.531E-02 0.000E+00
 
     Adding external electric field

     Computed dipole along edir(3) : 
        Dipole                0.0513 Ry au,          0.1303 Debye
        Dipole field          0.0002 Ry au
 
        Potential amp.       -0.0139 Ry
        Total length         44.9721 bohr
 

     total cpu time spent up to now is      376.7 secs

     total energy              =   -1761.65603176 Ry
     Harris-Foulkes estimate   =   -1761.65603862 Ry
     estimated scf accuracy    <       0.00019208 Ry

     iteration # 24     ecut=    36.75 Ry     beta=0.30
     Davidson diagonalization with overlap
     ethr =  1.19E-07,  avg # of iterations =  6.9

     negative rho (up, down):  1.544E-02 0.000E+00
 
     Adding external electric field

     Computed dipole along edir(3) : 
        Dipole                0.0478 Ry au,          0.1215 Debye
        Dipole field          0.0001 Ry au
 
        Potential amp.       -0.0130 Ry
        Total length         44.9721 bohr
 

     total cpu time spent up to now is      394.6 secs

     total energy              =   -1761.65603665 Ry
     Harris-Foulkes estimate   =   -1761.65604470 Ry
     estimated scf accuracy    <       0.00009473 Ry

     iteration # 25     ecut=    36.75 Ry     beta=0.30
     Davidson diagonalization with overlap
     c_bands:  1 eigenvalues not converged
     ethr =  5.88E-08,  avg # of iterations =  6.0

     negative rho (up, down):  1.548E-02 0.000E+00
 
     Adding external electric field

     Computed dipole along edir(3) : 
        Dipole                0.0465 Ry au,          0.1182 Debye
        Dipole field          0.0001 Ry au
 
        Potential amp.       -0.0126 Ry
        Total length         44.9721 bohr
 

     total cpu time spent up to now is      410.8 secs

     total energy              =   -1761.65604071 Ry
     Harris-Foulkes estimate   =   -1761.65604294 Ry
     estimated scf accuracy    <       0.00001844 Ry

     iteration # 26     ecut=    36.75 Ry     beta=0.30
     Davidson diagonalization with overlap
     ethr =  1.15E-08,  avg # of iterations =  7.9

     negative rho (up, down):  1.543E-02 0.000E+00
 
     Adding external electric field

     Computed dipole along edir(3) : 
        Dipole                0.0472 Ry au,          0.1199 Debye
        Dipole field          0.0001 Ry au
 
        Potential amp.       -0.0128 Ry
        Total length         44.9721 bohr
 

     total cpu time spent up to now is      430.0 secs

     total energy              =   -1761.65604337 Ry
     Harris-Foulkes estimate   =   -1761.65604364 Ry
     estimated scf accuracy    <       0.00001823 Ry

     iteration # 27     ecut=    36.75 Ry     beta=0.30
     Davidson diagonalization with overlap
     ethr =  1.13E-08,  avg # of iterations =  1.0

     negative rho (up, down):  1.545E-02 0.000E+00
 
     Adding external electric field

     Computed dipole along edir(3) : 
        Dipole                0.0471 Ry au,          0.1198 Debye
        Dipole field          0.0001 Ry au
 
        Potential amp.       -0.0128 Ry
        Total length         44.9721 bohr
 

     total cpu time spent up to now is      443.4 secs

     total energy              =   -1761.65604283 Ry
     Harris-Foulkes estimate   =   -1761.65604363 Ry
     estimated scf accuracy    <       0.00001464 Ry

     iteration # 28     ecut=    36.75 Ry     beta=0.30
     Davidson diagonalization with overlap
     ethr =  9.10E-09,  avg # of iterations =  1.0

     negative rho (up, down):  1.548E-02 0.000E+00

     negative rho (up, down):  1.548E-02 0.000E+00

     negative rho (up, down):  1.548E-02 0.000E+00

     negative rho (up, down):  1.548E-02 0.000E+00

     negative rho (up, down):  1.548E-02 0.000E+00

     negative rho (up, down):  1.548E-02 0.000E+00

     negative rho (up, down):  1.548E-02 0.000E+00

     negative rho (up, down):  1.548E-02 0.000E+00

     negative rho (up, down):  1.548E-02 0.000E+00

     negative rho (up, down):  1.548E-02 0.000E+00

     negative rho (up, down):  1.548E-02 0.000E+00

     negative rho (up, down):  1.548E-02 0.000E+00

     negative rho (up, down):  1.548E-02 0.000E+00

     negative rho (up, down):  1.548E-02 0.000E+00

     negative rho (up, down):  1.548E-02 0.000E+00

     negative rho (up, down):  1.548E-02 0.000E+00

     negative rho (up, down):  1.548E-02 0.000E+00

     negative rho (up, down):  1.548E-02 0.000E+00

     negative rho (up, down):  1.548E-02 0.000E+00

     negative rho (up, down):  1.548E-02 0.000E+00

     negative rho (up, down):  1.548E-02 0.000E+00

     negative rho (up, down):  1.548E-02 0.000E+00

     negative rho (up, down):  1.548E-02 0.000E+00

     negative rho (up, down):  1.548E-02 0.000E+00

     negative rho (up, down):  1.548E-02 0.000E+00

     negative rho (up, down):  1.548E-02 0.000E+00

     negative rho (up, down):  1.548E-02 0.000E+00

     negative rho (up, down):  1.548E-02 0.000E+00

     negative rho (up, down):  1.548E-02 0.000E+00

     negative rho (up, down):  1.548E-02 0.000E+00

     negative rho (up, down):  1.548E-02 0.000E+00

     negative rho (up, down):  1.548E-02 0.000E+00

     negative rho (up, down):  1.548E-02 0.000E+00

     negative rho (up, down):  1.548E-02 0.000E+00

     negative rho (up, down):  1.548E-02 0.000E+00
 
     Adding external electric field

     Computed dipole along edir(3) : 
        Dipole                0.0461 Ry au,          0.1171 Debye
        Dipole field          0.0001 Ry au
 
        Potential amp.       -0.0125 Ry
        Total length         44.9721 bohr
 

     total cpu time spent up to now is      497.6 secs

     End of self-consistent calculation

          k = 0.0000 0.0000 0.0000 ( 15569 PWs)   bands (ev):

   -63.1437 -63.0769 -63.0184 -63.0116 -63.0016 -63.0014 -62.9781 -62.9766
   -62.9764 -62.9327 -62.9318 -62.9280 -37.2306 -37.2305 -37.2219 -37.1806
   -37.1747 -37.1747 -37.1598 -37.0908 -37.0905 -37.0866 -36.9353 -36.8678
   -36.8266 -36.8263 -36.8071 -36.8066 -36.8031 -36.7479 -36.7306 -36.7304
   -36.6681 -36.6637 -36.6636 -36.6633 -36.6482 -36.6481 -36.6179 -36.5866
   -36.5826 -36.5823 -36.5703 -36.5702 -36.5190 -36.5190 -36.4597 -36.4597
    -9.4941  -5.0046  -4.0500  -2.8964  -2.1323  -1.8964  -1.8963  -1.8290
    -1.8290  -1.7717  -1.4889  -1.2724  -1.2723  -1.1233  -1.1233  -1.1212
    -0.7916  -0.5064  -0.5063   0.0247   0.1830   0.1831   0.6425   0.8501
     0.8501   0.9812   1.0251   1.3017   1.3116   1.3116   1.4521   1.4632
     1.4632   1.5151   1.5152   1.5624   1.5938   1.5938   1.8028   1.8028
     1.9767   2.2472

          k = 0.0000 0.0356 0.0000 ( 15635 PWs)   bands (ev):

   -63.1353 -63.0705 -63.0221 -63.0080 -63.0058 -63.0016 -62.9834 -62.9768
   -62.9764 -62.9368 -62.9319 -62.9290 -37.2083 -37.2039 -37.1892 -37.1675
   -37.1546 -37.1491 -37.1351 -37.0697 -37.0669 -37.0521 -36.9349 -36.8819
   -36.8565 -36.8472 -36.8016 -36.7958 -36.7864 -36.7565 -36.7455 -36.7242
   -36.6968 -36.6944 -36.6549 -36.6533 -36.6470 -36.6412 -36.6326 -36.6056
   -36.6049 -36.6013 -36.5831 -36.5740 -36.5510 -36.5273 -36.4972 -36.4680
    -9.4825  -4.8102  -3.9382  -2.7547  -1.9802  -1.9589  -1.7952  -1.7877
    -1.7010  -1.6780  -1.4109  -1.1415  -1.1292  -1.0349  -1.0069  -0.9954
    -0.6805  -0.4905  -0.4845  -0.0035   0.1628   0.1846   0.5807   0.8536
     0.8684   0.9385   1.0307   1.0838   1.1698   1.2719   1.3103   1.3742
     1.4390   1.4643   1.5291   1.5318   1.5797   1.6409   1.6632   1.7564
     1.7592   2.0982

          k = 0.0000 0.0713 0.0000 ( 15669 PWs)   bands (ev):

   -63.1122 -63.0554 -63.0415 -63.0124 -63.0018 -62.9976 -62.9916 -62.9776
   -62.9764 -62.9508 -62.9319 -62.9294 -37.1521 -37.1488 -37.1318 -37.1086
   -37.1010 -37.0911 -37.0768 -37.0193 -37.0157 -36.9583 -36.9383 -36.9034
   -36.8934 -36.8874 -36.7925 -36.7891 -36.7759 -36.7721 -36.7717 -36.7473
   -36.7469 -36.7207 -36.6962 -36.6818 -36.6801 -36.6731 -36.6344 -36.6296
   -36.6293 -36.6253 -36.6243 -36.6072 -36.5711 -36.5539 -36.5486 -36.4907
    -9.4596  -4.3070  -3.6618  -2.4841  -2.2968  -1.7284  -1.5025  -1.4993
    -1.4384  -1.3867  -1.2233  -0.8822  -0.8646  -0.7611  -0.7086  -0.6757
    -0.4308  -0.3818  -0.3693  -0.0317   0.1598   0.1601   0.3185   0.5503
     0.6499   0.7511   0.7566   0.8446   1.0444   1.0768   1.0930   1.1257
     1.2103   1.2108   1.2560   1.3965   1.5091   1.5549   1.5902   1.6982
     1.7314   1.8051

          k = 0.0000-0.1069 0.0000 ( 15660 PWs)   bands (ev):

   -63.0857 -63.0730 -63.0341 -63.0201 -63.0065 -63.0019 -62.9793 -62.9763
   -62.9712 -62.9695 -62.9319 -62.9294 -37.1110 -37.1093 -37.0933 -37.0849
   -37.0808 -37.0691 -36.9908 -36.9825 -36.9775 -36.9718 -36.9351 -36.9322
   -36.8550 -36.8505 -36.8068 -36.8033 -36.7973 -36.7890 -36.7799 -36.7698
   -36.7505 -36.7462 -36.7392 -36.7318 -36.7267 -36.7230 -36.6608 -36.6531
   -36.6305 -36.6301 -36.6082 -36.6016 -36.5941 -36.5734 -36.5222 -36.5209
    -9.4482  -3.9601  -3.2485  -3.0304  -2.0912  -1.7071  -1.3221  -1.2668
    -1.1609  -1.1460  -1.0339  -0.9215  -0.8323  -0.5258  -0.4167  -0.3961
    -0.2908  -0.2636  -0.1924  -0.0996   0.1903   0.1963   0.2469   0.2921
     0.3591   0.4622   0.5834   0.6927   0.7580   0.7741   0.8691   0.9886
     0.9956   1.0706   1.1324   1.2546   1.3193   1.3623   1.3856   1.6172
     1.6696   1.8753

          k = 0.0309-0.0178 0.0000 ( 15635 PWs)   bands (ev):

   -63.1353 -63.0705 -63.0221 -63.0082 -63.0056 -63.0017 -62.9833 -62.9767
   -62.9765 -62.9364 -62.9327 -62.9286 -37.2082 -37.2039 -37.1892 -37.1675
   -37.1547 -37.1491 -37.1351 -37.0694 -37.0672 -37.0521 -36.9349 -36.8820
   -36.8563 -36.8474 -36.8012 -36.7960 -36.7865 -36.7566 -36.7454 -36.7242
   -36.6970 -36.6942 -36.6549 -36.6534 -36.6469 -36.6412 -36.6326 -36.6056
   -36.6052 -36.6009 -36.5830 -36.5742 -36.5509 -36.5273 -36.4972 -36.4680
    -9.4825  -4.8102  -3.9382  -2.7547  -1.9802  -1.9589  -1.7953  -1.7876
    -1.7010  -1.6781  -1.4109  -1.1416  -1.1291  -1.0349  -1.0068  -0.9954
    -0.6805  -0.4906  -0.4844  -0.0035   0.1627   0.1847   0.5807   0.8536
     0.8684   0.9385   1.0307   1.0838   1.1698   1.2719   1.3102   1.3742
     1.4390   1.4643   1.5292   1.5318   1.5797   1.6409   1.6632   1.7564
     1.7592   2.0982

          k = 0.0309 0.0178 0.0000 ( 15635 PWs)   bands (ev):

   -63.1353 -63.0705 -63.0221 -63.0080 -63.0058 -63.0015 -62.9834 -62.9768
   -62.9764 -62.9368 -62.9320 -62.9290 -37.2083 -37.2038 -37.1892 -37.1675
   -37.1546 -37.1492 -37.1351 -37.0697 -37.0669 -37.0521 -36.9349 -36.8819
   -36.8564 -36.8472 -36.8016 -36.7958 -36.7864 -36.7565 -36.7455 -36.7242
   -36.6969 -36.6944 -36.6549 -36.6533 -36.6470 -36.6412 -36.6326 -36.6055
   -36.6049 -36.6013 -36.5831 -36.5740 -36.5509 -36.5273 -36.4972 -36.4680
    -9.4825  -4.8102  -3.9382  -2.7547  -1.9802  -1.9589  -1.7952  -1.7877
    -1.7010  -1.6780  -1.4109  -1.1415  -1.1292  -1.0349  -1.0069  -0.9954
    -0.6805  -0.4905  -0.4845  -0.0035   0.1628   0.1846   0.5807   0.8536
     0.8684   0.9385   1.0307   1.0838   1.1698   1.2719   1.3103   1.3742
     1.4390   1.4643   1.5291   1.5318   1.5797   1.6410   1.6631   1.7564
     1.7592   2.0983

          k = 0.0309 0.0535 0.0000 ( 15620 PWs)   bands (ev):

   -63.1195 -63.0592 -63.0305 -63.0203 -63.0004 -62.9957 -62.9877 -62.9841
   -62.9733 -62.9424 -62.9391 -62.9260 -37.1770 -37.1446 -37.1398 -37.1361
   -37.1212 -37.1052 -37.0950 -37.0416 -37.0067 -37.0010 -36.9368 -36.9001
   -36.8865 -36.8807 -36.8086 -36.7878 -36.7770 -36.7752 -36.7590 -36.7356
   -36.7222 -36.6910 -36.6851 -36.6729 -36.6688 -36.6616 -36.6412 -36.6351
   -36.6296 -36.6062 -36.5984 -36.5863 -36.5841 -36.5549 -36.5403 -36.4871
    -9.4653  -4.4569  -3.7450  -2.5010  -2.0280  -1.9607  -1.6870  -1.6311
    -1.5002  -1.4186  -1.2548  -0.9191  -0.8898  -0.8579  -0.8170  -0.7672
    -0.4834  -0.4464  -0.4247  -0.0538   0.1196   0.2450   0.4232   0.6785
     0.7295   0.8088   0.8499   0.8712   0.9982   1.1230   1.1584   1.2096
     1.2643   1.2980   1.4164   1.4373   1.5566   1.5892   1.6662   1.7445
     1.7853   1.8192

          k = 0.0309-0.1248 0.0000 ( 15642 PWs)   bands (ev):

   -63.0925 -63.0585 -63.0377 -63.0273 -63.0098 -62.9934 -62.9849 -62.9786
   -62.9715 -62.9580 -62.9432 -62.9234 -37.1187 -37.1035 -37.0835 -37.0742
   -37.0701 -37.0583 -37.0319 -36.9943 -36.9618 -36.9540 -36.9444 -36.9132
   -36.9057 -36.8635 -36.8586 -36.8108 -36.7991 -36.7802 -36.7675 -36.7628
   -36.7453 -36.7376 -36.7345 -36.7106 -36.6997 -36.6863 -36.6543 -36.6529
   -36.6425 -36.6325 -36.6069 -36.6005 -36.5947 -36.5737 -36.5547 -36.5195
    -9.4483  -3.9950  -3.3625  -2.6318  -2.0842  -1.9094  -1.6141  -1.3606
    -1.1305  -1.0691  -0.9730  -0.7713  -0.6856  -0.5539  -0.4840  -0.4416
    -0.3769  -0.2531  -0.1736   0.0069   0.0741   0.1480   0.2590   0.3146
     0.3751   0.4531   0.5288   0.6067   0.7520   0.8208   0.8617   0.9252
     0.9687   1.0413   1.1720   1.2095   1.3369   1.4206   1.5224   1.6157
     1.7060   1.8612

          k = 0.0309-0.0891 0.0000 ( 15642 PWs)   bands (ev):

   -63.0926 -63.0584 -63.0377 -63.0274 -63.0098 -62.9935 -62.9849 -62.9785
   -62.9716 -62.9580 -62.9432 -62.9234 -37.1187 -37.1034 -37.0836 -37.0742
   -37.0700 -37.0584 -37.0319 -36.9943 -36.9618 -36.9540 -36.9444 -36.9133
   -36.9056 -36.8635 -36.8586 -36.8109 -36.7991 -36.7800 -36.7676 -36.7628
   -36.7453 -36.7375 -36.7346 -36.7107 -36.6995 -36.6863 -36.6543 -36.6529
   -36.6425 -36.6326 -36.6069 -36.6004 -36.5947 -36.5737 -36.5547 -36.5195
    -9.4483  -3.9950  -3.3625  -2.6318  -2.0842  -1.9093  -1.6142  -1.3606
    -1.1305  -1.0691  -0.9730  -0.7713  -0.6856  -0.5539  -0.4840  -0.4416
    -0.3769  -0.2531  -0.1736   0.0069   0.0741   0.1480   0.2590   0.3146
     0.3751   0.4531   0.5288   0.6067   0.7521   0.8208   0.8617   0.9252
     0.9687   1.0413   1.1720   1.2094   1.3369   1.4206   1.5224   1.6157
     1.7060   1.8612

          k = 0.0309-0.0535 0.0000 ( 15620 PWs)   bands (ev):

   -63.1195 -63.0592 -63.0304 -63.0204 -63.0006 -62.9956 -62.9876 -62.9842
   -62.9733 -62.9418 -62.9399 -62.9259 -37.1770 -37.1446 -37.1399 -37.1361
   -37.1213 -37.1051 -37.0950 -37.0416 -37.0068 -37.0009 -36.9368 -36.9002
   -36.8864 -36.8808 -36.8086 -36.7876 -36.7770 -36.7755 -36.7590 -36.7356
   -36.7222 -36.6909 -36.6851 -36.6727 -36.6691 -36.6615 -36.6413 -36.6351
   -36.6296 -36.6062 -36.5984 -36.5861 -36.5844 -36.5549 -36.5403 -36.4871
    -9.4653  -4.4569  -3.7450  -2.5010  -2.0280  -1.9607  -1.6870  -1.6311
    -1.5002  -1.4186  -1.2549  -0.9191  -0.8898  -0.8579  -0.8169  -0.7672
    -0.4834  -0.4464  -0.4248  -0.0538   0.1197   0.2449   0.4232   0.6784
     0.7295   0.8088   0.8499   0.8712   0.9981   1.1231   1.1583   1.2096
     1.2643   1.2980   1.4164   1.4373   1.5566   1.5893   1.6662   1.7445
     1.7853   1.8192

          k = 0.0617-0.0356 0.0000 ( 15669 PWs)   bands (ev):

   -63.1122 -63.0554 -63.0415 -63.0124 -63.0019 -62.9976 -62.9915 -62.9775
   -62.9765 -62.9506 -62.9327 -62.9288 -37.1521 -37.1489 -37.1318 -37.1086
   -37.1010 -37.0912 -37.0768 -37.0189 -37.0161 -36.9583 -36.9383 -36.9033
   -36.8936 -36.8873 -36.7923 -36.7891 -36.7758 -36.7721 -36.7719 -36.7475
   -36.7467 -36.7206 -36.6963 -36.6818 -36.6804 -36.6728 -36.6345 -36.6299
   -36.6290 -36.6253 -36.6242 -36.6073 -36.5711 -36.5540 -36.5484 -36.4907
    -9.4596  -4.3070  -3.6618  -2.4841  -2.2967  -1.7284  -1.5024  -1.4994
    -1.4384  -1.3866  -1.2234  -0.8822  -0.8645  -0.7612  -0.7085  -0.6757
    -0.4309  -0.3816  -0.3694  -0.0317   0.1599   0.1601   0.3185   0.5503
     0.6499   0.7511   0.7565   0.8446   1.0445   1.0769   1.0930   1.1255
     1.2105   1.2107   1.2559   1.3964   1.5091   1.5548   1.5903   1.6983
     1.7314   1.8051

          k = 0.0617 0.0000 0.0000 ( 15620 PWs)   bands (ev):

   -63.1195 -63.0591 -63.0305 -63.0204 -63.0005 -62.9956 -62.9877 -62.9841
   -62.9733 -62.9417 -62.9399 -62.9259 -37.1770 -37.1446 -37.1398 -37.1361
   -37.1213 -37.1052 -37.0951 -37.0416 -37.0068 -37.0009 -36.9368 -36.9002
   -36.8863 -36.8808 -36.8086 -36.7876 -36.7771 -36.7755 -36.7590 -36.7356
   -36.7222 -36.6909 -36.6851 -36.6728 -36.6691 -36.6615 -36.6413 -36.6351
   -36.6296 -36.6062 -36.5984 -36.5861 -36.5844 -36.5549 -36.5403 -36.4871
    -9.4653  -4.4569  -3.7450  -2.5010  -2.0280  -1.9607  -1.6870  -1.6311
    -1.5002  -1.4186  -1.2549  -0.9191  -0.8898  -0.8579  -0.8169  -0.7672
    -0.4834  -0.4464  -0.4248  -0.0538   0.1197   0.2449   0.4232   0.6784
     0.7295   0.8088   0.8500   0.8712   0.9981   1.1231   1.1583   1.2096
     1.2643   1.2980   1.4164   1.4373   1.5566   1.5893   1.6662   1.7445
     1.7853   1.8192

          k = 0.0617 0.0356 0.0000 ( 15669 PWs)   bands (ev):

   -63.1122 -63.0554 -63.0415 -63.0124 -63.0017 -62.9976 -62.9916 -62.9776
   -62.9764 -62.9508 -62.9320 -62.9293 -37.1522 -37.1488 -37.1318 -37.1086
   -37.1010 -37.0911 -37.0768 -37.0193 -37.0158 -36.9583 -36.9383 -36.9034
   -36.8934 -36.8874 -36.7925 -36.7892 -36.7758 -36.7720 -36.7717 -36.7473
   -36.7470 -36.7207 -36.6962 -36.6818 -36.6801 -36.6730 -36.6345 -36.6296
   -36.6292 -36.6253 -36.6243 -36.6072 -36.5710 -36.5538 -36.5486 -36.4907
    -9.4596  -4.3070  -3.6618  -2.4841  -2.2968  -1.7284  -1.5025  -1.4993
    -1.4384  -1.3867  -1.2233  -0.8822  -0.8646  -0.7611  -0.7086  -0.6757
    -0.4308  -0.3818  -0.3693  -0.0317   0.1598   0.1601   0.3185   0.5503
     0.6499   0.7511   0.7566   0.8446   1.0444   1.0768   1.0930   1.1257
     1.2103   1.2108   1.2560   1.3964   1.5091   1.5549   1.5902   1.6982
     1.7314   1.8051

          k = 0.0617-0.1426 0.0000 ( 15642 PWs)   bands (ev):

   -63.0925 -63.0585 -63.0377 -63.0273 -63.0099 -62.9933 -62.9850 -62.9786
   -62.9715 -62.9580 -62.9432 -62.9234 -37.1187 -37.1035 -37.0835 -37.0742
   -37.0701 -37.0584 -37.0319 -36.9943 -36.9618 -36.9540 -36.9444 -36.9132
   -36.9057 -36.8635 -36.8586 -36.8107 -36.7991 -36.7803 -36.7675 -36.7627
   -36.7453 -36.7375 -36.7345 -36.7106 -36.6996 -36.6863 -36.6543 -36.6529
   -36.6425 -36.6325 -36.6069 -36.6005 -36.5946 -36.5737 -36.5547 -36.5195
    -9.4483  -3.9950  -3.3625  -2.6318  -2.0842  -1.9094  -1.6141  -1.3606
    -1.1305  -1.0691  -0.9730  -0.7713  -0.6856  -0.5539  -0.4840  -0.4416
    -0.3769  -0.2531  -0.1736   0.0069   0.0741   0.1480   0.2590   0.3146
     0.3751   0.4531   0.5288   0.6067   0.7520   0.8208   0.8617   0.9252
     0.9687   1.0413   1.1720   1.2095   1.3369   1.4206   1.5224   1.6157
     1.7060   1.8612

          k = 0.0617-0.1069 0.0000 ( 15672 PWs)   bands (ev):

   -63.0743 -63.0574 -63.0546 -63.0229 -63.0083 -63.0074 -62.9803 -62.9715
   -62.9625 -62.9602 -62.9588 -62.9208 -37.0816 -37.0620 -37.0546 -37.0531
   -37.0489 -37.0329 -37.0109 -37.0074 -36.9938 -36.9313 -36.9177 -36.9057
   -36.8844 -36.8836 -36.8768 -36.8366 -36.8312 -36.8288 -36.7821 -36.7689
   -36.7592 -36.7545 -36.7407 -36.6874 -36.6869 -36.6780 -36.6682 -36.6411
   -36.6399 -36.6361 -36.6165 -36.6141 -36.6032 -36.5643 -36.5640 -36.5626
    -9.4427  -3.8663  -2.7745  -2.7219  -2.5829  -1.7321  -1.6760  -1.3844
    -0.9549  -0.8403  -0.6917  -0.5626  -0.5318  -0.4902  -0.4089  -0.3997
    -0.1116  -0.1066  -0.0973  -0.0786  -0.0660   0.0386   0.0507   0.0950
     0.2727   0.3927   0.4514   0.5346   0.5627   0.6078   0.6260   0.6285
     0.7956   0.9285   1.0126   1.1864   1.4514   1.4684   1.5439   1.5539
     1.7651   1.8469

          k = 0.0617-0.0713 0.0000 ( 15642 PWs)   bands (ev):

   -63.0926 -63.0584 -63.0378 -63.0273 -63.0098 -62.9936 -62.9848 -62.9786
   -62.9716 -62.9579 -62.9434 -62.9233 -37.1187 -37.1035 -37.0835 -37.0742
   -37.0701 -37.0584 -37.0319 -36.9942 -36.9618 -36.9540 -36.9445 -36.9133
   -36.9056 -36.8635 -36.8586 -36.8108 -36.7990 -36.7802 -36.7676 -36.7628
   -36.7454 -36.7375 -36.7346 -36.7106 -36.6996 -36.6863 -36.6543 -36.6529
   -36.6424 -36.6326 -36.6069 -36.6005 -36.5946 -36.5738 -36.5547 -36.5195
    -9.4483  -3.9950  -3.3625  -2.6318  -2.0841  -1.9094  -1.6142  -1.3606
    -1.1306  -1.0690  -0.9730  -0.7713  -0.6856  -0.5539  -0.4840  -0.4416
    -0.3769  -0.2530  -0.1736   0.0069   0.0741   0.1480   0.2590   0.3146
     0.3752   0.4531   0.5288   0.6067   0.7521   0.8208   0.8616   0.9253
     0.9687   1.0413   1.1720   1.2095   1.3368   1.4205   1.5224   1.6157
     1.7060   1.8612

          k =-0.0926 0.0535 0.0000 ( 15660 PWs)   bands (ev):

   -63.0857 -63.0729 -63.0342 -63.0201 -63.0064 -63.0020 -62.9792 -62.9764
   -62.9713 -62.9693 -62.9326 -62.9288 -37.1111 -37.1093 -37.0933 -37.0848
   -37.0808 -37.0692 -36.9910 -36.9821 -36.9778 -36.9717 -36.9350 -36.9323
   -36.8551 -36.8505 -36.8069 -36.8031 -36.7974 -36.7890 -36.7794 -36.7700
   -36.7506 -36.7461 -36.7394 -36.7316 -36.7272 -36.7225 -36.6609 -36.6531
   -36.6303 -36.6302 -36.6082 -36.6016 -36.5941 -36.5735 -36.5227 -36.5203
    -9.4482  -3.9601  -3.2485  -3.0304  -2.0912  -1.7071  -1.3221  -1.2667
    -1.1608  -1.1461  -1.0339  -0.9215  -0.8323  -0.5258  -0.4168  -0.3961
    -0.2909  -0.2635  -0.1923  -0.0997   0.1903   0.1962   0.2471   0.2919
     0.3591   0.4623   0.5834   0.6926   0.7580   0.7742   0.8691   0.9886
     0.9956   1.0706   1.1324   1.2547   1.3192   1.3624   1.3855   1.6171
     1.6697   1.8753

          k =-0.0926 0.0891 0.0000 ( 15642 PWs)   bands (ev):

   -63.0926 -63.0584 -63.0378 -63.0273 -63.0097 -62.9936 -62.9849 -62.9786
   -62.9715 -62.9579 -62.9434 -62.9233 -37.1187 -37.1035 -37.0835 -37.0742
   -37.0700 -37.0584 -37.0319 -36.9942 -36.9618 -36.9540 -36.9444 -36.9133
   -36.9056 -36.8635 -36.8586 -36.8108 -36.7990 -36.7801 -36.7676 -36.7629
   -36.7453 -36.7375 -36.7346 -36.7106 -36.6997 -36.6863 -36.6543 -36.6529
   -36.6424 -36.6326 -36.6069 -36.6005 -36.5947 -36.5738 -36.5547 -36.5195
    -9.4483  -3.9950  -3.3625  -2.6318  -2.0841  -1.9094  -1.6141  -1.3606
    -1.1306  -1.0690  -0.9730  -0.7713  -0.6856  -0.5539  -0.4840  -0.4416
    -0.3770  -0.2530  -0.1736   0.0069   0.0741   0.1480   0.2590   0.3146
     0.3752   0.4531   0.5288   0.6067   0.7521   0.8208   0.8616   0.9253
     0.9687   1.0413   1.1720   1.2095   1.3368   1.4205   1.5224   1.6157
     1.7060   1.8612

          k =-0.0926 0.1248 0.0000 ( 15642 PWs)   bands (ev):

   -63.0925 -63.0585 -63.0377 -63.0273 -63.0098 -62.9934 -62.9850 -62.9785
   -62.9716 -62.9579 -62.9432 -62.9234 -37.1187 -37.1034 -37.0835 -37.0742
   -37.0701 -37.0584 -37.0319 -36.9943 -36.9618 -36.9540 -36.9443 -36.9133
   -36.9056 -36.8635 -36.8586 -36.8109 -36.7990 -36.7800 -36.7676 -36.7629
   -36.7453 -36.7375 -36.7346 -36.7107 -36.6995 -36.6862 -36.6543 -36.6529
   -36.6425 -36.6326 -36.6069 -36.6004 -36.5947 -36.5737 -36.5547 -36.5195
    -9.4483  -3.9950  -3.3625  -2.6318  -2.0842  -1.9093  -1.6141  -1.3606
    -1.1305  -1.0691  -0.9730  -0.7713  -0.6856  -0.5539  -0.4840  -0.4416
    -0.3770  -0.2530  -0.1736   0.0069   0.0741   0.1480   0.2590   0.3146
     0.3751   0.4531   0.5289   0.6067   0.7521   0.8208   0.8617   0.9252
     0.9687   1.0413   1.1720   1.2095   1.3369   1.4205   1.5224   1.6157
     1.7060   1.8612

          k =-0.0926-0.0535 0.0000 ( 15660 PWs)   bands (ev):

   -63.0856 -63.0731 -63.0340 -63.0202 -63.0064 -63.0018 -62.9794 -62.9763
   -62.9712 -62.9695 -62.9319 -62.9294 -37.1109 -37.1094 -37.0933 -37.0848
   -37.0808 -37.0692 -36.9908 -36.9825 -36.9775 -36.9718 -36.9351 -36.9321
   -36.8552 -36.8504 -36.8069 -36.8033 -36.7972 -36.7889 -36.7798 -36.7698
   -36.7504 -36.7463 -36.7391 -36.7318 -36.7268 -36.7229 -36.6607 -36.6532
   -36.6305 -36.6301 -36.6082 -36.6016 -36.5941 -36.5736 -36.5222 -36.5209
    -9.4482  -3.9601  -3.2485  -3.0304  -2.0912  -1.7071  -1.3221  -1.2667
    -1.1609  -1.1459  -1.0339  -0.9215  -0.8323  -0.5258  -0.4166  -0.3961
    -0.2908  -0.2636  -0.1924  -0.0996   0.1903   0.1963   0.2469   0.2921
     0.3590   0.4623   0.5834   0.6927   0.7580   0.7741   0.8691   0.9886
     0.9955   1.0706   1.1324   1.2546   1.3193   1.3623   1.3856   1.6171
     1.6697   1.8754

     the Fermi energy is     1.1747 ev

!    total energy              =   -1761.65603823 Ry
     Harris-Foulkes estimate   =   -1761.65604349 Ry
     estimated scf accuracy    <       0.00000524 Ry

     The total energy is the sum of the following terms:

     one-electron contribution =  -15256.45794773 Ry
     hartree contribution      =    7617.77641173 Ry
     xc contribution           =    -248.58744510 Ry
     ewald contribution        =    6125.75454317 Ry
     electric field correction =       0.00000642 Ry
     smearing contrib. (-TS)   =      -0.14160671 Ry

     convergence has been achieved in  28 iterations
 
 BEEF-vdW xc energy contributions
           1 :   -214.125279563801     
           2 :    192.144257300736     
           3 :   -155.866453590740     
           4 :    116.712281509686     
           5 :   -84.6035305036879     
           6 :    64.2397649875186     
           7 :   -54.4668574798692     
           8 :    50.4875373566514     
           9 :   -47.2539687720405     
          10 :    42.0538054908147     
          11 :   -35.1455003096142     
          12 :    28.5753447837945     
          13 :   -24.2816803967484     
          14 :    22.7389990552946     
          15 :   -22.8356737867654     
          16 :    22.8151050143426     
          17 :   -21.4990643040203     
          18 :    18.9517712833799     
          19 :   -16.2283688007141     
          20 :    14.4919713477231     
          21 :   -14.1720858513448     
          22 :    14.7291907487103     
          23 :   -15.1195432531783     
          24 :    14.5617267832734     
          25 :   -13.0468899611870     
          26 :    11.2676440485257     
          27 :   -10.0735047068531     
          28 :    9.87031701365669     
          29 :   -10.3794102284897     
          30 :    10.8859648636551     
          31 :   -22.2934682421418     
          32 :   -16.0914624649084     

     Forces acting on atoms (Ry/au):


     negative rho (up, down):  1.548E-02 0.000E+00
     atom    1 type  1   force =     0.00060335    0.00033873   -0.00071660
     atom    2 type  1   force =    -0.00060957    0.00034130   -0.00071823
     atom    3 type  1   force =     0.00001337   -0.00068519   -0.00073102
     atom    4 type  1   force =    -0.00001068    0.00001053   -0.00246193
     atom    5 type  1   force =     0.00000160   -0.00271184   -0.00254914
     atom    6 type  1   force =    -0.00000277    0.00000753   -0.00175277
     atom    7 type  1   force =     0.00235937    0.00134876   -0.00253777
     atom    8 type  1   force =    -0.00235929    0.00135699   -0.00256018
     atom    9 type  1   force =     0.00001173   -0.00001330   -0.00685112
     atom   10 type  1   force =    -0.00001603    0.01517592    0.04251290
     atom   11 type  1   force =     0.01315467   -0.00758917    0.04254405
     atom   12 type  1   force =    -0.01315283   -0.00758249    0.04255471
     atom   13 type  2   force =     0.00000843    0.00000223   -0.09748006
     atom   14 type  3   force =    -0.00000134    0.00000002   -0.00925282

     Total force =     0.125517     Total SCF correction =     0.006964


     entering subroutine stress ...


     negative rho (up, down):  1.548E-02 0.000E+00
          total   stress  (Ry/bohr**3)                   (kbar)     P=  -22.70
  -0.00019641  -0.00000000   0.00000001        -28.89     -0.00      0.00
  -0.00000000  -0.00019642   0.00000000         -0.00    -28.89      0.00
   0.00000001   0.00000000  -0.00007001          0.00      0.00    -10.30


     BFGS Geometry Optimization

     number of scf cycles    =   1
     number of bfgs steps    =   0

     energy   new            =   -1761.6560382272 Ry

     new trust radius        =       0.0974800596 bohr
     new conv_thr            =       0.0000099958 Ry


ATOMIC_POSITIONS (crystal)
V1       0.166666667   0.166666667   0.409694847    0   0   0
V1       0.666666667   0.166666667   0.409694847    0   0   0
V1       0.166666667   0.666666667   0.409694847    0   0   0
V1       0.666666667   0.666666667   0.409694847    0   0   0
V1       0.833333333   0.333333333   0.500000000    0   0   0
V1       0.333333333   0.333333333   0.500000000    0   0   0
V1       0.833333333   0.833333333   0.500000000    0   0   0
V1       0.333333333   0.833333333   0.500000000    0   0   0
V1       0.000001903  -0.000001506   0.590156620
V1       0.499139677   0.001717504   0.591226838
V1       0.001718743   0.499141111   0.591227513
V1       0.499139948   0.499141867   0.591227744
C1       0.333334033   0.333333586   0.649174852
H1       0.333333201   0.333333335   0.696154062



     Writing output data file calc.save
     Check: negative starting charge=   -0.011536
     NEW-OLD atomic charge density approx. for the potential

     Check: negative/imaginary core charge=   -0.000001    0.000000
     Check: negative starting charge=   -0.011221

     negative rho (up, down):  1.544E-02 0.000E+00
 
     Adding external electric field

     Computed dipole along edir(3) : 
        Dipole                0.0462 Ry au,          0.1175 Debye
        Dipole field          0.0001 Ry au
 
        Potential amp.       -0.0126 Ry
        Total length         44.9721 bohr
 

     total cpu time spent up to now is      551.4 secs

     per-process dynamical memory:    70.9 Mb

     Self-consistent Calculation

     iteration #  1     ecut=    36.75 Ry     beta=0.30
     Davidson diagonalization with overlap
     c_bands:  1 eigenvalues not converged
     ethr =  1.00E-06,  avg # of iterations = 15.5

     negative rho (up, down):  1.546E-02 0.000E+00
 
     Adding external electric field

     Computed dipole along edir(3) : 
        Dipole               -0.1482 Ry au,         -0.3766 Debye
        Dipole field         -0.0004 Ry au
 
        Potential amp.        0.0403 Ry
        Total length         44.9721 bohr
 

     total cpu time spent up to now is      580.5 secs

     total energy              =   -1761.66249883 Ry
     Harris-Foulkes estimate   =   -1761.66823178 Ry
     estimated scf accuracy    <       0.01279582 Ry

     iteration #  2     ecut=    36.75 Ry     beta=0.30
     Davidson diagonalization with overlap
     ethr =  7.95E-06,  avg # of iterations =  7.1

     negative rho (up, down):  1.547E-02 0.000E+00
 
     Adding external electric field

     Computed dipole along edir(3) : 
        Dipole                0.0701 Ry au,          0.1782 Debye
        Dipole field          0.0002 Ry au
 
        Potential amp.       -0.0191 Ry
        Total length         44.9721 bohr
 

     total cpu time spent up to now is      601.4 secs

     total energy              =   -1761.58137031 Ry
     Harris-Foulkes estimate   =   -1761.75573563 Ry
     estimated scf accuracy    <      11.90297710 Ry

     iteration #  3     ecut=    36.75 Ry     beta=0.30
     Davidson diagonalization with overlap
     ethr =  7.95E-06,  avg # of iterations =  7.7

     negative rho (up, down):  1.549E-02 0.000E+00
 
     Adding external electric field

     Computed dipole along edir(3) : 
        Dipole                0.0633 Ry au,          0.1608 Debye
        Dipole field          0.0002 Ry au
 
        Potential amp.       -0.0172 Ry
        Total length         44.9721 bohr
 

     total cpu time spent up to now is      622.3 secs

     total energy              =   -1761.66378601 Ry
     Harris-Foulkes estimate   =   -1761.66956923 Ry
     estimated scf accuracy    <       0.09460441 Ry

     iteration #  4     ecut=    36.75 Ry     beta=0.30
     Davidson diagonalization with overlap
     ethr =  7.95E-06,  avg # of iterations =  7.0

     negative rho (up, down):  1.550E-02 0.000E+00
 
     Adding external electric field

     Computed dipole along edir(3) : 
        Dipole                0.0701 Ry au,          0.1781 Debye
        Dipole field          0.0002 Ry au
 
        Potential amp.       -0.0190 Ry
        Total length         44.9721 bohr
 

     total cpu time spent up to now is      641.9 secs

     total energy              =   -1761.66632869 Ry
     Harris-Foulkes estimate   =   -1761.66751111 Ry
     estimated scf accuracy    <       0.01139230 Ry

     iteration #  5     ecut=    36.75 Ry     beta=0.30
     Davidson diagonalization with overlap
     ethr =  7.08E-06,  avg # of iterations =  6.2

     negative rho (up, down):  1.550E-02 0.000E+00
 
     Adding external electric field

     Computed dipole along edir(3) : 
        Dipole                0.0741 Ry au,          0.1882 Debye
        Dipole field          0.0002 Ry au
 
        Potential amp.       -0.0201 Ry
        Total length         44.9721 bohr
 

     total cpu time spent up to now is      659.7 secs

     total energy              =   -1761.66618266 Ry
     Harris-Foulkes estimate   =   -1761.66808970 Ry
     estimated scf accuracy    <       0.02672407 Ry

     iteration #  6     ecut=    36.75 Ry     beta=0.30
     Davidson diagonalization with overlap
     ethr =  7.08E-06,  avg # of iterations =  3.5

     negative rho (up, down):  1.550E-02 0.000E+00
 
     Adding external electric field

     Computed dipole along edir(3) : 
        Dipole                0.0692 Ry au,          0.1759 Debye
        Dipole field          0.0002 Ry au
 
        Potential amp.       -0.0188 Ry
        Total length         44.9721 bohr
 

     total cpu time spent up to now is      674.7 secs

     total energy              =   -1761.66675519 Ry
     Harris-Foulkes estimate   =   -1761.66692143 Ry
     estimated scf accuracy    <       0.00217333 Ry

     iteration #  7     ecut=    36.75 Ry     beta=0.30
     Davidson diagonalization with overlap
     ethr =  1.35E-06,  avg # of iterations =  6.5

     negative rho (up, down):  1.550E-02 0.000E+00
 
     Adding external electric field

     Computed dipole along edir(3) : 
        Dipole                0.0640 Ry au,          0.1627 Debye
        Dipole field          0.0002 Ry au
 
        Potential amp.       -0.0174 Ry
        Total length         44.9721 bohr
 

     total cpu time spent up to now is      694.6 secs

     total energy              =   -1761.66712966 Ry
     Harris-Foulkes estimate   =   -1761.66724066 Ry
     estimated scf accuracy    <       0.00188551 Ry

     iteration #  8     ecut=    36.75 Ry     beta=0.30
     Davidson diagonalization with overlap
     ethr =  1.17E-06,  avg # of iterations =  1.4

     negative rho (up, down):  1.550E-02 0.000E+00
 
     Adding external electric field

     Computed dipole along edir(3) : 
        Dipole                0.0641 Ry au,          0.1630 Debye
        Dipole field          0.0002 Ry au
 
        Potential amp.       -0.0174 Ry
        Total length         44.9721 bohr
 

     total cpu time spent up to now is      708.5 secs

     total energy              =   -1761.66713511 Ry
     Harris-Foulkes estimate   =   -1761.66719200 Ry
     estimated scf accuracy    <       0.00125078 Ry

     iteration #  9     ecut=    36.75 Ry     beta=0.30
     Davidson diagonalization with overlap
     ethr =  7.77E-07,  avg # of iterations =  2.5

     negative rho (up, down):  1.550E-02 0.000E+00
 
     Adding external electric field

     Computed dipole along edir(3) : 
        Dipole                0.0643 Ry au,          0.1634 Debye
        Dipole field          0.0002 Ry au
 
        Potential amp.       -0.0175 Ry
        Total length         44.9721 bohr
 

     total cpu time spent up to now is      722.8 secs

     total energy              =   -1761.66714782 Ry
     Harris-Foulkes estimate   =   -1761.66717228 Ry
     estimated scf accuracy    <       0.00051048 Ry

     iteration # 10     ecut=    36.75 Ry     beta=0.30
     Davidson diagonalization with overlap
     ethr =  3.17E-07,  avg # of iterations =  6.0

     negative rho (up, down):  1.551E-02 0.000E+00
 
     Adding external electric field

     Computed dipole along edir(3) : 
        Dipole                0.0641 Ry au,          0.1629 Debye
        Dipole field          0.0002 Ry au
 
        Potential amp.       -0.0174 Ry
        Total length         44.9721 bohr
 

     total cpu time spent up to now is      740.1 secs

     total energy              =   -1761.66715217 Ry
     Harris-Foulkes estimate   =   -1761.66717805 Ry
     estimated scf accuracy    <       0.00018979 Ry

     iteration # 11     ecut=    36.75 Ry     beta=0.30
     Davidson diagonalization with overlap
     ethr =  1.18E-07,  avg # of iterations =  6.8

     negative rho (up, down):  1.551E-02 0.000E+00
 
     Adding external electric field

     Computed dipole along edir(3) : 
        Dipole                0.0640 Ry au,          0.1627 Debye
        Dipole field          0.0002 Ry au
 
        Potential amp.       -0.0174 Ry
        Total length         44.9721 bohr
 

     total cpu time spent up to now is      760.0 secs

     total energy              =   -1761.66718346 Ry
     Harris-Foulkes estimate   =   -1761.66719151 Ry
     estimated scf accuracy    <       0.00034325 Ry

     iteration # 12     ecut=    36.75 Ry     beta=0.30
     Davidson diagonalization with overlap
     ethr =  1.18E-07,  avg # of iterations =  1.0

     negative rho (up, down):  1.551E-02 0.000E+00
 
     Adding external electric field

     Computed dipole along edir(3) : 
        Dipole                0.0638 Ry au,          0.1622 Debye
        Dipole field          0.0002 Ry au
 
        Potential amp.       -0.0173 Ry
        Total length         44.9721 bohr
 

     total cpu time spent up to now is      773.8 secs

     total energy              =   -1761.66716735 Ry
     Harris-Foulkes estimate   =   -1761.66718618 Ry
     estimated scf accuracy    <       0.00024184 Ry

     iteration # 13     ecut=    36.75 Ry     beta=0.30
     Davidson diagonalization with overlap
     ethr =  1.18E-07,  avg # of iterations =  3.5

     negative rho (up, down):  1.551E-02 0.000E+00
 
     Adding external electric field

     Computed dipole along edir(3) : 
        Dipole                0.0627 Ry au,          0.1594 Debye
        Dipole field          0.0002 Ry au
 
        Potential amp.       -0.0170 Ry
        Total length         44.9721 bohr
 

     total cpu time spent up to now is      789.0 secs

     total energy              =   -1761.66717859 Ry
     Harris-Foulkes estimate   =   -1761.66718116 Ry
     estimated scf accuracy    <       0.00002253 Ry

     iteration # 14     ecut=    36.75 Ry     beta=0.30
     Davidson diagonalization with overlap
     ethr =  1.40E-08,  avg # of iterations =  8.2

     negative rho (up, down):  1.551E-02 0.000E+00
 
     Adding external electric field

     Computed dipole along edir(3) : 
        Dipole                0.0637 Ry au,          0.1618 Debye
        Dipole field          0.0002 Ry au
 
        Potential amp.       -0.0173 Ry
        Total length         44.9721 bohr
 

     total cpu time spent up to now is      809.3 secs

     total energy              =   -1761.66717924 Ry
     Harris-Foulkes estimate   =   -1761.66718177 Ry
     estimated scf accuracy    <       0.00013425 Ry

     iteration # 15     ecut=    36.75 Ry     beta=0.30
     Davidson diagonalization with overlap
     ethr =  1.40E-08,  avg # of iterations =  5.5

     negative rho (up, down):  1.551E-02 0.000E+00
 
     Adding external electric field

     Computed dipole along edir(3) : 
        Dipole                0.0629 Ry au,          0.1599 Debye
        Dipole field          0.0002 Ry au
 
        Potential amp.       -0.0171 Ry
        Total length         44.9721 bohr
 

     total cpu time spent up to now is      825.3 secs

     total energy              =   -1761.66718019 Ry
     Harris-Foulkes estimate   =   -1761.66718196 Ry
     estimated scf accuracy    <       0.00005048 Ry

     iteration # 16     ecut=    36.75 Ry     beta=0.30
     Davidson diagonalization with overlap
     ethr =  1.40E-08,  avg # of iterations =  1.4

     negative rho (up, down):  1.551E-02 0.000E+00

     negative rho (up, down):  1.551E-02 0.000E+00

     negative rho (up, down):  1.551E-02 0.000E+00

     negative rho (up, down):  1.551E-02 0.000E+00

     negative rho (up, down):  1.551E-02 0.000E+00

     negative rho (up, down):  1.551E-02 0.000E+00

     negative rho (up, down):  1.551E-02 0.000E+00

     negative rho (up, down):  1.551E-02 0.000E+00

     negative rho (up, down):  1.551E-02 0.000E+00

     negative rho (up, down):  1.551E-02 0.000E+00

     negative rho (up, down):  1.551E-02 0.000E+00

     negative rho (up, down):  1.551E-02 0.000E+00

     negative rho (up, down):  1.551E-02 0.000E+00

     negative rho (up, down):  1.551E-02 0.000E+00

     negative rho (up, down):  1.551E-02 0.000E+00

     negative rho (up, down):  1.551E-02 0.000E+00

     negative rho (up, down):  1.551E-02 0.000E+00

     negative rho (up, down):  1.551E-02 0.000E+00

     negative rho (up, down):  1.551E-02 0.000E+00

     negative rho (up, down):  1.551E-02 0.000E+00

     negative rho (up, down):  1.551E-02 0.000E+00

     negative rho (up, down):  1.551E-02 0.000E+00

     negative rho (up, down):  1.551E-02 0.000E+00

     negative rho (up, down):  1.551E-02 0.000E+00

     negative rho (up, down):  1.551E-02 0.000E+00

     negative rho (up, down):  1.551E-02 0.000E+00

     negative rho (up, down):  1.551E-02 0.000E+00

     negative rho (up, down):  1.551E-02 0.000E+00

     negative rho (up, down):  1.551E-02 0.000E+00

     negative rho (up, down):  1.551E-02 0.000E+00

     negative rho (up, down):  1.551E-02 0.000E+00

     negative rho (up, down):  1.551E-02 0.000E+00

     negative rho (up, down):  1.551E-02 0.000E+00

     negative rho (up, down):  1.551E-02 0.000E+00

     negative rho (up, down):  1.551E-02 0.000E+00
 
     Adding external electric field

     Computed dipole along edir(3) : 
        Dipole                0.0676 Ry au,          0.1719 Debye
        Dipole field          0.0002 Ry au
 
        Potential amp.       -0.0184 Ry
        Total length         44.9721 bohr
 

     total cpu time spent up to now is      880.3 secs

     End of self-consistent calculation

          k = 0.0000 0.0000 0.0000 ( 15569 PWs)   bands (ev):

   -63.1113 -63.0461 -62.9867 -62.9802 -62.9720 -62.9712 -62.9505 -62.9470
   -62.9462 -62.9068 -62.9058 -62.9012 -37.1987 -37.1983 -37.1931 -37.1461
   -37.1384 -37.1382 -37.1299 -37.0634 -37.0630 -37.0610 -36.9024 -36.8343
   -36.7989 -36.7982 -36.7813 -36.7809 -36.7777 -36.7150 -36.7002 -36.6999
   -36.6412 -36.6405 -36.6400 -36.6337 -36.6166 -36.6163 -36.5953 -36.5606
   -36.5558 -36.5555 -36.5416 -36.5414 -36.4872 -36.4871 -36.4335 -36.4335
    -9.3953  -4.9503  -4.0306  -2.8902  -2.0979  -1.8734  -1.8733  -1.8298
    -1.8296  -1.7349  -1.4581  -1.2642  -1.2641  -1.0876  -1.0866  -1.0866
    -0.7237  -0.5222  -0.5221   0.0813   0.1797   0.1798   0.6633   0.8682
     0.8683   1.0119   1.0612   1.3278   1.3462   1.3463   1.4911   1.4912
     1.4955   1.5515   1.5517   1.6148   1.6218   1.6218   1.8413   1.8415
     1.9954   2.2720

          k = 0.0000 0.0356 0.0000 ( 15635 PWs)   bands (ev):

   -63.1029 -63.0395 -62.9869 -62.9812 -62.9749 -62.9721 -62.9545 -62.9478
   -62.9468 -62.9107 -62.9061 -62.9022 -37.1760 -37.1736 -37.1588 -37.1329
   -37.1181 -37.1141 -37.1036 -37.0421 -37.0405 -37.0253 -36.9016 -36.8507
   -36.8275 -36.8183 -36.7749 -36.7705 -36.7609 -36.7243 -36.7148 -36.6934
   -36.6703 -36.6651 -36.6308 -36.6268 -36.6181 -36.6100 -36.6077 -36.5793
   -36.5780 -36.5746 -36.5535 -36.5480 -36.5201 -36.4956 -36.4712 -36.4418
    -9.3815  -4.7575  -3.9225  -2.7468  -1.9643  -1.9288  -1.7749  -1.7702
    -1.6984  -1.6495  -1.3825  -1.1304  -1.1274  -1.0009  -0.9700  -0.9614
    -0.6168  -0.5030  -0.4941   0.0442   0.1780   0.1853   0.6007   0.8782
     0.8919   0.9628   1.0686   1.1084   1.2088   1.2981   1.3338   1.3946
     1.4749   1.5002   1.5626   1.5650   1.6238   1.6813   1.6952   1.7833
     1.7865   2.1296

          k = 0.0000 0.0713 0.0000 ( 15669 PWs)   bands (ev):

   -63.0797 -63.0225 -63.0109 -62.9789 -62.9723 -62.9681 -62.9649 -62.9490
   -62.9468 -62.9247 -62.9061 -62.9027 -37.1201 -37.1191 -37.0973 -37.0718
   -37.0680 -37.0602 -37.0427 -36.9912 -36.9893 -36.9295 -36.9055 -36.8733
   -36.8626 -36.8589 -36.7629 -36.7599 -36.7487 -36.7433 -36.7427 -36.7219
   -36.7183 -36.6896 -36.6658 -36.6554 -36.6537 -36.6466 -36.6100 -36.6054
   -36.6036 -36.5974 -36.5928 -36.5783 -36.5462 -36.5267 -36.5183 -36.4645
    -9.3542  -4.2609  -3.6497  -2.4730  -2.2728  -1.7248  -1.4915  -1.4641
    -1.4101  -1.3838  -1.1982  -0.8947  -0.8515  -0.7422  -0.6679  -0.6437
    -0.4279  -0.3661  -0.3164   0.0037   0.1795   0.1947   0.3447   0.5863
     0.6888   0.7700   0.7854   0.8660   1.0702   1.0940   1.1243   1.1584
     1.2326   1.2385   1.2819   1.4172   1.5288   1.5853   1.6259   1.7183
     1.7736   1.8477

          k = 0.0000-0.1069 0.0000 ( 15660 PWs)   bands (ev):

   -63.0513 -63.0422 -63.0013 -62.9916 -62.9736 -62.9723 -62.9504 -62.9467
   -62.9452 -62.9435 -62.9061 -62.9028 -37.0808 -37.0782 -37.0578 -37.0492
   -37.0474 -37.0356 -36.9604 -36.9531 -36.9496 -36.9412 -36.9045 -36.9010
   -36.8257 -36.8118 -36.7743 -36.7735 -36.7714 -36.7597 -36.7481 -36.7458
   -36.7247 -36.7213 -36.7151 -36.7074 -36.7009 -36.6955 -36.6295 -36.6236
   -36.6058 -36.6045 -36.5843 -36.5779 -36.5621 -36.5433 -36.4963 -36.4945
    -9.3406  -3.9294  -3.2215  -3.0060  -2.0950  -1.6878  -1.3085  -1.2597
    -1.1472  -1.1176  -0.9946  -0.9693  -0.7966  -0.5284  -0.3856  -0.3658
    -0.2489  -0.2322  -0.1601  -0.0657   0.2235   0.2379   0.2781   0.3255
     0.3914   0.4989   0.6069   0.7120   0.7860   0.8034   0.8867   1.0125
     1.0241   1.0781   1.1695   1.2759   1.3468   1.3815   1.4124   1.6511
     1.7111   1.9193

          k = 0.0309-0.0178 0.0000 ( 15635 PWs)   bands (ev):

   -63.1029 -63.0395 -62.9869 -62.9811 -62.9754 -62.9716 -62.9545 -62.9481
   -62.9466 -62.9104 -62.9067 -62.9019 -37.1763 -37.1732 -37.1589 -37.1329
   -37.1181 -37.1142 -37.1035 -37.0418 -37.0408 -37.0253 -36.9016 -36.8507
   -36.8274 -36.8184 -36.7747 -36.7705 -36.7610 -36.7243 -36.7149 -36.6933
   -36.6702 -36.6652 -36.6308 -36.6266 -36.6182 -36.6100 -36.6078 -36.5795
   -36.5779 -36.5745 -36.5536 -36.5479 -36.5201 -36.4956 -36.4712 -36.4418
    -9.3815  -4.7575  -3.9225  -2.7468  -1.9643  -1.9288  -1.7749  -1.7702
    -1.6985  -1.6495  -1.3825  -1.1303  -1.1275  -1.0009  -0.9700  -0.9614
    -0.6168  -0.5030  -0.4941   0.0442   0.1780   0.1853   0.6007   0.8782
     0.8919   0.9628   1.0686   1.1084   1.2088   1.2981   1.3338   1.3946
     1.4750   1.5002   1.5627   1.5650   1.6236   1.6814   1.6951   1.7833
     1.7866   2.1295

          k = 0.0309 0.0178 0.0000 ( 15635 PWs)   bands (ev):

   -63.1029 -63.0395 -62.9867 -62.9811 -62.9757 -62.9714 -62.9545 -62.9485
   -62.9462 -62.9108 -62.9059 -62.9024 -37.1763 -37.1732 -37.1589 -37.1329
   -37.1182 -37.1140 -37.1036 -37.0422 -37.0403 -37.0253 -36.9016 -36.8505
   -36.8280 -36.8180 -36.7752 -36.7701 -36.7610 -36.7241 -36.7151 -36.6933
   -36.6700 -36.6655 -36.6308 -36.6265 -36.6183 -36.6099 -36.6078 -36.5792
   -36.5780 -36.5749 -36.5537 -36.5478 -36.5202 -36.4955 -36.4712 -36.4418
    -9.3815  -4.7575  -3.9225  -2.7468  -1.9643  -1.9288  -1.7748  -1.7703
    -1.6986  -1.6495  -1.3825  -1.1303  -1.1275  -1.0009  -0.9701  -0.9614
    -0.6167  -0.5029  -0.4942   0.0442   0.1780   0.1853   0.6007   0.8783
     0.8919   0.9628   1.0686   1.1084   1.2088   1.2981   1.3340   1.3946
     1.4749   1.5002   1.5627   1.5650   1.6237   1.6814   1.6951   1.7832
     1.7865   2.1295

          k = 0.0309 0.0535 0.0000 ( 15620 PWs)   bands (ev):

   -63.0871 -63.0274 -62.9969 -62.9901 -62.9711 -62.9674 -62.9580 -62.9551
   -62.9442 -62.9164 -62.9128 -62.8996 -37.1459 -37.1113 -37.1086 -37.1044
   -37.0861 -37.0692 -37.0623 -37.0145 -36.9785 -36.9743 -36.9034 -36.8702
   -36.8578 -36.8502 -36.7778 -36.7605 -36.7512 -36.7477 -36.7332 -36.7033
   -36.6921 -36.6614 -36.6569 -36.6448 -36.6417 -36.6360 -36.6162 -36.6084
   -36.6004 -36.5780 -36.5706 -36.5604 -36.5582 -36.5273 -36.5106 -36.4609
    -9.3610  -4.4080  -3.7331  -2.4932  -2.0165  -1.9288  -1.6658  -1.6188
    -1.4699  -1.4032  -1.2538  -0.9076  -0.8880  -0.8211  -0.7870  -0.7329
    -0.4605  -0.4320  -0.4017  -0.0166   0.1469   0.2662   0.4469   0.7116
     0.7685   0.8255   0.8747   0.8992   1.0279   1.1449   1.1863   1.2385
     1.2848   1.3251   1.4432   1.4681   1.5887   1.6217   1.6933   1.7753
     1.8244   1.8411

          k = 0.0309-0.1248 0.0000 ( 15642 PWs)   bands (ev):

   -63.0595 -63.0254 -63.0065 -62.9968 -62.9800 -62.9630 -62.9547 -62.9520
   -62.9430 -62.9319 -62.9170 -62.8971 -37.0879 -37.0685 -37.0520 -37.0393
   -37.0359 -37.0246 -37.0014 -36.9658 -36.9314 -36.9227 -36.9149 -36.8823
   -36.8759 -36.8342 -36.8272 -36.7826 -36.7654 -36.7520 -36.7430 -36.7384
   -36.7201 -36.7113 -36.7040 -36.6846 -36.6711 -36.6562 -36.6295 -36.6260
   -36.6127 -36.6051 -36.5799 -36.5741 -36.5703 -36.5435 -36.5287 -36.4934
    -9.3407  -3.9608  -3.3423  -2.6073  -2.0827  -1.8831  -1.6038  -1.3572
    -1.1299  -1.0449  -0.9816  -0.7606  -0.6487  -0.5435  -0.4480  -0.4055
    -0.3441  -0.2317  -0.1380   0.0406   0.1084   0.1869   0.2989   0.3457
     0.4119   0.4823   0.5479   0.6271   0.7810   0.8321   0.8842   0.9556
     0.9997   1.0677   1.1970   1.2345   1.3564   1.4473   1.5409   1.6464
     1.7453   1.9058

          k = 0.0309-0.0891 0.0000 ( 15642 PWs)   bands (ev):

   -63.0595 -63.0254 -63.0064 -62.9970 -62.9798 -62.9630 -62.9547 -62.9521
   -62.9430 -62.9319 -62.9171 -62.8970 -37.0879 -37.0684 -37.0521 -37.0393
   -37.0359 -37.0246 -37.0014 -36.9658 -36.9314 -36.9229 -36.9147 -36.8825
   -36.8757 -36.8341 -36.8274 -36.7827 -36.7653 -36.7517 -36.7428 -36.7388
   -36.7200 -36.7112 -36.7041 -36.6846 -36.6710 -36.6561 -36.6295 -36.6260
   -36.6127 -36.6051 -36.5799 -36.5741 -36.5704 -36.5435 -36.5287 -36.4934
    -9.3407  -3.9608  -3.3423  -2.6073  -2.0827  -1.8831  -1.6038  -1.3572
    -1.1299  -1.0449  -0.9816  -0.7606  -0.6487  -0.5435  -0.4480  -0.4056
    -0.3441  -0.2317  -0.1380   0.0406   0.1085   0.1869   0.2989   0.3457
     0.4118   0.4823   0.5480   0.6270   0.7810   0.8322   0.8841   0.9555
     0.9998   1.0677   1.1972   1.2345   1.3564   1.4473   1.5409   1.6464
     1.7453   1.9058

          k = 0.0309-0.0535 0.0000 ( 15620 PWs)   bands (ev):

   -63.0871 -63.0274 -62.9971 -62.9900 -62.9711 -62.9673 -62.9582 -62.9549
   -62.9443 -62.9157 -62.9137 -62.8995 -37.1459 -37.1112 -37.1085 -37.1046
   -37.0861 -37.0693 -37.0623 -37.0145 -36.9786 -36.9742 -36.9034 -36.8704
   -36.8575 -36.8503 -36.7778 -36.7604 -36.7511 -36.7480 -36.7333 -36.7032
   -36.6920 -36.6614 -36.6567 -36.6447 -36.6419 -36.6359 -36.6162 -36.6084
   -36.6004 -36.5779 -36.5706 -36.5602 -36.5584 -36.5273 -36.5106 -36.4609
    -9.3610  -4.4080  -3.7331  -2.4932  -2.0165  -1.9288  -1.6658  -1.6188
    -1.4698  -1.4032  -1.2538  -0.9076  -0.8880  -0.8212  -0.7870  -0.7329
    -0.4605  -0.4320  -0.4017  -0.0166   0.1470   0.2661   0.4469   0.7115
     0.7686   0.8255   0.8747   0.8992   1.0278   1.1448   1.1862   1.2386
     1.2848   1.3250   1.4432   1.4680   1.5887   1.6217   1.6933   1.7752
     1.8243   1.8412

          k = 0.0617-0.0356 0.0000 ( 15669 PWs)   bands (ev):

   -63.0797 -63.0226 -63.0108 -62.9791 -62.9718 -62.9682 -62.9650 -62.9493
   -62.9465 -62.9245 -62.9067 -62.9022 -37.1205 -37.1187 -37.0973 -37.0718
   -37.0680 -37.0602 -37.0427 -36.9908 -36.9896 -36.9296 -36.9055 -36.8733
   -36.8625 -36.8588 -36.7629 -36.7597 -36.7487 -36.7436 -36.7426 -36.7219
   -36.7184 -36.6895 -36.6658 -36.6553 -36.6537 -36.6466 -36.6103 -36.6053
   -36.6034 -36.5975 -36.5931 -36.5780 -36.5462 -36.5268 -36.5183 -36.4645
    -9.3542  -4.2609  -3.6497  -2.4730  -2.2728  -1.7248  -1.4915  -1.4640
    -1.4100  -1.3839  -1.1981  -0.8947  -0.8515  -0.7422  -0.6680  -0.6437
    -0.4279  -0.3659  -0.3164   0.0037   0.1795   0.1947   0.3447   0.5863
     0.6887   0.7700   0.7855   0.8660   1.0703   1.0941   1.1243   1.1582
     1.2328   1.2385   1.2819   1.4170   1.5288   1.5853   1.6260   1.7183
     1.7735   1.8477

          k = 0.0617 0.0000 0.0000 ( 15620 PWs)   bands (ev):

   -63.0871 -63.0274 -62.9969 -62.9901 -62.9710 -62.9674 -62.9581 -62.9552
   -62.9442 -62.9159 -62.9135 -62.8995 -37.1460 -37.1113 -37.1084 -37.1045
   -37.0862 -37.0692 -37.0623 -37.0145 -36.9786 -36.9742 -36.9034 -36.8702
   -36.8577 -36.8502 -36.7777 -36.7603 -36.7512 -36.7479 -36.7332 -36.7034
   -36.6919 -36.6612 -36.6569 -36.6448 -36.6420 -36.6360 -36.6162 -36.6084
   -36.6005 -36.5779 -36.5706 -36.5602 -36.5583 -36.5273 -36.5106 -36.4609
    -9.3610  -4.4080  -3.7331  -2.4932  -2.0165  -1.9288  -1.6658  -1.6188
    -1.4699  -1.4033  -1.2537  -0.9076  -0.8880  -0.8212  -0.7870  -0.7329
    -0.4605  -0.4320  -0.4017  -0.0167   0.1469   0.2662   0.4469   0.7115
     0.7685   0.8255   0.8747   0.8992   1.0278   1.1449   1.1862   1.2386
     1.2848   1.3250   1.4432   1.4681   1.5887   1.6217   1.6932   1.7752
     1.8243   1.8411

[...]

   -63.0373 -62.9898 -62.9609 -62.9429 -62.9352 -62.9241 -62.9098 -62.8976
   -62.8817 -62.8697 -62.8605 -62.6282 -37.1540 -37.0853 -37.0645 -37.0551
   -37.0333 -37.0195 -37.0134 -36.9829 -36.9299 -36.9244 -36.8624 -36.8383
   -36.8289 -36.8157 -36.7465 -36.7427 -36.7167 -36.7023 -36.6702 -36.6675
   -36.6538 -36.6328 -36.6296 -36.6045 -36.5940 -36.5785 -36.5600 -36.5415
   -36.5352 -36.5293 -36.5106 -36.4971 -36.4388 -36.2883 -36.2617 -36.2432
    -9.6177  -4.4315  -3.8046  -2.4348  -2.0471  -1.8907  -1.7358  -1.6279
    -1.4871  -1.3642  -1.2437  -0.9637  -0.8763  -0.8076  -0.7091  -0.6775
    -0.4615  -0.4207  -0.2407  -0.0036   0.2377   0.2875   0.4374   0.5659
     0.7301   0.8516   0.8894   0.9351   1.0268   1.0667   1.1823   1.2350
     1.3082   1.3477   1.4977   1.5522   1.6309   1.7184   1.7822   1.8016
     1.8633   1.8780

          k = 0.0617-0.0356 0.0000 ( 15669 PWs)   bands (ev):

   -63.0306 -62.9861 -62.9642 -62.9461 -62.9309 -62.9284 -62.9105 -62.8943
   -62.8876 -62.8708 -62.8603 -62.6281 -37.1383 -37.0723 -37.0524 -37.0384
   -37.0148 -37.0071 -37.0017 -36.9693 -36.9277 -36.8851 -36.8606 -36.8446
   -36.8338 -36.8221 -36.7415 -36.7415 -36.7135 -36.7073 -36.6823 -36.6770
   -36.6702 -36.6441 -36.6392 -36.6090 -36.5976 -36.5898 -36.5783 -36.5778
   -36.5509 -36.5265 -36.5121 -36.4918 -36.4418 -36.3000 -36.2590 -36.2401
    -9.6102  -4.3054  -3.6986  -2.4334  -2.2386  -1.8013  -1.5030  -1.4917
    -1.4220  -1.3598  -1.1609  -0.9054  -0.8380  -0.7838  -0.6116  -0.5976
    -0.3999  -0.3806  -0.1701  -0.0115   0.2300   0.2539   0.3539   0.4611
     0.6560   0.7991   0.8089   0.8897   0.9286   1.0272   1.1465   1.1959
     1.2220   1.2602   1.4271   1.4952   1.5118   1.6106   1.6676   1.8032
     1.8643   1.8699

          k = 0.0617 0.0000 0.0000 ( 15620 PWs)   bands (ev):

   -63.0373 -62.9898 -62.9609 -62.9428 -62.9353 -62.9241 -62.9099 -62.8976
   -62.8817 -62.8698 -62.8605 -62.6282 -37.1540 -37.0853 -37.0645 -37.0551
   -37.0333 -37.0195 -37.0134 -36.9829 -36.9299 -36.9244 -36.8624 -36.8383
   -36.8289 -36.8158 -36.7465 -36.7427 -36.7167 -36.7023 -36.6702 -36.6675
   -36.6538 -36.6328 -36.6296 -36.6045 -36.5940 -36.5785 -36.5600 -36.5415
   -36.5352 -36.5293 -36.5107 -36.4971 -36.4388 -36.2883 -36.2617 -36.2432
    -9.6177  -4.4315  -3.8046  -2.4348  -2.0471  -1.8907  -1.7358  -1.6279
    -1.4871  -1.3642  -1.2437  -0.9637  -0.8763  -0.8076  -0.7091  -0.6775
    -0.4615  -0.4207  -0.2407  -0.0036   0.2377   0.2875   0.4374   0.5659
     0.7301   0.8516   0.8894   0.9351   1.0268   1.0667   1.1823   1.2350
     1.3082   1.3477   1.4977   1.5522   1.6309   1.7184   1.7822   1.8017
     1.8633   1.8780

          k = 0.0617 0.0356 0.0000 ( 15669 PWs)   bands (ev):

   -63.0306 -62.9861 -62.9642 -62.9460 -62.9309 -62.9284 -62.9105 -62.8943
   -62.8876 -62.8708 -62.8603 -62.6281 -37.1383 -37.0723 -37.0524 -37.0384
   -37.0148 -37.0071 -37.0017 -36.9693 -36.9277 -36.8851 -36.8606 -36.8446
   -36.8338 -36.8222 -36.7415 -36.7415 -36.7135 -36.7073 -36.6823 -36.6770
   -36.6701 -36.6441 -36.6392 -36.6090 -36.5976 -36.5898 -36.5783 -36.5778
   -36.5509 -36.5265 -36.5121 -36.4918 -36.4418 -36.3000 -36.2590 -36.2401
    -9.6102  -4.3054  -3.6986  -2.4334  -2.2386  -1.8013  -1.5030  -1.4917
    -1.4220  -1.3598  -1.1609  -0.9054  -0.8380  -0.7838  -0.6116  -0.5976
    -0.3999  -0.3806  -0.1701  -0.0115   0.2300   0.2539   0.3539   0.4611
     0.6560   0.7991   0.8089   0.8897   0.9286   1.0272   1.1465   1.1959
     1.2220   1.2602   1.4271   1.4952   1.5118   1.6106   1.6676   1.8033
     1.8643   1.8699

          k = 0.0617-0.1426 0.0000 ( 15642 PWs)   bands (ev):

   -63.0142 -62.9807 -62.9656 -62.9515 -62.9358 -62.9276 -62.9148 -62.9024
   -62.8818 -62.8755 -62.8607 -62.6280 -37.0984 -37.0286 -37.0234 -36.9957
   -36.9941 -36.9840 -36.9589 -36.9351 -36.8904 -36.8800 -36.8659 -36.8472
   -36.8299 -36.8085 -36.7677 -36.7575 -36.7332 -36.7280 -36.7123 -36.6933
   -36.6836 -36.6643 -36.6500 -36.6343 -36.6186 -36.6088 -36.5905 -36.5790
   -36.5621 -36.5447 -36.5221 -36.5041 -36.4711 -36.3052 -36.2692 -36.2330
    -9.5954  -4.0632  -3.3262  -2.5785  -2.0936  -1.8441  -1.6291  -1.4069
    -1.1798  -1.0653  -1.0115  -0.7533  -0.6227  -0.5557  -0.4373  -0.4024
    -0.3074  -0.2050  -0.0781   0.0104   0.1649   0.2107   0.2733   0.3622
     0.4344   0.4912   0.5299   0.6312   0.7066   0.8184   0.8911   0.9459
     1.0050   1.0946   1.1515   1.2860   1.4554   1.5465   1.5596   1.7338
     1.8625   1.9383

          k = 0.0617-0.1069 0.0000 ( 15672 PWs)   bands (ev):

   -63.0028 -62.9794 -62.9605 -62.9595 -62.9386 -62.9299 -62.9192 -62.9015
   -62.8847 -62.8731 -62.8616 -62.6279 -37.0631 -37.0128 -37.0067 -36.9689
   -36.9614 -36.9599 -36.9528 -36.9210 -36.9158 -36.8543 -36.8532 -36.8477
   -36.8276 -36.7877 -36.7855 -36.7827 -36.7547 -36.7473 -36.7311 -36.7259
   -36.7038 -36.6840 -36.6497 -36.6300 -36.6068 -36.6003 -36.5826 -36.5760
   -36.5722 -36.5425 -36.5234 -36.5226 -36.5148 -36.2989 -36.2825 -36.2297
    -9.5880  -3.9597  -2.7642  -2.6189  -2.5098  -1.8648  -1.6191  -1.3847
    -1.1146  -0.9029  -0.6668  -0.6203  -0.5150  -0.4151  -0.3184  -0.2676
    -0.1488  -0.0503  -0.0221  -0.0165   0.0365   0.0987   0.1388   0.2092
     0.2161   0.2728   0.4389   0.5846   0.6128   0.6165   0.6918   0.7409
     0.9554   0.9729   1.0227   1.0708   1.3645   1.6030   1.6499   1.7789
     1.9203   2.0189

          k = 0.0617-0.0713 0.0000 ( 15642 PWs)   bands (ev):

   -63.0142 -62.9807 -62.9656 -62.9515 -62.9358 -62.9276 -62.9148 -62.9024
   -62.8818 -62.8755 -62.8607 -62.6280 -37.0984 -37.0286 -37.0234 -36.9957
   -36.9941 -36.9840 -36.9589 -36.9351 -36.8904 -36.8801 -36.8659 -36.8472
   -36.8299 -36.8085 -36.7677 -36.7575 -36.7332 -36.7280 -36.7123 -36.6933
   -36.6836 -36.6643 -36.6500 -36.6343 -36.6186 -36.6088 -36.5905 -36.5790
   -36.5621 -36.5447 -36.5221 -36.5041 -36.4711 -36.3052 -36.2692 -36.2330
    -9.5954  -4.0632  -3.3262  -2.5785  -2.0936  -1.8441  -1.6291  -1.4069
    -1.1798  -1.0653  -1.0115  -0.7533  -0.6227  -0.5557  -0.4373  -0.4024
    -0.3074  -0.2050  -0.0781   0.0104   0.1649   0.2107   0.2733   0.3622
     0.4344   0.4912   0.5299   0.6312   0.7066   0.8184   0.8911   0.9459
     1.0050   1.0946   1.1515   1.2860   1.4554   1.5465   1.5596   1.7338
     1.8625   1.9383

          k =-0.0926 0.0535 0.0000 ( 15660 PWs)   bands (ev):

   -63.0110 -62.9863 -62.9664 -62.9513 -62.9324 -62.9309 -62.9095 -62.8943
   -62.8942 -62.8739 -62.8603 -62.6280 -37.0992 -37.0321 -37.0285 -36.9991
   -36.9988 -36.9944 -36.9490 -36.9182 -36.8994 -36.8856 -36.8777 -36.8431
   -36.8025 -36.7557 -36.7532 -36.7512 -36.7312 -36.7303 -36.7153 -36.6988
   -36.6954 -36.6831 -36.6677 -36.6641 -36.6322 -36.6074 -36.5908 -36.5882
   -36.5684 -36.5516 -36.5091 -36.4751 -36.4670 -36.3143 -36.2615 -36.2334
    -9.5953  -4.0452  -3.1830  -2.9757  -2.1192  -1.6745  -1.3386  -1.3084
    -1.1452  -1.1098  -1.0127  -0.9670  -0.7666  -0.5963  -0.4045  -0.3766
    -0.2489  -0.2157  -0.0860   0.0055   0.1006   0.2706   0.3464   0.3628
     0.3922   0.5585   0.6006   0.7538   0.7686   0.8155   0.8441   0.8965
     0.9814   1.0172   1.2003   1.3888   1.3931   1.3971   1.5730   1.6795
     1.8620   2.0399

          k =-0.0926 0.0891 0.0000 ( 15642 PWs)   bands (ev):

   -63.0142 -62.9807 -62.9656 -62.9515 -62.9358 -62.9276 -62.9148 -62.9024
   -62.8818 -62.8755 -62.8607 -62.6280 -37.0984 -37.0286 -37.0234 -36.9957
   -36.9941 -36.9840 -36.9589 -36.9351 -36.8904 -36.8800 -36.8660 -36.8472
   -36.8299 -36.8085 -36.7677 -36.7575 -36.7332 -36.7280 -36.7123 -36.6934
   -36.6836 -36.6643 -36.6500 -36.6343 -36.6186 -36.6088 -36.5905 -36.5790
   -36.5621 -36.5447 -36.5221 -36.5041 -36.4711 -36.3052 -36.2692 -36.2331
    -9.5954  -4.0632  -3.3262  -2.5785  -2.0936  -1.8441  -1.6291  -1.4069
    -1.1798  -1.0653  -1.0115  -0.7533  -0.6227  -0.5557  -0.4373  -0.4024
    -0.3074  -0.2050  -0.0781   0.0104   0.1649   0.2107   0.2733   0.3622
     0.4344   0.4912   0.5299   0.6312   0.7066   0.8184   0.8911   0.9459
     1.0050   1.0946   1.1515   1.2860   1.4554   1.5465   1.5596   1.7338
     1.8625   1.9383

          k =-0.0926 0.1248 0.0000 ( 15642 PWs)   bands (ev):

   -63.0142 -62.9807 -62.9656 -62.9515 -62.9358 -62.9276 -62.9148 -62.9024
   -62.8818 -62.8755 -62.8607 -62.6280 -37.0984 -37.0286 -37.0234 -36.9957
   -36.9941 -36.9840 -36.9589 -36.9351 -36.8904 -36.8800 -36.8659 -36.8472
   -36.8299 -36.8085 -36.7677 -36.7575 -36.7332 -36.7280 -36.7123 -36.6933
   -36.6836 -36.6643 -36.6500 -36.6343 -36.6186 -36.6088 -36.5905 -36.5790
   -36.5621 -36.5447 -36.5221 -36.5041 -36.4711 -36.3052 -36.2692 -36.2330
    -9.5954  -4.0632  -3.3262  -2.5785  -2.0936  -1.8441  -1.6291  -1.4069
    -1.1798  -1.0653  -1.0115  -0.7533  -0.6227  -0.5557  -0.4373  -0.4024
    -0.3074  -0.2050  -0.0781   0.0104   0.1649   0.2107   0.2733   0.3622
     0.4344   0.4912   0.5299   0.6312   0.7066   0.8184   0.8911   0.9459
     1.0050   1.0946   1.1515   1.2860   1.4554   1.5465   1.5596   1.7338
     1.8625   1.9383

          k =-0.0926-0.0535 0.0000 ( 15660 PWs)   bands (ev):

   -63.0110 -62.9863 -62.9664 -62.9513 -62.9324 -62.9310 -62.9095 -62.8944
   -62.8942 -62.8739 -62.8603 -62.6280 -37.0991 -37.0322 -37.0285 -36.9991
   -36.9988 -36.9944 -36.9491 -36.9182 -36.8994 -36.8856 -36.8777 -36.8431
   -36.8025 -36.7557 -36.7532 -36.7513 -36.7313 -36.7302 -36.7153 -36.6988
   -36.6954 -36.6831 -36.6676 -36.6641 -36.6322 -36.6074 -36.5908 -36.5882
   -36.5684 -36.5516 -36.5092 -36.4751 -36.4670 -36.3143 -36.2615 -36.2334
    -9.5953  -4.0452  -3.1829  -2.9757  -2.1192  -1.6745  -1.3386  -1.3084
    -1.1452  -1.1098  -1.0127  -0.9670  -0.7666  -0.5963  -0.4044  -0.3766
    -0.2489  -0.2157  -0.0860   0.0055   0.1006   0.2706   0.3465   0.3628
     0.3922   0.5585   0.6006   0.7538   0.7686   0.8155   0.8441   0.8965
     0.9814   1.0173   1.2003   1.3888   1.3931   1.3971   1.5730   1.6796
     1.8620   2.0399

     the Fermi energy is     1.2112 ev

!    total energy              =   -1761.69517691 Ry
     Harris-Foulkes estimate   =   -1761.69517725 Ry
     estimated scf accuracy    <       0.00000003 Ry

     The total energy is the sum of the following terms:

     one-electron contribution =  -15362.26078630 Ry
     hartree contribution      =    7671.20741943 Ry
     xc contribution           =    -248.85640762 Ry
     ewald contribution        =    6178.34441644 Ry
     electric field correction =       0.00002330 Ry
     smearing contrib. (-TS)   =      -0.12984215 Ry

     convergence has been achieved in  14 iterations
 
 BEEF-vdW xc energy contributions
           1 :   -214.392438419617     
           2 :    192.459358572373     
           3 :   -156.224750571762     
           4 :    117.046651603271     
           5 :   -84.8172908216592     
           6 :    64.2607057634854     
           7 :   -54.2951371312405     
           8 :    50.2047428654820     
           9 :   -46.9819771372654     
          10 :    41.8832253574687     
          11 :   -35.0778053704259     
          12 :    28.5209139666363     
          13 :   -24.1210288914817     
          14 :    22.4084261095255     
          15 :   -22.3768195875422     
          16 :    22.3530659304078     
          17 :   -21.1660142800836     
          18 :    18.8087232458807     
          19 :   -16.2338542165029     
          20 :    14.5325635330398     
          21 :   -14.1325416815691     
          22 :    14.5598530660765     
          23 :   -14.8624572466069     
          24 :    14.3207328441748     
          25 :   -12.9193034825929     
          26 :    11.2787692305493     
          27 :   -10.1575780071505     
          28 :    9.91325708468580     
          29 :   -10.2958752101009     
          30 :    10.6769620922182     
          31 :   -22.3105734235896     
          32 :   -16.1148164088231     

     Forces acting on atoms (Ry/au):


     negative rho (up, down):  1.563E-02 0.000E+00
     atom    1 type  1   force =     0.00022412    0.00012875   -0.00024442
     atom    2 type  1   force =    -0.00022380    0.00012853   -0.00024268
     atom    3 type  1   force =    -0.00000008   -0.00025723   -0.00024139
     atom    4 type  1   force =     0.00000027    0.00000085    0.00129554
     atom    5 type  1   force =     0.00000180    0.02413346   -0.01016720
     atom    6 type  1   force =    -0.00000048   -0.00000074    0.03052577
     atom    7 type  1   force =    -0.02090199   -0.01206786   -0.01016410
     atom    8 type  1   force =     0.02090048   -0.01206555   -0.01016368
     atom    9 type  1   force =     0.00000106   -0.00000393    0.00015248
     atom   10 type  1   force =    -0.00000071   -0.00026572   -0.00019704
     atom   11 type  1   force =    -0.00023015    0.00013578   -0.00019966
     atom   12 type  1   force =     0.00023029    0.00013638   -0.00020149
     atom   13 type  2   force =    -0.00000074   -0.00000325    0.00053203
     atom   14 type  3   force =    -0.00000005    0.00000055   -0.00068418

     Total force =     0.001052     Total SCF correction =     0.000214
     SCF correction compared to forces is large: reduce conv_thr to get better values


     entering subroutine stress ...


     negative rho (up, down):  1.563E-02 0.000E+00
          total   stress  (Ry/bohr**3)                   (kbar)     P=  -10.83
  -0.00010612   0.00000001  -0.00000000        -15.61      0.00     -0.00
   0.00000001  -0.00010613  -0.00000000          0.00    -15.61     -0.00
  -0.00000000  -0.00000000  -0.00000863         -0.00     -0.00     -1.27


     bfgs converged in  13 scf cycles and  12 bfgs steps
     (criteria: energy <  1.0E+00, force <  1.9E-03)

     End of BFGS Geometry Optimization

     Final energy   =   -1761.6951769059 Ry
Begin final coordinates

ATOMIC_POSITIONS (crystal)
V1       0.166666667   0.166666667   0.409694847    0   0   0
V1       0.666666667   0.166666667   0.409694847    0   0   0
V1       0.166666667   0.666666667   0.409694847    0   0   0
V1       0.666666667   0.666666667   0.409694847    0   0   0
V1       0.833333333   0.333333333   0.500000000    0   0   0
V1       0.333333333   0.333333333   0.500000000    0   0   0
V1       0.833333333   0.833333333   0.500000000    0   0   0
V1       0.333333333   0.833333333   0.500000000    0   0   0
V1      -0.000005440   0.000003061   0.574624358
V1       0.501518547  -0.003038042   0.593708603
V1      -0.003040550   0.501520461   0.593709049
V1       0.501518936   0.501520653   0.593708514
C1       0.333330683   0.333333923   0.643874636
H1       0.333334749   0.333330781   0.688983917
End final coordinates



     Writing output data file calc.save
 
     init_run     :      8.84s CPU      9.35s WALL (       1 calls)
     electrons    :   5078.19s CPU   5431.06s WALL (      13 calls)
     update_pot   :     29.43s CPU     30.53s WALL (      12 calls)
     forces       :    153.41s CPU    161.11s WALL (      13 calls)
     stress       :    502.25s CPU    514.12s WALL (      13 calls)

     Called by init_run:
     wfcinit      :      3.32s CPU      3.60s WALL (       1 calls)
     potinit      :      1.59s CPU      1.67s WALL (       1 calls)

     Called by electrons:
     c_bands      :   2312.07s CPU   2468.52s WALL (     278 calls)
     sum_band     :    975.13s CPU   1034.61s WALL (     278 calls)
     v_of_rho     :    356.40s CPU    382.30s WALL (     290 calls)
     newd         :    886.29s CPU    912.06s WALL (     290 calls)
     mix_rho      :     14.58s CPU     15.05s WALL (     278 calls)
     vdW_energy   :    146.72s CPU    161.25s WALL (     758 calls)
     vdW_ffts     :    304.23s CPU    317.91s WALL (    1542 calls)
     vdW_v        :    124.64s CPU    129.14s WALL (     758 calls)

     Called by c_bands:
     init_us_2    :     14.63s CPU     14.69s WALL (    2915 calls)
     cegterg      :   2055.32s CPU   2108.98s WALL (    1390 calls)

     Called by *egterg:
     h_psi        :   1237.11s CPU   1266.68s WALL (    8119 calls)
     s_psi        :    127.16s CPU    127.45s WALL (    8119 calls)
     g_psi        :      7.96s CPU      8.03s WALL (    6724 calls)
     cdiaghg      :    286.52s CPU    288.52s WALL (    8049 calls)

     Called by h_psi:
     add_vuspsi   :    131.03s CPU    131.41s WALL (    8119 calls)

     General routines
     calbec       :    197.20s CPU    200.66s WALL (    9639 calls)
     fft          :    493.51s CPU    539.22s WALL (   46495 calls)
     ffts         :      0.82s CPU      0.89s WALL (     568 calls)
     fftw         :    726.35s CPU    757.80s WALL (  766236 calls)
     interpolate  :      7.47s CPU      7.74s WALL (     568 calls)
     davcio       :      0.00s CPU      0.02s WALL (       5 calls)
 
     Parallel routines
     fft_scatter  :    720.76s CPU    795.41s WALL (  813299 calls)
 
     PWSCF        :     1h36m CPU        1h43m WALL

 
   This run was terminated on:  11:34:48  24Apr2018            

=------------------------------------------------------------------------------=
   JOB DONE.
=------------------------------------------------------------------------------=
Job  /afs/slac/g/suncat/bin/suncat-tsmpirun -x LD_LIBRARY_PATH -wdir /scratch/qe719195_JO8pt pw.x -npool 4 -in pw.inp

TID   HOST_NAME   COMMAND_LINE            STATUS            TERMINATION_TIME
===== ========== ================  =======================  ===================
00000 suncat0165 pw.x -npool 4 -i  Done                     04/24/2018 11:34:48
00001 suncat0165 pw.x -npool 4 -i  Done                     04/24/2018 11:34:48
00002 suncat0165 pw.x -npool 4 -i  Done                     04/24/2018 11:34:48
00003 suncat0165 pw.x -npool 4 -i  Done                     04/24/2018 11:34:48
00004 suncat0165 pw.x -npool 4 -i  Done                     04/24/2018 11:34:48
00005 suncat0165 pw.x -npool 4 -i  Done                     04/24/2018 11:34:48
00006 suncat0165 pw.x -npool 4 -i  Done                     04/24/2018 11:34:48
00007 suncat0165 pw.x -npool 4 -i  Done                     04/24/2018 11:34:48
00008 suncat0115 pw.x -npool 4 -i  Done                     04/24/2018 11:34:48
00009 suncat0115 pw.x -npool 4 -i  Done                     04/24/2018 11:34:48
00010 suncat0115 pw.x -npool 4 -i  Done                     04/24/2018 11:34:48
00011 suncat0115 pw.x -npool 4 -i  Done                     04/24/2018 11:34:48
00012 suncat0115 pw.x -npool 4 -i  Done                     04/24/2018 11:34:48
00013 suncat0115 pw.x -npool 4 -i  Done                     04/24/2018 11:34:48
00014 suncat0115 pw.x -npool 4 -i  Done                     04/24/2018 11:34:48
00015 suncat0115 pw.x -npool 4 -i  Done                     04/24/2018 11:34:48
00016 suncat0249 pw.x -npool 4 -i  Done                     04/24/2018 11:34:48
00017 suncat0249 pw.x -npool 4 -i  Done                     04/24/2018 11:34:48
00018 suncat0249 pw.x -npool 4 -i  Done                     04/24/2018 11:34:48
00019 suncat0249 pw.x -npool 4 -i  Done                     04/24/2018 11:34:48
00020 suncat0249 pw.x -npool 4 -i  Done                     04/24/2018 11:34:48
00021 suncat0249 pw.x -npool 4 -i  Done                     04/24/2018 11:34:48
00022 suncat0249 pw.x -npool 4 -i  Done                     04/24/2018 11:34:48
00023 suncat0249 pw.x -npool 4 -i  Done                     04/24/2018 11:34:48
00024 suncat0240 pw.x -npool 4 -i  Done                     04/24/2018 11:34:48
00025 suncat0240 pw.x -npool 4 -i  Done                     04/24/2018 11:34:48
00026 suncat0240 pw.x -npool 4 -i  Done                     04/24/2018 11:34:48
00027 suncat0240 pw.x -npool 4 -i  Done                     04/24/2018 11:34:48
00028 suncat0240 pw.x -npool 4 -i  Done                     04/24/2018 11:34:48
00029 suncat0240 pw.x -npool 4 -i  Done                     04/24/2018 11:34:48
00030 suncat0240 pw.x -npool 4 -i  Done                     04/24/2018 11:34:48
00031 suncat0240 pw.x -npool 4 -i  Done                     04/24/2018 11:34:48
