  python dir    : /home/users/jrboes/code/decaf-espresso/decaf
espresso dir  : /home/users/jrboes/code/q-e/bin/pw.x
executable    : srun -D /tmp/qe_35371647yieuimky_scratch pw.x -in pw.pwi

     Program PWSCF v.6.1 starts on  7Jan2019 at 19:53:54 

     This program is part of the open-source Quantum ESPRESSO suite
     for quantum simulation of materials; please cite
         "P. Giannozzi et al., J. Phys.:Condens. Matter 21 395502 (2009);
          URL http://www.quantum-espresso.org", 
     in publications or presentations arising from this work. More details at
     http://www.quantum-espresso.org/quote

     Parallel version (MPI), running on    20 processors
     R & G space division:  proc/nbgrp/npool/nimage =      20
     Reading input from pw.pwi
Warning: card &CELL ignored
Warning: card / ignored

     Current dimensions of program PWSCF are:
     Max number of different atomic species (ntypx) = 10
     Max number of k-points (npk) =  40000
     Max angular momentum in pseudopotentials (lmaxx) =  3

     **************************************************************************
     Initializing libbeef V0.1.1 with the BEEF-vdW functional.
     Citation: Wellendorff et al., PRB 85, 235149 (2012).
     **************************************************************************


     IMPORTANT: XC functional enforced from input :
     Exchange-correlation      = BEEF-VDW ( 1  4 29 14 2 0)
     Any further DFT definition will be discarded
     Please, verify this is what you really want


     Subspace diagonalization in iterative solution of the eigenvalue problem:
     one sub-group per band group will be used
     scalapack distributed-memory algorithm (size of sub-group:  3*  3 procs)


     Parallelization info
     --------------------
     sticks:   dense  smooth     PW     G-vecs:    dense   smooth      PW
     Min         219      87     24                43279    10950    1650
     Max         220      89     25                43298    10963    1667
     Sum        4381    1759    499               865629   219157   33273



     bravais-lattice index     =            0
     lattice parameter (alat)  =      13.1573  a.u.
     unit-cell volume          =    7276.7661 (a.u.)^3
     number of atoms/cell      =           13
     number of atomic types    =            2
     number of electrons       =       186.00
     number of Kohn-Sham states=          103
     kinetic-energy cutoff     =      36.7493  Ry
     charge density cutoff     =     367.4933  Ry
     convergence threshold     =      1.0E-04
     mixing beta               =       0.2000
     number of iterations used =            8  plain     mixing
     Exchange-correlation      = BEEF-VDW ( 1  4 29 14 2 0)
     nstep                     =           50


     celldm(1)=  13.157267  celldm(2)=   0.000000  celldm(3)=   0.000000
     celldm(4)=   0.000000  celldm(5)=   0.000000  celldm(6)=   0.000000

     crystal axes: (cart. coord. in units of alat)
               a(1) = (   1.000000   0.000000   0.000000 )  
               a(2) = (   0.500000   0.866025   0.000000 )  
               a(3) = (   0.000000   0.000000   3.689017 )  

     reciprocal axes: (cart. coord. in units 2 pi/alat)
               b(1) = (  1.000000 -0.577350  0.000000 )  
               b(2) = (  0.000000  1.154701  0.000000 )  
               b(3) = (  0.000000  0.000000  0.271075 )  


     PseudoPot. # 1 for Bi read from file:
     /home/users/jrboes/code/decaf-espresso/gbrv15pbe/Bi.UPF
     MD5 check sum: 81103212dc04adf40945787f699eab19
     Pseudo is Ultrasoft + core correction, Zval = 15.0
     Generated by new atomic code, or converted to UPF format
     Using radial grid of  899 points,  6 beta functions with: 
                l(1) =   0
                l(2) =   0
                l(3) =   1
                l(4) =   1
                l(5) =   2
                l(6) =   2
     Q(r) pseudized with  6 coefficients,  rinner =    1.000   1.000   1.000
                                                       1.000   1.000

     PseudoPot. # 2 for O  read from file:
     /home/users/jrboes/code/decaf-espresso/gbrv15pbe/O.UPF
     MD5 check sum: 734c27235a0248c51dbae37a1fbe46ec
     Pseudo is Ultrasoft + core correction, Zval =  6.0
     Generated by new atomic code, or converted to UPF format
     Using radial grid of  737 points,  5 beta functions with: 
                l(1) =   0
                l(2) =   0
                l(3) =   1
                l(4) =   1
                l(5) =   2
     Q(r) pseudized with  8 coefficients,  rinner =    0.900   0.900   0.900
                                                       0.900   0.900

     vdW kernel table read from file vdW_kernel_table
     MD5 check sum: 095c7af220d748ca6e76c0b4c6cfb241

     atomic species   valence    mass     pseudopotential
        Bi            15.00   208.98040     Bi( 1.00)
        O              6.00    15.99900     O ( 1.00)

     No symmetry found



   Cartesian axes

     site n.     atom                  positions (alat units)
         1           Bi  tau(   1) = (   0.2500000   0.1443376   1.4362603  )
         2           Bi  tau(   2) = (   0.7500000   0.1443376   1.4362603  )
         3           Bi  tau(   3) = (   0.5000000   0.5773503   1.4362603  )
         4           Bi  tau(   4) = (   1.0000000   0.5773503   1.4362603  )
         5           Bi  tau(   5) = (   1.0000000   0.2886751   1.8445086  )
         6           Bi  tau(   6) = (   0.5000000   0.2886751   1.8445086  )
         7           Bi  tau(   7) = (   1.2500000   0.7216878   1.8445086  )
         8           Bi  tau(   8) = (   0.7500000   0.7216878   1.8445086  )
         9           Bi  tau(   9) = (   0.0202803  -0.0032229   2.3112439  )
        10           Bi  tau(  10) = (   0.4796675  -0.0032515   2.3112469  )
        11           Bi  tau(  11) = (   0.2499936   0.4945683   2.2945075  )
        12           Bi  tau(  12) = (   0.7499628   0.3765336   2.2647296  )
        13           O   tau(  13) = (   0.2499863  -0.0031374   2.5213133  )

     number of k points=    20  Fermi-Dirac smearing, width (Ry)=  0.0110
                       cart. coord. in units 2pi/alat
        k(    1) = (   0.0000000   0.0000000   0.0000000), wk =   0.0555556
        k(    2) = (   0.0000000   0.1924501   0.0000000), wk =   0.1111111
        k(    3) = (   0.0000000   0.3849002   0.0000000), wk =   0.1111111
        k(    4) = (   0.0000000  -0.5773503   0.0000000), wk =   0.0555556
        k(    5) = (   0.1666667  -0.0962250   0.0000000), wk =   0.1111111
        k(    6) = (   0.1666667   0.0962250   0.0000000), wk =   0.1111111
        k(    7) = (   0.1666667   0.2886751   0.0000000), wk =   0.1111111
        k(    8) = (   0.1666667  -0.6735753   0.0000000), wk =   0.1111111
        k(    9) = (   0.1666667  -0.4811252   0.0000000), wk =   0.1111111
        k(   10) = (   0.1666667  -0.2886751   0.0000000), wk =   0.1111111
        k(   11) = (   0.3333333  -0.1924501   0.0000000), wk =   0.1111111
        k(   12) = (   0.3333333   0.0000000   0.0000000), wk =   0.1111111
        k(   13) = (   0.3333333   0.1924501   0.0000000), wk =   0.1111111
        k(   14) = (   0.3333333  -0.7698004   0.0000000), wk =   0.1111111
        k(   15) = (   0.3333333  -0.5773503   0.0000000), wk =   0.1111111
        k(   16) = (   0.3333333  -0.3849002   0.0000000), wk =   0.1111111
        k(   17) = (  -0.5000000   0.2886751   0.0000000), wk =   0.0555556
        k(   18) = (  -0.5000000   0.4811252   0.0000000), wk =   0.1111111
        k(   19) = (  -0.5000000   0.6735753   0.0000000), wk =   0.1111111
        k(   20) = (  -0.5000000  -0.2886751   0.0000000), wk =   0.0555556

     Dense  grid:   865629 G-vectors     FFT dimensions: (  81,  81, 300)

     Smooth grid:   219157 G-vectors     FFT dimensions: (  54,  54, 192)

     Estimated max dynamical RAM per process >      92.57MB

     Estimated total allocated dynamical RAM >    1851.42MB

     Check: negative/imaginary core charge=   -0.000001    0.000000

     Initial potential from superposition of free atoms
     Check: negative starting charge=   -0.502691

     starting charge  173.99950, renormalised to  186.00000

     negative rho (up, down):  5.374E-01 0.000E+00


     %%%%%%%%%%%%%%%%%%%%%%%%%%%%%%%%%%%%%%%%%%%%%%%%%%%%%%%%%%%%%%%%%%%%%%%%
     %                                                                      %
     % You are using vdW-DF, which was implemented by the Thonhauser group. %
     % Please cite the following two papers that made this development      %
     % possible and the two reviews that describe the various versions:     %
     %                                                                      %
     %   T. Thonhauser et al., PRL 115, 136402 (2015).                      %
     %   T. Thonhauser et al., PRB 76, 125112 (2007).                       %
     %   K. Berland et al., Rep. Prog. Phys. 78, 066501 (2015).             %
     %   D.C. Langreth et al., J. Phys.: Condens. Matter 21, 084203 (2009). %
     %                                                                      %
     %                                                                      %
     % If you are calculating the stress with vdW-DF, please also cite:     %
     %                                                                      %
     %   R. Sabatini et al., J. Phys.: Condens. Matter 24, 424209 (2012).   %
     %                                                                      %
     %%%%%%%%%%%%%%%%%%%%%%%%%%%%%%%%%%%%%%%%%%%%%%%%%%%%%%%%%%%%%%%%%%%%%%%%



     Adding external electric field

     Computed dipole along edir(3) : 
        Dipole               -3.6075 Ry au,         -9.1693 Debye
        Dipole field         -0.0062 Ry au, 

        Potential amp.        0.5443 Ry
        Total length         43.6836 bohr

     Starting wfc are  112 randomized atomic wfcs

     total cpu time spent up to now is        8.8 secs

     per-process dynamical memory:   123.5 Mb

     Self-consistent Calculation

     iteration #  1     ecut=    36.75 Ry     beta=0.20
     Davidson diagonalization with overlap
     ethr =  1.00E-02,  avg # of iterations =  7.0

     negative rho (up, down):  5.215E-01 0.000E+00

     Adding external electric field

     Computed dipole along edir(3) : 
        Dipole               27.4518 Ry au,         69.7754 Debye
        Dipole field          0.0474 Ry au, 

        Potential amp.       -4.1418 Ry
        Total length         43.6836 bohr


     total cpu time spent up to now is       30.6 secs

     total energy              =   -2241.91873568 Ry
     Harris-Foulkes estimate   =   -2282.44574291 Ry
     estimated scf accuracy    <     118.55173941 Ry

     iteration #  2     ecut=    36.75 Ry     beta=0.20
     Davidson diagonalization with overlap
     ethr =  1.00E-02,  avg # of iterations = 11.4

     negative rho (up, down):  5.150E-01 0.000E+00

     Adding external electric field

     Computed dipole along edir(3) : 
        Dipole               -0.0152 Ry au,         -0.0387 Debye
        Dipole field         -0.0000 Ry au, 

        Potential amp.        0.0023 Ry
        Total length         43.6836 bohr


     total cpu time spent up to now is       77.1 secs

     total energy              =   -2150.26959884 Ry
     Harris-Foulkes estimate   =   -2423.16567288 Ry
     estimated scf accuracy    <    7713.86760946 Ry

     iteration #  3     ecut=    36.75 Ry     beta=0.20
     Davidson diagonalization with overlap
     ethr =  1.00E-02,  avg # of iterations =  8.1

     negative rho (up, down):  5.158E-01 0.000E+00

     Adding external electric field

     Computed dipole along edir(3) : 
        Dipole                0.4057 Ry au,          1.0312 Debye
        Dipole field          0.0007 Ry au, 

        Potential amp.       -0.0612 Ry
        Total length         43.6836 bohr


     total cpu time spent up to now is      109.4 secs

     total energy              =   -2276.49786459 Ry
     Harris-Foulkes estimate   =   -2287.95600903 Ry
     estimated scf accuracy    <     146.31285401 Ry

     iteration #  4     ecut=    36.75 Ry     beta=0.20
     Davidson diagonalization with overlap
     ethr =  1.00E-02,  avg # of iterations =  4.4

     negative rho (up, down):  5.131E-01 0.000E+00

     Adding external electric field

     Computed dipole along edir(3) : 
        Dipole               -0.1346 Ry au,         -0.3422 Debye
        Dipole field         -0.0002 Ry au, 

        Potential amp.        0.0203 Ry
        Total length         43.6836 bohr


     total cpu time spent up to now is      127.5 secs

     total energy              =   -2278.56204294 Ry
     Harris-Foulkes estimate   =   -2279.81361226 Ry
     estimated scf accuracy    <      10.15075393 Ry

     iteration #  5     ecut=    36.75 Ry     beta=0.20
     Davidson diagonalization with overlap
     ethr =  5.46E-03,  avg # of iterations =  2.3

     negative rho (up, down):  5.122E-01 0.000E+00

     Adding external electric field

     Computed dipole along edir(3) : 
        Dipole               -0.1625 Ry au,         -0.4129 Debye
        Dipole field         -0.0003 Ry au, 

        Potential amp.        0.0245 Ry
        Total length         43.6836 bohr


     total cpu time spent up to now is      141.4 secs

     total energy              =   -2278.43170976 Ry
     Harris-Foulkes estimate   =   -2278.90773126 Ry
     estimated scf accuracy    <       1.68862283 Ry

     iteration #  6     ecut=    36.75 Ry     beta=0.20
     Davidson diagonalization with overlap
     ethr =  9.08E-04,  avg # of iterations =  3.2

     negative rho (up, down):  5.124E-01 0.000E+00

     Adding external electric field

     Computed dipole along edir(3) : 
        Dipole               -0.6145 Ry au,         -1.5618 Debye
        Dipole field         -0.0011 Ry au, 

        Potential amp.        0.0927 Ry
        Total length         43.6836 bohr


     total cpu time spent up to now is      156.6 secs

     total energy              =   -2278.32104442 Ry
     Harris-Foulkes estimate   =   -2278.56935687 Ry
     estimated scf accuracy    <       0.63870261 Ry

     iteration #  7     ecut=    36.75 Ry     beta=0.20
     Davidson diagonalization with overlap
     ethr =  3.43E-04,  avg # of iterations =  4.5

     negative rho (up, down):  5.156E-01 0.000E+00

     Adding external electric field

     Computed dipole along edir(3) : 
        Dipole               -0.6478 Ry au,         -1.6464 Debye
        Dipole field         -0.0011 Ry au, 

        Potential amp.        0.0977 Ry
        Total length         43.6836 bohr


     total cpu time spent up to now is      173.2 secs

     total energy              =   -2278.31430017 Ry
     Harris-Foulkes estimate   =   -2278.39437771 Ry
     estimated scf accuracy    <       0.42076996 Ry

     iteration #  8     ecut=    36.75 Ry     beta=0.20
     Davidson diagonalization with overlap
     ethr =  2.26E-04,  avg # of iterations =  2.0

     negative rho (up, down):  5.185E-01 0.000E+00

     Adding external electric field

     Computed dipole along edir(3) : 
        Dipole               -0.6545 Ry au,         -1.6636 Debye
        Dipole field         -0.0011 Ry au, 

        Potential amp.        0.0987 Ry
        Total length         43.6836 bohr


     total cpu time spent up to now is      187.1 secs

     total energy              =   -2278.34007562 Ry
     Harris-Foulkes estimate   =   -2278.35157448 Ry
     estimated scf accuracy    <       0.03984084 Ry

     iteration #  9     ecut=    36.75 Ry     beta=0.20
     Davidson diagonalization with overlap
     ethr =  2.14E-05,  avg # of iterations =  5.0

     negative rho (up, down):  5.209E-01 0.000E+00

     Adding external electric field

     Computed dipole along edir(3) : 
        Dipole               -0.6948 Ry au,         -1.7659 Debye
        Dipole field         -0.0012 Ry au, 

        Potential amp.        0.1048 Ry
        Total length         43.6836 bohr


     total cpu time spent up to now is      204.9 secs

     total energy              =   -2278.34370861 Ry
     Harris-Foulkes estimate   =   -2278.34895149 Ry
     estimated scf accuracy    <       0.02102477 Ry

     iteration # 10     ecut=    36.75 Ry     beta=0.20
     Davidson diagonalization with overlap
     ethr =  1.13E-05,  avg # of iterations =  3.0

     negative rho (up, down):  5.225E-01 0.000E+00

     Adding external electric field

     Computed dipole along edir(3) : 
        Dipole               -0.7041 Ry au,         -1.7896 Debye
        Dipole field         -0.0012 Ry au, 

        Potential amp.        0.1062 Ry
        Total length         43.6836 bohr


     total cpu time spent up to now is      220.2 secs

     total energy              =   -2278.34605673 Ry
     Harris-Foulkes estimate   =   -2278.34652247 Ry
     estimated scf accuracy    <       0.00314881 Ry

     iteration # 11     ecut=    36.75 Ry     beta=0.20
     Davidson diagonalization with overlap
     ethr =  1.69E-06,  avg # of iterations =  3.6

     negative rho (up, down):  5.239E-01 0.000E+00

     Adding external electric field

     Computed dipole along edir(3) : 
        Dipole               -0.6949 Ry au,         -1.7664 Debye
        Dipole field         -0.0012 Ry au, 

        Potential amp.        0.1049 Ry
        Total length         43.6836 bohr


     total cpu time spent up to now is      236.2 secs

     total energy              =   -2278.34588304 Ry
     Harris-Foulkes estimate   =   -2278.34658574 Ry
     estimated scf accuracy    <       0.00360425 Ry

     iteration # 12     ecut=    36.75 Ry     beta=0.20
     Davidson diagonalization with overlap
     ethr =  1.69E-06,  avg # of iterations =  4.7

     negative rho (up, down):  5.244E-01 0.000E+00

     Adding external electric field

     Computed dipole along edir(3) : 
        Dipole               -0.6102 Ry au,         -1.5509 Debye
        Dipole field         -0.0011 Ry au, 

        Potential amp.        0.0921 Ry
        Total length         43.6836 bohr


     total cpu time spent up to now is      254.0 secs

     total energy              =   -2278.34606995 Ry
     Harris-Foulkes estimate   =   -2278.34711684 Ry
     estimated scf accuracy    <       0.01038634 Ry

     iteration # 13     ecut=    36.75 Ry     beta=0.20
     Davidson diagonalization with overlap
     ethr =  1.69E-06,  avg # of iterations =  3.0

     negative rho (up, down):  5.251E-01 0.000E+00

     Adding external electric field

     Computed dipole along edir(3) : 
        Dipole               -0.5524 Ry au,         -1.4041 Debye
        Dipole field         -0.0010 Ry au, 

        Potential amp.        0.0833 Ry
        Total length         43.6836 bohr


     total cpu time spent up to now is      269.2 secs

     total energy              =   -2278.34653066 Ry
     Harris-Foulkes estimate   =   -2278.34661867 Ry
     estimated scf accuracy    <       0.00022999 Ry

     iteration # 14     ecut=    36.75 Ry     beta=0.20
     Davidson diagonalization with overlap
     ethr =  1.24E-07,  avg # of iterations =  2.9

     negative rho (up, down):  5.259E-01 0.000E+00

     Adding external electric field

     Computed dipole along edir(3) : 
        Dipole               -0.4500 Ry au,         -1.1438 Debye
        Dipole field         -0.0008 Ry au, 

        Potential amp.        0.0679 Ry
        Total length         43.6836 bohr


     total cpu time spent up to now is      284.1 secs

     End of self-consistent calculation

          k = 0.0000 0.0000 0.0000 ( 27441 PWs)   bands (ev):

   -22.7198 -22.7150 -22.7121 -22.7081 -22.6635 -22.6610 -22.6599 -22.6557
   -22.6464 -22.6431 -22.6073 -22.6004 -22.5980 -22.5904 -22.5785 -22.5772
   -22.5647 -22.5474 -22.5419 -22.5392 -22.5356 -22.5300 -22.5282 -22.5268
   -22.5206 -22.5188 -22.5159 -22.4989 -22.4973 -22.4943 -22.4852 -22.4840
   -22.4815 -22.4792 -22.4739 -22.4513 -22.4425 -22.4319 -22.4102 -22.4035
   -22.4003 -22.3886 -22.3786 -22.3777 -22.3750 -22.3615 -22.3529 -22.3512
   -22.3446 -22.3391 -22.2791 -22.2577 -22.2476 -22.2404 -22.2336 -22.1778
   -22.1743 -22.1554 -22.1510 -22.1497 -16.6803 -12.3388 -11.2121 -10.4252
    -9.6379  -9.6194  -9.5857  -9.3522  -9.1338  -8.9725  -8.9001  -8.7477
    -8.5130  -3.8629  -3.8188  -3.7962  -3.3977  -3.2049  -3.1473  -3.0780
    -2.9491  -2.8853  -2.7116  -2.3501  -1.0006  -0.8156  -0.5006   0.3104
     0.5533   0.7822   1.0230   1.2717   1.5398   1.9425   1.9565   2.0267
     2.1425   2.5453   2.5915   3.0008   3.2588   3.5249   3.5583

          k = 0.0000 0.1925 0.0000 ( 27382 PWs)   bands (ev):

   -22.7156 -22.7127 -22.7059 -22.6972 -22.6633 -22.6586 -22.6514 -22.6514
   -22.6439 -22.6411 -22.6084 -22.6033 -22.5984 -22.5915 -22.5810 -22.5795
   -22.5623 -22.5486 -22.5445 -22.5421 -22.5386 -22.5255 -22.5232 -22.5191
   -22.5189 -22.5137 -22.5134 -22.5075 -22.5017 -22.4942 -22.4869 -22.4846
   -22.4752 -22.4715 -22.4710 -22.4505 -22.4413 -22.4300 -22.4101 -22.4037
   -22.4029 -22.3887 -22.3825 -22.3798 -22.3797 -22.3687 -22.3575 -22.3547
   -22.3519 -22.3484 -22.2800 -22.2581 -22.2486 -22.2418 -22.2368 -22.1782
   -22.1743 -22.1581 -22.1526 -22.1507 -16.6795 -12.2308 -11.1168 -10.3391
   -10.0131  -9.6806  -9.6557  -9.3619  -9.3119  -9.0059  -8.8833  -8.8099
    -8.5212  -3.6853  -3.6370  -3.4308  -3.2404  -3.1286  -2.9783  -2.7920
    -2.6797  -2.6152  -2.3288  -2.1652  -1.0342  -0.8187  -0.3674  -0.1640
     0.4092   0.5663   1.0354   1.1553   1.4220   1.5440   1.8221   1.9032
     2.0625   2.2944   2.5275   2.8542   2.9853   3.1610   3.1673

          k = 0.0000 0.3849 0.0000 ( 27394 PWs)   bands (ev):

   -22.7135 -22.7080 -22.6807 -22.6682 -22.6679 -22.6507 -22.6386 -22.6383
   -22.6347 -22.6301 -22.6124 -22.6120 -22.6024 -22.5984 -22.5902 -22.5869
   -22.5604 -22.5565 -22.5528 -22.5448 -22.5444 -22.5304 -22.5182 -22.5172
   -22.5153 -22.5089 -22.5086 -22.4958 -22.4932 -22.4917 -22.4871 -22.4839
   -22.4742 -22.4507 -22.4487 -22.4477 -22.4366 -22.4253 -22.4101 -22.4093
   -22.4048 -22.4022 -22.3944 -22.3888 -22.3879 -22.3821 -22.3809 -22.3769
   -22.3560 -22.3542 -22.2819 -22.2590 -22.2509 -22.2447 -22.2432 -22.1795
   -22.1745 -22.1632 -22.1585 -22.1506 -16.6778 -11.9107 -10.8414 -10.7144
   -10.0997  -9.8418  -9.7826  -9.7123  -9.3906  -9.2236  -8.9427  -8.8602
    -8.5255  -3.2478  -3.1730  -2.8895  -2.8218  -2.7035  -2.2910  -2.2700
    -2.2401  -2.0062  -1.7027  -1.6604  -0.8939  -0.6235  -0.5803  -0.1622
    -0.0913   0.1687   0.3577   0.6076   0.9273   0.9679   1.2884   1.5716
     1.6631   1.8342   2.2094   2.3375   2.5562   2.5921   3.0113

          k = 0.0000-0.5774 0.0000 ( 27378 PWs)   bands (ev):

   -22.7131 -22.7044 -22.6721 -22.6593 -22.6455 -22.6376 -22.6323 -22.6300
   -22.6261 -22.6232 -22.6215 -22.6194 -22.6159 -22.6090 -22.5970 -22.5877
   -22.5630 -22.5571 -22.5545 -22.5533 -22.5511 -22.5397 -22.5145 -22.5127
   -22.5121 -22.5092 -22.5069 -22.5021 -22.4930 -22.4840 -22.4741 -22.4692
   -22.4614 -22.4470 -22.4396 -22.4317 -22.4234 -22.4179 -22.4165 -22.4149
   -22.4125 -22.4113 -22.4102 -22.4042 -22.4035 -22.3945 -22.3859 -22.3847
   -22.3567 -22.3545 -22.2828 -22.2593 -22.2522 -22.2464 -22.2461 -22.1805
   -22.1746 -22.1657 -22.1613 -22.1506 -16.6770 -11.4209 -11.3649 -10.4099
   -10.3766  -9.8272  -9.8270  -9.6823  -9.6091  -9.4068  -8.9691  -8.8526
    -8.5252  -2.9740  -2.9476  -2.5115  -2.2797  -2.2747  -2.2678  -2.1337
    -2.1069  -1.7883  -1.2100  -0.9396  -0.8128  -0.7848  -0.7356  -0.1634
     0.0825   0.1432   0.3253   0.4394   0.5465   0.6497   0.8597   0.8627
     1.1135   1.3026   1.5586   1.8736   2.2630   2.3555   3.0251

          k = 0.1667-0.0962 0.0000 ( 27382 PWs)   bands (ev):

   -22.7137 -22.7076 -22.7055 -22.7000 -22.6630 -22.6571 -22.6549 -22.6503
   -22.6440 -22.6401 -22.6091 -22.6020 -22.5992 -22.5882 -22.5834 -22.5772
   -22.5631 -22.5480 -22.5446 -22.5424 -22.5374 -22.5288 -22.5246 -22.5185
   -22.5167 -22.5149 -22.5143 -22.5061 -22.5036 -22.4941 -22.4851 -22.4838
   -22.4768 -22.4755 -22.4711 -22.4499 -22.4417 -22.4300 -22.4187 -22.4052
   -22.4005 -22.3907 -22.3815 -22.3809 -22.3774 -22.3666 -22.3607 -22.3586
   -22.3523 -22.3440 -22.2761 -22.2576 -22.2476 -22.2411 -22.2366 -22.1804
   -22.1744 -22.1571 -22.1537 -22.1478 -16.6787 -12.2316 -11.1346 -10.3639
    -9.9975  -9.7076  -9.6431  -9.4255  -9.1975  -8.9928  -8.9153  -8.7686
    -8.5162  -3.7110  -3.5966  -3.4682  -3.2267  -3.1533  -3.0019  -2.8829
    -2.6944  -2.6084  -2.3241  -2.0743  -0.9910  -0.8368  -0.4375  -0.1338
     0.3651   0.5154   1.0277   1.2155   1.3069   1.4877   1.8008   2.0633
     2.1444   2.2970   2.4974   2.7886   2.9864   3.2345   3.2951

          k = 0.1667 0.0962 0.0000 ( 27382 PWs)   bands (ev):

   -22.7137 -22.7076 -22.7055 -22.7000 -22.6630 -22.6571 -22.6549 -22.6503
   -22.6440 -22.6401 -22.6091 -22.6020 -22.5992 -22.5882 -22.5834 -22.5772
   -22.5631 -22.5480 -22.5446 -22.5424 -22.5374 -22.5288 -22.5246 -22.5185
   -22.5167 -22.5149 -22.5143 -22.5061 -22.5036 -22.4941 -22.4851 -22.4838
   -22.4768 -22.4755 -22.4711 -22.4499 -22.4417 -22.4300 -22.4187 -22.4052
   -22.4004 -22.3907 -22.3815 -22.3809 -22.3774 -22.3665 -22.3607 -22.3586
   -22.3523 -22.3441 -22.2761 -22.2576 -22.2476 -22.2411 -22.2366 -22.1804
   -22.1744 -22.1571 -22.1538 -22.1478 -16.6787 -12.2316 -11.1346 -10.3639
    -9.9974  -9.7076  -9.6431  -9.4255  -9.1974  -8.9929  -8.9153  -8.7685
    -8.5163  -3.7110  -3.5966  -3.4681  -3.2267  -3.1533  -3.0019  -2.8830
    -2.6944  -2.6085  -2.3242  -2.0743  -0.9910  -0.8368  -0.4375  -0.1337
     0.3652   0.5153   1.0277   1.2155   1.3069   1.4877   1.8008   2.0633
     2.1444   2.2970   2.4974   2.7885   2.9864   3.2346   3.2951

          k = 0.1667 0.2887 0.0000 ( 27415 PWs)   bands (ev):

   -22.7095 -22.7017 -22.6981 -22.6749 -22.6608 -22.6551 -22.6501 -22.6399
   -22.6377 -22.6312 -22.6132 -22.6066 -22.6006 -22.5979 -22.5849 -22.5802
   -22.5596 -22.5573 -22.5511 -22.5451 -22.5407 -22.5237 -22.5202 -22.5165
   -22.5135 -22.5124 -22.5103 -22.5093 -22.4935 -22.4910 -22.4857 -22.4842
   -22.4765 -22.4712 -22.4487 -22.4478 -22.4389 -22.4265 -22.4185 -22.4093
   -22.4022 -22.3989 -22.3906 -22.3871 -22.3807 -22.3792 -22.3732 -22.3661
   -22.3603 -22.3541 -22.2781 -22.2584 -22.2496 -22.2447 -22.2397 -22.1808
   -22.1744 -22.1611 -22.1554 -22.1503 -16.6775 -12.0175 -10.9520 -10.3404
   -10.2679 -10.1602  -9.6381  -9.4435  -9.3266  -9.1027  -8.9845  -8.8044
    -8.5482  -3.5247  -3.1997  -2.9671  -2.9007  -2.7833  -2.7391  -2.5087
    -2.2961  -2.0643  -1.8575  -1.6189  -1.0780  -0.6909  -0.6050  -0.3252
    -0.1252   0.0694   0.6186   1.0505   1.1274   1.5018   1.5894   1.6574
     1.7824   2.0745   2.1012   2.6044   2.6419   2.7858   2.9924

          k = 0.1667-0.6736 0.0000 ( 27352 PWs)   bands (ev):

   -22.7088 -22.6968 -22.6726 -22.6639 -22.6488 -22.6404 -22.6378 -22.6335
   -22.6301 -22.6246 -22.6206 -22.6160 -22.6119 -22.5998 -22.5943 -22.5825
   -22.5725 -22.5558 -22.5537 -22.5523 -22.5458 -22.5364 -22.5188 -22.5168
   -22.5107 -22.5079 -22.5043 -22.4944 -22.4928 -22.4860 -22.4838 -22.4763
   -22.4570 -22.4526 -22.4462 -22.4347 -22.4302 -22.4219 -22.4183 -22.4172
   -22.4132 -22.4094 -22.4052 -22.3991 -22.3929 -22.3880 -22.3840 -22.3808
   -22.3652 -22.3606 -22.2801 -22.2591 -22.2518 -22.2471 -22.2438 -22.1813
   -22.1746 -22.1644 -22.1594 -22.1512 -16.6762 -11.5991 -11.0007 -10.6236
   -10.4237 -10.1070  -9.8500  -9.5723  -9.3541  -9.2422  -9.1392  -8.7679
    -8.5395  -3.1243  -2.9456  -2.6660  -2.4671  -2.2567  -2.0500  -1.9264
    -1.8765  -1.6358  -1.4513  -1.3797  -1.0131  -0.7304  -0.5951  -0.4783
    -0.1865   0.0162   0.2875   0.4803   0.8204   0.8817   1.0846   1.3443
     1.4814   1.6508   1.7179   2.1107   2.2587   2.3515   2.5453

          k = 0.1667-0.4811 0.0000 ( 27352 PWs)   bands (ev):

   -22.7088 -22.6968 -22.6726 -22.6639 -22.6488 -22.6404 -22.6378 -22.6335
   -22.6301 -22.6247 -22.6206 -22.6160 -22.6119 -22.5998 -22.5943 -22.5825
   -22.5725 -22.5558 -22.5537 -22.5523 -22.5458 -22.5364 -22.5188 -22.5168
   -22.5107 -22.5079 -22.5043 -22.4944 -22.4928 -22.4860 -22.4838 -22.4763
   -22.4570 -22.4526 -22.4462 -22.4347 -22.4302 -22.4219 -22.4183 -22.4172
   -22.4132 -22.4094 -22.4053 -22.3992 -22.3929 -22.3880 -22.3840 -22.3807
   -22.3652 -22.3606 -22.2801 -22.2591 -22.2518 -22.2471 -22.2438 -22.1813
   -22.1746 -22.1644 -22.1594 -22.1512 -16.6762 -11.5991 -11.0007 -10.6236
   -10.4238 -10.1070  -9.8500  -9.5723  -9.3541  -9.2422  -9.1392  -8.7679
    -8.5395  -3.1243  -2.9456  -2.6661  -2.4671  -2.2567  -2.0501  -1.9265
    -1.8765  -1.6358  -1.4513  -1.3797  -1.0131  -0.7304  -0.5951  -0.4783
    -0.1866   0.0162   0.2874   0.4802   0.8204   0.8817   1.0847   1.3443
     1.4814   1.6508   1.7179   2.1109   2.2587   2.3515   2.5454

          k = 0.1667-0.2887 0.0000 ( 27415 PWs)   bands (ev):

   -22.7095 -22.7017 -22.6981 -22.6749 -22.6608 -22.6551 -22.6501 -22.6399
   -22.6378 -22.6311 -22.6132 -22.6066 -22.6006 -22.5979 -22.5849 -22.5802
   -22.5596 -22.5573 -22.5511 -22.5451 -22.5407 -22.5237 -22.5202 -22.5165
   -22.5136 -22.5124 -22.5103 -22.5093 -22.4935 -22.4910 -22.4857 -22.4841
   -22.4765 -22.4712 -22.4487 -22.4478 -22.4389 -22.4264 -22.4185 -22.4092
   -22.4022 -22.3989 -22.3906 -22.3871 -22.3807 -22.3792 -22.3732 -22.3661
   -22.3603 -22.3541 -22.2781 -22.2584 -22.2496 -22.2447 -22.2397 -22.1808
   -22.1744 -22.1612 -22.1554 -22.1503 -16.6775 -12.0175 -10.9520 -10.3404
   -10.2680 -10.1602  -9.6381  -9.4435  -9.3266  -9.1027  -8.9845  -8.8044
    -8.5481  -3.5247  -3.1997  -2.9671  -2.9008  -2.7833  -2.7391  -2.5088
    -2.2961  -2.0643  -1.8575  -1.6189  -1.0780  -0.6909  -0.6050  -0.3252
    -0.1252   0.0692   0.6186   1.0504   1.1273   1.5019   1.5894   1.6574
     1.7824   2.0746   2.1012   2.6045   2.6420   2.7858   2.9923

          k = 0.3333-0.1925 0.0000 ( 27394 PWs)   bands (ev):

   -22.7049 -22.6989 -22.6806 -22.6727 -22.6674 -22.6494 -22.6412 -22.6372
   -22.6365 -22.6264 -22.6151 -22.6110 -22.6022 -22.5984 -22.5947 -22.5719
   -22.5598 -22.5568 -22.5531 -22.5473 -22.5397 -22.5276 -22.5259 -22.5197
   -22.5162 -22.5128 -22.5100 -22.4945 -22.4931 -22.4891 -22.4867 -22.4850
   -22.4802 -22.4547 -22.4491 -22.4461 -22.4396 -22.4372 -22.4249 -22.4101
   -22.4022 -22.4002 -22.3958 -22.3893 -22.3884 -22.3831 -22.3793 -22.3772
   -22.3646 -22.3463 -22.2705 -22.2576 -22.2491 -22.2462 -22.2393 -22.1824
   -22.1761 -22.1602 -22.1544 -22.1499 -16.6755 -11.9144 -10.9421 -10.6913
   -10.1825  -9.8749  -9.7331  -9.6919  -9.2697  -9.2078  -8.9163  -8.7654
    -8.5569  -3.4206  -3.0422  -3.0141  -2.8163  -2.6144  -2.4981  -2.2948
    -2.1950  -2.0944  -1.7310  -1.3581  -1.0124  -0.6940  -0.5449  -0.3779
    -0.1847   0.0637   0.3628   0.6676   0.8902   1.1417   1.3331   1.6130
     1.6819   1.8120   2.2771   2.4071   2.5639   2.6249   2.9991

          k = 0.3333 0.0000 0.0000 ( 27415 PWs)   bands (ev):

   -22.7029 -22.6978 -22.6949 -22.6791 -22.6616 -22.6549 -22.6489 -22.6404
   -22.6384 -22.6302 -22.6145 -22.6056 -22.6006 -22.6002 -22.5848 -22.5702
   -22.5604 -22.5557 -22.5519 -22.5461 -22.5363 -22.5288 -22.5199 -22.5167
   -22.5150 -22.5138 -22.5127 -22.5098 -22.4944 -22.4907 -22.4857 -22.4829
   -22.4807 -22.4692 -22.4535 -22.4468 -22.4409 -22.4375 -22.4261 -22.4083
   -22.4000 -22.3971 -22.3913 -22.3873 -22.3845 -22.3793 -22.3726 -22.3710
   -22.3546 -22.3542 -22.2693 -22.2573 -22.2475 -22.2437 -22.2405 -22.1826
   -22.1761 -22.1585 -22.1544 -22.1487 -16.6760 -12.0201 -11.0061 -10.3210
   -10.3036 -10.1704  -9.5628  -9.4901  -9.3217  -9.0526  -8.9602  -8.8142
    -8.4936  -3.5058  -3.2694  -3.0419  -2.8780  -2.8112  -2.7268  -2.5663
    -2.4214  -2.0321  -1.8746  -1.3857  -0.9565  -0.8710  -0.5818  -0.4319
    -0.2171   0.0867   0.5530   0.8385   1.1709   1.5744   1.6138   1.6971
     1.7983   2.0839   2.3934   2.5433   2.6674   2.8124   3.0956

          k = 0.3333 0.1925 0.0000 ( 27394 PWs)   bands (ev):

   -22.7050 -22.6989 -22.6806 -22.6726 -22.6674 -22.6494 -22.6412 -22.6372
   -22.6365 -22.6264 -22.6151 -22.6110 -22.6022 -22.5985 -22.5947 -22.5719
   -22.5598 -22.5568 -22.5531 -22.5473 -22.5397 -22.5276 -22.5259 -22.5197
   -22.5162 -22.5128 -22.5100 -22.4945 -22.4932 -22.4891 -22.4868 -22.4850
   -22.4802 -22.4547 -22.4490 -22.4461 -22.4396 -22.4372 -22.4249 -22.4102
   -22.4022 -22.4002 -22.3958 -22.3893 -22.3884 -22.3831 -22.3793 -22.3772
   -22.3645 -22.3464 -22.2705 -22.2576 -22.2490 -22.2462 -22.2393 -22.1824
   -22.1761 -22.1602 -22.1544 -22.1499 -16.6755 -11.9144 -10.9422 -10.6913
   -10.1826  -9.8748  -9.7332  -9.6919  -9.2697  -9.2077  -8.9163  -8.7653
    -8.5571  -3.4205  -3.0421  -3.0140  -2.8162  -2.6143  -2.4981  -2.2948
    -2.1950  -2.0944  -1.7310  -1.3582  -1.0123  -0.6939  -0.5450  -0.3779
    -0.1847   0.0638   0.3629   0.6676   0.8902   1.1417   1.3331   1.6130
     1.6819   1.8120   2.2768   2.4070   2.5638   2.6249   2.9991

          k = 0.3333-0.7698 0.0000 ( 27352 PWs)   bands (ev):

   -22.7003 -22.6917 -22.6758 -22.6649 -22.6476 -22.6417 -22.6367 -22.6338
   -22.6296 -22.6246 -22.6216 -22.6169 -22.6124 -22.6002 -22.5970 -22.5731
   -22.5674 -22.5571 -22.5560 -22.5528 -22.5444 -22.5303 -22.5248 -22.5210
   -22.5120 -22.5088 -22.5069 -22.4933 -22.4881 -22.4868 -22.4848 -22.4797
   -22.4574 -22.4548 -22.4447 -22.4385 -22.4359 -22.4316 -22.4212 -22.4184
   -22.4133 -22.4084 -22.4036 -22.3960 -22.3935 -22.3909 -22.3824 -22.3807
   -22.3729 -22.3545 -22.2729 -22.2583 -22.2520 -22.2472 -22.2409 -22.1818
   -22.1762 -22.1624 -22.1554 -22.1523 -16.6747 -11.6030 -11.0236 -10.6593
   -10.4630 -10.1266  -9.7792  -9.5766  -9.3627  -9.2390  -9.0081  -8.7531
    -8.5619  -3.2781  -2.8915  -2.5871  -2.4278  -2.3179  -2.1521  -2.0095
    -1.7948  -1.6262  -1.4816  -1.2959  -1.1217  -0.8175  -0.6030  -0.4524
    -0.2339  -0.0679   0.3142   0.4844   0.7682   0.9746   1.1026   1.2867
     1.4563   1.6221   1.8638   2.2072   2.2410   2.3962   2.7054

          k = 0.3333-0.5774 0.0000 ( 27291 PWs)   bands (ev):

   -22.6999 -22.6787 -22.6672 -22.6642 -22.6453 -22.6437 -22.6371 -22.6337
   -22.6319 -22.6277 -22.6176 -22.6161 -22.6034 -22.6010 -22.5950 -22.5909
   -22.5712 -22.5566 -22.5546 -22.5499 -22.5418 -22.5361 -22.5305 -22.5207
   -22.5107 -22.5077 -22.4931 -22.4925 -22.4879 -22.4851 -22.4807 -22.4776
   -22.4603 -22.4457 -22.4432 -22.4416 -22.4378 -22.4344 -22.4195 -22.4162
   -22.4130 -22.4120 -22.4119 -22.3957 -22.3898 -22.3874 -22.3848 -22.3808
   -22.3798 -22.3700 -22.2739 -22.2586 -22.2528 -22.2469 -22.2432 -22.1813
   -22.1764 -22.1626 -22.1571 -22.1530 -16.6743 -11.1672 -11.0947 -11.0474
   -10.4843 -10.1374  -9.8603  -9.5765  -9.4109  -9.2923  -8.9752  -8.7638
    -8.5274  -3.1296  -2.6715  -2.4624  -2.4337  -2.0311  -1.9971  -1.9124
    -1.8342  -1.7419  -1.0749  -1.0091  -0.9051  -0.7954  -0.6953  -0.4796
    -0.1117  -0.0685   0.0704   0.3920   0.5117   0.6097   0.8628   1.0327
     1.8465   1.9557   2.0048   2.0804   2.1642   2.5256   2.5671

          k = 0.3333-0.3849 0.0000 ( 27352 PWs)   bands (ev):

   -22.7003 -22.6916 -22.6758 -22.6649 -22.6475 -22.6417 -22.6367 -22.6338
   -22.6296 -22.6247 -22.6216 -22.6169 -22.6124 -22.6002 -22.5970 -22.5731
   -22.5674 -22.5571 -22.5560 -22.5528 -22.5444 -22.5303 -22.5248 -22.5210
   -22.5120 -22.5088 -22.5070 -22.4933 -22.4880 -22.4868 -22.4848 -22.4797
   -22.4574 -22.4548 -22.4447 -22.4385 -22.4359 -22.4316 -22.4212 -22.4184
   -22.4133 -22.4084 -22.4036 -22.3960 -22.3935 -22.3909 -22.3824 -22.3807
   -22.3730 -22.3544 -22.2729 -22.2583 -22.2520 -22.2472 -22.2409 -22.1818
   -22.1762 -22.1624 -22.1553 -22.1523 -16.6747 -11.6030 -11.0236 -10.6592
   -10.4630 -10.1266  -9.7792  -9.5766  -9.3627  -9.2389  -9.0082  -8.7530
    -8.5618  -3.2782  -2.8915  -2.5871  -2.4278  -2.3180  -2.1521  -2.0095
    -1.7947  -1.6263  -1.4816  -1.2959  -1.1217  -0.8175  -0.6029  -0.4524
    -0.2340  -0.0679   0.3140   0.4843   0.7682   0.9746   1.1027   1.2867
     1.4564   1.6222   1.8638   2.2074   2.2410   2.3964   2.7055

          k =-0.5000 0.2887 0.0000 ( 27378 PWs)   bands (ev):

   -22.7001 -22.6943 -22.6746 -22.6562 -22.6454 -22.6411 -22.6298 -22.6292
   -22.6285 -22.6261 -22.6230 -22.6213 -22.6194 -22.6066 -22.5974 -22.5672
   -22.5618 -22.5578 -22.5573 -22.5543 -22.5446 -22.5354 -22.5257 -22.5179
   -22.5142 -22.5116 -22.5088 -22.4955 -22.4929 -22.4866 -22.4815 -22.4722
   -22.4549 -22.4498 -22.4456 -22.4438 -22.4362 -22.4237 -22.4224 -22.4169
   -22.4157 -22.4081 -22.4074 -22.4056 -22.4004 -22.3962 -22.3926 -22.3789
   -22.3655 -22.3466 -22.2676 -22.2578 -22.2531 -22.2474 -22.2398 -22.1806
   -22.1785 -22.1614 -22.1540 -22.1523 -16.6739 -11.4442 -11.3615 -10.6935
   -10.2251  -9.8687  -9.8172  -9.7397  -9.5268  -9.2126  -8.9172  -8.7490
    -8.5899  -3.3382  -2.5957  -2.4718  -2.4178  -2.3154  -2.2667  -2.1573
    -2.0875  -1.9491  -1.2017  -1.0237  -0.8997  -0.7859  -0.6772  -0.5644
     0.0999   0.2044   0.2804   0.4878   0.5160   0.7678   0.8050   1.0272
     1.1261   1.2469   1.5791   1.9296   2.4238   2.7750   2.9753

          k =-0.5000 0.4811 0.0000 ( 27352 PWs)   bands (ev):

   -22.6961 -22.6911 -22.6734 -22.6645 -22.6474 -22.6430 -22.6372 -22.6347
   -22.6291 -22.6261 -22.6236 -22.6171 -22.6133 -22.6009 -22.5938 -22.5692
   -22.5644 -22.5603 -22.5564 -22.5487 -22.5401 -22.5349 -22.5259 -22.5209
   -22.5135 -22.5096 -22.5073 -22.4932 -22.4904 -22.4870 -22.4837 -22.4804
   -22.4609 -22.4502 -22.4492 -22.4438 -22.4374 -22.4335 -22.4216 -22.4192
   -22.4117 -22.4072 -22.4044 -22.3982 -22.3974 -22.3886 -22.3819 -22.3796
   -22.3719 -22.3545 -22.2673 -22.2576 -22.2526 -22.2468 -22.2412 -22.1804
   -22.1787 -22.1605 -22.1543 -22.1528 -16.6739 -11.6076 -11.0203 -10.7318
   -10.4319 -10.0785  -9.8418  -9.5284  -9.3596  -9.2284  -9.0200  -8.7569
    -8.5171  -3.2812  -2.9114  -2.6120  -2.4443  -2.3049  -2.2166  -2.0354
    -1.8004  -1.6516  -1.4476  -1.3176  -0.9595  -0.7819  -0.6664  -0.4139
    -0.2919  -0.1422   0.2343   0.4619   0.7870   0.8897   1.1126   1.2441
     1.5679   1.6133   1.9114   2.2280   2.3093   2.4259   2.7593

          k =-0.5000 0.6736 0.0000 ( 27352 PWs)   bands (ev):

   -22.6961 -22.6911 -22.6734 -22.6645 -22.6474 -22.6430 -22.6372 -22.6347
   -22.6291 -22.6261 -22.6236 -22.6171 -22.6133 -22.6009 -22.5938 -22.5692
   -22.5644 -22.5603 -22.5564 -22.5487 -22.5401 -22.5349 -22.5259 -22.5209
   -22.5135 -22.5096 -22.5072 -22.4932 -22.4905 -22.4870 -22.4837 -22.4804
   -22.4609 -22.4502 -22.4492 -22.4438 -22.4374 -22.4335 -22.4216 -22.4192
   -22.4116 -22.4073 -22.4044 -22.3982 -22.3974 -22.3886 -22.3819 -22.3796
   -22.3719 -22.3545 -22.2673 -22.2576 -22.2526 -22.2468 -22.2412 -22.1804
   -22.1787 -22.1605 -22.1543 -22.1528 -16.6739 -11.6076 -11.0203 -10.7318
   -10.4319 -10.0785  -9.8417  -9.5284  -9.3596  -9.2285  -9.0200  -8.7570
    -8.5171  -3.2812  -2.9114  -2.6120  -2.4443  -2.3049  -2.2167  -2.0354
    -1.8004  -1.6516  -1.4476  -1.3176  -0.9595  -0.7819  -0.6665  -0.4139
    -0.2918  -0.1422   0.2344   0.4619   0.7870   0.8898   1.1126   1.2441
     1.5678   1.6133   1.9113   2.2280   2.3092   2.4259   2.7593

          k =-0.5000-0.2887 0.0000 ( 27378 PWs)   bands (ev):

   -22.7001 -22.6943 -22.6745 -22.6563 -22.6454 -22.6410 -22.6297 -22.6291
   -22.6285 -22.6261 -22.6230 -22.6213 -22.6194 -22.6066 -22.5974 -22.5672
   -22.5618 -22.5578 -22.5573 -22.5543 -22.5446 -22.5354 -22.5258 -22.5178
   -22.5142 -22.5116 -22.5088 -22.4955 -22.4929 -22.4866 -22.4815 -22.4722
   -22.4550 -22.4498 -22.4456 -22.4438 -22.4362 -22.4236 -22.4225 -22.4168
   -22.4158 -22.4081 -22.4073 -22.4056 -22.4004 -22.3961 -22.3926 -22.3790
   -22.3655 -22.3467 -22.2676 -22.2578 -22.2531 -22.2474 -22.2398 -22.1806
   -22.1785 -22.1614 -22.1540 -22.1523 -16.6739 -11.4442 -11.3615 -10.6935
   -10.2250  -9.8687  -9.8172  -9.7397  -9.5268  -9.2125  -8.9172  -8.7489
    -8.5901  -3.3381  -2.5956  -2.4718  -2.4177  -2.3155  -2.2667  -2.1573
    -2.0875  -1.9492  -1.2018  -1.0237  -0.8996  -0.7860  -0.6772  -0.5644
     0.1000   0.2046   0.2805   0.4880   0.5161   0.7678   0.8050   1.0272
     1.1261   1.2468   1.5791   1.9292   2.4236   2.7750   2.9751

     the Fermi energy is     1.0011 ev

!    total energy              =   -2278.34653720 Ry
     Harris-Foulkes estimate   =   -2278.34673164 Ry
     estimated scf accuracy    <       0.00006720 Ry

     The total energy is the sum of the following terms:

     one-electron contribution =  -10554.01010481 Ry
     hartree contribution      =    5332.53075199 Ry
     xc contribution           =    -806.42146699 Ry
     ewald contribution        =    3749.60451723 Ry
     electric field correction =       0.00034971 Ry
     smearing contrib. (-TS)   =      -0.05058433 Ry

     convergence has been achieved in  14 iterations

     negative rho (up, down):  5.259E-01 0.000E+00

     Forces acting on atoms (cartesian axes, Ry/au):

     atom    1 type  1   force =    -0.00001108    0.00321838    0.00040064
     atom    2 type  1   force =     0.00000785   -0.00364852    0.00383710
     atom    3 type  1   force =     0.00275591    0.00003461    0.00060290
     atom    4 type  1   force =    -0.00274194    0.00004754    0.00056533
     atom    5 type  1   force =     0.00472334   -0.00034137    0.00184538
     atom    6 type  1   force =    -0.00470570   -0.00031704    0.00183994
     atom    7 type  1   force =    -0.00000043   -0.00421584    0.01259948
     atom    8 type  1   force =    -0.00001628    0.00517794    0.00298149
     atom    9 type  1   force =     0.00011894   -0.00028891   -0.00559331
     atom   10 type  1   force =    -0.00012254   -0.00027105   -0.00560836
     atom   11 type  1   force =     0.00002310   -0.00087653   -0.00677888
     atom   12 type  1   force =    -0.00000649    0.00161907   -0.00453190
     atom   13 type  2   force =    -0.00002468   -0.00013829   -0.00215981

     Total force =     0.011726     Total SCF correction =     0.013313
     SCF correction compared to forces is large: reduce conv_thr to get better values

     BFGS Geometry Optimization

     number of scf cycles    =   1
     number of bfgs steps    =   0

     energy   new            =   -2278.3465372025 Ry

     new trust radius        =       0.0068353565 bohr
     new conv_thr            =       0.0001000000 Ry


ATOMIC_POSITIONS (angstrom)
Bi       1.740631498   1.004954064  10.000000000    0   0   0
Bi       5.221894494   1.004954064  10.000000000    0   0   0
Bi       3.481262996   4.019816256  10.000000000    0   0   0
Bi       6.962525992   4.019816256  10.000000000    0   0   0
Bi       6.962525992   2.009908128  12.842439334    0   0   0
Bi       3.481262996   2.009908128  12.842439334    0   0   0
Bi       8.703157491   5.024770320  12.842439334    0   0   0
Bi       5.221894494   5.024770320  12.842439334    0   0   0
Bi       0.141264831  -0.022592231  16.089135931
Bi       3.339632714  -0.022782016  16.089149050
Bi       1.740599088   3.442980515  15.971980546
Bi       5.221632081   2.622482100  15.765840872
O        1.740522772  -0.021917533  17.553566565



     Writing output data file calc.save
     Check: negative starting charge=   -0.502691
     NEW-OLD atomic charge density approx. for the potential

     Check: negative/imaginary core charge=   -0.000001    0.000000
     Check: negative starting charge=   -0.502727

     negative rho (up, down):  5.260E-01 0.000E+00

     Adding external electric field

     Computed dipole along edir(3) : 
        Dipole               -0.4725 Ry au,         -1.2010 Debye
        Dipole field         -0.0008 Ry au, 

        Potential amp.        0.0713 Ry
        Total length         43.6836 bohr


     total cpu time spent up to now is      291.4 secs

     per-process dynamical memory:   159.5 Mb

     Self-consistent Calculation

     iteration #  1     ecut=    36.75 Ry     beta=0.20
     Davidson diagonalization with overlap
     ethr =  1.00E-06,  avg # of iterations =  3.8

     negative rho (up, down):  5.260E-01 0.000E+00

     Adding external electric field

     Computed dipole along edir(3) : 
        Dipole               -0.6731 Ry au,         -1.7110 Debye
        Dipole field         -0.0012 Ry au, 

        Potential amp.        0.1016 Ry
        Total length         43.6836 bohr


     total cpu time spent up to now is      314.0 secs

     total energy              =   -2278.34399391 Ry
     Harris-Foulkes estimate   =   -2278.34657166 Ry
     estimated scf accuracy    <       0.00843477 Ry

     iteration #  2     ecut=    36.75 Ry     beta=0.20
     Davidson diagonalization with overlap
     ethr =  4.53E-06,  avg # of iterations =  5.0

     negative rho (up, down):  5.260E-01 0.000E+00

     Adding external electric field

     Computed dipole along edir(3) : 
        Dipole               -0.4823 Ry au,         -1.2260 Debye
        Dipole field         -0.0008 Ry au, 

        Potential amp.        0.0728 Ry
        Total length         43.6836 bohr


     total cpu time spent up to now is      332.4 secs

     total energy              =   -2278.33930913 Ry
     Harris-Foulkes estimate   =   -2278.35357586 Ry
     estimated scf accuracy    <       0.24425583 Ry

     iteration #  3     ecut=    36.75 Ry     beta=0.20
     Davidson diagonalization with overlap
     ethr =  4.53E-06,  avg # of iterations =  5.2

     negative rho (up, down):  5.260E-01 0.000E+00

     Adding external electric field

     Computed dipole along edir(3) : 
        Dipole               -0.4975 Ry au,         -1.2644 Debye
        Dipole field         -0.0009 Ry au, 

        Potential amp.        0.0751 Ry
        Total length         43.6836 bohr


     total cpu time spent up to now is      350.3 secs

     total energy              =   -2278.34638387 Ry
     Harris-Foulkes estimate   =   -2278.34668927 Ry
     estimated scf accuracy    <       0.00300964 Ry

     iteration #  4     ecut=    36.75 Ry     beta=0.20
     Davidson diagonalization with overlap
     ethr =  1.62E-06,  avg # of iterations =  1.9

     negative rho (up, down):  5.260E-01 0.000E+00

     Adding external electric field

     Computed dipole along edir(3) : 
        Dipole               -0.5132 Ry au,         -1.3045 Debye
        Dipole field         -0.0009 Ry au, 

        Potential amp.        0.0774 Ry
        Total length         43.6836 bohr


     total cpu time spent up to now is      364.0 secs

     End of self-consistent calculation

          k = 0.0000 0.0000 0.0000 ( 27441 PWs)   bands (ev):

   -22.7070 -22.7024 -22.6979 -22.6955 -22.6515 -22.6486 -22.6474 -22.6433
   -22.6341 -22.6310 -22.5951 -22.5878 -22.5859 -22.5772 -22.5662 -22.5644
   -22.5518 -22.5350 -22.5300 -22.5263 -22.5229 -22.5161 -22.5140 -22.5124
   -22.5066 -22.5056 -22.5029 -22.4866 -22.4848 -22.4806 -22.4717 -22.4698
   -22.4670 -22.4654 -22.4601 -22.4374 -22.4290 -22.4186 -22.3969 -22.3900
   -22.3867 -22.3752 -22.3648 -22.3639 -22.3612 -22.3480 -22.3390 -22.3369
   -22.3298 -22.3246 -22.2729 -22.2505 -22.2404 -22.2330 -22.2267 -22.1734
   -22.1700 -22.1511 -22.1466 -22.1454 -16.6569 -12.3241 -11.1974 -10.4071
    -9.6240  -9.6039  -9.5705  -9.3329  -9.1185  -8.9559  -8.8827  -8.7316
    -8.4995  -3.8474  -3.8035  -3.7806  -3.3791  -3.1887  -3.1292  -3.0603
    -2.9308  -2.8664  -2.6954  -2.3275  -0.9821  -0.7973  -0.4833   0.3278
     0.5714   0.8010   1.0413   1.2885   1.5576   1.9573   1.9747   2.0420
     2.1627   2.5649   2.6118   3.0207   3.2745   3.5415   3.5760

          k = 0.0000 0.1925 0.0000 ( 27382 PWs)   bands (ev):

   -22.7025 -22.6992 -22.6930 -22.6846 -22.6508 -22.6466 -22.6391 -22.6390
   -22.6316 -22.6290 -22.5962 -22.5908 -22.5864 -22.5784 -22.5681 -22.5673
   -22.5492 -22.5365 -22.5319 -22.5301 -22.5259 -22.5121 -22.5090 -22.5048
   -22.5045 -22.5001 -22.4998 -22.4952 -22.4893 -22.4803 -22.4727 -22.4712
   -22.4612 -22.4572 -22.4572 -22.4365 -22.4277 -22.4166 -22.3969 -22.3902
   -22.3893 -22.3753 -22.3687 -22.3660 -22.3659 -22.3549 -22.3438 -22.3407
   -22.3370 -22.3338 -22.2739 -22.2509 -22.2415 -22.2345 -22.2300 -22.1738
   -22.1700 -22.1540 -22.1484 -22.1464 -16.6561 -12.2160 -11.1021 -10.3211
    -9.9985  -9.6652  -9.6411  -9.3425  -9.2965  -8.9897  -8.8660  -8.7930
    -8.5078  -3.6697  -3.6215  -3.4149  -3.2220  -3.1124  -2.9601  -2.7743
    -2.6616  -2.5972  -2.3096  -2.1450  -1.0168  -0.8001  -0.3507  -0.1462
     0.4270   0.5846   1.0528   1.1712   1.4394   1.5622   1.8380   1.9202
     2.0838   2.3118   2.5458   2.8730   3.0037   3.1808   3.1866

          k = 0.0000 0.3849 0.0000 ( 27394 PWs)   bands (ev):

   -22.6992 -22.6953 -22.6680 -22.6557 -22.6552 -22.6387 -22.6263 -22.6259
   -22.6224 -22.6177 -22.6003 -22.5996 -22.5899 -22.5864 -22.5779 -22.5733
   -22.5479 -22.5435 -22.5407 -22.5328 -22.5326 -22.5182 -22.5040 -22.5036
   -22.5011 -22.4960 -22.4954 -22.4815 -22.4793 -22.4769 -22.4729 -22.4705
   -22.4604 -22.4369 -22.4344 -22.4333 -22.4228 -22.4120 -22.3969 -22.3957
   -22.3914 -22.3884 -22.3804 -22.3749 -22.3744 -22.3683 -22.3668 -22.3623
   -22.3415 -22.3406 -22.2758 -22.2518 -22.2439 -22.2374 -22.2365 -22.1751
   -22.1702 -22.1591 -22.1544 -22.1463 -16.6544 -11.8960 -10.8267 -10.6997
   -10.0819  -9.8270  -9.7672  -9.6967  -9.3710  -9.2064  -8.9267  -8.8428
    -8.5118  -3.2311  -3.1564  -2.8715  -2.8059  -2.6842  -2.2745  -2.2530
    -2.2221  -1.9872  -1.6843  -1.6438  -0.8769  -0.6063  -0.5632  -0.1458
    -0.0744   0.1861   0.3745   0.6252   0.9450   0.9862   1.3058   1.5899
     1.6817   1.8519   2.2287   2.3550   2.5720   2.6090   3.0307

          k = 0.0000-0.5774 0.0000 ( 27378 PWs)   bands (ev):

   -22.6987 -22.6918 -22.6595 -22.6468 -22.6334 -22.6249 -22.6196 -22.6173
   -22.6135 -22.6112 -22.6094 -22.6074 -22.6037 -22.5965 -22.5848 -22.5740
   -22.5506 -22.5451 -22.5424 -22.5411 -22.5383 -22.5278 -22.5010 -22.4989
   -22.4986 -22.4945 -22.4934 -22.4883 -22.4791 -22.4707 -22.4603 -22.4540
   -22.4471 -22.4328 -22.4254 -22.4177 -22.4103 -22.4039 -22.4033 -22.4011
   -22.3992 -22.3969 -22.3962 -22.3909 -22.3892 -22.3805 -22.3727 -22.3706
   -22.3423 -22.3410 -22.2767 -22.2521 -22.2452 -22.2398 -22.2389 -22.1761
   -22.1704 -22.1616 -22.1573 -22.1463 -16.6535 -11.4066 -11.3499 -10.3955
   -10.3612  -9.8117  -9.8114  -9.6650  -9.5916  -9.3872  -8.9535  -8.8352
    -8.5114  -2.9552  -2.9281  -2.4962  -2.2635  -2.2591  -2.2520  -2.1144
    -2.0884  -1.7665  -1.1966  -0.9249  -0.7961  -0.7687  -0.7199  -0.1469
     0.1016   0.1606   0.3439   0.4586   0.5648   0.6687   0.8775   0.8776
     1.1307   1.3200   1.5746   1.8923   2.2832   2.3725   3.0475

          k = 0.1667-0.0962 0.0000 ( 27382 PWs)   bands (ev):

   -22.7008 -22.6937 -22.6928 -22.6873 -22.6508 -22.6448 -22.6426 -22.6378
   -22.6317 -22.6280 -22.5969 -22.5897 -22.5869 -22.5752 -22.5710 -22.5642
   -22.5501 -22.5360 -22.5323 -22.5300 -22.5247 -22.5153 -22.5102 -22.5048
   -22.5025 -22.5011 -22.5006 -22.4937 -22.4913 -22.4802 -22.4715 -22.4694
   -22.4629 -22.4614 -22.4571 -22.4359 -22.4281 -22.4167 -22.4055 -22.3916
   -22.3868 -22.3773 -22.3677 -22.3671 -22.3636 -22.3532 -22.3465 -22.3443
   -22.3377 -22.3296 -22.2697 -22.2503 -22.2405 -22.2338 -22.2297 -22.1761
   -22.1700 -22.1530 -22.1494 -22.1436 -16.6553 -12.2169 -11.1196 -10.3457
    -9.9827  -9.6935  -9.6277  -9.4073  -9.1817  -8.9759  -8.8982  -8.7521
    -8.5024  -3.6953  -3.5810  -3.4522  -3.2081  -3.1367  -2.9840  -2.8647
    -2.6765  -2.5898  -2.3048  -2.0558  -0.9732  -0.8183  -0.4200  -0.1167
     0.3830   0.5335   1.0450   1.2329   1.3233   1.5055   1.8183   2.0831
     2.1606   2.3160   2.5148   2.8075   3.0054   3.2537   3.3132

          k = 0.1667 0.0962 0.0000 ( 27382 PWs)   bands (ev):

   -22.7008 -22.6937 -22.6928 -22.6873 -22.6508 -22.6448 -22.6426 -22.6378
   -22.6317 -22.6280 -22.5969 -22.5897 -22.5869 -22.5752 -22.5710 -22.5642
   -22.5501 -22.5360 -22.5323 -22.5300 -22.5247 -22.5153 -22.5102 -22.5048
   -22.5025 -22.5011 -22.5006 -22.4937 -22.4913 -22.4802 -22.4715 -22.4694
   -22.4629 -22.4614 -22.4571 -22.4359 -22.4281 -22.4167 -22.4055 -22.3916
   -22.3868 -22.3773 -22.3677 -22.3671 -22.3636 -22.3532 -22.3465 -22.3443
   -22.3377 -22.3296 -22.2697 -22.2503 -22.2405 -22.2338 -22.2297 -22.1761
   -22.1700 -22.1530 -22.1494 -22.1436 -16.6553 -12.2169 -11.1197 -10.3457
    -9.9827  -9.6935  -9.6277  -9.4073  -9.1816  -8.9759  -8.8982  -8.7521
    -8.5025  -3.6953  -3.5810  -3.4522  -3.2081  -3.1367  -2.9840  -2.8647
    -2.6765  -2.5898  -2.3048  -2.0558  -0.9732  -0.8183  -0.4200  -0.1167
     0.3831   0.5334   1.0450   1.2330   1.3233   1.5055   1.8184   2.0831
     2.1606   2.3160   2.5148   2.8074   3.0055   3.2538   3.3131

          k = 0.1667 0.2887 0.0000 ( 27415 PWs)   bands (ev):

   -22.6952 -22.6892 -22.6854 -22.6623 -22.6483 -22.6429 -22.6379 -22.6276
   -22.6255 -22.6188 -22.6010 -22.5943 -22.5884 -22.5856 -22.5721 -22.5672
   -22.5466 -22.5446 -22.5393 -22.5332 -22.5286 -22.5103 -22.5072 -22.5029
   -22.5002 -22.4986 -22.4964 -22.4956 -22.4796 -22.4765 -22.4713 -22.4706
   -22.4627 -22.4573 -22.4345 -22.4337 -22.4252 -22.4131 -22.4053 -22.3957
   -22.3886 -22.3852 -22.3773 -22.3731 -22.3669 -22.3653 -22.3590 -22.3518
   -22.3461 -22.3400 -22.2718 -22.2512 -22.2426 -22.2377 -22.2327 -22.1765
   -22.1700 -22.1570 -22.1513 -22.1460 -16.6540 -12.0028 -10.9370 -10.3256
   -10.2526 -10.1425  -9.6217  -9.4279  -9.3108  -9.0849  -8.9675  -8.7874
    -8.5343  -3.5089  -3.1813  -2.9499  -2.8845  -2.7669  -2.7214  -2.4904
    -2.2764  -2.0477  -1.8386  -1.6012  -1.0613  -0.6728  -0.5879  -0.3078
    -0.1083   0.0859   0.6359   1.0689   1.1456   1.5192   1.6062   1.6747
     1.8005   2.0939   2.1205   2.6210   2.6574   2.8030   3.0125

          k = 0.1667-0.6736 0.0000 ( 27352 PWs)   bands (ev):

   -22.6944 -22.6842 -22.6599 -22.6514 -22.6367 -22.6281 -22.6254 -22.6210
   -22.6176 -22.6123 -22.6084 -22.6037 -22.5997 -22.5877 -22.5818 -22.5689
   -22.5600 -22.5436 -22.5413 -22.5400 -22.5339 -22.5243 -22.5057 -22.5037
   -22.4969 -22.4940 -22.4897 -22.4801 -22.4787 -22.4716 -22.4704 -22.4625
   -22.4424 -22.4385 -22.4320 -22.4207 -22.4161 -22.4087 -22.4051 -22.4035
   -22.3998 -22.3953 -22.3916 -22.3849 -22.3791 -22.3744 -22.3702 -22.3664
   -22.3515 -22.3466 -22.2740 -22.2519 -22.2448 -22.2403 -22.2367 -22.1769
   -22.1703 -22.1603 -22.1554 -22.1469 -16.6528 -11.5844 -10.9860 -10.6084
   -10.4088 -10.0909  -9.8325  -9.5554  -9.3372  -9.2269  -9.1210  -8.7510
    -8.5255  -3.1063  -2.9271  -2.6478  -2.4502  -2.2392  -2.0339  -1.9071
    -1.8593  -1.6191  -1.4357  -1.3631  -0.9971  -0.7131  -0.5779  -0.4604
    -0.1688   0.0340   0.3038   0.4966   0.8387   0.9009   1.1014   1.3623
     1.4987   1.6693   1.7342   2.1289   2.2755   2.3685   2.5624

          k = 0.1667-0.4811 0.0000 ( 27352 PWs)   bands (ev):

   -22.6944 -22.6842 -22.6599 -22.6514 -22.6367 -22.6281 -22.6254 -22.6210
   -22.6176 -22.6123 -22.6085 -22.6037 -22.5997 -22.5877 -22.5818 -22.5689
   -22.5600 -22.5436 -22.5413 -22.5400 -22.5339 -22.5243 -22.5057 -22.5037
   -22.4968 -22.4940 -22.4897 -22.4801 -22.4788 -22.4716 -22.4704 -22.4625
   -22.4424 -22.4385 -22.4320 -22.4207 -22.4161 -22.4087 -22.4051 -22.4035
   -22.3998 -22.3953 -22.3916 -22.3850 -22.3791 -22.3743 -22.3702 -22.3663
   -22.3515 -22.3466 -22.2740 -22.2519 -22.2448 -22.2403 -22.2367 -22.1769
   -22.1703 -22.1603 -22.1554 -22.1469 -16.6528 -11.5844 -10.9860 -10.6084
   -10.4088 -10.0909  -9.8325  -9.5554  -9.3372  -9.2269  -9.1210  -8.7509
    -8.5255  -3.1063  -2.9271  -2.6478  -2.4502  -2.2392  -2.0340  -1.9071
    -1.8594  -1.6191  -1.4357  -1.3631  -0.9971  -0.7131  -0.5780  -0.4604
    -0.1688   0.0339   0.3037   0.4966   0.8387   0.9009   1.1015   1.3623
     1.4987   1.6693   1.7342   2.1291   2.2755   2.3685   2.5625

          k = 0.1667-0.2887 0.0000 ( 27415 PWs)   bands (ev):

   -22.6952 -22.6892 -22.6854 -22.6623 -22.6483 -22.6429 -22.6379 -22.6276
   -22.6255 -22.6188 -22.6010 -22.5943 -22.5884 -22.5856 -22.5721 -22.5672
   -22.5466 -22.5446 -22.5393 -22.5332 -22.5286 -22.5103 -22.5072 -22.5029
   -22.5002 -22.4986 -22.4964 -22.4956 -22.4796 -22.4765 -22.4713 -22.4706
   -22.4627 -22.4573 -22.4345 -22.4337 -22.4252 -22.4131 -22.4053 -22.3957
   -22.3886 -22.3851 -22.3773 -22.3731 -22.3669 -22.3653 -22.3590 -22.3518
   -22.3461 -22.3400 -22.2718 -22.2512 -22.2426 -22.2377 -22.2327 -22.1765
   -22.1700 -22.1570 -22.1513 -22.1460 -16.6540 -12.0028 -10.9370 -10.3256
   -10.2526 -10.1425  -9.6218  -9.4279  -9.3108  -9.0849  -8.9676  -8.7874
    -8.5342  -3.5088  -3.1813  -2.9499  -2.8846  -2.7669  -2.7215  -2.4905
    -2.2764  -2.0477  -1.8386  -1.6011  -1.0613  -0.6728  -0.5879  -0.3078
    -0.1083   0.0858   0.6359   1.0688   1.1455   1.5193   1.6063   1.6748
     1.8006   2.0940   2.1206   2.6211   2.6575   2.8030   3.0124

          k = 0.3333-0.1925 0.0000 ( 27394 PWs)   bands (ev):

   -22.6921 -22.6846 -22.6679 -22.6601 -22.6551 -22.6371 -22.6289 -22.6250
   -22.6243 -22.6140 -22.6030 -22.5988 -22.5900 -22.5861 -22.5822 -22.5584
   -22.5468 -22.5443 -22.5410 -22.5353 -22.5276 -22.5148 -22.5128 -22.5056
   -22.5027 -22.4999 -22.4962 -22.4803 -22.4788 -22.4745 -22.4727 -22.4712
   -22.4665 -22.4408 -22.4346 -22.4321 -22.4261 -22.4239 -22.4114 -22.3967
   -22.3884 -22.3866 -22.3824 -22.3756 -22.3745 -22.3688 -22.3653 -22.3630
   -22.3505 -22.3323 -22.2640 -22.2504 -22.2422 -22.2392 -22.2320 -22.1782
   -22.1717 -22.1561 -22.1501 -22.1457 -16.6521 -11.8997 -10.9265 -10.6764
   -10.1640  -9.8610  -9.7178  -9.6763  -9.2518  -9.1918  -8.8997  -8.7485
    -8.5421  -3.4018  -3.0265  -2.9969  -2.7994  -2.5952  -2.4798  -2.2784
    -2.1770  -2.0761  -1.7138  -1.3417  -0.9946  -0.6767  -0.5260  -0.3612
    -0.1684   0.0798   0.3800   0.6861   0.9083   1.1604   1.3506   1.6302
     1.6997   1.8300   2.2947   2.4244   2.5801   2.6427   3.0189

          k = 0.3333 0.0000 0.0000 ( 27415 PWs)   bands (ev):

   -22.6897 -22.6840 -22.6821 -22.6666 -22.6492 -22.6428 -22.6365 -22.6281
   -22.6262 -22.6177 -22.6024 -22.5934 -22.5883 -22.5880 -22.5723 -22.5568
   -22.5475 -22.5429 -22.5400 -22.5341 -22.5242 -22.5152 -22.5074 -22.5034
   -22.5015 -22.5003 -22.4986 -22.4958 -22.4804 -22.4763 -22.4722 -22.4683
   -22.4670 -22.4552 -22.4393 -22.4328 -22.4273 -22.4243 -22.4127 -22.3948
   -22.3864 -22.3838 -22.3772 -22.3738 -22.3707 -22.3655 -22.3582 -22.3569
   -22.3403 -22.3402 -22.2627 -22.2500 -22.2404 -22.2369 -22.2332 -22.1784
   -22.1718 -22.1545 -22.1499 -22.1446 -16.6525 -12.0054 -10.9905 -10.3046
   -10.2891 -10.1531  -9.5487  -9.4737  -9.3060  -9.0346  -8.9432  -8.7977
    -8.4792  -3.4897  -3.2499  -3.0253  -2.8613  -2.7948  -2.7090  -2.5481
    -2.4020  -2.0151  -1.8566  -1.3686  -0.9386  -0.8540  -0.5634  -0.4139
    -0.2013   0.1037   0.5704   0.8565   1.1901   1.5913   1.6311   1.7143
     1.8162   2.1034   2.4114   2.5594   2.6834   2.8292   3.1148

          k = 0.3333 0.1925 0.0000 ( 27394 PWs)   bands (ev):

   -22.6921 -22.6846 -22.6679 -22.6601 -22.6551 -22.6371 -22.6289 -22.6250
   -22.6243 -22.6140 -22.6030 -22.5988 -22.5900 -22.5861 -22.5822 -22.5584
   -22.5468 -22.5443 -22.5410 -22.5353 -22.5276 -22.5148 -22.5128 -22.5056
   -22.5027 -22.4999 -22.4962 -22.4803 -22.4788 -22.4746 -22.4727 -22.4712
   -22.4665 -22.4408 -22.4346 -22.4321 -22.4261 -22.4239 -22.4114 -22.3967
   -22.3885 -22.3866 -22.3824 -22.3756 -22.3745 -22.3688 -22.3653 -22.3630
   -22.3504 -22.3323 -22.2640 -22.2504 -22.2422 -22.2392 -22.2320 -22.1782
   -22.1717 -22.1561 -22.1501 -22.1457 -16.6521 -11.8997 -10.9266 -10.6763
   -10.1640  -9.8609  -9.7178  -9.6763  -9.2518  -9.1917  -8.8997  -8.7484
    -8.5423  -3.4018  -3.0265  -2.9969  -2.7994  -2.5951  -2.4799  -2.2784
    -2.1770  -2.0761  -1.7139  -1.3418  -0.9945  -0.6767  -0.5261  -0.3612
    -0.1684   0.0799   0.3801   0.6861   0.9083   1.1605   1.3506   1.6302
     1.6998   1.8300   2.2945   2.4243   2.5801   2.6427   3.0190

          k = 0.3333-0.7698 0.0000 ( 27352 PWs)   bands (ev):

   -22.6860 -22.6788 -22.6633 -22.6525 -22.6352 -22.6292 -22.6242 -22.6217
   -22.6172 -22.6123 -22.6095 -22.6046 -22.6003 -22.5880 -22.5846 -22.5598
   -22.5546 -22.5447 -22.5435 -22.5408 -22.5324 -22.5182 -22.5117 -22.5080
   -22.4983 -22.4946 -22.4925 -22.4794 -22.4735 -22.4724 -22.4712 -22.4661
   -22.4432 -22.4404 -22.4306 -22.4252 -22.4222 -22.4175 -22.4077 -22.4047
   -22.4000 -22.3941 -22.3901 -22.3824 -22.3794 -22.3769 -22.3682 -22.3669
   -22.3592 -22.3405 -22.2665 -22.2511 -22.2451 -22.2403 -22.2336 -22.1775
   -22.1718 -22.1583 -22.1513 -22.1480 -16.6513 -11.5884 -11.0088 -10.6427
   -10.4484 -10.1100  -9.7625  -9.5608  -9.3458  -9.2235  -8.9911  -8.7360
    -8.5470  -3.2585  -2.8746  -2.5692  -2.4105  -2.3001  -2.1338  -1.9921
    -1.7782  -1.6093  -1.4662  -1.2789  -1.1045  -0.8000  -0.5860  -0.4344
    -0.2169  -0.0499   0.3299   0.5013   0.7861   0.9945   1.1203   1.3042
     1.4747   1.6399   1.8801   2.2246   2.2570   2.4133   2.7233

          k = 0.3333-0.5774 0.0000 ( 27291 PWs)   bands (ev):

   -22.6854 -22.6660 -22.6546 -22.6515 -22.6331 -22.6315 -22.6247 -22.6214
   -22.6197 -22.6155 -22.6055 -22.6040 -22.5912 -22.5885 -22.5823 -22.5784
   -22.5577 -22.5447 -22.5417 -22.5378 -22.5299 -22.5239 -22.5184 -22.5068
   -22.4970 -22.4936 -22.4791 -22.4777 -22.4730 -22.4716 -22.4669 -22.4634
   -22.4463 -22.4318 -22.4291 -22.4276 -22.4246 -22.4206 -22.4057 -22.4019
   -22.3995 -22.3983 -22.3978 -22.3823 -22.3756 -22.3734 -22.3710 -22.3668
   -22.3656 -22.3564 -22.2676 -22.2514 -22.2459 -22.2401 -22.2359 -22.1770
   -22.1721 -22.1586 -22.1531 -22.1487 -16.6509 -11.1527 -11.0806 -11.0319
   -10.4662 -10.1233  -9.8448  -9.5584  -9.3937  -9.2756  -8.9608  -8.7455
    -8.5128  -3.1087  -2.6539  -2.4453  -2.4173  -2.0151  -1.9808  -1.8948
    -1.8144  -1.7237  -1.0587  -0.9925  -0.8898  -0.7776  -0.6777  -0.4642
    -0.0942  -0.0514   0.0888   0.4089   0.5292   0.6261   0.8820   1.0508
     1.8637   1.9734   2.0208   2.0965   2.1809   2.5434   2.5856

          k = 0.3333-0.3849 0.0000 ( 27352 PWs)   bands (ev):

   -22.6860 -22.6788 -22.6633 -22.6525 -22.6352 -22.6292 -22.6242 -22.6217
   -22.6172 -22.6123 -22.6095 -22.6046 -22.6003 -22.5880 -22.5846 -22.5598
   -22.5546 -22.5447 -22.5435 -22.5408 -22.5324 -22.5182 -22.5117 -22.5080
   -22.4983 -22.4946 -22.4925 -22.4794 -22.4735 -22.4724 -22.4712 -22.4661
   -22.4432 -22.4404 -22.4306 -22.4252 -22.4222 -22.4175 -22.4077 -22.4047
   -22.4000 -22.3941 -22.3901 -22.3824 -22.3794 -22.3769 -22.3682 -22.3669
   -22.3592 -22.3404 -22.2665 -22.2511 -22.2452 -22.2403 -22.2336 -22.1775
   -22.1718 -22.1583 -22.1512 -22.1480 -16.6513 -11.5884 -11.0088 -10.6427
   -10.4485 -10.1100  -9.7625  -9.5608  -9.3458  -9.2235  -8.9912  -8.7359
    -8.5469  -3.2585  -2.8746  -2.5693  -2.4106  -2.3001  -2.1338  -1.9922
    -1.7781  -1.6094  -1.4662  -1.2789  -1.1045  -0.8001  -0.5860  -0.4344
    -0.2170  -0.0499   0.3296   0.5012   0.7861   0.9944   1.1204   1.3043
     1.4748   1.6399   1.8801   2.2248   2.2570   2.4135   2.7234

          k =-0.5000 0.2887 0.0000 ( 27378 PWs)   bands (ev):

   -22.6872 -22.6800 -22.6622 -22.6436 -22.6330 -22.6285 -22.6172 -22.6169
   -22.6163 -22.6141 -22.6108 -22.6092 -22.6073 -22.5939 -22.5851 -22.5542
   -22.5497 -22.5451 -22.5447 -22.5421 -22.5324 -22.5235 -22.5122 -22.5051
   -22.4999 -22.4979 -22.4947 -22.4811 -22.4790 -22.4730 -22.4679 -22.4574
   -22.4404 -22.4368 -22.4314 -22.4298 -22.4223 -22.4095 -22.4085 -22.4034
   -22.4024 -22.3944 -22.3940 -22.3912 -22.3862 -22.3827 -22.3786 -22.3652
   -22.3515 -22.3326 -22.2610 -22.2506 -22.2465 -22.2403 -22.2325 -22.1764
   -22.1741 -22.1574 -22.1498 -22.1481 -16.6505 -11.4298 -11.3465 -10.6759
   -10.2110  -9.8537  -9.8002  -9.7233  -9.5100  -9.1970  -8.9006  -8.7320
    -8.5744  -3.3172  -2.5787  -2.4558  -2.4024  -2.2977  -2.2505  -2.1389
    -2.0682  -1.9292  -1.1860  -1.0073  -0.8841  -0.7693  -0.6612  -0.5475
     0.1180   0.2222   0.2985   0.5052   0.5343   0.7856   0.8228   1.0445
     1.1438   1.2655   1.5979   1.9448   2.4412   2.7940   2.9956

          k =-0.5000 0.4811 0.0000 ( 27352 PWs)   bands (ev):

   -22.6820 -22.6779 -22.6607 -22.6521 -22.6350 -22.6305 -22.6250 -22.6223
   -22.6170 -22.6140 -22.6116 -22.6046 -22.6011 -22.5886 -22.5812 -22.5564
   -22.5515 -22.5483 -22.5435 -22.5365 -22.5281 -22.5229 -22.5128 -22.5081
   -22.4998 -22.4954 -22.4927 -22.4793 -22.4759 -22.4733 -22.4696 -22.4666
   -22.4465 -22.4366 -22.4353 -22.4297 -22.4236 -22.4192 -22.4080 -22.4055
   -22.3981 -22.3937 -22.3906 -22.3845 -22.3834 -22.3747 -22.3679 -22.3655
   -22.3581 -22.3405 -22.2607 -22.2504 -22.2459 -22.2398 -22.2338 -22.1762
   -22.1743 -22.1565 -22.1500 -22.1487 -16.6505 -11.5929 -11.0054 -10.7150
   -10.4170 -10.0620  -9.8255  -9.5131  -9.3428  -9.2128  -9.0028  -8.7398
    -8.5021  -3.2607  -2.8949  -2.5948  -2.4263  -2.2864  -2.1984  -2.0194
    -1.7830  -1.6352  -1.4319  -1.3008  -0.9416  -0.7648  -0.6489  -0.3967
    -0.2754  -0.1239   0.2512   0.4780   0.8050   0.9094   1.1298   1.2618
     1.5862   1.6309   1.9284   2.2448   2.3269   2.4424   2.7781

          k =-0.5000 0.6736 0.0000 ( 27352 PWs)   bands (ev):

   -22.6820 -22.6779 -22.6607 -22.6521 -22.6350 -22.6305 -22.6250 -22.6223
   -22.6170 -22.6140 -22.6116 -22.6046 -22.6011 -22.5886 -22.5812 -22.5564
   -22.5515 -22.5483 -22.5435 -22.5365 -22.5281 -22.5229 -22.5128 -22.5081
   -22.4998 -22.4954 -22.4927 -22.4793 -22.4759 -22.4733 -22.4696 -22.4666
   -22.4465 -22.4366 -22.4353 -22.4297 -22.4236 -22.4192 -22.4080 -22.4055
   -22.3981 -22.3937 -22.3906 -22.3845 -22.3834 -22.3747 -22.3679 -22.3655
   -22.3581 -22.3405 -22.2607 -22.2504 -22.2459 -22.2398 -22.2338 -22.1762
   -22.1743 -22.1565 -22.1500 -22.1487 -16.6505 -11.5929 -11.0055 -10.7150
   -10.4170 -10.0620  -9.8254  -9.5131  -9.3428  -9.2128  -9.0028  -8.7399
    -8.5021  -3.2607  -2.8948  -2.5948  -2.4262  -2.2864  -2.1984  -2.0194
    -1.7830  -1.6351  -1.4319  -1.3008  -0.9416  -0.7649  -0.6490  -0.3967
    -0.2754  -0.1239   0.2513   0.4780   0.8050   0.9095   1.1298   1.2617
     1.5861   1.6309   1.9282   2.2448   2.3269   2.4423   2.7782

          k =-0.5000-0.2887 0.0000 ( 27378 PWs)   bands (ev):

   -22.6872 -22.6800 -22.6622 -22.6436 -22.6330 -22.6285 -22.6172 -22.6169
   -22.6163 -22.6141 -22.6108 -22.6092 -22.6073 -22.5939 -22.5851 -22.5542
   -22.5497 -22.5451 -22.5447 -22.5421 -22.5324 -22.5235 -22.5122 -22.5051
   -22.4999 -22.4979 -22.4947 -22.4812 -22.4790 -22.4730 -22.4679 -22.4574
   -22.4404 -22.4368 -22.4314 -22.4298 -22.4223 -22.4095 -22.4085 -22.4033
   -22.4024 -22.3944 -22.3940 -22.3912 -22.3862 -22.3827 -22.3786 -22.3652
   -22.3515 -22.3326 -22.2610 -22.2506 -22.2465 -22.2403 -22.2325 -22.1764
   -22.1741 -22.1574 -22.1498 -22.1481 -16.6505 -11.4298 -11.3465 -10.6760
   -10.2108  -9.8537  -9.8002  -9.7234  -9.5100  -9.1969  -8.9006  -8.7320
    -8.5746  -3.3171  -2.5785  -2.4558  -2.4024  -2.2977  -2.2506  -2.1389
    -2.0682  -1.9293  -1.1860  -1.0073  -0.8840  -0.7694  -0.6612  -0.5475
     0.1181   0.2224   0.2986   0.5054   0.5344   0.7855   0.8227   1.0445
     1.1437   1.2654   1.5979   1.9444   2.4410   2.7940   2.9956

     the Fermi energy is     1.0191 ev

!    total energy              =   -2278.34653676 Ry
     Harris-Foulkes estimate   =   -2278.34651546 Ry
     estimated scf accuracy    <       0.00000722 Ry

     The total energy is the sum of the following terms:

     one-electron contribution =  -10558.62886569 Ry
     hartree contribution      =    5335.00306250 Ry
     xc contribution           =    -806.43859886 Ry
     ewald contribution        =    3751.76801348 Ry
     electric field correction =       0.00045485 Ry
     smearing contrib. (-TS)   =      -0.05060303 Ry

     convergence has been achieved in   4 iterations

     negative rho (up, down):  5.260E-01 0.000E+00

     Forces acting on atoms (cartesian axes, Ry/au):

     atom    1 type  1   force =     0.00000978    0.00278677   -0.00746582
     atom    2 type  1   force =    -0.00000230   -0.00406003   -0.00423820
     atom    3 type  1   force =     0.00292549    0.00038469   -0.00739338
     atom    4 type  1   force =    -0.00292853    0.00038670   -0.00737001
     atom    5 type  1   force =     0.00428206   -0.00048951    0.00017056
     atom    6 type  1   force =    -0.00428285   -0.00048920    0.00016906
     atom    7 type  1   force =    -0.00000173   -0.00401136    0.01040562
     atom    8 type  1   force =    -0.00000203    0.00521885    0.00176350
     atom    9 type  1   force =    -0.00272441   -0.00038336    0.00287748
     atom   10 type  1   force =     0.00272700   -0.00038530    0.00285633
     atom   11 type  1   force =     0.00000833   -0.00018137    0.00317476
     atom   12 type  1   force =     0.00000173    0.00141660    0.00320688
     atom   13 type  2   force =    -0.00001253   -0.00019350    0.00184322

     Total force =     0.007578     Total SCF correction =     0.003986
     SCF correction compared to forces is large: reduce conv_thr to get better values

     number of scf cycles    =   2
     number of bfgs steps    =   1

     energy   old            =   -2278.3465372025 Ry
     energy   new            =   -2278.3465367568 Ry

     CASE: energy  _new > energy  _old

     new trust radius        =       0.0034066343 bohr
     new conv_thr            =       0.0001000000 Ry


ATOMIC_POSITIONS (angstrom)
Bi       1.740631498   1.004954064  10.000000000    0   0   0
Bi       5.221894494   1.004954064  10.000000000    0   0   0
Bi       3.481262996   4.019816256  10.000000000    0   0   0
Bi       6.962525992   4.019816256  10.000000000    0   0   0
Bi       6.962525992   2.009908128  12.842439334    0   0   0
Bi       3.481262996   2.009908128  12.842439334    0   0   0
Bi       8.703157491   5.024770320  12.842439334    0   0   0
Bi       5.221894494   5.024770320  12.842439334    0   0   0
Bi       0.141233258  -0.022515543  16.090620639
Bi       3.339665241  -0.022710067  16.090637755
Bi       1.740592955   3.443213183  15.973779957
Bi       5.221633804   2.622052327  15.767043836
O        1.740529324  -0.021880824  17.554139872



     Writing output data file calc.save
     Check: negative starting charge=   -0.502727
     NEW-OLD atomic charge density approx. for the potential

     Check: negative/imaginary core charge=   -0.000001    0.000000
     Check: negative starting charge=   -0.502722

     negative rho (up, down):  5.260E-01 0.000E+00

     Adding external electric field

     Computed dipole along edir(3) : 
        Dipole               -0.5019 Ry au,         -1.2757 Debye
        Dipole field         -0.0009 Ry au, 

        Potential amp.        0.0757 Ry
        Total length         43.6836 bohr


     total cpu time spent up to now is      371.3 secs

     per-process dynamical memory:   159.5 Mb

     Self-consistent Calculation

     iteration #  1     ecut=    36.75 Ry     beta=0.20
     Davidson diagonalization with overlap
     ethr =  1.00E-06,  avg # of iterations =  3.0

     negative rho (up, down):  5.260E-01 0.000E+00

     Adding external electric field

     Computed dipole along edir(3) : 
        Dipole               -0.4149 Ry au,         -1.0546 Debye
        Dipole field         -0.0007 Ry au, 

        Potential amp.        0.0626 Ry
        Total length         43.6836 bohr


     total cpu time spent up to now is      390.3 secs

     total energy              =   -2278.34617493 Ry
     Harris-Foulkes estimate   =   -2278.34673698 Ry
     estimated scf accuracy    <       0.00119299 Ry

     iteration #  2     ecut=    36.75 Ry     beta=0.20
     Davidson diagonalization with overlap
     ethr =  6.41E-07,  avg # of iterations =  4.4

     negative rho (up, down):  5.260E-01 0.000E+00

     Adding external electric field

     Computed dipole along edir(3) : 
        Dipole               -0.4937 Ry au,         -1.2549 Debye
        Dipole field         -0.0009 Ry au, 

        Potential amp.        0.0745 Ry
        Total length         43.6836 bohr


     total cpu time spent up to now is      407.7 secs

     total energy              =   -2278.34533274 Ry
     Harris-Foulkes estimate   =   -2278.34769494 Ry
     estimated scf accuracy    <       0.04651127 Ry

     iteration #  3     ecut=    36.75 Ry     beta=0.20
     Davidson diagonalization with overlap
     ethr =  6.41E-07,  avg # of iterations =  4.6

     negative rho (up, down):  5.260E-01 0.000E+00

     Adding external electric field

     Computed dipole along edir(3) : 
        Dipole               -0.4898 Ry au,         -1.2449 Debye
        Dipole field         -0.0008 Ry au, 

        Potential amp.        0.0739 Ry
        Total length         43.6836 bohr


     total cpu time spent up to now is      425.2 secs

     End of self-consistent calculation

          k = 0.0000 0.0000 0.0000 ( 27441 PWs)   bands (ev):

   -22.7004 -22.6960 -22.6906 -22.6890 -22.6447 -22.6419 -22.6410 -22.6366
   -22.6272 -22.6243 -22.5883 -22.5808 -22.5791 -22.5698 -22.5593 -22.5573
   -22.5439 -22.5274 -22.5228 -22.5185 -22.5165 -22.5080 -22.5056 -22.5039
   -22.4989 -22.4975 -22.4949 -22.4800 -22.4781 -22.4729 -22.4636 -22.4612
   -22.4585 -22.4567 -22.4524 -22.4289 -22.4207 -22.4101 -22.3889 -22.3814
   -22.3780 -22.3666 -22.3561 -22.3552 -22.3526 -22.3394 -22.3304 -22.3281
   -22.3211 -22.3158 -22.2599 -22.2380 -22.2279 -22.2207 -22.2143 -22.1596
   -22.1562 -22.1374 -22.1329 -22.1317 -16.6545 -12.3170 -11.1891 -10.4012
    -9.6163  -9.5972  -9.5636  -9.3271  -9.1104  -8.9491  -8.8766  -8.7245
    -8.4906  -3.8405  -3.7965  -3.7738  -3.3738  -3.1822  -3.1233  -3.0541
    -2.9252  -2.8609  -2.6877  -2.3243  -0.9771  -0.7925  -0.4774   0.3339
     0.5770   0.8064   1.0470   1.2951   1.5635   1.9645   1.9799   2.0487
     2.1666   2.5702   2.6163   3.0256   3.2820   3.5483   3.5820

          k = 0.0000 0.1925 0.0000 ( 27382 PWs)   bands (ev):

   -22.6958 -22.6921 -22.6863 -22.6781 -22.6441 -22.6397 -22.6325 -22.6324
   -22.6247 -22.6222 -22.5894 -22.5839 -22.5796 -22.5711 -22.5609 -22.5603
   -22.5413 -22.5291 -22.5255 -22.5230 -22.5182 -22.5041 -22.5006 -22.4972
   -22.4961 -22.4922 -22.4914 -22.4885 -22.4826 -22.4725 -22.4641 -22.4631
   -22.4533 -22.4487 -22.4486 -22.4280 -22.4193 -22.4081 -22.3889 -22.3816
   -22.3807 -22.3666 -22.3601 -22.3573 -22.3573 -22.3462 -22.3351 -22.3320
   -22.3284 -22.3251 -22.2608 -22.2384 -22.2289 -22.2221 -22.2175 -22.1601
   -22.1562 -22.1402 -22.1347 -22.1326 -16.6536 -12.2089 -11.0938 -10.3151
    -9.9913  -9.6585  -9.6338  -9.3367  -9.2885  -8.9826  -8.8599  -8.7864
    -8.4989  -3.6629  -3.6146  -3.4083  -3.2167  -3.1058  -2.9542  -2.7682
    -2.6557  -2.5907  -2.3045  -2.1402  -1.0113  -0.7949  -0.3445  -0.1404
     0.4328   0.5902   1.0588   1.1777   1.4455   1.5679   1.8451   1.9267
     2.0874   2.3178   2.5513   2.8784   3.0096   3.1858   3.1919

          k = 0.0000 0.3849 0.0000 ( 27394 PWs)   bands (ev):

   -22.6918 -22.6888 -22.6616 -22.6490 -22.6487 -22.6319 -22.6196 -22.6190
   -22.6156 -22.6113 -22.5935 -22.5927 -22.5831 -22.5796 -22.5711 -22.5657
   -22.5414 -22.5358 -22.5333 -22.5255 -22.5254 -22.5115 -22.4959 -22.4958
   -22.4934 -22.4889 -22.4877 -22.4730 -22.4714 -22.4683 -22.4643 -22.4624
   -22.4527 -22.4283 -22.4259 -22.4247 -22.4143 -22.4034 -22.3888 -22.3871
   -22.3829 -22.3798 -22.3718 -22.3662 -22.3657 -22.3597 -22.3582 -22.3536
   -22.3328 -22.3319 -22.2627 -22.2392 -22.2313 -22.2250 -22.2239 -22.1614
   -22.1564 -22.1453 -22.1405 -22.1325 -16.6519 -11.8888 -10.8184 -10.6925
   -10.0758  -9.8188  -9.7604  -9.6898  -9.3653  -9.2000  -8.9195  -8.8368
    -8.5030  -3.2249  -3.1499  -2.8663  -2.7991  -2.6790  -2.2682  -2.2469
    -2.2160  -1.9822  -1.6792  -1.6368  -0.8705  -0.6001  -0.5570  -0.1395
    -0.0679   0.1920   0.3811   0.6311   0.9515   0.9922   1.3121   1.5953
     1.6873   1.8578   2.2338   2.3607   2.5785   2.6156   3.0356

          k = 0.0000-0.5774 0.0000 ( 27378 PWs)   bands (ev):

   -22.6913 -22.6854 -22.6529 -22.6404 -22.6267 -22.6182 -22.6129 -22.6105
   -22.6066 -22.6044 -22.6026 -22.6006 -22.5970 -22.5900 -22.5781 -22.5664
   -22.5441 -22.5378 -22.5356 -22.5336 -22.5307 -22.5207 -22.4937 -22.4913
   -22.4912 -22.4860 -22.4857 -22.4799 -22.4714 -22.4626 -22.4526 -22.4454
   -22.4385 -22.4243 -22.4168 -22.4092 -22.4018 -22.3952 -22.3946 -22.3924
   -22.3905 -22.3888 -22.3875 -22.3824 -22.3805 -22.3718 -22.3640 -22.3620
   -22.3336 -22.3322 -22.2636 -22.2396 -22.2326 -22.2271 -22.2264 -22.1624
   -22.1565 -22.1478 -22.1434 -22.1325 -16.6511 -11.3993 -11.3429 -10.3871
   -10.3532  -9.8049  -9.8046  -9.6590  -9.5853  -9.3815  -8.9459  -8.8292
    -8.5027  -2.9504  -2.9229  -2.4896  -2.2568  -2.2523  -2.2453  -2.1094
    -2.0829  -1.7636  -1.1875  -0.9174  -0.7900  -0.7621  -0.7133  -0.1406
     0.1075   0.1674   0.3496   0.4640   0.5706   0.6741   0.8833   0.8855
     1.1370   1.3261   1.5818   1.8979   2.2878   2.3789   3.0504

          k = 0.1667-0.0962 0.0000 ( 27382 PWs)   bands (ev):

   -22.6942 -22.6869 -22.6859 -22.6808 -22.6442 -22.6381 -22.6358 -22.6312
   -22.6248 -22.6212 -22.5901 -22.5829 -22.5800 -22.5680 -22.5641 -22.5569
   -22.5421 -22.5286 -22.5254 -22.5232 -22.5170 -22.5073 -22.5018 -22.4970
   -22.4943 -22.4930 -22.4923 -22.4870 -22.4846 -22.4724 -22.4635 -22.4608
   -22.4552 -22.4528 -22.4485 -22.4274 -22.4198 -22.4081 -22.3975 -22.3830
   -22.3782 -22.3687 -22.3590 -22.3585 -22.3549 -22.3445 -22.3378 -22.3356
   -22.3290 -22.3209 -22.2568 -22.2379 -22.2280 -22.2214 -22.2172 -22.1623
   -22.1562 -22.1392 -22.1357 -22.1298 -16.6529 -12.2098 -11.1115 -10.3398
    -9.9756  -9.6860  -9.6210  -9.4008  -9.1739  -8.9693  -8.8918  -8.7453
    -8.4937  -3.6884  -3.5742  -3.4455  -3.2028  -3.1302  -2.9779  -2.8589
    -2.6706  -2.5842  -2.2995  -2.0501  -0.9678  -0.8133  -0.4141  -0.1104
     0.3889   0.5391   1.0510   1.2389   1.3299   1.5113   1.8244   2.0875
     2.1672   2.3211   2.5209   2.8128   3.0108   3.2590   3.3192

          k = 0.1667 0.0962 0.0000 ( 27382 PWs)   bands (ev):

   -22.6942 -22.6869 -22.6859 -22.6808 -22.6442 -22.6381 -22.6358 -22.6312
   -22.6248 -22.6212 -22.5901 -22.5829 -22.5800 -22.5680 -22.5641 -22.5569
   -22.5421 -22.5286 -22.5254 -22.5232 -22.5170 -22.5073 -22.5018 -22.4970
   -22.4943 -22.4930 -22.4924 -22.4870 -22.4846 -22.4724 -22.4635 -22.4608
   -22.4552 -22.4528 -22.4485 -22.4274 -22.4198 -22.4081 -22.3975 -22.3830
   -22.3782 -22.3687 -22.3590 -22.3585 -22.3549 -22.3445 -22.3378 -22.3356
   -22.3290 -22.3209 -22.2568 -22.2379 -22.2280 -22.2214 -22.2172 -22.1623
   -22.1562 -22.1392 -22.1357 -22.1298 -16.6529 -12.2098 -11.1115 -10.3398
    -9.9756  -9.6860  -9.6210  -9.4008  -9.1739  -8.9693  -8.8918  -8.7453
    -8.4938  -3.6884  -3.5742  -3.4455  -3.2028  -3.1302  -2.9779  -2.8589
    -2.6705  -2.5842  -2.2996  -2.0501  -0.9678  -0.8133  -0.4141  -0.1104
     0.3890   0.5391   1.0510   1.2390   1.3299   1.5113   1.8244   2.0875
     2.1672   2.3211   2.5209   2.8127   3.0108   3.2591   3.3192

          k = 0.1667 0.2887 0.0000 ( 27415 PWs)   bands (ev):

   -22.6878 -22.6827 -22.6788 -22.6558 -22.6418 -22.6361 -22.6311 -22.6207
   -22.6187 -22.6123 -22.5942 -22.5874 -22.5815 -22.5788 -22.5650 -22.5599
   -22.5394 -22.5375 -22.5319 -22.5260 -22.5213 -22.5028 -22.4999 -22.4952
   -22.4931 -22.4903 -22.4885 -22.4876 -22.4718 -22.4679 -22.4630 -22.4623
   -22.4550 -22.4487 -22.4260 -22.4251 -22.4167 -22.4045 -22.3973 -22.3871
   -22.3800 -22.3765 -22.3686 -22.3644 -22.3582 -22.3566 -22.3503 -22.3431
   -22.3374 -22.3313 -22.2588 -22.2387 -22.2300 -22.2252 -22.2202 -22.1627
   -22.1563 -22.1432 -22.1375 -22.1322 -16.6516 -11.9957 -10.9288 -10.3183
   -10.2458 -10.1365  -9.6141  -9.4206  -9.3039  -9.0788  -8.9610  -8.7809
    -8.5255  -3.5021  -3.1759  -2.9438  -2.8779  -2.7607  -2.7156  -2.4847
    -2.2716  -2.0409  -1.8335  -1.5952  -1.0549  -0.6672  -0.5816  -0.3017
    -0.1022   0.0926   0.6422   1.0747   1.1515   1.5252   1.6125   1.6808
     1.8061   2.0989   2.1255   2.6275   2.6640   2.8094   3.0171

[...]
     2.1649   2.3194   2.5189   2.8109   3.0091   3.2571   3.3171

          k = 0.1667 0.2887 0.0000 ( 27415 PWs)   bands (ev):

   -22.6903 -22.6852 -22.6814 -22.6585 -22.6444 -22.6389 -22.6337 -22.6235
   -22.6214 -22.6148 -22.5968 -22.5901 -22.5842 -22.5815 -22.5676 -22.5623
   -22.5419 -22.5399 -22.5347 -22.5287 -22.5241 -22.5053 -22.5024 -22.4975
   -22.4957 -22.4930 -22.4910 -22.4902 -22.4742 -22.4707 -22.4656 -22.4649
   -22.4573 -22.4514 -22.4287 -22.4278 -22.4194 -22.4073 -22.3995 -22.3898
   -22.3827 -22.3792 -22.3713 -22.3672 -22.3610 -22.3594 -22.3531 -22.3459
   -22.3402 -22.3341 -22.2626 -22.2423 -22.2337 -22.2288 -22.2239 -22.1668
   -22.1604 -22.1473 -22.1416 -22.1363 -16.6553 -11.9983 -10.9314 -10.3209
   -10.2483 -10.1386  -9.6165  -9.4233  -9.3064  -9.0809  -8.9631  -8.7831
    -8.5287  -3.5050  -3.1786  -2.9462  -2.8807  -2.7631  -2.7179  -2.4870
    -2.2742  -2.0435  -1.8357  -1.5978  -1.0579  -0.6695  -0.5837  -0.3042
    -0.1046   0.0899   0.6399   1.0729   1.1494   1.5231   1.6103   1.6785
     1.8042   2.0974   2.1239   2.6250   2.6615   2.8072   3.0156

          k = 0.1667-0.6736 0.0000 ( 27352 PWs)   bands (ev):

   -22.6894 -22.6803 -22.6561 -22.6475 -22.6325 -22.6241 -22.6214 -22.6170
   -22.6136 -22.6083 -22.6042 -22.5996 -22.5956 -22.5835 -22.5778 -22.5637
   -22.5560 -22.5391 -22.5366 -22.5349 -22.5294 -22.5201 -22.5012 -22.4985
   -22.4915 -22.4886 -22.4839 -22.4744 -22.4732 -22.4658 -22.4647 -22.4571
   -22.4366 -22.4326 -22.4262 -22.4148 -22.4102 -22.4028 -22.3993 -22.3975
   -22.3938 -22.3894 -22.3857 -22.3791 -22.3732 -22.3684 -22.3643 -22.3605
   -22.3455 -22.3407 -22.2647 -22.2430 -22.2359 -22.2314 -22.2279 -22.1673
   -22.1606 -22.1505 -22.1456 -22.1371 -16.6541 -11.5799 -10.9815 -10.6029
   -10.4042 -10.0857  -9.8282  -9.5509  -9.3329  -9.2227  -9.1172  -8.7465
    -8.5199  -3.1037  -2.9247  -2.6450  -2.4463  -2.2354  -2.0300  -1.9054
    -1.8559  -1.6151  -1.4314  -1.3597  -0.9929  -0.7090  -0.5737  -0.4564
    -0.1648   0.0381   0.3079   0.5008   0.8425   0.9043   1.1057   1.3663
     1.5026   1.6729   1.7385   2.1327   2.2794   2.3727   2.5662

          k = 0.1667-0.4811 0.0000 ( 27352 PWs)   bands (ev):

   -22.6894 -22.6803 -22.6561 -22.6475 -22.6325 -22.6240 -22.6214 -22.6170
   -22.6136 -22.6083 -22.6042 -22.5996 -22.5956 -22.5835 -22.5778 -22.5637
   -22.5560 -22.5391 -22.5366 -22.5349 -22.5294 -22.5201 -22.5012 -22.4986
   -22.4914 -22.4886 -22.4839 -22.4744 -22.4732 -22.4658 -22.4647 -22.4571
   -22.4366 -22.4326 -22.4262 -22.4148 -22.4102 -22.4028 -22.3993 -22.3975
   -22.3938 -22.3894 -22.3857 -22.3791 -22.3732 -22.3684 -22.3643 -22.3605
   -22.3455 -22.3407 -22.2647 -22.2430 -22.2359 -22.2314 -22.2279 -22.1673
   -22.1606 -22.1505 -22.1456 -22.1371 -16.6541 -11.5799 -10.9815 -10.6029
   -10.4043 -10.0858  -9.8282  -9.5509  -9.3329  -9.2227  -9.1172  -8.7465
    -8.5199  -3.1037  -2.9247  -2.6450  -2.4463  -2.2354  -2.0301  -1.9054
    -1.8559  -1.6151  -1.4314  -1.3597  -0.9928  -0.7090  -0.5737  -0.4564
    -0.1648   0.0380   0.3078   0.5007   0.8425   0.9043   1.1058   1.3663
     1.5026   1.6729   1.7385   2.1328   2.2794   2.3728   2.5663

          k = 0.1667-0.2887 0.0000 ( 27415 PWs)   bands (ev):

   -22.6903 -22.6852 -22.6814 -22.6585 -22.6444 -22.6389 -22.6338 -22.6235
   -22.6214 -22.6148 -22.5968 -22.5901 -22.5842 -22.5815 -22.5676 -22.5623
   -22.5419 -22.5399 -22.5347 -22.5287 -22.5241 -22.5053 -22.5024 -22.4975
   -22.4957 -22.4930 -22.4910 -22.4902 -22.4742 -22.4707 -22.4656 -22.4649
   -22.4573 -22.4514 -22.4287 -22.4278 -22.4194 -22.4072 -22.3995 -22.3898
   -22.3827 -22.3792 -22.3713 -22.3672 -22.3610 -22.3594 -22.3531 -22.3459
   -22.3402 -22.3341 -22.2626 -22.2423 -22.2337 -22.2288 -22.2239 -22.1668
   -22.1604 -22.1473 -22.1416 -22.1363 -16.6553 -11.9983 -10.9314 -10.3210
   -10.2483 -10.1386  -9.6165  -9.4232  -9.3064  -9.0809  -8.9631  -8.7831
    -8.5286  -3.5050  -3.1786  -2.9462  -2.8807  -2.7631  -2.7179  -2.4871
    -2.2742  -2.0435  -1.8357  -1.5977  -1.0579  -0.6695  -0.5837  -0.3042
    -0.1046   0.0897   0.6399   1.0728   1.1493   1.5231   1.6103   1.6786
     1.8042   2.0975   2.1240   2.6252   2.6616   2.8071   3.0154

          k = 0.3333-0.1925 0.0000 ( 27394 PWs)   bands (ev):

   -22.6882 -22.6797 -22.6641 -22.6562 -22.6511 -22.6330 -22.6249 -22.6208
   -22.6201 -22.6101 -22.5988 -22.5946 -22.5858 -22.5820 -22.5782 -22.5533
   -22.5415 -22.5400 -22.5365 -22.5308 -22.5231 -22.5105 -22.5075 -22.5002
   -22.4974 -22.4951 -22.4909 -22.4748 -22.4731 -22.4688 -22.4669 -22.4655
   -22.4610 -22.4349 -22.4288 -22.4263 -22.4203 -22.4181 -22.4056 -22.3907
   -22.3825 -22.3806 -22.3765 -22.3697 -22.3686 -22.3629 -22.3594 -22.3571
   -22.3445 -22.3263 -22.2549 -22.2415 -22.2333 -22.2303 -22.2233 -22.1685
   -22.1620 -22.1463 -22.1404 -22.1360 -16.6534 -11.8952 -10.9210 -10.6719
   -10.1601  -9.8557  -9.7136  -9.6718  -9.2479  -9.1867  -8.8952  -8.7442
    -8.5369  -3.3989  -3.0224  -2.9935  -2.7954  -2.5921  -2.4776  -2.2742
    -2.1735  -2.0732  -1.7103  -1.3376  -0.9919  -0.6731  -0.5224  -0.3571
    -0.1644   0.0842   0.3839   0.6898   0.9119   1.1640   1.3548   1.6343
     1.7034   1.8338   2.2986   2.4282   2.5841   2.6465   3.0221

          k = 0.3333 0.0000 0.0000 ( 27415 PWs)   bands (ev):

   -22.6856 -22.6795 -22.6781 -22.6626 -22.6453 -22.6387 -22.6324 -22.6240
   -22.6220 -22.6138 -22.5982 -22.5892 -22.5841 -22.5838 -22.5680 -22.5517
   -22.5420 -22.5391 -22.5355 -22.5295 -22.5195 -22.5097 -22.5033 -22.4984
   -22.4967 -22.4947 -22.4931 -22.4901 -22.4749 -22.4705 -22.4666 -22.4625
   -22.4614 -22.4493 -22.4334 -22.4269 -22.4216 -22.4185 -22.4068 -22.3888
   -22.3805 -22.3779 -22.3713 -22.3678 -22.3648 -22.3596 -22.3523 -22.3510
   -22.3344 -22.3343 -22.2536 -22.2411 -22.2315 -22.2280 -22.2245 -22.1688
   -22.1621 -22.1447 -22.1403 -22.1348 -16.6538 -12.0008 -10.9849 -10.3005
   -10.2845 -10.1492  -9.5431  -9.4691  -9.3016  -9.0308  -8.9387  -8.7931
    -8.4738  -3.4857  -3.2472  -3.0214  -2.8571  -2.7912  -2.7057  -2.5445
    -2.4001  -2.0109  -1.8536  -1.3644  -0.9365  -0.8505  -0.5597  -0.4103
    -0.1971   0.1078   0.5742   0.8603   1.1936   1.5952   1.6349   1.7184
     1.8200   2.1066   2.4151   2.5639   2.6871   2.8333   3.1180

          k = 0.3333 0.1925 0.0000 ( 27394 PWs)   bands (ev):

   -22.6882 -22.6797 -22.6641 -22.6562 -22.6511 -22.6330 -22.6249 -22.6208
   -22.6201 -22.6101 -22.5988 -22.5946 -22.5858 -22.5820 -22.5782 -22.5533
   -22.5415 -22.5400 -22.5365 -22.5308 -22.5231 -22.5105 -22.5075 -22.5002
   -22.4973 -22.4951 -22.4909 -22.4748 -22.4731 -22.4688 -22.4669 -22.4655
   -22.4610 -22.4349 -22.4288 -22.4263 -22.4202 -22.4181 -22.4056 -22.3907
   -22.3825 -22.3806 -22.3764 -22.3697 -22.3686 -22.3629 -22.3594 -22.3571
   -22.3445 -22.3264 -22.2549 -22.2415 -22.2332 -22.2303 -22.2233 -22.1685
   -22.1620 -22.1463 -22.1404 -22.1360 -16.6534 -11.8952 -10.9211 -10.6719
   -10.1601  -9.8556  -9.7136  -9.6717  -9.2479  -9.1866  -8.8952  -8.7441
    -8.5371  -3.3989  -3.0224  -2.9935  -2.7954  -2.5920  -2.4776  -2.2742
    -2.1735  -2.0732  -1.7103  -1.3377  -0.9918  -0.6731  -0.5224  -0.3571
    -0.1644   0.0843   0.3839   0.6897   0.9119   1.1640   1.3548   1.6342
     1.7034   1.8338   2.2983   2.4281   2.5841   2.6465   3.0222

          k = 0.3333-0.7698 0.0000 ( 27352 PWs)   bands (ev):

   -22.6812 -22.6749 -22.6594 -22.6486 -22.6312 -22.6253 -22.6202 -22.6175
   -22.6132 -22.6083 -22.6053 -22.6006 -22.5961 -22.5838 -22.5806 -22.5550
   -22.5503 -22.5402 -22.5383 -22.5362 -22.5279 -22.5139 -22.5071 -22.5029
   -22.4929 -22.4892 -22.4868 -22.4739 -22.4677 -22.4667 -22.4655 -22.4605
   -22.4373 -22.4345 -22.4248 -22.4193 -22.4163 -22.4117 -22.4018 -22.3987
   -22.3941 -22.3882 -22.3842 -22.3765 -22.3735 -22.3711 -22.3623 -22.3610
   -22.3532 -22.3346 -22.2573 -22.2422 -22.2362 -22.2314 -22.2249 -22.1678
   -22.1621 -22.1485 -22.1415 -22.1383 -16.6526 -11.5838 -11.0042 -10.6376
   -10.4438 -10.1053  -9.7580  -9.5558  -9.3417  -9.2193  -8.9868  -8.7316
    -8.5415  -3.2562  -2.8712  -2.5662  -2.4072  -2.2970  -2.1311  -1.9887
    -1.7744  -1.6055  -1.4620  -1.2756  -1.1006  -0.7960  -0.5818  -0.4307
    -0.2126  -0.0460   0.3341   0.5053   0.7898   0.9977   1.1244   1.3081
     1.4784   1.6437   1.8843   2.2288   2.2611   2.4175   2.7271

          k = 0.3333-0.5774 0.0000 ( 27291 PWs)   bands (ev):

   -22.6805 -22.6622 -22.6507 -22.6478 -22.6290 -22.6274 -22.6206 -22.6173
   -22.6155 -22.6114 -22.6013 -22.5998 -22.5870 -22.5846 -22.5785 -22.5744
   -22.5525 -22.5403 -22.5362 -22.5333 -22.5255 -22.5197 -22.5142 -22.5014
   -22.4916 -22.4883 -22.4737 -22.4719 -22.4672 -22.4660 -22.4613 -22.4576
   -22.4404 -22.4258 -22.4232 -22.4217 -22.4188 -22.4147 -22.3998 -22.3960
   -22.3935 -22.3924 -22.3920 -22.3764 -22.3697 -22.3676 -22.3651 -22.3609
   -22.3597 -22.3504 -22.2584 -22.2425 -22.2369 -22.2312 -22.2271 -22.1674
   -22.1624 -22.1488 -22.1433 -22.1390 -16.6522 -11.1478 -11.0760 -11.0277
   -10.4614 -10.1174  -9.8400  -9.5546  -9.3894  -9.2716  -8.9568  -8.7411
    -8.5071  -3.1071  -2.6517  -2.4417  -2.4135  -2.0110  -1.9770  -1.8916
    -1.8118  -1.7205  -1.0545  -0.9884  -0.8856  -0.7740  -0.6741  -0.4599
    -0.0899  -0.0473   0.0927   0.4137   0.5327   0.6307   0.8853   1.0545
     1.8680   1.9775   2.0251   2.1006   2.1850   2.5470   2.5891

          k = 0.3333-0.3849 0.0000 ( 27352 PWs)   bands (ev):

   -22.6812 -22.6749 -22.6594 -22.6486 -22.6312 -22.6253 -22.6202 -22.6175
   -22.6132 -22.6083 -22.6053 -22.6006 -22.5961 -22.5838 -22.5806 -22.5550
   -22.5503 -22.5402 -22.5383 -22.5362 -22.5279 -22.5139 -22.5071 -22.5029
   -22.4929 -22.4892 -22.4868 -22.4739 -22.4677 -22.4667 -22.4655 -22.4605
   -22.4373 -22.4345 -22.4248 -22.4193 -22.4163 -22.4116 -22.4018 -22.3987
   -22.3941 -22.3882 -22.3842 -22.3765 -22.3735 -22.3710 -22.3623 -22.3610
   -22.3532 -22.3345 -22.2573 -22.2422 -22.2362 -22.2314 -22.2249 -22.1678
   -22.1621 -22.1486 -22.1415 -22.1383 -16.6526 -11.5838 -11.0042 -10.6376
   -10.4438 -10.1053  -9.7581  -9.5558  -9.3417  -9.2193  -8.9869  -8.7316
    -8.5414  -3.2562  -2.8712  -2.5662  -2.4072  -2.2970  -2.1311  -1.9887
    -1.7743  -1.6056  -1.4620  -1.2756  -1.1005  -0.7961  -0.5818  -0.4307
    -0.2126  -0.0460   0.3338   0.5053   0.7898   0.9976   1.1245   1.3082
     1.4785   1.6438   1.8844   2.2289   2.2611   2.4177   2.7272

          k =-0.5000 0.2887 0.0000 ( 27378 PWs)   bands (ev):

   -22.6833 -22.6752 -22.6582 -22.6398 -22.6290 -22.6246 -22.6133 -22.6127
   -22.6122 -22.6099 -22.6067 -22.6050 -22.6031 -22.5901 -22.5810 -22.5492
   -22.5453 -22.5409 -22.5395 -22.5373 -22.5279 -22.5192 -22.5067 -22.5006
   -22.4942 -22.4926 -22.4894 -22.4754 -22.4735 -22.4675 -22.4623 -22.4516
   -22.4346 -22.4309 -22.4255 -22.4240 -22.4164 -22.4036 -22.4027 -22.3974
   -22.3964 -22.3885 -22.3881 -22.3853 -22.3803 -22.3768 -22.3727 -22.3593
   -22.3455 -22.3267 -22.2519 -22.2417 -22.2375 -22.2314 -22.2238 -22.1667
   -22.1644 -22.1476 -22.1400 -22.1384 -16.6518 -11.4250 -11.3422 -10.6708
   -10.2055  -9.8493  -9.7962  -9.7193  -9.5057  -9.1920  -8.8960  -8.7278
    -8.5692  -3.3152  -2.5750  -2.4529  -2.3984  -2.2952  -2.2462  -2.1355
    -2.0647  -1.9274  -1.1808  -1.0036  -0.8798  -0.7658  -0.6576  -0.5437
     0.1218   0.2264   0.3024   0.5097   0.5384   0.7894   0.8267   1.0483
     1.1475   1.2690   1.6014   1.9496   2.4453   2.7972   2.9980

          k =-0.5000 0.4811 0.0000 ( 27352 PWs)   bands (ev):

   -22.6775 -22.6737 -22.6569 -22.6482 -22.6310 -22.6265 -22.6209 -22.6183
   -22.6127 -22.6098 -22.6073 -22.6007 -22.5969 -22.5845 -22.5773 -22.5522
   -22.5466 -22.5437 -22.5379 -22.5320 -22.5236 -22.5187 -22.5079 -22.5033
   -22.4944 -22.4900 -22.4870 -22.4738 -22.4701 -22.4677 -22.4638 -22.4610
   -22.4406 -22.4308 -22.4295 -22.4239 -22.4178 -22.4133 -22.4021 -22.3996
   -22.3922 -22.3878 -22.3847 -22.3786 -22.3775 -22.3688 -22.3620 -22.3596
   -22.3522 -22.3346 -22.2516 -22.2415 -22.2370 -22.2309 -22.2251 -22.1665
   -22.1647 -22.1467 -22.1403 -22.1389 -16.6518 -11.5883 -11.0008 -10.7100
   -10.4125 -10.0574  -9.8207  -9.5081  -9.3387  -9.2086  -8.9986  -8.7354
    -8.4967  -3.2586  -2.8910  -2.5912  -2.4241  -2.2834  -2.1952  -2.0155
    -1.7796  -1.6311  -1.4278  -1.2973  -0.9384  -0.7606  -0.6450  -0.3925
    -0.2711  -0.1201   0.2553   0.4820   0.8086   0.9129   1.1338   1.2659
     1.5899   1.6346   1.9324   2.2487   2.3309   2.4467   2.7813

          k =-0.5000 0.6736 0.0000 ( 27352 PWs)   bands (ev):

   -22.6775 -22.6737 -22.6569 -22.6482 -22.6310 -22.6265 -22.6209 -22.6183
   -22.6127 -22.6098 -22.6073 -22.6007 -22.5969 -22.5845 -22.5773 -22.5522
   -22.5466 -22.5437 -22.5379 -22.5320 -22.5236 -22.5187 -22.5079 -22.5033
   -22.4944 -22.4900 -22.4870 -22.4738 -22.4702 -22.4677 -22.4638 -22.4610
   -22.4406 -22.4308 -22.4295 -22.4239 -22.4178 -22.4133 -22.4021 -22.3996
   -22.3922 -22.3878 -22.3847 -22.3786 -22.3775 -22.3688 -22.3620 -22.3596
   -22.3522 -22.3346 -22.2516 -22.2415 -22.2370 -22.2309 -22.2251 -22.1665
   -22.1647 -22.1467 -22.1403 -22.1389 -16.6518 -11.5883 -11.0008 -10.7100
   -10.4125 -10.0573  -9.8206  -9.5081  -9.3387  -9.2086  -8.9986  -8.7354
    -8.4968  -3.2586  -2.8910  -2.5912  -2.4241  -2.2835  -2.1952  -2.0155
    -1.7796  -1.6311  -1.4278  -1.2973  -0.9384  -0.7606  -0.6451  -0.3925
    -0.2710  -0.1201   0.2554   0.4820   0.8086   0.9130   1.1338   1.2658
     1.5898   1.6346   1.9323   2.2487   2.3308   2.4467   2.7813

          k =-0.5000-0.2887 0.0000 ( 27378 PWs)   bands (ev):

   -22.6833 -22.6752 -22.6582 -22.6398 -22.6290 -22.6246 -22.6133 -22.6127
   -22.6122 -22.6099 -22.6067 -22.6050 -22.6031 -22.5901 -22.5810 -22.5492
   -22.5453 -22.5409 -22.5395 -22.5373 -22.5279 -22.5192 -22.5067 -22.5006
   -22.4942 -22.4926 -22.4894 -22.4754 -22.4735 -22.4675 -22.4623 -22.4516
   -22.4346 -22.4309 -22.4255 -22.4240 -22.4164 -22.4036 -22.4027 -22.3974
   -22.3964 -22.3885 -22.3880 -22.3853 -22.3803 -22.3767 -22.3727 -22.3593
   -22.3455 -22.3267 -22.2519 -22.2417 -22.2375 -22.2314 -22.2238 -22.1667
   -22.1644 -22.1476 -22.1400 -22.1384 -16.6518 -11.4250 -11.3422 -10.6709
   -10.2053  -9.8493  -9.7962  -9.7193  -9.5057  -9.1919  -8.8961  -8.7277
    -8.5695  -3.3151  -2.5749  -2.4529  -2.3983  -2.2952  -2.2462  -2.1355
    -2.0647  -1.9274  -1.1808  -1.0036  -0.8797  -0.7659  -0.6576  -0.5437
     0.1219   0.2265   0.3025   0.5099   0.5384   0.7894   0.8267   1.0483
     1.1474   1.2689   1.6014   1.9491   2.4451   2.7972   2.9980

     the Fermi energy is     1.0229 ev

!    total energy              =   -2278.34655633 Ry
     Harris-Foulkes estimate   =   -2278.34654466 Ry
     estimated scf accuracy    <       0.00000050 Ry

     The total energy is the sum of the following terms:

     one-electron contribution =  -10557.27810362 Ry
     hartree contribution      =    5334.32673659 Ry
     xc contribution           =    -806.43491795 Ry
     ewald contribution        =    3751.08989154 Ry
     electric field correction =       0.00043485 Ry
     smearing contrib. (-TS)   =      -0.05059773 Ry

     convergence has been achieved in   4 iterations

     negative rho (up, down):  5.260E-01 0.000E+00

     Forces acting on atoms (cartesian axes, Ry/au):

     atom    1 type  1   force =     0.00000046    0.00290958   -0.00656122
     atom    2 type  1   force =    -0.00000038   -0.00385966   -0.00322563
     atom    3 type  1   force =     0.00295614    0.00030217   -0.00648972
     atom    4 type  1   force =    -0.00295736    0.00030174   -0.00647320
     atom    5 type  1   force =     0.00425860   -0.00033647    0.00179398
     atom    6 type  1   force =    -0.00425703   -0.00033595    0.00180177
     atom    7 type  1   force =    -0.00000103   -0.00420481    0.01238339
     atom    8 type  1   force =     0.00000199    0.00522879    0.00339169
     atom    9 type  1   force =    -0.00122687   -0.00080597    0.00041341
     atom   10 type  1   force =     0.00123375   -0.00079908    0.00039361
     atom   11 type  1   force =     0.00001859    0.00021080    0.00008017
     atom   12 type  1   force =    -0.00000603    0.00160470    0.00144561
     atom   13 type  2   force =    -0.00002084   -0.00021583    0.00104615

     Total force =     0.003240     Total SCF correction =     0.004079
     SCF correction compared to forces is large: reduce conv_thr to get better values

     bfgs converged in   5 scf cycles and   2 bfgs steps
     (criteria: energy <  1.0E+12 Ry, force <  1.9E-03 Ry/Bohr)

     End of BFGS Geometry Optimization

     Final energy   =   -2278.3465563267 Ry
Begin final coordinates

ATOMIC_POSITIONS (angstrom)
Bi       1.740631498   1.004954064  10.000000000    0   0   0
Bi       5.221894494   1.004954064  10.000000000    0   0   0
Bi       3.481262996   4.019816256  10.000000000    0   0   0
Bi       6.962525992   4.019816256  10.000000000    0   0   0
Bi       6.962525992   2.009908128  12.842439334    0   0   0
Bi       3.481262996   2.009908128  12.842439334    0   0   0
Bi       8.703157491   5.024770320  12.842439334    0   0   0
Bi       5.221894494   5.024770320  12.842439334    0   0   0
Bi       0.141465175  -0.022790048  16.090151517
Bi       3.339437964  -0.022981480  16.090161873
Bi       1.740599824   3.443287956  15.972793534
Bi       5.221631133   2.622569563  15.766655495
O        1.740521463  -0.021949174  17.554106692
End final coordinates



     Writing output data file calc.save

     init_run     :      7.62s CPU      8.31s WALL (       1 calls)
     electrons    :    503.16s CPU    555.66s WALL (       5 calls)
     update_pot   :      9.61s CPU     10.31s WALL (       4 calls)
     forces       :     18.32s CPU     19.89s WALL (       5 calls)

     Called by init_run:
     wfcinit      :      4.59s CPU      4.88s WALL (       1 calls)
     potinit      :      1.14s CPU      1.29s WALL (       1 calls)

     Called by electrons:
     c_bands      :    412.30s CPU    451.27s WALL (      30 calls)
     sum_band     :     65.75s CPU     71.88s WALL (      30 calls)
     v_of_rho     :     18.37s CPU     21.65s WALL (      35 calls)
     newd         :      9.77s CPU     14.80s WALL (      35 calls)
     mix_rho      :      0.48s CPU      0.49s WALL (      30 calls)

     Called by c_bands:
     init_us_2    :      2.73s CPU      2.76s WALL (    1320 calls)
     cegterg      :    402.08s CPU    440.81s WALL (     600 calls)

     Called by sum_band:
     sum_band:bec :      0.17s CPU      0.17s WALL (     600 calls)
     addusdens    :     10.26s CPU     14.42s WALL (      30 calls)

     Called by *egterg:
     h_psi        :    262.81s CPU    275.35s WALL (    3115 calls)
     s_psi        :     16.61s CPU     16.69s WALL (    3115 calls)
     g_psi        :      0.84s CPU      0.87s WALL (    2495 calls)
     cdiaghg      :     55.60s CPU     77.52s WALL (    3015 calls)

     Called by h_psi:
     h_psi:pot    :    260.55s CPU    273.03s WALL (    3115 calls)
     h_psi:calbec :     19.38s CPU     20.14s WALL (    3115 calls)
     vloc_psi     :    224.48s CPU    236.12s WALL (    3115 calls)
     add_vuspsi   :     16.66s CPU     16.75s WALL (    3115 calls)

     General routines
     calbec       :     29.84s CPU     30.92s WALL (    4115 calls)
     fft          :     10.66s CPU     12.92s WALL (    2599 calls)
     ffts         :      0.07s CPU      0.07s WALL (      65 calls)
     fftw         :    231.63s CPU    243.25s WALL (  391748 calls)
     interpolate  :      0.33s CPU      0.37s WALL (      65 calls)
     davcio       :      0.00s CPU      0.02s WALL (      20 calls)

     Parallel routines
     fft_scatter  :     59.18s CPU     66.71s WALL (  394412 calls)

     PWSCF        :  9m 1.03s CPU     9m57.51s WALL


   This run was terminated on:  20: 3:51   7Jan2019            

=------------------------------------------------------------------------------=
   JOB DONE.
=------------------------------------------------------------------------------=
