  python dir          : /u/if/mamunm/src/espresso
  espresso dir        : /nfs/slac/g/suncatfs/sw/espv18/espresso-dynpy-beef/bin
  pseudo dir          : /u/if/mamunm/psp/gbrv1.5pbe
  ase-espresso py git : GITVERSION



     Program PWSCF v.5.1rc2 (svn rev. 11289) starts on  2May2018 at 13:36:56 

     This program is part of the open-source Quantum ESPRESSO suite
     for quantum simulation of materials; please cite
         "P. Giannozzi et al., J. Phys.:Condens. Matter 21 395502 (2009);
          URL http://www.quantum-espresso.org", 
     in publications or presentations arising from this work. More details at
     http://www.quantum-espresso.org/quote

     Parallel version (MPI), running on    32 processors
     K-points division:     npool     =       4
     R & G space division:  proc/nbgrp/npool/nimage =       8
     Reading input from pw.inp
     Message from routine read_cards :
     DEPRECATED: no units specified in CELL_PARAMETERS card

     Current dimensions of program PWSCF are:
     Max number of different atomic species (ntypx) = 10
     Max number of k-points (npk) =  40000
     Max angular momentum in pseudopotentials (lmaxx) =  3
     Presently stress not available with electric field


     **************************************************************************
     Initializing libbeef V0.1.1 with the BEEF-vdW functional.
     Citation: Wellendorff et al., PRB 85, 235149 (2012).
     **************************************************************************


     IMPORTANT: XC functional enforced from input :
     Exchange-correlation      = BEEF-VDW ( 1  4 27 13 2)
     Any further DFT definition will be discarded
     Please, verify this is what you really want


     Subspace diagonalization in iterative solution of the eigenvalue problem:
     a serial algorithm will be used

 
     Parallelization info
     --------------------
     sticks:   dense  smooth     PW     G-vecs:    dense   smooth      PW
     Min         297     119     35                55393    13999    2259
     Max         298     120     36                55416    14060    2272
     Sum        2383     955    283               443253   112179   18115
 


     bravais-lattice index     =            0
     lattice parameter (alat)  =       1.8897  a.u.
     unit-cell volume          =    3724.3394 (a.u.)^3
     number of atoms/cell      =           13
     number of atomic types    =            2
     number of electrons       =       173.00
     number of Kohn-Sham states=           96
     kinetic-energy cutoff     =      36.7493  Ry
     charge density cutoff     =     367.4932  Ry
     convergence threshold     =      1.0E-05
     mixing beta               =       0.3000
     number of iterations used =           10  plain     mixing
     Exchange-correlation      = BEEF-VDW ( 1  4 27 13 2)
     nstep                     =           50


     celldm(1)=   1.889726  celldm(2)=   0.000000  celldm(3)=   0.000000
     celldm(4)=   0.000000  celldm(5)=   0.000000  celldm(6)=   0.000000

     crystal axes: (cart. coord. in units of alat)
               a(1) = (   5.132588   0.000000   0.000000 )  
               a(2) = (   2.566294   4.444952   0.000000 )  
               a(3) = (   0.000000   0.000000  24.190741 )  

     reciprocal axes: (cart. coord. in units 2 pi/alat)
               b(1) = (  0.194833 -0.112487  0.000000 )  
               b(2) = (  0.000000  0.224974  0.000000 )  
               b(3) = (  0.000000  0.000000  0.041338 )  


     PseudoPot. # 1 for Cr read from file:
     /u/if/mamunm/psp/gbrv1.5pbe/Cr.UPF
     MD5 check sum: 0d52af634a40206e4dee301ad30da4bf
     Pseudo is Ultrasoft + core correction, Zval = 14.0
     Generated by new atomic code, or converted to UPF format
     Using radial grid of  857 points,  6 beta functions with: 
                l(1) =   0
                l(2) =   0
                l(3) =   1
                l(4) =   1
                l(5) =   2
                l(6) =   2
     Q(r) pseudized with  8 coefficients,  rinner =    0.950   0.950   0.950
                                                       0.950   0.950

     PseudoPot. # 2 for N  read from file:
     /u/if/mamunm/psp/gbrv1.5pbe/N.UPF
     MD5 check sum: 95339753478d7afb44899504a8723017
     Pseudo is Ultrasoft + core correction, Zval =  5.0
     Generated by new atomic code, or converted to UPF format
     Using radial grid of  729 points,  4 beta functions with: 
                l(1) =   0
                l(2) =   0
                l(3) =   1
                l(4) =   1
     Q(r) pseudized with  8 coefficients,  rinner =    0.900   0.900   0.900


     vdW kernel table read from file vdW_kernel_table
     MD5 check sum: 095c7af220d748ca6e76c0b4c6cfb241

     atomic species   valence    mass     pseudopotential
        Cr1           14.00    51.99610     Cr( 1.00)
        N1             5.00    14.00700     N ( 1.00)

     No symmetry found



   Cartesian axes

     site n.     atom                  positions (alat units)
         1           Cr1 tau(   1) = (   1.2831471   0.7408253  10.0000000  )
         2           Cr1 tau(   2) = (   3.8494412   0.7408253  10.0000000  )
         3           Cr1 tau(   3) = (   2.5662941   2.9633012  10.0000000  )
         4           Cr1 tau(   4) = (   5.1325882   2.9633012  10.0000000  )
         5           Cr1 tau(   5) = (   5.1325882   1.4816506  12.0953704  )
         6           Cr1 tau(   6) = (   2.5662941   1.4816506  12.0953704  )
         7           Cr1 tau(   7) = (   6.4157353   3.7041265  12.0953704  )
         8           Cr1 tau(   8) = (   3.8494412   3.7041265  12.0953704  )
         9           Cr1 tau(   9) = (   0.0000000   0.0000000  14.1907408  )
        10           Cr1 tau(  10) = (   2.5662941   0.0000000  14.1907408  )
        11           Cr1 tau(  11) = (   1.2831471   2.2224759  14.1907408  )
        12           Cr1 tau(  12) = (   3.8494412   2.2224759  14.1907408  )
        13           N1  tau(  13) = (   1.2831471   0.7408253  15.5557408  )

     number of k points=    20  Fermi-Dirac smearing, width (Ry)=  0.0110
                       cart. coord. in units 2pi/alat
        k(    1) = (   0.0000000   0.0000000   0.0000000), wk =   0.0555556
        k(    2) = (   0.0000000   0.0374957   0.0000000), wk =   0.1111111
        k(    3) = (   0.0000000   0.0749914   0.0000000), wk =   0.1111111
        k(    4) = (   0.0000000  -0.1124872   0.0000000), wk =   0.0555556
        k(    5) = (   0.0324722  -0.0187479   0.0000000), wk =   0.1111111
        k(    6) = (   0.0324722   0.0187479   0.0000000), wk =   0.1111111
        k(    7) = (   0.0324722   0.0562436   0.0000000), wk =   0.1111111
        k(    8) = (   0.0324722  -0.1312350   0.0000000), wk =   0.1111111
        k(    9) = (   0.0324722  -0.0937393   0.0000000), wk =   0.1111111
        k(   10) = (   0.0324722  -0.0562436   0.0000000), wk =   0.1111111
        k(   11) = (   0.0649445  -0.0374957   0.0000000), wk =   0.1111111
        k(   12) = (   0.0649445   0.0000000   0.0000000), wk =   0.1111111
        k(   13) = (   0.0649445   0.0374957   0.0000000), wk =   0.1111111
        k(   14) = (   0.0649445  -0.1499829   0.0000000), wk =   0.1111111
        k(   15) = (   0.0649445  -0.1124872   0.0000000), wk =   0.1111111
        k(   16) = (   0.0649445  -0.0749914   0.0000000), wk =   0.1111111
        k(   17) = (  -0.0974167   0.0562436   0.0000000), wk =   0.0555556
        k(   18) = (  -0.0974167   0.0937393   0.0000000), wk =   0.1111111
        k(   19) = (  -0.0974167   0.1312350   0.0000000), wk =   0.1111111
        k(   20) = (  -0.0974167  -0.0562436   0.0000000), wk =   0.0555556

     Dense  grid:   443253 G-vectors     FFT dimensions: (  60,  60, 288)

     Smooth grid:   112179 G-vectors     FFT dimensions: (  40,  40, 180)

     Largest allocated arrays     est. size (Mb)     dimensions
        Kohn-Sham Wavefunctions         2.62 Mb     (    1792,   96)
        NL pseudopotentials             6.12 Mb     (    1792,  224)
        Each V/rho on FFT grid          1.98 Mb     (  129600)
        Each G-vector array             0.42 Mb     (   55406)
        G-vector shells                 0.11 Mb     (   14836)
     Largest temporary arrays     est. size (Mb)     dimensions
        Auxiliary wavefunctions        10.50 Mb     (    1792,  384)
        Each subspace H/S matrix        2.25 Mb     (     384,  384)
        Each <psi_i|beta_j> matrix      0.33 Mb     (     224,   96)
        Arrays for rho mixing          19.78 Mb     (  129600,   10)

     Check: negative/imaginary core charge=   -0.000004    0.000000

     Initial potential from superposition of free atoms
     Check: negative starting charge=   -0.015006

     starting charge  160.99981, renormalised to  173.00000

     negative rho (up, down):  1.612E-02 0.000E+00


     ************************************************************************
     *
     * You are using vdW-DF for exchange-correlation in this calculation.
     * Please cite the following three references that made this development
     * possible:
     *
     *   M. Dion, H. Rydberg, E. Schroder, D. C. Langreth, and
     *   B. I. Lundqvist, Phys. Rev. Lett. 92, 246401 (2004).
     *
     *   T. Thonhauser, V. R. Cooper, S. Li, A. Puzder, P. Hyldgaard, and
     *   D. C. Langreth, Phys. Rev. B 76, 125112 (2007).
     *
     *   G. Roman-Perez and J. M. Soler, Phys. Rev. Lett. 103, 096102 (2009).
     *
     *
     * If you are using vdW-DF2, please also cite:
     *
     *   K. Lee, E. D. Murray, L. Kong, B. I. Lundqvist, and
     *   D. C. Langreth, Phys. Rev. B 82, 081101(R) (2010).
     *
     *
     * If you are calculating the stress with vdW-DF, please also cite:
     *
     *   R. Sabatini, E. Kucukbenli, B. Kolb, T. Thonhauser, and
     *   S. de Gironcoli, J. Phys.: Condens. Matter 24, 424209 (2012).
     *
     ************************************************************************

     Carrying out vdW-DF run using the following parameters:

     Nqs =      20    Nr_points =    1024   r_max =   100.000
     q_mesh =
               0.00001000     0.04494208     0.09755937     0.15916263
               0.23128650     0.31572767     0.41458969     0.53033537
               0.66584808     0.82450364     1.01025438     1.22772762
               1.48234092     1.78043706     2.12944203     2.53805004
               3.01644009     3.57652955     4.23227104     5.00000000

     Gradients computed in reciprocal space

     ************************************************************************


 
     Adding external electric field

     Computed dipole along edir(3) : 
        Dipole               -2.4369 Ry au,         -6.1941 Debye
        Dipole field         -0.0082 Ry au
 
        Potential amp.        0.7330 Ry
        Total length         44.5710 bohr
 
     Starting wfc are  124 randomized atomic wfcs

     total cpu time spent up to now is        8.0 secs

     per-process dynamical memory:    63.8 Mb

     Self-consistent Calculation

     iteration #  1     ecut=    36.75 Ry     beta=0.30
     Davidson diagonalization with overlap
     ethr =  1.00E-02,  avg # of iterations =  8.2

     negative rho (up, down):  1.776E-02 0.000E+00
 
     Adding external electric field

     Computed dipole along edir(3) : 
        Dipole               45.6105 Ry au,        115.9302 Debye
        Dipole field          0.1539 Ry au
 
        Potential amp.      -13.7185 Ry
        Total length         44.5710 bohr
 

     total cpu time spent up to now is       28.3 secs

     total energy              =   -1984.93791042 Ry
     Harris-Foulkes estimate   =   -2139.16677090 Ry
     estimated scf accuracy    <     321.61604748 Ry

     iteration #  2     ecut=    36.75 Ry     beta=0.30
     Davidson diagonalization with overlap
     ethr =  1.00E-02,  avg # of iterations = 17.1

     negative rho (up, down):  1.647E-02 0.000E+00
 
     Adding external electric field

     Computed dipole along edir(3) : 
        Dipole                2.6048 Ry au,          6.6207 Debye
        Dipole field          0.0088 Ry au
 
        Potential amp.       -0.7835 Ry
        Total length         44.5710 bohr
 

     total cpu time spent up to now is       67.6 secs

     total energy              =   -1833.47820648 Ry
     Harris-Foulkes estimate   =   -2744.99626451 Ry
     estimated scf accuracy    <   15496.84543948 Ry

     iteration #  3     ecut=    36.75 Ry     beta=0.30
     Davidson diagonalization with overlap
     ethr =  1.00E-02,  avg # of iterations = 13.4

     negative rho (up, down):  1.536E-02 0.000E+00
 
     Adding external electric field

     Computed dipole along edir(3) : 
        Dipole                5.1391 Ry au,         13.0622 Debye
        Dipole field          0.0173 Ry au
 
        Potential amp.       -1.5457 Ry
        Total length         44.5710 bohr
 

     total cpu time spent up to now is       98.6 secs

     total energy              =   -2111.16206794 Ry
     Harris-Foulkes estimate   =   -2242.18962738 Ry
     estimated scf accuracy    <    1427.32646934 Ry

     iteration #  4     ecut=    36.75 Ry     beta=0.30
     Davidson diagonalization with overlap
     ethr =  1.00E-02,  avg # of iterations =  4.0

     negative rho (up, down):  1.327E-01 0.000E+00
 
     Adding external electric field

     Computed dipole along edir(3) : 
        Dipole                4.5319 Ry au,         11.5188 Debye
        Dipole field          0.0153 Ry au
 
        Potential amp.       -1.3631 Ry
        Total length         44.5710 bohr
 

     total cpu time spent up to now is      114.7 secs

     total energy              =   -2113.91477707 Ry
     Harris-Foulkes estimate   =   -2148.48734517 Ry
     estimated scf accuracy    <     488.84245364 Ry

     iteration #  5     ecut=    36.75 Ry     beta=0.30
     Davidson diagonalization with overlap
     ethr =  1.00E-02,  avg # of iterations =  6.2

     negative rho (up, down):  1.503E-02 0.000E+00
 
     Adding external electric field

     Computed dipole along edir(3) : 
        Dipole                3.5198 Ry au,          8.9465 Debye
        Dipole field          0.0119 Ry au
 
        Potential amp.       -1.0587 Ry
        Total length         44.5710 bohr
 

     total cpu time spent up to now is      134.0 secs

     total energy              =   -2129.59433677 Ry
     Harris-Foulkes estimate   =   -2152.68249497 Ry
     estimated scf accuracy    <     661.81051463 Ry

     iteration #  6     ecut=    36.75 Ry     beta=0.30
     Davidson diagonalization with overlap
     ethr =  1.00E-02,  avg # of iterations =  5.5

     negative rho (up, down):  1.484E-02 0.000E+00
 
     Adding external electric field

     Computed dipole along edir(3) : 
        Dipole                2.8491 Ry au,          7.2418 Debye
        Dipole field          0.0096 Ry au
 
        Potential amp.       -0.8570 Ry
        Total length         44.5710 bohr
 

     total cpu time spent up to now is      148.6 secs

     total energy              =   -2135.59473722 Ry
     Harris-Foulkes estimate   =   -2136.90714936 Ry
     estimated scf accuracy    <      34.48301655 Ry

     iteration #  7     ecut=    36.75 Ry     beta=0.30
     Davidson diagonalization with overlap
     ethr =  1.00E-02,  avg # of iterations =  3.4

     negative rho (up, down):  1.483E-02 0.000E+00
 
     Adding external electric field

     Computed dipole along edir(3) : 
        Dipole                2.2400 Ry au,          5.6936 Debye
        Dipole field          0.0076 Ry au
 
        Potential amp.       -0.6737 Ry
        Total length         44.5710 bohr
 

     total cpu time spent up to now is      162.3 secs

     total energy              =   -2135.35941627 Ry
     Harris-Foulkes estimate   =   -2136.14246820 Ry
     estimated scf accuracy    <      13.08567578 Ry

     iteration #  8     ecut=    36.75 Ry     beta=0.30
     Davidson diagonalization with overlap
     ethr =  7.56E-03,  avg # of iterations =  3.1

     negative rho (up, down):  1.476E-02 0.000E+00
 
     Adding external electric field

     Computed dipole along edir(3) : 
        Dipole                1.0457 Ry au,          2.6580 Debye
        Dipole field          0.0035 Ry au
 
        Potential amp.       -0.3145 Ry
        Total length         44.5710 bohr
 

     total cpu time spent up to now is      175.1 secs

     total energy              =   -2135.12640070 Ry
     Harris-Foulkes estimate   =   -2135.87558814 Ry
     estimated scf accuracy    <       4.54436954 Ry

     iteration #  9     ecut=    36.75 Ry     beta=0.30
     Davidson diagonalization with overlap
     ethr =  2.63E-03,  avg # of iterations =  7.2

     negative rho (up, down):  1.461E-02 0.000E+00
 
     Adding external electric field

     Computed dipole along edir(3) : 
        Dipole                1.6204 Ry au,          4.1186 Debye
        Dipole field          0.0055 Ry au
 
        Potential amp.       -0.4874 Ry
        Total length         44.5710 bohr
 

     total cpu time spent up to now is      193.6 secs

     total energy              =   -2135.63638396 Ry
     Harris-Foulkes estimate   =   -2137.67621669 Ry
     estimated scf accuracy    <     182.80595099 Ry

     iteration # 10     ecut=    36.75 Ry     beta=0.30
     Davidson diagonalization with overlap
     ethr =  2.63E-03,  avg # of iterations =  6.6

     negative rho (up, down):  1.440E-02 0.000E+00
 
     Adding external electric field

     Computed dipole along edir(3) : 
        Dipole                1.6515 Ry au,          4.1977 Debye
        Dipole field          0.0056 Ry au
 
        Potential amp.       -0.4967 Ry
        Total length         44.5710 bohr
 

     total cpu time spent up to now is      208.9 secs

     total energy              =   -2135.25804913 Ry
     Harris-Foulkes estimate   =   -2136.78438372 Ry
     estimated scf accuracy    <      99.22444782 Ry

     iteration # 11     ecut=    36.75 Ry     beta=0.30
     Davidson diagonalization with overlap
     ethr =  2.63E-03,  avg # of iterations =  8.3

     negative rho (up, down):  5.749E-02 0.000E+00
 
     Adding external electric field

     Computed dipole along edir(3) : 
        Dipole                0.8150 Ry au,          2.0714 Debye
        Dipole field          0.0027 Ry au
 
        Potential amp.       -0.2451 Ry
        Total length         44.5710 bohr
 

     total cpu time spent up to now is      224.9 secs

     total energy              =   -2134.21346188 Ry
     Harris-Foulkes estimate   =   -2136.78525726 Ry
     estimated scf accuracy    <      32.84069014 Ry

     iteration # 12     ecut=    36.75 Ry     beta=0.30
     Davidson diagonalization with overlap
     ethr =  2.63E-03,  avg # of iterations =  5.8

     negative rho (up, down):  1.371E-02 0.000E+00
 
     Adding external electric field

     Computed dipole along edir(3) : 
        Dipole               -0.6814 Ry au,         -1.7320 Debye
        Dipole field         -0.0023 Ry au
 
        Potential amp.        0.2050 Ry
        Total length         44.5710 bohr
 

     total cpu time spent up to now is      242.6 secs

     total energy              =   -2132.93957607 Ry
     Harris-Foulkes estimate   =   -2141.98055458 Ry
     estimated scf accuracy    <     452.21047176 Ry

     iteration # 13     ecut=    36.75 Ry     beta=0.30
     Davidson diagonalization with overlap
     ethr =  2.63E-03,  avg # of iterations =  6.8

     negative rho (up, down):  1.381E-02 0.000E+00
 
     Adding external electric field

     Computed dipole along edir(3) : 
        Dipole               -0.3232 Ry au,         -0.8215 Debye
        Dipole field         -0.0011 Ry au
 
        Potential amp.        0.0972 Ry
        Total length         44.5710 bohr
 

     total cpu time spent up to now is      260.3 secs

     total energy              =   -2136.09858106 Ry
     Harris-Foulkes estimate   =   -2135.85982176 Ry
     estimated scf accuracy    <      27.82425440 Ry

     iteration # 14     ecut=    36.75 Ry     beta=0.30
     Davidson diagonalization with overlap
     ethr =  2.63E-03,  avg # of iterations =  1.1

     negative rho (up, down):  1.378E-02 0.000E+00
 
     Adding external electric field

     Computed dipole along edir(3) : 
        Dipole               -0.2027 Ry au,         -0.5151 Debye
        Dipole field         -0.0007 Ry au
 
        Potential amp.        0.0610 Ry
        Total length         44.5710 bohr
 

     total cpu time spent up to now is      272.0 secs

     total energy              =   -2135.32747470 Ry
     Harris-Foulkes estimate   =   -2136.42219782 Ry
     estimated scf accuracy    <     101.23472405 Ry

     iteration # 15     ecut=    36.75 Ry     beta=0.30
     Davidson diagonalization with overlap
     ethr =  2.63E-03,  avg # of iterations =  1.0

     negative rho (up, down):  1.388E-02 0.000E+00
 
     Adding external electric field

     Computed dipole along edir(3) : 
        Dipole                0.2371 Ry au,          0.6028 Debye
        Dipole field          0.0008 Ry au
 
        Potential amp.       -0.0713 Ry
        Total length         44.5710 bohr
 

     total cpu time spent up to now is      284.0 secs

     total energy              =   -2135.24358140 Ry
     Harris-Foulkes estimate   =   -2135.57534980 Ry
     estimated scf accuracy    <      26.83828273 Ry

     iteration # 16     ecut=    36.75 Ry     beta=0.30
     Davidson diagonalization with overlap
     ethr =  2.63E-03,  avg # of iterations =  2.9

     negative rho (up, down):  1.392E-02 0.000E+00
 
     Adding external electric field

     Computed dipole along edir(3) : 
        Dipole                0.2918 Ry au,          0.7417 Debye
        Dipole field          0.0010 Ry au
 
        Potential amp.       -0.0878 Ry
        Total length         44.5710 bohr
 

     total cpu time spent up to now is      296.8 secs

     total energy              =   -2135.15552555 Ry
     Harris-Foulkes estimate   =   -2135.37015235 Ry
     estimated scf accuracy    <      16.30418345 Ry

     iteration # 17     ecut=    36.75 Ry     beta=0.30
     Davidson diagonalization with overlap
     ethr =  2.63E-03,  avg # of iterations =  3.9

     negative rho (up, down):  1.415E-02 0.000E+00
 
     Adding external electric field

     Computed dipole along edir(3) : 
        Dipole                0.2171 Ry au,          0.5518 Debye
        Dipole field          0.0007 Ry au
 
        Potential amp.       -0.0653 Ry
        Total length         44.5710 bohr
 

     total cpu time spent up to now is      310.0 secs

     total energy              =   -2135.34533527 Ry
     Harris-Foulkes estimate   =   -2135.39878379 Ry
     estimated scf accuracy    <       7.97150765 Ry

     iteration # 18     ecut=    36.75 Ry     beta=0.30
     Davidson diagonalization with overlap
     ethr =  2.63E-03,  avg # of iterations =  1.4

     negative rho (up, down):  1.433E-02 0.000E+00
 
     Adding external electric field

     Computed dipole along edir(3) : 
        Dipole               -0.0521 Ry au,         -0.1323 Debye
        Dipole field         -0.0002 Ry au
 
        Potential amp.        0.0157 Ry
        Total length         44.5710 bohr
 

     total cpu time spent up to now is      322.2 secs

     total energy              =   -2135.23851679 Ry
     Harris-Foulkes estimate   =   -2135.41547888 Ry
     estimated scf accuracy    <       6.63727329 Ry

     iteration # 19     ecut=    36.75 Ry     beta=0.30
     Davidson diagonalization with overlap
     ethr =  2.63E-03,  avg # of iterations =  1.0

     negative rho (up, down):  1.406E-02 0.000E+00
 
     Adding external electric field

     Computed dipole along edir(3) : 
        Dipole               -0.2261 Ry au,         -0.5748 Debye
        Dipole field         -0.0008 Ry au
 
        Potential amp.        0.0680 Ry
        Total length         44.5710 bohr
 

     total cpu time spent up to now is      334.0 secs

     total energy              =   -2135.22593712 Ry
     Harris-Foulkes estimate   =   -2135.31459090 Ry
     estimated scf accuracy    <       1.96910066 Ry

     iteration # 20     ecut=    36.75 Ry     beta=0.30
     Davidson diagonalization with overlap
     ethr =  1.14E-03,  avg # of iterations =  5.5

     negative rho (up, down):  1.378E-02 0.000E+00
 
     Adding external electric field

     Computed dipole along edir(3) : 
        Dipole               -0.1842 Ry au,         -0.4683 Debye
        Dipole field         -0.0006 Ry au
 
        Potential amp.        0.0554 Ry
        Total length         44.5710 bohr
 

     total cpu time spent up to now is      348.5 secs

     total energy              =   -2135.16401621 Ry
     Harris-Foulkes estimate   =   -2135.32466224 Ry
     estimated scf accuracy    <       4.56474458 Ry

     iteration # 21     ecut=    36.75 Ry     beta=0.30
     Davidson diagonalization with overlap
     ethr =  1.14E-03,  avg # of iterations =  1.4

     negative rho (up, down):  1.387E-02 0.000E+00
 
     Adding external electric field

     Computed dipole along edir(3) : 
        Dipole               -0.1513 Ry au,         -0.3846 Debye
        Dipole field         -0.0005 Ry au
 
        Potential amp.        0.0455 Ry
        Total length         44.5710 bohr
 

     total cpu time spent up to now is      360.8 secs

     total energy              =   -2135.24383094 Ry
     Harris-Foulkes estimate   =   -2135.26302742 Ry
     estimated scf accuracy    <       0.15432542 Ry

     iteration # 22     ecut=    36.75 Ry     beta=0.30
     Davidson diagonalization with overlap
     ethr =  8.92E-05,  avg # of iterations =  7.1

     negative rho (up, down):  1.392E-02 0.000E+00
 
     Adding external electric field

     Computed dipole along edir(3) : 
        Dipole               -0.2480 Ry au,         -0.6303 Debye
        Dipole field         -0.0008 Ry au
 
        Potential amp.        0.0746 Ry
        Total length         44.5710 bohr
 

     total cpu time spent up to now is      378.9 secs

     total energy              =   -2135.27751963 Ry
     Harris-Foulkes estimate   =   -2135.29028935 Ry
     estimated scf accuracy    <       0.84139419 Ry

     iteration # 23     ecut=    36.75 Ry     beta=0.30
     Davidson diagonalization with overlap
     ethr =  8.92E-05,  avg # of iterations =  1.5

     negative rho (up, down):  1.381E-02 0.000E+00
 
     Adding external electric field

     Computed dipole along edir(3) : 
        Dipole               -0.2344 Ry au,         -0.5959 Debye
        Dipole field         -0.0008 Ry au
 
        Potential amp.        0.0705 Ry
        Total length         44.5710 bohr
 

     total cpu time spent up to now is      390.9 secs

     total energy              =   -2135.26496283 Ry
     Harris-Foulkes estimate   =   -2135.28556272 Ry
     estimated scf accuracy    <       0.98187702 Ry

     iteration # 24     ecut=    36.75 Ry     beta=0.30
     Davidson diagonalization with overlap
     ethr =  8.92E-05,  avg # of iterations =  4.1

     negative rho (up, down):  1.385E-02 0.000E+00
 
     Adding external electric field

     Computed dipole along edir(3) : 
        Dipole               -0.2041 Ry au,         -0.5188 Debye
        Dipole field         -0.0007 Ry au
 
        Potential amp.        0.0614 Ry
        Total length         44.5710 bohr
 

     total cpu time spent up to now is      404.5 secs

     total energy              =   -2135.27363702 Ry
     Harris-Foulkes estimate   =   -2135.27770966 Ry
     estimated scf accuracy    <       0.06077560 Ry

     iteration # 25     ecut=    36.75 Ry     beta=0.30
     Davidson diagonalization with overlap
     ethr =  3.51E-05,  avg # of iterations =  5.0

     negative rho (up, down):  1.406E-02 0.000E+00
 
     Adding external electric field

     Computed dipole along edir(3) : 
        Dipole               -0.1664 Ry au,         -0.4229 Debye
        Dipole field         -0.0006 Ry au
 
        Potential amp.        0.0500 Ry
        Total length         44.5710 bohr
 

     total cpu time spent up to now is      418.1 secs

     total energy              =   -2135.27384422 Ry
     Harris-Foulkes estimate   =   -2135.27689778 Ry
     estimated scf accuracy    <       0.02458026 Ry

     iteration # 26     ecut=    36.75 Ry     beta=0.30
     Davidson diagonalization with overlap
     ethr =  1.42E-05,  avg # of iterations =  6.0

     negative rho (up, down):  1.407E-02 0.000E+00
 
     Adding external electric field

     Computed dipole along edir(3) : 
        Dipole               -0.2120 Ry au,         -0.5389 Debye
        Dipole field         -0.0007 Ry au
 
        Potential amp.        0.0638 Ry
        Total length         44.5710 bohr
 

     total cpu time spent up to now is      434.8 secs

     total energy              =   -2135.27412931 Ry
     Harris-Foulkes estimate   =   -2135.27985591 Ry
     estimated scf accuracy    <       0.12587832 Ry

     iteration # 27     ecut=    36.75 Ry     beta=0.30
     Davidson diagonalization with overlap
     ethr =  1.42E-05,  avg # of iterations =  2.0

     negative rho (up, down):  1.389E-02 0.000E+00
 
     Adding external electric field

     Computed dipole along edir(3) : 
        Dipole               -0.2294 Ry au,         -0.5832 Debye
        Dipole field         -0.0008 Ry au
 
        Potential amp.        0.0690 Ry
        Total length         44.5710 bohr
 

     total cpu time spent up to now is      447.9 secs

     total energy              =   -2135.27437880 Ry
     Harris-Foulkes estimate   =   -2135.27615823 Ry
     estimated scf accuracy    <       0.04264100 Ry

     iteration # 28     ecut=    36.75 Ry     beta=0.30
     Davidson diagonalization with overlap
     ethr =  1.42E-05,  avg # of iterations =  5.2

     negative rho (up, down):  1.409E-02 0.000E+00
 
     Adding external electric field

     Computed dipole along edir(3) : 
        Dipole               -0.2269 Ry au,         -0.5768 Debye
        Dipole field         -0.0008 Ry au
 
        Potential amp.        0.0683 Ry
        Total length         44.5710 bohr
 

     total cpu time spent up to now is      461.9 secs

     total energy              =   -2135.27635080 Ry
     Harris-Foulkes estimate   =   -2135.27685623 Ry
     estimated scf accuracy    <       0.00878527 Ry

     iteration # 29     ecut=    36.75 Ry     beta=0.30
     Davidson diagonalization with overlap
     ethr =  5.08E-06,  avg # of iterations =  5.4

     negative rho (up, down):  1.408E-02 0.000E+00
 
     Adding external electric field

     Computed dipole along edir(3) : 
        Dipole               -0.2042 Ry au,         -0.5190 Debye
        Dipole field         -0.0007 Ry au
 
        Potential amp.        0.0614 Ry
        Total length         44.5710 bohr
 

     total cpu time spent up to now is      476.6 secs

     total energy              =   -2135.27620412 Ry
     Harris-Foulkes estimate   =   -2135.27742506 Ry
     estimated scf accuracy    <       0.02032284 Ry

     iteration # 30     ecut=    36.75 Ry     beta=0.30
     Davidson diagonalization with overlap
     ethr =  5.08E-06,  avg # of iterations =  4.8

     negative rho (up, down):  1.438E-02 0.000E+00
 
     Adding external electric field

     Computed dipole along edir(3) : 
        Dipole               -0.2205 Ry au,         -0.5603 Debye
        Dipole field         -0.0007 Ry au
 
        Potential amp.        0.0663 Ry
        Total length         44.5710 bohr
 

     total cpu time spent up to now is      490.8 secs

     total energy              =   -2135.27630157 Ry
     Harris-Foulkes estimate   =   -2135.27725723 Ry
     estimated scf accuracy    <       0.03022311 Ry

     iteration # 31     ecut=    36.75 Ry     beta=0.30
     Davidson diagonalization with overlap
     ethr =  5.08E-06,  avg # of iterations =  1.0

     negative rho (up, down):  1.439E-02 0.000E+00
 
     Adding external electric field

     Computed dipole along edir(3) : 
        Dipole               -0.2193 Ry au,         -0.5574 Debye
        Dipole field         -0.0007 Ry au
 
        Potential amp.        0.0660 Ry
        Total length         44.5710 bohr
 

     total cpu time spent up to now is      502.7 secs

     total energy              =   -2135.27657067 Ry
     Harris-Foulkes estimate   =   -2135.27680467 Ry
     estimated scf accuracy    <       0.00326817 Ry

     iteration # 32     ecut=    36.75 Ry     beta=0.30
     Davidson diagonalization with overlap
     ethr =  1.89E-06,  avg # of iterations =  4.9

     negative rho (up, down):  1.468E-02 0.000E+00
 
     Adding external electric field

     Computed dipole along edir(3) : 
        Dipole               -0.2221 Ry au,         -0.5645 Debye
        Dipole field         -0.0007 Ry au
 
        Potential amp.        0.0668 Ry
        Total length         44.5710 bohr
 

     total cpu time spent up to now is      517.8 secs

     total energy              =   -2135.27673573 Ry
     Harris-Foulkes estimate   =   -2135.27706405 Ry
     estimated scf accuracy    <       0.00719641 Ry

     iteration # 33     ecut=    36.75 Ry     beta=0.30
     Davidson diagonalization with overlap
     ethr =  1.89E-06,  avg # of iterations =  1.0

     negative rho (up, down):  1.463E-02 0.000E+00
 
     Adding external electric field

     Computed dipole along edir(3) : 
        Dipole               -0.2205 Ry au,         -0.5605 Debye
        Dipole field         -0.0007 Ry au
 
        Potential amp.        0.0663 Ry
        Total length         44.5710 bohr
 

     total cpu time spent up to now is      529.7 secs

     total energy              =   -2135.27678182 Ry
     Harris-Foulkes estimate   =   -2135.27685949 Ry
     estimated scf accuracy    <       0.00123240 Ry

     iteration # 34     ecut=    36.75 Ry     beta=0.30
     Davidson diagonalization with overlap
     ethr =  7.12E-07,  avg # of iterations =  4.5

     negative rho (up, down):  1.505E-02 0.000E+00
 
     Adding external electric field

     Computed dipole along edir(3) : 
        Dipole               -0.2184 Ry au,         -0.5551 Debye
        Dipole field         -0.0007 Ry au
 
        Potential amp.        0.0657 Ry
        Total length         44.5710 bohr
 

     total cpu time spent up to now is      544.4 secs

     total energy              =   -2135.27689155 Ry
     Harris-Foulkes estimate   =   -2135.27694602 Ry
     estimated scf accuracy    <       0.00117222 Ry

     iteration # 35     ecut=    36.75 Ry     beta=0.30
     Davidson diagonalization with overlap
     ethr =  6.78E-07,  avg # of iterations =  1.0

     negative rho (up, down):  1.491E-02 0.000E+00
 
     Adding external electric field

     Computed dipole along edir(3) : 
        Dipole               -0.2176 Ry au,         -0.5532 Debye
        Dipole field         -0.0007 Ry au
 
        Potential amp.        0.0655 Ry
        Total length         44.5710 bohr
 

     total cpu time spent up to now is      556.3 secs

     total energy              =   -2135.27689328 Ry
     Harris-Foulkes estimate   =   -2135.27692583 Ry
     estimated scf accuracy    <       0.00072666 Ry

     iteration # 36     ecut=    36.75 Ry     beta=0.30
     Davidson diagonalization with overlap
     ethr =  4.20E-07,  avg # of iterations =  4.2

     negative rho (up, down):  1.507E-02 0.000E+00
 
     Adding external electric field

     Computed dipole along edir(3) : 
        Dipole               -0.2186 Ry au,         -0.5556 Debye
        Dipole field         -0.0007 Ry au
 
        Potential amp.        0.0658 Ry
        Total length         44.5710 bohr
 

     total cpu time spent up to now is      570.2 secs

     total energy              =   -2135.27688657 Ry
     Harris-Foulkes estimate   =   -2135.27695175 Ry
     estimated scf accuracy    <       0.00125160 Ry

     iteration # 37     ecut=    36.75 Ry     beta=0.30
     Davidson diagonalization with overlap
     ethr =  4.20E-07,  avg # of iterations =  1.0

     negative rho (up, down):  1.497E-02 0.000E+00
 
     Adding external electric field

     Computed dipole along edir(3) : 
        Dipole               -0.2191 Ry au,         -0.5570 Debye
        Dipole field         -0.0007 Ry au
 
        Potential amp.        0.0659 Ry
        Total length         44.5710 bohr
 

     total cpu time spent up to now is      582.1 secs

     total energy              =   -2135.27689046 Ry
     Harris-Foulkes estimate   =   -2135.27691376 Ry
     estimated scf accuracy    <       0.00045094 Ry

     iteration # 38     ecut=    36.75 Ry     beta=0.30
     Davidson diagonalization with overlap
     ethr =  2.61E-07,  avg # of iterations =  4.0

     negative rho (up, down):  1.492E-02 0.000E+00
 
     Adding external electric field

     Computed dipole along edir(3) : 
        Dipole               -0.2189 Ry au,         -0.5565 Debye
        Dipole field         -0.0007 Ry au
 
        Potential amp.        0.0658 Ry
        Total length         44.5710 bohr
 

     total cpu time spent up to now is      595.3 secs

     total energy              =   -2135.27690814 Ry
     Harris-Foulkes estimate   =   -2135.27691675 Ry
     estimated scf accuracy    <       0.00011776 Ry

     iteration # 39     ecut=    36.75 Ry     beta=0.30
     Davidson diagonalization with overlap
     ethr =  6.81E-08,  avg # of iterations =  4.7

     negative rho (up, down):  1.489E-02 0.000E+00
 
     Adding external electric field

     Computed dipole along edir(3) : 
        Dipole               -0.2199 Ry au,         -0.5589 Debye
        Dipole field         -0.0007 Ry au
 
        Potential amp.        0.0661 Ry
        Total length         44.5710 bohr
 

     total cpu time spent up to now is      609.1 secs

     total energy              =   -2135.27691039 Ry
     Harris-Foulkes estimate   =   -2135.27691624 Ry
     estimated scf accuracy    <       0.00017130 Ry

     iteration # 40     ecut=    36.75 Ry     beta=0.30
     Davidson diagonalization with overlap
     ethr =  6.81E-08,  avg # of iterations =  3.9

     negative rho (up, down):  1.489E-02 0.000E+00
 
     Adding external electric field

     Computed dipole along edir(3) : 
        Dipole               -0.2193 Ry au,         -0.5574 Debye
        Dipole field         -0.0007 Ry au
 
        Potential amp.        0.0660 Ry
        Total length         44.5710 bohr
 

     total cpu time spent up to now is      622.6 secs

     total energy              =   -2135.27691124 Ry
     Harris-Foulkes estimate   =   -2135.27692082 Ry
     estimated scf accuracy    <       0.00011186 Ry

     iteration # 41     ecut=    36.75 Ry     beta=0.30
     Davidson diagonalization with overlap
     ethr =  6.47E-08,  avg # of iterations =  1.4

     negative rho (up, down):  1.490E-02 0.000E+00
 
     Adding external electric field

     Computed dipole along edir(3) : 
        Dipole               -0.2209 Ry au,         -0.5614 Debye
        Dipole field         -0.0007 Ry au
 
        Potential amp.        0.0664 Ry
        Total length         44.5710 bohr
 

     total cpu time spent up to now is      634.8 secs

     total energy              =   -2135.27691188 Ry
     Harris-Foulkes estimate   =   -2135.27691458 Ry
     estimated scf accuracy    <       0.00010756 Ry

     iteration # 42     ecut=    36.75 Ry     beta=0.30
     Davidson diagonalization with overlap
     ethr =  6.22E-08,  avg # of iterations =  3.4

     negative rho (up, down):  1.489E-02 0.000E+00
 
     Adding external electric field

     Computed dipole along edir(3) : 
        Dipole               -0.2201 Ry au,         -0.5595 Debye
        Dipole field         -0.0007 Ry au
 
        Potential amp.        0.0662 Ry
        Total length         44.5710 bohr
 

     total cpu time spent up to now is      648.6 secs

     total energy              =   -2135.27691120 Ry
     Harris-Foulkes estimate   =   -2135.27692111 Ry
     estimated scf accuracy    <       0.00024555 Ry

     iteration # 43     ecut=    36.75 Ry     beta=0.30
     Davidson diagonalization with overlap
     ethr =  6.22E-08,  avg # of iterations =  2.9

     negative rho (up, down):  1.490E-02 0.000E+00
 
     Adding external electric field

     Computed dipole along edir(3) : 
        Dipole               -0.2198 Ry au,         -0.5588 Debye
        Dipole field         -0.0007 Ry au
 
        Potential amp.        0.0661 Ry
        Total length         44.5710 bohr
 

     total cpu time spent up to now is      661.3 secs

     total energy              =   -2135.27691282 Ry
     Harris-Foulkes estimate   =   -2135.27691847 Ry
     estimated scf accuracy    <       0.00007637 Ry

     iteration # 44     ecut=    36.75 Ry     beta=0.30
     Davidson diagonalization with overlap
     ethr =  4.41E-08,  avg # of iterations =  2.6

     negative rho (up, down):  1.490E-02 0.000E+00
 
     Adding external electric field

     Computed dipole along edir(3) : 
        Dipole               -0.2191 Ry au,         -0.5570 Debye
        Dipole field         -0.0007 Ry au
 
        Potential amp.        0.0659 Ry
        Total length         44.5710 bohr
 

     total cpu time spent up to now is      674.6 secs

     total energy              =   -2135.27691409 Ry
     Harris-Foulkes estimate   =   -2135.27691714 Ry
     estimated scf accuracy    <       0.00001730 Ry

     iteration # 45     ecut=    36.75 Ry     beta=0.30
     Davidson diagonalization with overlap
     ethr =  1.00E-08,  avg # of iterations =  5.4

     negative rho (up, down):  1.490E-02 0.000E+00
 
     Adding external electric field

     Computed dipole along edir(3) : 
        Dipole               -0.2197 Ry au,         -0.5584 Debye
        Dipole field         -0.0007 Ry au
 
        Potential amp.        0.0661 Ry
        Total length         44.5710 bohr
 

     total cpu time spent up to now is      690.0 secs

     total energy              =   -2135.27691439 Ry
     Harris-Foulkes estimate   =   -2135.27691704 Ry
     estimated scf accuracy    <       0.00009836 Ry

     iteration # 46     ecut=    36.75 Ry     beta=0.30
     Davidson diagonalization with overlap
     ethr =  1.00E-08,  avg # of iterations =  4.0

     negative rho (up, down):  1.486E-02 0.000E+00

     negative rho (up, down):  1.486E-02 0.000E+00

     negative rho (up, down):  1.486E-02 0.000E+00

     negative rho (up, down):  1.486E-02 0.000E+00

     negative rho (up, down):  1.486E-02 0.000E+00

     negative rho (up, down):  1.486E-02 0.000E+00

     negative rho (up, down):  1.486E-02 0.000E+00

     negative rho (up, down):  1.486E-02 0.000E+00

     negative rho (up, down):  1.486E-02 0.000E+00

     negative rho (up, down):  1.486E-02 0.000E+00

     negative rho (up, down):  1.486E-02 0.000E+00

     negative rho (up, down):  1.486E-02 0.000E+00

     negative rho (up, down):  1.486E-02 0.000E+00

     negative rho (up, down):  1.486E-02 0.000E+00

     negative rho (up, down):  1.486E-02 0.000E+00

     negative rho (up, down):  1.486E-02 0.000E+00

     negative rho (up, down):  1.486E-02 0.000E+00

     negative rho (up, down):  1.486E-02 0.000E+00

     negative rho (up, down):  1.486E-02 0.000E+00

     negative rho (up, down):  1.486E-02 0.000E+00

     negative rho (up, down):  1.486E-02 0.000E+00

     negative rho (up, down):  1.486E-02 0.000E+00

     negative rho (up, down):  1.486E-02 0.000E+00

     negative rho (up, down):  1.486E-02 0.000E+00

     negative rho (up, down):  1.486E-02 0.000E+00

     negative rho (up, down):  1.486E-02 0.000E+00

     negative rho (up, down):  1.486E-02 0.000E+00

     negative rho (up, down):  1.486E-02 0.000E+00

     negative rho (up, down):  1.486E-02 0.000E+00

     negative rho (up, down):  1.486E-02 0.000E+00

     negative rho (up, down):  1.486E-02 0.000E+00

     negative rho (up, down):  1.486E-02 0.000E+00

     negative rho (up, down):  1.486E-02 0.000E+00

     negative rho (up, down):  1.486E-02 0.000E+00

     negative rho (up, down):  1.486E-02 0.000E+00
 
     Adding external electric field

     Computed dipole along edir(3) : 
        Dipole               -0.2284 Ry au,         -0.5805 Debye
        Dipole field         -0.0008 Ry au
 
        Potential amp.        0.0687 Ry
        Total length         44.5710 bohr
 

     total cpu time spent up to now is      736.4 secs

     End of self-consistent calculation

          k = 0.0000 0.0000 0.0000 ( 14081 PWs)   bands (ev):

   -70.9265 -70.8360 -70.8036 -70.8023 -70.7702 -70.7345 -70.7306 -70.7298
   -70.7132 -70.6178 -70.6176 -70.6113 -42.5262 -42.4892 -42.4889 -42.4732
   -42.4318 -42.4315 -42.4274 -42.2946 -42.2869 -42.2869 -42.1621 -42.1343
   -42.1333 -42.1012 -42.0150 -42.0139 -42.0136 -41.9949 -41.9943 -41.9839
   -41.9137 -41.9131 -41.8992 -41.8953 -41.8900 -41.8895 -41.8470 -41.8261
   -41.8260 -41.7721 -41.7721 -41.7642 -41.7640 -41.7601 -41.6282 -41.6281
   -12.5168  -5.7707  -3.9823  -3.1020  -3.0294  -3.0292  -2.8450  -2.7377
    -2.6558  -2.6557  -2.2973  -2.1973  -2.1973  -2.0710  -2.0709  -1.9892
    -1.5192  -1.5192  -1.2716  -0.7337  -0.7336  -0.2067  -0.0459  -0.0349
    -0.0349   0.0451   0.3663   0.4143   0.4143   0.5906   0.5907   0.6683
     0.6686   0.6825   0.7167   0.7497   0.7498   0.8779   0.8780   0.9482
     1.5746   1.5748   1.7423   1.9451   1.9453   2.0375   2.0376   2.0639

          k = 0.0000 0.0375 0.0000 ( 14040 PWs)   bands (ev):

   -70.9181 -70.8292 -70.8099 -70.8025 -70.7728 -70.7390 -70.7326 -70.7298
   -70.7068 -70.6231 -70.6176 -70.6125 -42.5007 -42.4664 -42.4578 -42.4454
   -42.4125 -42.4110 -42.4020 -42.2735 -42.2666 -42.2579 -42.1618 -42.1452
   -42.1376 -42.1126 -42.0289 -42.0253 -42.0131 -41.9966 -41.9902 -41.9798
   -41.9427 -41.9378 -41.8954 -41.8917 -41.8829 -41.8800 -41.8736 -41.8487
   -41.8373 -41.8026 -41.7855 -41.7829 -41.7805 -41.7537 -41.6674 -41.6372
   -12.5055  -5.5436  -3.7911  -3.0077  -2.9123  -2.9067  -2.7590  -2.6894
    -2.5696  -2.5416  -2.2026  -2.1007  -2.0802  -1.9597  -1.9393  -1.8401
    -1.4672  -1.4202  -1.2224  -0.8019  -0.7684  -0.2905  -0.0618  -0.0111
     0.0583   0.0595   0.2207   0.2501   0.3933   0.4018   0.5008   0.5623
     0.6245   0.6884   0.6991   0.7159   0.7230   0.8222   0.8750   0.9383
     1.3089   1.3248   1.5542   1.7068   1.7682   1.8273   1.8494   1.9364

          k = 0.0000 0.0750 0.0000 ( 14026 PWs)   bands (ev):

   -70.8952 -70.8309 -70.8105 -70.8026 -70.7769 -70.7556 -70.7332 -70.7298
   -70.6890 -70.6404 -70.6176 -70.6131 -42.4437 -42.4096 -42.4000 -42.3739
   -42.3631 -42.3525 -42.3356 -42.2370 -42.2210 -42.2072 -42.1642 -42.1547
   -42.1545 -42.1097 -42.0652 -42.0485 -42.0138 -41.9998 -41.9993 -41.9811
   -41.9783 -41.9763 -41.9511 -41.9232 -41.8952 -41.8907 -41.8763 -41.8624
   -41.8602 -41.8487 -41.8300 -41.8261 -41.8039 -41.7635 -41.7294 -41.6619
   -12.4829  -4.9088  -3.3728  -3.1892  -2.7335  -2.5994  -2.5099  -2.3445
    -2.2671  -2.2170  -2.0179  -1.8849  -1.8379  -1.6507  -1.5935  -1.4917
    -1.2784  -1.1284  -1.1196  -0.9004  -0.7679  -0.6031  -0.4082  -0.2365
    -0.1812  -0.1136  -0.0508   0.0519   0.2530   0.2994   0.3281   0.3585
     0.3953   0.4846   0.5685   0.7185   0.7938   0.7971   0.8947   0.9321
     0.9535   0.9817   1.1307   1.1466   1.3348   1.3423   1.6177   1.6196

          k = 0.0000-0.1125 0.0000 ( 14010 PWs)   bands (ev):

   -70.8692 -70.8563 -70.8026 -70.7886 -70.7861 -70.7691 -70.7333 -70.7298
   -70.6665 -70.6628 -70.6176 -70.6132 -42.4056 -42.3683 -42.3598 -42.3459
   -42.3360 -42.3307 -42.2549 -42.2163 -42.2120 -42.2056 -42.1678 -42.1569
   -42.1286 -42.1066 -42.0950 -42.0593 -42.0292 -42.0192 -42.0188 -42.0141
   -41.9757 -41.9709 -41.9424 -41.9380 -41.9183 -41.9164 -41.9163 -41.9038
   -41.8503 -41.8439 -41.8389 -41.8321 -41.8310 -41.8247 -41.6990 -41.6925
   -12.4717  -4.0923  -3.9706  -2.9853  -2.6618  -2.3823  -2.2629  -2.0943
    -2.0061  -1.9669  -1.9627  -1.8351  -1.7031  -1.3768  -1.3013  -1.2342
    -1.1322  -1.1184  -1.0562  -0.9385  -0.6229  -0.6119  -0.5660  -0.5474
    -0.4401  -0.4334  -0.1773  -0.1154   0.0767   0.0900   0.1645   0.1767
     0.2322   0.3088   0.3578   0.5356   0.5553   0.5628   0.6631   0.8370
     0.9935   1.0043   1.1510   1.4212   1.4718   1.4973   1.5095   1.5192

          k = 0.0325-0.0187 0.0000 ( 14040 PWs)   bands (ev):

   -70.9181 -70.8292 -70.8097 -70.8027 -70.7728 -70.7392 -70.7319 -70.7304
   -70.7068 -70.6230 -70.6178 -70.6124 -42.5007 -42.4662 -42.4580 -42.4454
   -42.4125 -42.4109 -42.4021 -42.2735 -42.2667 -42.2579 -42.1618 -42.1451
   -42.1377 -42.1126 -42.0291 -42.0250 -42.0131 -41.9965 -41.9904 -41.9798
   -41.9424 -41.9381 -41.8955 -41.8916 -41.8827 -41.8802 -41.8736 -41.8487
   -41.8372 -41.8026 -41.7853 -41.7830 -41.7805 -41.7537 -41.6674 -41.6372
   -12.5055  -5.5436  -3.7911  -3.0077  -2.9123  -2.9066  -2.7590  -2.6894
    -2.5696  -2.5415  -2.2026  -2.1007  -2.0801  -1.9598  -1.9392  -1.8401
    -1.4672  -1.4202  -1.2224  -0.8019  -0.7685  -0.2905  -0.0618  -0.0111
     0.0583   0.0594   0.2207   0.2501   0.3933   0.4019   0.5009   0.5623
     0.6245   0.6883   0.6991   0.7159   0.7230   0.8222   0.8751   0.9383
     1.3088   1.3249   1.5542   1.7068   1.7683   1.8274   1.8493   1.9363

          k = 0.0325 0.0187 0.0000 ( 14040 PWs)   bands (ev):

   -70.9181 -70.8292 -70.8088 -70.8036 -70.7726 -70.7392 -70.7318 -70.7304
   -70.7068 -70.6231 -70.6177 -70.6125 -42.5008 -42.4661 -42.4579 -42.4455
   -42.4126 -42.4106 -42.4022 -42.2735 -42.2667 -42.2579 -42.1618 -42.1446
   -42.1383 -42.1125 -42.0293 -42.0248 -42.0130 -41.9963 -41.9906 -41.9799
   -41.9422 -41.9382 -41.8956 -41.8916 -41.8828 -41.8802 -41.8736 -41.8487
   -41.8371 -41.8026 -41.7854 -41.7829 -41.7805 -41.7537 -41.6674 -41.6372
   -12.5055  -5.5436  -3.7911  -3.0078  -2.9124  -2.9065  -2.7591  -2.6894
    -2.5696  -2.5415  -2.2026  -2.1007  -2.0801  -1.9598  -1.9392  -1.8401
    -1.4672  -1.4202  -1.2225  -0.8018  -0.7685  -0.2905  -0.0618  -0.0111
     0.0584   0.0594   0.2207   0.2502   0.3931   0.4020   0.5009   0.5623
     0.6245   0.6882   0.6991   0.7160   0.7230   0.8222   0.8751   0.9383
     1.3088   1.3249   1.5542   1.7066   1.7683   1.8274   1.8494   1.9363

          k = 0.0325 0.0562 0.0000 ( 14027 PWs)   bands (ev):

   -70.9024 -70.8200 -70.8169 -70.8074 -70.7743 -70.7465 -70.7411 -70.7258
   -70.6947 -70.6300 -70.6261 -70.6093 -42.4605 -42.4267 -42.4001 -42.3952
   -42.3844 -42.3687 -42.3577 -42.2461 -42.2305 -42.2195 -42.1623 -42.1528
   -42.1464 -42.1267 -42.0740 -42.0235 -42.0085 -42.0046 -41.9885 -41.9820
   -41.9801 -41.9434 -41.9238 -41.9095 -41.9043 -41.8988 -41.8689 -41.8649
   -41.8553 -41.8418 -41.8365 -41.8000 -41.7662 -41.7634 -41.7325 -41.6567
   -12.4886  -5.1105  -3.4568  -2.9511  -2.8520  -2.6814  -2.6107  -2.5932
    -2.4029  -2.2192  -2.0654  -1.9410  -1.8593  -1.7462  -1.7038  -1.5838
    -1.3518  -1.2123  -1.1546  -0.8894  -0.8073  -0.4791  -0.2995  -0.0997
    -0.0721  -0.0351   0.0222   0.1163   0.2067   0.2831   0.3281   0.4344
     0.4942   0.5579   0.6362   0.6675   0.7719   0.8535   0.9051   0.9594
     1.0586   1.1121   1.2166   1.2706   1.3480   1.4164   1.6461   1.7051

          k = 0.0325-0.1312 0.0000 ( 13990 PWs)   bands (ev):

   -70.8757 -70.8425 -70.8149 -70.7941 -70.7760 -70.7630 -70.7461 -70.7227
   -70.6737 -70.6492 -70.6310 -70.6062 -42.4038 -42.3703 -42.3468 -42.3406
   -42.3270 -42.3188 -42.2863 -42.2379 -42.2123 -42.1901 -42.1800 -42.1707
   -42.1354 -42.1117 -42.0765 -42.0575 -42.0523 -42.0111 -41.9962 -41.9926
   -41.9879 -41.9805 -41.9430 -41.9396 -41.9368 -41.9113 -41.8928 -41.8790
   -41.8740 -41.8666 -41.8418 -41.8298 -41.8096 -41.7917 -41.7313 -41.6915
   -12.4717  -4.3397  -3.4713  -2.9717  -2.7441  -2.5998  -2.3802  -2.2022
    -2.0310  -1.9412  -1.8222  -1.7358  -1.5865  -1.4168  -1.3207  -1.2948
    -1.2320  -1.0987  -0.9741  -0.7915  -0.7827  -0.7014  -0.5732  -0.5314
    -0.4494  -0.3225  -0.2690  -0.1863   0.0018   0.0664   0.1345   0.1528
     0.2273   0.3006   0.3480   0.5171   0.5368   0.6003   0.7597   0.8932
     0.9323   1.0504   1.1609   1.3202   1.4147   1.4940   1.5624   1.6102

          k = 0.0325-0.0937 0.0000 ( 13990 PWs)   bands (ev):

   -70.8757 -70.8428 -70.8145 -70.7943 -70.7758 -70.7631 -70.7461 -70.7227
   -70.6737 -70.6492 -70.6310 -70.6062 -42.4036 -42.3705 -42.3469 -42.3406
   -42.3268 -42.3189 -42.2863 -42.2380 -42.2122 -42.1901 -42.1799 -42.1706
   -42.1357 -42.1117 -42.0760 -42.0575 -42.0523 -42.0110 -41.9963 -41.9925
   -41.9878 -41.9806 -41.9431 -41.9395 -41.9368 -41.9113 -41.8929 -41.8790
   -41.8740 -41.8666 -41.8418 -41.8298 -41.8096 -41.7918 -41.7313 -41.6915
   -12.4717  -4.3397  -3.4712  -2.9717  -2.7441  -2.5998  -2.3801  -2.2022
    -2.0310  -1.9413  -1.8222  -1.7358  -1.5865  -1.4168  -1.3206  -1.2949
    -1.2320  -1.0987  -0.9741  -0.7915  -0.7827  -0.7014  -0.5732  -0.5314
    -0.4494  -0.3224  -0.2690  -0.1863   0.0017   0.0665   0.1345   0.1528
     0.2273   0.3007   0.3480   0.5171   0.5368   0.6004   0.7597   0.8932
     0.9323   1.0504   1.1609   1.3203   1.4148   1.4939   1.5625   1.6102

          k = 0.0325-0.0562 0.0000 ( 14027 PWs)   bands (ev):

   -70.9024 -70.8207 -70.8167 -70.8068 -70.7744 -70.7465 -70.7411 -70.7258
   -70.6947 -70.6300 -70.6262 -70.6093 -42.4603 -42.4269 -42.4001 -42.3952
   -42.3843 -42.3689 -42.3576 -42.2461 -42.2307 -42.2194 -42.1624 -42.1526
   -42.1466 -42.1266 -42.0741 -42.0235 -42.0085 -42.0046 -41.9886 -41.9817
   -41.9801 -41.9433 -41.9237 -41.9096 -41.9043 -41.8988 -41.8689 -41.8648
   -41.8554 -41.8417 -41.8365 -41.8001 -41.7663 -41.7633 -41.7325 -41.6568
   -12.4886  -5.1105  -3.4568  -2.9511  -2.8520  -2.6814  -2.6107  -2.5932
    -2.4029  -2.2192  -2.0654  -1.9410  -1.8594  -1.7461  -1.7038  -1.5838
    -1.3518  -1.2123  -1.1546  -0.8895  -0.8073  -0.4791  -0.2995  -0.0997
    -0.0721  -0.0351   0.0223   0.1163   0.2067   0.2831   0.3281   0.4345
     0.4942   0.5580   0.6362   0.6675   0.7719   0.8535   0.9050   0.9594
     1.0585   1.1122   1.2165   1.2706   1.3479   1.4167   1.6462   1.7052

          k = 0.0649-0.0375 0.0000 ( 14026 PWs)   bands (ev):

   -70.8952 -70.8308 -70.8104 -70.8028 -70.7768 -70.7557 -70.7325 -70.7304
   -70.6890 -70.6403 -70.6177 -70.6130 -42.4438 -42.4093 -42.4002 -42.3739
   -42.3630 -42.3525 -42.3356 -42.2369 -42.2210 -42.2072 -42.1642 -42.1547
   -42.1545 -42.1097 -42.0654 -42.0483 -42.0137 -41.9997 -41.9994 -41.9808
   -41.9787 -41.9763 -41.9512 -41.9232 -41.8950 -41.8910 -41.8766 -41.8620
   -41.8600 -41.8488 -41.8297 -41.8264 -41.8039 -41.7635 -41.7295 -41.6619
   -12.4829  -4.9088  -3.3728  -3.1893  -2.7335  -2.5994  -2.5099  -2.3445
    -2.2670  -2.2170  -2.0180  -1.8847  -1.8380  -1.6508  -1.5934  -1.4917
    -1.2784  -1.1284  -1.1195  -0.9003  -0.7679  -0.6031  -0.4082  -0.2366
    -0.1811  -0.1137  -0.0508   0.0519   0.2530   0.2993   0.3281   0.3585
     0.3952   0.4846   0.5685   0.7185   0.7938   0.7971   0.8945   0.9321
     0.9535   0.9817   1.1308   1.1465   1.3349   1.3423   1.6178   1.6195

          k = 0.0649 0.0000 0.0000 ( 14027 PWs)   bands (ev):

   -70.9024 -70.8197 -70.8170 -70.8075 -70.7743 -70.7468 -70.7407 -70.7259
   -70.6947 -70.6298 -70.6263 -70.6093 -42.4606 -42.4266 -42.4002 -42.3952
   -42.3844 -42.3688 -42.3576 -42.2461 -42.2305 -42.2195 -42.1623 -42.1529
   -42.1464 -42.1267 -42.0739 -42.0235 -42.0084 -42.0046 -41.9885 -41.9821
   -41.9801 -41.9434 -41.9240 -41.9093 -41.9042 -41.8990 -41.8690 -41.8648
   -41.8552 -41.8418 -41.8365 -41.8000 -41.7663 -41.7633 -41.7325 -41.6568
   -12.4886  -5.1105  -3.4568  -2.9512  -2.8520  -2.6814  -2.6107  -2.5933
    -2.4029  -2.2192  -2.0654  -1.9409  -1.8594  -1.7461  -1.7038  -1.5838
    -1.3518  -1.2123  -1.1546  -0.8894  -0.8074  -0.4791  -0.2994  -0.0997
    -0.0721  -0.0352   0.0222   0.1163   0.2066   0.2831   0.3281   0.4344
     0.4943   0.5580   0.6362   0.6674   0.7719   0.8535   0.9051   0.9594
     1.0586   1.1121   1.2166   1.2705   1.3480   1.4164   1.6462   1.7051

          k = 0.0649 0.0375 0.0000 ( 14026 PWs)   bands (ev):

   -70.8952 -70.8304 -70.8102 -70.8037 -70.7765 -70.7557 -70.7324 -70.7305
   -70.6890 -70.6403 -70.6177 -70.6130 -42.4442 -42.4093 -42.4001 -42.3740
   -42.3627 -42.3525 -42.3357 -42.2368 -42.2210 -42.2071 -42.1642 -42.1551
   -42.1542 -42.1097 -42.0658 -42.0477 -42.0134 -41.9998 -41.9996 -41.9807
   -41.9787 -41.9764 -41.9513 -41.9232 -41.8950 -41.8911 -41.8770 -41.8615
   -41.8600 -41.8488 -41.8298 -41.8263 -41.8038 -41.7635 -41.7294 -41.6619
   -12.4829  -4.9088  -3.3728  -3.1893  -2.7335  -2.5993  -2.5100  -2.3445
    -2.2670  -2.2170  -2.0180  -1.8847  -1.8380  -1.6508  -1.5934  -1.4917
    -1.2784  -1.1284  -1.1195  -0.9002  -0.7680  -0.6031  -0.4081  -0.2366
    -0.1810  -0.1138  -0.0509   0.0519   0.2530   0.2993   0.3280   0.3586
     0.3952   0.4846   0.5685   0.7185   0.7938   0.7971   0.8947   0.9322
     0.9535   0.9816   1.1307   1.1465   1.3349   1.3423   1.6178   1.6193

          k = 0.0649-0.1500 0.0000 ( 13990 PWs)   bands (ev):

   -70.8759 -70.8419 -70.8154 -70.7941 -70.7757 -70.7632 -70.7460 -70.7228
   -70.6737 -70.6492 -70.6310 -70.6062 -42.4042 -42.3703 -42.3467 -42.3407
   -42.3267 -42.3186 -42.2861 -42.2376 -42.2125 -42.1902 -42.1799 -42.1707
   -42.1357 -42.1116 -42.0762 -42.0576 -42.0524 -42.0108 -41.9964 -41.9926
   -41.9877 -41.9807 -41.9433 -41.9395 -41.9369 -41.9113 -41.8931 -41.8789
   -41.8736 -41.8668 -41.8416 -41.8298 -41.8096 -41.7917 -41.7313 -41.6915
   -12.4717  -4.3397  -3.4713  -2.9718  -2.7441  -2.5999  -2.3801  -2.2023
    -2.0310  -1.9411  -1.8222  -1.7358  -1.5864  -1.4169  -1.3206  -1.2949
    -1.2320  -1.0987  -0.9740  -0.7914  -0.7828  -0.7013  -0.5732  -0.5314
    -0.4493  -0.3226  -0.2691  -0.1863   0.0017   0.0663   0.1345   0.1527
     0.2274   0.3007   0.3480   0.5172   0.5367   0.6004   0.7597   0.8931
     0.9322   1.0505   1.1609   1.3202   1.4148   1.4939   1.5624   1.6102

          k = 0.0649-0.1125 0.0000 ( 13962 PWs)   bands (ev):

   -70.8537 -70.8526 -70.8301 -70.7770 -70.7761 -70.7693 -70.7569 -70.7196
   -70.6546 -70.6541 -70.6484 -70.6030 -42.3638 -42.3395 -42.3227 -42.3084
   -42.3058 -42.2930 -42.2686 -42.2502 -42.2368 -42.2083 -42.1712 -42.1558
   -42.1494 -42.1245 -42.0918 -42.0439 -42.0347 -42.0297 -42.0219 -41.9909
   -41.9897 -41.9886 -41.9587 -41.9370 -41.9353 -41.9322 -41.8974 -41.8822
   -41.8793 -41.8755 -41.8461 -41.8374 -41.8353 -41.7468 -41.7398 -41.7389
   -12.4662  -3.6202  -3.5064  -3.4472  -2.5999  -2.5992  -2.4163  -2.0739
    -1.8232  -1.8201  -1.5892  -1.5488  -1.4031  -1.2810  -1.2785  -1.2390
    -0.9838  -0.9677  -0.9555  -0.9238  -0.9109  -0.6924  -0.6441  -0.6407
    -0.6044  -0.4498  -0.3607  -0.2514  -0.2480  -0.1619  -0.1535  -0.1177
    -0.0285   0.0306   0.2319   0.2707   0.7002   0.7910   0.8488   0.8739
     0.9213   1.0061   1.0282   1.3578   1.3894   1.5670   1.6325   1.7064

          k = 0.0649-0.0750 0.0000 ( 13990 PWs)   bands (ev):

   -70.8757 -70.8427 -70.8147 -70.7943 -70.7757 -70.7632 -70.7460 -70.7228
   -70.6737 -70.6492 -70.6310 -70.6062 -42.4037 -42.3705 -42.3468 -42.3408
   -42.3267 -42.3188 -42.2862 -42.2378 -42.2124 -42.1902 -42.1799 -42.1706
   -42.1358 -42.1116 -42.0760 -42.0575 -42.0523 -42.0110 -41.9963 -41.9925
   -41.9877 -41.9807 -41.9431 -41.9395 -41.9368 -41.9113 -41.8931 -41.8789
   -41.8738 -41.8668 -41.8417 -41.8299 -41.8096 -41.7917 -41.7313 -41.6915
   -12.4717  -4.3397  -3.4713  -2.9717  -2.7441  -2.5998  -2.3801  -2.2023
    -2.0310  -1.9412  -1.8222  -1.7359  -1.5865  -1.4169  -1.3205  -1.2950
    -1.2319  -1.0987  -0.9741  -0.7914  -0.7828  -0.7014  -0.5732  -0.5314
    -0.4494  -0.3225  -0.2690  -0.1863   0.0017   0.0665   0.1345   0.1528
     0.2273   0.3007   0.3480   0.5171   0.5368   0.6004   0.7597   0.8932
     0.9323   1.0504   1.1609   1.3203   1.4148   1.4939   1.5625   1.6103

          k =-0.0974 0.0562 0.0000 ( 14010 PWs)   bands (ev):

   -70.8693 -70.8561 -70.8029 -70.7883 -70.7861 -70.7692 -70.7326 -70.7304
   -70.6666 -70.6627 -70.6177 -70.6131 -42.4058 -42.3679 -42.3602 -42.3459
   -42.3359 -42.3306 -42.2547 -42.2165 -42.2117 -42.2058 -42.1678 -42.1570
   -42.1286 -42.1065 -42.0951 -42.0592 -42.0291 -42.0194 -42.0186 -42.0143
   -41.9754 -41.9712 -41.9422 -41.9382 -41.9183 -41.9166 -41.9163 -41.9040
   -41.8500 -41.8440 -41.8389 -41.8322 -41.8307 -41.8249 -41.6992 -41.6924
   -12.4717  -4.0922  -3.9707  -2.9853  -2.6618  -2.3823  -2.2629  -2.0944
    -2.0061  -1.9667  -1.9627  -1.8351  -1.7032  -1.3768  -1.3016  -1.2339
    -1.1322  -1.1184  -1.0560  -0.9385  -0.6229  -0.6118  -0.5660  -0.5473
    -0.4403  -0.4334  -0.1774  -0.1153   0.0767   0.0900   0.1644   0.1766
     0.2322   0.3088   0.3578   0.5356   0.5552   0.5628   0.6632   0.8371
     0.9933   1.0043   1.1509   1.4213   1.4716   1.4971   1.5097   1.5192

          k =-0.0974 0.0937 0.0000 ( 13990 PWs)   bands (ev):

   -70.8758 -70.8424 -70.8151 -70.7939 -70.7760 -70.7632 -70.7460 -70.7228
   -70.6737 -70.6492 -70.6310 -70.6062 -42.4040 -42.3702 -42.3468 -42.3407
   -42.3270 -42.3187 -42.2862 -42.2378 -42.2123 -42.1901 -42.1800 -42.1707
   -42.1354 -42.1116 -42.0765 -42.0575 -42.0523 -42.0110 -41.9963 -41.9926
   -41.9878 -41.9806 -41.9431 -41.9396 -41.9368 -41.9113 -41.8930 -41.8789
   -41.8738 -41.8668 -41.8417 -41.8298 -41.8096 -41.7917 -41.7313 -41.6915
   -12.4717  -4.3397  -3.4713  -2.9717  -2.7441  -2.5998  -2.3802  -2.2023
    -2.0310  -1.9411  -1.8222  -1.7358  -1.5865  -1.4169  -1.3206  -1.2949
    -1.2320  -1.0987  -0.9741  -0.7914  -0.7828  -0.7013  -0.5731  -0.5314
    -0.4494  -0.3225  -0.2690  -0.1863   0.0018   0.0664   0.1345   0.1527
     0.2274   0.3006   0.3480   0.5171   0.5367   0.6003   0.7598   0.8932
     0.9323   1.0504   1.1609   1.3202   1.4147   1.4941   1.5624   1.6103

          k =-0.0974 0.1312 0.0000 ( 13990 PWs)   bands (ev):

   -70.8759 -70.8419 -70.8155 -70.7940 -70.7757 -70.7633 -70.7459 -70.7228
   -70.6737 -70.6492 -70.6310 -70.6062 -42.4043 -42.3702 -42.3468 -42.3406
   -42.3268 -42.3185 -42.2861 -42.2377 -42.2124 -42.1901 -42.1799 -42.1707
   -42.1356 -42.1116 -42.0763 -42.0577 -42.0523 -42.0107 -41.9964 -41.9926
   -41.9877 -41.9807 -41.9432 -41.9396 -41.9369 -41.9113 -41.8931 -41.8788
   -41.8737 -41.8668 -41.8417 -41.8298 -41.8096 -41.7917 -41.7313 -41.6915
   -12.4717  -4.3397  -3.4713  -2.9718  -2.7441  -2.5999  -2.3801  -2.2023
    -2.0310  -1.9411  -1.8222  -1.7357  -1.5865  -1.4169  -1.3206  -1.2949
    -1.2320  -1.0987  -0.9740  -0.7913  -0.7829  -0.7013  -0.5731  -0.5314
    -0.4493  -0.3225  -0.2691  -0.1863   0.0018   0.0663   0.1345   0.1527
     0.2274   0.3006   0.3480   0.5171   0.5367   0.6004   0.7597   0.8931
     0.9322   1.0505   1.1609   1.3202   1.4148   1.4941   1.5623   1.6103

          k =-0.0974-0.0562 0.0000 ( 14010 PWs)   bands (ev):

   -70.8700 -70.8550 -70.8037 -70.7878 -70.7862 -70.7692 -70.7325 -70.7305
   -70.6666 -70.6627 -70.6177 -70.6131 -42.4064 -42.3679 -42.3602 -42.3455
   -42.3353 -42.3310 -42.2541 -42.2166 -42.2118 -42.2060 -42.1676 -42.1571
   -42.1289 -42.1061 -42.0959 -42.0589 -42.0285 -42.0198 -42.0186 -42.0145
   -41.9754 -41.9712 -41.9423 -41.9381 -41.9189 -41.9165 -41.9163 -41.9036
   -41.8501 -41.8441 -41.8391 -41.8318 -41.8306 -41.8249 -41.6991 -41.6925
   -12.4717  -4.0921  -3.9707  -2.9853  -2.6618  -2.3823  -2.2629  -2.0945
    -2.0060  -1.9665  -1.9627  -1.8350  -1.7031  -1.3769  -1.3015  -1.2340
    -1.1321  -1.1185  -1.0558  -0.9386  -0.6229  -0.6118  -0.5658  -0.5473
    -0.4404  -0.4333  -0.1775  -0.1153   0.0766   0.0899   0.1644   0.1765
     0.2322   0.3090   0.3577   0.5357   0.5553   0.5627   0.6630   0.8370
     0.9935   1.0041   1.1509   1.4213   1.4717   1.4972   1.5096   1.5190

     the Fermi energy is     0.8590 ev

!    total energy              =   -2135.27691169 Ry
     Harris-Foulkes estimate   =   -2135.27690282 Ry
     estimated scf accuracy    <       0.00000583 Ry

     The total energy is the sum of the following terms:

     one-electron contribution =  -20008.39402948 Ry
     hartree contribution      =    9995.24114400 Ry
     xc contribution           =    -284.50323330 Ry
     ewald contribution        =    8162.50961813 Ry
     electric field correction =       0.00017600 Ry
     smearing contrib. (-TS)   =      -0.13058705 Ry

     convergence has been achieved in  46 iterations
 
 BEEF-vdW xc energy contributions
           1 :   -246.245459594111     
           2 :    221.661627648503     
           3 :   -180.619650139537     
           4 :    135.458423569371     
           5 :   -97.3729330010580     
           6 :    72.3506620164236     
           7 :   -60.0714636588572     
           8 :    55.7741631833269     
           9 :   -53.6617756329787     
          10 :    49.8931506670834     
          11 :   -43.7965592206530     
          12 :    37.1142062735006     
          13 :   -32.1473636204935     
          14 :    30.0623918828779     
          15 :   -30.2756520206781     
          16 :    31.0473084645644     
          17 :   -30.7059293455725     
          18 :    28.6589085795273     
          19 :   -25.6015391498549     
          20 :    22.8943391747953     
          21 :   -21.5954746450136     
          22 :    21.7958464803983     
          23 :   -22.6496411194075     
          24 :    23.0089942456494     
          25 :   -22.1939003979407     
          26 :    20.3839441863039     
          27 :   -18.4172646742783     
          28 :    17.1840266289122     
          29 :   -17.0419259229317     
          30 :    17.6249047427505     
          31 :   -24.4332621475115     
          32 :   -17.5603031101788     

     Forces acting on atoms (Ry/au):


     negative rho (up, down):  1.486E-02 0.000E+00
     atom    1 type  1   force =     0.00001824    0.00001444   -0.00052127
     atom    2 type  1   force =    -0.00000898    0.00093971   -0.00171426
     atom    3 type  1   force =     0.00080321   -0.00048397   -0.00170223
     atom    4 type  1   force =    -0.00079376   -0.00046602   -0.00162805
     atom    5 type  1   force =     0.00045736   -0.00030466    0.00720486
     atom    6 type  1   force =    -0.00044089   -0.00026200    0.00713174
     atom    7 type  1   force =     0.00003777    0.00002871    0.00258697
     atom    8 type  1   force =    -0.00004176    0.00055021    0.00721361
     atom    9 type  1   force =     0.01240656    0.00716845    0.06359329
     atom   10 type  1   force =    -0.01243171    0.00720923    0.06357548
     atom   11 type  1   force =     0.00001665   -0.01437306    0.06356235
     atom   12 type  1   force =    -0.00000747   -0.00000835   -0.03632245
     atom   13 type  2   force =    -0.00001521   -0.00001269   -0.17298003

     Total force =     0.209728     Total SCF correction =     0.003212


     entering subroutine stress ...


     negative rho (up, down):  1.486E-02 0.000E+00
          total   stress  (Ry/bohr**3)                   (kbar)     P=  -31.06
  -0.00024281   0.00000001   0.00000004        -35.72      0.00      0.01
   0.00000001  -0.00024291   0.00000004          0.00    -35.73      0.01
   0.00000004   0.00000004  -0.00014763          0.01      0.01    -21.72


     BFGS Geometry Optimization

     number of scf cycles    =   1
     number of bfgs steps    =   0

     energy   new            =   -2135.2769116874 Ry

     new trust radius        =       0.1729800268 bohr
     new conv_thr            =       0.0000099958 Ry


ATOMIC_POSITIONS (crystal)
Cr1      0.166666667   0.166666667   0.413381306    0   0   0
Cr1      0.666666667   0.166666667   0.413381306    0   0   0
Cr1      0.166666667   0.666666667   0.413381306    0   0   0
Cr1      0.666666667   0.666666667   0.413381306    0   0   0
Cr1      0.833333333   0.333333333   0.500000000    0   0   0
Cr1      0.333333333   0.333333333   0.500000000    0   0   0
Cr1      0.833333333   0.833333333   0.500000000    0   0   0
Cr1      0.333333333   0.833333333   0.500000000    0   0   0
Cr1      0.000852427   0.000853413   0.588009810
Cr1      0.498289138   0.000858268   0.588009420
Cr1      0.000857283   0.498288868   0.588009133
Cr1      0.499999727   0.499999006   0.585824134
N1       0.166665854   0.166665156   0.639261270



     Writing output data file calc.save
     Check: negative starting charge=   -0.015006
     NEW-OLD atomic charge density approx. for the potential

     Check: negative/imaginary core charge=   -0.000004    0.000000
     Check: negative starting charge=   -0.014780

     negative rho (up, down):  1.464E-02 0.000E+00
 
     Adding external electric field

     Computed dipole along edir(3) : 
        Dipole               -0.0740 Ry au,         -0.1880 Debye
        Dipole field         -0.0002 Ry au
 
        Potential amp.        0.0223 Ry
        Total length         44.5710 bohr
 

     total cpu time spent up to now is      782.3 secs

     per-process dynamical memory:   110.3 Mb

     Self-consistent Calculation

     iteration #  1     ecut=    36.75 Ry     beta=0.30
     Davidson diagonalization with overlap
     ethr =  1.00E-06,  avg # of iterations = 16.3

     negative rho (up, down):  1.437E-02 0.000E+00
 
     Adding external electric field

     Computed dipole along edir(3) : 
        Dipole               -3.8037 Ry au,         -9.6682 Debye
        Dipole field         -0.0128 Ry au
 
        Potential amp.        1.1441 Ry
        Total length         44.5710 bohr
 

     total cpu time spent up to now is      814.8 secs

     total energy              =   -2133.95593840 Ry
     Harris-Foulkes estimate   =   -2135.29639087 Ry
     estimated scf accuracy    <       2.75239064 Ry

     iteration #  2     ecut=    36.75 Ry     beta=0.30
     Davidson diagonalization with overlap
     ethr =  1.59E-03,  avg # of iterations =  8.2

     negative rho (up, down):  1.515E-02 0.000E+00
 
     Adding external electric field

     Computed dipole along edir(3) : 
        Dipole               -0.1326 Ry au,         -0.3370 Debye
        Dipole field         -0.0004 Ry au
 
        Potential amp.        0.0399 Ry
        Total length         44.5710 bohr
 

     total cpu time spent up to now is      835.5 secs

     total energy              =   -2128.14903168 Ry
     Harris-Foulkes estimate   =   -2153.32842415 Ry
     estimated scf accuracy    <     812.45083707 Ry

     iteration #  3     ecut=    36.75 Ry     beta=0.30
     Davidson diagonalization with overlap
     ethr =  1.59E-03,  avg # of iterations =  6.2

     negative rho (up, down):  1.592E-02 0.000E+00
 
     Adding external electric field

     Computed dipole along edir(3) : 
        Dipole               -0.1993 Ry au,         -0.5067 Debye
        Dipole field         -0.0007 Ry au
 
        Potential amp.        0.0600 Ry
        Total length         44.5710 bohr
 

     total cpu time spent up to now is      855.8 secs

     total energy              =   -2134.63348854 Ry
     Harris-Foulkes estimate   =   -2136.11494247 Ry
     estimated scf accuracy    <      31.38100439 Ry

     iteration #  4     ecut=    36.75 Ry     beta=0.30
     Davidson diagonalization with overlap
     ethr =  1.59E-03,  avg # of iterations =  6.2

     negative rho (up, down):  1.554E-02 0.000E+00
 
     Adding external electric field

     Computed dipole along edir(3) : 
        Dipole               -0.1917 Ry au,         -0.4872 Debye
        Dipole field         -0.0006 Ry au
 
        Potential amp.        0.0577 Ry
        Total length         44.5710 bohr
 

     total cpu time spent up to now is      870.8 secs

     total energy              =   -2135.24968880 Ry
     Harris-Foulkes estimate   =   -2135.28453874 Ry
     estimated scf accuracy    <       2.92363952 Ry

     iteration #  5     ecut=    36.75 Ry     beta=0.30
     Davidson diagonalization with overlap
     ethr =  1.59E-03,  avg # of iterations =  1.0

     negative rho (up, down):  1.546E-02 0.000E+00
 
     Adding external electric field

     Computed dipole along edir(3) : 
        Dipole               -0.1708 Ry au,         -0.4342 Debye
        Dipole field         -0.0006 Ry au
 
        Potential amp.        0.0514 Ry
        Total length         44.5710 bohr
 

     total cpu time spent up to now is      882.9 secs

     total energy              =   -2135.26451948 Ry
     Harris-Foulkes estimate   =   -2135.28297055 Ry
     estimated scf accuracy    <       1.10197185 Ry

     iteration #  6     ecut=    36.75 Ry     beta=0.30
     Davidson diagonalization with overlap
     ethr =  6.37E-04,  avg # of iterations =  2.3

     negative rho (up, down):  1.525E-02 0.000E+00
 
     Adding external electric field

     Computed dipole along edir(3) : 
        Dipole               -0.1485 Ry au,         -0.3775 Debye
        Dipole field         -0.0005 Ry au
 
        Potential amp.        0.0447 Ry
        Total length         44.5710 bohr
 

     total cpu time spent up to now is      895.6 secs

     total energy              =   -2135.28605865 Ry
     Harris-Foulkes estimate   =   -2135.28923407 Ry
     estimated scf accuracy    <       0.16334638 Ry

     iteration #  7     ecut=    36.75 Ry     beta=0.30
     Davidson diagonalization with overlap
     ethr =  9.44E-05,  avg # of iterations =  6.3

     negative rho (up, down):  1.502E-02 0.000E+00
 
     Adding external electric field

     Computed dipole along edir(3) : 
        Dipole               -0.1507 Ry au,         -0.3831 Debye
        Dipole field         -0.0005 Ry au
 
        Potential amp.        0.0453 Ry
        Total length         44.5710 bohr
 

     total cpu time spent up to now is      912.4 secs

     total energy              =   -2135.31404107 Ry
     Harris-Foulkes estimate   =   -2135.31717812 Ry
     estimated scf accuracy    <       0.11031800 Ry

     iteration #  8     ecut=    36.75 Ry     beta=0.30
     Davidson diagonalization with overlap
     ethr =  6.38E-05,  avg # of iterations =  1.2

     negative rho (up, down):  1.483E-02 0.000E+00
 
     Adding external electric field

     Computed dipole along edir(3) : 
        Dipole               -0.1547 Ry au,         -0.3932 Debye
        Dipole field         -0.0005 Ry au
 
        Potential amp.        0.0465 Ry
        Total length         44.5710 bohr
 

     total cpu time spent up to now is      924.6 secs

     total energy              =   -2135.31267590 Ry
     Harris-Foulkes estimate   =   -2135.31491921 Ry
     estimated scf accuracy    <       0.05807016 Ry

     iteration #  9     ecut=    36.75 Ry     beta=0.30
     Davidson diagonalization with overlap
     ethr =  3.36E-05,  avg # of iterations =  1.5

     negative rho (up, down):  1.476E-02 0.000E+00
 
     Adding external electric field

     Computed dipole along edir(3) : 
        Dipole               -0.1544 Ry au,         -0.3924 Debye
        Dipole field         -0.0005 Ry au
 
        Potential amp.        0.0464 Ry
        Total length         44.5710 bohr
 

     total cpu time spent up to now is      937.1 secs

     total energy              =   -2135.31316546 Ry
     Harris-Foulkes estimate   =   -2135.31371401 Ry
     estimated scf accuracy    <       0.01574799 Ry

     iteration # 10     ecut=    36.75 Ry     beta=0.30
     Davidson diagonalization with overlap
     ethr =  9.10E-06,  avg # of iterations =  5.4

     negative rho (up, down):  1.470E-02 0.000E+00
 
     Adding external electric field

     Computed dipole along edir(3) : 
        Dipole               -0.1503 Ry au,         -0.3820 Debye
        Dipole field         -0.0005 Ry au
 
        Potential amp.        0.0452 Ry
        Total length         44.5710 bohr
 

     total cpu time spent up to now is      951.4 secs

     total energy              =   -2135.31399074 Ry
     Harris-Foulkes estimate   =   -2135.31430743 Ry
     estimated scf accuracy    <       0.00471265 Ry

     iteration # 11     ecut=    36.75 Ry     beta=0.30
     Davidson diagonalization with overlap
     ethr =  2.72E-06,  avg # of iterations =  5.0

     negative rho (up, down):  1.468E-02 0.000E+00
 
     Adding external electric field

     Computed dipole along edir(3) : 
        Dipole               -0.1509 Ry au,         -0.3835 Debye
        Dipole field         -0.0005 Ry au
 
        Potential amp.        0.0454 Ry
        Total length         44.5710 bohr
 

     total cpu time spent up to now is      965.8 secs

     total energy              =   -2135.31424102 Ry
     Harris-Foulkes estimate   =   -2135.31443232 Ry
     estimated scf accuracy    <       0.00407522 Ry

     iteration # 12     ecut=    36.75 Ry     beta=0.30
     Davidson diagonalization with overlap
     ethr =  2.36E-06,  avg # of iterations =  1.3

     negative rho (up, down):  1.463E-02 0.000E+00
 
     Adding external electric field

     Computed dipole along edir(3) : 
        Dipole               -0.1557 Ry au,         -0.3956 Debye
        Dipole field         -0.0005 Ry au
 
        Potential amp.        0.0468 Ry
        Total length         44.5710 bohr
 

     total cpu time spent up to now is      978.0 secs

     total energy              =   -2135.31422917 Ry
     Harris-Foulkes estimate   =   -2135.31434545 Ry
     estimated scf accuracy    <       0.00167357 Ry

     iteration # 13     ecut=    36.75 Ry     beta=0.30
     Davidson diagonalization with overlap
     ethr =  9.67E-07,  avg # of iterations =  5.1

     negative rho (up, down):  1.465E-02 0.000E+00
 
     Adding external electric field

     Computed dipole along edir(3) : 
        Dipole               -0.1567 Ry au,         -0.3982 Debye
        Dipole field         -0.0005 Ry au
 
        Potential amp.        0.0471 Ry
        Total length         44.5710 bohr
 

     total cpu time spent up to now is      992.9 secs

     total energy              =   -2135.31434899 Ry
     Harris-Foulkes estimate   =   -2135.31445992 Ry
     estimated scf accuracy    <       0.00552499 Ry

     iteration # 14     ecut=    36.75 Ry     beta=0.30
     Davidson diagonalization with overlap
     ethr =  9.67E-07,  avg # of iterations =  1.0

     negative rho (up, down):  1.466E-02 0.000E+00
 
     Adding external electric field

     Computed dipole along edir(3) : 
        Dipole               -0.1578 Ry au,         -0.4012 Debye
        Dipole field         -0.0005 Ry au
 
        Potential amp.        0.0475 Ry
        Total length         44.5710 bohr
 

     total cpu time spent up to now is     1005.1 secs

     total energy              =   -2135.31424560 Ry
     Harris-Foulkes estimate   =   -2135.31439381 Ry
     estimated scf accuracy    <       0.00184134 Ry

     iteration # 15     ecut=    36.75 Ry     beta=0.30
     Davidson diagonalization with overlap
     ethr =  9.67E-07,  avg # of iterations =  4.2

     negative rho (up, down):  1.467E-02 0.000E+00
 
     Adding external electric field

     Computed dipole along edir(3) : 
        Dipole               -0.1574 Ry au,         -0.4000 Debye
        Dipole field         -0.0005 Ry au
 
        Potential amp.        0.0473 Ry
        Total length         44.5710 bohr
 

     total cpu time spent up to now is     1018.9 secs

     total energy              =   -2135.31437412 Ry
     Harris-Foulkes estimate   =   -2135.31439312 Ry
     estimated scf accuracy    <       0.00073719 Ry

     iteration # 16     ecut=    36.75 Ry     beta=0.30
     Davidson diagonalization with overlap
     ethr =  4.26E-07,  avg # of iterations =  1.9

     negative rho (up, down):  1.468E-02 0.000E+00
 
     Adding external electric field

     Computed dipole along edir(3) : 
        Dipole               -0.1576 Ry au,         -0.4007 Debye
        Dipole field         -0.0005 Ry au
 
        Potential amp.        0.0474 Ry
        Total length         44.5710 bohr
 

     total cpu time spent up to now is     1031.6 secs

     total energy              =   -2135.31433038 Ry
[...]
    -2.3010  -2.1571  -2.0829  -1.9710  -1.7935  -1.5546  -1.5395  -1.4685
    -1.2896  -1.1637  -0.8820  -0.7537  -0.7243  -0.4359  -0.3313  -0.0422
     0.0275   0.0775   0.1790   0.2052   0.3271   0.3898   0.4930   0.5373
     0.5935   0.7105   0.7774   0.8947   0.9709   0.9933   1.0600   1.2204
     1.2773   1.3230   1.3731   1.5042   1.5751   1.6357   1.8392   1.9364

          k = 0.0649-0.0375 0.0000 ( 14026 PWs)   bands (ev):

   -70.7555 -70.6933 -70.6747 -70.6655 -70.6406 -70.5710 -70.5455 -70.5205
   -70.4759 -70.4600 -70.4408 -70.4386 -42.4301 -42.3977 -42.2876 -42.2753
   -42.2069 -42.1919 -42.1660 -42.1284 -42.0552 -42.0539 -42.0149 -42.0127
   -42.0046 -41.9500 -41.9333 -41.8931 -41.8577 -41.8522 -41.8371 -41.8275
   -41.8184 -41.7984 -41.7845 -41.7497 -41.7373 -41.7134 -41.7062 -41.6805
   -41.6677 -41.6466 -41.6103 -41.5698 -41.5601 -41.5338 -41.4844 -41.4821
   -13.3159  -4.7688  -3.7442  -3.3187  -3.2141  -2.8999  -2.7174  -2.2656
    -2.2133  -2.1143  -2.0108  -1.8408  -1.8305  -1.4951  -1.4330  -1.3988
    -1.1491  -1.1391  -0.8855  -0.7117  -0.7086  -0.5242  -0.4038  -0.1683
    -0.0480  -0.0125   0.0851   0.1761   0.2033   0.3151   0.5035   0.5298
     0.5719   0.7095   0.7480   0.7942   0.9603   0.9988   1.0164   1.0839
     1.1455   1.1685   1.3851   1.4807   1.5810   1.6149   1.7715   1.9374

          k = 0.0649 0.0000 0.0000 ( 14027 PWs)   bands (ev):

   -70.7623 -70.6853 -70.6814 -70.6656 -70.6373 -70.5687 -70.5443 -70.5262
   -70.4739 -70.4539 -70.4487 -70.4342 -42.4453 -42.4144 -42.3009 -42.2911
   -42.2127 -42.2018 -42.1844 -42.1252 -42.0695 -42.0605 -42.0254 -42.0041
   -41.9982 -41.9734 -41.9279 -41.8842 -41.8577 -41.8499 -41.8307 -41.8189
   -41.8032 -41.7878 -41.7772 -41.7555 -41.7363 -41.7172 -41.6977 -41.6825
   -41.6552 -41.6003 -41.5886 -41.5764 -41.5569 -41.5390 -41.4885 -41.4745
   -13.3250  -4.9549  -3.7102  -3.4065  -3.2730  -2.8944  -2.6291  -2.5463
    -2.3010  -2.1571  -2.0829  -1.9710  -1.7935  -1.5546  -1.5395  -1.4685
    -1.2896  -1.1637  -0.8820  -0.7537  -0.7243  -0.4359  -0.3313  -0.0422
     0.0275   0.0775   0.1790   0.2052   0.3271   0.3898   0.4930   0.5373
     0.5935   0.7105   0.7774   0.8947   0.9709   0.9933   1.0600   1.2204
     1.2773   1.3230   1.3731   1.5042   1.5751   1.6357   1.8391   1.9364

          k = 0.0649 0.0375 0.0000 ( 14026 PWs)   bands (ev):

   -70.7556 -70.6933 -70.6747 -70.6656 -70.6406 -70.5710 -70.5454 -70.5205
   -70.4759 -70.4600 -70.4408 -70.4386 -42.4301 -42.3978 -42.2876 -42.2753
   -42.2069 -42.1918 -42.1660 -42.1283 -42.0552 -42.0539 -42.0149 -42.0127
   -42.0046 -41.9500 -41.9333 -41.8931 -41.8577 -41.8522 -41.8372 -41.8275
   -41.8184 -41.7984 -41.7845 -41.7497 -41.7373 -41.7134 -41.7062 -41.6805
   -41.6677 -41.6466 -41.6103 -41.5698 -41.5601 -41.5338 -41.4844 -41.4821
   -13.3159  -4.7688  -3.7442  -3.3187  -3.2141  -2.8999  -2.7174  -2.2656
    -2.2133  -2.1143  -2.0108  -1.8408  -1.8305  -1.4951  -1.4330  -1.3988
    -1.1491  -1.1391  -0.8855  -0.7117  -0.7086  -0.5242  -0.4038  -0.1683
    -0.0480  -0.0125   0.0851   0.1761   0.2033   0.3151   0.5035   0.5298
     0.5719   0.7095   0.7480   0.7942   0.9603   0.9988   1.0164   1.0839
     1.1455   1.1685   1.3851   1.4807   1.5810   1.6149   1.7715   1.9373

          k = 0.0649-0.1500 0.0000 ( 13990 PWs)   bands (ev):

   -70.7382 -70.7017 -70.6787 -70.6595 -70.6450 -70.5819 -70.5427 -70.5060
   -70.4807 -70.4648 -70.4524 -70.4310 -42.3938 -42.3517 -42.2609 -42.2478
   -42.1926 -42.1838 -42.1271 -42.1108 -42.0618 -42.0402 -42.0226 -42.0056
   -41.9854 -41.9479 -41.9319 -41.8976 -41.8836 -41.8633 -41.8471 -41.8315
   -41.8170 -41.8003 -41.7863 -41.7626 -41.7510 -41.7406 -41.7251 -41.7089
   -41.6863 -41.6714 -41.6253 -41.5756 -41.5595 -41.5438 -41.5147 -41.4766
   -13.2979  -4.2881  -3.6839  -3.3089  -3.1142  -2.9233  -2.4416  -2.3163
    -2.0526  -1.9472  -1.8265  -1.7461  -1.5159  -1.2860  -1.2461  -1.1730
    -1.1023  -0.9841  -0.8428  -0.7574  -0.6617  -0.5606  -0.4770  -0.3757
    -0.2974  -0.2724  -0.1444  -0.0145   0.0802   0.1038   0.2303   0.3345
     0.3950   0.4709   0.5009   0.6618   0.7063   0.8378   0.9612   1.0437
     1.0673   1.3167   1.4480   1.5367   1.6048   1.7179   1.7927   1.8900

          k = 0.0649-0.1125 0.0000 ( 13962 PWs)   bands (ev):

   -70.7246 -70.7048 -70.6897 -70.6518 -70.6476 -70.5896 -70.5402 -70.4939
   -70.4787 -70.4769 -70.4573 -70.4278 -42.3696 -42.3007 -42.2841 -42.2252
   -42.2080 -42.1524 -42.1040 -42.0760 -42.0718 -42.0646 -42.0449 -41.9923
   -41.9817 -41.9427 -41.9327 -41.8850 -41.8728 -41.8698 -41.8439 -41.8345
   -41.8259 -41.8153 -41.8063 -41.7944 -41.7490 -41.7372 -41.7307 -41.7173
   -41.7092 -41.6848 -41.5798 -41.5777 -41.5687 -41.5584 -41.5542 -41.4729
   -13.2888  -3.9638  -3.4729  -3.3571  -3.1034  -2.8629  -2.8125  -2.0867
    -1.9850  -1.8379  -1.6779  -1.5422  -1.3816  -1.3181  -1.0358  -0.9873
    -0.9164  -0.9005  -0.8537  -0.7708  -0.7394  -0.7327  -0.5173  -0.4875
    -0.4591  -0.3207  -0.1727  -0.1653  -0.0316   0.0192   0.0290   0.0868
     0.0936   0.2365   0.4123   0.4512   0.6067   0.9937   1.0052   1.1136
     1.1388   1.2967   1.3145   1.4052   1.7197   1.7998   1.9231   1.9713

          k = 0.0649-0.0750 0.0000 ( 13990 PWs)   bands (ev):

   -70.7382 -70.7017 -70.6787 -70.6595 -70.6450 -70.5819 -70.5427 -70.5060
   -70.4807 -70.4648 -70.4524 -70.4310 -42.3938 -42.3516 -42.2609 -42.2478
   -42.1927 -42.1838 -42.1271 -42.1108 -42.0618 -42.0402 -42.0226 -42.0056
   -41.9854 -41.9479 -41.9319 -41.8976 -41.8836 -41.8633 -41.8471 -41.8315
   -41.8170 -41.8003 -41.7863 -41.7626 -41.7510 -41.7406 -41.7251 -41.7089
   -41.6863 -41.6715 -41.6253 -41.5756 -41.5596 -41.5438 -41.5147 -41.4766
   -13.2979  -4.2881  -3.6839  -3.3089  -3.1142  -2.9233  -2.4416  -2.3163
    -2.0526  -1.9473  -1.8265  -1.7461  -1.5159  -1.2860  -1.2461  -1.1730
    -1.1023  -0.9840  -0.8428  -0.7574  -0.6617  -0.5606  -0.4770  -0.3757
    -0.2974  -0.2724  -0.1444  -0.0146   0.0802   0.1038   0.2303   0.3345
     0.3950   0.4709   0.5009   0.6618   0.7063   0.8378   0.9612   1.0437
     1.0673   1.3167   1.4480   1.5367   1.6048   1.7179   1.7927   1.8900

          k =-0.0974 0.0562 0.0000 ( 14010 PWs)   bands (ev):

   -70.7345 -70.7117 -70.6655 -70.6618 -70.6511 -70.5780 -70.5455 -70.5015
   -70.4899 -70.4637 -70.4408 -70.4386 -42.3936 -42.3591 -42.2529 -42.2462
   -42.1968 -42.1931 -42.1286 -42.1006 -42.0428 -42.0418 -42.0189 -41.9963
   -41.9851 -41.9635 -41.9592 -41.8933 -41.8672 -41.8627 -41.8596 -41.8280
   -41.8159 -41.7767 -41.7727 -41.7641 -41.7560 -41.7274 -41.7218 -41.7202
   -41.6977 -41.6897 -41.6629 -41.5778 -41.5519 -41.5179 -41.5096 -41.4809
   -13.2979  -4.1956  -3.8192  -3.3196  -3.2174  -2.9613  -2.3547  -2.1091
    -1.9509  -1.8469  -1.8389  -1.8105  -1.7719  -1.2817  -1.2516  -1.1608
    -1.0636  -1.0117  -0.8499  -0.8023  -0.5994  -0.5001  -0.4025  -0.3613
    -0.3220  -0.3130  -0.1526  -0.0453   0.0824   0.2123   0.3054   0.3085
     0.3924   0.4890   0.5464   0.7110   0.7242   0.7544   0.8844   0.9952
     1.0326   1.4818   1.5146   1.5445   1.5990   1.6263   1.7452   1.8122

          k =-0.0974 0.0937 0.0000 ( 13990 PWs)   bands (ev):

   -70.7382 -70.7017 -70.6787 -70.6595 -70.6450 -70.5819 -70.5427 -70.5060
   -70.4807 -70.4648 -70.4524 -70.4310 -42.3938 -42.3516 -42.2609 -42.2478
   -42.1927 -42.1838 -42.1271 -42.1108 -42.0618 -42.0402 -42.0226 -42.0056
   -41.9853 -41.9479 -41.9319 -41.8976 -41.8836 -41.8633 -41.8471 -41.8315
   -41.8170 -41.8003 -41.7863 -41.7626 -41.7510 -41.7406 -41.7251 -41.7089
   -41.6863 -41.6714 -41.6253 -41.5756 -41.5595 -41.5438 -41.5147 -41.4766
   -13.2979  -4.2881  -3.6839  -3.3089  -3.1142  -2.9233  -2.4416  -2.3163
    -2.0526  -1.9473  -1.8265  -1.7461  -1.5159  -1.2860  -1.2461  -1.1730
    -1.1023  -0.9840  -0.8428  -0.7574  -0.6617  -0.5606  -0.4770  -0.3757
    -0.2974  -0.2724  -0.1444  -0.0145   0.0802   0.1038   0.2303   0.3345
     0.3950   0.4709   0.5009   0.6618   0.7063   0.8378   0.9612   1.0437
     1.0673   1.3167   1.4480   1.5367   1.6048   1.7179   1.7928   1.8900

          k =-0.0974 0.1312 0.0000 ( 13990 PWs)   bands (ev):

   -70.7382 -70.7017 -70.6787 -70.6595 -70.6450 -70.5819 -70.5427 -70.5060
   -70.4807 -70.4648 -70.4524 -70.4310 -42.3938 -42.3516 -42.2609 -42.2478
   -42.1926 -42.1838 -42.1271 -42.1108 -42.0618 -42.0402 -42.0226 -42.0056
   -41.9854 -41.9479 -41.9319 -41.8976 -41.8836 -41.8633 -41.8471 -41.8315
   -41.8170 -41.8003 -41.7863 -41.7626 -41.7510 -41.7406 -41.7251 -41.7089
   -41.6863 -41.6714 -41.6253 -41.5756 -41.5596 -41.5438 -41.5147 -41.4766
   -13.2979  -4.2881  -3.6839  -3.3089  -3.1142  -2.9234  -2.4416  -2.3163
    -2.0526  -1.9472  -1.8265  -1.7461  -1.5159  -1.2860  -1.2461  -1.1730
    -1.1023  -0.9841  -0.8428  -0.7574  -0.6617  -0.5606  -0.4770  -0.3757
    -0.2974  -0.2724  -0.1444  -0.0145   0.0802   0.1038   0.2303   0.3345
     0.3950   0.4709   0.5009   0.6618   0.7063   0.8378   0.9612   1.0437
     1.0673   1.3167   1.4480   1.5367   1.6048   1.7179   1.7927   1.8900

          k =-0.0974-0.0562 0.0000 ( 14010 PWs)   bands (ev):

   -70.7345 -70.7116 -70.6656 -70.6617 -70.6511 -70.5781 -70.5455 -70.5015
   -70.4899 -70.4637 -70.4409 -70.4386 -42.3935 -42.3592 -42.2528 -42.2462
   -42.1967 -42.1931 -42.1286 -42.1006 -42.0429 -42.0418 -42.0189 -41.9962
   -41.9851 -41.9636 -41.9593 -41.8933 -41.8672 -41.8627 -41.8595 -41.8279
   -41.8159 -41.7767 -41.7727 -41.7641 -41.7560 -41.7274 -41.7217 -41.7202
   -41.6978 -41.6897 -41.6629 -41.5778 -41.5519 -41.5179 -41.5096 -41.4809
   -13.2979  -4.1956  -3.8192  -3.3196  -3.2174  -2.9613  -2.3547  -2.1091
    -1.9509  -1.8469  -1.8388  -1.8105  -1.7719  -1.2817  -1.2516  -1.1608
    -1.0636  -1.0117  -0.8499  -0.8023  -0.5994  -0.5001  -0.4025  -0.3613
    -0.3220  -0.3130  -0.1526  -0.0453   0.0824   0.2123   0.3054   0.3085
     0.3924   0.4889   0.5464   0.7110   0.7242   0.7544   0.8844   0.9953
     1.0326   1.4818   1.5146   1.5445   1.5990   1.6263   1.7452   1.8122

     the Fermi energy is     1.0497 ev

!    total energy              =   -2135.36090580 Ry
     Harris-Foulkes estimate   =   -2135.36090595 Ry
     estimated scf accuracy    <       0.00000002 Ry

     The total energy is the sum of the following terms:

     one-electron contribution =  -20215.07517470 Ry
     hartree contribution      =   10099.37839604 Ry
     xc contribution           =    -284.85634949 Ry
     ewald contribution        =    8265.31016607 Ry
     electric field correction =       0.00003107 Ry
     smearing contrib. (-TS)   =      -0.11797479 Ry

     convergence has been achieved in  22 iterations
 
 BEEF-vdW xc energy contributions
           1 :   -246.609717407195     
           2 :    222.127758252318     
           3 :   -181.184603535780     
           4 :    136.001994289480     
           5 :   -97.7308217997086     
           6 :    72.4099185100512     
           7 :   -59.8326258306008     
           8 :    55.3508897834272     
           9 :   -53.2238443653209     
          10 :    49.5832491927964     
          11 :   -43.6614937556000     
          12 :    37.0864289768475     
          13 :   -32.0913746057079     
          14 :    29.8638602926256     
          15 :   -29.9184516546052     
          16 :    30.6273406164162     
          17 :   -30.3716893759057     
          18 :    28.5171353829987     
          19 :   -25.6497920329466     
          20 :    23.0234169180017     
          21 :   -21.6568214965190     
          22 :    21.6882518731124     
          23 :   -22.3727484079203     
          24 :    22.6557158352568     
          25 :   -21.8907392349436     
          26 :    20.2167799434589     
          27 :   -18.3845105133493     
          28 :    17.2013845618989     
          29 :   -16.9955590326106     
          30 :    17.4422425398474     
          31 :   -24.4550357444969     
          32 :   -17.5986018639919     

     Forces acting on atoms (Ry/au):


     negative rho (up, down):  1.366E-02 0.000E+00
     atom    1 type  1   force =     0.00000099    0.00000070    0.00694842
     atom    2 type  1   force =    -0.00000063    0.00035498   -0.00308763
     atom    3 type  1   force =     0.00030731   -0.00017800   -0.00308567
     atom    4 type  1   force =    -0.00030614   -0.00017634   -0.00308552
     atom    5 type  1   force =     0.02043761   -0.01180054   -0.00434599
     atom    6 type  1   force =    -0.02043806   -0.01179962   -0.00434955
     atom    7 type  1   force =     0.00000234    0.00000070    0.01961851
     atom    8 type  1   force =    -0.00000216    0.02359909   -0.00434324
     atom    9 type  1   force =    -0.00005058   -0.00002774   -0.00102824
     atom   10 type  1   force =     0.00005185   -0.00002934   -0.00103118
     atom   11 type  1   force =    -0.00000031    0.00005762   -0.00103022
     atom   12 type  1   force =     0.00000056   -0.00000114    0.00024897
     atom   13 type  2   force =    -0.00000279   -0.00000036   -0.00142866

     Total force =     0.002301     Total SCF correction =     0.000338
     SCF correction compared to forces is large: reduce conv_thr to get better values


     entering subroutine stress ...


     negative rho (up, down):  1.366E-02 0.000E+00
          total   stress  (Ry/bohr**3)                   (kbar)     P=  -12.48
  -0.00012098  -0.00000000   0.00000000        -17.80     -0.00      0.00
  -0.00000000  -0.00012098  -0.00000000         -0.00    -17.80     -0.00
   0.00000000  -0.00000000  -0.00001249          0.00     -0.00     -1.84


     bfgs converged in  10 scf cycles and   9 bfgs steps
     (criteria: energy <  1.0E+00, force <  1.9E-03)

     End of BFGS Geometry Optimization

     Final energy   =   -2135.3609058027 Ry
Begin final coordinates

ATOMIC_POSITIONS (crystal)
Cr1      0.166666667   0.166666667   0.413381306    0   0   0
Cr1      0.666666667   0.166666667   0.413381306    0   0   0
Cr1      0.166666667   0.666666667   0.413381306    0   0   0
Cr1      0.666666667   0.666666667   0.413381306    0   0   0
Cr1      0.833333333   0.333333333   0.500000000    0   0   0
Cr1      0.333333333   0.333333333   0.500000000    0   0   0
Cr1      0.833333333   0.833333333   0.500000000    0   0   0
Cr1      0.333333333   0.833333333   0.500000000    0   0   0
Cr1     -0.003441016  -0.003444853   0.589291791
Cr1      0.506885244  -0.003442527   0.589291370
Cr1     -0.003440472   0.506884298   0.589291527
Cr1      0.500002889   0.499998793   0.570602323
N1       0.166668112   0.166666768   0.631488629
End final coordinates



     Writing output data file calc.save
 
     init_run     :      7.17s CPU      7.46s WALL (       1 calls)
     electrons    :   5026.96s CPU   5336.64s WALL (      10 calls)
     update_pot   :     17.71s CPU     18.60s WALL (       9 calls)
     forces       :    106.00s CPU    112.58s WALL (      10 calls)
     stress       :    344.55s CPU    361.61s WALL (      10 calls)

     Called by init_run:
     wfcinit      :      2.67s CPU      2.72s WALL (       1 calls)
     potinit      :      1.33s CPU      1.45s WALL (       1 calls)

     Called by electrons:
     c_bands      :   2409.93s CPU   2526.09s WALL (     324 calls)
     sum_band     :   1009.98s CPU   1076.98s WALL (     324 calls)
     v_of_rho     :    336.35s CPU    363.11s WALL (     334 calls)
     newd         :    836.74s CPU    855.67s WALL (     334 calls)
     mix_rho      :     15.04s CPU     15.56s WALL (     324 calls)
     vdW_energy   :     99.61s CPU    110.56s WALL (     694 calls)
     vdW_ffts     :    248.52s CPU    265.35s WALL (    1408 calls)
     vdW_v        :     99.46s CPU    103.17s WALL (     694 calls)

     Called by c_bands:
     init_us_2    :     13.97s CPU     14.05s WALL (    3345 calls)
     cegterg      :   2178.93s CPU   2229.91s WALL (    1620 calls)

     Called by *egterg:
     h_psi        :   1304.26s CPU   1343.09s WALL (    7864 calls)
     s_psi        :    129.15s CPU    129.46s WALL (    7864 calls)
     g_psi        :      8.32s CPU      8.32s WALL (    6239 calls)
     cdiaghg      :    301.87s CPU    303.79s WALL (    7814 calls)

     Called by h_psi:
     add_vuspsi   :    133.39s CPU    133.66s WALL (    7864 calls)

     General routines
     calbec       :    204.52s CPU    209.31s WALL (    9584 calls)
     fft          :    407.90s CPU    450.83s WALL (   43083 calls)
     ffts         :      0.97s CPU      1.10s WALL (     658 calls)
     fftw         :    811.38s CPU    856.93s WALL (  916728 calls)
     interpolate  :      8.00s CPU      8.39s WALL (     658 calls)
     davcio       :      0.00s CPU      0.02s WALL (       5 calls)
 
     Parallel routines
     fft_scatter  :    687.71s CPU    771.27s WALL (  960469 calls)
 
     PWSCF        :     1h32m CPU        1h37m WALL

 
   This run was terminated on:  15:14:45   2May2018            

=------------------------------------------------------------------------------=
   JOB DONE.
=------------------------------------------------------------------------------=
Job  /afs/slac/g/suncat/bin/suncat-tsmpirun -x LD_LIBRARY_PATH -wdir /scratch/qe664347_a3cck pw.x -npool 4 -in pw.inp

TID   HOST_NAME   COMMAND_LINE            STATUS            TERMINATION_TIME
===== ========== ================  =======================  ===================
00000 suncat0172 pw.x -npool 4 -i  Done                     05/02/2018 15:14:45
00001 suncat0172 pw.x -npool 4 -i  Done                     05/02/2018 15:14:45
00002 suncat0172 pw.x -npool 4 -i  Done                     05/02/2018 15:14:45
00003 suncat0172 pw.x -npool 4 -i  Done                     05/02/2018 15:14:45
00004 suncat0172 pw.x -npool 4 -i  Done                     05/02/2018 15:14:45
00005 suncat0172 pw.x -npool 4 -i  Done                     05/02/2018 15:14:45
00006 suncat0172 pw.x -npool 4 -i  Done                     05/02/2018 15:14:45
00007 suncat0172 pw.x -npool 4 -i  Done                     05/02/2018 15:14:45
00008 suncat0150 pw.x -npool 4 -i  Done                     05/02/2018 15:14:45
00009 suncat0150 pw.x -npool 4 -i  Done                     05/02/2018 15:14:45
00010 suncat0150 pw.x -npool 4 -i  Done                     05/02/2018 15:14:45
00011 suncat0150 pw.x -npool 4 -i  Done                     05/02/2018 15:14:45
00012 suncat0150 pw.x -npool 4 -i  Done                     05/02/2018 15:14:45
00013 suncat0150 pw.x -npool 4 -i  Done                     05/02/2018 15:14:45
00014 suncat0150 pw.x -npool 4 -i  Done                     05/02/2018 15:14:45
00015 suncat0150 pw.x -npool 4 -i  Done                     05/02/2018 15:14:45
00016 suncat0133 pw.x -npool 4 -i  Done                     05/02/2018 15:14:45
00017 suncat0133 pw.x -npool 4 -i  Done                     05/02/2018 15:14:45
00018 suncat0133 pw.x -npool 4 -i  Done                     05/02/2018 15:14:45
00019 suncat0133 pw.x -npool 4 -i  Done                     05/02/2018 15:14:45
00020 suncat0133 pw.x -npool 4 -i  Done                     05/02/2018 15:14:45
00021 suncat0133 pw.x -npool 4 -i  Done                     05/02/2018 15:14:45
00022 suncat0133 pw.x -npool 4 -i  Done                     05/02/2018 15:14:45
00023 suncat0133 pw.x -npool 4 -i  Done                     05/02/2018 15:14:45
00024 suncat0121 pw.x -npool 4 -i  Done                     05/02/2018 15:14:45
00025 suncat0121 pw.x -npool 4 -i  Done                     05/02/2018 15:14:45
00026 suncat0121 pw.x -npool 4 -i  Done                     05/02/2018 15:14:45
00027 suncat0121 pw.x -npool 4 -i  Done                     05/02/2018 15:14:45
00028 suncat0121 pw.x -npool 4 -i  Done                     05/02/2018 15:14:45
00029 suncat0121 pw.x -npool 4 -i  Done                     05/02/2018 15:14:45
00030 suncat0121 pw.x -npool 4 -i  Done                     05/02/2018 15:14:45
00031 suncat0121 pw.x -npool 4 -i  Done                     05/02/2018 15:14:45
