  python dir          : /u/if/mamunm/src/espresso
  espresso dir        : /nfs/slac/g/suncatfs/sw/espv18/espresso-dynpy-beef/bin
  pseudo dir          : /u/if/mamunm/psp/gbrv1.5pbe
  ase-espresso py git : GITVERSION



     Program PWSCF v.5.1rc2 (svn rev. 11289) starts on 21Apr2018 at 21:43:29 

     This program is part of the open-source Quantum ESPRESSO suite
     for quantum simulation of materials; please cite
         "P. Giannozzi et al., J. Phys.:Condens. Matter 21 395502 (2009);
          URL http://www.quantum-espresso.org", 
     in publications or presentations arising from this work. More details at
     http://www.quantum-espresso.org/quote

     Parallel version (MPI), running on    32 processors
     K-points division:     npool     =       4
     R & G space division:  proc/nbgrp/npool/nimage =       8
     Reading input from pw.inp
     Message from routine read_cards :
     DEPRECATED: no units specified in CELL_PARAMETERS card

     Current dimensions of program PWSCF are:
     Max number of different atomic species (ntypx) = 10
     Max number of k-points (npk) =  40000
     Max angular momentum in pseudopotentials (lmaxx) =  3
     Presently stress not available with electric field


     **************************************************************************
     Initializing libbeef V0.1.1 with the BEEF-vdW functional.
     Citation: Wellendorff et al., PRB 85, 235149 (2012).
     **************************************************************************


     IMPORTANT: XC functional enforced from input :
     Exchange-correlation      = BEEF-VDW ( 1  4 27 13 2)
     Any further DFT definition will be discarded
     Please, verify this is what you really want


     Subspace diagonalization in iterative solution of the eigenvalue problem:
     a serial algorithm will be used

 
     Parallelization info
     --------------------
     sticks:   dense  smooth     PW     G-vecs:    dense   smooth      PW
     Min         358     144     41                67928    17211    2707
     Max         359     145     43                67951    17239    2717
     Sum        2869    1159    337               543535   137813   21685
 


     bravais-lattice index     =            0
     lattice parameter (alat)  =       1.8897  a.u.
     unit-cell volume          =    4569.9960 (a.u.)^3
     number of atoms/cell      =           14
     number of atomic types    =            3
     number of electrons       =       198.00
     number of Kohn-Sham states=          109
     kinetic-energy cutoff     =      36.7493  Ry
     charge density cutoff     =     367.4932  Ry
     convergence threshold     =      1.0E-05
     mixing beta               =       0.3000
     number of iterations used =           10  plain     mixing
     Exchange-correlation      = BEEF-VDW ( 1  4 27 13 2)
     nstep                     =           50


     celldm(1)=   1.889726  celldm(2)=   0.000000  celldm(3)=   0.000000
     celldm(4)=   0.000000  celldm(5)=   0.000000  celldm(6)=   0.000000

     crystal axes: (cart. coord. in units of alat)
               a(1) = (   5.637663   0.000000   0.000000 )  
               a(2) = (   2.818831   4.882359   0.000000 )  
               a(3) = (   0.000000   0.000000  24.603132 )  

     reciprocal axes: (cart. coord. in units 2 pi/alat)
               b(1) = (  0.177378 -0.102410  0.000000 )  
               b(2) = (  0.000000  0.204819  0.000000 )  
               b(3) = (  0.000000  0.000000  0.040645 )  


     PseudoPot. # 1 for Pd read from file:
     /u/if/mamunm/psp/gbrv1.5pbe/Pd.UPF
     MD5 check sum: 2d733d2bc2cbfd217af676df1668a4bc
     Pseudo is Ultrasoft + core correction, Zval = 16.0
     Generated by new atomic code, or converted to UPF format
     Using radial grid of  887 points,  6 beta functions with: 
                l(1) =   0
                l(2) =   0
                l(3) =   1
                l(4) =   1
                l(5) =   2
                l(6) =   2
     Q(r) pseudized with  8 coefficients,  rinner =    1.130   1.130   1.130
                                                       1.130   1.130

     PseudoPot. # 2 for N  read from file:
     /u/if/mamunm/psp/gbrv1.5pbe/N.UPF
     MD5 check sum: 95339753478d7afb44899504a8723017
     Pseudo is Ultrasoft + core correction, Zval =  5.0
     Generated by new atomic code, or converted to UPF format
     Using radial grid of  729 points,  4 beta functions with: 
                l(1) =   0
                l(2) =   0
                l(3) =   1
                l(4) =   1
     Q(r) pseudized with  8 coefficients,  rinner =    0.900   0.900   0.900


     PseudoPot. # 3 for H  read from file:
     /u/if/mamunm/psp/gbrv1.5pbe/H.UPF
     MD5 check sum: 761ae9a214b05c3daf00ab9f6b793d6f
     Pseudo is Ultrasoft, Zval =  1.0
     Generated by new atomic code, or converted to UPF format
     Using radial grid of  615 points,  2 beta functions with: 
                l(1) =   0
                l(2) =   0
     Q(r) pseudized with  8 coefficients,  rinner =    0.700

     vdW kernel table read from file vdW_kernel_table
     MD5 check sum: 095c7af220d748ca6e76c0b4c6cfb241

     atomic species   valence    mass     pseudopotential
        Pd1           16.00   106.42000     Pd( 1.00)
        N1             5.00    14.00700     N ( 1.00)
        H1             1.00     1.00800     H ( 1.00)

     No symmetry found



   Cartesian axes

     site n.     atom                  positions (alat units)
         1           Pd1 tau(   1) = (   1.4094157   0.8137265  10.0000000  )
         2           Pd1 tau(   2) = (   4.2282471   0.8137265  10.0000000  )
         3           Pd1 tau(   3) = (   2.8188314   3.2549061  10.0000000  )
         4           Pd1 tau(   4) = (   5.6376627   3.2549061  10.0000000  )
         5           Pd1 tau(   5) = (   5.6376627   1.6274531  12.3015662  )
         6           Pd1 tau(   6) = (   2.8188314   1.6274531  12.3015662  )
         7           Pd1 tau(   7) = (   7.0470784   4.0686326  12.3015662  )
         8           Pd1 tau(   8) = (   4.2282471   4.0686326  12.3015662  )
         9           Pd1 tau(   9) = (   0.0000000   0.0000000  14.6031324  )
        10           Pd1 tau(  10) = (   2.8188314   0.0000000  14.6031324  )
        11           Pd1 tau(  11) = (   1.4094157   2.4411796  14.6031324  )
        12           Pd1 tau(  12) = (   4.2282471   2.4411796  14.6031324  )
        13           N1  tau(  13) = (   0.0000000   0.0000000  16.3881324  )
        14           H1  tau(  14) = (   0.0000000   0.0000000  17.4381324  )

     number of k points=    20  Fermi-Dirac smearing, width (Ry)=  0.0110
                       cart. coord. in units 2pi/alat
        k(    1) = (   0.0000000   0.0000000   0.0000000), wk =   0.0555556
        k(    2) = (   0.0000000   0.0341365   0.0000000), wk =   0.1111111
        k(    3) = (   0.0000000   0.0682730   0.0000000), wk =   0.1111111
        k(    4) = (   0.0000000  -0.1024095   0.0000000), wk =   0.0555556
        k(    5) = (   0.0295631  -0.0170683   0.0000000), wk =   0.1111111
        k(    6) = (   0.0295631   0.0170683   0.0000000), wk =   0.1111111
        k(    7) = (   0.0295631   0.0512048   0.0000000), wk =   0.1111111
        k(    8) = (   0.0295631  -0.1194778   0.0000000), wk =   0.1111111
        k(    9) = (   0.0295631  -0.0853413   0.0000000), wk =   0.1111111
        k(   10) = (   0.0295631  -0.0512048   0.0000000), wk =   0.1111111
        k(   11) = (   0.0591262  -0.0341365   0.0000000), wk =   0.1111111
        k(   12) = (   0.0591262  -0.0000000   0.0000000), wk =   0.1111111
        k(   13) = (   0.0591262   0.0341365   0.0000000), wk =   0.1111111
        k(   14) = (   0.0591262  -0.1365460   0.0000000), wk =   0.1111111
        k(   15) = (   0.0591262  -0.1024095   0.0000000), wk =   0.1111111
        k(   16) = (   0.0591262  -0.0682730   0.0000000), wk =   0.1111111
        k(   17) = (  -0.0886892   0.0512048   0.0000000), wk =   0.0555556
        k(   18) = (  -0.0886892   0.0853413   0.0000000), wk =   0.1111111
        k(   19) = (  -0.0886892   0.1194778   0.0000000), wk =   0.1111111
        k(   20) = (  -0.0886892  -0.0512048   0.0000000), wk =   0.0555556

     Dense  grid:   543535 G-vectors     FFT dimensions: (  72,  72, 288)

     Smooth grid:   137813 G-vectors     FFT dimensions: (  45,  45, 180)

     Largest allocated arrays     est. size (Mb)     dimensions
        Kohn-Sham Wavefunctions         3.65 Mb     (    2194,  109)
        NL pseudopotentials             7.57 Mb     (    2194,  226)
        Each V/rho on FFT grid          2.85 Mb     (  186624)
        Each G-vector array             0.52 Mb     (   67930)
        G-vector shells                 0.13 Mb     (   17595)
     Largest temporary arrays     est. size (Mb)     dimensions
        Auxiliary wavefunctions        14.60 Mb     (    2194,  436)
        Each subspace H/S matrix        2.90 Mb     (     436,  436)
        Each <psi_i|beta_j> matrix      0.38 Mb     (     226,  109)
        Arrays for rho mixing          28.48 Mb     (  186624,   10)

     Initial potential from superposition of free atoms
     Check: negative starting charge=   -0.903997

     starting charge  191.99990, renormalised to  198.00000

     negative rho (up, down):  9.322E-01 0.000E+00


     ************************************************************************
     *
     * You are using vdW-DF for exchange-correlation in this calculation.
     * Please cite the following three references that made this development
     * possible:
     *
     *   M. Dion, H. Rydberg, E. Schroder, D. C. Langreth, and
     *   B. I. Lundqvist, Phys. Rev. Lett. 92, 246401 (2004).
     *
     *   T. Thonhauser, V. R. Cooper, S. Li, A. Puzder, P. Hyldgaard, and
     *   D. C. Langreth, Phys. Rev. B 76, 125112 (2007).
     *
     *   G. Roman-Perez and J. M. Soler, Phys. Rev. Lett. 103, 096102 (2009).
     *
     *
     * If you are using vdW-DF2, please also cite:
     *
     *   K. Lee, E. D. Murray, L. Kong, B. I. Lundqvist, and
     *   D. C. Langreth, Phys. Rev. B 82, 081101(R) (2010).
     *
     *
     * If you are calculating the stress with vdW-DF, please also cite:
     *
     *   R. Sabatini, E. Kucukbenli, B. Kolb, T. Thonhauser, and
     *   S. de Gironcoli, J. Phys.: Condens. Matter 24, 424209 (2012).
     *
     ************************************************************************

     Carrying out vdW-DF run using the following parameters:

     Nqs =      20    Nr_points =    1024   r_max =   100.000
     q_mesh =
               0.00001000     0.04494208     0.09755937     0.15916263
               0.23128650     0.31572767     0.41458969     0.53033537
               0.66584808     0.82450364     1.01025438     1.22772762
               1.48234092     1.78043706     2.12944203     2.53805004
               3.01644009     3.57652955     4.23227104     5.00000000

     Gradients computed in reciprocal space

     ************************************************************************


 
     Adding external electric field

     Computed dipole along edir(3) : 
        Dipole               -1.5098 Ry au,         -3.8376 Debye
        Dipole field         -0.0042 Ry au
 
        Potential amp.        0.3764 Ry
        Total length         45.3309 bohr
 
     Starting wfc are  149 randomized atomic wfcs

     total cpu time spent up to now is       11.5 secs

     per-process dynamical memory:    85.6 Mb

     Self-consistent Calculation

     iteration #  1     ecut=    36.75 Ry     beta=0.30
     Davidson diagonalization with overlap
     ethr =  1.00E-02,  avg # of iterations =  5.8

     negative rho (up, down):  9.261E-01 0.000E+00
 
     Adding external electric field

     Computed dipole along edir(3) : 
        Dipole               27.3363 Ry au,         69.4821 Debye
        Dipole field          0.0752 Ry au
 
        Potential amp.       -6.8149 Ry
        Total length         45.3309 bohr
 

     total cpu time spent up to now is       33.3 secs

     total energy              =   -2369.72996685 Ry
     Harris-Foulkes estimate   =   -2421.61379661 Ry
     estimated scf accuracy    <     109.59501003 Ry

     iteration #  2     ecut=    36.75 Ry     beta=0.30
     Davidson diagonalization with overlap
     ethr =  1.00E-02,  avg # of iterations = 17.1

     negative rho (up, down):  9.210E-01 0.000E+00
 
     Adding external electric field

     Computed dipole along edir(3) : 
        Dipole                1.4702 Ry au,          3.7369 Debye
        Dipole field          0.0040 Ry au
 
        Potential amp.       -0.3665 Ry
        Total length         45.3309 bohr
 

     total cpu time spent up to now is       80.1 secs

     total energy              =   -2223.29153294 Ry
     Harris-Foulkes estimate   =   -2678.96592041 Ry
     estimated scf accuracy    <   14153.67522701 Ry

     iteration #  3     ecut=    36.75 Ry     beta=0.30
     Davidson diagonalization with overlap
     ethr =  1.00E-02,  avg # of iterations =  7.5

     negative rho (up, down):  9.290E-01 0.000E+00
 
     Adding external electric field

     Computed dipole along edir(3) : 
        Dipole                3.7195 Ry au,          9.4540 Debye
        Dipole field          0.0102 Ry au
 
        Potential amp.       -0.9273 Ry
        Total length         45.3309 bohr
 

     total cpu time spent up to now is      118.2 secs

     total energy              =   -2391.19816255 Ry
     Harris-Foulkes estimate   =   -2471.74790726 Ry
     estimated scf accuracy    <    1327.48233833 Ry

     iteration #  4     ecut=    36.75 Ry     beta=0.30
     Davidson diagonalization with overlap
     ethr =  1.00E-02,  avg # of iterations =  5.5

     negative rho (up, down):  9.326E-01 0.000E+00
 
     Adding external electric field

     Computed dipole along edir(3) : 
        Dipole                3.6385 Ry au,          9.2482 Debye
        Dipole field          0.0100 Ry au
 
        Potential amp.       -0.9071 Ry
        Total length         45.3309 bohr
 

     total cpu time spent up to now is      146.5 secs

     total energy              =   -2417.12486278 Ry
     Harris-Foulkes estimate   =   -2422.14066350 Ry
     estimated scf accuracy    <      19.13412148 Ry

     iteration #  5     ecut=    36.75 Ry     beta=0.30
     Davidson diagonalization with overlap
     ethr =  9.66E-03,  avg # of iterations =  2.0

     negative rho (up, down):  9.336E-01 0.000E+00
 
     Adding external electric field

     Computed dipole along edir(3) : 
        Dipole                2.2145 Ry au,          5.6286 Debye
        Dipole field          0.0061 Ry au
 
        Potential amp.       -0.5521 Ry
        Total length         45.3309 bohr
 

     total cpu time spent up to now is      164.4 secs

     total energy              =   -2418.19632059 Ry
     Harris-Foulkes estimate   =   -2419.99799305 Ry
     estimated scf accuracy    <      29.55188373 Ry

     iteration #  6     ecut=    36.75 Ry     beta=0.30
     Davidson diagonalization with overlap
     ethr =  9.66E-03,  avg # of iterations =  1.1

     negative rho (up, down):  9.345E-01 0.000E+00
 
     Adding external electric field

     Computed dipole along edir(3) : 
        Dipole                1.3408 Ry au,          3.4079 Debye
        Dipole field          0.0037 Ry au
 
        Potential amp.       -0.3342 Ry
        Total length         45.3309 bohr
 

     total cpu time spent up to now is      181.8 secs

     total energy              =   -2418.72063794 Ry
     Harris-Foulkes estimate   =   -2418.94852743 Ry
     estimated scf accuracy    <       1.04271557 Ry

     iteration #  7     ecut=    36.75 Ry     beta=0.30
     Davidson diagonalization with overlap
     ethr =  5.27E-04,  avg # of iterations =  3.2

     negative rho (up, down):  9.352E-01 0.000E+00
 
     Adding external electric field

     Computed dipole along edir(3) : 
        Dipole                1.0878 Ry au,          2.7648 Debye
        Dipole field          0.0030 Ry au
 
        Potential amp.       -0.2712 Ry
        Total length         45.3309 bohr
 

     total cpu time spent up to now is      200.8 secs

     total energy              =   -2418.67824454 Ry
     Harris-Foulkes estimate   =   -2418.96689295 Ry
     estimated scf accuracy    <       5.10134335 Ry

     iteration #  8     ecut=    36.75 Ry     beta=0.30
     Davidson diagonalization with overlap
     ethr =  5.27E-04,  avg # of iterations =  1.1

     negative rho (up, down):  9.360E-01 0.000E+00
 
     Adding external electric field

     Computed dipole along edir(3) : 
        Dipole                0.7146 Ry au,          1.8164 Debye
        Dipole field          0.0020 Ry au
 
        Potential amp.       -0.1782 Ry
        Total length         45.3309 bohr
 

     total cpu time spent up to now is      218.4 secs

     total energy              =   -2418.76752942 Ry
     Harris-Foulkes estimate   =   -2418.80964657 Ry
     estimated scf accuracy    <       0.24592646 Ry

     iteration #  9     ecut=    36.75 Ry     beta=0.30
     Davidson diagonalization with overlap
     ethr =  1.24E-04,  avg # of iterations =  2.0

     negative rho (up, down):  9.369E-01 0.000E+00
 
     Adding external electric field

     Computed dipole along edir(3) : 
        Dipole                0.4624 Ry au,          1.1754 Debye
        Dipole field          0.0013 Ry au
 
        Potential amp.       -0.1153 Ry
        Total length         45.3309 bohr
 

     total cpu time spent up to now is      236.4 secs

     total energy              =   -2418.74604412 Ry
     Harris-Foulkes estimate   =   -2418.79029229 Ry
     estimated scf accuracy    <       0.44423218 Ry

     iteration # 10     ecut=    36.75 Ry     beta=0.30
     Davidson diagonalization with overlap
     ethr =  1.24E-04,  avg # of iterations =  3.8

     negative rho (up, down):  9.385E-01 0.000E+00
 
     Adding external electric field

     Computed dipole along edir(3) : 
        Dipole               -0.0093 Ry au,         -0.0237 Debye
        Dipole field         -0.0000 Ry au
 
        Potential amp.        0.0023 Ry
        Total length         45.3309 bohr
 

     total cpu time spent up to now is      255.8 secs

     total energy              =   -2418.73771768 Ry
     Harris-Foulkes estimate   =   -2418.77259539 Ry
     estimated scf accuracy    <       0.51223926 Ry

     iteration # 11     ecut=    36.75 Ry     beta=0.30
     Davidson diagonalization with overlap
     ethr =  1.24E-04,  avg # of iterations =  1.9

     negative rho (up, down):  9.391E-01 0.000E+00
 
     Adding external electric field

     Computed dipole along edir(3) : 
        Dipole               -0.1036 Ry au,         -0.2633 Debye
        Dipole field         -0.0003 Ry au
 
        Potential amp.        0.0258 Ry
        Total length         45.3309 bohr
 

     total cpu time spent up to now is      273.9 secs

     total energy              =   -2418.74482927 Ry
     Harris-Foulkes estimate   =   -2418.76061184 Ry
     estimated scf accuracy    <       0.34803128 Ry

     iteration # 12     ecut=    36.75 Ry     beta=0.30
     Davidson diagonalization with overlap
     ethr =  1.24E-04,  avg # of iterations =  1.0

     negative rho (up, down):  9.394E-01 0.000E+00
 
     Adding external electric field

     Computed dipole along edir(3) : 
        Dipole               -0.1494 Ry au,         -0.3797 Debye
        Dipole field         -0.0004 Ry au
 
        Potential amp.        0.0372 Ry
        Total length         45.3309 bohr
 

     total cpu time spent up to now is      291.8 secs

     total energy              =   -2418.74823425 Ry
     Harris-Foulkes estimate   =   -2418.75370485 Ry
     estimated scf accuracy    <       0.05150473 Ry

     iteration # 13     ecut=    36.75 Ry     beta=0.30
     Davidson diagonalization with overlap
     ethr =  2.60E-05,  avg # of iterations =  5.1

     negative rho (up, down):  9.400E-01 0.000E+00
 
     Adding external electric field

     Computed dipole along edir(3) : 
        Dipole               -0.0039 Ry au,         -0.0099 Debye
        Dipole field         -0.0000 Ry au
 
        Potential amp.        0.0010 Ry
        Total length         45.3309 bohr
 

     total cpu time spent up to now is      311.7 secs

     total energy              =   -2418.74943298 Ry
     Harris-Foulkes estimate   =   -2418.75154800 Ry
     estimated scf accuracy    <       0.01304219 Ry

     iteration # 14     ecut=    36.75 Ry     beta=0.30
     Davidson diagonalization with overlap
     ethr =  6.59E-06,  avg # of iterations =  4.0

     negative rho (up, down):  9.403E-01 0.000E+00
 
     Adding external electric field

     Computed dipole along edir(3) : 
        Dipole                0.0042 Ry au,          0.0108 Debye
        Dipole field          0.0000 Ry au
 
        Potential amp.       -0.0011 Ry
        Total length         45.3309 bohr
 

     total cpu time spent up to now is      331.8 secs

     total energy              =   -2418.74947474 Ry
     Harris-Foulkes estimate   =   -2418.75148828 Ry
     estimated scf accuracy    <       0.02933489 Ry

     iteration # 15     ecut=    36.75 Ry     beta=0.30
     Davidson diagonalization with overlap
     ethr =  6.59E-06,  avg # of iterations =  1.0

     negative rho (up, down):  9.408E-01 0.000E+00
 
     Adding external electric field

     Computed dipole along edir(3) : 
        Dipole                0.0849 Ry au,          0.2158 Debye
        Dipole field          0.0002 Ry au
 
        Potential amp.       -0.0212 Ry
        Total length         45.3309 bohr
 

     total cpu time spent up to now is      349.6 secs

     total energy              =   -2418.75008228 Ry
     Harris-Foulkes estimate   =   -2418.75087873 Ry
     estimated scf accuracy    <       0.00778159 Ry

     iteration # 16     ecut=    36.75 Ry     beta=0.30
     Davidson diagonalization with overlap
     ethr =  3.93E-06,  avg # of iterations =  2.1

     negative rho (up, down):  9.417E-01 0.000E+00
 
     Adding external electric field

     Computed dipole along edir(3) : 
        Dipole                0.1362 Ry au,          0.3462 Debye
        Dipole field          0.0004 Ry au
 
        Potential amp.       -0.0340 Ry
        Total length         45.3309 bohr
 

     total cpu time spent up to now is      368.2 secs

     total energy              =   -2418.75056810 Ry
     Harris-Foulkes estimate   =   -2418.75058246 Ry
     estimated scf accuracy    <       0.00202995 Ry

     iteration # 17     ecut=    36.75 Ry     beta=0.30
     Davidson diagonalization with overlap
     ethr =  1.03E-06,  avg # of iterations =  1.8

     negative rho (up, down):  9.420E-01 0.000E+00
 
     Adding external electric field

     Computed dipole along edir(3) : 
        Dipole                0.1723 Ry au,          0.4380 Debye
        Dipole field          0.0005 Ry au
 
        Potential amp.       -0.0430 Ry
        Total length         45.3309 bohr
 

     total cpu time spent up to now is      386.4 secs

     total energy              =   -2418.75064103 Ry
     Harris-Foulkes estimate   =   -2418.75061861 Ry
     estimated scf accuracy    <       0.00035007 Ry

     iteration # 18     ecut=    36.75 Ry     beta=0.30
     Davidson diagonalization with overlap
     ethr =  1.77E-07,  avg # of iterations =  1.8

     negative rho (up, down):  9.421E-01 0.000E+00
 
     Adding external electric field

     Computed dipole along edir(3) : 
        Dipole                0.1776 Ry au,          0.4514 Debye
        Dipole field          0.0005 Ry au
 
        Potential amp.       -0.0443 Ry
        Total length         45.3309 bohr
 

     total cpu time spent up to now is      404.7 secs

     total energy              =   -2418.75064791 Ry
     Harris-Foulkes estimate   =   -2418.75065387 Ry
     estimated scf accuracy    <       0.00006880 Ry

     iteration # 19     ecut=    36.75 Ry     beta=0.30
     Davidson diagonalization with overlap
     ethr =  3.47E-08,  avg # of iterations =  1.1

     negative rho (up, down):  9.423E-01 0.000E+00
 
     Adding external electric field

     Computed dipole along edir(3) : 
        Dipole                0.1837 Ry au,          0.4669 Debye
        Dipole field          0.0005 Ry au
 
        Potential amp.       -0.0458 Ry
        Total length         45.3309 bohr
 

     total cpu time spent up to now is      422.1 secs

     total energy              =   -2418.75065200 Ry
     Harris-Foulkes estimate   =   -2418.75064951 Ry
     estimated scf accuracy    <       0.00001668 Ry

     iteration # 20     ecut=    36.75 Ry     beta=0.30
     Davidson diagonalization with overlap
     ethr =  8.42E-09,  avg # of iterations =  1.5

     negative rho (up, down):  9.424E-01 0.000E+00
 
     Adding external electric field

     Computed dipole along edir(3) : 
        Dipole                0.1872 Ry au,          0.4758 Debye
        Dipole field          0.0005 Ry au
 
        Potential amp.       -0.0467 Ry
        Total length         45.3309 bohr
 

     total cpu time spent up to now is      440.2 secs

     total energy              =   -2418.75065178 Ry
     Harris-Foulkes estimate   =   -2418.75065110 Ry
     estimated scf accuracy    <       0.00002237 Ry

     iteration # 21     ecut=    36.75 Ry     beta=0.30
     Davidson diagonalization with overlap
     ethr =  8.42E-09,  avg # of iterations =  1.1

     negative rho (up, down):  9.425E-01 0.000E+00

     negative rho (up, down):  9.425E-01 0.000E+00

     negative rho (up, down):  9.425E-01 0.000E+00

     negative rho (up, down):  9.425E-01 0.000E+00

     negative rho (up, down):  9.425E-01 0.000E+00

     negative rho (up, down):  9.425E-01 0.000E+00

     negative rho (up, down):  9.425E-01 0.000E+00

     negative rho (up, down):  9.425E-01 0.000E+00

     negative rho (up, down):  9.425E-01 0.000E+00

     negative rho (up, down):  9.425E-01 0.000E+00

     negative rho (up, down):  9.425E-01 0.000E+00

     negative rho (up, down):  9.425E-01 0.000E+00

     negative rho (up, down):  9.425E-01 0.000E+00

     negative rho (up, down):  9.425E-01 0.000E+00

     negative rho (up, down):  9.425E-01 0.000E+00

     negative rho (up, down):  9.425E-01 0.000E+00

     negative rho (up, down):  9.425E-01 0.000E+00

     negative rho (up, down):  9.425E-01 0.000E+00

     negative rho (up, down):  9.425E-01 0.000E+00

     negative rho (up, down):  9.425E-01 0.000E+00

     negative rho (up, down):  9.425E-01 0.000E+00

     negative rho (up, down):  9.425E-01 0.000E+00

     negative rho (up, down):  9.425E-01 0.000E+00

     negative rho (up, down):  9.425E-01 0.000E+00

     negative rho (up, down):  9.425E-01 0.000E+00

     negative rho (up, down):  9.425E-01 0.000E+00

     negative rho (up, down):  9.425E-01 0.000E+00

     negative rho (up, down):  9.425E-01 0.000E+00

     negative rho (up, down):  9.425E-01 0.000E+00

     negative rho (up, down):  9.425E-01 0.000E+00

     negative rho (up, down):  9.425E-01 0.000E+00

     negative rho (up, down):  9.425E-01 0.000E+00

     negative rho (up, down):  9.425E-01 0.000E+00

     negative rho (up, down):  9.425E-01 0.000E+00

     negative rho (up, down):  9.425E-01 0.000E+00
 
     Adding external electric field

     Computed dipole along edir(3) : 
        Dipole                0.2042 Ry au,          0.5191 Debye
        Dipole field          0.0006 Ry au
 
        Potential amp.       -0.0509 Ry
        Total length         45.3309 bohr
 

     total cpu time spent up to now is      504.0 secs

     End of self-consistent calculation

          k = 0.0000 0.0000 0.0000 ( 17231 PWs)   bands (ev):

   -50.2381 -49.5573 -49.5573 -48.7105 -48.6632 -48.6629 -48.6052 -48.5827
   -48.5821 -48.5175 -48.5066 -48.5061 -48.4935 -48.4235 -48.4233 -48.4082
   -48.3981 -48.3979 -48.3710 -48.2682 -48.2679 -48.2454 -48.2271 -48.2269
   -48.1711 -48.1710 -48.1594 -48.1589 -48.1568 -48.1030 -48.0827 -48.0823
   -48.0658 -48.0531 -48.0516 -48.0359 -13.6121  -6.1413  -4.4622  -3.4476
    -3.4474  -3.3990  -3.1774  -3.1659  -3.1657  -3.1456  -2.9838  -2.9836
    -2.9451  -2.7707  -2.6966  -2.6965  -2.6038  -2.4152  -2.4151  -1.6470
    -1.4552  -1.4552  -1.3692  -1.2191  -1.2008  -1.2007  -1.1355  -1.1352
    -0.9788  -0.9787  -0.8762  -0.8761  -0.8587  -0.6154  -0.5573  -0.5571
    -0.1831  -0.1826   0.0733   0.1482   0.1483   0.1938   0.1941   0.2038
     0.4158   0.5365   0.5365   0.8347   0.8349   0.9701   0.9791   0.9797
     1.0502   1.0504   1.0738   1.1142   1.1143   1.1752   1.1755   1.2191
     1.2676   1.2677   1.4416   1.4653   1.4654   1.4874   2.1088   3.3250
     3.5968   3.7611   3.7611   4.7999   4.9572

          k = 0.0000 0.0341 0.0000 ( 17192 PWs)   bands (ev):

   -50.2380 -49.5567 -49.5556 -48.7000 -48.6537 -48.6509 -48.6027 -48.5835
   -48.5818 -48.5154 -48.5151 -48.5105 -48.4955 -48.4384 -48.4268 -48.3985
   -48.3898 -48.3861 -48.3630 -48.2687 -48.2615 -48.2513 -48.2354 -48.2263
   -48.1860 -48.1747 -48.1713 -48.1657 -48.1579 -48.1010 -48.0832 -48.0822
   -48.0652 -48.0541 -48.0518 -48.0360 -13.6113  -6.1374  -4.2622  -3.3867
    -3.3848  -3.2200  -3.0805  -3.0371  -3.0242  -3.0049  -2.9005  -2.8576
    -2.8334  -2.6953  -2.6020  -2.5582  -2.4632  -2.3681  -2.3620  -1.6284
    -1.4276  -1.4121  -1.3525  -1.2856  -1.2654  -1.1776  -1.1016  -1.0727
    -1.0386  -0.9686  -0.9395  -0.8691  -0.7583  -0.7027  -0.6687  -0.5948
    -0.3063  -0.2759  -0.1647   0.0493   0.0801   0.1246   0.1273   0.1931
     0.2830   0.4102   0.5104   0.6764   0.6850   0.7341   0.8077   0.8356
     0.8851   0.8983   0.9614   1.0164   1.0356   1.0497   1.0885   1.0895
     1.1677   1.2219   1.2794   1.2963   1.3113   1.3612   2.3779   2.5298
     3.5144   3.6676   3.7678   3.7869   4.6386

          k = 0.0000 0.0683 0.0000 ( 17196 PWs)   bands (ev):

   -50.2380 -49.5555 -49.5522 -48.6760 -48.6295 -48.6191 -48.5960 -48.5860
   -48.5812 -48.5373 -48.5317 -48.5114 -48.4905 -48.4760 -48.4347 -48.3790
   -48.3690 -48.3499 -48.3413 -48.2717 -48.2684 -48.2573 -48.2431 -48.2245
   -48.2191 -48.2012 -48.1853 -48.1842 -48.1586 -48.0963 -48.0852 -48.0816
   -48.0636 -48.0566 -48.0520 -48.0362 -13.6099  -6.1306  -3.7254  -3.2703
    -3.2335  -2.9306  -2.8398  -2.7498  -2.7045  -2.6373  -2.5665  -2.5178
    -2.5092  -2.4783  -2.3938  -2.3073  -2.2569  -2.0993  -2.0446  -1.6545
    -1.6029  -1.5155  -1.4132  -1.3407  -1.2743  -1.1540  -1.1495  -1.1148
    -1.0111  -0.9982  -0.9231  -0.8271  -0.7605  -0.7281  -0.7106  -0.6987
    -0.5896  -0.4904  -0.4158  -0.2196  -0.1585  -0.1171  -0.0723  -0.0498
     0.0119   0.0458   0.1072   0.1145   0.2727   0.3895   0.4541   0.4558
     0.5697   0.6007   0.6065   0.6856   0.6998   0.8172   0.8208   0.9748
     1.0124   1.0645   1.1155   1.2457   1.2493   1.3261   1.5381   2.3988
     3.1383   3.6606   3.8085   4.5909   4.6345

          k = 0.0000-0.1024 0.0000 ( 17240 PWs)   bands (ev):

   -50.2380 -49.5549 -49.5505 -48.6611 -48.6103 -48.6011 -48.5923 -48.5826
   -48.5712 -48.5606 -48.5487 -48.5098 -48.5038 -48.4863 -48.4394 -48.3677
   -48.3537 -48.3293 -48.3013 -48.2908 -48.2873 -48.2641 -48.2510 -48.2254
   -48.2231 -48.2121 -48.2040 -48.1917 -48.1590 -48.0926 -48.0876 -48.0813
   -48.0621 -48.0585 -48.0521 -48.0363 -13.6092  -6.1276  -3.2431  -3.2121
    -3.1512  -2.9021  -2.7544  -2.5706  -2.5066  -2.4504  -2.3333  -2.2840
    -2.2391  -2.2354  -2.1302  -2.0519  -2.0429  -1.9036  -1.9019  -1.8455
    -1.5577  -1.5112  -1.4722  -1.4710  -1.4356  -1.3807  -1.2298  -1.2228
    -1.1244  -0.9844  -0.8369  -0.8205  -0.7448  -0.7153  -0.6818  -0.6464
    -0.6208  -0.5614  -0.5458  -0.5311  -0.4892  -0.3940  -0.2837  -0.2026
    -0.1591  -0.0801  -0.0481  -0.0251   0.0765   0.1102   0.1779   0.2048
     0.2323   0.2557   0.3695   0.5353   0.5902   0.6269   0.7291   0.9601
     0.9740   1.0030   1.1076   1.2412   1.2749   1.3104   1.7910   1.9074
     3.6477   3.6977   3.8382   4.1211   5.0297

          k = 0.0296-0.0171 0.0000 ( 17192 PWs)   bands (ev):

   -50.2380 -49.5567 -49.5556 -48.7000 -48.6535 -48.6511 -48.6027 -48.5832
   -48.5821 -48.5153 -48.5149 -48.5106 -48.4956 -48.4385 -48.4267 -48.3984
   -48.3899 -48.3860 -48.3630 -48.2687 -48.2615 -48.2513 -48.2355 -48.2262
   -48.1860 -48.1748 -48.1713 -48.1655 -48.1582 -48.1010 -48.0833 -48.0821
   -48.0652 -48.0540 -48.0519 -48.0360 -13.6113  -6.1374  -4.2622  -3.3867
    -3.3849  -3.2200  -3.0805  -3.0371  -3.0242  -3.0049  -2.9005  -2.8576
    -2.8335  -2.6953  -2.6019  -2.5582  -2.4632  -2.3681  -2.3620  -1.6284
    -1.4276  -1.4121  -1.3525  -1.2857  -1.2654  -1.1776  -1.1016  -1.0727
    -1.0386  -0.9686  -0.9395  -0.8690  -0.7583  -0.7027  -0.6687  -0.5949
    -0.3063  -0.2760  -0.1647   0.0493   0.0801   0.1246   0.1273   0.1931
     0.2830   0.4102   0.5104   0.6763   0.6851   0.7342   0.8076   0.8355
     0.8851   0.8984   0.9614   1.0164   1.0356   1.0497   1.0885   1.0895
     1.1676   1.2219   1.2794   1.2963   1.3114   1.3612   2.3779   2.5298
     3.5144   3.6676   3.7678   3.7869   4.6386

          k = 0.0296 0.0171 0.0000 ( 17192 PWs)   bands (ev):

   -50.2380 -49.5567 -49.5557 -48.7000 -48.6538 -48.6509 -48.6027 -48.5836
   -48.5816 -48.5155 -48.5152 -48.5104 -48.4954 -48.4383 -48.4269 -48.3985
   -48.3897 -48.3861 -48.3630 -48.2688 -48.2613 -48.2513 -48.2353 -48.2264
   -48.1861 -48.1747 -48.1711 -48.1648 -48.1592 -48.1010 -48.0830 -48.0823
   -48.0653 -48.0532 -48.0526 -48.0360 -13.6113  -6.1374  -4.2622  -3.3866
    -3.3849  -3.2199  -3.0807  -3.0370  -3.0242  -3.0050  -2.9004  -2.8578
    -2.8334  -2.6953  -2.6020  -2.5581  -2.4632  -2.3682  -2.3620  -1.6284
    -1.4275  -1.4121  -1.3526  -1.2857  -1.2655  -1.1776  -1.1014  -1.0726
    -1.0386  -0.9686  -0.9396  -0.8690  -0.7583  -0.7028  -0.6688  -0.5948
    -0.3059  -0.2763  -0.1648   0.0494   0.0802   0.1249   0.1272   0.1931
     0.2831   0.4102   0.5104   0.6762   0.6849   0.7342   0.8074   0.8357
     0.8852   0.8987   0.9612   1.0164   1.0356   1.0496   1.0888   1.0895
     1.1675   1.2219   1.2794   1.2963   1.3115   1.3611   2.3779   2.5298
     3.5145   3.6676   3.7677   3.7869   4.6385

          k = 0.0296 0.0512 0.0000 ( 17186 PWs)   bands (ev):

   -50.2380 -49.5555 -49.5534 -48.6820 -48.6340 -48.6315 -48.5982 -48.5858
   -48.5810 -48.5391 -48.5123 -48.5098 -48.5008 -48.4618 -48.4343 -48.3849
   -48.3682 -48.3671 -48.3479 -48.2717 -48.2706 -48.2473 -48.2382 -48.2291
   -48.2110 -48.1949 -48.1824 -48.1688 -48.1664 -48.0977 -48.0842 -48.0820
   -48.0642 -48.0552 -48.0525 -48.0361 -13.6103  -6.1322  -3.8876  -3.2991
    -3.2685  -2.9385  -2.9054  -2.8268  -2.7967  -2.7414  -2.6960  -2.6747
    -2.5693  -2.5402  -2.4110  -2.3969  -2.2979  -2.2554  -2.1343  -1.6284
    -1.5052  -1.4786  -1.3953  -1.3591  -1.3105  -1.2074  -1.1547  -1.0309
    -0.9877  -0.9728  -0.8900  -0.8231  -0.8048  -0.7827  -0.7295  -0.6008
    -0.5137  -0.4715  -0.4350  -0.0992  -0.0943  -0.0547   0.0154   0.0597
     0.1405   0.1902   0.2205   0.2464   0.3136   0.3810   0.5502   0.5838
     0.6050   0.6625   0.7437   0.7833   0.8856   0.9075   0.9627   0.9831
     1.0435   1.1318   1.1611   1.2210   1.2579   1.4627   2.1114   2.1583
     2.8914   3.1342   3.4670   4.3732   5.1659

          k = 0.0296-0.1195 0.0000 ( 17183 PWs)   bands (ev):

   -50.2380 -49.5542 -49.5513 -48.6576 -48.6111 -48.6037 -48.5912 -48.5825
   -48.5813 -48.5656 -48.5329 -48.5096 -48.5084 -48.4785 -48.4447 -48.3652
   -48.3463 -48.3280 -48.3220 -48.3013 -48.2750 -48.2680 -48.2369 -48.2238
   -48.2225 -48.2188 -48.1950 -48.1901 -48.1675 -48.0929 -48.0868 -48.0818
   -48.0624 -48.0581 -48.0523 -48.0363 -13.6092  -6.1277  -3.3032  -3.2016
    -3.1172  -2.7631  -2.6599  -2.5394  -2.4720  -2.4550  -2.3753  -2.3093
    -2.2690  -2.2459  -2.2121  -2.0992  -2.0709  -1.9364  -1.8693  -1.7878
    -1.6836  -1.5757  -1.5387  -1.4564  -1.3478  -1.3365  -1.2766  -1.2537
    -1.1119  -1.0744  -1.0063  -0.9157  -0.8498  -0.8353  -0.7467  -0.6952
    -0.6334  -0.5864  -0.5161  -0.4295  -0.4051  -0.3801  -0.2836  -0.1984
    -0.1238  -0.0716  -0.0002   0.0357   0.0967   0.1879   0.2667   0.2863
     0.3797   0.4614   0.5500   0.6697   0.7201   0.7918   0.8936   0.9251
     0.9484   1.0167   1.0623   1.1386   1.1517   1.2432   1.7343   2.1933
     2.2433   3.2277   3.6565   4.5755   5.3329

          k = 0.0296-0.0853 0.0000 ( 17183 PWs)   bands (ev):

   -50.2380 -49.5542 -49.5513 -48.6577 -48.6111 -48.6036 -48.5911 -48.5825
   -48.5815 -48.5649 -48.5336 -48.5096 -48.5085 -48.4783 -48.4447 -48.3652
   -48.3463 -48.3278 -48.3219 -48.3015 -48.2750 -48.2678 -48.2370 -48.2243
   -48.2229 -48.2188 -48.1950 -48.1895 -48.1675 -48.0929 -48.0869 -48.0817
   -48.0621 -48.0586 -48.0521 -48.0363 -13.6092  -6.1277  -3.3032  -3.2016
    -3.1172  -2.7631  -2.6599  -2.5394  -2.4719  -2.4551  -2.3753  -2.3093
    -2.2690  -2.2459  -2.2121  -2.0992  -2.0709  -1.9364  -1.8693  -1.7877
    -1.6836  -1.5757  -1.5386  -1.4564  -1.3478  -1.3363  -1.2765  -1.2538
    -1.1119  -1.0743  -1.0064  -0.9157  -0.8497  -0.8353  -0.7467  -0.6953
    -0.6336  -0.5865  -0.5161  -0.4295  -0.4051  -0.3801  -0.2836  -0.1984
    -0.1241  -0.0717  -0.0002   0.0359   0.0966   0.1880   0.2666   0.2865
     0.3797   0.4613   0.5500   0.6698   0.7200   0.7918   0.8933   0.9251
     0.9485   1.0167   1.0625   1.1386   1.1517   1.2432   1.7344   2.1933
     2.2433   3.2278   3.6565   4.5754   5.3330

          k = 0.0296-0.0512 0.0000 ( 17186 PWs)   bands (ev):

   -50.2380 -49.5556 -49.5533 -48.6822 -48.6337 -48.6317 -48.5982 -48.5854
   -48.5814 -48.5387 -48.5122 -48.5101 -48.5011 -48.4617 -48.4341 -48.3848
   -48.3683 -48.3671 -48.3477 -48.2718 -48.2706 -48.2476 -48.2382 -48.2290
   -48.2110 -48.1956 -48.1825 -48.1684 -48.1661 -48.0976 -48.0845 -48.0818
   -48.0640 -48.0560 -48.0519 -48.0361 -13.6103  -6.1322  -3.8876  -3.2992
    -3.2685  -2.9387  -2.9053  -2.8267  -2.7967  -2.7415  -2.6960  -2.6746
    -2.5693  -2.5402  -2.4109  -2.3969  -2.2979  -2.2554  -2.1343  -1.6283
    -1.5052  -1.4785  -1.3953  -1.3591  -1.3104  -1.2074  -1.1547  -1.0311
    -0.9876  -0.9728  -0.8900  -0.8230  -0.8048  -0.7827  -0.7296  -0.6007
    -0.5138  -0.4715  -0.4349  -0.0994  -0.0942  -0.0548   0.0153   0.0596
     0.1404   0.1904   0.2206   0.2464   0.3136   0.3810   0.5504   0.5836
     0.6051   0.6624   0.7437   0.7831   0.8855   0.9076   0.9628   0.9832
     1.0437   1.1319   1.1611   1.2211   1.2579   1.4627   2.1113   2.1583
     2.8915   3.1341   3.4671   4.3731   5.1659

          k = 0.0591-0.0341 0.0000 ( 17196 PWs)   bands (ev):

   -50.2380 -49.5555 -49.5522 -48.6761 -48.6293 -48.6190 -48.5961 -48.5856
   -48.5815 -48.5371 -48.5319 -48.5114 -48.4907 -48.4761 -48.4345 -48.3789
   -48.3691 -48.3499 -48.3414 -48.2716 -48.2683 -48.2574 -48.2431 -48.2244
   -48.2190 -48.2013 -48.1851 -48.1842 -48.1589 -48.0962 -48.0854 -48.0815
   -48.0636 -48.0564 -48.0522 -48.0362 -13.6099  -6.1306  -3.7254  -3.2703
    -3.2335  -2.9306  -2.8398  -2.7498  -2.7045  -2.6373  -2.5666  -2.5178
    -2.5091  -2.4783  -2.3937  -2.3073  -2.2569  -2.0994  -2.0446  -1.6545
    -1.6029  -1.5156  -1.4133  -1.3407  -1.2743  -1.1540  -1.1494  -1.1148
    -1.0111  -0.9982  -0.9231  -0.8272  -0.7606  -0.7280  -0.7105  -0.6986
    -0.5896  -0.4905  -0.4158  -0.2195  -0.1585  -0.1171  -0.0723  -0.0498
     0.0120   0.0458   0.1072   0.1145   0.2727   0.3895   0.4541   0.4558
     0.5696   0.6007   0.6065   0.6856   0.6998   0.8172   0.8208   0.9747
     1.0124   1.0645   1.1155   1.2456   1.2494   1.3260   1.5381   2.3988
     3.1383   3.6606   3.8085   4.5909   4.6345

          k = 0.0591-0.0000 0.0000 ( 17186 PWs)   bands (ev):

   -50.2380 -49.5555 -49.5534 -48.6821 -48.6339 -48.6316 -48.5982 -48.5855
   -48.5812 -48.5389 -48.5123 -48.5100 -48.5010 -48.4617 -48.4342 -48.3849
   -48.3683 -48.3671 -48.3479 -48.2718 -48.2706 -48.2472 -48.2382 -48.2290
   -48.2110 -48.1948 -48.1825 -48.1688 -48.1666 -48.0976 -48.0844 -48.0819
   -48.0642 -48.0550 -48.0527 -48.0361 -13.6103  -6.1322  -3.8876  -3.2991
    -3.2686  -2.9385  -2.9054  -2.8268  -2.7967  -2.7414  -2.6960  -2.6747
    -2.5693  -2.5402  -2.4110  -2.3969  -2.2979  -2.2554  -2.1344  -1.6284
    -1.5053  -1.4786  -1.3954  -1.3591  -1.3105  -1.2074  -1.1547  -1.0310
    -0.9877  -0.9728  -0.8900  -0.8231  -0.8048  -0.7826  -0.7295  -0.6008
    -0.5137  -0.4715  -0.4350  -0.0992  -0.0943  -0.0547   0.0154   0.0597
     0.1405   0.1902   0.2204   0.2464   0.3136   0.3810   0.5503   0.5838
     0.6051   0.6624   0.7437   0.7833   0.8856   0.9076   0.9627   0.9832
     1.0435   1.1318   1.1611   1.2210   1.2579   1.4627   2.1114   2.1583
     2.8914   3.1342   3.4670   4.3732   5.1659

          k = 0.0591 0.0341 0.0000 ( 17196 PWs)   bands (ev):

   -50.2380 -49.5555 -49.5523 -48.6759 -48.6297 -48.6191 -48.5959 -48.5862
   -48.5810 -48.5375 -48.5317 -48.5114 -48.4903 -48.4760 -48.4348 -48.3792
   -48.3689 -48.3500 -48.3417 -48.2718 -48.2677 -48.2571 -48.2431 -48.2245
   -48.2191 -48.2014 -48.1843 -48.1838 -48.1599 -48.0963 -48.0851 -48.0818
   -48.0640 -48.0549 -48.0533 -48.0362 -13.6099  -6.1306  -3.7254  -3.2702
    -3.2335  -2.9304  -2.8398  -2.7501  -2.7044  -2.6373  -2.5665  -2.5177
    -2.5094  -2.4783  -2.3938  -2.3072  -2.2569  -2.0993  -2.0448  -1.6547
    -1.6030  -1.5156  -1.4132  -1.3407  -1.2743  -1.1541  -1.1493  -1.1148
    -1.0112  -0.9981  -0.9233  -0.8271  -0.7603  -0.7280  -0.7106  -0.6986
    -0.5896  -0.4905  -0.4156  -0.2194  -0.1583  -0.1172  -0.0722  -0.0498
     0.0124   0.0457   0.1071   0.1145   0.2728   0.3895   0.4539   0.4559
     0.5695   0.6006   0.6065   0.6858   0.6997   0.8173   0.8208   0.9749
     1.0121   1.0648   1.1151   1.2456   1.2495   1.3259   1.5382   2.3988
     3.1384   3.6607   3.8085   4.5909   4.6345

          k = 0.0591-0.1365 0.0000 ( 17183 PWs)   bands (ev):

   -50.2380 -49.5541 -49.5513 -48.6574 -48.6113 -48.6039 -48.5910 -48.5826
   -48.5814 -48.5654 -48.5330 -48.5096 -48.5083 -48.4783 -48.4449 -48.3653
   -48.3463 -48.3284 -48.3222 -48.3014 -48.2739 -48.2679 -48.2370 -48.2247
   -48.2222 -48.2189 -48.1950 -48.1886 -48.1687 -48.0930 -48.0867 -48.0819
   -48.0629 -48.0570 -48.0528 -48.0363 -13.6092  -6.1277  -3.3032  -3.2015
    -3.1172  -2.7631  -2.6597  -2.5394  -2.4721  -2.4552  -2.3753  -2.3094
    -2.2690  -2.2458  -2.2121  -2.0992  -2.0709  -1.9364  -1.8694  -1.7878
    -1.6837  -1.5758  -1.5387  -1.4564  -1.3478  -1.3365  -1.2765  -1.2537
    -1.1119  -1.0744  -1.0064  -0.9156  -0.8498  -0.8354  -0.7467  -0.6951
    -0.6337  -0.5861  -0.5160  -0.4296  -0.4050  -0.3800  -0.2838  -0.1982
    -0.1239  -0.0714  -0.0003   0.0358   0.0968   0.1878   0.2667   0.2862
     0.3798   0.4612   0.5501   0.6698   0.7200   0.7917   0.8938   0.9251
     0.9483   1.0166   1.0623   1.1385   1.1518   1.2431   1.7343   2.1933
     2.2432   3.2278   3.6565   4.5755   5.3330

          k = 0.0591-0.1024 0.0000 ( 17208 PWs)   bands (ev):

   -50.2380 -49.5522 -49.5521 -48.6313 -48.6282 -48.5871 -48.5855 -48.5818
   -48.5738 -48.5636 -48.5633 -48.5165 -48.5083 -48.4635 -48.4632 -48.3418
   -48.3365 -48.3206 -48.3022 -48.3021 -48.3014 -48.2951 -48.2333 -48.2290
   -48.2134 -48.2131 -48.2024 -48.1877 -48.1860 -48.0895 -48.0892 -48.0820
   -48.0613 -48.0594 -48.0524 -48.0363 -13.6089  -6.1263  -3.1675  -3.1271
    -2.7435  -2.6509  -2.6179  -2.3855  -2.2716  -2.2671  -2.1978  -2.1928
    -2.1186  -2.0842  -2.0701  -2.0683  -2.0018  -1.9801  -1.9662  -1.7676
    -1.6800  -1.6674  -1.6626  -1.5950  -1.4400  -1.3952  -1.3921  -1.2441
    -1.1581  -1.1567  -1.1255  -1.1143  -1.0685  -1.0662  -0.8506  -0.7870
    -0.7790  -0.6441  -0.6203  -0.6175  -0.6075  -0.5235  -0.2828  -0.1463
    -0.1185   0.0142   0.0200   0.1003   0.1495   0.2511   0.2751   0.3020
     0.4817   0.6283   0.6706   0.7728   0.7939   0.7988   0.8845   0.8940
     0.9323   0.9389   0.9868   1.0211   1.0890   1.1202   1.2006   2.0759
     2.1280   2.4182   4.2171   4.2313   5.0122

          k = 0.0591-0.0683 0.0000 ( 17183 PWs)   bands (ev):

   -50.2380 -49.5542 -49.5513 -48.6578 -48.6109 -48.6033 -48.5913 -48.5825
   -48.5813 -48.5652 -48.5334 -48.5096 -48.5086 -48.4785 -48.4445 -48.3651
   -48.3464 -48.3279 -48.3220 -48.3015 -48.2748 -48.2678 -48.2369 -48.2246
   -48.2227 -48.2187 -48.1951 -48.1892 -48.1677 -48.0928 -48.0871 -48.0816
   -48.0622 -48.0584 -48.0522 -48.0363 -13.6092  -6.1277  -3.3032  -3.2016
    -3.1172  -2.7631  -2.6599  -2.5394  -2.4719  -2.4551  -2.3753  -2.3093
    -2.2690  -2.2459  -2.2121  -2.0992  -2.0709  -1.9365  -1.8693  -1.7877
    -1.6836  -1.5757  -1.5386  -1.4564  -1.3478  -1.3363  -1.2765  -1.2538
    -1.1119  -1.0743  -1.0065  -0.9156  -0.8497  -0.8353  -0.7467  -0.6953
    -0.6336  -0.5865  -0.5161  -0.4295  -0.4052  -0.3801  -0.2836  -0.1983
    -0.1242  -0.0717  -0.0002   0.0359   0.0966   0.1880   0.2666   0.2864
     0.3798   0.4613   0.5500   0.6698   0.7201   0.7917   0.8934   0.9251
     0.9485   1.0167   1.0625   1.1385   1.1517   1.2432   1.7344   2.1933
     2.2433   3.2278   3.6565   4.5754   5.3330

          k =-0.0887 0.0512 0.0000 ( 17240 PWs)   bands (ev):

   -50.2380 -49.5549 -49.5505 -48.6614 -48.6099 -48.6006 -48.5925 -48.5829
   -48.5707 -48.5609 -48.5490 -48.5098 -48.5038 -48.4866 -48.4392 -48.3676
   -48.3538 -48.3295 -48.3012 -48.2910 -48.2872 -48.2636 -48.2510 -48.2257
   -48.2232 -48.2120 -48.2036 -48.1918 -48.1592 -48.0925 -48.0879 -48.0812
   -48.0624 -48.0581 -48.0523 -48.0363 -13.6092  -6.1276  -3.2432  -3.2120
    -3.1511  -2.9021  -2.7544  -2.5705  -2.5065  -2.4505  -2.3333  -2.2840
    -2.2392  -2.2354  -2.1303  -2.0519  -2.0429  -1.9036  -1.9019  -1.8454
    -1.5576  -1.5113  -1.4723  -1.4710  -1.4357  -1.3806  -1.2298  -1.2228
    -1.1244  -0.9845  -0.8368  -0.8206  -0.7448  -0.7153  -0.6819  -0.6464
    -0.6206  -0.5614  -0.5457  -0.5310  -0.4893  -0.3940  -0.2836  -0.2026
    -0.1591  -0.0801  -0.0481  -0.0251   0.0766   0.1102   0.1778   0.2047
     0.2324   0.2557   0.3695   0.5353   0.5900   0.6270   0.7291   0.9600
     0.9741   1.0030   1.1076   1.2413   1.2748   1.3103   1.7909   1.9074
     3.6478   3.6977   3.8381   4.1211   5.0296

          k =-0.0887 0.0853 0.0000 ( 17183 PWs)   bands (ev):

   -50.2380 -49.5542 -49.5513 -48.6578 -48.6109 -48.6033 -48.5914 -48.5825
   -48.5813 -48.5655 -48.5331 -48.5096 -48.5086 -48.4785 -48.4446 -48.3651
   -48.3464 -48.3281 -48.3220 -48.3014 -48.2748 -48.2679 -48.2369 -48.2237
   -48.2226 -48.2187 -48.1951 -48.1900 -48.1677 -48.0929 -48.0870 -48.0816
   -48.0625 -48.0578 -48.0524 -48.0363 -13.6092  -6.1277  -3.3032  -3.2016
    -3.1172  -2.7631  -2.6599  -2.5393  -2.4719  -2.4551  -2.3753  -2.3093
    -2.2690  -2.2460  -2.2121  -2.0992  -2.0709  -1.9364  -1.8693  -1.7878
    -1.6836  -1.5757  -1.5387  -1.4564  -1.3478  -1.3365  -1.2766  -1.2537
    -1.1119  -1.0745  -1.0063  -0.9157  -0.8498  -0.8353  -0.7467  -0.6952
    -0.6334  -0.5864  -0.5161  -0.4295  -0.4051  -0.3800  -0.2835  -0.1983
    -0.1238  -0.0717  -0.0002   0.0357   0.0967   0.1879   0.2667   0.2864
     0.3797   0.4613   0.5500   0.6697   0.7201   0.7917   0.8935   0.9251
     0.9484   1.0168   1.0624   1.1385   1.1518   1.2431   1.7343   2.1933
     2.2433   3.2277   3.6565   4.5755   5.3329

          k =-0.0887 0.1195 0.0000 ( 17183 PWs)   bands (ev):

   -50.2380 -49.5541 -49.5513 -48.6575 -48.6113 -48.6039 -48.5909 -48.5825
   -48.5815 -48.5651 -48.5334 -48.5096 -48.5084 -48.4782 -48.4448 -48.3653
   -48.3463 -48.3285 -48.3222 -48.3015 -48.2739 -48.2678 -48.2370 -48.2244
   -48.2223 -48.2189 -48.1950 -48.1887 -48.1687 -48.0930 -48.0867 -48.0818
   -48.0629 -48.0569 -48.0529 -48.0363 -13.6092  -6.1277  -3.3032  -3.2015
    -3.1172  -2.7631  -2.6597  -2.5394  -2.4721  -2.4552  -2.3753  -2.3094
    -2.2690  -2.2458  -2.2121  -2.0992  -2.0709  -1.9364  -1.8694  -1.7878
    -1.6837  -1.5758  -1.5387  -1.4564  -1.3478  -1.3365  -1.2765  -1.2538
    -1.1119  -1.0745  -1.0064  -0.9156  -0.8498  -0.8354  -0.7467  -0.6951
    -0.6337  -0.5861  -0.5160  -0.4295  -0.4049  -0.3800  -0.2837  -0.1981
    -0.1238  -0.0715  -0.0003   0.0358   0.0968   0.1878   0.2667   0.2863
     0.3797   0.4612   0.5501   0.6698   0.7199   0.7917   0.8937   0.9251
     0.9483   1.0166   1.0623   1.1385   1.1518   1.2431   1.7343   2.1933
     2.2432   3.2278   3.6565   4.5755   5.3330

          k =-0.0887-0.0512 0.0000 ( 17240 PWs)   bands (ev):

   -50.2380 -49.5549 -49.5506 -48.6609 -48.6105 -48.6015 -48.5920 -48.5824
   -48.5717 -48.5604 -48.5486 -48.5098 -48.5037 -48.4861 -48.4395 -48.3679
   -48.3535 -48.3304 -48.3014 -48.2905 -48.2874 -48.2618 -48.2510 -48.2262
   -48.2246 -48.2122 -48.2017 -48.1916 -48.1602 -48.0927 -48.0874 -48.0815
   -48.0631 -48.0563 -48.0534 -48.0363 -13.6092  -6.1276  -3.2431  -3.2119
    -3.1511  -2.9022  -2.7541  -2.5709  -2.5066  -2.4504  -2.3336  -2.2840
    -2.2391  -2.2355  -2.1300  -2.0520  -2.0430  -1.9038  -1.9017  -1.8458
    -1.5576  -1.5113  -1.4722  -1.4713  -1.4356  -1.3807  -1.2298  -1.2229
    -1.1246  -0.9845  -0.8368  -0.8206  -0.7451  -0.7148  -0.6819  -0.6461
    -0.6210  -0.5611  -0.5460  -0.5308  -0.4892  -0.3940  -0.2832  -0.2026
    -0.1591  -0.0798  -0.0483  -0.0247   0.0769   0.1104   0.1777   0.2044
     0.2322   0.2556   0.3692   0.5356   0.5898   0.6269   0.7290   0.9603
     0.9747   1.0027   1.1072   1.2413   1.2749   1.3101   1.7909   1.9074
     3.6478   3.6977   3.8381   4.1212   5.0295

     the Fermi energy is     1.2375 ev

!    total energy              =   -2418.75064766 Ry
     Harris-Foulkes estimate   =   -2418.75063483 Ry
     estimated scf accuracy    <       0.00000511 Ry

     The total energy is the sum of the following terms:

     one-electron contribution =  -20559.77073065 Ry
     hartree contribution      =   10332.79715968 Ry
     xc contribution           =    -396.26022188 Ry
     ewald contribution        =    8204.61270462 Ry
     electric field correction =       0.00011471 Ry
     smearing contrib. (-TS)   =      -0.12967414 Ry

     convergence has been achieved in  21 iterations
 
 BEEF-vdW xc energy contributions
           1 :   -344.851448436477     
           2 :    314.895177633092     
           3 :   -263.897286594358     
           4 :    205.660009368590     
           5 :   -153.425651142861     
           6 :    115.544229007359     
           7 :   -93.7353575682514     
           8 :    84.1676736646734     
           9 :   -80.4448358565500     
          10 :    76.9067052408211     
          11 :   -70.7754070192855     
          12 :    62.4323202861069     
          13 :   -54.1269896289635     
          14 :    48.1043377646769     
          15 :   -45.2284256341030     
          16 :    44.7041797217535     
          17 :   -44.8041965101710     
          18 :    43.9808544690583     
          19 :   -41.6693872064544     
          20 :    38.3890150878003     
          21 :   -35.2150285978389     
          22 :    33.0310490706414     
          23 :   -32.0292000090717     
          24 :    31.7028824108060     
          25 :   -31.2588919109725     
          26 :    30.1422736263315     
          27 :   -28.3443216054244     
          28 :    26.3311230707624     
          29 :   -24.6840064097311     
          30 :    23.7092302169227     
          31 :   -33.7203950391066     
          32 :   -24.8692318544051     

     Forces acting on atoms (Ry/au):


     negative rho (up, down):  9.425E-01 0.000E+00
     atom    1 type  1   force =     0.00019619    0.00009031    0.00023848
     atom    2 type  1   force =    -0.00019374    0.00013012    0.00020589
     atom    3 type  1   force =     0.00003228   -0.00022188    0.00022097
     atom    4 type  1   force =    -0.00004417    0.00000331   -0.00313483
     atom    5 type  1   force =    -0.00003944   -0.00301801    0.00350813
     atom    6 type  1   force =     0.00004970    0.00006064   -0.00147650
     atom    7 type  1   force =     0.00264387    0.00149491    0.00343603
     atom    8 type  1   force =    -0.00265288    0.00146143    0.00348687
     atom    9 type  1   force =     0.00003786   -0.00000227   -0.06223731
     atom   10 type  1   force =    -0.00003562   -0.00171475    0.00035381
     atom   11 type  1   force =    -0.00147961    0.00083641    0.00035080
     atom   12 type  1   force =     0.00148635    0.00087915    0.00033916
     atom   13 type  2   force =     0.00000003    0.00000150    0.09886266
     atom   14 type  3   force =    -0.00000083   -0.00000088   -0.04415417

     Total force =     0.124924     Total SCF correction =     0.008866


     entering subroutine stress ...


     negative rho (up, down):  9.425E-01 0.000E+00
          total   stress  (Ry/bohr**3)                   (kbar)     P=   -6.84
  -0.00007239   0.00000000   0.00000001        -10.65      0.00      0.00
   0.00000000  -0.00007237  -0.00000001          0.00    -10.65     -0.00
   0.00000001  -0.00000001   0.00000526          0.00     -0.00      0.77


     BFGS Geometry Optimization

     number of scf cycles    =   1
     number of bfgs steps    =   0

     energy   new            =   -2418.7506476606 Ry

     new trust radius        =       0.0988626560 bohr
     new conv_thr            =       0.0000099958 Ry


ATOMIC_POSITIONS (crystal)
Pd1      0.166666667   0.166666667   0.406452311    0   0   0
Pd1      0.666666667   0.166666667   0.406452311    0   0   0
Pd1      0.166666667   0.666666667   0.406452311    0   0   0
Pd1      0.666666667   0.666666667   0.406452311    0   0   0
Pd1      0.833333333   0.333333333   0.500000000    0   0   0
Pd1      0.333333333   0.333333333   0.500000000    0   0   0
Pd1      0.833333333   0.833333333   0.500000000    0   0   0
Pd1      0.333333333   0.833333333   0.500000000    0   0   0
Pd1      0.000003676  -0.000000246   0.592209056
Pd1      0.500089584  -0.000185854   0.593555299
Pd1     -0.000184211   0.500090654   0.593555234
Pd1      0.500091873   0.500095287   0.593554984
N1      -0.000000079   0.000000163   0.668225817
H1      -0.000000030  -0.000000095   0.707827228



     Writing output data file calc.save
     Check: negative starting charge=   -0.903997
     NEW-OLD atomic charge density approx. for the potential
     Check: negative starting charge=   -0.906684

     negative rho (up, down):  9.453E-01 0.000E+00
 
     Adding external electric field

     Computed dipole along edir(3) : 
        Dipole                0.1737 Ry au,          0.4414 Debye
        Dipole field          0.0005 Ry au
 
        Potential amp.       -0.0433 Ry
        Total length         45.3309 bohr
 

     total cpu time spent up to now is      562.8 secs

     per-process dynamical memory:   112.1 Mb

     Self-consistent Calculation

     iteration #  1     ecut=    36.75 Ry     beta=0.30
     Davidson diagonalization with overlap
     ethr =  1.00E-06,  avg # of iterations =  4.5

     negative rho (up, down):  9.450E-01 0.000E+00
 
     Adding external electric field

     Computed dipole along edir(3) : 
        Dipole               -1.2884 Ry au,         -3.2748 Debye
        Dipole field         -0.0035 Ry au
 
        Potential amp.        0.3212 Ry
        Total length         45.3309 bohr
 

     total cpu time spent up to now is      591.9 secs

     total energy              =   -2418.58388549 Ry
     Harris-Foulkes estimate   =   -2418.75463049 Ry
     estimated scf accuracy    <       0.35475083 Ry

     iteration #  2     ecut=    36.75 Ry     beta=0.30
     Davidson diagonalization with overlap
     ethr =  1.79E-04,  avg # of iterations =  5.7

     negative rho (up, down):  9.451E-01 0.000E+00
 
     Adding external electric field

     Computed dipole along edir(3) : 
        Dipole                0.1124 Ry au,          0.2858 Debye
        Dipole field          0.0003 Ry au
 
        Potential amp.       -0.0280 Ry
        Total length         45.3309 bohr
 

     total cpu time spent up to now is      614.6 secs

     total energy              =   -2418.02087929 Ry
     Harris-Foulkes estimate   =   -2419.99907492 Ry
     estimated scf accuracy    <      47.47253382 Ry

     iteration #  3     ecut=    36.75 Ry     beta=0.30
     Davidson diagonalization with overlap
     ethr =  1.79E-04,  avg # of iterations =  4.0

     negative rho (up, down):  9.453E-01 0.000E+00
 
     Adding external electric field

     Computed dipole along edir(3) : 
        Dipole                0.0969 Ry au,          0.2464 Debye
        Dipole field          0.0003 Ry au
 
        Potential amp.       -0.0242 Ry
        Total length         45.3309 bohr
 

     total cpu time spent up to now is      636.6 secs

     total energy              =   -2418.68427632 Ry
     Harris-Foulkes estimate   =   -2418.85255262 Ry
     estimated scf accuracy    <       1.86945430 Ry

     iteration #  4     ecut=    36.75 Ry     beta=0.30
     Davidson diagonalization with overlap
     ethr =  1.79E-04,  avg # of iterations =  2.4

     negative rho (up, down):  9.453E-01 0.000E+00
 
     Adding external electric field

     Computed dipole along edir(3) : 
        Dipole                0.1281 Ry au,          0.3255 Debye
        Dipole field          0.0004 Ry au
 
        Potential amp.       -0.0319 Ry
        Total length         45.3309 bohr
 

     total cpu time spent up to now is      655.2 secs

     total energy              =   -2418.74408001 Ry
     Harris-Foulkes estimate   =   -2418.76156428 Ry
     estimated scf accuracy    <       0.41541073 Ry

     iteration #  5     ecut=    36.75 Ry     beta=0.30
     Davidson diagonalization with overlap
     ethr =  1.79E-04,  avg # of iterations =  1.0

     negative rho (up, down):  9.453E-01 0.000E+00
 
     Adding external electric field

     Computed dipole along edir(3) : 
        Dipole                0.1200 Ry au,          0.3049 Debye
        Dipole field          0.0003 Ry au
 
        Potential amp.       -0.0299 Ry
        Total length         45.3309 bohr
 

     total cpu time spent up to now is      673.2 secs

     total energy              =   -2418.74964515 Ry
     Harris-Foulkes estimate   =   -2418.75183328 Ry
     estimated scf accuracy    <       0.07072390 Ry

     iteration #  6     ecut=    36.75 Ry     beta=0.30
     Davidson diagonalization with overlap
     ethr =  3.57E-05,  avg # of iterations =  1.3

     negative rho (up, down):  9.453E-01 0.000E+00
 
     Adding external electric field

     Computed dipole along edir(3) : 
        Dipole                0.1238 Ry au,          0.3148 Debye
        Dipole field          0.0003 Ry au
 
        Potential amp.       -0.0309 Ry
        Total length         45.3309 bohr
 

     total cpu time spent up to now is      691.3 secs

     total energy              =   -2418.75076094 Ry
     Harris-Foulkes estimate   =   -2418.75091148 Ry
     estimated scf accuracy    <       0.00118578 Ry

     iteration #  7     ecut=    36.75 Ry     beta=0.30
     Davidson diagonalization with overlap
     ethr =  5.99E-07,  avg # of iterations =  5.0

     negative rho (up, down):  9.453E-01 0.000E+00
 
     Adding external electric field

     Computed dipole along edir(3) : 
        Dipole                0.1209 Ry au,          0.3072 Debye
        Dipole field          0.0003 Ry au
 
        Potential amp.       -0.0301 Ry
        Total length         45.3309 bohr
 

     total cpu time spent up to now is      711.7 secs

     total energy              =   -2418.75074809 Ry
     Harris-Foulkes estimate   =   -2418.75094490 Ry
     estimated scf accuracy    <       0.00650409 Ry

     iteration #  8     ecut=    36.75 Ry     beta=0.30
     Davidson diagonalization with overlap
     ethr =  5.99E-07,  avg # of iterations =  1.0

     negative rho (up, down):  9.452E-01 0.000E+00
 
     Adding external electric field

     Computed dipole along edir(3) : 
        Dipole                0.1235 Ry au,          0.3138 Debye
        Dipole field          0.0003 Ry au
 
        Potential amp.       -0.0308 Ry
        Total length         45.3309 bohr
 

     total cpu time spent up to now is      729.7 secs

     total energy              =   -2418.75082071 Ry
     Harris-Foulkes estimate   =   -2418.75085438 Ry
     estimated scf accuracy    <       0.00037781 Ry

     iteration #  9     ecut=    36.75 Ry     beta=0.30
     Davidson diagonalization with overlap
     ethr =  1.91E-07,  avg # of iterations =  1.0

     negative rho (up, down):  9.453E-01 0.000E+00
 
     Adding external electric field

     Computed dipole along edir(3) : 
        Dipole                0.1244 Ry au,          0.3161 Debye
        Dipole field          0.0003 Ry au
 
        Potential amp.       -0.0310 Ry
        Total length         45.3309 bohr
 

     total cpu time spent up to now is      747.6 secs

     total energy              =   -2418.75083298 Ry
     Harris-Foulkes estimate   =   -2418.75084680 Ry
     estimated scf accuracy    <       0.00013934 Ry

     iteration # 10     ecut=    36.75 Ry     beta=0.30
     Davidson diagonalization with overlap
     ethr =  7.04E-08,  avg # of iterations =  1.0

     negative rho (up, down):  9.452E-01 0.000E+00
 
     Adding external electric field

     Computed dipole along edir(3) : 
        Dipole                0.1255 Ry au,          0.3189 Debye
        Dipole field          0.0003 Ry au
 
        Potential amp.       -0.0313 Ry
        Total length         45.3309 bohr
 

     total cpu time spent up to now is      765.6 secs

     total energy              =   -2418.75084019 Ry
     Harris-Foulkes estimate   =   -2418.75084155 Ry
     estimated scf accuracy    <       0.00005291 Ry

     iteration # 11     ecut=    36.75 Ry     beta=0.30
     Davidson diagonalization with overlap
     ethr =  2.67E-08,  avg # of iterations =  1.3

     negative rho (up, down):  9.452E-01 0.000E+00
 
     Adding external electric field

     Computed dipole along edir(3) : 
        Dipole                0.1258 Ry au,          0.3197 Debye
        Dipole field          0.0003 Ry au
 
        Potential amp.       -0.0314 Ry
        Total length         45.3309 bohr
 

     total cpu time spent up to now is      783.7 secs

     total energy              =   -2418.75084252 Ry
     Harris-Foulkes estimate   =   -2418.75084383 Ry
     estimated scf accuracy    <       0.00014093 Ry

     iteration # 12     ecut=    36.75 Ry     beta=0.30
     Davidson diagonalization with overlap
     ethr =  2.67E-08,  avg # of iterations =  1.0

     negative rho (up, down):  9.453E-01 0.000E+00
 
     Adding external electric field

     Computed dipole along edir(3) : 
        Dipole                0.1261 Ry au,          0.3205 Debye
        Dipole field          0.0003 Ry au
 
        Potential amp.       -0.0314 Ry
        Total length         45.3309 bohr
 

     total cpu time spent up to now is      801.7 secs

     total energy              =   -2418.75084314 Ry
     Harris-Foulkes estimate   =   -2418.75084286 Ry
     estimated scf accuracy    <       0.00003885 Ry

     iteration # 13     ecut=    36.75 Ry     beta=0.30
     Davidson diagonalization with overlap
     ethr =  1.96E-08,  avg # of iterations =  1.0

     negative rho (up, down):  9.453E-01 0.000E+00

     negative rho (up, down):  9.453E-01 0.000E+00

     negative rho (up, down):  9.453E-01 0.000E+00

     negative rho (up, down):  9.453E-01 0.000E+00

     negative rho (up, down):  9.453E-01 0.000E+00

     negative rho (up, down):  9.453E-01 0.000E+00

     negative rho (up, down):  9.453E-01 0.000E+00

     negative rho (up, down):  9.453E-01 0.000E+00

     negative rho (up, down):  9.453E-01 0.000E+00

     negative rho (up, down):  9.453E-01 0.000E+00

     negative rho (up, down):  9.453E-01 0.000E+00

     negative rho (up, down):  9.453E-01 0.000E+00

     negative rho (up, down):  9.453E-01 0.000E+00

     negative rho (up, down):  9.453E-01 0.000E+00

     negative rho (up, down):  9.453E-01 0.000E+00

     negative rho (up, down):  9.453E-01 0.000E+00

     negative rho (up, down):  9.453E-01 0.000E+00

     negative rho (up, down):  9.453E-01 0.000E+00

     negative rho (up, down):  9.453E-01 0.000E+00

     negative rho (up, down):  9.453E-01 0.000E+00

     negative rho (up, down):  9.453E-01 0.000E+00

     negative rho (up, down):  9.453E-01 0.000E+00

     negative rho (up, down):  9.453E-01 0.000E+00

     negative rho (up, down):  9.453E-01 0.000E+00

     negative rho (up, down):  9.453E-01 0.000E+00

     negative rho (up, down):  9.453E-01 0.000E+00

     negative rho (up, down):  9.453E-01 0.000E+00

     negative rho (up, down):  9.453E-01 0.000E+00

     negative rho (up, down):  9.453E-01 0.000E+00

     negative rho (up, down):  9.453E-01 0.000E+00

     negative rho (up, down):  9.453E-01 0.000E+00

     negative rho (up, down):  9.453E-01 0.000E+00

     negative rho (up, down):  9.453E-01 0.000E+00

     negative rho (up, down):  9.453E-01 0.000E+00

     negative rho (up, down):  9.453E-01 0.000E+00
 
     Adding external electric field

     Computed dipole along edir(3) : 
        Dipole                0.1049 Ry au,          0.2665 Debye
        Dipole field          0.0003 Ry au
 
        Potential amp.       -0.0261 Ry
        Total length         45.3309 bohr
 

     total cpu time spent up to now is      867.9 secs

     End of self-consistent calculation

          k = 0.0000 0.0000 0.0000 ( 17231 PWs)   bands (ev):

   -49.9876 -49.4602 -49.4602 -48.8067 -48.7571 -48.7571 -48.7027 -48.6814
   -48.6813 -48.6088 -48.6005 -48.6005 -48.5888 -48.5158 -48.5158 -48.4963
   -48.4873 -48.4872 -48.4597 -48.3559 -48.3559 -48.3329 -48.3161 -48.3160
   -48.2606 -48.2606 -48.2472 -48.2472 -48.2462 -48.1913 -48.1708 -48.1707
   -48.1523 -48.1387 -48.1386 -48.1304 -13.7581  -5.8595  -4.5252  -3.4660
    -3.3892  -3.3892  -3.2684  -3.2367  -3.1839  -3.1839  -3.0497  -3.0497
    -3.0353  -2.8635  -2.7599  -2.7599  -2.6873  -2.3545  -2.3545  -1.7328
    -1.5286  -1.5286  -1.4601  -1.3077  -1.2902  -1.2902  -1.1991  -1.1991
    -1.0514  -1.0514  -0.9598  -0.9598  -0.9511  -0.6990  -0.5640  -0.5640
    -0.2674  -0.2673  -0.0412   0.0652   0.0652   0.1103   0.1103   0.1186
     0.3289   0.4576   0.4576   0.7508   0.7508   0.8799   0.9096   0.9096
     0.9629   0.9630   1.0017   1.0411   1.0411   1.0947   1.0948   1.1262
     1.1871   1.1871   1.3541   1.3765   1.3765   1.4000   2.0054   3.2872
     3.5414   3.6585   3.6585   4.7191   4.8616

          k = 0.0000 0.0341 0.0000 ( 17192 PWs)   bands (ev):

   -49.9876 -49.4594 -49.4582 -48.7963 -48.7477 -48.7452 -48.7003 -48.6824
   -48.6809 -48.6093 -48.6067 -48.6049 -48.5906 -48.5306 -48.5192 -48.4866
   -48.4791 -48.4751 -48.4516 -48.3568 -48.3494 -48.3389 -48.3245 -48.3152
   -48.2757 -48.2643 -48.2594 -48.2540 -48.2471 -48.1893 -48.1715 -48.1704
   -48.1517 -48.1397 -48.1386 -48.1304 -13.7575  -5.8513  -4.3295  -3.3258
    -3.2914  -3.2753  -3.1191  -3.1073  -3.0893  -3.0677  -2.9630  -2.9354
    -2.9252  -2.7863  -2.6662  -2.6125  -2.5417  -2.3204  -2.3126  -1.7131
    -1.4982  -1.4797  -1.4285  -1.3750  -1.3528  -1.2632  -1.1819  -1.1428
    -1.1163  -1.0486  -1.0167  -0.9557  -0.8400  -0.7543  -0.7239  -0.6210
    -0.3913  -0.3583  -0.2631  -0.0242   0.0006   0.0401   0.0416   0.1106
     0.2005   0.3227   0.4336   0.5987   0.6063   0.6655   0.7340   0.7517
     0.7992   0.8165   0.8809   0.9286   0.9476   0.9670   1.0011   1.0121
     1.0861   1.1284   1.1875   1.2078   1.2245   1.2663   2.2861   2.4306
     3.4354   3.5855   3.6693   3.7639   4.5655

          k = 0.0000 0.0683 0.0000 ( 17196 PWs)   bands (ev):

   -49.9875 -49.4580 -49.4542 -48.7725 -48.7234 -48.7150 -48.6933 -48.6843
   -48.6805 -48.6315 -48.6264 -48.6030 -48.5856 -48.5674 -48.5268 -48.4672
   -48.4584 -48.4383 -48.4299 -48.3594 -48.3564 -48.3459 -48.3313 -48.3150
   -48.3075 -48.2898 -48.2741 -48.2733 -48.2478 -48.1846 -48.1736 -48.1699
   -48.1501 -48.1423 -48.1387 -48.1306 -13.7562  -5.8381  -3.7995  -3.1518
    -3.1028  -2.9751  -2.8759  -2.8244  -2.7615  -2.7064  -2.6470  -2.6091
    -2.5993  -2.5638  -2.4529  -2.3061  -2.2402  -2.1443  -2.1190  -1.7323
    -1.6848  -1.6004  -1.4553  -1.4140  -1.3420  -1.2386  -1.2299  -1.2115
    -1.0702  -1.0634  -0.9956  -0.9028  -0.8470  -0.8149  -0.7960  -0.7849
    -0.6768  -0.5539  -0.4903  -0.2876  -0.2374  -0.1833  -0.1515  -0.1221
    -0.0697  -0.0412   0.0249   0.0315   0.1857   0.3192   0.3676   0.3681
     0.4878   0.5097   0.5143   0.6005   0.6179   0.7326   0.7356   0.8882
     0.9305   0.9789   1.0267   1.1533   1.1636   1.2281   1.4196   2.2945
     3.0644   3.5850   3.7111   4.5366   4.5919

          k = 0.0000-0.1024 0.0000 ( 17240 PWs)   bands (ev):

   -49.9875 -49.4573 -49.4521 -48.7578 -48.7036 -48.7008 -48.6900 -48.6823
   -48.6658 -48.6558 -48.6437 -48.6014 -48.5939 -48.5816 -48.5313 -48.4556
   -48.4432 -48.4180 -48.3890 -48.3790 -48.3749 -48.3512 -48.3429 -48.3138
   -48.3129 -48.2999 -48.2916 -48.2821 -48.2481 -48.1809 -48.1761 -48.1696
   -48.1489 -48.1440 -48.1388 -48.1307 -13.7556  -5.8327  -3.2548  -3.2222
    -3.0049  -2.8351  -2.7389  -2.6571  -2.5860  -2.4970  -2.4110  -2.3501
    -2.3278  -2.2943  -2.2250  -2.1263  -2.1100  -1.9734  -1.9248  -1.9111
    -1.6405  -1.5931  -1.5548  -1.5524  -1.4738  -1.4727  -1.3065  -1.2327
    -1.1962  -1.0463  -0.9219  -0.9043  -0.8239  -0.8068  -0.7618  -0.7275
    -0.7101  -0.6471  -0.6245  -0.6162  -0.5774  -0.4734  -0.3657  -0.2928
    -0.2338  -0.1330  -0.1205  -0.1145  -0.0062   0.0425   0.0899   0.1184
     0.1345   0.1700   0.2831   0.4465   0.5017   0.5322   0.6334   0.8741
     0.9012   0.9215   1.0184   1.1609   1.1847   1.2097   1.6669   1.7945
     3.5774   3.6423   3.7411   4.0518   4.9274

          k = 0.0296-0.0171 0.0000 ( 17192 PWs)   bands (ev):

   -49.9876 -49.4594 -49.4582 -48.7963 -48.7477 -48.7452 -48.7003 -48.6824
   -48.6809 -48.6093 -48.6067 -48.6049 -48.5906 -48.5306 -48.5192 -48.4866
   -48.4791 -48.4751 -48.4516 -48.3568 -48.3494 -48.3389 -48.3245 -48.3152
   -48.2757 -48.2643 -48.2594 -48.2539 -48.2471 -48.1893 -48.1714 -48.1705
   -48.1517 -48.1397 -48.1387 -48.1304 -13.7575  -5.8513  -4.3295  -3.3258
    -3.2914  -3.2753  -3.1191  -3.1073  -3.0893  -3.0677  -2.9630  -2.9354
    -2.9252  -2.7863  -2.6662  -2.6125  -2.5417  -2.3204  -2.3126  -1.7131
    -1.4982  -1.4797  -1.4285  -1.3750  -1.3528  -1.2632  -1.1819  -1.1428
    -1.1163  -1.0486  -1.0167  -0.9556  -0.8400  -0.7543  -0.7239  -0.6210
    -0.3912  -0.3583  -0.2632  -0.0242   0.0006   0.0401   0.0416   0.1106
     0.2005   0.3227   0.4336   0.5987   0.6063   0.6655   0.7339   0.7517
     0.7993   0.8166   0.8809   0.9286   0.9476   0.9670   1.0011   1.0122
     1.0861   1.1284   1.1875   1.2078   1.2245   1.2662   2.2861   2.4306
     3.4354   3.5855   3.6693   3.7639   4.5655

          k = 0.0296 0.0171 0.0000 ( 17192 PWs)   bands (ev):

   -49.9876 -49.4594 -49.4582 -48.7963 -48.7477 -48.7452 -48.7003 -48.6824
   -48.6809 -48.6093 -48.6067 -48.6049 -48.5906 -48.5306 -48.5192 -48.4866
   -48.4791 -48.4751 -48.4516 -48.3568 -48.3494 -48.3389 -48.3245 -48.3152
   -48.2757 -48.2643 -48.2594 -48.2540 -48.2471 -48.1893 -48.1714 -48.1705
   -48.1517 -48.1397 -48.1387 -48.1304 -13.7575  -5.8513  -4.3295  -3.3258
    -3.2914  -3.2753  -3.1191  -3.1073  -3.0893  -3.0677  -2.9630  -2.9354
    -2.9252  -2.7863  -2.6662  -2.6125  -2.5417  -2.3204  -2.3126  -1.7131
    -1.4982  -1.4797  -1.4285  -1.3750  -1.3528  -1.2632  -1.1819  -1.1428
    -1.1163  -1.0486  -1.0167  -0.9557  -0.8400  -0.7543  -0.7239  -0.6210
    -0.3912  -0.3583  -0.2632  -0.0242   0.0006   0.0401   0.0416   0.1106
     0.2005   0.3227   0.4336   0.5987   0.6063   0.6654   0.7340   0.7517
     0.7993   0.8165   0.8809   0.9286   0.9476   0.9670   1.0011   1.0121
     1.0861   1.1284   1.1875   1.2078   1.2245   1.2663   2.2861   2.4306
     3.4354   3.5855   3.6693   3.7639   4.5655

          k = 0.0296 0.0512 0.0000 ( 17186 PWs)   bands (ev):

   -49.9876 -49.4580 -49.4555 -48.7786 -48.7280 -48.7265 -48.6956 -48.6845
   -48.6803 -48.6331 -48.6043 -48.6037 -48.5962 -48.5534 -48.5265 -48.4733
   -48.4571 -48.4559 -48.4363 -48.3599 -48.3589 -48.3355 -48.3263 -48.3179
   -48.3013 -48.2836 -48.2721 -48.2567 -48.2555 -48.1860 -48.1727 -48.1702
   -48.1505 -48.1416 -48.1387 -48.1306 -13.7565  -5.8411  -3.9604  -3.1652
    -3.1538  -3.0054  -2.9492  -2.9047  -2.8655  -2.8024  -2.7781  -2.7535
    -2.6633  -2.6277  -2.4610  -2.4294  -2.2921  -2.2551  -2.1901  -1.7082
    -1.5902  -1.5434  -1.4683  -1.4212  -1.3870  -1.2898  -1.2415  -1.1082
    -1.0646  -1.0354  -0.9722  -0.9088  -0.8851  -0.8565  -0.7957  -0.6812
    -0.5926  -0.5547  -0.5078  -0.1797  -0.1629  -0.1203  -0.0623  -0.0162
     0.0531   0.1127   0.1375   0.1670   0.2262   0.2995   0.4605   0.4982
     0.5236   0.5776   0.6562   0.6995   0.7991   0.8256   0.8766   0.8979
     0.9625   1.0446   1.0730   1.1278   1.1729   1.3470   2.0215   2.0642
     2.8071   3.0461   3.3736   4.3687   5.0814

          k = 0.0296-0.1195 0.0000 ( 17183 PWs)   bands (ev):

   -49.9875 -49.4564 -49.4530 -48.7544 -48.7085 -48.6989 -48.6883 -48.6810
   -48.6780 -48.6598 -48.6278 -48.6025 -48.6011 -48.5707 -48.5368 -48.4535
   -48.4352 -48.4163 -48.4104 -48.3897 -48.3628 -48.3562 -48.3271 -48.3125
   -48.3113 -48.3075 -48.2851 -48.2779 -48.2567 -48.1812 -48.1753 -48.1701
   -48.1488 -48.1441 -48.1387 -48.1307 -13.7556  -5.8328  -3.3632  -3.0421
    -2.9888  -2.7634  -2.7069  -2.6114  -2.5574  -2.5196  -2.4483  -2.3955
    -2.3313  -2.3082  -2.2578  -2.1731  -2.1266  -1.9892  -1.9302  -1.8706
    -1.7604  -1.6414  -1.6001  -1.5332  -1.4345  -1.3940  -1.3510  -1.3232
    -1.1849  -1.1341  -1.0802  -0.9992  -0.9341  -0.9229  -0.8317  -0.7712
    -0.7163  -0.6658  -0.5909  -0.5112  -0.4896  -0.4700  -0.3682  -0.2748
    -0.1825  -0.1503  -0.0794  -0.0485   0.0130   0.1008   0.1772   0.2001
     0.2977   0.3737   0.4616   0.5879   0.6309   0.7018   0.8119   0.8398
     0.8653   0.9326   0.9739   1.0483   1.0624   1.1530   1.6118   2.0953
     2.1439   3.1402   3.5923   4.5197   5.3041

          k = 0.0296-0.0853 0.0000 ( 17183 PWs)   bands (ev):

   -49.9875 -49.4564 -49.4530 -48.7544 -48.7085 -48.6989 -48.6883 -48.6810
   -48.6780 -48.6597 -48.6279 -48.6025 -48.6011 -48.5707 -48.5367 -48.4535
   -48.4352 -48.4163 -48.4104 -48.3898 -48.3628 -48.3562 -48.3271 -48.3125
   -48.3114 -48.3075 -48.2851 -48.2779 -48.2567 -48.1812 -48.1753 -48.1700
   -48.1488 -48.1441 -48.1387 -48.1307 -13.7556  -5.8328  -3.3632  -3.0421
    -2.9888  -2.7635  -2.7069  -2.6114  -2.5574  -2.5196  -2.4483  -2.3955
    -2.3313  -2.3082  -2.2578  -2.1731  -2.1266  -1.9892  -1.9302  -1.8707
    -1.7604  -1.6414  -1.6002  -1.5332  -1.4345  -1.3940  -1.3510  -1.3232
    -1.1849  -1.1341  -1.0802  -0.9992  -0.9341  -0.9229  -0.8317  -0.7712
    -0.7163  -0.6658  -0.5909  -0.5112  -0.4896  -0.4700  -0.3682  -0.2748
    -0.1824  -0.1503  -0.0795  -0.0485   0.0130   0.1008   0.1772   0.2001
     0.2977   0.3737   0.4616   0.5879   0.6309   0.7018   0.8119   0.8398
     0.8653   0.9326   0.9739   1.0483   1.0624   1.1530   1.6118   2.0953
     2.1439   3.1402   3.5923   4.5197   5.3041

          k = 0.0296-0.0512 0.0000 ( 17186 PWs)   bands (ev):

   -49.9876 -49.4580 -49.4555 -48.7786 -48.7280 -48.7265 -48.6956 -48.6845
   -48.6803 -48.6330 -48.6044 -48.6037 -48.5962 -48.5534 -48.5265 -48.4733
   -48.4571 -48.4559 -48.4363 -48.3599 -48.3589 -48.3354 -48.3263 -48.3179
   -48.3013 -48.2835 -48.2721 -48.2567 -48.2555 -48.1859 -48.1727 -48.1702
   -48.1505 -48.1415 -48.1387 -48.1306 -13.7565  -5.8411  -3.9604  -3.1652
    -3.1538  -3.0054  -2.9492  -2.9047  -2.8655  -2.8024  -2.7781  -2.7535
    -2.6633  -2.6277  -2.4610  -2.4293  -2.2921  -2.2551  -2.1901  -1.7082
    -1.5902  -1.5434  -1.4683  -1.4212  -1.3870  -1.2898  -1.2415  -1.1082
    -1.0646  -1.0354  -0.9722  -0.9088  -0.8851  -0.8565  -0.7957  -0.6812
    -0.5926  -0.5547  -0.5078  -0.1797  -0.1629  -0.1203  -0.0623  -0.0162
     0.0531   0.1127   0.1375   0.1670   0.2262   0.2995   0.4605   0.4982
     0.5236   0.5776   0.6562   0.6995   0.7991   0.8256   0.8766   0.8979
     0.9625   1.0446   1.0730   1.1278   1.1729   1.3470   2.0215   2.0642
     2.8071   3.0461   3.3736   4.3687   5.0814

          k = 0.0591-0.0341 0.0000 ( 17196 PWs)   bands (ev):

   -49.9875 -49.4580 -49.4542 -48.7726 -48.7234 -48.7150 -48.6933 -48.6843
   -48.6805 -48.6315 -48.6265 -48.6030 -48.5856 -48.5674 -48.5268 -48.4672
   -48.4583 -48.4383 -48.4300 -48.3595 -48.3564 -48.3459 -48.3313 -48.3150
   -48.3075 -48.2898 -48.2741 -48.2732 -48.2479 -48.1846 -48.1736 -48.1699
   -48.1501 -48.1422 -48.1388 -48.1306 -13.7562  -5.8381  -3.7995  -3.1518
    -3.1027  -2.9751  -2.8759  -2.8244  -2.7614  -2.7064  -2.6470  -2.6091
    -2.5993  -2.5639  -2.4529  -2.3061  -2.2402  -2.1443  -2.1190  -1.7323
    -1.6848  -1.6004  -1.4553  -1.4140  -1.3420  -1.2386  -1.2299  -1.2115
    -1.0702  -1.0634  -0.9956  -0.9028  -0.8470  -0.8149  -0.7960  -0.7849
    -0.6768  -0.5539  -0.4903  -0.2876  -0.2374  -0.1833  -0.1515  -0.1221
    -0.0696  -0.0412   0.0249   0.0315   0.1857   0.3192   0.3676   0.3681
     0.4877   0.5097   0.5143   0.6005   0.6179   0.7326   0.7357   0.8882
     0.9305   0.9789   1.0267   1.1532   1.1637   1.2281   1.4196   2.2945
     3.0644   3.5850   3.7111   4.5366   4.5919

          k = 0.0591-0.0000 0.0000 ( 17186 PWs)   bands (ev):

   -49.9876 -49.4580 -49.4555 -48.7786 -48.7280 -48.7265 -48.6956 -48.6845
   -48.6803 -48.6330 -48.6043 -48.6037 -48.5962 -48.5534 -48.5265 -48.4733
   -48.4571 -48.4559 -48.4363 -48.3599 -48.3589 -48.3354 -48.3262 -48.3179
   -48.3013 -48.2835 -48.2721 -48.2567 -48.2555 -48.1860 -48.1726 -48.1703
   -48.1505 -48.1415 -48.1387 -48.1306 -13.7565  -5.8411  -3.9604  -3.1652
    -3.1538  -3.0054  -2.9492  -2.9047  -2.8655  -2.8024  -2.7781  -2.7535
    -2.6633  -2.6277  -2.4610  -2.4293  -2.2921  -2.2552  -2.1901  -1.7082
    -1.5902  -1.5434  -1.4683  -1.4212  -1.3870  -1.2898  -1.2415  -1.1082
    -1.0646  -1.0354  -0.9722  -0.9088  -0.8851  -0.8565  -0.7957  -0.6812
    -0.5926  -0.5547  -0.5078  -0.1797  -0.1629  -0.1203  -0.0623  -0.0162
     0.0531   0.1127   0.1375   0.1670   0.2262   0.2995   0.4605   0.4982
     0.5236   0.5776   0.6562   0.6995   0.7991   0.8255   0.8766   0.8979
     0.9625   1.0446   1.0730   1.1278   1.1729   1.3470   2.0215   2.0642
     2.8071   3.0461   3.3736   4.3687   5.0814

          k = 0.0591 0.0341 0.0000 ( 17196 PWs)   bands (ev):

   -49.9875 -49.4580 -49.4542 -48.7725 -48.7234 -48.7150 -48.6933 -48.6843
   -48.6805 -48.6315 -48.6264 -48.6030 -48.5855 -48.5674 -48.5268 -48.4672
   -48.4583 -48.4383 -48.4299 -48.3595 -48.3564 -48.3458 -48.3313 -48.3150
   -48.3075 -48.2898 -48.2741 -48.2733 -48.2478 -48.1846 -48.1735 -48.1700
   -48.1501 -48.1422 -48.1387 -48.1306 -13.7562  -5.8381  -3.7995  -3.1518
    -3.1027  -2.9751  -2.8759  -2.8244  -2.7615  -2.7064  -2.6470  -2.6091
    -2.5993  -2.5638  -2.4529  -2.3061  -2.2402  -2.1443  -2.1190  -1.7323
    -1.6848  -1.6004  -1.4553  -1.4140  -1.3420  -1.2386  -1.2299  -1.2115
    -1.0702  -1.0634  -0.9956  -0.9028  -0.8470  -0.8149  -0.7960  -0.7849
    -0.6768  -0.5539  -0.4903  -0.2876  -0.2374  -0.1833  -0.1515  -0.1221
    -0.0697  -0.0412   0.0249   0.0315   0.1857   0.3192   0.3676   0.3681
     0.4877   0.5097   0.5143   0.6005   0.6179   0.7326   0.7357   0.8882
     0.9305   0.9789   1.0267   1.1533   1.1637   1.2281   1.4196   2.2945
     3.0644   3.5850   3.7111   4.5366   4.5919

          k = 0.0591-0.1365 0.0000 ( 17183 PWs)   bands (ev):

   -49.9875 -49.4564 -49.4530 -48.7544 -48.7085 -48.6990 -48.6883 -48.6810
   -48.6780 -48.6597 -48.6278 -48.6025 -48.6011 -48.5707 -48.5368 -48.4535
   -48.4352 -48.4163 -48.4105 -48.3898 -48.3628 -48.3562 -48.3271 -48.3126
   -48.3113 -48.3075 -48.2850 -48.2779 -48.2567 -48.1813 -48.1752 -48.1701
   -48.1488 -48.1441 -48.1387 -48.1307 -13.7556  -5.8328  -3.3632  -3.0421
[...]
     0.9684   1.0164   1.0620   1.1919   1.2042   1.2746   1.4698   2.3508
     3.0915   3.6221   3.7549   4.5587   4.6081

          k = 0.0591-0.0000 0.0000 ( 17186 PWs)   bands (ev):

   -50.0432 -49.4759 -49.4735 -48.7432 -48.6864 -48.6859 -48.6550 -48.6466
   -48.6430 -48.5919 -48.5640 -48.5561 -48.5480 -48.5062 -48.4804 -48.4318
   -48.4163 -48.4157 -48.3880 -48.3194 -48.3095 -48.2862 -48.2855 -48.2777
   -48.2623 -48.2335 -48.2327 -48.2066 -48.2054 -48.1440 -48.1312 -48.1288
   -48.1001 -48.0939 -48.0895 -48.0871 -13.5561  -5.8559  -3.9218  -3.1913
    -3.1780  -2.9794  -2.9289  -2.8592  -2.8337  -2.7630  -2.7370  -2.7194
    -2.6170  -2.5765  -2.4295  -2.3964  -2.2792  -2.2504  -2.1609  -1.6627
    -1.5438  -1.5022  -1.4285  -1.3794  -1.3465  -1.2460  -1.2013  -1.0732
    -1.0287  -0.9991  -0.9353  -0.8612  -0.8477  -0.8176  -0.7642  -0.6377
    -0.5556  -0.5140  -0.4729  -0.1418  -0.1188  -0.0739  -0.0221   0.0269
     0.0924   0.1537   0.1775   0.2103   0.2686   0.3397   0.4970   0.5356
     0.5631   0.6190   0.6905   0.7359   0.8370   0.8607   0.9141   0.9363
     0.9991   1.0821   1.1091   1.1735   1.2193   1.3944   2.0629   2.1091
     2.8405   3.0878   3.4255   4.3613   5.1177

          k = 0.0591 0.0341 0.0000 ( 17196 PWs)   bands (ev):

   -50.0432 -49.4758 -49.4722 -48.7372 -48.6809 -48.6766 -48.6529 -48.6452
   -48.6434 -48.5908 -48.5858 -48.5471 -48.5458 -48.5195 -48.4805 -48.4252
   -48.4188 -48.3969 -48.3823 -48.3190 -48.3069 -48.3052 -48.2817 -48.2761
   -48.2671 -48.2397 -48.2347 -48.2234 -48.1977 -48.1427 -48.1321 -48.1285
   -48.0997 -48.0940 -48.0901 -48.0871 -13.5557  -5.8532  -3.7609  -3.1610
    -3.1393  -2.9549  -2.8587  -2.7805  -2.7386  -2.6739  -2.6065  -2.5662
    -2.5486  -2.5189  -2.4137  -2.2956  -2.2369  -2.1183  -2.0787  -1.6882
    -1.6392  -1.5570  -1.4195  -1.3710  -1.3004  -1.1977  -1.1842  -1.1683
    -1.0408  -1.0304  -0.9612  -0.8620  -0.8117  -0.7688  -0.7473  -0.7414
    -0.6385  -0.5181  -0.4549  -0.2425  -0.1986  -0.1416  -0.1098  -0.0788
    -0.0272   0.0003   0.0657   0.0784   0.2242   0.3641   0.4041   0.4073
     0.5281   0.5401   0.5483   0.6380   0.6580   0.7715   0.7724   0.9251
     0.9684   1.0164   1.0620   1.1919   1.2042   1.2746   1.4699   2.3508
     3.0915   3.6221   3.7549   4.5587   4.6081

          k = 0.0591-0.1365 0.0000 ( 17183 PWs)   bands (ev):

   -50.0432 -49.4743 -49.4712 -48.7191 -48.6732 -48.6576 -48.6479 -48.6438
   -48.6363 -48.6181 -48.5870 -48.5609 -48.5450 -48.5242 -48.4902 -48.4124
   -48.3950 -48.3727 -48.3650 -48.3493 -48.3160 -48.3126 -48.2880 -48.2673
   -48.2643 -48.2598 -48.2459 -48.2279 -48.2065 -48.1395 -48.1338 -48.1287
   -48.0987 -48.0941 -48.0916 -48.0871 -13.5550  -5.8483  -3.3275  -3.0638
    -3.0254  -2.7577  -2.6905  -2.5814  -2.5116  -2.4925  -2.4081  -2.3504
    -2.2974  -2.2792  -2.2346  -2.1379  -2.0918  -1.9560  -1.8955  -1.8310
    -1.7205  -1.6023  -1.5573  -1.4953  -1.3895  -1.3503  -1.3142  -1.2859
    -1.1440  -1.0854  -1.0335  -0.9579  -0.8884  -0.8780  -0.7951  -0.7318
    -0.6705  -0.6191  -0.5450  -0.4681  -0.4510  -0.4275  -0.3241  -0.2432
    -0.1420  -0.1114  -0.0342  -0.0110   0.0527   0.1389   0.2141   0.2408
     0.3388   0.4111   0.4954   0.6269   0.6646   0.7360   0.8494   0.8770
     0.9031   0.9712   1.0107   1.0836   1.1017   1.2008   1.6646   2.1438
     2.1908   3.1836   3.6245   4.5443   5.3182

          k = 0.0591-0.1024 0.0000 ( 17208 PWs)   bands (ev):

   -50.0432 -49.4721 -49.4721 -48.6946 -48.6906 -48.6451 -48.6425 -48.6414
   -48.6285 -48.6132 -48.6129 -48.5720 -48.5440 -48.5087 -48.5087 -48.3895
   -48.3835 -48.3677 -48.3514 -48.3508 -48.3436 -48.3312 -48.2759 -48.2729
   -48.2646 -48.2644 -48.2400 -48.2261 -48.2252 -48.1364 -48.1359 -48.1291
   -48.0980 -48.0941 -48.0925 -48.0871 -13.5547  -5.8461  -3.0448  -2.9828
    -2.7961  -2.6598  -2.6073  -2.4329  -2.3154  -2.3149  -2.2476  -2.2238
    -2.1542  -2.1274  -2.1093  -2.0889  -2.0481  -2.0326  -1.9782  -1.7871
    -1.7186  -1.6929  -1.6564  -1.6071  -1.4753  -1.4368  -1.4318  -1.2492
    -1.2035  -1.1987  -1.1758  -1.1383  -1.1235  -1.0848  -0.8357  -0.8285
    -0.8279  -0.6828  -0.6618  -0.6541  -0.6537  -0.5808  -0.3122  -0.1983
    -0.1363  -0.0314  -0.0299   0.0510   0.0887   0.2116   0.2247   0.2561
     0.4363   0.5815   0.6391   0.7247   0.7452   0.7513   0.8362   0.8445
     0.8923   0.9024   0.9344   0.9636   1.0316   1.0647   1.1492   2.0187
     2.0692   2.3655   4.1962   4.1968   4.9990

          k = 0.0591-0.0683 0.0000 ( 17183 PWs)   bands (ev):

   -50.0432 -49.4743 -49.4712 -48.7191 -48.6733 -48.6577 -48.6479 -48.6438
   -48.6363 -48.6181 -48.5870 -48.5609 -48.5450 -48.5242 -48.4902 -48.4124
   -48.3950 -48.3727 -48.3650 -48.3493 -48.3160 -48.3126 -48.2880 -48.2673
   -48.2643 -48.2597 -48.2459 -48.2279 -48.2066 -48.1395 -48.1337 -48.1287
   -48.0987 -48.0941 -48.0916 -48.0871 -13.5550  -5.8483  -3.3275  -3.0638
    -3.0254  -2.7577  -2.6905  -2.5814  -2.5116  -2.4925  -2.4081  -2.3504
    -2.2974  -2.2792  -2.2346  -2.1379  -2.0918  -1.9560  -1.8955  -1.8310
    -1.7205  -1.6023  -1.5573  -1.4953  -1.3895  -1.3503  -1.3142  -1.2858
    -1.1440  -1.0854  -1.0335  -0.9579  -0.8884  -0.8780  -0.7951  -0.7318
    -0.6705  -0.6190  -0.5450  -0.4681  -0.4510  -0.4275  -0.3241  -0.2432
    -0.1420  -0.1114  -0.0342  -0.0110   0.0528   0.1389   0.2141   0.2408
     0.3388   0.4111   0.4954   0.6269   0.6646   0.7360   0.8494   0.8770
     0.9031   0.9712   1.0107   1.0836   1.1017   1.2008   1.6646   2.1438
     2.1908   3.1836   3.6245   4.5443   5.3183

          k =-0.0887 0.0512 0.0000 ( 17240 PWs)   bands (ev):

   -50.0432 -49.4751 -49.4704 -48.7224 -48.6666 -48.6597 -48.6500 -48.6465
   -48.6241 -48.6152 -48.6030 -48.5457 -48.5433 -48.5422 -48.4846 -48.4139
   -48.4037 -48.3694 -48.3483 -48.3378 -48.3344 -48.3053 -48.3009 -48.2641
   -48.2628 -48.2590 -48.2433 -48.2416 -48.1980 -48.1392 -48.1345 -48.1283
   -48.0987 -48.0939 -48.0916 -48.0872 -13.5550  -5.8483  -3.2325  -3.1853
    -3.0551  -2.8266  -2.7641  -2.6067  -2.5547  -2.4810  -2.3683  -2.3173
    -2.2875  -2.2614  -2.1863  -2.0859  -2.0779  -1.9314  -1.8978  -1.8819
    -1.6064  -1.5462  -1.5087  -1.5074  -1.4423  -1.4367  -1.2626  -1.1905
    -1.1549  -0.9946  -0.8847  -0.8616  -0.7782  -0.7676  -0.7233  -0.6824
    -0.6542  -0.5986  -0.5786  -0.5776  -0.5370  -0.4301  -0.3342  -0.2478
    -0.1912  -0.1048  -0.0851  -0.0684   0.0353   0.0817   0.1283   0.1632
     0.1723   0.2141   0.3201   0.4782   0.5430   0.5641   0.6578   0.9109
     0.9403   0.9592   1.0538   1.2003   1.2209   1.2587   1.7247   1.8474
     3.6057   3.6796   3.7847   4.0716   4.9307

          k =-0.0887 0.0853 0.0000 ( 17183 PWs)   bands (ev):

   -50.0432 -49.4743 -49.4712 -48.7191 -48.6733 -48.6577 -48.6479 -48.6438
   -48.6363 -48.6181 -48.5870 -48.5609 -48.5450 -48.5242 -48.4902 -48.4124
   -48.3950 -48.3727 -48.3650 -48.3493 -48.3159 -48.3126 -48.2880 -48.2673
   -48.2643 -48.2597 -48.2459 -48.2279 -48.2066 -48.1395 -48.1337 -48.1287
   -48.0987 -48.0941 -48.0916 -48.0871 -13.5550  -5.8483  -3.3275  -3.0638
    -3.0254  -2.7577  -2.6905  -2.5814  -2.5116  -2.4925  -2.4081  -2.3504
    -2.2974  -2.2792  -2.2346  -2.1379  -2.0918  -1.9560  -1.8955  -1.8310
    -1.7205  -1.6023  -1.5573  -1.4953  -1.3895  -1.3503  -1.3142  -1.2858
    -1.1440  -1.0854  -1.0335  -0.9579  -0.8884  -0.8780  -0.7951  -0.7318
    -0.6705  -0.6190  -0.5450  -0.4681  -0.4510  -0.4275  -0.3241  -0.2432
    -0.1421  -0.1114  -0.0342  -0.0110   0.0527   0.1389   0.2141   0.2408
     0.3388   0.4111   0.4954   0.6269   0.6645   0.7360   0.8494   0.8770
     0.9031   0.9712   1.0107   1.0836   1.1017   1.2008   1.6646   2.1438
     2.1907   3.1836   3.6245   4.5443   5.3183

          k =-0.0887 0.1195 0.0000 ( 17183 PWs)   bands (ev):

   -50.0432 -49.4743 -49.4712 -48.7191 -48.6732 -48.6576 -48.6479 -48.6438
   -48.6363 -48.6181 -48.5870 -48.5609 -48.5450 -48.5242 -48.4902 -48.4124
   -48.3950 -48.3727 -48.3650 -48.3493 -48.3160 -48.3126 -48.2880 -48.2673
   -48.2643 -48.2597 -48.2459 -48.2279 -48.2065 -48.1395 -48.1338 -48.1287
   -48.0987 -48.0941 -48.0916 -48.0871 -13.5550  -5.8483  -3.3275  -3.0638
    -3.0254  -2.7577  -2.6905  -2.5814  -2.5116  -2.4925  -2.4081  -2.3504
    -2.2974  -2.2792  -2.2346  -2.1379  -2.0918  -1.9560  -1.8955  -1.8310
    -1.7205  -1.6023  -1.5572  -1.4953  -1.3895  -1.3503  -1.3142  -1.2858
    -1.1440  -1.0854  -1.0335  -0.9579  -0.8884  -0.8780  -0.7951  -0.7318
    -0.6705  -0.6191  -0.5450  -0.4681  -0.4510  -0.4275  -0.3241  -0.2432
    -0.1420  -0.1114  -0.0342  -0.0110   0.0527   0.1389   0.2141   0.2408
     0.3388   0.4111   0.4954   0.6269   0.6646   0.7360   0.8494   0.8770
     0.9031   0.9712   1.0107   1.0836   1.1017   1.2008   1.6646   2.1438
     2.1908   3.1836   3.6245   4.5443   5.3182

          k =-0.0887-0.0512 0.0000 ( 17240 PWs)   bands (ev):

   -50.0432 -49.4751 -49.4704 -48.7224 -48.6666 -48.6597 -48.6500 -48.6466
   -48.6240 -48.6153 -48.6031 -48.5457 -48.5433 -48.5422 -48.4846 -48.4139
   -48.4037 -48.3694 -48.3483 -48.3378 -48.3344 -48.3053 -48.3010 -48.2640
   -48.2628 -48.2590 -48.2433 -48.2417 -48.1980 -48.1392 -48.1346 -48.1283
   -48.0987 -48.0939 -48.0916 -48.0871 -13.5550  -5.8483  -3.2325  -3.1853
    -3.0551  -2.8266  -2.7641  -2.6067  -2.5547  -2.4810  -2.3684  -2.3173
    -2.2875  -2.2613  -2.1863  -2.0860  -2.0778  -1.9314  -1.8979  -1.8819
    -1.6064  -1.5461  -1.5087  -1.5074  -1.4423  -1.4367  -1.2626  -1.1905
    -1.1549  -0.9946  -0.8847  -0.8616  -0.7782  -0.7676  -0.7232  -0.6824
    -0.6542  -0.5986  -0.5787  -0.5776  -0.5370  -0.4301  -0.3341  -0.2478
    -0.1912  -0.1049  -0.0851  -0.0684   0.0353   0.0817   0.1283   0.1632
     0.1723   0.2141   0.3201   0.4782   0.5430   0.5641   0.6578   0.9109
     0.9403   0.9593   1.0538   1.2003   1.2209   1.2587   1.7247   1.8475
     3.6057   3.6796   3.7847   4.0716   4.9307

     the Fermi energy is     1.1894 ev

!    total energy              =   -2418.75537243 Ry
     Harris-Foulkes estimate   =   -2418.75537088 Ry
     estimated scf accuracy    <       0.00000005 Ry

     The total energy is the sum of the following terms:

     one-electron contribution =  -20568.20207920 Ry
     hartree contribution      =   10336.83772515 Ry
     xc contribution           =    -396.25859201 Ry
     ewald contribution        =    8208.99779934 Ry
     electric field correction =       0.00006686 Ry
     smearing contrib. (-TS)   =      -0.13029256 Ry

     convergence has been achieved in  11 iterations
 
 BEEF-vdW xc energy contributions
           1 :   -344.844501939289     
           2 :    314.872703452629     
           3 :   -263.855517483595     
           4 :    205.609635219352     
           5 :   -153.384247829665     
           6 :    115.525081209995     
           7 :   -93.7407598274423     
           8 :    84.1902272154433     
           9 :   -80.4735956013740     
          10 :    76.9330806169384     
          11 :   -70.7954816636410     
          12 :    62.4461471736511     
          13 :   -54.1370574885159     
          14 :    48.1137866703879     
          15 :   -45.2397222259524     
          16 :    44.7192876762382     
          17 :   -44.8244124117214     
          18 :    44.0055456746717     
          19 :   -41.6950718732470     
          20 :    38.4100051025795     
          21 :   -35.2258261237254     
          22 :    33.0296150935171     
          23 :   -32.0189271862520     
          24 :    31.6913772205355     
          25 :   -31.2537506544396     
          26 :    30.1469199509208     
          27 :   -28.3567169943495     
          28 :    26.3453883963669     
          29 :   -24.6941414332319     
          30 :    23.7126023335754     
          31 :   -33.7199957175513     
          32 :   -24.8656681377913     

     Forces acting on atoms (Ry/au):


     negative rho (up, down):  9.434E-01 0.000E+00
     atom    1 type  1   force =     0.00025238    0.00014677    0.00010341
     atom    2 type  1   force =    -0.00025143    0.00014236    0.00010047
     atom    3 type  1   force =    -0.00000332   -0.00029012    0.00010330
     atom    4 type  1   force =     0.00000378    0.00000087   -0.00270088
     atom    5 type  1   force =    -0.00000011   -0.00047325    0.00135936
     atom    6 type  1   force =     0.00000005    0.00000153    0.00144665
     atom    7 type  1   force =     0.00041002    0.00023580    0.00135075
     atom    8 type  1   force =    -0.00041064    0.00023620    0.00136285
     atom    9 type  1   force =     0.00001515   -0.00000112   -0.00014799
     atom   10 type  1   force =    -0.00001448    0.00155957   -0.00046022
     atom   11 type  1   force =     0.00135178   -0.00078840   -0.00046342
     atom   12 type  1   force =    -0.00135098   -0.00077209   -0.00046664
     atom   13 type  2   force =    -0.00000541    0.00000360   -0.00063562
     atom   14 type  3   force =     0.00000321   -0.00000173   -0.00095203

     Total force =     0.003046     Total SCF correction =     0.000709
     SCF correction compared to forces is large: reduce conv_thr to get better values


     entering subroutine stress ...


     negative rho (up, down):  9.434E-01 0.000E+00
          total   stress  (Ry/bohr**3)                   (kbar)     P=   -8.41
  -0.00007637   0.00000000  -0.00000000        -11.23      0.00     -0.00
   0.00000000  -0.00007637   0.00000000          0.00    -11.23      0.00
  -0.00000000   0.00000000  -0.00001869         -0.00      0.00     -2.75


     bfgs converged in   9 scf cycles and   8 bfgs steps
     (criteria: energy <  1.0E+00, force <  1.9E-03)

     End of BFGS Geometry Optimization

     Final energy   =   -2418.7553724297 Ry
Begin final coordinates

ATOMIC_POSITIONS (crystal)
Pd1      0.166666667   0.166666667   0.406452311    0   0   0
Pd1      0.666666667   0.166666667   0.406452311    0   0   0
Pd1      0.166666667   0.666666667   0.406452311    0   0   0
Pd1      0.666666667   0.666666667   0.406452311    0   0   0
Pd1      0.833333333   0.333333333   0.500000000    0   0   0
Pd1      0.333333333   0.333333333   0.500000000    0   0   0
Pd1      0.833333333   0.833333333   0.500000000    0   0   0
Pd1      0.333333333   0.833333333   0.500000000    0   0   0
Pd1     -0.000003672  -0.000000641   0.591279905
Pd1      0.500793846  -0.001572270   0.594058215
Pd1     -0.001577032   0.500792404   0.594059001
Pd1      0.500788049   0.500782444   0.594060730
N1      -0.000006599   0.000002749   0.666400723
H1       0.000003189  -0.000000968   0.707931723
End final coordinates



     Writing output data file calc.save
 
     init_run     :     10.89s CPU     11.15s WALL (       1 calls)
     electrons    :   2526.41s CPU   2665.61s WALL (       9 calls)
     update_pot   :     24.33s CPU     25.57s WALL (       8 calls)
     forces       :    121.35s CPU    128.16s WALL (       9 calls)
     stress       :    372.86s CPU    383.35s WALL (       9 calls)

     Called by init_run:
     wfcinit      :      4.54s CPU      4.61s WALL (       1 calls)
     potinit      :      1.83s CPU      1.93s WALL (       1 calls)

     Called by electrons:
     c_bands      :   1056.85s CPU   1096.42s WALL (     109 calls)
     sum_band     :    501.72s CPU    525.14s WALL (     109 calls)
     v_of_rho     :    174.38s CPU    191.20s WALL (     116 calls)
     newd         :    395.32s CPU    403.86s WALL (     116 calls)
     mix_rho      :      6.09s CPU      6.22s WALL (     109 calls)
     vdW_energy   :     88.65s CPU     99.01s WALL (     440 calls)
     vdW_ffts     :    226.84s CPU    238.90s WALL (     898 calls)
     vdW_v        :     87.34s CPU     91.19s WALL (     440 calls)

     Called by c_bands:
     init_us_2    :      5.79s CPU      5.83s WALL (    1185 calls)
     cegterg      :    988.20s CPU   1012.00s WALL (     545 calls)

     Called by *egterg:
     h_psi        :    659.02s CPU    671.63s WALL (    1823 calls)
     s_psi        :     56.11s CPU     56.17s WALL (    1823 calls)
     g_psi        :      3.56s CPU      3.57s WALL (    1273 calls)
     cdiaghg      :     79.53s CPU     80.11s WALL (    1768 calls)

     Called by h_psi:
     add_vuspsi   :     57.43s CPU     57.49s WALL (    1823 calls)

     General routines
     calbec       :     91.08s CPU     92.42s WALL (    2458 calls)
     fft          :    347.95s CPU    375.16s WALL (   26599 calls)
     ffts         :      0.41s CPU      0.43s WALL (     225 calls)
     fftw         :    422.29s CPU    433.56s WALL (  336947 calls)
     interpolate  :      3.75s CPU      3.86s WALL (     225 calls)
     davcio       :      0.00s CPU      0.03s WALL (       5 calls)
 
     Parallel routines
     fft_scatter  :    431.67s CPU    470.27s WALL (  363771 calls)
 
     PWSCF        : 51m30.52s CPU    54m12.74s WALL

 
   This run was terminated on:  22:37:41  21Apr2018            

=------------------------------------------------------------------------------=
   JOB DONE.
=------------------------------------------------------------------------------=
Job  /afs/slac/g/suncat/bin/suncat-tsmpirun -x LD_LIBRARY_PATH -wdir /scratch/qe448404_XriKi pw.x -npool 4 -in pw.inp

TID   HOST_NAME   COMMAND_LINE            STATUS            TERMINATION_TIME
===== ========== ================  =======================  ===================
00000 suncat0143 pw.x -npool 4 -i  Done                     04/21/2018 22:37:41
00001 suncat0143 pw.x -npool 4 -i  Done                     04/21/2018 22:37:41
00002 suncat0143 pw.x -npool 4 -i  Done                     04/21/2018 22:37:41
00003 suncat0143 pw.x -npool 4 -i  Done                     04/21/2018 22:37:41
00004 suncat0143 pw.x -npool 4 -i  Done                     04/21/2018 22:37:41
00005 suncat0143 pw.x -npool 4 -i  Done                     04/21/2018 22:37:41
00006 suncat0143 pw.x -npool 4 -i  Done                     04/21/2018 22:37:41
00007 suncat0143 pw.x -npool 4 -i  Done                     04/21/2018 22:37:41
00008 suncat0249 pw.x -npool 4 -i  Done                     04/21/2018 22:37:41
00009 suncat0249 pw.x -npool 4 -i  Done                     04/21/2018 22:37:41
00010 suncat0249 pw.x -npool 4 -i  Done                     04/21/2018 22:37:41
00011 suncat0249 pw.x -npool 4 -i  Done                     04/21/2018 22:37:41
00012 suncat0249 pw.x -npool 4 -i  Done                     04/21/2018 22:37:41
00013 suncat0249 pw.x -npool 4 -i  Done                     04/21/2018 22:37:41
00014 suncat0249 pw.x -npool 4 -i  Done                     04/21/2018 22:37:41
00015 suncat0249 pw.x -npool 4 -i  Done                     04/21/2018 22:37:41
00016 suncat0238 pw.x -npool 4 -i  Done                     04/21/2018 22:37:41
00017 suncat0238 pw.x -npool 4 -i  Done                     04/21/2018 22:37:41
00018 suncat0238 pw.x -npool 4 -i  Done                     04/21/2018 22:37:41
00019 suncat0238 pw.x -npool 4 -i  Done                     04/21/2018 22:37:41
00020 suncat0238 pw.x -npool 4 -i  Done                     04/21/2018 22:37:41
00021 suncat0238 pw.x -npool 4 -i  Done                     04/21/2018 22:37:41
00022 suncat0238 pw.x -npool 4 -i  Done                     04/21/2018 22:37:41
00023 suncat0238 pw.x -npool 4 -i  Done                     04/21/2018 22:37:41
00024 suncat0200 pw.x -npool 4 -i  Done                     04/21/2018 22:37:41
00025 suncat0200 pw.x -npool 4 -i  Done                     04/21/2018 22:37:41
00026 suncat0200 pw.x -npool 4 -i  Done                     04/21/2018 22:37:41
00027 suncat0200 pw.x -npool 4 -i  Done                     04/21/2018 22:37:41
00028 suncat0200 pw.x -npool 4 -i  Done                     04/21/2018 22:37:41
00029 suncat0200 pw.x -npool 4 -i  Done                     04/21/2018 22:37:41
00030 suncat0200 pw.x -npool 4 -i  Done                     04/21/2018 22:37:41
00031 suncat0200 pw.x -npool 4 -i  Done                     04/21/2018 22:37:41
