  python dir          : /u/if/mamunm/src/espresso
  espresso dir        : /nfs/slac/g/suncatfs/sw/espv18/espresso-dynpy-beef/bin
  pseudo dir          : /u/if/mamunm/psp/gbrv1.5pbe
  ase-espresso py git : GITVERSION



     Program PWSCF v.5.1rc2 (svn rev. 11289) starts on  2May2018 at 17:15:25 

     This program is part of the open-source Quantum ESPRESSO suite
     for quantum simulation of materials; please cite
         "P. Giannozzi et al., J. Phys.:Condens. Matter 21 395502 (2009);
          URL http://www.quantum-espresso.org", 
     in publications or presentations arising from this work. More details at
     http://www.quantum-espresso.org/quote

     Parallel version (MPI), running on    32 processors
     K-points division:     npool     =       4
     R & G space division:  proc/nbgrp/npool/nimage =       8
     Reading input from pw.inp
     Message from routine read_cards :
     DEPRECATED: no units specified in CELL_PARAMETERS card

     Current dimensions of program PWSCF are:
     Max number of different atomic species (ntypx) = 10
     Max number of k-points (npk) =  40000
     Max angular momentum in pseudopotentials (lmaxx) =  3
     Presently stress not available with electric field


     **************************************************************************
     Initializing libbeef V0.1.1 with the BEEF-vdW functional.
     Citation: Wellendorff et al., PRB 85, 235149 (2012).
     **************************************************************************


     IMPORTANT: XC functional enforced from input :
     Exchange-correlation      = BEEF-VDW ( 1  4 27 13 2)
     Any further DFT definition will be discarded
     Please, verify this is what you really want


     Subspace diagonalization in iterative solution of the eigenvalue problem:
     a serial algorithm will be used

 
     Parallelization info
     --------------------
     sticks:   dense  smooth     PW     G-vecs:    dense   smooth      PW
     Min         339     133     39                63987    16111    2561
     Max         340     134     40                64016    16172    2582
     Sum        2713    1069    313               511963   129143   20533
 


     bravais-lattice index     =            0
     lattice parameter (alat)  =       1.8897  a.u.
     unit-cell volume          =    4301.6107 (a.u.)^3
     number of atoms/cell      =           13
     number of atomic types    =            2
     number of electrons       =       186.00
     number of Kohn-Sham states=          103
     kinetic-energy cutoff     =      36.7493  Ry
     charge density cutoff     =     367.4932  Ry
     convergence threshold     =      1.0E-05
     mixing beta               =       0.3000
     number of iterations used =           10  plain     mixing
     Exchange-correlation      = BEEF-VDW ( 1  4 27 13 2)
     nstep                     =           50


     celldm(1)=   1.889726  celldm(2)=   0.000000  celldm(3)=   0.000000
     celldm(4)=   0.000000  celldm(5)=   0.000000  celldm(6)=   0.000000

     crystal axes: (cart. coord. in units of alat)
               a(1) = (   5.483647   0.000000   0.000000 )  
               a(2) = (   2.741823   4.748977   0.000000 )  
               a(3) = (   0.000000   0.000000  24.477379 )  

     reciprocal axes: (cart. coord. in units 2 pi/alat)
               b(1) = (  0.182360 -0.105286  0.000000 )  
               b(2) = (  0.000000  0.210572  0.000000 )  
               b(3) = (  0.000000  0.000000  0.040854 )  


     PseudoPot. # 1 for Tc read from file:
     /u/if/mamunm/psp/gbrv1.5pbe/Tc.UPF
     MD5 check sum: 9eb49e5b028550b2339a02317eb7b844
     Pseudo is Ultrasoft + core correction, Zval = 15.0
     Generated by new atomic code, or converted to UPF format
     Using radial grid of  965 points,  6 beta functions with: 
                l(1) =   0
                l(2) =   0
                l(3) =   1
                l(4) =   1
                l(5) =   2
                l(6) =   2
     Q(r) pseudized with  8 coefficients,  rinner =    1.300   1.300   1.300
                                                       1.300   1.300

     PseudoPot. # 2 for O  read from file:
     /u/if/mamunm/psp/gbrv1.5pbe/O.UPF
     MD5 check sum: 734c27235a0248c51dbae37a1fbe46ec
     Pseudo is Ultrasoft + core correction, Zval =  6.0
     Generated by new atomic code, or converted to UPF format
     Using radial grid of  737 points,  5 beta functions with: 
                l(1) =   0
                l(2) =   0
                l(3) =   1
                l(4) =   1
                l(5) =   2
     Q(r) pseudized with  8 coefficients,  rinner =    0.900   0.900   0.900
                                                       0.900   0.900

     vdW kernel table read from file vdW_kernel_table
     MD5 check sum: 095c7af220d748ca6e76c0b4c6cfb241

     atomic species   valence    mass     pseudopotential
        Tc1           15.00    97.90721     Tc( 1.00)
        O1             6.00    15.99900     O ( 1.00)

     No symmetry found



   Cartesian axes

     site n.     atom                  positions (alat units)
         1           Tc1 tau(   1) = (   1.3709117   0.7914962  10.0000000  )
         2           Tc1 tau(   2) = (   4.1127351   0.7914962  10.0000000  )
         3           Tc1 tau(   3) = (   2.7418234   3.1659850  10.0000000  )
         4           Tc1 tau(   4) = (   5.4836469   3.1659850  10.0000000  )
         5           Tc1 tau(   5) = (   5.4836469   1.5829925  12.2386895  )
         6           Tc1 tau(   6) = (   2.7418234   1.5829925  12.2386895  )
         7           Tc1 tau(   7) = (   6.8545586   3.9574812  12.2386895  )
         8           Tc1 tau(   8) = (   4.1127351   3.9574812  12.2386895  )
         9           Tc1 tau(   9) = (   0.0000000   0.0000000  14.4773789  )
        10           Tc1 tau(  10) = (   2.7418234   0.0000000  14.4773789  )
        11           Tc1 tau(  11) = (   1.3709117   2.3744887  14.4773789  )
        12           Tc1 tau(  12) = (   4.1127351   2.3744887  14.4773789  )
        13           O1  tau(  13) = (   1.3709117   0.7914962  15.8618789  )

     number of k points=    20  Fermi-Dirac smearing, width (Ry)=  0.0110
                       cart. coord. in units 2pi/alat
        k(    1) = (   0.0000000   0.0000000   0.0000000), wk =   0.0555556
        k(    2) = (   0.0000000   0.0350953   0.0000000), wk =   0.1111111
        k(    3) = (   0.0000000   0.0701905   0.0000000), wk =   0.1111111
        k(    4) = (   0.0000000  -0.1052858   0.0000000), wk =   0.0555556
        k(    5) = (   0.0303934  -0.0175476   0.0000000), wk =   0.1111111
        k(    6) = (   0.0303934   0.0175476   0.0000000), wk =   0.1111111
        k(    7) = (   0.0303934   0.0526429   0.0000000), wk =   0.1111111
        k(    8) = (   0.0303934  -0.1228335   0.0000000), wk =   0.1111111
        k(    9) = (   0.0303934  -0.0877382   0.0000000), wk =   0.1111111
        k(   10) = (   0.0303934  -0.0526429   0.0000000), wk =   0.1111111
        k(   11) = (   0.0607868  -0.0350953   0.0000000), wk =   0.1111111
        k(   12) = (   0.0607868   0.0000000   0.0000000), wk =   0.1111111
        k(   13) = (   0.0607868   0.0350953   0.0000000), wk =   0.1111111
        k(   14) = (   0.0607868  -0.1403811   0.0000000), wk =   0.1111111
        k(   15) = (   0.0607868  -0.1052858   0.0000000), wk =   0.1111111
        k(   16) = (   0.0607868  -0.0701905   0.0000000), wk =   0.1111111
        k(   17) = (  -0.0911802   0.0526429   0.0000000), wk =   0.0555556
        k(   18) = (  -0.0911802   0.0877382   0.0000000), wk =   0.1111111
        k(   19) = (  -0.0911802   0.1228335   0.0000000), wk =   0.1111111
        k(   20) = (  -0.0911802  -0.0526429   0.0000000), wk =   0.0555556

     Dense  grid:   511963 G-vectors     FFT dimensions: (  64,  64, 288)

     Smooth grid:   129143 G-vectors     FFT dimensions: (  40,  40, 180)

     Largest allocated arrays     est. size (Mb)     dimensions
        Kohn-Sham Wavefunctions         3.21 Mb     (    2045,  103)
        NL pseudopotentials             7.15 Mb     (    2045,  229)
        Each V/rho on FFT grid          2.25 Mb     (  147456)
        Each G-vector array             0.49 Mb     (   63995)
        G-vector shells                 0.13 Mb     (   17029)
     Largest temporary arrays     est. size (Mb)     dimensions
        Auxiliary wavefunctions        12.86 Mb     (    2045,  412)
        Each subspace H/S matrix        2.59 Mb     (     412,  412)
        Each <psi_i|beta_j> matrix      0.36 Mb     (     229,  103)
        Arrays for rho mixing          22.50 Mb     (  147456,   10)

     Check: negative/imaginary core charge=   -0.000022    0.000000

     Initial potential from superposition of free atoms
     Check: negative starting charge=   -1.505094

     starting charge  173.99967, renormalised to  186.00000

     negative rho (up, down):  1.609E+00 0.000E+00


     ************************************************************************
     *
     * You are using vdW-DF for exchange-correlation in this calculation.
     * Please cite the following three references that made this development
     * possible:
     *
     *   M. Dion, H. Rydberg, E. Schroder, D. C. Langreth, and
     *   B. I. Lundqvist, Phys. Rev. Lett. 92, 246401 (2004).
     *
     *   T. Thonhauser, V. R. Cooper, S. Li, A. Puzder, P. Hyldgaard, and
     *   D. C. Langreth, Phys. Rev. B 76, 125112 (2007).
     *
     *   G. Roman-Perez and J. M. Soler, Phys. Rev. Lett. 103, 096102 (2009).
     *
     *
     * If you are using vdW-DF2, please also cite:
     *
     *   K. Lee, E. D. Murray, L. Kong, B. I. Lundqvist, and
     *   D. C. Langreth, Phys. Rev. B 82, 081101(R) (2010).
     *
     *
     * If you are calculating the stress with vdW-DF, please also cite:
     *
     *   R. Sabatini, E. Kucukbenli, B. Kolb, T. Thonhauser, and
     *   S. de Gironcoli, J. Phys.: Condens. Matter 24, 424209 (2012).
     *
     ************************************************************************

     Carrying out vdW-DF run using the following parameters:

     Nqs =      20    Nr_points =    1024   r_max =   100.000
     q_mesh =
               0.00001000     0.04494208     0.09755937     0.15916263
               0.23128650     0.31572767     0.41458969     0.53033537
               0.66584808     0.82450364     1.01025438     1.22772762
               1.48234092     1.78043706     2.12944203     2.53805004
               3.01644009     3.57652955     4.23227104     5.00000000

     Gradients computed in reciprocal space

     ************************************************************************


 
     Adding external electric field

     Computed dipole along edir(3) : 
        Dipole               -2.8332 Ry au,         -7.2014 Debye
        Dipole field         -0.0083 Ry au
 
        Potential amp.        0.7466 Ry
        Total length         45.0992 bohr
 
     Starting wfc are  160 randomized atomic wfcs

     total cpu time spent up to now is       10.9 secs

     per-process dynamical memory:    74.9 Mb

     Self-consistent Calculation

     iteration #  1     ecut=    36.75 Ry     beta=0.30
     Davidson diagonalization with overlap
     ethr =  1.00E-02,  avg # of iterations =  8.5

     negative rho (up, down):  1.602E+00 0.000E+00
 
     Adding external electric field

     Computed dipole along edir(3) : 
        Dipole               68.6068 Ry au,        174.3811 Debye
        Dipole field          0.2004 Ry au
 
        Potential amp.      -18.0777 Ry
        Total length         45.0992 bohr
 

     total cpu time spent up to now is       32.0 secs

     total energy              =   -1907.24551434 Ry
     Harris-Foulkes estimate   =   -2131.84637563 Ry
     estimated scf accuracy    <     473.42147157 Ry

     iteration #  2     ecut=    36.75 Ry     beta=0.30
     Davidson diagonalization with overlap
     ethr =  1.00E-02,  avg # of iterations = 18.6

     negative rho (up, down):  1.571E+00 0.000E+00
 
     Adding external electric field

     Computed dipole along edir(3) : 
        Dipole               11.8932 Ry au,         30.2295 Debye
        Dipole field          0.0347 Ry au
 
        Potential amp.       -3.1338 Ry
        Total length         45.0992 bohr
 

     total cpu time spent up to now is       85.0 secs

     total energy              =   -1807.25018059 Ry
     Harris-Foulkes estimate   =   -3016.93670906 Ry
     estimated scf accuracy    <   19399.97509743 Ry

     iteration #  3     ecut=    36.75 Ry     beta=0.30
     Davidson diagonalization with overlap
     ethr =  1.00E-02,  avg # of iterations = 10.9

     negative rho (up, down):  1.557E+00 0.000E+00
 
     Adding external electric field

     Computed dipole along edir(3) : 
        Dipole               13.2823 Ry au,         33.7602 Debye
        Dipole field          0.0388 Ry au
 
        Potential amp.       -3.4999 Ry
        Total length         45.0992 bohr
 

     total cpu time spent up to now is      122.6 secs

     total energy              =   -2063.03801334 Ry
     Harris-Foulkes estimate   =   -2316.16696334 Ry
     estimated scf accuracy    <    3119.84117462 Ry

     iteration #  4     ecut=    36.75 Ry     beta=0.30
     Davidson diagonalization with overlap
     ethr =  1.00E-02,  avg # of iterations =  7.0

     negative rho (up, down):  1.594E+00 0.000E+00
 
     Adding external electric field

     Computed dipole along edir(3) : 
        Dipole                8.9837 Ry au,         22.8344 Debye
        Dipole field          0.0262 Ry au
 
        Potential amp.       -2.3672 Ry
        Total length         45.0992 bohr
 

     total cpu time spent up to now is      147.7 secs

     total energy              =   -2119.54672640 Ry
     Harris-Foulkes estimate   =   -2154.37007043 Ry
     estimated scf accuracy    <     490.19580297 Ry

     iteration #  5     ecut=    36.75 Ry     beta=0.30
     Davidson diagonalization with overlap
     ethr =  1.00E-02,  avg # of iterations =  6.7

     negative rho (up, down):  1.587E+00 0.000E+00
 
     Adding external electric field

     Computed dipole along edir(3) : 
        Dipole                9.1726 Ry au,         23.3144 Debye
        Dipole field          0.0268 Ry au
 
        Potential amp.       -2.4170 Ry
        Total length         45.0992 bohr
 

     total cpu time spent up to now is      174.4 secs

     total energy              =   -2137.08797555 Ry
     Harris-Foulkes estimate   =   -2147.39165795 Ry
     estimated scf accuracy    <     139.86428704 Ry

     iteration #  6     ecut=    36.75 Ry     beta=0.30
     Davidson diagonalization with overlap
     ethr =  1.00E-02,  avg # of iterations =  4.0

     negative rho (up, down):  1.580E+00 0.000E+00
 
     Adding external electric field

     Computed dipole along edir(3) : 
        Dipole                8.4863 Ry au,         21.5701 Debye
        Dipole field          0.0248 Ry au
 
        Potential amp.       -2.2361 Ry
        Total length         45.0992 bohr
 

     total cpu time spent up to now is      192.0 secs

     total energy              =   -2137.58141383 Ry
     Harris-Foulkes estimate   =   -2140.52325418 Ry
     estimated scf accuracy    <     109.23281657 Ry

     iteration #  7     ecut=    36.75 Ry     beta=0.30
     Davidson diagonalization with overlap
     ethr =  1.00E-02,  avg # of iterations =  1.4

     negative rho (up, down):  1.576E+00 0.000E+00
 
     Adding external electric field

     Computed dipole along edir(3) : 
        Dipole                9.1463 Ry au,         23.2476 Debye
        Dipole field          0.0267 Ry au
 
        Potential amp.       -2.4100 Ry
        Total length         45.0992 bohr
 

     total cpu time spent up to now is      207.2 secs

     total energy              =   -2139.01517063 Ry
     Harris-Foulkes estimate   =   -2138.52806557 Ry
     estimated scf accuracy    <      11.52102546 Ry

     iteration #  8     ecut=    36.75 Ry     beta=0.30
     Davidson diagonalization with overlap
     ethr =  6.19E-03,  avg # of iterations =  2.6

     negative rho (up, down):  1.604E+00 0.000E+00
 
     Adding external electric field

     Computed dipole along edir(3) : 
        Dipole                3.9001 Ry au,          9.9130 Debye
        Dipole field          0.0114 Ry au
 
        Potential amp.       -1.0277 Ry
        Total length         45.0992 bohr
 

     total cpu time spent up to now is      223.3 secs

     total energy              =   -2135.78161900 Ry
     Harris-Foulkes estimate   =   -2139.33129799 Ry
     estimated scf accuracy    <       8.14416769 Ry

     iteration #  9     ecut=    36.75 Ry     beta=0.30
     Davidson diagonalization with overlap
     ethr =  4.38E-03,  avg # of iterations =  2.5

     negative rho (up, down):  1.603E+00 0.000E+00
 
     Adding external electric field

     Computed dipole along edir(3) : 
        Dipole                3.5641 Ry au,          9.0590 Debye
        Dipole field          0.0104 Ry au
 
        Potential amp.       -0.9391 Ry
        Total length         45.0992 bohr
 

     total cpu time spent up to now is      240.2 secs

     total energy              =   -2136.37249061 Ry
     Harris-Foulkes estimate   =   -2136.65146599 Ry
     estimated scf accuracy    <      13.75193873 Ry

     iteration # 10     ecut=    36.75 Ry     beta=0.30
     Davidson diagonalization with overlap
     ethr =  4.38E-03,  avg # of iterations =  1.0

     negative rho (up, down):  1.601E+00 0.000E+00
 
     Adding external electric field

     Computed dipole along edir(3) : 
        Dipole                3.2035 Ry au,          8.1424 Debye
        Dipole field          0.0094 Ry au
 
        Potential amp.       -0.8441 Ry
        Total length         45.0992 bohr
 

     total cpu time spent up to now is      255.3 secs

     total energy              =   -2136.37960398 Ry
     Harris-Foulkes estimate   =   -2136.48559273 Ry
     estimated scf accuracy    <       8.08144474 Ry

     iteration # 11     ecut=    36.75 Ry     beta=0.30
     Davidson diagonalization with overlap
     ethr =  4.34E-03,  avg # of iterations =  1.0

     negative rho (up, down):  1.600E+00 0.000E+00
 
     Adding external electric field

     Computed dipole along edir(3) : 
        Dipole                2.2218 Ry au,          5.6472 Debye
        Dipole field          0.0065 Ry au
 
        Potential amp.       -0.5854 Ry
        Total length         45.0992 bohr
 

     total cpu time spent up to now is      270.4 secs

     total energy              =   -2136.15523961 Ry
     Harris-Foulkes estimate   =   -2136.43192342 Ry
     estimated scf accuracy    <       6.86903379 Ry

     iteration # 12     ecut=    36.75 Ry     beta=0.30
     Davidson diagonalization with overlap
     ethr =  3.69E-03,  avg # of iterations =  1.0

     negative rho (up, down):  1.600E+00 0.000E+00
 
     Adding external electric field

     Computed dipole along edir(3) : 
        Dipole               -1.1801 Ry au,         -2.9995 Debye
        Dipole field         -0.0034 Ry au
 
        Potential amp.        0.3110 Ry
        Total length         45.0992 bohr
 

     total cpu time spent up to now is      285.7 secs

     total energy              =   -2135.66830785 Ry
     Harris-Foulkes estimate   =   -2136.19999378 Ry
     estimated scf accuracy    <       2.66209417 Ry

     iteration # 13     ecut=    36.75 Ry     beta=0.30
     Davidson diagonalization with overlap
     ethr =  1.43E-03,  avg # of iterations =  6.5

     negative rho (up, down):  1.600E+00 0.000E+00
 
     Adding external electric field

     Computed dipole along edir(3) : 
        Dipole               -0.7600 Ry au,         -1.9318 Debye
        Dipole field         -0.0022 Ry au
 
        Potential amp.        0.2003 Ry
        Total length         45.0992 bohr
 

     total cpu time spent up to now is      306.2 secs

     total energy              =   -2135.99438661 Ry
     Harris-Foulkes estimate   =   -2136.19949861 Ry
     estimated scf accuracy    <       8.82795785 Ry

     iteration # 14     ecut=    36.75 Ry     beta=0.30
     Davidson diagonalization with overlap
     ethr =  1.43E-03,  avg # of iterations =  1.0

     negative rho (up, down):  1.602E+00 0.000E+00
 
     Adding external electric field

     Computed dipole along edir(3) : 
        Dipole               -0.9915 Ry au,         -2.5202 Debye
        Dipole field         -0.0029 Ry au
 
        Potential amp.        0.2613 Ry
        Total length         45.0992 bohr
 

     total cpu time spent up to now is      321.3 secs

     total energy              =   -2136.08489332 Ry
     Harris-Foulkes estimate   =   -2136.04758877 Ry
     estimated scf accuracy    <       1.60447569 Ry

     iteration # 15     ecut=    36.75 Ry     beta=0.30
     Davidson diagonalization with overlap
     ethr =  8.63E-04,  avg # of iterations =  1.0

     negative rho (up, down):  1.597E+00 0.000E+00
 
     Adding external electric field

     Computed dipole along edir(3) : 
        Dipole               -0.3809 Ry au,         -0.9680 Debye
        Dipole field         -0.0011 Ry au
 
        Potential amp.        0.1004 Ry
        Total length         45.0992 bohr
 

     total cpu time spent up to now is      336.4 secs

     total energy              =   -2135.93064903 Ry
     Harris-Foulkes estimate   =   -2136.09760589 Ry
     estimated scf accuracy    <       1.23588807 Ry

     iteration # 16     ecut=    36.75 Ry     beta=0.30
     Davidson diagonalization with overlap
     ethr =  6.64E-04,  avg # of iterations =  4.0

     negative rho (up, down):  1.593E+00 0.000E+00
 
     Adding external electric field

     Computed dipole along edir(3) : 
        Dipole                0.0485 Ry au,          0.1233 Debye
        Dipole field          0.0001 Ry au
 
        Potential amp.       -0.0128 Ry
        Total length         45.0992 bohr
 

     total cpu time spent up to now is      353.2 secs

     total energy              =   -2135.95285877 Ry
     Harris-Foulkes estimate   =   -2135.99380273 Ry
     estimated scf accuracy    <       0.22007666 Ry

     iteration # 17     ecut=    36.75 Ry     beta=0.30
     Davidson diagonalization with overlap
     ethr =  1.18E-04,  avg # of iterations =  5.5

     negative rho (up, down):  1.594E+00 0.000E+00
 
     Adding external electric field

     Computed dipole along edir(3) : 
        Dipole                0.0737 Ry au,          0.1874 Debye
        Dipole field          0.0002 Ry au
 
        Potential amp.       -0.0194 Ry
        Total length         45.0992 bohr
 

     total cpu time spent up to now is      372.9 secs

     total energy              =   -2135.98506368 Ry
     Harris-Foulkes estimate   =   -2135.99175881 Ry
     estimated scf accuracy    <       0.49776263 Ry

     iteration # 18     ecut=    36.75 Ry     beta=0.30
     Davidson diagonalization with overlap
     ethr =  1.18E-04,  avg # of iterations =  1.0

     negative rho (up, down):  1.592E+00 0.000E+00
 
     Adding external electric field

     Computed dipole along edir(3) : 
        Dipole               -0.0210 Ry au,         -0.0535 Debye
        Dipole field         -0.0001 Ry au
 
        Potential amp.        0.0055 Ry
        Total length         45.0992 bohr
 

     total cpu time spent up to now is      388.0 secs

     total energy              =   -2135.98063047 Ry
     Harris-Foulkes estimate   =   -2135.98684867 Ry
     estimated scf accuracy    <       0.17838151 Ry

     iteration # 19     ecut=    36.75 Ry     beta=0.30
     Davidson diagonalization with overlap
     ethr =  9.59E-05,  avg # of iterations =  1.0

     negative rho (up, down):  1.592E+00 0.000E+00
 
     Adding external electric field

     Computed dipole along edir(3) : 
        Dipole               -0.1151 Ry au,         -0.2924 Debye
        Dipole field         -0.0003 Ry au
 
        Potential amp.        0.0303 Ry
        Total length         45.0992 bohr
 

     total cpu time spent up to now is      403.1 secs

     total energy              =   -2135.98078962 Ry
     Harris-Foulkes estimate   =   -2135.98243058 Ry
     estimated scf accuracy    <       0.03854424 Ry

     iteration # 20     ecut=    36.75 Ry     beta=0.30
     Davidson diagonalization with overlap
     ethr =  2.07E-05,  avg # of iterations =  5.5

     negative rho (up, down):  1.591E+00 0.000E+00
 
     Adding external electric field

     Computed dipole along edir(3) : 
        Dipole               -0.1493 Ry au,         -0.3796 Debye
        Dipole field         -0.0004 Ry au
 
        Potential amp.        0.0393 Ry
        Total length         45.0992 bohr
 

     total cpu time spent up to now is      421.0 secs

     total energy              =   -2135.98164623 Ry
     Harris-Foulkes estimate   =   -2135.98204222 Ry
     estimated scf accuracy    <       0.00837718 Ry

     iteration # 21     ecut=    36.75 Ry     beta=0.30
     Davidson diagonalization with overlap
     ethr =  4.50E-06,  avg # of iterations =  6.2

     negative rho (up, down):  1.592E+00 0.000E+00
 
     Adding external electric field

     Computed dipole along edir(3) : 
        Dipole               -0.1558 Ry au,         -0.3961 Debye
        Dipole field         -0.0005 Ry au
 
        Potential amp.        0.0411 Ry
        Total length         45.0992 bohr
 

     total cpu time spent up to now is      439.9 secs

     total energy              =   -2135.98214121 Ry
     Harris-Foulkes estimate   =   -2135.98243285 Ry
     estimated scf accuracy    <       0.00521077 Ry

     iteration # 22     ecut=    36.75 Ry     beta=0.30
     Davidson diagonalization with overlap
     ethr =  2.80E-06,  avg # of iterations =  1.4

     negative rho (up, down):  1.591E+00 0.000E+00
 
     Adding external electric field

     Computed dipole along edir(3) : 
        Dipole               -0.1480 Ry au,         -0.3762 Debye
        Dipole field         -0.0004 Ry au
 
        Potential amp.        0.0390 Ry
        Total length         45.0992 bohr
 

     total cpu time spent up to now is      455.5 secs

     total energy              =   -2135.98221401 Ry
     Harris-Foulkes estimate   =   -2135.98227995 Ry
     estimated scf accuracy    <       0.00083220 Ry

     iteration # 23     ecut=    36.75 Ry     beta=0.30
     Davidson diagonalization with overlap
     ethr =  4.47E-07,  avg # of iterations =  4.8

     negative rho (up, down):  1.591E+00 0.000E+00
 
     Adding external electric field

     Computed dipole along edir(3) : 
        Dipole               -0.1451 Ry au,         -0.3688 Debye
        Dipole field         -0.0004 Ry au
 
        Potential amp.        0.0382 Ry
        Total length         45.0992 bohr
 

     total cpu time spent up to now is      473.0 secs

     total energy              =   -2135.98225958 Ry
     Harris-Foulkes estimate   =   -2135.98228253 Ry
     estimated scf accuracy    <       0.00018008 Ry

     iteration # 24     ecut=    36.75 Ry     beta=0.30
     Davidson diagonalization with overlap
     ethr =  9.68E-08,  avg # of iterations =  3.9

     negative rho (up, down):  1.591E+00 0.000E+00
 
     Adding external electric field

     Computed dipole along edir(3) : 
        Dipole               -0.1472 Ry au,         -0.3741 Debye
        Dipole field         -0.0004 Ry au
 
        Potential amp.        0.0388 Ry
        Total length         45.0992 bohr
 

     total cpu time spent up to now is      489.9 secs

     total energy              =   -2135.98227170 Ry
     Harris-Foulkes estimate   =   -2135.98227227 Ry
     estimated scf accuracy    <       0.00003428 Ry

     iteration # 25     ecut=    36.75 Ry     beta=0.30
     Davidson diagonalization with overlap
     ethr =  1.84E-08,  avg # of iterations =  4.8

     negative rho (up, down):  1.591E+00 0.000E+00
 
     Adding external electric field

     Computed dipole along edir(3) : 
        Dipole               -0.1489 Ry au,         -0.3784 Debye
        Dipole field         -0.0004 Ry au
 
        Potential amp.        0.0392 Ry
        Total length         45.0992 bohr
 

     total cpu time spent up to now is      509.2 secs

     total energy              =   -2135.98227816 Ry
     Harris-Foulkes estimate   =   -2135.98227730 Ry
     estimated scf accuracy    <       0.00005271 Ry

     iteration # 26     ecut=    36.75 Ry     beta=0.30
     Davidson diagonalization with overlap
     ethr =  1.84E-08,  avg # of iterations =  1.2

     negative rho (up, down):  1.591E+00 0.000E+00
 
     Adding external electric field

     Computed dipole along edir(3) : 
        Dipole               -0.1510 Ry au,         -0.3838 Debye
        Dipole field         -0.0004 Ry au
 
        Potential amp.        0.0398 Ry
        Total length         45.0992 bohr
 

     total cpu time spent up to now is      524.4 secs

     total energy              =   -2135.98227766 Ry
     Harris-Foulkes estimate   =   -2135.98227784 Ry
     estimated scf accuracy    <       0.00004949 Ry

     iteration # 27     ecut=    36.75 Ry     beta=0.30
     Davidson diagonalization with overlap
     ethr =  1.84E-08,  avg # of iterations =  1.0

     negative rho (up, down):  1.591E+00 0.000E+00
 
     Adding external electric field

     Computed dipole along edir(3) : 
        Dipole               -0.1523 Ry au,         -0.3871 Debye
        Dipole field         -0.0004 Ry au
 
        Potential amp.        0.0401 Ry
        Total length         45.0992 bohr
 

     total cpu time spent up to now is      539.5 secs

     total energy              =   -2135.98227781 Ry
     Harris-Foulkes estimate   =   -2135.98227738 Ry
     estimated scf accuracy    <       0.00001364 Ry

     iteration # 28     ecut=    36.75 Ry     beta=0.30
     Davidson diagonalization with overlap
     ethr =  7.33E-09,  avg # of iterations =  3.9

     negative rho (up, down):  1.590E+00 0.000E+00

     negative rho (up, down):  1.590E+00 0.000E+00

     negative rho (up, down):  1.590E+00 0.000E+00

     negative rho (up, down):  1.590E+00 0.000E+00

     negative rho (up, down):  1.590E+00 0.000E+00

     negative rho (up, down):  1.590E+00 0.000E+00

     negative rho (up, down):  1.590E+00 0.000E+00

     negative rho (up, down):  1.590E+00 0.000E+00

     negative rho (up, down):  1.590E+00 0.000E+00

     negative rho (up, down):  1.590E+00 0.000E+00

     negative rho (up, down):  1.590E+00 0.000E+00

     negative rho (up, down):  1.590E+00 0.000E+00

     negative rho (up, down):  1.590E+00 0.000E+00

     negative rho (up, down):  1.590E+00 0.000E+00

     negative rho (up, down):  1.590E+00 0.000E+00

     negative rho (up, down):  1.590E+00 0.000E+00

     negative rho (up, down):  1.590E+00 0.000E+00

     negative rho (up, down):  1.590E+00 0.000E+00

     negative rho (up, down):  1.590E+00 0.000E+00

     negative rho (up, down):  1.590E+00 0.000E+00

     negative rho (up, down):  1.590E+00 0.000E+00

     negative rho (up, down):  1.590E+00 0.000E+00

     negative rho (up, down):  1.590E+00 0.000E+00

     negative rho (up, down):  1.590E+00 0.000E+00

     negative rho (up, down):  1.590E+00 0.000E+00

     negative rho (up, down):  1.590E+00 0.000E+00

     negative rho (up, down):  1.590E+00 0.000E+00

     negative rho (up, down):  1.590E+00 0.000E+00

     negative rho (up, down):  1.590E+00 0.000E+00

     negative rho (up, down):  1.590E+00 0.000E+00

     negative rho (up, down):  1.590E+00 0.000E+00

     negative rho (up, down):  1.590E+00 0.000E+00

     negative rho (up, down):  1.590E+00 0.000E+00

     negative rho (up, down):  1.590E+00 0.000E+00

     negative rho (up, down):  1.590E+00 0.000E+00
 
     Adding external electric field

     Computed dipole along edir(3) : 
        Dipole               -0.1482 Ry au,         -0.3767 Debye
        Dipole field         -0.0004 Ry au
 
        Potential amp.        0.0391 Ry
        Total length         45.0992 bohr
 

     total cpu time spent up to now is      597.8 secs

     End of self-consistent calculation

          k = 0.0000 0.0000 0.0000 ( 16073 PWs)   bands (ev):

   -65.0150 -64.9250 -64.8690 -64.8684 -64.8236 -64.8234 -64.7957 -64.7133
   -64.6027 -64.5994 -64.5799 -64.5795 -37.5275 -37.4180 -37.4179 -37.4087
   -37.3225 -37.2981 -37.2979 -37.1367 -37.1366 -37.1266 -36.8844 -36.8839
   -36.8766 -36.7483 -36.7330 -36.7330 -36.7083 -36.6986 -36.6984 -36.6647
   -36.5952 -36.5949 -36.5733 -36.5334 -36.5332 -36.5212 -36.4645 -36.4438
   -36.4438 -36.3812 -36.3810 -36.3780 -36.3210 -36.3208 -36.1808 -36.1807
   -16.1780  -4.1950  -3.4180  -3.1915  -3.1915  -2.8969  -2.7787  -2.7085
    -2.6942  -2.6942  -2.4339  -2.3217  -2.3216  -2.1896  -2.1896  -2.0602
    -1.6501  -1.6501  -1.0894  -0.5248  -0.5247   0.0556   0.0781   0.0781
     0.2251   0.5212   0.6123   0.6123   0.7145   0.9171   0.9171   0.9955
     1.0905   1.0906   1.1830   1.1830   1.6025   1.6860   1.6861   2.3913
     2.6002   2.6537   2.6537   2.9735   2.9736   3.0288   3.0288   3.2979
     3.4882   3.4882   3.7561   4.1560   4.1562   4.3052   4.3172

          k = 0.0000 0.0351 0.0000 ( 16137 PWs)   bands (ev):

   -65.0052 -64.9184 -64.8766 -64.8688 -64.8298 -64.8235 -64.7972 -64.7054
   -64.6058 -64.6009 -64.5847 -64.5795 -37.4889 -37.3856 -37.3806 -37.3617
   -37.3028 -37.2682 -37.2635 -37.1078 -37.1072 -37.0863 -36.9076 -36.8885
   -36.8747 -36.7843 -36.7682 -36.7306 -36.7149 -36.7048 -36.6835 -36.6487
   -36.6221 -36.6197 -36.5761 -36.5399 -36.5260 -36.5157 -36.4932 -36.4698
   -36.4585 -36.4121 -36.4102 -36.3676 -36.3670 -36.3317 -36.2384 -36.1941
   -16.1731  -3.9648  -3.2752  -3.0783  -3.0425  -2.7364  -2.5746  -2.5396
    -2.5033  -2.4917  -2.2840  -2.2124  -2.1682  -2.0742  -2.0302  -1.8705
    -1.5495  -1.4911  -1.0364  -0.5743  -0.5012   0.1128   0.1453   0.1950
     0.2051   0.2548   0.4252   0.6097   0.7980   0.8267   0.8292   1.0428
     1.0528   1.1025   1.1764   1.3573   1.4047   1.5557   1.5742   1.9701
     2.2635   2.3684   2.6069   2.6382   2.8168   2.8265   2.9472   2.9913
     3.2143   3.4635   3.6139   3.6595   3.9323   3.9999   4.0124

          k = 0.0000 0.0702 0.0000 ( 16149 PWs)   bands (ev):

   -64.9789 -64.9077 -64.8922 -64.8689 -64.8473 -64.8234 -64.7994 -64.6840
   -64.6215 -64.6034 -64.5907 -64.5795 -37.3986 -37.3048 -37.3022 -37.2517
   -37.2241 -37.1988 -37.1929 -37.0675 -37.0373 -37.0005 -36.9207 -36.9149
   -36.8882 -36.8291 -36.8247 -36.7681 -36.7212 -36.7107 -36.6834 -36.6778
   -36.6458 -36.6448 -36.6005 -36.5639 -36.5600 -36.5325 -36.5156 -36.4922
   -36.4907 -36.4742 -36.4738 -36.4589 -36.3766 -36.3590 -36.3298 -36.2303
   -16.1633  -3.4184  -2.9887  -2.7636  -2.7214  -2.4710  -2.2005  -2.0807
    -2.0672  -1.9853  -1.8551  -1.8109  -1.7787  -1.7181  -1.6636  -1.5151
    -1.1085  -0.9634  -0.9501  -0.6542  -0.4312  -0.3676  -0.1680   0.0304
     0.2488   0.3254   0.3451   0.4507   0.6056   0.6107   0.8185   0.8987
     0.9986   1.0599   1.2764   1.2934   1.3630   1.4302   1.4719   1.7238
     1.7510   1.8836   1.9580   2.0581   2.0612   2.2326   2.4059   2.4466
     2.6662   2.8661   3.0317   3.2837   3.3209   3.3260   3.5185

          k = 0.0000-0.1053 0.0000 ( 16164 PWs)   bands (ev):

   -64.9524 -64.9288 -64.8750 -64.8691 -64.8683 -64.8234 -64.8003 -64.6626
   -64.6417 -64.6046 -64.5922 -64.5795 -37.3393 -37.2472 -37.2457 -37.2053
   -37.1996 -37.1578 -37.1041 -37.0209 -36.9968 -36.9944 -36.9495 -36.9471
   -36.8794 -36.8706 -36.8561 -36.7388 -36.7356 -36.7247 -36.6986 -36.6888
   -36.6407 -36.6293 -36.6136 -36.6091 -36.5830 -36.5729 -36.5597 -36.5582
   -36.5069 -36.4935 -36.4888 -36.4605 -36.4483 -36.3729 -36.2905 -36.2709
   -16.1585  -3.1483  -2.6921  -2.5458  -2.5381  -2.4048  -1.9444  -1.8663
    -1.8591  -1.8094  -1.6208  -1.5432  -1.4187  -1.2007  -1.1265  -1.1180
    -1.0380  -0.8831  -0.8560  -0.7666  -0.3761  -0.3506  -0.2079  -0.1698
    -0.1623   0.0003   0.2786   0.3775   0.6805   0.7455   0.8308   0.8592
     0.8989   0.9606   1.0111   1.0859   1.1151   1.1577   1.2201   1.3089
     1.4462   1.5496   1.6505   2.1611   2.1811   2.1917   2.2036   2.2452
     2.3526   2.6653   2.6732   2.8347   2.9236   3.0120   3.0682

          k = 0.0304-0.0175 0.0000 ( 16137 PWs)   bands (ev):

   -65.0052 -64.9183 -64.8769 -64.8685 -64.8299 -64.8234 -64.7972 -64.7054
   -64.6059 -64.6009 -64.5843 -64.5799 -37.4889 -37.3857 -37.3806 -37.3617
   -37.3028 -37.2683 -37.2634 -37.1077 -37.1074 -37.0863 -36.9077 -36.8883
   -36.8747 -36.7843 -36.7681 -36.7307 -36.7150 -36.7047 -36.6834 -36.6488
   -36.6220 -36.6198 -36.5760 -36.5398 -36.5262 -36.5157 -36.4932 -36.4698
   -36.4585 -36.4119 -36.4104 -36.3675 -36.3669 -36.3318 -36.2384 -36.1942
   -16.1731  -3.9648  -3.2752  -3.0783  -3.0425  -2.7364  -2.5746  -2.5396
    -2.5033  -2.4917  -2.2840  -2.2124  -2.1682  -2.0742  -2.0302  -1.8705
    -1.5496  -1.4910  -1.0364  -0.5743  -0.5013   0.1127   0.1454   0.1951
     0.2051   0.2548   0.4252   0.6097   0.7981   0.8267   0.8292   1.0428
     1.0528   1.1025   1.1764   1.3573   1.4046   1.5557   1.5743   1.9701
     2.2635   2.3684   2.6070   2.6383   2.8167   2.8264   2.9471   2.9913
     3.2144   3.4635   3.6139   3.6595   3.9323   3.9999   4.0125

          k = 0.0304 0.0175 0.0000 ( 16137 PWs)   bands (ev):

   -65.0052 -64.9184 -64.8763 -64.8691 -64.8298 -64.8235 -64.7972 -64.7054
   -64.6058 -64.6009 -64.5844 -64.5798 -37.4889 -37.3857 -37.3805 -37.3617
   -37.3028 -37.2680 -37.2636 -37.1077 -37.1074 -37.0863 -36.9074 -36.8887
   -36.8747 -36.7843 -36.7682 -36.7306 -36.7149 -36.7048 -36.6835 -36.6486
   -36.6221 -36.6197 -36.5763 -36.5398 -36.5262 -36.5157 -36.4932 -36.4698
   -36.4585 -36.4120 -36.4103 -36.3675 -36.3671 -36.3316 -36.2384 -36.1942
   -16.1731  -3.9648  -3.2752  -3.0783  -3.0425  -2.7364  -2.5746  -2.5396
    -2.5034  -2.4917  -2.2840  -2.2124  -2.1681  -2.0742  -2.0302  -1.8705
    -1.5496  -1.4910  -1.0364  -0.5742  -0.5013   0.1127   0.1453   0.1950
     0.2051   0.2548   0.4252   0.6097   0.7980   0.8267   0.8292   1.0428
     1.0528   1.1025   1.1763   1.3573   1.4047   1.5556   1.5743   1.9701
     2.2635   2.3684   2.6069   2.6382   2.8168   2.8265   2.9472   2.9913
     3.2143   3.4635   3.6139   3.6594   3.9323   3.9998   4.0125

          k = 0.0304 0.0526 0.0000 ( 16202 PWs)   bands (ev):

   -64.9871 -64.9070 -64.8897 -64.8710 -64.8387 -64.8270 -64.7978 -64.6907
   -64.6130 -64.6031 -64.5951 -64.5766 -37.4231 -37.3380 -37.2936 -37.2866
   -37.2651 -37.2138 -37.2129 -37.0788 -37.0514 -37.0216 -36.9216 -36.9102
   -36.8820 -36.8404 -36.8014 -36.7546 -36.7174 -36.6937 -36.6884 -36.6712
   -36.6296 -36.6190 -36.6065 -36.5766 -36.5464 -36.5253 -36.5061 -36.5006
   -36.4951 -36.4693 -36.4317 -36.3833 -36.3828 -36.3570 -36.3325 -36.2230
   -16.1658  -3.5637  -3.0382  -2.9019  -2.7914  -2.4614  -2.3378  -2.2250
    -2.1507  -2.0889  -2.0267  -1.9715  -1.8912  -1.8011  -1.7956  -1.5603
    -1.3208  -1.1034  -0.9907  -0.6143  -0.4730  -0.2306  -0.0387   0.0726
     0.2760   0.3223   0.3952   0.4731   0.5728   0.7614   0.7827   0.8701
     1.0118   1.1608   1.1911   1.2552   1.3433   1.4078   1.6757   1.8033
     1.8460   1.9394   2.0541   2.3042   2.3962   2.4720   2.4910   2.6090
     2.6953   2.9151   3.0277   3.4076   3.4310   3.6203   3.6795

          k = 0.0304-0.1228 0.0000 ( 16203 PWs)   bands (ev):

   -64.9574 -64.9165 -64.8902 -64.8708 -64.8538 -64.8318 -64.7967 -64.6668
   -64.6306 -64.6068 -64.6030 -64.5734 -37.3319 -37.2557 -37.2188 -37.2048
   -37.1820 -37.1560 -37.1366 -37.0741 -37.0085 -36.9704 -36.9560 -36.9348
   -36.8914 -36.8588 -36.8194 -36.7717 -36.7529 -36.7181 -36.6961 -36.6767
   -36.6633 -36.6479 -36.6096 -36.6030 -36.5796 -36.5663 -36.5558 -36.5306
   -36.5120 -36.4931 -36.4718 -36.4347 -36.4206 -36.3895 -36.3338 -36.2734
   -16.1585  -3.1137  -2.6960  -2.6015  -2.5444  -2.2294  -1.9158  -1.8759
    -1.7966  -1.7357  -1.6268  -1.4947  -1.4442  -1.4216  -1.2147  -1.1495
    -1.0576  -0.8598  -0.7666  -0.7099  -0.4503  -0.4220  -0.3224  -0.1040
    -0.0432   0.0310   0.1431   0.2809   0.4878   0.6075   0.6381   0.6979
     0.8488   0.8792   0.9367   0.9497   1.1197   1.2742   1.3826   1.4901
     1.5247   1.6458   1.7352   1.8919   2.1037   2.2364   2.3222   2.3748
     2.5102   2.6175   2.6957   2.8244   2.9710   3.1623   3.2928

          k = 0.0304-0.0877 0.0000 ( 16203 PWs)   bands (ev):

   -64.9573 -64.9167 -64.8899 -64.8712 -64.8536 -64.8318 -64.7967 -64.6667
   -64.6306 -64.6068 -64.6030 -64.5734 -37.3317 -37.2558 -37.2188 -37.2048
   -37.1820 -37.1559 -37.1366 -37.0742 -37.0085 -36.9704 -36.9560 -36.9347
   -36.8918 -36.8589 -36.8190 -36.7717 -36.7527 -36.7180 -36.6960 -36.6768
   -36.6634 -36.6477 -36.6096 -36.6030 -36.5796 -36.5663 -36.5559 -36.5306
   -36.5121 -36.4931 -36.4718 -36.4347 -36.4206 -36.3895 -36.3338 -36.2734
   -16.1585  -3.1137  -2.6960  -2.6015  -2.5444  -2.2294  -1.9158  -1.8759
    -1.7966  -1.7357  -1.6268  -1.4947  -1.4442  -1.4216  -1.2147  -1.1495
    -1.0576  -0.8598  -0.7666  -0.7099  -0.4503  -0.4220  -0.3225  -0.1040
    -0.0432   0.0310   0.1432   0.2809   0.4878   0.6074   0.6382   0.6979
     0.8488   0.8792   0.9366   0.9497   1.1197   1.2742   1.3826   1.4901
     1.5247   1.6458   1.7351   1.8920   2.1037   2.2364   2.3223   2.3747
     2.5101   2.6175   2.6957   2.8244   2.9710   3.1622   3.2929

          k = 0.0304-0.0526 0.0000 ( 16202 PWs)   bands (ev):

   -64.9871 -64.9068 -64.8902 -64.8707 -64.8386 -64.8270 -64.7978 -64.6907
   -64.6131 -64.6031 -64.5950 -64.5766 -37.4229 -37.3380 -37.2937 -37.2865
   -37.2651 -37.2139 -37.2128 -37.0788 -37.0516 -37.0215 -36.9219 -36.9099
   -36.8820 -36.8404 -36.8015 -36.7546 -36.7175 -36.6936 -36.6885 -36.6712
   -36.6296 -36.6188 -36.6063 -36.5766 -36.5464 -36.5253 -36.5061 -36.5006
   -36.4951 -36.4693 -36.4317 -36.3833 -36.3828 -36.3572 -36.3325 -36.2230
   -16.1658  -3.5636  -3.0382  -2.9018  -2.7914  -2.4614  -2.3378  -2.2250
    -2.1507  -2.0889  -2.0267  -1.9715  -1.8912  -1.8011  -1.7956  -1.5603
    -1.3208  -1.1034  -0.9907  -0.6144  -0.4730  -0.2306  -0.0387   0.0726
     0.2760   0.3223   0.3952   0.4731   0.5728   0.7614   0.7827   0.8700
     1.0118   1.1608   1.1912   1.2551   1.3434   1.4077   1.6757   1.8033
     1.8460   1.9396   2.0541   2.3042   2.3963   2.4720   2.4910   2.6091
     2.6953   2.9150   3.0277   3.4077   3.4309   3.6203   3.6794

          k = 0.0608-0.0351 0.0000 ( 16149 PWs)   bands (ev):

   -64.9789 -64.9076 -64.8926 -64.8687 -64.8474 -64.8233 -64.7994 -64.6840
   -64.6217 -64.6034 -64.5902 -64.5799 -37.3985 -37.3049 -37.3022 -37.2517
   -37.2241 -37.1989 -37.1928 -37.0677 -37.0372 -37.0006 -36.9205 -36.9149
   -36.8882 -36.8291 -36.8246 -36.7683 -36.7212 -36.7107 -36.6836 -36.6778
   -36.6457 -36.6447 -36.6006 -36.5638 -36.5599 -36.5327 -36.5155 -36.4923
   -36.4908 -36.4744 -36.4737 -36.4588 -36.3765 -36.3591 -36.3298 -36.2304
   -16.1633  -3.4184  -2.9887  -2.7636  -2.7214  -2.4710  -2.2005  -2.0807
    -2.0672  -1.9854  -1.8550  -1.8109  -1.7787  -1.7180  -1.6636  -1.5151
    -1.1085  -0.9633  -0.9502  -0.6542  -0.4312  -0.3676  -0.1680   0.0304
     0.2487   0.3254   0.3451   0.4507   0.6056   0.6107   0.8185   0.8987
     0.9987   1.0599   1.2764   1.2934   1.3630   1.4302   1.4719   1.7238
     1.7509   1.8837   1.9580   2.0582   2.0612   2.2326   2.4059   2.4467
     2.6662   2.8661   3.0317   3.2837   3.3209   3.3260   3.5183

          k = 0.0608 0.0000 0.0000 ( 16202 PWs)   bands (ev):

   -64.9871 -64.9069 -64.8899 -64.8709 -64.8388 -64.8269 -64.7978 -64.6907
   -64.6132 -64.6031 -64.5947 -64.5767 -37.4230 -37.3380 -37.2936 -37.2866
   -37.2651 -37.2138 -37.2129 -37.0788 -37.0515 -37.0215 -36.9217 -36.9101
   -36.8820 -36.8404 -36.8015 -36.7546 -36.7175 -36.6937 -36.6884 -36.6712
   -36.6295 -36.6189 -36.6064 -36.5766 -36.5463 -36.5254 -36.5061 -36.5006
   -36.4951 -36.4693 -36.4317 -36.3832 -36.3828 -36.3571 -36.3325 -36.2230
   -16.1658  -3.5637  -3.0382  -2.9018  -2.7914  -2.4614  -2.3378  -2.2250
    -2.1507  -2.0889  -2.0267  -1.9715  -1.8912  -1.8011  -1.7956  -1.5603
    -1.3208  -1.1034  -0.9908  -0.6143  -0.4730  -0.2306  -0.0387   0.0726
     0.2760   0.3223   0.3952   0.4731   0.5728   0.7614   0.7827   0.8701
     1.0118   1.1608   1.1911   1.2552   1.3433   1.4078   1.6757   1.8033
     1.8460   1.9394   2.0541   2.3043   2.3962   2.4720   2.4910   2.6090
     2.6953   2.9150   3.0277   3.4076   3.4310   3.6203   3.6794

          k = 0.0608 0.0351 0.0000 ( 16149 PWs)   bands (ev):

   -64.9790 -64.9078 -64.8918 -64.8692 -64.8473 -64.8234 -64.7994 -64.6840
   -64.6216 -64.6034 -64.5904 -64.5798 -37.3988 -37.3049 -37.3020 -37.2517
   -37.2240 -37.1986 -37.1929 -37.0675 -37.0371 -37.0005 -36.9208 -36.9148
   -36.8884 -36.8291 -36.8248 -36.7680 -36.7212 -36.7107 -36.6832 -36.6779
   -36.6457 -36.6449 -36.6006 -36.5641 -36.5600 -36.5327 -36.5155 -36.4923
   -36.4908 -36.4743 -36.4737 -36.4589 -36.3766 -36.3588 -36.3298 -36.2303
   -16.1633  -3.4184  -2.9888  -2.7636  -2.7214  -2.4710  -2.2005  -2.0806
    -2.0672  -1.9854  -1.8551  -1.8109  -1.7787  -1.7180  -1.6636  -1.5150
    -1.1086  -0.9633  -0.9502  -0.6541  -0.4312  -0.3676  -0.1680   0.0304
     0.2488   0.3253   0.3451   0.4507   0.6056   0.6107   0.8184   0.8987
     0.9986   1.0599   1.2765   1.2934   1.3630   1.4302   1.4719   1.7238
     1.7509   1.8837   1.9580   2.0582   2.0612   2.2326   2.4058   2.4466
     2.6663   2.8661   3.0317   3.2837   3.3209   3.3260   3.5178

          k = 0.0608-0.1404 0.0000 ( 16203 PWs)   bands (ev):

   -64.9575 -64.9163 -64.8902 -64.8709 -64.8538 -64.8318 -64.7968 -64.6667
   -64.6308 -64.6067 -64.6029 -64.5735 -37.3320 -37.2558 -37.2188 -37.2048
   -37.1820 -37.1558 -37.1365 -37.0741 -37.0085 -36.9703 -36.9560 -36.9347
   -36.8917 -36.8588 -36.8193 -36.7717 -36.7529 -36.7180 -36.6960 -36.6767
   -36.6634 -36.6480 -36.6096 -36.6029 -36.5796 -36.5664 -36.5559 -36.5306
   -36.5121 -36.4931 -36.4718 -36.4347 -36.4205 -36.3893 -36.3337 -36.2735
   -16.1585  -3.1137  -2.6960  -2.6015  -2.5444  -2.2294  -1.9158  -1.8759
    -1.7966  -1.7357  -1.6268  -1.4947  -1.4442  -1.4216  -1.2147  -1.1495
    -1.0577  -0.8598  -0.7666  -0.7099  -0.4503  -0.4220  -0.3224  -0.1039
    -0.0432   0.0309   0.1431   0.2809   0.4878   0.6075   0.6381   0.6979
     0.8487   0.8792   0.9367   0.9496   1.1197   1.2742   1.3826   1.4901
     1.5247   1.6459   1.7352   1.8919   2.1037   2.2364   2.3222   2.3748
     2.5101   2.6175   2.6958   2.8245   2.9710   3.1622   3.2928

          k = 0.0608-0.1053 0.0000 ( 16272 PWs)   bands (ev):

   -64.9360 -64.9272 -64.8987 -64.8634 -64.8535 -64.8441 -64.7941 -64.6536
   -64.6273 -64.6258 -64.6047 -64.5698 -37.2561 -37.2258 -37.1803 -37.1759
   -37.1528 -37.1361 -37.1169 -37.0633 -37.0580 -37.0303 -36.9283 -36.9062
   -36.8848 -36.8441 -36.8277 -36.7771 -36.7688 -36.7494 -36.7329 -36.6773
   -36.6751 -36.6538 -36.6185 -36.5931 -36.5874 -36.5798 -36.5635 -36.5581
   -36.5242 -36.4819 -36.4570 -36.4516 -36.4368 -36.3541 -36.3539 -36.3361
   -16.1560  -2.9448  -2.5800  -2.5608  -2.1299  -2.1215  -1.8609  -1.5597
    -1.5203  -1.4727  -1.4569  -1.4340  -1.1923  -1.1242  -1.1128  -1.0981
    -1.0142  -0.9820  -0.9772  -0.5104  -0.5033  -0.2178  -0.1734  -0.1662
    -0.0810  -0.0541   0.0607   0.0634   0.1486   0.1602   0.2115   0.2244
     0.4561   0.5377   0.8564   0.8873   1.1995   1.2608   1.3218   1.3492
     1.3892   1.4842   1.5190   2.0419   2.0610   2.3392   2.3412   2.5015
     2.5252   2.6498   2.6965   2.8401   3.0076   3.0147   3.7323

          k = 0.0608-0.0702 0.0000 ( 16203 PWs)   bands (ev):

   -64.9573 -64.9168 -64.8900 -64.8710 -64.8537 -64.8317 -64.7968 -64.6667
   -64.6308 -64.6066 -64.6029 -64.5735 -37.3316 -37.2558 -37.2189 -37.2048
   -37.1820 -37.1560 -37.1367 -37.0743 -37.0085 -36.9704 -36.9560 -36.9348
   -36.8917 -36.8589 -36.8190 -36.7717 -36.7527 -36.7180 -36.6960 -36.6767
   -36.6634 -36.6477 -36.6097 -36.6030 -36.5796 -36.5663 -36.5558 -36.5306
   -36.5121 -36.4931 -36.4718 -36.4347 -36.4205 -36.3896 -36.3337 -36.2735
   -16.1585  -3.1137  -2.6960  -2.6015  -2.5444  -2.2294  -1.9158  -1.8760
    -1.7967  -1.7357  -1.6268  -1.4947  -1.4442  -1.4216  -1.2147  -1.1495
    -1.0576  -0.8598  -0.7666  -0.7099  -0.4503  -0.4220  -0.3224  -0.1040
    -0.0432   0.0310   0.1432   0.2809   0.4878   0.6075   0.6382   0.6979
     0.8488   0.8792   0.9367   0.9497   1.1198   1.2742   1.3826   1.4901
     1.5248   1.6458   1.7351   1.8920   2.1037   2.2364   2.3223   2.3747
     2.5101   2.6175   2.6958   2.8244   2.9710   3.1622   3.2929

          k =-0.0912 0.0526 0.0000 ( 16164 PWs)   bands (ev):

   -64.9522 -64.9290 -64.8752 -64.8688 -64.8685 -64.8233 -64.8003 -64.6624
   -64.6420 -64.6046 -64.5917 -64.5799 -37.3391 -37.2472 -37.2457 -37.2054
   -37.1995 -37.1578 -37.1044 -37.0208 -36.9970 -36.9945 -36.9498 -36.9469
   -36.8794 -36.8704 -36.8561 -36.7389 -36.7355 -36.7247 -36.6988 -36.6888
   -36.6407 -36.6292 -36.6134 -36.6091 -36.5829 -36.5728 -36.5599 -36.5579
   -36.5069 -36.4936 -36.4887 -36.4605 -36.4482 -36.3731 -36.2902 -36.2713
   -16.1585  -3.1483  -2.6921  -2.5458  -2.5381  -2.4048  -1.9445  -1.8664
    -1.8591  -1.8094  -1.6208  -1.5432  -1.4187  -1.2007  -1.1265  -1.1180
    -1.0381  -0.8832  -0.8560  -0.7667  -0.3761  -0.3507  -0.2079  -0.1698
    -0.1622   0.0002   0.2786   0.3774   0.6806   0.7456   0.8308   0.8592
     0.8990   0.9606   1.0111   1.0859   1.1151   1.1577   1.2203   1.3089
     1.4463   1.5496   1.6505   2.1612   2.1811   2.1916   2.2036   2.2452
     2.3526   2.6652   2.6732   2.8346   2.9237   3.0119   3.0682

          k =-0.0912 0.0877 0.0000 ( 16203 PWs)   bands (ev):

   -64.9573 -64.9167 -64.8902 -64.8708 -64.8539 -64.8317 -64.7968 -64.6667
   -64.6309 -64.6066 -64.6029 -64.5735 -37.3317 -37.2558 -37.2189 -37.2047
   -37.1820 -37.1560 -37.1366 -37.0742 -37.0086 -36.9704 -36.9560 -36.9348
   -36.8914 -36.8588 -36.8193 -36.7716 -36.7528 -36.7180 -36.6961 -36.6767
   -36.6634 -36.6478 -36.6097 -36.6030 -36.5796 -36.5663 -36.5558 -36.5306
   -36.5121 -36.4930 -36.4718 -36.4347 -36.4205 -36.3896 -36.3337 -36.2735
   -16.1585  -3.1137  -2.6960  -2.6015  -2.5444  -2.2294  -1.9158  -1.8760
    -1.7967  -1.7357  -1.6268  -1.4947  -1.4442  -1.4216  -1.2148  -1.1495
    -1.0576  -0.8598  -0.7666  -0.7099  -0.4503  -0.4220  -0.3224  -0.1040
    -0.0432   0.0310   0.1432   0.2809   0.4878   0.6075   0.6382   0.6979
     0.8488   0.8792   0.9367   0.9497   1.1197   1.2742   1.3826   1.4902
     1.5247   1.6458   1.7352   1.8919   2.1037   2.2364   2.3222   2.3748
     2.5101   2.6175   2.6957   2.8243   2.9710   3.1623   3.2928

          k =-0.0912 0.1228 0.0000 ( 16203 PWs)   bands (ev):

   -64.9574 -64.9164 -64.8900 -64.8711 -64.8537 -64.8318 -64.7968 -64.6667
   -64.6308 -64.6066 -64.6029 -64.5735 -37.3320 -37.2558 -37.2188 -37.2048
   -37.1820 -37.1558 -37.1364 -37.0741 -37.0086 -36.9703 -36.9560 -36.9347
   -36.8919 -36.8589 -36.8191 -36.7717 -36.7528 -36.7180 -36.6960 -36.6767
   -36.6634 -36.6479 -36.6096 -36.6029 -36.5796 -36.5664 -36.5559 -36.5306
   -36.5121 -36.4931 -36.4718 -36.4347 -36.4206 -36.3894 -36.3337 -36.2735
   -16.1585  -3.1137  -2.6960  -2.6015  -2.5444  -2.2294  -1.9158  -1.8759
    -1.7966  -1.7357  -1.6268  -1.4947  -1.4442  -1.4216  -1.2147  -1.1495
    -1.0577  -0.8598  -0.7666  -0.7099  -0.4503  -0.4220  -0.3224  -0.1040
    -0.0432   0.0309   0.1431   0.2809   0.4878   0.6075   0.6382   0.6979
     0.8488   0.8792   0.9367   0.9497   1.1197   1.2742   1.3826   1.4901
     1.5247   1.6459   1.7352   1.8919   2.1037   2.2364   2.3222   2.3748
     2.5101   2.6175   2.6958   2.8244   2.9710   3.1622   3.2928

          k =-0.0912-0.0526 0.0000 ( 16164 PWs)   bands (ev):

   -64.9526 -64.9284 -64.8746 -64.8693 -64.8687 -64.8233 -64.8003 -64.6624
   -64.6419 -64.6046 -64.5918 -64.5798 -37.3396 -37.2473 -37.2456 -37.2055
   -37.1994 -37.1575 -37.1038 -37.0209 -36.9970 -36.9943 -36.9496 -36.9470
   -36.8794 -36.8709 -36.8561 -36.7388 -36.7357 -36.7245 -36.6988 -36.6888
   -36.6407 -36.6292 -36.6139 -36.6091 -36.5829 -36.5728 -36.5599 -36.5579
   -36.5071 -36.4936 -36.4887 -36.4606 -36.4482 -36.3727 -36.2903 -36.2712
   -16.1585  -3.1484  -2.6920  -2.5458  -2.5381  -2.4049  -1.9443  -1.8663
    -1.8591  -1.8095  -1.6207  -1.5432  -1.4187  -1.2006  -1.1265  -1.1180
    -1.0379  -0.8833  -0.8559  -0.7668  -0.3761  -0.3507  -0.2079  -0.1697
    -0.1622   0.0002   0.2786   0.3774   0.6805   0.7455   0.8308   0.8592
     0.8989   0.9607   1.0111   1.0859   1.1151   1.1576   1.2202   1.3088
     1.4464   1.5495   1.6505   2.1613   2.1810   2.1917   2.2036   2.2450
     2.3526   2.6653   2.6731   2.8347   2.9236   3.0120   3.0683

     the Fermi energy is     2.3084 ev

!    total energy              =   -2135.98227808 Ry
     Harris-Foulkes estimate   =   -2135.98228202 Ry
     estimated scf accuracy    <       0.00000086 Ry

     The total energy is the sum of the following terms:

     one-electron contribution =  -19234.80302161 Ry
     hartree contribution      =    9618.04464831 Ry
     xc contribution           =    -404.49620921 Ry
     ewald contribution        =    7885.36136051 Ry
     electric field correction =       0.00006417 Ry
     smearing contrib. (-TS)   =      -0.08912025 Ry

     convergence has been achieved in  28 iterations
 
 BEEF-vdW xc energy contributions
           1 :   -354.293231952794     
           2 :    325.522477951968     
           3 :   -274.447868778606     
           4 :    211.425544285107     
           5 :   -147.416719962188     
           6 :    90.9759912128274     
           7 :   -46.6182731752195     
           8 :    14.7424507776753     
           9 :    7.07627802026531     
          10 :   -22.2080336650159     
          11 :    33.2782504315469     
          12 :   -41.3135853735827     
          13 :    45.8231442949293     
          14 :   -45.6108713640143     
          15 :    39.8196386756007     
          16 :   -28.7475528182919     
          17 :    14.0904083872626     
          18 :    1.44092565520219     
          19 :   -14.9366100172631     
          20 :    24.1554943482755     
          21 :   -28.1022567600210     
          22 :    27.1019802622917     
          23 :   -22.4135647725398     
          24 :    15.6047151288091     
          25 :   -7.99521572774387     
          26 :   0.391160995959353     
          27 :    6.83651608372475     
          28 :   -13.4630960304946     
          29 :    19.1206445531714     
          30 :   -23.1859280598835     
          31 :   -33.7805342125425     
          32 :   -24.7464813316777     

     Forces acting on atoms (Ry/au):


     negative rho (up, down):  1.590E+00 0.000E+00
     atom    1 type  1   force =     0.00000965    0.00000149    0.03075494
     atom    2 type  1   force =     0.00000169   -0.00534156    0.02926948
     atom    3 type  1   force =    -0.00463294    0.00267415    0.02926676
     atom    4 type  1   force =     0.00463085    0.00267402    0.02924556
     atom    5 type  1   force =    -0.00322771    0.00187544    0.00142530
     atom    6 type  1   force =     0.00323892    0.00183313    0.00145845
     atom    7 type  1   force =    -0.00001850    0.00001714   -0.06438119
     atom    8 type  1   force =     0.00004788   -0.00372143    0.00145251
     atom    9 type  1   force =     0.00021776    0.00012285    0.01668205
     atom   10 type  1   force =    -0.00021510    0.00012061    0.01671028
     atom   11 type  1   force =     0.00000286   -0.00025113    0.01669572
     atom   12 type  1   force =     0.00000175   -0.00000055   -0.05078320
     atom   13 type  2   force =    -0.00005711   -0.00000415   -0.05779665

     Total force =     0.082194     Total SCF correction =     0.001265


     entering subroutine stress ...


     negative rho (up, down):  1.590E+00 0.000E+00
          total   stress  (Ry/bohr**3)                   (kbar)     P=  -34.62
  -0.00023834   0.00000001   0.00000001        -35.06      0.00      0.00
   0.00000001  -0.00023835   0.00000000          0.00    -35.06      0.00
   0.00000001   0.00000000  -0.00022931          0.00      0.00    -33.73


     BFGS Geometry Optimization

     number of scf cycles    =   1
     number of bfgs steps    =   0

     energy   new            =   -2135.9822780799 Ry

     new trust radius        =       0.0577966782 bohr
     new conv_thr            =       0.0000099958 Ry


ATOMIC_POSITIONS (crystal)
Tc1      0.166666667   0.166666667   0.408540475    0   0   0
Tc1      0.666666667   0.166666667   0.408540475    0   0   0
Tc1      0.166666667   0.666666667   0.408540475    0   0   0
Tc1      0.666666667   0.666666667   0.408540475    0   0   0
Tc1      0.833333333   0.333333333   0.500000000    0   0   0
Tc1      0.333333333   0.333333333   0.500000000    0   0   0
Tc1      0.833333333   0.833333333   0.500000000    0   0   0
Tc1      0.333333333   0.833333333   0.500000000    0   0   0
Tc1      0.000014170   0.000013689   0.591820175
Tc1      0.499972523   0.000013440   0.591820785
Tc1      0.000014267   0.499972017   0.591820471
Tc1      0.500000200   0.499999938   0.590361642
O1       0.166661387   0.166666204   0.646772446



     Writing output data file calc.save
     Check: negative starting charge=   -1.505094
     NEW-OLD atomic charge density approx. for the potential

     Check: negative/imaginary core charge=   -0.000022    0.000000
     Check: negative starting charge=   -1.509700

     negative rho (up, down):  1.594E+00 0.000E+00
 
     Adding external electric field

     Computed dipole along edir(3) : 
        Dipole               -0.1489 Ry au,         -0.3785 Debye
        Dipole field         -0.0004 Ry au
 
        Potential amp.        0.0392 Ry
        Total length         45.0992 bohr
 

     total cpu time spent up to now is      655.4 secs

     per-process dynamical memory:   101.8 Mb

     Self-consistent Calculation

     iteration #  1     ecut=    36.75 Ry     beta=0.30
     Davidson diagonalization with overlap
     ethr =  1.00E-06,  avg # of iterations =  5.5

     negative rho (up, down):  1.594E+00 0.000E+00
 
     Adding external electric field

     Computed dipole along edir(3) : 
        Dipole               -0.1148 Ry au,         -0.2919 Debye
        Dipole field         -0.0003 Ry au
 
        Potential amp.        0.0303 Ry
        Total length         45.0992 bohr
 

     total cpu time spent up to now is      682.7 secs

     total energy              =   -2135.98796811 Ry
     Harris-Foulkes estimate   =   -2135.98843496 Ry
     estimated scf accuracy    <       0.00111524 Ry

     iteration #  2     ecut=    36.75 Ry     beta=0.30
     Davidson diagonalization with overlap
     ethr =  6.00E-07,  avg # of iterations =  5.5

     negative rho (up, down):  1.594E+00 0.000E+00
 
     Adding external electric field

     Computed dipole along edir(3) : 
        Dipole               -0.1543 Ry au,         -0.3923 Debye
        Dipole field         -0.0005 Ry au
 
        Potential amp.        0.0407 Ry
        Total length         45.0992 bohr
 

     total cpu time spent up to now is      704.4 secs

     total energy              =   -2135.98699701 Ry
     Harris-Foulkes estimate   =   -2135.98899011 Ry
     estimated scf accuracy    <       0.04808846 Ry

     iteration #  3     ecut=    36.75 Ry     beta=0.30
     Davidson diagonalization with overlap
     ethr =  6.00E-07,  avg # of iterations =  5.2

     negative rho (up, down):  1.594E+00 0.000E+00
 
     Adding external electric field

     Computed dipole along edir(3) : 
        Dipole               -0.1331 Ry au,         -0.3384 Debye
        Dipole field         -0.0004 Ry au
 
        Potential amp.        0.0351 Ry
        Total length         45.0992 bohr
 

     total cpu time spent up to now is      725.0 secs

     total energy              =   -2135.98757490 Ry
     Harris-Foulkes estimate   =   -2135.98880520 Ry
     estimated scf accuracy    <       0.03913914 Ry

     iteration #  4     ecut=    36.75 Ry     beta=0.30
     Davidson diagonalization with overlap
     ethr =  6.00E-07,  avg # of iterations =  4.8

     negative rho (up, down):  1.594E+00 0.000E+00
 
     Adding external electric field

     Computed dipole along edir(3) : 
        Dipole               -0.1325 Ry au,         -0.3369 Debye
        Dipole field         -0.0004 Ry au
 
        Potential amp.        0.0349 Ry
        Total length         45.0992 bohr
 

     total cpu time spent up to now is      745.1 secs

     total energy              =   -2135.98812761 Ry
     Harris-Foulkes estimate   =   -2135.98826988 Ry
     estimated scf accuracy    <       0.00103123 Ry

     iteration #  5     ecut=    36.75 Ry     beta=0.30
     Davidson diagonalization with overlap
     ethr =  5.54E-07,  avg # of iterations =  4.0

     negative rho (up, down):  1.595E+00 0.000E+00
 
     Adding external electric field

     Computed dipole along edir(3) : 
        Dipole               -0.1311 Ry au,         -0.3331 Debye
        Dipole field         -0.0004 Ry au
 
        Potential amp.        0.0345 Ry
        Total length         45.0992 bohr
 

     total cpu time spent up to now is      762.5 secs

     total energy              =   -2135.98815343 Ry
     Harris-Foulkes estimate   =   -2135.98827490 Ry
     estimated scf accuracy    <       0.00106701 Ry

     iteration #  6     ecut=    36.75 Ry     beta=0.30
     Davidson diagonalization with overlap
     ethr =  5.54E-07,  avg # of iterations =  2.0

     negative rho (up, down):  1.595E+00 0.000E+00
 
     Adding external electric field

     Computed dipole along edir(3) : 
        Dipole               -0.1307 Ry au,         -0.3321 Debye
        Dipole field         -0.0004 Ry au
 
        Potential amp.        0.0344 Ry
        Total length         45.0992 bohr
 

     total cpu time spent up to now is      778.8 secs

     total energy              =   -2135.98819212 Ry
     Harris-Foulkes estimate   =   -2135.98820321 Ry
     estimated scf accuracy    <       0.00007194 Ry

     iteration #  7     ecut=    36.75 Ry     beta=0.30
     Davidson diagonalization with overlap
     ethr =  3.87E-08,  avg # of iterations =  4.9

     negative rho (up, down):  1.595E+00 0.000E+00
 
     Adding external electric field

     Computed dipole along edir(3) : 
        Dipole               -0.1305 Ry au,         -0.3317 Debye
        Dipole field         -0.0004 Ry au
 
        Potential amp.        0.0344 Ry
        Total length         45.0992 bohr
 

     total cpu time spent up to now is      799.4 secs

     total energy              =   -2135.98820858 Ry
     Harris-Foulkes estimate   =   -2135.98821901 Ry
     estimated scf accuracy    <       0.00010976 Ry

     iteration #  8     ecut=    36.75 Ry     beta=0.30
     Davidson diagonalization with overlap
     ethr =  3.87E-08,  avg # of iterations =  1.9

     negative rho (up, down):  1.595E+00 0.000E+00
 
     Adding external electric field

     Computed dipole along edir(3) : 
        Dipole               -0.1303 Ry au,         -0.3313 Debye
        Dipole field         -0.0004 Ry au
 
        Potential amp.        0.0343 Ry
        Total length         45.0992 bohr
 

     total cpu time spent up to now is      815.6 secs

     total energy              =   -2135.98821075 Ry
     Harris-Foulkes estimate   =   -2135.98821450 Ry
     estimated scf accuracy    <       0.00004559 Ry

     iteration #  9     ecut=    36.75 Ry     beta=0.30
     Davidson diagonalization with overlap
     ethr =  2.45E-08,  avg # of iterations =  3.7

     negative rho (up, down):  1.595E+00 0.000E+00

     negative rho (up, down):  1.595E+00 0.000E+00

     negative rho (up, down):  1.595E+00 0.000E+00

     negative rho (up, down):  1.595E+00 0.000E+00

     negative rho (up, down):  1.595E+00 0.000E+00

     negative rho (up, down):  1.595E+00 0.000E+00

     negative rho (up, down):  1.595E+00 0.000E+00

     negative rho (up, down):  1.595E+00 0.000E+00

     negative rho (up, down):  1.595E+00 0.000E+00

     negative rho (up, down):  1.595E+00 0.000E+00

     negative rho (up, down):  1.595E+00 0.000E+00

     negative rho (up, down):  1.595E+00 0.000E+00

     negative rho (up, down):  1.595E+00 0.000E+00

     negative rho (up, down):  1.595E+00 0.000E+00

     negative rho (up, down):  1.595E+00 0.000E+00

     negative rho (up, down):  1.595E+00 0.000E+00

     negative rho (up, down):  1.595E+00 0.000E+00

     negative rho (up, down):  1.595E+00 0.000E+00

     negative rho (up, down):  1.595E+00 0.000E+00

     negative rho (up, down):  1.595E+00 0.000E+00

     negative rho (up, down):  1.595E+00 0.000E+00

     negative rho (up, down):  1.595E+00 0.000E+00

     negative rho (up, down):  1.595E+00 0.000E+00

     negative rho (up, down):  1.595E+00 0.000E+00

     negative rho (up, down):  1.595E+00 0.000E+00

     negative rho (up, down):  1.595E+00 0.000E+00

     negative rho (up, down):  1.595E+00 0.000E+00

     negative rho (up, down):  1.595E+00 0.000E+00

     negative rho (up, down):  1.595E+00 0.000E+00

     negative rho (up, down):  1.595E+00 0.000E+00

     negative rho (up, down):  1.595E+00 0.000E+00

     negative rho (up, down):  1.595E+00 0.000E+00

     negative rho (up, down):  1.595E+00 0.000E+00

     negative rho (up, down):  1.595E+00 0.000E+00

     negative rho (up, down):  1.595E+00 0.000E+00
 
     Adding external electric field

     Computed dipole along edir(3) : 
        Dipole               -0.1313 Ry au,         -0.3338 Debye
        Dipole field         -0.0004 Ry au
 
        Potential amp.        0.0346 Ry
        Total length         45.0992 bohr
 

     total cpu time spent up to now is      873.9 secs

     End of self-consistent calculation

          k = 0.0000 0.0000 0.0000 ( 16073 PWs)   bands (ev):

   -64.9925 -64.9035 -64.8492 -64.8470 -64.7995 -64.7992 -64.7731 -64.6852
   -64.5789 -64.5753 -64.5496 -64.5480 -37.5220 -37.3937 -37.3934 -37.3862
   -37.2992 -37.2751 -37.2743 -37.1106 -37.1100 -37.0987 -36.8709 -36.8692
   -36.8540 -36.7245 -36.7077 -36.7075 -36.6818 -36.6766 -36.6760 -36.6439
   -36.5749 -36.5739 -36.5504 -36.5060 -36.5049 -36.4937 -36.4345 -36.4201
   -36.4201 -36.3538 -36.3533 -36.3479 -36.2988 -36.2981 -36.1516 -36.1515
   -16.3654  -4.1728  -3.4891  -3.2719  -3.2717  -2.8683  -2.7504  -2.6948
    -2.6946  -2.6878  -2.4225  -2.3021  -2.3017  -2.1913  -2.1912  -2.0350
    -1.6758  -1.6757  -1.0577  -0.5190  -0.5186   0.0810   0.1032   0.1033
     0.2396   0.5428   0.6377   0.6378   0.7704   0.9298   0.9299   1.0320
     1.1217   1.1219   1.2147   1.2149   1.6142   1.7117   1.7124   2.4220
     2.6266   2.6769   2.6771   2.9957   2.9961   3.0639   3.0640   3.3460
     3.5185   3.5187   3.7546   4.1759   4.1766   4.3201   4.3509

          k = 0.0000 0.0351 0.0000 ( 16137 PWs)   bands (ev):

   -64.9828 -64.8968 -64.8560 -64.8479 -64.8058 -64.7994 -64.7746 -64.6773
   -64.5800 -64.5783 -64.5547 -64.5480 -37.4830 -37.3611 -37.3570 -37.3379
   -37.2799 -37.2450 -37.2398 -37.0820 -37.0811 -37.0598 -36.8914 -36.8733
   -36.8520 -36.7624 -36.7432 -36.7067 -36.6930 -36.6800 -36.6605 -36.6273
   -36.5993 -36.5970 -36.5543 -36.5149 -36.4980 -36.4891 -36.4660 -36.4415
   -36.4349 -36.3843 -36.3806 -36.3438 -36.3394 -36.3088 -36.2093 -36.1649
   -16.3599  -3.9477  -3.3540  -3.1709  -3.1388  -2.7094  -2.5623  -2.5173
    -2.5031  -2.4704  -2.2749  -2.1942  -2.1479  -2.0727  -2.0378  -1.8498
    -1.5598  -1.4995  -1.0038  -0.5640  -0.4891   0.1297   0.1744   0.2229
     0.2298   0.2703   0.4518   0.6479   0.8238   0.8391   0.8585   1.0656
     1.0693   1.1404   1.2118   1.3815   1.4233   1.5881   1.6000   1.9984
     2.2906   2.3873   2.6270   2.6626   2.8458   2.8559   2.9780   3.0317
     3.2347   3.4944   3.6359   3.6912   3.9662   4.0208   4.0354

          k = 0.0000 0.0702 0.0000 ( 16149 PWs)   bands (ev):

   -64.9568 -64.8858 -64.8711 -64.8482 -64.8241 -64.7993 -64.7768 -64.6563
   -64.5926 -64.5822 -64.5620 -64.5480 -37.3911 -37.2801 -37.2777 -37.2294
   -37.2015 -37.1761 -37.1679 -37.0475 -37.0118 -36.9779 -36.9003 -36.8928
   -36.8651 -36.8070 -36.8053 -36.7471 -36.6979 -36.6865 -36.6616 -36.6534
   -36.6241 -36.6217 -36.5768 -36.5418 -36.5341 -36.5032 -36.4893 -36.4695
   -36.4626 -36.4459 -36.4451 -36.4299 -36.3477 -36.3361 -36.3015 -36.2010
   -16.3491  -3.4536  -3.0544  -2.8754  -2.8610  -2.4516  -2.1705  -2.0731
    -2.0719  -1.9651  -1.8288  -1.8012  -1.7572  -1.7015  -1.6505  -1.5011
    -1.0944  -0.9562  -0.9136  -0.6323  -0.4097  -0.3445  -0.1439   0.0524
     0.2656   0.3506   0.3762   0.4657   0.6277   0.6375   0.8438   0.9231
     1.0146   1.0890   1.2902   1.3257   1.3920   1.4573   1.4972   1.7457
     1.7825   1.9073   1.9874   2.0787   2.0880   2.2387   2.4326   2.5049
     2.6838   2.9164   3.0708   3.3169   3.3352   3.3507   3.5287

          k = 0.0000-0.1053 0.0000 ( 16164 PWs)   bands (ev):

   -64.9307 -64.9065 -64.8534 -64.8485 -64.8453 -64.7993 -64.7776 -64.6368
   -64.6105 -64.5833 -64.5639 -64.5480 -37.3298 -37.2222 -37.2215 -37.1811
   -37.1775 -37.1362 -37.0895 -36.9942 -36.9759 -36.9680 -36.9261 -36.9209
   -36.8606 -36.8576 -36.8347 -36.7173 -36.7123 -36.7032 -36.6732 -36.6644
   -36.6168 -36.6090 -36.5908 -36.5809 -36.5530 -36.5487 -36.5302 -36.5292
   -36.4857 -36.4654 -36.4614 -36.4344 -36.4166 -36.3497 -36.2634 -36.2403
   -16.3437  -3.2687  -2.7566  -2.7123  -2.5694  -2.4255  -1.9274  -1.8516
    -1.8399  -1.7835  -1.6007  -1.5165  -1.3924  -1.1801  -1.1221  -1.0953
    -1.0103  -0.8489  -0.8477  -0.7391  -0.3554  -0.3296  -0.1740  -0.1541
    -0.1406   0.0185   0.3079   0.4015   0.6903   0.7428   0.8652   0.8920
     0.9163   0.9821   1.0365   1.1111   1.1397   1.1704   1.2383   1.3483
     1.4604   1.6093   1.6927   2.1819   2.2002   2.2113   2.2345   2.2728
     2.4052   2.6877   2.6995   2.8608   2.9465   3.0350   3.1169

          k = 0.0304-0.0175 0.0000 ( 16137 PWs)   bands (ev):

   -64.9828 -64.8967 -64.8568 -64.8472 -64.8058 -64.7993 -64.7746 -64.6773
   -64.5801 -64.5786 -64.5534 -64.5490 -37.4829 -37.3611 -37.3571 -37.3378
   -37.2798 -37.2453 -37.2395 -37.0817 -37.0814 -37.0598 -36.8920 -36.8726
   -36.8521 -36.7623 -36.7432 -36.7069 -36.6932 -36.6800 -36.6603 -36.6273
   -36.5993 -36.5972 -36.5539 -36.5147 -36.4987 -36.4886 -36.4660 -36.4415
   -36.4350 -36.3839 -36.3813 -36.3435 -36.3392 -36.3092 -36.2092 -36.1650
   -16.3599  -3.9477  -3.3540  -3.1709  -3.1389  -2.7094  -2.5624  -2.5173
    -2.5030  -2.4705  -2.2749  -2.1942  -2.1479  -2.0727  -2.0378  -1.8498
    -1.5599  -1.4995  -1.0038  -0.5640  -0.4891   0.1296   0.1744   0.2230
     0.2298   0.2703   0.4518   0.6479   0.8238   0.8392   0.8585   1.0656
     1.0693   1.1403   1.2117   1.3815   1.4233   1.5880   1.6002   1.9984
     2.2905   2.3873   2.6271   2.6628   2.8458   2.8559   2.9779   3.0316
     3.2347   3.4944   3.6358   3.6914   3.9661   4.0207   4.0356

          k = 0.0304 0.0175 0.0000 ( 16137 PWs)   bands (ev):

   -64.9828 -64.8969 -64.8548 -64.8491 -64.8060 -64.7992 -64.7746 -64.6773
   -64.5801 -64.5786 -64.5532 -64.5492 -37.4831 -37.3613 -37.3566 -37.3380
   -37.2799 -37.2445 -37.2401 -37.0817 -37.0814 -37.0597 -36.8908 -36.8740
   -36.8520 -36.7624 -36.7432 -36.7066 -36.6930 -36.6802 -36.6606 -36.6268
   -36.5995 -36.5968 -36.5548 -36.5146 -36.4987 -36.4887 -36.4660 -36.4414
   -36.4350 -36.3838 -36.3814 -36.3441 -36.3392 -36.3085 -36.2092 -36.1650
   -16.3599  -3.9477  -3.3541  -3.1710  -3.1388  -2.7094  -2.5624  -2.5172
    -2.5031  -2.4704  -2.2749  -2.1944  -2.1476  -2.0727  -2.0379  -1.8498
    -1.5600  -1.4994  -1.0039  -0.5636  -0.4894   0.1295   0.1744   0.2229
     0.2298   0.2705   0.4518   0.6479   0.8237   0.8393   0.8584   1.0659
     1.0692   1.1404   1.2116   1.3814   1.4234   1.5877   1.6004   1.9984
     2.2905   2.3873   2.6270   2.6627   2.8459   2.8560   2.9781   3.0316
     3.2347   3.4945   3.6357   3.6911   3.9664   4.0206   4.0356

          k = 0.0304 0.0526 0.0000 ( 16202 PWs)   bands (ev):

   -64.9649 -64.8853 -64.8682 -64.8504 -64.8154 -64.8031 -64.7750 -64.6628
   -64.5853 -64.5818 -64.5646 -64.5459 -37.4162 -37.3138 -37.2697 -37.2613
   -37.2440 -37.1904 -37.1886 -37.0560 -37.0276 -36.9969 -36.9013 -36.8916
   -36.8580 -36.8185 -36.7796 -36.7348 -36.6945 -36.6690 -36.6654 -36.6484
   -36.6065 -36.5974 -36.5835 -36.5534 -36.5199 -36.4980 -36.4804 -36.4731
   -36.4672 -36.4419 -36.4061 -36.3551 -36.3540 -36.3335 -36.3036 -36.1938
   -16.3518  -3.5715  -3.1189  -3.0171  -2.9134  -2.4333  -2.3263  -2.2098
    -2.1373  -2.0645  -2.0160  -1.9665  -1.8747  -1.7890  -1.7862  -1.5423
    -1.3165  -1.0930  -0.9564  -0.5955  -0.4547  -0.2034  -0.0220   0.0995
     0.2997   0.3452   0.4179   0.4984   0.5980   0.7853   0.8012   0.8927
     1.0453   1.1846   1.2200   1.2639   1.3790   1.4337   1.7004   1.8268
     1.8736   1.9731   2.0781   2.3322   2.4043   2.4845   2.5122   2.6535
     2.7258   2.9731   3.0561   3.4377   3.4545   3.6579   3.7046

          k = 0.0304-0.1228 0.0000 ( 16203 PWs)   bands (ev):

   -64.9356 -64.8946 -64.8683 -64.8489 -64.8319 -64.8084 -64.7736 -64.6400
   -64.6008 -64.5837 -64.5752 -64.5429 -37.3224 -37.2308 -37.1944 -37.1843
   -37.1592 -37.1331 -37.1154 -37.0544 -36.9848 -36.9462 -36.9353 -36.9109
   -36.8704 -36.8329 -36.8038 -36.7480 -36.7309 -36.6935 -36.6749 -36.6537
   -36.6392 -36.6259 -36.5838 -36.5779 -36.5529 -36.5401 -36.5309 -36.5021
   -36.4871 -36.4659 -36.4445 -36.4054 -36.3917 -36.3659 -36.3053 -36.2439
   -16.3437  -3.2258  -2.8076  -2.7228  -2.6109  -2.2136  -1.8884  -1.8592
    -1.7894  -1.7157  -1.6056  -1.4755  -1.4170  -1.4024  -1.1981  -1.1283
    -1.0321  -0.8448  -0.7436  -0.6856  -0.4275  -0.3939  -0.2990  -0.0847
    -0.0243   0.0543   0.1706   0.3048   0.5100   0.6298   0.6573   0.7177
     0.8626   0.9023   0.9587   0.9783   1.1457   1.3014   1.4059   1.5124
     1.5666   1.6687   1.7668   1.9222   2.1365   2.2655   2.3474   2.4074
     2.5346   2.6425   2.7246   2.8696   2.9981   3.1975   3.3178

          k = 0.0304-0.0877 0.0000 ( 16203 PWs)   bands (ev):

   -64.9353 -64.8953 -64.8674 -64.8500 -64.8311 -64.8086 -64.7736 -64.6400
   -64.6007 -64.5837 -64.5752 -64.5428 -37.3219 -37.2311 -37.1943 -37.1846
   -37.1589 -37.1330 -37.1156 -37.0548 -36.9846 -36.9463 -36.9351 -36.9108
   -36.8720 -36.8333 -36.8024 -36.7483 -36.7303 -36.6933 -36.6742 -36.6542
   -36.6395 -36.6253 -36.5838 -36.5778 -36.5530 -36.5402 -36.5309 -36.5020
   -36.4871 -36.4660 -36.4445 -36.4055 -36.3917 -36.3660 -36.3053 -36.2439
   -16.3437  -3.2258  -2.8075  -2.7228  -2.6109  -2.2137  -1.8884  -1.8592
    -1.7895  -1.7158  -1.6055  -1.4757  -1.4169  -1.4025  -1.1981  -1.1283
    -1.0321  -0.8449  -0.7435  -0.6856  -0.4274  -0.3940  -0.2991  -0.0848
    -0.0244   0.0543   0.1707   0.3047   0.5099   0.6296   0.6576   0.7178
     0.8627   0.9024   0.9586   0.9784   1.1458   1.3014   1.4060   1.5123
     1.5669   1.6687   1.7666   1.9223   2.1367   2.2654   2.3475   2.4072
     2.5346   2.6424   2.7246   2.8696   2.9982   3.1972   3.3181

          k = 0.0304-0.0526 0.0000 ( 16202 PWs)   bands (ev):

   -64.9648 -64.8849 -64.8700 -64.8493 -64.8149 -64.8035 -64.7750 -64.6628
   -64.5853 -64.5818 -64.5647 -64.5458 -37.4157 -37.3140 -37.2700 -37.2610
   -37.2439 -37.1913 -37.1882 -37.0562 -37.0280 -36.9968 -36.9022 -36.8906
   -36.8580 -36.8185 -36.7799 -36.7347 -36.6946 -36.6686 -36.6657 -36.6487
   -36.6067 -36.5967 -36.5827 -36.5535 -36.5199 -36.4980 -36.4804 -36.4731
   -36.4672 -36.4418 -36.4061 -36.3551 -36.3541 -36.3341 -36.3036 -36.1938
   -16.3518  -3.5715  -3.1189  -3.0170  -2.9135  -2.4333  -2.3262  -2.2098
    -2.1375  -2.0646  -2.0159  -1.9665  -1.8748  -1.7889  -1.7863  -1.5424
    -1.3165  -1.0930  -0.9563  -0.5959  -0.4546  -0.2034  -0.0221   0.0994
     0.2995   0.3453   0.4181   0.4984   0.5980   0.7852   0.8013   0.8926
     1.0454   1.1847   1.2202   1.2638   1.3791   1.4335   1.7004   1.8268
     1.8735   1.9735   2.0782   2.3318   2.4044   2.4845   2.5123   2.6535
     2.7260   2.9728   3.0562   3.4382   3.4540   3.6580   3.7045

          k = 0.0608-0.0351 0.0000 ( 16149 PWs)   bands (ev):

   -64.9566 -64.8856 -64.8722 -64.8474 -64.8241 -64.7993 -64.7768 -64.6562
   -64.5934 -64.5822 -64.5602 -64.5491 -37.3906 -37.2800 -37.2779 -37.2293
   -37.2016 -37.1765 -37.1678 -37.0481 -37.0115 -36.9782 -36.8998 -36.8931
   -36.8651 -36.8069 -36.8048 -36.7475 -36.6979 -36.6864 -36.6621 -36.6534
   -36.6239 -36.6214 -36.5768 -36.5413 -36.5338 -36.5040 -36.4887 -36.4696
   -36.4628 -36.4459 -36.4455 -36.4295 -36.3476 -36.3364 -36.3013 -36.2012
   -16.3491  -3.4536  -3.0543  -2.8754  -2.8610  -2.4516  -2.1705  -2.0730
    -2.0721  -1.9653  -1.8287  -1.8012  -1.7572  -1.7015  -1.6505  -1.5011
    -1.0945  -0.9561  -0.9137  -0.6322  -0.4097  -0.3446  -0.1439   0.0524
     0.2654   0.3506   0.3763   0.4658   0.6278   0.6375   0.8438   0.9230
     1.0147   1.0890   1.2902   1.3257   1.3920   1.4573   1.4972   1.7457
     1.7824   1.9074   1.9874   2.0788   2.0881   2.2387   2.4325   2.5052
     2.6839   2.9162   3.0706   3.3169   3.3350   3.3507   3.5289

          k = 0.0608 0.0000 0.0000 ( 16202 PWs)   bands (ev):

   -64.9649 -64.8851 -64.8690 -64.8499 -64.8153 -64.8031 -64.7750 -64.6628
   -64.5860 -64.5818 -64.5634 -64.5464 -37.4160 -37.3139 -37.2698 -37.2612
   -37.2440 -37.1908 -37.1884 -37.0562 -37.0277 -36.9968 -36.9017 -36.8912
   -36.8580 -36.8183 -36.7798 -36.7346 -36.6946 -36.6689 -36.6654 -36.6486
   -36.6063 -36.5970 -36.5832 -36.5535 -36.5198 -36.4984 -36.4804 -36.4730
   -36.4672 -36.4419 -36.4061 -36.3552 -36.3536 -36.3338 -36.3036 -36.1939
   -16.3518  -3.5715  -3.1189  -3.0171  -2.9135  -2.4333  -2.3262  -2.2098
    -2.1374  -2.0646  -2.0160  -1.9665  -1.8747  -1.7890  -1.7863  -1.5423
    -1.3166  -1.0930  -0.9565  -0.5955  -0.4547  -0.2035  -0.0221   0.0994
     0.2995   0.3452   0.4180   0.4984   0.5981   0.7853   0.8011   0.8927
     1.0453   1.1845   1.2201   1.2639   1.3790   1.4337   1.7004   1.8267
     1.8734   1.9732   2.0783   2.3323   2.4042   2.4845   2.5123   2.6536
     2.7259   2.9729   3.0562   3.4378   3.4544   3.6580   3.7045

          k = 0.0608 0.0351 0.0000 ( 16149 PWs)   bands (ev):

   -64.9569 -64.8860 -64.8697 -64.8493 -64.8242 -64.7991 -64.7769 -64.6562
   -64.5935 -64.5821 -64.5600 -64.5493 -37.3916 -37.2805 -37.2772 -37.2295
   -37.2014 -37.1755 -37.1680 -37.0474 -37.0111 -36.9780 -36.9008 -36.8926
   -36.8656 -36.8069 -36.8055 -36.7468 -36.6979 -36.6865 -36.6610 -36.6537
   -36.6240 -36.6221 -36.5770 -36.5422 -36.5338 -36.5041 -36.4887 -36.4697
   -36.4629 -36.4459 -36.4455 -36.4296 -36.3475 -36.3355 -36.3012 -36.2012
   -16.3491  -3.4537  -3.0545  -2.8753  -2.8610  -2.4516  -2.1705  -2.0730
    -2.0716  -1.9654  -1.8290  -1.8012  -1.7571  -1.7013  -1.6505  -1.5010
    -1.0948  -0.9559  -0.9139  -0.6318  -0.4098  -0.3447  -0.1438   0.0523
     0.2657   0.3503   0.3762   0.4655   0.6279   0.6375   0.8436   0.9232
     1.0146   1.0890   1.2905   1.3256   1.3919   1.4573   1.4972   1.7456
     1.7823   1.9075   1.9873   2.0786   2.0883   2.2387   2.4321   2.5051
     2.6841   2.9161   3.0708   3.3171   3.3350   3.3506   3.5289

          k = 0.0608-0.1404 0.0000 ( 16203 PWs)   bands (ev):

   -64.9359 -64.8940 -64.8682 -64.8494 -64.8319 -64.8084 -64.7736 -64.6398
   -64.6016 -64.5836 -64.5743 -64.5431 -37.3230 -37.2309 -37.1941 -37.1845
   -37.1590 -37.1325 -37.1151 -37.0545 -36.9848 -36.9460 -36.9353 -36.9106
   -36.8715 -36.8329 -36.8034 -36.7483 -36.7310 -36.6933 -36.6746 -36.6537
   -36.6394 -36.6260 -36.5838 -36.5779 -36.5528 -36.5403 -36.5308 -36.5024
   -36.4873 -36.4659 -36.4447 -36.4054 -36.3916 -36.3653 -36.3050 -36.2443
   -16.3437  -3.2259  -2.8077  -2.7228  -2.6109  -2.2137  -1.8884  -1.8590
    -1.7892  -1.7158  -1.6056  -1.4756  -1.4170  -1.4024  -1.1979  -1.1283
    -1.0322  -0.8448  -0.7435  -0.6857  -0.4274  -0.3939  -0.2989  -0.0847
[...]
   -37.1445 -37.1161 -37.1055 -36.9838 -36.9331 -36.9141 -36.8376 -36.8316
   -36.8058 -36.7503 -36.7460 -36.6767 -36.6337 -36.6196 -36.5853 -36.5582
   -36.5572 -36.5541 -36.5209 -36.4696 -36.4480 -36.4221 -36.4100 -36.4087
   -36.3814 -36.3656 -36.3462 -36.3240 -36.2574 -36.2480 -36.2207 -36.1214
   -16.6472  -3.6319  -3.1553  -3.1448  -3.0236  -2.4411  -2.1289  -2.1031
    -2.0616  -1.9456  -1.8211  -1.7592  -1.7173  -1.6703  -1.6178  -1.4619
    -1.0294  -0.9544  -0.7838  -0.5846  -0.4266  -0.2962  -0.1420   0.0704
     0.2269   0.3822   0.4476   0.5175   0.6332   0.7605   0.9245   1.0037
     1.0193   1.1656   1.2466   1.4244   1.4257   1.4952   1.5615   1.8182
     1.8807   1.9744   2.0558   2.1398   2.1698   2.3107   2.5010   2.6680
     2.7031   3.0894   3.1869   3.3561   3.3924   3.5069   3.5908

          k = 0.0608 0.0000 0.0000 ( 16202 PWs)   bands (ev):

   -64.8996 -64.8218 -64.7895 -64.7734 -64.7488 -64.7377 -64.7098 -64.5882
   -64.5111 -64.5083 -64.4799 -64.4624 -37.4160 -37.2864 -37.2402 -37.2195
   -37.1792 -37.1309 -37.1242 -36.9881 -36.9480 -36.9287 -36.8401 -36.8297
   -36.7898 -36.7646 -36.7291 -36.6680 -36.6256 -36.6022 -36.5896 -36.5688
   -36.5438 -36.5264 -36.5027 -36.4883 -36.4365 -36.4210 -36.4140 -36.3957
   -36.3838 -36.3417 -36.3064 -36.2778 -36.2700 -36.2442 -36.2197 -36.1141
   -16.6514  -3.6680  -3.2611  -3.2392  -3.1369  -2.4209  -2.3232  -2.1873
    -2.1392  -2.0241  -2.0073  -1.9381  -1.8503  -1.7659  -1.7440  -1.4928
    -1.2822  -1.0547  -0.8165  -0.5618  -0.4422  -0.1846  -0.0453   0.1377
     0.2884   0.4281   0.4970   0.5574   0.6471   0.8243   0.8378   0.9708
     1.1176   1.1961   1.2570   1.3371   1.4213   1.5038   1.7554   1.8901
     1.9316   2.0880   2.1427   2.3904   2.4561   2.4959   2.5750   2.7427
     2.8428   3.1223   3.1587   3.5226   3.5687   3.7737   3.7894

          k = 0.0608 0.0351 0.0000 ( 16149 PWs)   bands (ev):

   -64.8910 -64.8226 -64.7934 -64.7702 -64.7576 -64.7341 -64.7114 -64.5823
   -64.5158 -64.5095 -64.4785 -64.4645 -37.3912 -37.2622 -37.2285 -37.1910
   -37.1445 -37.1161 -37.1055 -36.9838 -36.9331 -36.9141 -36.8377 -36.8316
   -36.8058 -36.7503 -36.7460 -36.6767 -36.6337 -36.6197 -36.5854 -36.5582
   -36.5571 -36.5541 -36.5209 -36.4696 -36.4480 -36.4220 -36.4101 -36.4088
   -36.3814 -36.3656 -36.3462 -36.3240 -36.2574 -36.2480 -36.2207 -36.1214
   -16.6472  -3.6320  -3.1553  -3.1448  -3.0236  -2.4411  -2.1289  -2.1031
    -2.0616  -1.9456  -1.8211  -1.7592  -1.7173  -1.6703  -1.6178  -1.4619
    -1.0294  -0.9544  -0.7838  -0.5846  -0.4265  -0.2962  -0.1420   0.0704
     0.2268   0.3822   0.4476   0.5175   0.6332   0.7605   0.9245   1.0037
     1.0193   1.1657   1.2466   1.4245   1.4257   1.4952   1.5615   1.8182
     1.8807   1.9744   2.0557   2.1398   2.1698   2.3107   2.5010   2.6680
     2.7031   3.0894   3.1869   3.3562   3.3924   3.5069   3.5907

          k = 0.0608-0.1404 0.0000 ( 16203 PWs)   bands (ev):

   -64.8688 -64.8274 -64.7985 -64.7745 -64.7602 -64.7422 -64.7083 -64.5684
   -64.5214 -64.5105 -64.4915 -64.4599 -37.3260 -37.2090 -37.1600 -37.1350
   -37.1059 -37.0763 -37.0512 -37.0040 -36.9172 -36.8917 -36.8697 -36.8558
   -36.8056 -36.7597 -36.7361 -36.6763 -36.6674 -36.6122 -36.5957 -36.5863
   -36.5679 -36.5503 -36.5233 -36.5010 -36.4780 -36.4678 -36.4447 -36.4234
   -36.4118 -36.3775 -36.3510 -36.3134 -36.2912 -36.2724 -36.2254 -36.1640
   -16.6390  -3.5329  -3.0761  -2.9249  -2.5954  -2.1939  -1.9151  -1.8225
    -1.7967  -1.6665  -1.5885  -1.4668  -1.3845  -1.3708  -1.1640  -1.1104
    -1.0150  -0.8064  -0.6789  -0.6610  -0.4053  -0.3384  -0.2244  -0.1172
    -0.0148   0.0818   0.1918   0.3597   0.5146   0.6144   0.6707   0.7739
     0.9085   0.9757   1.0209   1.0817   1.2433   1.3731   1.4794   1.5213
     1.6382   1.7854   1.9081   1.9920   2.2106   2.3502   2.4420   2.5496
     2.6320   2.7053   2.8045   2.9985   3.0960   3.3889   3.4191

          k = 0.0608-0.1053 0.0000 ( 16272 PWs)   bands (ev):

   -64.8506 -64.8282 -64.8147 -64.7675 -64.7571 -64.7563 -64.7054 -64.5602
   -64.5183 -64.5112 -64.5059 -64.4568 -37.2730 -37.1557 -37.1478 -37.0866
   -37.0822 -37.0680 -37.0355 -36.9826 -36.9739 -36.9345 -36.8710 -36.8300
   -36.7871 -36.7481 -36.7287 -36.6791 -36.6778 -36.6398 -36.6275 -36.5863
   -36.5828 -36.5539 -36.5253 -36.4929 -36.4911 -36.4863 -36.4575 -36.4529
   -36.4258 -36.3708 -36.3292 -36.3146 -36.3116 -36.2462 -36.2398 -36.2259
   -16.6349  -3.4647  -3.0501  -2.8562  -2.0506  -2.0460  -1.8169  -1.6095
    -1.5235  -1.4628  -1.3979  -1.3461  -1.2436  -1.1894  -1.0146  -0.9904
    -0.9321  -0.9122  -0.9097  -0.4775  -0.4509  -0.2366  -0.1353  -0.0932
    -0.0660   0.0637   0.0911   0.1873   0.2169   0.2631   0.2684   0.3689
     0.4786   0.5474   0.9650   0.9936   1.1728   1.3757   1.4161   1.4221
     1.5238   1.7186   1.7267   2.1070   2.1933   2.4031   2.5301   2.6663
     2.6842   2.7347   2.8851   2.9039   3.1294   3.1321   3.7611

          k = 0.0608-0.0702 0.0000 ( 16203 PWs)   bands (ev):

   -64.8688 -64.8274 -64.7985 -64.7745 -64.7602 -64.7423 -64.7083 -64.5684
   -64.5214 -64.5105 -64.4914 -64.4599 -37.3260 -37.2090 -37.1599 -37.1350
   -37.1059 -37.0763 -37.0512 -37.0040 -36.9171 -36.8917 -36.8696 -36.8557
   -36.8056 -36.7596 -36.7361 -36.6763 -36.6675 -36.6122 -36.5958 -36.5863
   -36.5679 -36.5503 -36.5233 -36.5010 -36.4780 -36.4678 -36.4447 -36.4234
   -36.4119 -36.3775 -36.3510 -36.3134 -36.2912 -36.2723 -36.2254 -36.1640
   -16.6390  -3.5329  -3.0761  -2.9249  -2.5954  -2.1939  -1.9150  -1.8225
    -1.7967  -1.6665  -1.5885  -1.4668  -1.3846  -1.3708  -1.1640  -1.1105
    -1.0150  -0.8064  -0.6789  -0.6610  -0.4053  -0.3384  -0.2243  -0.1172
    -0.0148   0.0818   0.1917   0.3597   0.5146   0.6144   0.6707   0.7739
     0.9085   0.9758   1.0209   1.0818   1.2434   1.3730   1.4794   1.5213
     1.6382   1.7853   1.9080   1.9921   2.2105   2.3502   2.4420   2.5496
     2.6320   2.7053   2.8045   2.9984   3.0960   3.3889   3.4190

          k =-0.0912 0.0526 0.0000 ( 16164 PWs)   bands (ev):

   -64.8633 -64.8403 -64.7860 -64.7738 -64.7704 -64.7341 -64.7121 -64.5665
   -64.5285 -64.5105 -64.4817 -64.4645 -37.3314 -37.2122 -37.1708 -37.1358
   -37.1132 -37.0813 -37.0322 -36.9489 -36.9319 -36.8907 -36.8746 -36.8468
   -36.8021 -36.7988 -36.7564 -36.6513 -36.6488 -36.6140 -36.6017 -36.5717
   -36.5582 -36.5465 -36.5116 -36.4981 -36.4979 -36.4635 -36.4462 -36.4454
   -36.4178 -36.3865 -36.3706 -36.3466 -36.2974 -36.2580 -36.1853 -36.1596
   -16.6390  -3.5756  -3.0218  -2.9184  -2.5247  -2.4283  -1.9537  -1.8937
    -1.7628  -1.7172  -1.5632  -1.4920  -1.3644  -1.2163  -1.1074  -1.0792
    -0.9773  -0.8674  -0.7388  -0.6538  -0.3795  -0.2845  -0.1823  -0.1162
    -0.0701   0.0038   0.3338   0.4802   0.6162   0.6465   0.9529   0.9611
     0.9904   1.0211   1.1470   1.1871   1.2311   1.2706   1.3052   1.3715
     1.4336   1.8002   1.8673   2.1801   2.2469   2.2558   2.3877   2.4111
     2.6043   2.7075   2.8466   2.8599   3.0497   3.0848   3.3169

          k =-0.0912 0.0877 0.0000 ( 16203 PWs)   bands (ev):

   -64.8688 -64.8274 -64.7985 -64.7745 -64.7602 -64.7423 -64.7083 -64.5684
   -64.5214 -64.5105 -64.4914 -64.4599 -37.3260 -37.2090 -37.1599 -37.1350
   -37.1059 -37.0763 -37.0511 -37.0039 -36.9172 -36.8917 -36.8696 -36.8557
   -36.8056 -36.7596 -36.7361 -36.6763 -36.6675 -36.6122 -36.5958 -36.5863
   -36.5679 -36.5503 -36.5233 -36.5010 -36.4780 -36.4678 -36.4447 -36.4234
   -36.4118 -36.3775 -36.3510 -36.3134 -36.2912 -36.2723 -36.2254 -36.1640
   -16.6390  -3.5329  -3.0761  -2.9249  -2.5954  -2.1939  -1.9150  -1.8225
    -1.7967  -1.6665  -1.5885  -1.4668  -1.3846  -1.3708  -1.1640  -1.1105
    -1.0150  -0.8064  -0.6789  -0.6610  -0.4053  -0.3384  -0.2243  -0.1172
    -0.0148   0.0818   0.1918   0.3597   0.5146   0.6144   0.6707   0.7739
     0.9085   0.9757   1.0209   1.0818   1.2433   1.3731   1.4794   1.5213
     1.6382   1.7854   1.9081   1.9920   2.2105   2.3502   2.4420   2.5496
     2.6320   2.7053   2.8045   2.9985   3.0960   3.3889   3.4190

          k =-0.0912 0.1228 0.0000 ( 16203 PWs)   bands (ev):

   -64.8688 -64.8273 -64.7985 -64.7744 -64.7602 -64.7422 -64.7083 -64.5684
   -64.5214 -64.5105 -64.4915 -64.4599 -37.3260 -37.2090 -37.1599 -37.1351
   -37.1058 -37.0763 -37.0512 -37.0039 -36.9172 -36.8917 -36.8697 -36.8557
   -36.8056 -36.7597 -36.7361 -36.6762 -36.6675 -36.6122 -36.5958 -36.5863
   -36.5679 -36.5503 -36.5233 -36.5010 -36.4780 -36.4678 -36.4447 -36.4234
   -36.4118 -36.3775 -36.3510 -36.3134 -36.2911 -36.2724 -36.2254 -36.1640
   -16.6390  -3.5329  -3.0761  -2.9249  -2.5954  -2.1939  -1.9151  -1.8225
    -1.7967  -1.6665  -1.5885  -1.4668  -1.3845  -1.3708  -1.1640  -1.1104
    -1.0150  -0.8064  -0.6789  -0.6610  -0.4053  -0.3384  -0.2244  -0.1173
    -0.0148   0.0818   0.1917   0.3597   0.5146   0.6144   0.6707   0.7739
     0.9085   0.9758   1.0209   1.0817   1.2433   1.3731   1.4794   1.5213
     1.6382   1.7854   1.9081   1.9921   2.2105   2.3502   2.4420   2.5496
     2.6320   2.7053   2.8045   2.9984   3.0960   3.3889   3.4190

          k =-0.0912-0.0526 0.0000 ( 16164 PWs)   bands (ev):

   -64.8633 -64.8403 -64.7861 -64.7738 -64.7703 -64.7340 -64.7121 -64.5665
   -64.5284 -64.5105 -64.4817 -64.4645 -37.3313 -37.2122 -37.1709 -37.1358
   -37.1131 -37.0813 -37.0322 -36.9489 -36.9318 -36.8907 -36.8747 -36.8468
   -36.8021 -36.7988 -36.7564 -36.6513 -36.6487 -36.6140 -36.6017 -36.5716
   -36.5582 -36.5465 -36.5116 -36.4980 -36.4978 -36.4635 -36.4462 -36.4454
   -36.4178 -36.3865 -36.3706 -36.3466 -36.2974 -36.2581 -36.1853 -36.1596
   -16.6390  -3.5756  -3.0218  -2.9184  -2.5247  -2.4283  -1.9537  -1.8937
    -1.7628  -1.7172  -1.5632  -1.4920  -1.3643  -1.2163  -1.1074  -1.0792
    -0.9772  -0.8674  -0.7387  -0.6538  -0.3795  -0.2845  -0.1824  -0.1162
    -0.0701   0.0039   0.3338   0.4802   0.6162   0.6464   0.9529   0.9611
     0.9903   1.0211   1.1471   1.1871   1.2311   1.2707   1.3052   1.3715
     1.4335   1.8003   1.8673   2.1801   2.2469   2.2558   2.3877   2.4111
     2.6043   2.7075   2.8466   2.8598   3.0497   3.0848   3.3168

     the Fermi energy is     2.4165 ev

!    total energy              =   -2136.00080498 Ry
     Harris-Foulkes estimate   =   -2136.00080508 Ry
     estimated scf accuracy    <       0.00000005 Ry

     The total energy is the sum of the following terms:

     one-electron contribution =  -19385.41031605 Ry
     hartree contribution      =    9693.84373185 Ry
     xc contribution           =    -404.68533611 Ry
     ewald contribution        =    7960.33870658 Ry
     electric field correction =       0.00001449 Ry
     smearing contrib. (-TS)   =      -0.08760575 Ry

     convergence has been achieved in  13 iterations
 
 BEEF-vdW xc energy contributions
           1 :   -354.487598368765     
           2 :    325.776907373634     
           3 :   -274.771173679261     
           4 :    211.765866951327     
           5 :   -147.689877185099     
           6 :    91.1065691043775     
           7 :   -46.5734518346915     
           8 :    14.5478582174711     
           9 :    7.34157577440800     
          10 :   -22.4415525269937     
          11 :    33.3961564916256     
          12 :   -41.2842659835223     
          13 :    45.6805745867021     
          14 :   -45.4383906645307     
          15 :    39.7116346429238     
          16 :   -28.7663519612738     
          17 :    14.2366775477977     
          18 :    1.22846951237909     
          19 :   -14.7529645056736     
          20 :    24.0848723983761     
          21 :   -28.1775227910333     
          22 :    27.2892296154021     
          23 :   -22.6289910660882     
          24 :    15.7529413277519     
          25 :   -8.01280293530414     
          26 :   0.275356952505945     
          27 :    7.02785313463511     
          28 :   -13.6389580120023     
          29 :    19.1977778616409     
          30 :   -23.1263431296366     
          31 :   -33.7924750609657     
          32 :   -24.7701957144777     

     Forces acting on atoms (Ry/au):


     negative rho (up, down):  1.590E+00 0.000E+00
     atom    1 type  1   force =     0.00000128    0.00000191    0.02926006
     atom    2 type  1   force =    -0.00000471   -0.00397247    0.02531894
     atom    3 type  1   force =    -0.00344403    0.00198681    0.02532674
     atom    4 type  1   force =     0.00343963    0.00198965    0.02532191
     atom    5 type  1   force =     0.00012951   -0.00007242   -0.01368707
     atom    6 type  1   force =    -0.00013519   -0.00006736   -0.01369074
     atom    7 type  1   force =     0.00000198   -0.00000320   -0.06265925
     atom    8 type  1   force =    -0.00000784    0.00014934   -0.01369335
     atom    9 type  1   force =     0.00065460    0.00037425    0.00000900
     atom   10 type  1   force =    -0.00063688    0.00036897   -0.00000811
     atom   11 type  1   force =     0.00000390   -0.00074553    0.00000345
     atom   12 type  1   force =    -0.00000618    0.00000130   -0.00083922
     atom   13 type  2   force =     0.00000391   -0.00001126   -0.00066237

     Total force =     0.001676     Total SCF correction =     0.000310
     SCF correction compared to forces is large: reduce conv_thr to get better values


     entering subroutine stress ...


     negative rho (up, down):  1.590E+00 0.000E+00
          total   stress  (Ry/bohr**3)                   (kbar)     P=  -24.43
  -0.00018718  -0.00000001   0.00000000        -27.54     -0.00      0.00
  -0.00000001  -0.00018719   0.00000001         -0.00    -27.54      0.00
   0.00000000   0.00000001  -0.00012384          0.00      0.00    -18.22


     bfgs converged in  11 scf cycles and  10 bfgs steps
     (criteria: energy <  1.0E+00, force <  1.9E-03)

     End of BFGS Geometry Optimization

     Final energy   =   -2136.0008049830 Ry
Begin final coordinates

ATOMIC_POSITIONS (crystal)
Tc1      0.166666667   0.166666667   0.408540475    0   0   0
Tc1      0.666666667   0.166666667   0.408540475    0   0   0
Tc1      0.166666667   0.666666667   0.408540475    0   0   0
Tc1      0.666666667   0.666666667   0.408540475    0   0   0
Tc1      0.833333333   0.333333333   0.500000000    0   0   0
Tc1      0.333333333   0.333333333   0.500000000    0   0   0
Tc1      0.833333333   0.833333333   0.500000000    0   0   0
Tc1      0.333333333   0.833333333   0.500000000    0   0   0
Tc1     -0.005391188  -0.005391115   0.591779240
Tc1      0.510754359  -0.005378541   0.591779178
Tc1     -0.005382742   0.510763923   0.591779239
Tc1      0.500000657   0.500000189   0.584448812
O1       0.166665255   0.166663077   0.641464098
End final coordinates



     Writing output data file calc.save
 
     init_run     :      9.97s CPU     10.34s WALL (       1 calls)
     electrons    :   3556.91s CPU   3784.51s WALL (      11 calls)
     update_pot   :     25.12s CPU     26.22s WALL (      10 calls)
     forces       :    146.86s CPU    156.50s WALL (      11 calls)
     stress       :    467.57s CPU    483.77s WALL (      11 calls)

     Called by init_run:
     wfcinit      :      3.94s CPU      4.02s WALL (       1 calls)
     potinit      :      1.57s CPU      1.65s WALL (       1 calls)

     Called by electrons:
     c_bands      :   1566.25s CPU   1645.77s WALL (     163 calls)
     sum_band     :    680.17s CPU    726.28s WALL (     163 calls)
     v_of_rho     :    221.78s CPU    236.41s WALL (     174 calls)
     newd         :    608.17s CPU    618.24s WALL (     174 calls)
     mix_rho      :      8.39s CPU      8.57s WALL (     163 calls)
     vdW_energy   :    111.10s CPU    121.73s WALL (     570 calls)
     vdW_ffts     :    240.35s CPU    252.93s WALL (    1162 calls)
     vdW_v        :     94.18s CPU     97.68s WALL (     570 calls)

     Called by c_bands:
     init_us_2    :      8.99s CPU      9.08s WALL (    1745 calls)
     cegterg      :   1437.87s CPU   1472.47s WALL (     815 calls)

     Called by *egterg:
     h_psi        :    839.20s CPU    856.25s WALL (    4155 calls)
     s_psi        :     87.94s CPU     88.08s WALL (    4155 calls)
     g_psi        :      5.69s CPU      5.74s WALL (    3335 calls)
     cdiaghg      :    196.70s CPU    198.03s WALL (    4100 calls)

     Called by h_psi:
     add_vuspsi   :     90.91s CPU     91.08s WALL (    4155 calls)

     General routines
     calbec       :    137.17s CPU    139.06s WALL (    5080 calls)
     fft          :    362.02s CPU    386.86s WALL (   34627 calls)
     ffts         :      0.53s CPU      0.53s WALL (     337 calls)
     fftw         :    486.34s CPU    504.49s WALL (  522089 calls)
     interpolate  :      4.71s CPU      4.86s WALL (     337 calls)
     davcio       :      0.00s CPU      0.04s WALL (       5 calls)
 
     Parallel routines
     fft_scatter  :    499.61s CPU    540.11s WALL (  557053 calls)
 
     PWSCF        :     1h10m CPU        1h15m WALL

 
   This run was terminated on:  18:30:30   2May2018            

=------------------------------------------------------------------------------=
   JOB DONE.
=------------------------------------------------------------------------------=
Job  /afs/slac/g/suncat/bin/suncat-tsmpirun -x LD_LIBRARY_PATH -wdir /scratch/qe805682_Z9pzB pw.x -npool 4 -in pw.inp

TID   HOST_NAME   COMMAND_LINE            STATUS            TERMINATION_TIME
===== ========== ================  =======================  ===================
00000 suncat0047 pw.x -npool 4 -i  Done                     05/02/2018 18:30:30
00001 suncat0047 pw.x -npool 4 -i  Done                     05/02/2018 18:30:30
00002 suncat0047 pw.x -npool 4 -i  Done                     05/02/2018 18:30:30
00003 suncat0047 pw.x -npool 4 -i  Done                     05/02/2018 18:30:30
00004 suncat0047 pw.x -npool 4 -i  Done                     05/02/2018 18:30:30
00005 suncat0047 pw.x -npool 4 -i  Done                     05/02/2018 18:30:30
00006 suncat0047 pw.x -npool 4 -i  Done                     05/02/2018 18:30:30
00007 suncat0047 pw.x -npool 4 -i  Done                     05/02/2018 18:30:30
00008 suncat0178 pw.x -npool 4 -i  Done                     05/02/2018 18:30:30
00009 suncat0178 pw.x -npool 4 -i  Done                     05/02/2018 18:30:30
00010 suncat0178 pw.x -npool 4 -i  Done                     05/02/2018 18:30:30
00011 suncat0178 pw.x -npool 4 -i  Done                     05/02/2018 18:30:30
00012 suncat0178 pw.x -npool 4 -i  Done                     05/02/2018 18:30:30
00013 suncat0178 pw.x -npool 4 -i  Done                     05/02/2018 18:30:30
00014 suncat0178 pw.x -npool 4 -i  Done                     05/02/2018 18:30:30
00015 suncat0178 pw.x -npool 4 -i  Done                     05/02/2018 18:30:30
00016 suncat0172 pw.x -npool 4 -i  Done                     05/02/2018 18:30:30
00017 suncat0172 pw.x -npool 4 -i  Done                     05/02/2018 18:30:30
00018 suncat0172 pw.x -npool 4 -i  Done                     05/02/2018 18:30:30
00019 suncat0172 pw.x -npool 4 -i  Done                     05/02/2018 18:30:30
00020 suncat0172 pw.x -npool 4 -i  Done                     05/02/2018 18:30:30
00021 suncat0172 pw.x -npool 4 -i  Done                     05/02/2018 18:30:30
00022 suncat0172 pw.x -npool 4 -i  Done                     05/02/2018 18:30:30
00023 suncat0172 pw.x -npool 4 -i  Done                     05/02/2018 18:30:30
00024 suncat0150 pw.x -npool 4 -i  Done                     05/02/2018 18:30:30
00025 suncat0150 pw.x -npool 4 -i  Done                     05/02/2018 18:30:30
00026 suncat0150 pw.x -npool 4 -i  Done                     05/02/2018 18:30:30
00027 suncat0150 pw.x -npool 4 -i  Done                     05/02/2018 18:30:30
00028 suncat0150 pw.x -npool 4 -i  Done                     05/02/2018 18:30:30
00029 suncat0150 pw.x -npool 4 -i  Done                     05/02/2018 18:30:30
00030 suncat0150 pw.x -npool 4 -i  Done                     05/02/2018 18:30:30
00031 suncat0150 pw.x -npool 4 -i  Done                     05/02/2018 18:30:30
