  python dir          : /u/if/mamunm/src/espresso
  espresso dir        : /nfs/slac/g/suncatfs/sw/espv18/espresso-dynpy-beef/bin
  pseudo dir          : /u/if/mamunm/psp/gbrv1.5pbe
  ase-espresso py git : GITVERSION



     Program PWSCF v.5.1rc2 (svn rev. 11289) starts on  3May2018 at  8:57:42 

     This program is part of the open-source Quantum ESPRESSO suite
     for quantum simulation of materials; please cite
         "P. Giannozzi et al., J. Phys.:Condens. Matter 21 395502 (2009);
          URL http://www.quantum-espresso.org", 
     in publications or presentations arising from this work. More details at
     http://www.quantum-espresso.org/quote

     Parallel version (MPI), running on    32 processors
     K-points division:     npool     =       4
     R & G space division:  proc/nbgrp/npool/nimage =       8
     Reading input from pw.inp
     Message from routine read_cards :
     DEPRECATED: no units specified in CELL_PARAMETERS card

     Current dimensions of program PWSCF are:
     Max number of different atomic species (ntypx) = 10
     Max number of k-points (npk) =  40000
     Max angular momentum in pseudopotentials (lmaxx) =  3
     Presently stress not available with electric field


     **************************************************************************
     Initializing libbeef V0.1.1 with the BEEF-vdW functional.
     Citation: Wellendorff et al., PRB 85, 235149 (2012).
     **************************************************************************


     IMPORTANT: XC functional enforced from input :
     Exchange-correlation      = BEEF-VDW ( 1  4 27 13 2)
     Any further DFT definition will be discarded
     Please, verify this is what you really want


     Subspace diagonalization in iterative solution of the eigenvalue problem:
     a serial algorithm will be used

 
     Parallelization info
     --------------------
     sticks:   dense  smooth     PW     G-vecs:    dense   smooth      PW
     Min         358     144     41                67928    17211    2707
     Max         359     145     43                67951    17239    2717
     Sum        2869    1159    337               543535   137813   21685
 


     bravais-lattice index     =            0
     lattice parameter (alat)  =       1.8897  a.u.
     unit-cell volume          =    4569.9960 (a.u.)^3
     number of atoms/cell      =           13
     number of atomic types    =            2
     number of electrons       =       198.00
     number of Kohn-Sham states=          109
     kinetic-energy cutoff     =      36.7493  Ry
     charge density cutoff     =     367.4932  Ry
     convergence threshold     =      1.0E-05
     mixing beta               =       0.3000
     number of iterations used =           10  plain     mixing
     Exchange-correlation      = BEEF-VDW ( 1  4 27 13 2)
     nstep                     =           50


     celldm(1)=   1.889726  celldm(2)=   0.000000  celldm(3)=   0.000000
     celldm(4)=   0.000000  celldm(5)=   0.000000  celldm(6)=   0.000000

     crystal axes: (cart. coord. in units of alat)
               a(1) = (   5.637663   0.000000   0.000000 )  
               a(2) = (   2.818831   4.882359   0.000000 )  
               a(3) = (   0.000000   0.000000  24.603132 )  

     reciprocal axes: (cart. coord. in units 2 pi/alat)
               b(1) = (  0.177378 -0.102410  0.000000 )  
               b(2) = (  0.000000  0.204819  0.000000 )  
               b(3) = (  0.000000  0.000000  0.040645 )  


     PseudoPot. # 1 for Pd read from file:
     /u/if/mamunm/psp/gbrv1.5pbe/Pd.UPF
     MD5 check sum: 2d733d2bc2cbfd217af676df1668a4bc
     Pseudo is Ultrasoft + core correction, Zval = 16.0
     Generated by new atomic code, or converted to UPF format
     Using radial grid of  887 points,  6 beta functions with: 
                l(1) =   0
                l(2) =   0
                l(3) =   1
                l(4) =   1
                l(5) =   2
                l(6) =   2
     Q(r) pseudized with  8 coefficients,  rinner =    1.130   1.130   1.130
                                                       1.130   1.130

     PseudoPot. # 2 for S  read from file:
     /u/if/mamunm/psp/gbrv1.5pbe/S.UPF
     MD5 check sum: 88d86576ff6df21479756cfb9bdac1df
     Pseudo is Ultrasoft + core correction, Zval =  6.0
     Generated by new atomic code, or converted to UPF format
     Using radial grid of  907 points,  6 beta functions with: 
                l(1) =   0
                l(2) =   0
                l(3) =   1
                l(4) =   1
                l(5) =   2
                l(6) =   2
     Q(r) pseudized with  8 coefficients,  rinner =    1.300   1.300   1.300
                                                       1.300   1.300

     vdW kernel table read from file vdW_kernel_table
     MD5 check sum: 095c7af220d748ca6e76c0b4c6cfb241

     atomic species   valence    mass     pseudopotential
        Pd1           16.00   106.42000     Pd( 1.00)
        S1             6.00    32.06000     S ( 1.00)

     No symmetry found



   Cartesian axes

     site n.     atom                  positions (alat units)
         1           Pd1 tau(   1) = (   1.4094157   0.8137265  10.0000000  )
         2           Pd1 tau(   2) = (   4.2282471   0.8137265  10.0000000  )
         3           Pd1 tau(   3) = (   2.8188314   3.2549061  10.0000000  )
         4           Pd1 tau(   4) = (   5.6376627   3.2549061  10.0000000  )
         5           Pd1 tau(   5) = (   5.6376627   1.6274531  12.3015662  )
         6           Pd1 tau(   6) = (   2.8188314   1.6274531  12.3015662  )
         7           Pd1 tau(   7) = (   7.0470784   4.0686326  12.3015662  )
         8           Pd1 tau(   8) = (   4.2282471   4.0686326  12.3015662  )
         9           Pd1 tau(   9) = (   0.0000000   0.0000000  14.6031324  )
        10           Pd1 tau(  10) = (   2.8188314   0.0000000  14.6031324  )
        11           Pd1 tau(  11) = (   1.4094157   2.4411796  14.6031324  )
        12           Pd1 tau(  12) = (   4.2282471   2.4411796  14.6031324  )
        13           S1  tau(  13) = (   1.4094157   0.8137265  16.1891324  )

     number of k points=    20  Fermi-Dirac smearing, width (Ry)=  0.0110
                       cart. coord. in units 2pi/alat
        k(    1) = (   0.0000000   0.0000000   0.0000000), wk =   0.0555556
        k(    2) = (   0.0000000   0.0341365   0.0000000), wk =   0.1111111
        k(    3) = (   0.0000000   0.0682730   0.0000000), wk =   0.1111111
        k(    4) = (   0.0000000  -0.1024095   0.0000000), wk =   0.0555556
        k(    5) = (   0.0295631  -0.0170683   0.0000000), wk =   0.1111111
        k(    6) = (   0.0295631   0.0170683   0.0000000), wk =   0.1111111
        k(    7) = (   0.0295631   0.0512048   0.0000000), wk =   0.1111111
        k(    8) = (   0.0295631  -0.1194778   0.0000000), wk =   0.1111111
        k(    9) = (   0.0295631  -0.0853413   0.0000000), wk =   0.1111111
        k(   10) = (   0.0295631  -0.0512048   0.0000000), wk =   0.1111111
        k(   11) = (   0.0591262  -0.0341365   0.0000000), wk =   0.1111111
        k(   12) = (   0.0591262  -0.0000000   0.0000000), wk =   0.1111111
        k(   13) = (   0.0591262   0.0341365   0.0000000), wk =   0.1111111
        k(   14) = (   0.0591262  -0.1365460   0.0000000), wk =   0.1111111
        k(   15) = (   0.0591262  -0.1024095   0.0000000), wk =   0.1111111
        k(   16) = (   0.0591262  -0.0682730   0.0000000), wk =   0.1111111
        k(   17) = (  -0.0886892   0.0512048   0.0000000), wk =   0.0555556
        k(   18) = (  -0.0886892   0.0853413   0.0000000), wk =   0.1111111
        k(   19) = (  -0.0886892   0.1194778   0.0000000), wk =   0.1111111
        k(   20) = (  -0.0886892  -0.0512048   0.0000000), wk =   0.0555556

     Dense  grid:   543535 G-vectors     FFT dimensions: (  72,  72, 288)

     Smooth grid:   137813 G-vectors     FFT dimensions: (  45,  45, 180)

     Largest allocated arrays     est. size (Mb)     dimensions
        Kohn-Sham Wavefunctions         3.65 Mb     (    2194,  109)
        NL pseudopotentials             7.83 Mb     (    2194,  234)
        Each V/rho on FFT grid          2.85 Mb     (  186624)
        Each G-vector array             0.52 Mb     (   67930)
        G-vector shells                 0.13 Mb     (   17595)
     Largest temporary arrays     est. size (Mb)     dimensions
        Auxiliary wavefunctions        14.60 Mb     (    2194,  436)
        Each subspace H/S matrix        2.90 Mb     (     436,  436)
        Each <psi_i|beta_j> matrix      0.39 Mb     (     234,  109)
        Arrays for rho mixing          28.48 Mb     (  186624,   10)

     Initial potential from superposition of free atoms
     Check: negative starting charge=   -0.903951

     starting charge  191.99988, renormalised to  198.00000

     negative rho (up, down):  9.322E-01 0.000E+00


     ************************************************************************
     *
     * You are using vdW-DF for exchange-correlation in this calculation.
     * Please cite the following three references that made this development
     * possible:
     *
     *   M. Dion, H. Rydberg, E. Schroder, D. C. Langreth, and
     *   B. I. Lundqvist, Phys. Rev. Lett. 92, 246401 (2004).
     *
     *   T. Thonhauser, V. R. Cooper, S. Li, A. Puzder, P. Hyldgaard, and
     *   D. C. Langreth, Phys. Rev. B 76, 125112 (2007).
     *
     *   G. Roman-Perez and J. M. Soler, Phys. Rev. Lett. 103, 096102 (2009).
     *
     *
     * If you are using vdW-DF2, please also cite:
     *
     *   K. Lee, E. D. Murray, L. Kong, B. I. Lundqvist, and
     *   D. C. Langreth, Phys. Rev. B 82, 081101(R) (2010).
     *
     *
     * If you are calculating the stress with vdW-DF, please also cite:
     *
     *   R. Sabatini, E. Kucukbenli, B. Kolb, T. Thonhauser, and
     *   S. de Gironcoli, J. Phys.: Condens. Matter 24, 424209 (2012).
     *
     ************************************************************************

     Carrying out vdW-DF run using the following parameters:

     Nqs =      20    Nr_points =    1024   r_max =   100.000
     q_mesh =
               0.00001000     0.04494208     0.09755937     0.15916263
               0.23128650     0.31572767     0.41458969     0.53033537
               0.66584808     0.82450364     1.01025438     1.22772762
               1.48234092     1.78043706     2.12944203     2.53805004
               3.01644009     3.57652955     4.23227104     5.00000000

     Gradients computed in reciprocal space

     ************************************************************************


 
     Adding external electric field

     Computed dipole along edir(3) : 
        Dipole               -1.3772 Ry au,         -3.5005 Debye
        Dipole field         -0.0038 Ry au
 
        Potential amp.        0.3433 Ry
        Total length         45.3309 bohr
 
     Starting wfc are  148 randomized atomic wfcs

     total cpu time spent up to now is       12.0 secs

     per-process dynamical memory:    84.6 Mb

     Self-consistent Calculation

     iteration #  1     ecut=    36.75 Ry     beta=0.30
     Davidson diagonalization with overlap
     ethr =  1.00E-02,  avg # of iterations =  4.9

     negative rho (up, down):  9.261E-01 0.000E+00
 
     Adding external electric field

     Computed dipole along edir(3) : 
        Dipole               27.2482 Ry au,         69.2580 Debye
        Dipole field          0.0749 Ry au
 
        Potential amp.       -6.7929 Ry
        Total length         45.3309 bohr
 

     total cpu time spent up to now is       34.9 secs

     total energy              =   -2373.92003960 Ry
     Harris-Foulkes estimate   =   -2424.54809116 Ry
     estimated scf accuracy    <     107.04394969 Ry

     iteration #  2     ecut=    36.75 Ry     beta=0.30
     Davidson diagonalization with overlap
     ethr =  1.00E-02,  avg # of iterations = 16.8

     negative rho (up, down):  9.209E-01 0.000E+00
 
     Adding external electric field

     Computed dipole along edir(3) : 
        Dipole                1.8386 Ry au,          4.6732 Debye
        Dipole field          0.0051 Ry au
 
        Potential amp.       -0.4584 Ry
        Total length         45.3309 bohr
 

     total cpu time spent up to now is       82.8 secs

     total energy              =   -2230.14583756 Ry
     Harris-Foulkes estimate   =   -2679.87432124 Ry
     estimated scf accuracy    <   13703.30447355 Ry

     iteration #  3     ecut=    36.75 Ry     beta=0.30
     Davidson diagonalization with overlap
     ethr =  1.00E-02,  avg # of iterations =  7.4

     negative rho (up, down):  9.289E-01 0.000E+00
 
     Adding external electric field

     Computed dipole along edir(3) : 
        Dipole                3.7662 Ry au,          9.5726 Debye
        Dipole field          0.0104 Ry au
 
        Potential amp.       -0.9389 Ry
        Total length         45.3309 bohr
 

     total cpu time spent up to now is      122.2 secs

     total energy              =   -2394.37364113 Ry
     Harris-Foulkes estimate   =   -2471.09098767 Ry
     estimated scf accuracy    <    1289.55426170 Ry

     iteration #  4     ecut=    36.75 Ry     beta=0.30
     Davidson diagonalization with overlap
     ethr =  1.00E-02,  avg # of iterations =  5.5

     negative rho (up, down):  9.843E-01 0.000E+00
 
     Adding external electric field

     Computed dipole along edir(3) : 
        Dipole                4.1019 Ry au,         10.4260 Debye
        Dipole field          0.0113 Ry au
 
        Potential amp.       -1.0226 Ry
        Total length         45.3309 bohr
 

     total cpu time spent up to now is      151.4 secs

     total energy              =   -2419.83576239 Ry
     Harris-Foulkes estimate   =   -2424.96072502 Ry
     estimated scf accuracy    <      23.06467900 Ry

     iteration #  5     ecut=    36.75 Ry     beta=0.30
     Davidson diagonalization with overlap
     ethr =  1.00E-02,  avg # of iterations =  2.0

     negative rho (up, down):  9.337E-01 0.000E+00
 
     Adding external electric field

     Computed dipole along edir(3) : 
        Dipole                2.2668 Ry au,          5.7617 Debye
        Dipole field          0.0062 Ry au
 
        Potential amp.       -0.5651 Ry
        Total length         45.3309 bohr
 

     total cpu time spent up to now is      170.6 secs

     total energy              =   -2421.70836928 Ry
     Harris-Foulkes estimate   =   -2423.26703448 Ry
     estimated scf accuracy    <      10.72053560 Ry

     iteration #  6     ecut=    36.75 Ry     beta=0.30
     Davidson diagonalization with overlap
     ethr =  5.41E-03,  avg # of iterations =  2.1

     negative rho (up, down):  9.400E-01 0.000E+00
 
     Adding external electric field

     Computed dipole along edir(3) : 
        Dipole                1.6180 Ry au,          4.1126 Debye
        Dipole field          0.0044 Ry au
 
        Potential amp.       -0.4034 Ry
        Total length         45.3309 bohr
 

     total cpu time spent up to now is      189.3 secs

     total energy              =   -2421.64131139 Ry
     Harris-Foulkes estimate   =   -2422.25083092 Ry
     estimated scf accuracy    <      10.33698961 Ry

     iteration #  7     ecut=    36.75 Ry     beta=0.30
     Davidson diagonalization with overlap
     ethr =  5.22E-03,  avg # of iterations =  1.0

     negative rho (up, down):  9.359E-01 0.000E+00
 
     Adding external electric field

     Computed dipole along edir(3) : 
        Dipole                1.0467 Ry au,          2.6603 Debye
        Dipole field          0.0029 Ry au
 
        Potential amp.       -0.2609 Ry
        Total length         45.3309 bohr
 

     total cpu time spent up to now is      207.8 secs

     total energy              =   -2421.92687600 Ry
     Harris-Foulkes estimate   =   -2422.03870277 Ry
     estimated scf accuracy    <       1.64837954 Ry

     iteration #  8     ecut=    36.75 Ry     beta=0.30
     Davidson diagonalization with overlap
     ethr =  8.33E-04,  avg # of iterations =  2.2

     negative rho (up, down):  9.364E-01 0.000E+00
 
     Adding external electric field

     Computed dipole along edir(3) : 
        Dipole                0.8401 Ry au,          2.1352 Debye
        Dipole field          0.0023 Ry au
 
        Potential amp.       -0.2094 Ry
        Total length         45.3309 bohr
 

     total cpu time spent up to now is      226.8 secs

     total energy              =   -2421.92250893 Ry
     Harris-Foulkes estimate   =   -2421.96791631 Ry
     estimated scf accuracy    <       0.59157815 Ry

     iteration #  9     ecut=    36.75 Ry     beta=0.30
     Davidson diagonalization with overlap
     ethr =  2.99E-04,  avg # of iterations =  1.7

     negative rho (up, down):  9.376E-01 0.000E+00
 
     Adding external electric field

     Computed dipole along edir(3) : 
        Dipole                0.4788 Ry au,          1.2169 Debye
        Dipole field          0.0013 Ry au
 
        Potential amp.       -0.1194 Ry
        Total length         45.3309 bohr
 

     total cpu time spent up to now is      245.7 secs

     total energy              =   -2421.91630224 Ry
     Harris-Foulkes estimate   =   -2421.94561906 Ry
     estimated scf accuracy    <       0.10577587 Ry

     iteration # 10     ecut=    36.75 Ry     beta=0.30
     Davidson diagonalization with overlap
     ethr =  5.34E-05,  avg # of iterations =  3.9

     negative rho (up, down):  9.387E-01 0.000E+00
 
     Adding external electric field

     Computed dipole along edir(3) : 
        Dipole                0.1658 Ry au,          0.4214 Debye
        Dipole field          0.0005 Ry au
 
        Potential amp.       -0.0413 Ry
        Total length         45.3309 bohr
 

     total cpu time spent up to now is      265.4 secs

     total energy              =   -2421.90827685 Ry
     Harris-Foulkes estimate   =   -2421.92845139 Ry
     estimated scf accuracy    <       0.07440865 Ry

     iteration # 11     ecut=    36.75 Ry     beta=0.30
     Davidson diagonalization with overlap
     ethr =  3.76E-05,  avg # of iterations =  2.0

     negative rho (up, down):  9.400E-01 0.000E+00
 
     Adding external electric field

     Computed dipole along edir(3) : 
        Dipole               -0.1572 Ry au,         -0.3996 Debye
        Dipole field         -0.0004 Ry au
 
        Potential amp.        0.0392 Ry
        Total length         45.3309 bohr
 

     total cpu time spent up to now is      284.3 secs

     total energy              =   -2421.91002691 Ry
     Harris-Foulkes estimate   =   -2421.91939164 Ry
     estimated scf accuracy    <       0.08273410 Ry

     iteration # 12     ecut=    36.75 Ry     beta=0.30
     Davidson diagonalization with overlap
     ethr =  3.76E-05,  avg # of iterations =  4.0

     negative rho (up, down):  9.402E-01 0.000E+00
 
     Adding external electric field

     Computed dipole along edir(3) : 
        Dipole               -0.1205 Ry au,         -0.3063 Debye
        Dipole field         -0.0003 Ry au
 
        Potential amp.        0.0300 Ry
        Total length         45.3309 bohr
 

     total cpu time spent up to now is      304.3 secs

     total energy              =   -2421.90913709 Ry
     Harris-Foulkes estimate   =   -2421.91480269 Ry
     estimated scf accuracy    <       0.09477315 Ry

     iteration # 13     ecut=    36.75 Ry     beta=0.30
     Davidson diagonalization with overlap
     ethr =  3.76E-05,  avg # of iterations =  1.0

     negative rho (up, down):  9.404E-01 0.000E+00
 
     Adding external electric field

     Computed dipole along edir(3) : 
        Dipole               -0.0812 Ry au,         -0.2063 Debye
        Dipole field         -0.0002 Ry au
 
        Potential amp.        0.0202 Ry
        Total length         45.3309 bohr
 

     total cpu time spent up to now is      322.5 secs

     total energy              =   -2421.91227621 Ry
     Harris-Foulkes estimate   =   -2421.91344554 Ry
     estimated scf accuracy    <       0.05042115 Ry

     iteration # 14     ecut=    36.75 Ry     beta=0.30
     Davidson diagonalization with overlap
     ethr =  2.55E-05,  avg # of iterations =  1.0

     negative rho (up, down):  9.410E-01 0.000E+00
 
     Adding external electric field

     Computed dipole along edir(3) : 
        Dipole               -0.0443 Ry au,         -0.1125 Debye
        Dipole field         -0.0001 Ry au
 
        Potential amp.        0.0110 Ry
        Total length         45.3309 bohr
 

     total cpu time spent up to now is      340.7 secs

     total energy              =   -2421.91221112 Ry
     Harris-Foulkes estimate   =   -2421.91277427 Ry
     estimated scf accuracy    <       0.00474833 Ry

     iteration # 15     ecut=    36.75 Ry     beta=0.30
     Davidson diagonalization with overlap
     ethr =  2.40E-06,  avg # of iterations =  4.5

     negative rho (up, down):  9.417E-01 0.000E+00
 
     Adding external electric field

     Computed dipole along edir(3) : 
        Dipole               -0.1001 Ry au,         -0.2544 Debye
        Dipole field         -0.0003 Ry au
 
        Potential amp.        0.0250 Ry
        Total length         45.3309 bohr
 

     total cpu time spent up to now is      361.2 secs

     total energy              =   -2421.91236837 Ry
     Harris-Foulkes estimate   =   -2421.91317698 Ry
     estimated scf accuracy    <       0.01661511 Ry

     iteration # 16     ecut=    36.75 Ry     beta=0.30
     Davidson diagonalization with overlap
     ethr =  2.40E-06,  avg # of iterations =  2.6

     negative rho (up, down):  9.422E-01 0.000E+00
 
     Adding external electric field

     Computed dipole along edir(3) : 
        Dipole               -0.0787 Ry au,         -0.2000 Debye
        Dipole field         -0.0002 Ry au
 
        Potential amp.        0.0196 Ry
        Total length         45.3309 bohr
 

     total cpu time spent up to now is      380.4 secs

     total energy              =   -2421.91279572 Ry
     Harris-Foulkes estimate   =   -2421.91282776 Ry
     estimated scf accuracy    <       0.00008635 Ry

     iteration # 17     ecut=    36.75 Ry     beta=0.30
     Davidson diagonalization with overlap
     ethr =  4.36E-08,  avg # of iterations =  3.0

     negative rho (up, down):  9.424E-01 0.000E+00
 
     Adding external electric field

     Computed dipole along edir(3) : 
        Dipole               -0.0767 Ry au,         -0.1948 Debye
        Dipole field         -0.0002 Ry au
 
        Potential amp.        0.0191 Ry
        Total length         45.3309 bohr
 

     total cpu time spent up to now is      400.9 secs

     total energy              =   -2421.91280993 Ry
     Harris-Foulkes estimate   =   -2421.91281496 Ry
     estimated scf accuracy    <       0.00011570 Ry

     iteration # 18     ecut=    36.75 Ry     beta=0.30
     Davidson diagonalization with overlap
     ethr =  4.36E-08,  avg # of iterations =  1.0

     negative rho (up, down):  9.425E-01 0.000E+00
 
     Adding external electric field

     Computed dipole along edir(3) : 
        Dipole               -0.0758 Ry au,         -0.1927 Debye
        Dipole field         -0.0002 Ry au
 
        Potential amp.        0.0189 Ry
        Total length         45.3309 bohr
 

     total cpu time spent up to now is      419.0 secs

     total energy              =   -2421.91280883 Ry
     Harris-Foulkes estimate   =   -2421.91281270 Ry
     estimated scf accuracy    <       0.00005145 Ry

     iteration # 19     ecut=    36.75 Ry     beta=0.30
     Davidson diagonalization with overlap
     ethr =  2.60E-08,  avg # of iterations =  1.0

     negative rho (up, down):  9.427E-01 0.000E+00

     negative rho (up, down):  9.427E-01 0.000E+00

     negative rho (up, down):  9.427E-01 0.000E+00

     negative rho (up, down):  9.427E-01 0.000E+00

     negative rho (up, down):  9.427E-01 0.000E+00

     negative rho (up, down):  9.427E-01 0.000E+00

     negative rho (up, down):  9.427E-01 0.000E+00

     negative rho (up, down):  9.427E-01 0.000E+00

     negative rho (up, down):  9.427E-01 0.000E+00

     negative rho (up, down):  9.427E-01 0.000E+00

     negative rho (up, down):  9.427E-01 0.000E+00

     negative rho (up, down):  9.427E-01 0.000E+00

     negative rho (up, down):  9.427E-01 0.000E+00

     negative rho (up, down):  9.427E-01 0.000E+00

     negative rho (up, down):  9.427E-01 0.000E+00

     negative rho (up, down):  9.427E-01 0.000E+00

     negative rho (up, down):  9.427E-01 0.000E+00

     negative rho (up, down):  9.427E-01 0.000E+00

     negative rho (up, down):  9.427E-01 0.000E+00

     negative rho (up, down):  9.427E-01 0.000E+00

     negative rho (up, down):  9.427E-01 0.000E+00

     negative rho (up, down):  9.427E-01 0.000E+00

     negative rho (up, down):  9.427E-01 0.000E+00

     negative rho (up, down):  9.427E-01 0.000E+00

     negative rho (up, down):  9.427E-01 0.000E+00

     negative rho (up, down):  9.427E-01 0.000E+00

     negative rho (up, down):  9.427E-01 0.000E+00

     negative rho (up, down):  9.427E-01 0.000E+00

     negative rho (up, down):  9.427E-01 0.000E+00

     negative rho (up, down):  9.427E-01 0.000E+00

     negative rho (up, down):  9.427E-01 0.000E+00

     negative rho (up, down):  9.427E-01 0.000E+00

     negative rho (up, down):  9.427E-01 0.000E+00

     negative rho (up, down):  9.427E-01 0.000E+00

     negative rho (up, down):  9.427E-01 0.000E+00
 
     Adding external electric field

     Computed dipole along edir(3) : 
        Dipole               -0.0655 Ry au,         -0.1665 Debye
        Dipole field         -0.0002 Ry au
 
        Potential amp.        0.0163 Ry
        Total length         45.3309 bohr
 

     total cpu time spent up to now is      484.6 secs

     End of self-consistent calculation

          k = 0.0000 0.0000 0.0000 ( 17231 PWs)   bands (ev):

   -49.4117 -49.2930 -49.2928 -49.0133 -49.0131 -48.9629 -48.9119 -48.8639
   -48.8636 -48.8093 -48.8090 -48.7908 -48.7163 -48.6937 -48.6816 -48.6808
   -48.6559 -48.6356 -48.6356 -48.5721 -48.5716 -48.5620 -48.5490 -48.5487
   -48.3947 -48.3944 -48.3819 -48.3319 -48.3318 -48.3272 -48.3272 -48.2482
   -48.2280 -48.2189 -48.2183 -48.1777 -12.1649  -4.7215  -4.2776  -3.9580
    -3.9579  -3.4997  -3.3751  -3.3469  -3.3270  -3.3268  -3.1152  -3.1151
    -3.0913  -2.9420  -2.9419  -2.8674  -2.6138  -2.6137  -2.2581  -1.8088
    -1.8087  -1.6752  -1.6752  -1.6430  -1.4969  -1.4025  -1.4024  -1.2573
    -1.2573  -1.1953  -1.0522  -1.0522  -1.0396  -1.0278  -1.0277  -0.6833
    -0.4484  -0.4482  -0.3190  -0.2865  -0.1434  -0.1433   0.0558   0.0560
     0.2186   0.2186   0.5041   0.5043   0.6240   0.6429   0.7113   0.7115
     0.8207   0.8331   0.8334   0.9711   0.9712   1.0066   1.0787   1.0790
     1.0979   1.2821   1.2823   1.2987   1.3478   1.3478   1.8173   2.9727
     3.5072   3.5072   3.8604   4.5637   4.5639

          k = 0.0000 0.0341 0.0000 ( 17192 PWs)   bands (ev):

   -49.4037 -49.2984 -49.2919 -49.0092 -49.0069 -48.9574 -48.9170 -48.8661
   -48.8612 -48.8048 -48.8031 -48.7798 -48.7151 -48.6922 -48.6806 -48.6803
   -48.6615 -48.6454 -48.6349 -48.5867 -48.5753 -48.5530 -48.5419 -48.5373
   -48.4033 -48.3977 -48.3834 -48.3474 -48.3357 -48.3309 -48.3283 -48.2468
   -48.2280 -48.2197 -48.2183 -48.1777 -12.1571  -4.5626  -4.1527  -3.9135
    -3.8731  -3.3604  -3.2840  -3.2108  -3.1943  -3.1748  -3.0556  -3.0106
    -2.9878  -2.8658  -2.8301  -2.7492  -2.5619  -2.5338  -2.2217  -1.8549
    -1.8259  -1.6529  -1.5961  -1.5927  -1.5023  -1.4583  -1.4365  -1.3118
    -1.2504  -1.1317  -1.1233  -1.1026  -0.9938  -0.9631  -0.9344  -0.9180
    -0.5759  -0.5755  -0.3461  -0.3341  -0.2792  -0.2465  -0.0571  -0.0500
     0.0905   0.2128   0.3115   0.3749   0.4226   0.4912   0.5720   0.6039
     0.6476   0.6597   0.7473   0.7730   0.8379   0.8391   0.8964   0.9576
     0.9773   1.0762   1.1283   1.1459   1.2498   1.3700   2.0970   2.4905
     3.3110   3.4925   3.5766   3.9288   4.4625

          k = 0.0000 0.0683 0.0000 ( 17196 PWs)   bands (ev):

   -49.3838 -49.3134 -49.2899 -49.0013 -48.9903 -48.9415 -48.9315 -48.8814
   -48.8576 -48.7912 -48.7796 -48.7481 -48.7127 -48.6894 -48.6833 -48.6809
   -48.6742 -48.6703 -48.6293 -48.6255 -48.5832 -48.5329 -48.5240 -48.5012
   -48.4242 -48.4161 -48.3894 -48.3753 -48.3461 -48.3384 -48.3305 -48.2436
   -48.2283 -48.2215 -48.2181 -48.1777 -12.1415  -4.2459  -3.8607  -3.6996
    -3.6855  -3.1648  -2.9926  -2.9499  -2.8654  -2.8634  -2.7571  -2.7446
    -2.6968  -2.6503  -2.6263  -2.5447  -2.2838  -2.2155  -2.1919  -1.9352
    -1.9039  -1.7722  -1.7395  -1.6040  -1.4873  -1.4861  -1.3994  -1.3167
    -1.2994  -1.2024  -1.1164  -1.0549  -0.9805  -0.9734  -0.9296  -0.9070
    -0.8906  -0.6986  -0.6222  -0.5511  -0.5273  -0.3807  -0.3341  -0.2577
    -0.2557  -0.1819  -0.1539  -0.0516   0.0425   0.1230   0.1394   0.2585
     0.3035   0.3537   0.3652   0.4611   0.5281   0.5696   0.6545   0.7026
     0.7996   0.8647   0.9070   1.0499   1.0922   1.3751   1.5429   2.5693
     3.1207   3.5288   3.7906   4.4202   4.7621

          k = 0.0000-0.1024 0.0000 ( 17240 PWs)   bands (ev):

   -49.3690 -49.3257 -49.2889 -48.9974 -48.9764 -48.9444 -48.9254 -48.8988
   -48.8564 -48.7807 -48.7610 -48.7128 -48.7078 -48.7018 -48.6941 -48.6879
   -48.6791 -48.6748 -48.6567 -48.6248 -48.5884 -48.5195 -48.5115 -48.4527
   -48.4422 -48.4363 -48.4295 -48.3645 -48.3572 -48.3422 -48.3316 -48.2418
   -48.2287 -48.2225 -48.2180 -48.1777 -12.1337  -4.1274  -3.7053  -3.5776
    -3.3160  -3.1862  -2.8431  -2.8119  -2.7485  -2.6726  -2.5839  -2.5632
    -2.4630  -2.4095  -2.2938  -2.2727  -2.2509  -2.1369  -2.1053  -2.0831
    -1.8111  -1.8032  -1.7738  -1.6904  -1.6545  -1.5708  -1.5177  -1.3822
    -1.3566  -1.1298  -1.1289  -1.0999  -1.0185  -0.9483  -0.9117  -0.8866
    -0.8280  -0.7982  -0.7408  -0.6841  -0.6561  -0.6121  -0.5360  -0.5112
    -0.4416  -0.3680  -0.3498  -0.3068  -0.2122  -0.1298  -0.0406  -0.0262
     0.0571   0.0606   0.1714   0.2495   0.2676   0.3457   0.5459   0.7121
     0.7877   0.8328   0.8971   1.0510   1.0654   1.3779   1.5809   2.4308
     3.4669   3.5700   4.0725   4.0970   4.8911

          k = 0.0296-0.0171 0.0000 ( 17192 PWs)   bands (ev):

   -49.4037 -49.2983 -49.2920 -49.0093 -49.0068 -48.9574 -48.9170 -48.8659
   -48.8614 -48.8051 -48.8027 -48.7798 -48.7151 -48.6922 -48.6812 -48.6797
   -48.6613 -48.6454 -48.6352 -48.5871 -48.5749 -48.5531 -48.5416 -48.5375
   -48.4030 -48.3980 -48.3834 -48.3474 -48.3356 -48.3309 -48.3283 -48.2468
   -48.2281 -48.2192 -48.2187 -48.1777 -12.1571  -4.5626  -4.1527  -3.9135
    -3.8732  -3.3604  -3.2840  -3.2106  -3.1945  -3.1748  -3.0558  -3.0105
    -2.9878  -2.8657  -2.8302  -2.7492  -2.5619  -2.5338  -2.2217  -1.8548
    -1.8260  -1.6530  -1.5961  -1.5926  -1.5023  -1.4584  -1.4365  -1.3118
    -1.2504  -1.1316  -1.1232  -1.1027  -0.9938  -0.9631  -0.9344  -0.9180
    -0.5759  -0.5756  -0.3461  -0.3341  -0.2792  -0.2464  -0.0570  -0.0501
     0.0904   0.2129   0.3113   0.3749   0.4228   0.4911   0.5719   0.6041
     0.6474   0.6596   0.7474   0.7728   0.8379   0.8392   0.8963   0.9577
     0.9774   1.0762   1.1283   1.1458   1.2497   1.3700   2.0970   2.4905
     3.3110   3.4925   3.5766   3.9288   4.4626

          k = 0.0296 0.0171 0.0000 ( 17192 PWs)   bands (ev):

   -49.4037 -49.2985 -49.2918 -49.0092 -49.0069 -48.9574 -48.9170 -48.8661
   -48.8613 -48.8049 -48.8029 -48.7798 -48.7151 -48.6922 -48.6810 -48.6799
   -48.6614 -48.6454 -48.6351 -48.5870 -48.5751 -48.5531 -48.5418 -48.5374
   -48.4032 -48.3978 -48.3834 -48.3474 -48.3357 -48.3309 -48.3283 -48.2468
   -48.2281 -48.2195 -48.2184 -48.1777 -12.1571  -4.5626  -4.1527  -3.9135
    -3.8732  -3.3604  -3.2840  -3.2107  -3.1944  -3.1748  -3.0557  -3.0106
    -2.9878  -2.8658  -2.8302  -2.7492  -2.5619  -2.5338  -2.2217  -1.8549
    -1.8259  -1.6530  -1.5961  -1.5927  -1.5023  -1.4583  -1.4365  -1.3118
    -1.2504  -1.1317  -1.1233  -1.1027  -0.9938  -0.9631  -0.9344  -0.9180
    -0.5759  -0.5755  -0.3461  -0.3341  -0.2792  -0.2464  -0.0570  -0.0500
     0.0904   0.2128   0.3114   0.3749   0.4227   0.4911   0.5719   0.6040
     0.6475   0.6597   0.7473   0.7729   0.8379   0.8392   0.8964   0.9576
     0.9774   1.0762   1.1283   1.1458   1.2497   1.3700   2.0970   2.4905
     3.3110   3.4925   3.5766   3.9288   4.4625

          k = 0.0296 0.0512 0.0000 ( 17186 PWs)   bands (ev):

   -49.3894 -49.3092 -49.2902 -49.0027 -48.9958 -48.9465 -48.9272 -48.8745
   -48.8595 -48.7957 -48.7853 -48.7597 -48.7133 -48.6904 -48.6846 -48.6789
   -48.6761 -48.6512 -48.6369 -48.6124 -48.5820 -48.5394 -48.5236 -48.5176
   -48.4269 -48.3948 -48.3857 -48.3752 -48.3436 -48.3359 -48.3306 -48.2445
   -48.2281 -48.2213 -48.2180 -48.1777 -12.1454  -4.3136  -3.9311  -3.8039
    -3.7347  -3.1502  -3.0846  -3.0276  -2.9485  -2.9395  -2.8729  -2.8469
    -2.7631  -2.7175  -2.6860  -2.5676  -2.4321  -2.3097  -2.1933  -1.9015
    -1.8244  -1.7789  -1.6700  -1.6618  -1.5116  -1.4436  -1.3862  -1.2904
    -1.2811  -1.1994  -1.1399  -1.0887  -1.0457  -0.9651  -0.9395  -0.8571
    -0.7888  -0.6976  -0.6230  -0.4717  -0.4511  -0.3110  -0.2643  -0.1802
    -0.1256  -0.0141  -0.0020   0.0172   0.1105   0.1766   0.2211   0.3681
     0.4074   0.4127   0.4885   0.5362   0.6450   0.7380   0.7615   0.7815
     0.8648   0.8966   0.9462   1.1087   1.2156   1.3991   1.9415   2.0816
     2.8190   3.0921   3.7980   4.4953   5.0825

          k = 0.0296-0.1195 0.0000 ( 17183 PWs)   bands (ev):

   -49.3684 -49.3268 -49.2885 -48.9960 -48.9784 -48.9448 -48.9273 -48.8927
   -48.8593 -48.7780 -48.7569 -48.7268 -48.7145 -48.7095 -48.6870 -48.6834
   -48.6770 -48.6690 -48.6449 -48.6315 -48.5915 -48.5192 -48.5015 -48.4770
   -48.4570 -48.4228 -48.4028 -48.3754 -48.3576 -48.3404 -48.3334 -48.2419
   -48.2280 -48.2235 -48.2176 -48.1777 -12.1337  -4.0819  -3.7486  -3.6099
    -3.3661  -3.0132  -2.8100  -2.7445  -2.7067  -2.6823  -2.6281  -2.5434
    -2.4970  -2.4679  -2.3818  -2.3009  -2.2011  -2.1393  -2.0951  -2.0291
    -1.9039  -1.8392  -1.7727  -1.7145  -1.6534  -1.5656  -1.5254  -1.4201
    -1.3486  -1.3007  -1.1986  -1.1815  -1.1021  -1.0841  -0.9857  -0.9579
    -0.8614  -0.8020  -0.6863  -0.6657  -0.6072  -0.5782  -0.5393  -0.4612
    -0.4103  -0.3491  -0.2672  -0.2209  -0.1864  -0.0507   0.0208   0.0593
     0.1511   0.2050   0.3192   0.3501   0.4422   0.5857   0.6490   0.7232
     0.7524   0.8227   0.8907   0.9251   1.0154   1.2027   1.6576   2.0507
     2.5584   3.3009   4.0213   4.6862   5.3842

          k = 0.0296-0.0853 0.0000 ( 17183 PWs)   bands (ev):

   -49.3684 -49.3268 -49.2885 -48.9960 -48.9784 -48.9448 -48.9273 -48.8927
   -48.8593 -48.7781 -48.7570 -48.7268 -48.7143 -48.7094 -48.6872 -48.6835
   -48.6768 -48.6693 -48.6449 -48.6316 -48.5914 -48.5192 -48.5015 -48.4770
   -48.4569 -48.4229 -48.4028 -48.3754 -48.3576 -48.3404 -48.3334 -48.2419
   -48.2281 -48.2234 -48.2177 -48.1777 -12.1337  -4.0819  -3.7486  -3.6099
    -3.3661  -3.0132  -2.8100  -2.7445  -2.7067  -2.6823  -2.6281  -2.5434
    -2.4970  -2.4679  -2.3818  -2.3009  -2.2010  -2.1393  -2.0952  -2.0291
    -1.9040  -1.8392  -1.7727  -1.7145  -1.6533  -1.5656  -1.5254  -1.4201
    -1.3486  -1.3008  -1.1987  -1.1815  -1.1021  -1.0840  -0.9857  -0.9579
    -0.8613  -0.8020  -0.6863  -0.6658  -0.6071  -0.5782  -0.5394  -0.4611
    -0.4103  -0.3491  -0.2671  -0.2209  -0.1864  -0.0507   0.0208   0.0593
     0.1510   0.2050   0.3192   0.3501   0.4422   0.5857   0.6490   0.7232
     0.7524   0.8227   0.8907   0.9251   1.0154   1.2027   1.6577   2.0507
     2.5584   3.3009   4.0213   4.6863   5.3842

          k = 0.0296-0.0512 0.0000 ( 17186 PWs)   bands (ev):

   -49.3895 -49.3091 -49.2903 -49.0028 -48.9957 -48.9465 -48.9272 -48.8744
   -48.8597 -48.7959 -48.7852 -48.7596 -48.7133 -48.6904 -48.6846 -48.6787
   -48.6761 -48.6514 -48.6369 -48.6125 -48.5818 -48.5395 -48.5235 -48.5177
   -48.4269 -48.3949 -48.3857 -48.3752 -48.3436 -48.3359 -48.3306 -48.2445
   -48.2281 -48.2211 -48.2181 -48.1777 -12.1454  -4.3136  -3.9311  -3.8039
    -3.7347  -3.1502  -3.0846  -3.0276  -2.9485  -2.9396  -2.8729  -2.8469
    -2.7630  -2.7175  -2.6860  -2.5676  -2.4321  -2.3097  -2.1933  -1.9014
    -1.8244  -1.7789  -1.6700  -1.6618  -1.5116  -1.4436  -1.3862  -1.2905
    -1.2811  -1.1993  -1.1399  -1.0887  -1.0457  -0.9651  -0.9394  -0.8571
    -0.7888  -0.6976  -0.6230  -0.4717  -0.4511  -0.3110  -0.2643  -0.1802
    -0.1255  -0.0141  -0.0020   0.0172   0.1105   0.1766   0.2212   0.3682
     0.4073   0.4127   0.4884   0.5362   0.6450   0.7379   0.7615   0.7815
     0.8648   0.8967   0.9462   1.1087   1.2156   1.3991   1.9415   2.0816
     2.8190   3.0921   3.7980   4.4953   5.0825

          k = 0.0591-0.0341 0.0000 ( 17196 PWs)   bands (ev):

   -49.3839 -49.3132 -49.2900 -49.0014 -48.9901 -48.9415 -48.9315 -48.8813
   -48.8578 -48.7918 -48.7790 -48.7481 -48.7127 -48.6895 -48.6827 -48.6815
   -48.6736 -48.6703 -48.6299 -48.6261 -48.5826 -48.5332 -48.5236 -48.5012
   -48.4238 -48.4164 -48.3895 -48.3754 -48.3459 -48.3384 -48.3305 -48.2436
   -48.2286 -48.2209 -48.2186 -48.1777 -12.1415  -4.2459  -3.8607  -3.6996
    -3.6855  -3.1649  -2.9925  -2.9499  -2.8655  -2.8634  -2.7570  -2.7445
    -2.6966  -2.6502  -2.6265  -2.5446  -2.2840  -2.2155  -2.1919  -1.9350
    -1.9039  -1.7722  -1.7394  -1.6040  -1.4873  -1.4862  -1.3995  -1.3167
    -1.2995  -1.2023  -1.1164  -1.0549  -0.9806  -0.9733  -0.9296  -0.9071
    -0.8904  -0.6986  -0.6222  -0.5511  -0.5273  -0.3808  -0.3339  -0.2577
    -0.2558  -0.1818  -0.1539  -0.0517   0.0426   0.1229   0.1394   0.2585
     0.3035   0.3538   0.3653   0.4610   0.5279   0.5696   0.6545   0.7025
     0.7992   0.8650   0.9073   1.0501   1.0919   1.3751   1.5428   2.5693
     3.1207   3.5289   3.7906   4.4201   4.7621

          k = 0.0591-0.0000 0.0000 ( 17186 PWs)   bands (ev):

   -49.3895 -49.3091 -49.2902 -49.0028 -48.9957 -48.9465 -48.9272 -48.8744
   -48.8597 -48.7960 -48.7851 -48.7596 -48.7133 -48.6904 -48.6847 -48.6784
   -48.6760 -48.6516 -48.6370 -48.6128 -48.5816 -48.5395 -48.5233 -48.5177
   -48.4268 -48.3950 -48.3857 -48.3752 -48.3436 -48.3359 -48.3306 -48.2445
   -48.2282 -48.2209 -48.2183 -48.1777 -12.1454  -4.3136  -3.9311  -3.8039
    -3.7347  -3.1503  -3.0845  -3.0276  -2.9485  -2.9396  -2.8729  -2.8468
    -2.7629  -2.7175  -2.6860  -2.5676  -2.4322  -2.3097  -2.1933  -1.9014
    -1.8244  -1.7789  -1.6700  -1.6618  -1.5116  -1.4436  -1.3862  -1.2905
    -1.2810  -1.1993  -1.1400  -1.0886  -1.0457  -0.9652  -0.9394  -0.8571
    -0.7888  -0.6976  -0.6229  -0.4717  -0.4511  -0.3109  -0.2644  -0.1802
    -0.1255  -0.0141  -0.0020   0.0172   0.1104   0.1765   0.2212   0.3683
     0.4071   0.4128   0.4883   0.5362   0.6449   0.7379   0.7616   0.7815
     0.8649   0.8968   0.9462   1.1087   1.2156   1.3990   1.9415   2.0816
     2.8190   3.0921   3.7980   4.4953   5.0825

          k = 0.0591 0.0341 0.0000 ( 17196 PWs)   bands (ev):

   -49.3838 -49.3134 -49.2898 -49.0012 -48.9903 -48.9415 -48.9315 -48.8815
   -48.8576 -48.7915 -48.7793 -48.7481 -48.7127 -48.6895 -48.6830 -48.6812
   -48.6739 -48.6703 -48.6296 -48.6258 -48.5829 -48.5330 -48.5238 -48.5012
   -48.4240 -48.4162 -48.3895 -48.3753 -48.3460 -48.3384 -48.3305 -48.2436
   -48.2284 -48.2212 -48.2183 -48.1777 -12.1415  -4.2459  -3.8607  -3.6996
    -3.6855  -3.1649  -2.9926  -2.9499  -2.8655  -2.8634  -2.7570  -2.7446
    -2.6967  -2.6503  -2.6264  -2.5446  -2.2839  -2.2155  -2.1919  -1.9351
    -1.9039  -1.7722  -1.7394  -1.6040  -1.4873  -1.4861  -1.3995  -1.3167
    -1.2995  -1.2024  -1.1164  -1.0549  -0.9806  -0.9734  -0.9296  -0.9070
    -0.8905  -0.6986  -0.6222  -0.5511  -0.5273  -0.3808  -0.3340  -0.2577
    -0.2557  -0.1818  -0.1539  -0.0517   0.0426   0.1230   0.1394   0.2585
     0.3035   0.3537   0.3653   0.4611   0.5280   0.5696   0.6545   0.7026
     0.7994   0.8648   0.9072   1.0500   1.0920   1.3751   1.5428   2.5693
     3.1207   3.5288   3.7906   4.4201   4.7621

          k = 0.0591-0.1365 0.0000 ( 17183 PWs)   bands (ev):

   -49.3683 -49.3269 -49.2884 -48.9959 -48.9785 -48.9447 -48.9272 -48.8928
   -48.8593 -48.7783 -48.7566 -48.7266 -48.7146 -48.7096 -48.6870 -48.6836
   -48.6769 -48.6687 -48.6453 -48.6318 -48.5912 -48.5193 -48.5015 -48.4769
   -48.4570 -48.4228 -48.4029 -48.3755 -48.3576 -48.3404 -48.3334 -48.2419
   -48.2281 -48.2233 -48.2177 -48.1777 -12.1337  -4.0819  -3.7486  -3.6099
    -3.3661  -3.0132  -2.8101  -2.7445  -2.7067  -2.6822  -2.6281  -2.5433
    -2.4970  -2.4680  -2.3818  -2.3009  -2.2011  -2.1394  -2.0951  -2.0292
    -1.9040  -1.8391  -1.7727  -1.7145  -1.6533  -1.5656  -1.5254  -1.4201
    -1.3486  -1.3007  -1.1985  -1.1816  -1.1021  -1.0841  -0.9857  -0.9578
    -0.8614  -0.8020  -0.6863  -0.6657  -0.6072  -0.5782  -0.5393  -0.4612
    -0.4103  -0.3491  -0.2672  -0.2208  -0.1864  -0.0507   0.0208   0.0592
     0.1512   0.2050   0.3192   0.3501   0.4422   0.5856   0.6488   0.7231
     0.7525   0.8228   0.8907   0.9252   1.0153   1.2027   1.6576   2.0508
     2.5584   3.3009   4.0213   4.6862   5.3842

          k = 0.0591-0.1024 0.0000 ( 17208 PWs)   bands (ev):

   -49.3501 -49.3444 -49.2876 -48.9924 -48.9649 -48.9605 -48.9129 -48.9031
   -48.8623 -48.7549 -48.7490 -48.7325 -48.7097 -48.7082 -48.7061 -48.6842
   -48.6760 -48.6721 -48.6399 -48.6395 -48.5989 -48.4970 -48.4897 -48.4675
   -48.4673 -48.4561 -48.3878 -48.3753 -48.3750 -48.3382 -48.3379 -48.2409
   -48.2265 -48.2260 -48.2173 -48.1777 -12.1298  -3.9573  -3.7131  -3.6227
    -2.9605  -2.9490  -2.7092  -2.5796  -2.5620  -2.5328  -2.4293  -2.4189
    -2.3785  -2.3753  -2.3186  -2.2956  -2.2061  -2.1887  -2.1599  -1.9338
    -1.8796  -1.8078  -1.7460  -1.7242  -1.7142  -1.6928  -1.6273  -1.5896
    -1.5531  -1.3461  -1.3260  -1.3207  -1.3187  -1.3058  -0.9885  -0.9601
    -0.9400  -0.9125  -0.9115  -0.8284  -0.8109  -0.7460  -0.5522  -0.4643
    -0.3073  -0.2900  -0.2556  -0.1740  -0.1097  -0.0183   0.0969   0.1282
     0.1612   0.2344   0.4113   0.4407   0.5404   0.5721   0.6597   0.7144
     0.7377   0.7808   0.7933   0.8558   0.9070   0.9728   1.1515   1.9035
     2.2596   3.0605   4.4041   4.5146   5.3841

          k = 0.0591-0.0683 0.0000 ( 17183 PWs)   bands (ev):

   -49.3685 -49.3267 -49.2885 -48.9961 -48.9783 -48.9448 -48.9273 -48.8926
   -48.8595 -48.7785 -48.7565 -48.7265 -48.7144 -48.7095 -48.6871 -48.6837
   -48.6766 -48.6687 -48.6456 -48.6321 -48.5910 -48.5194 -48.5014 -48.4769
   -48.4570 -48.4229 -48.4029 -48.3756 -48.3575 -48.3404 -48.3334 -48.2418
   -48.2284 -48.2230 -48.2178 -48.1777 -12.1337  -4.0820  -3.7486  -3.6099
    -3.3661  -3.0133  -2.8102  -2.7445  -2.7067  -2.6821  -2.6280  -2.5432
    -2.4970  -2.4680  -2.3817  -2.3008  -2.2011  -2.1395  -2.0951  -2.0292
    -1.9040  -1.8391  -1.7726  -1.7146  -1.6533  -1.5656  -1.5255  -1.4201
    -1.3487  -1.3007  -1.1985  -1.1816  -1.1021  -1.0841  -0.9857  -0.9578
    -0.8614  -0.8019  -0.6863  -0.6657  -0.6072  -0.5782  -0.5394  -0.4611
    -0.4103  -0.3491  -0.2672  -0.2208  -0.1865  -0.0507   0.0208   0.0592
     0.1511   0.2050   0.3193   0.3502   0.4422   0.5856   0.6487   0.7230
     0.7526   0.8229   0.8908   0.9252   1.0152   1.2027   1.6576   2.0508
     2.5584   3.3009   4.0213   4.6863   5.3842

          k =-0.0887 0.0512 0.0000 ( 17240 PWs)   bands (ev):

   -49.3691 -49.3255 -49.2890 -48.9975 -48.9762 -48.9445 -48.9255 -48.8985
   -48.8566 -48.7814 -48.7602 -48.7128 -48.7078 -48.7012 -48.6934 -48.6889
   -48.6788 -48.6741 -48.6581 -48.6256 -48.5876 -48.5200 -48.5110 -48.4521
   -48.4426 -48.4361 -48.4299 -48.3649 -48.3567 -48.3422 -48.3316 -48.2417
   -48.2292 -48.2217 -48.2185 -48.1777 -12.1337  -4.1274  -3.7053  -3.5777
    -3.3158  -3.1865  -2.8433  -2.8118  -2.7487  -2.6724  -2.5838  -2.5629
    -2.4631  -2.4092  -2.2941  -2.2727  -2.2507  -2.1370  -2.1052  -2.0833
    -1.8112  -1.8031  -1.7737  -1.6902  -1.6548  -1.5708  -1.5177  -1.3824
    -1.3566  -1.1297  -1.1290  -1.0999  -1.0184  -0.9483  -0.9116  -0.8867
    -0.8276  -0.7983  -0.7407  -0.6841  -0.6561  -0.6121  -0.5360  -0.5113
    -0.4416  -0.3681  -0.3497  -0.3067  -0.2121  -0.1299  -0.0406  -0.0263
     0.0573   0.0606   0.1714   0.2494   0.2677   0.3457   0.5459   0.7118
     0.7872   0.8330   0.8975   1.0508   1.0656   1.3778   1.5808   2.4308
     3.4668   3.5701   4.0726   4.0971   4.8910

          k =-0.0887 0.0853 0.0000 ( 17183 PWs)   bands (ev):

   -49.3685 -49.3267 -49.2885 -48.9961 -48.9783 -48.9448 -48.9273 -48.8926
   -48.8595 -48.7786 -48.7565 -48.7266 -48.7142 -48.7093 -48.6872 -48.6838
   -48.6763 -48.6691 -48.6456 -48.6321 -48.5909 -48.5194 -48.5013 -48.4769
   -48.4569 -48.4229 -48.4029 -48.3756 -48.3575 -48.3404 -48.3334 -48.2418
   -48.2284 -48.2229 -48.2179 -48.1777 -12.1337  -4.0820  -3.7486  -3.6099
    -3.3660  -3.0133  -2.8102  -2.7445  -2.7067  -2.6821  -2.6281  -2.5432
    -2.4971  -2.4679  -2.3817  -2.3008  -2.2010  -2.1395  -2.0952  -2.0292
    -1.9040  -1.8391  -1.7726  -1.7146  -1.6533  -1.5656  -1.5255  -1.4201
    -1.3487  -1.3007  -1.1986  -1.1816  -1.1021  -1.0841  -0.9857  -0.9578
    -0.8613  -0.8019  -0.6864  -0.6658  -0.6072  -0.5782  -0.5394  -0.4610
    -0.4103  -0.3490  -0.2672  -0.2208  -0.1865  -0.0507   0.0208   0.0593
     0.1510   0.2050   0.3192   0.3501   0.4422   0.5856   0.6487   0.7230
     0.7526   0.8228   0.8908   0.9252   1.0152   1.2027   1.6576   2.0508
     2.5584   3.3009   4.0213   4.6863   5.3842

          k =-0.0887 0.1195 0.0000 ( 17183 PWs)   bands (ev):

   -49.3684 -49.3268 -49.2884 -48.9960 -48.9785 -48.9447 -48.9272 -48.8927
   -48.8593 -48.7784 -48.7567 -48.7267 -48.7141 -48.7092 -48.6873 -48.6837
   -48.6764 -48.6694 -48.6453 -48.6319 -48.5911 -48.5194 -48.5014 -48.4770
   -48.4569 -48.4229 -48.4029 -48.3755 -48.3575 -48.3404 -48.3334 -48.2418
   -48.2283 -48.2231 -48.2178 -48.1777 -12.1337  -4.0819  -3.7486  -3.6099
    -3.3661  -3.0132  -2.8101  -2.7445  -2.7068  -2.6822  -2.6281  -2.5433
    -2.4970  -2.4679  -2.3818  -2.3008  -2.2010  -2.1394  -2.0952  -2.0291
    -1.9040  -1.8391  -1.7726  -1.7145  -1.6533  -1.5656  -1.5255  -1.4201
    -1.3487  -1.3008  -1.1987  -1.1816  -1.1021  -1.0840  -0.9857  -0.9579
    -0.8613  -0.8020  -0.6863  -0.6658  -0.6071  -0.5782  -0.5394  -0.4610
    -0.4103  -0.3490  -0.2671  -0.2209  -0.1865  -0.0507   0.0208   0.0593
     0.1510   0.2050   0.3192   0.3501   0.4422   0.5856   0.6488   0.7231
     0.7525   0.8228   0.8908   0.9252   1.0153   1.2027   1.6577   2.0508
     2.5584   3.3009   4.0213   4.6863   5.3842

          k =-0.0887-0.0512 0.0000 ( 17240 PWs)   bands (ev):

   -49.3689 -49.3258 -49.2889 -48.9973 -48.9765 -48.9444 -48.9253 -48.8988
   -48.8564 -48.7811 -48.7605 -48.7128 -48.7078 -48.7015 -48.6936 -48.6885
   -48.6790 -48.6743 -48.6575 -48.6252 -48.5879 -48.5198 -48.5112 -48.4524
   -48.4424 -48.4362 -48.4297 -48.3647 -48.3570 -48.3422 -48.3316 -48.2418
   -48.2290 -48.2221 -48.2182 -48.1777 -12.1337  -4.1274  -3.7053  -3.5776
    -3.3159  -3.1864  -2.8432  -2.8119  -2.7487  -2.6725  -2.5838  -2.5630
    -2.4631  -2.4093  -2.2940  -2.2727  -2.2508  -2.1369  -2.1053  -2.0832
    -1.8112  -1.8032  -1.7737  -1.6903  -1.6547  -1.5708  -1.5177  -1.3823
    -1.3566  -1.1297  -1.1289  -1.0999  -1.0184  -0.9483  -0.9117  -0.8867
    -0.8278  -0.7983  -0.7407  -0.6841  -0.6561  -0.6121  -0.5360  -0.5112
    -0.4416  -0.3680  -0.3498  -0.3067  -0.2121  -0.1299  -0.0406  -0.0262
     0.0572   0.0606   0.1714   0.2494   0.2676   0.3457   0.5459   0.7119
     0.7874   0.8329   0.8973   1.0509   1.0656   1.3779   1.5809   2.4308
     3.4668   3.5701   4.0725   4.0971   4.8910

     the Fermi energy is     1.0746 ev

!    total energy              =   -2421.91280642 Ry
     Harris-Foulkes estimate   =   -2421.91281482 Ry
     estimated scf accuracy    <       0.00000371 Ry

     The total energy is the sum of the following terms:

     one-electron contribution =  -20676.50487357 Ry
     hartree contribution      =   10389.72974413 Ry
     xc contribution           =    -398.97271613 Ry
     ewald contribution        =    8263.94578601 Ry
     electric field correction =       0.00001180 Ry
     smearing contrib. (-TS)   =      -0.11075866 Ry

     convergence has been achieved in  19 iterations
 
 BEEF-vdW xc energy contributions
           1 :   -347.210025239031     
           2 :    317.117789034420     
           3 :   -265.751537822919     
           4 :    206.871196632138     
           5 :   -153.838582705425     
           6 :    115.243132762582     
           7 :   -93.0212496916329     
           8 :    83.4123923048198     
           9 :   -79.9183252822728     
          10 :    76.6773559191988     
          11 :   -70.7268352910957     
          12 :    62.3694521104046     
          13 :   -53.9000673728024     
          14 :    47.6881343667484     
          15 :   -44.7289803384786     
          16 :    44.2962130181102     
          17 :   -44.6349123509330     
          18 :    44.0980206259438     
          19 :   -42.0093203781765     
          20 :    38.8197403645585     
          21 :   -35.6031074642633     
          22 :    33.2959228964623     
          23 :   -32.1621561670877     
          24 :    31.7504334741809     
          25 :   -31.2872138656582     
          26 :    30.2019208843495     
          27 :   -28.4480323938460     
          28 :    26.4514300268991     
          29 :   -24.7690591877493     
          30 :    23.7080728645966     
          31 :   -33.9829442503072     
          32 :   -25.0843121694948     

     Forces acting on atoms (Ry/au):


     negative rho (up, down):  9.427E-01 0.000E+00
     atom    1 type  1   force =     0.00002301   -0.00003724   -0.00005721
     atom    2 type  1   force =    -0.00002317    0.00278405   -0.00283736
     atom    3 type  1   force =     0.00244187   -0.00138521   -0.00266172
     atom    4 type  1   force =    -0.00244298   -0.00136043   -0.00270571
     atom    5 type  1   force =    -0.00200514    0.00117821   -0.00578512
     atom    6 type  1   force =     0.00200049    0.00118322   -0.00575647
     atom    7 type  1   force =     0.00000227   -0.00002137    0.01119152
     atom    8 type  1   force =    -0.00000093   -0.00234191   -0.00577714
     atom    9 type  1   force =    -0.01911340   -0.01108998    0.00064146
     atom   10 type  1   force =     0.01911288   -0.01105984    0.00062487
     atom   11 type  1   force =     0.00002560    0.02211121    0.00067063
     atom   12 type  1   force =    -0.00002373    0.00003866    0.00285545
     atom   13 type  2   force =     0.00000323    0.00000063    0.00959680

     Total force =     0.039577     Total SCF correction =     0.012028
     SCF correction compared to forces is large: reduce conv_thr to get better values


     entering subroutine stress ...


     negative rho (up, down):  9.427E-01 0.000E+00
          total   stress  (Ry/bohr**3)                   (kbar)     P=   -3.32
  -0.00004269  -0.00000001  -0.00000001         -6.28     -0.00     -0.00
  -0.00000001  -0.00004270   0.00000000         -0.00     -6.28      0.00
  -0.00000001   0.00000000   0.00001769         -0.00      0.00      2.60


     BFGS Geometry Optimization

     number of scf cycles    =   1
     number of bfgs steps    =   0

     energy   new            =   -2421.9128064231 Ry

     new trust radius        =       0.0221213923 bohr
     new conv_thr            =       0.0000099958 Ry


ATOMIC_POSITIONS (crystal)
Pd1      0.166666667   0.166666667   0.406452311    0   0   0
Pd1      0.666666667   0.166666667   0.406452311    0   0   0
Pd1      0.166666667   0.666666667   0.406452311    0   0   0
Pd1      0.666666667   0.666666667   0.406452311    0   0   0
Pd1      0.833333333   0.333333333   0.500000000    0   0   0
Pd1      0.333333333   0.333333333   0.500000000    0   0   0
Pd1      0.833333333   0.833333333   0.500000000    0   0   0
Pd1      0.333333333   0.833333333   0.500000000    0   0   0
Pd1     -0.001193076  -0.001201994   0.593561486
Pd1      0.502393387  -0.001198727   0.593561129
Pd1     -0.001195865   0.502396536   0.593562113
Pd1      0.499995678   0.500004190   0.593609106
S1       0.166666936   0.166666735   0.658217439



     Writing output data file calc.save
     Check: negative starting charge=   -0.903951
     NEW-OLD atomic charge density approx. for the potential
     Check: negative starting charge=   -0.903518

     negative rho (up, down):  9.426E-01 0.000E+00
 
     Adding external electric field

     Computed dipole along edir(3) : 
        Dipole               -0.0631 Ry au,         -0.1604 Debye
        Dipole field         -0.0002 Ry au
 
        Potential amp.        0.0157 Ry
        Total length         45.3309 bohr
 

     total cpu time spent up to now is      547.1 secs

     per-process dynamical memory:   147.4 Mb

     Self-consistent Calculation

     iteration #  1     ecut=    36.75 Ry     beta=0.30
     Davidson diagonalization with overlap
     ethr =  1.00E-06,  avg # of iterations =  4.0

     negative rho (up, down):  9.425E-01 0.000E+00
 
     Adding external electric field

     Computed dipole along edir(3) : 
        Dipole               -0.2342 Ry au,         -0.5953 Debye
        Dipole field         -0.0006 Ry au
 
        Potential amp.        0.0584 Ry
        Total length         45.3309 bohr
 

     total cpu time spent up to now is      576.8 secs

     total energy              =   -2421.91170721 Ry
     Harris-Foulkes estimate   =   -2421.91404401 Ry
     estimated scf accuracy    <       0.00497919 Ry

     iteration #  2     ecut=    36.75 Ry     beta=0.30
     Davidson diagonalization with overlap
     ethr =  2.51E-06,  avg # of iterations =  4.2

     negative rho (up, down):  9.425E-01 0.000E+00
 
     Adding external electric field

     Computed dipole along edir(3) : 
        Dipole               -0.0695 Ry au,         -0.1767 Debye
        Dipole field         -0.0002 Ry au
 
        Potential amp.        0.0173 Ry
        Total length         45.3309 bohr
 

     total cpu time spent up to now is      600.0 secs

     total energy              =   -2421.89082990 Ry
     Harris-Foulkes estimate   =   -2421.93802777 Ry
     estimated scf accuracy    <       1.73376553 Ry

     iteration #  3     ecut=    36.75 Ry     beta=0.30
     Davidson diagonalization with overlap
     ethr =  2.51E-06,  avg # of iterations =  4.5

     negative rho (up, down):  9.425E-01 0.000E+00
 
     Adding external electric field

     Computed dipole along edir(3) : 
        Dipole               -0.0792 Ry au,         -0.2014 Debye
        Dipole field         -0.0002 Ry au
 
        Potential amp.        0.0198 Ry
        Total length         45.3309 bohr
 

     total cpu time spent up to now is      623.2 secs

     total energy              =   -2421.91291069 Ry
     Harris-Foulkes estimate   =   -2421.91519163 Ry
     estimated scf accuracy    <       0.03361250 Ry

     iteration #  4     ecut=    36.75 Ry     beta=0.30
     Davidson diagonalization with overlap
     ethr =  2.51E-06,  avg # of iterations =  2.5

     negative rho (up, down):  9.426E-01 0.000E+00
 
     Adding external electric field

     Computed dipole along edir(3) : 
        Dipole               -0.0762 Ry au,         -0.1936 Debye
        Dipole field         -0.0002 Ry au
 
        Potential amp.        0.0190 Ry
        Total length         45.3309 bohr
 

     total cpu time spent up to now is      642.8 secs

     total energy              =   -2421.91401475 Ry
     Harris-Foulkes estimate   =   -2421.91408874 Ry
     estimated scf accuracy    <       0.00064573 Ry

     iteration #  5     ecut=    36.75 Ry     beta=0.30
     Davidson diagonalization with overlap
     ethr =  3.26E-07,  avg # of iterations =  1.0

     negative rho (up, down):  9.425E-01 0.000E+00
 
     Adding external electric field

     Computed dipole along edir(3) : 
        Dipole               -0.0742 Ry au,         -0.1886 Debye
        Dipole field         -0.0002 Ry au
 
        Potential amp.        0.0185 Ry
        Total length         45.3309 bohr
 

     total cpu time spent up to now is      661.2 secs

     total energy              =   -2421.91405322 Ry
     Harris-Foulkes estimate   =   -2421.91405647 Ry
     estimated scf accuracy    <       0.00003518 Ry

     iteration #  6     ecut=    36.75 Ry     beta=0.30
     Davidson diagonalization with overlap
     ethr =  1.78E-08,  avg # of iterations =  2.6

     negative rho (up, down):  9.425E-01 0.000E+00
 
     Adding external electric field

     Computed dipole along edir(3) : 
        Dipole               -0.0755 Ry au,         -0.1918 Debye
        Dipole field         -0.0002 Ry au
 
        Potential amp.        0.0188 Ry
        Total length         45.3309 bohr
 

     total cpu time spent up to now is      682.0 secs

     total energy              =   -2421.91405467 Ry
     Harris-Foulkes estimate   =   -2421.91405852 Ry
     estimated scf accuracy    <       0.00003409 Ry

     iteration #  7     ecut=    36.75 Ry     beta=0.30
     Davidson diagonalization with overlap
     ethr =  1.72E-08,  avg # of iterations =  1.0

     negative rho (up, down):  9.425E-01 0.000E+00
 
     Adding external electric field

     Computed dipole along edir(3) : 
        Dipole               -0.0762 Ry au,         -0.1937 Debye
        Dipole field         -0.0002 Ry au
 
        Potential amp.        0.0190 Ry
        Total length         45.3309 bohr
 

     total cpu time spent up to now is      701.0 secs

     total energy              =   -2421.91405693 Ry
     Harris-Foulkes estimate   =   -2421.91405798 Ry
     estimated scf accuracy    <       0.00001608 Ry

     iteration #  8     ecut=    36.75 Ry     beta=0.30
     Davidson diagonalization with overlap
     ethr =  8.12E-09,  avg # of iterations =  1.9

     negative rho (up, down):  9.425E-01 0.000E+00

     negative rho (up, down):  9.425E-01 0.000E+00

     negative rho (up, down):  9.425E-01 0.000E+00

     negative rho (up, down):  9.425E-01 0.000E+00

     negative rho (up, down):  9.425E-01 0.000E+00

     negative rho (up, down):  9.425E-01 0.000E+00

     negative rho (up, down):  9.425E-01 0.000E+00

     negative rho (up, down):  9.425E-01 0.000E+00

     negative rho (up, down):  9.425E-01 0.000E+00

     negative rho (up, down):  9.425E-01 0.000E+00

     negative rho (up, down):  9.425E-01 0.000E+00

     negative rho (up, down):  9.425E-01 0.000E+00

     negative rho (up, down):  9.425E-01 0.000E+00

     negative rho (up, down):  9.425E-01 0.000E+00

     negative rho (up, down):  9.425E-01 0.000E+00

     negative rho (up, down):  9.425E-01 0.000E+00

     negative rho (up, down):  9.425E-01 0.000E+00

     negative rho (up, down):  9.425E-01 0.000E+00

     negative rho (up, down):  9.425E-01 0.000E+00

     negative rho (up, down):  9.425E-01 0.000E+00

     negative rho (up, down):  9.425E-01 0.000E+00

     negative rho (up, down):  9.425E-01 0.000E+00

     negative rho (up, down):  9.425E-01 0.000E+00

     negative rho (up, down):  9.425E-01 0.000E+00

     negative rho (up, down):  9.425E-01 0.000E+00

     negative rho (up, down):  9.425E-01 0.000E+00

     negative rho (up, down):  9.425E-01 0.000E+00

     negative rho (up, down):  9.425E-01 0.000E+00

     negative rho (up, down):  9.425E-01 0.000E+00

     negative rho (up, down):  9.425E-01 0.000E+00

     negative rho (up, down):  9.425E-01 0.000E+00

     negative rho (up, down):  9.425E-01 0.000E+00

     negative rho (up, down):  9.425E-01 0.000E+00

     negative rho (up, down):  9.425E-01 0.000E+00

     negative rho (up, down):  9.425E-01 0.000E+00
 
     Adding external electric field

     Computed dipole along edir(3) : 
        Dipole               -0.0912 Ry au,         -0.2318 Debye
        Dipole field         -0.0003 Ry au
 
        Potential amp.        0.0227 Ry
        Total length         45.3309 bohr
 

     total cpu time spent up to now is      768.3 secs

     End of self-consistent calculation

          k = 0.0000 0.0000 0.0000 ( 17231 PWs)   bands (ev):

   -49.3987 -49.2788 -49.2786 -49.0089 -49.0088 -48.9564 -48.9078 -48.8627
   -48.8627 -48.8099 -48.8098 -48.7939 -48.7286 -48.6960 -48.6834 -48.6831
   -48.6572 -48.6419 -48.6418 -48.5750 -48.5748 -48.5672 -48.5531 -48.5530
   -48.3995 -48.3993 -48.3863 -48.3365 -48.3365 -48.3306 -48.3306 -48.2527
   -48.2325 -48.2230 -48.2227 -48.1786 -12.1062  -4.7175  -4.2504  -3.9205
    -3.9205  -3.4928  -3.3724  -3.3496  -3.3259  -3.3259  -3.1101  -3.1100
    -3.0916  -2.9437  -2.9437  -2.8724  -2.6076  -2.6076  -2.2539  -1.8014
    -1.8014  -1.6759  -1.6758  -1.6481  -1.5010  -1.4031  -1.4031  -1.2541
    -1.2540  -1.1884  -1.0564  -1.0564  -1.0406  -1.0247  -1.0246  -0.6923
    -0.4533  -0.4532  -0.3239  -0.2846  -0.1411  -0.1411   0.0571   0.0571
     0.2124   0.2124   0.5034   0.5035   0.6201   0.6320   0.7059   0.7060
     0.8261   0.8292   0.8293   0.9701   0.9701   0.9990   1.0731   1.0733
     1.0959   1.2773   1.2774   1.2945   1.3443   1.3443   1.8060   2.9683
     3.4987   3.4987   3.8534   4.5632   4.5632

          k = 0.0000 0.0341 0.0000 ( 17192 PWs)   bands (ev):

   -49.3906 -49.2842 -49.2777 -49.0050 -49.0025 -48.9510 -48.9129 -48.8633
   -48.8594 -48.8065 -48.8053 -48.7829 -48.7276 -48.6943 -48.6827 -48.6823
   -48.6629 -48.6517 -48.6409 -48.5898 -48.5782 -48.5582 -48.5461 -48.5417
   -48.4081 -48.4025 -48.3878 -48.3520 -48.3403 -48.3344 -48.3317 -48.2514
   -48.2325 -48.2238 -48.2226 -48.1786 -12.0983  -4.5551  -4.1257  -3.8747
    -3.8322  -3.3540  -3.2810  -3.2080  -3.1935  -3.1792  -3.0505  -3.0062
    -2.9880  -2.8675  -2.8301  -2.7532  -2.5587  -2.5294  -2.2173  -1.8529
    -1.8236  -1.6522  -1.5934  -1.5926  -1.5066  -1.4587  -1.4378  -1.3079
    -1.2484  -1.1360  -1.1218  -1.1028  -0.9892  -0.9638  -0.9381  -0.9228
    -0.5817  -0.5778  -0.3501  -0.3344  -0.2799  -0.2443  -0.0577  -0.0495
     0.0858   0.2079   0.3070   0.3762   0.4139   0.4911   0.5686   0.6020
     0.6447   0.6570   0.7455   0.7710   0.8320   0.8362   0.8943   0.9535
     0.9698   1.0726   1.1237   1.1416   1.2432   1.3622   2.0898   2.4809
     3.3049   3.4881   3.5741   3.9231   4.4605

          k = 0.0000 0.0683 0.0000 ( 17196 PWs)   bands (ev):

   -49.3704 -49.2992 -49.2756 -48.9970 -48.9859 -48.9352 -48.9274 -48.8769
   -48.8544 -48.7950 -48.7828 -48.7519 -48.7257 -48.6916 -48.6852 -48.6833
   -48.6764 -48.6755 -48.6350 -48.6282 -48.5858 -48.5379 -48.5283 -48.5058
   -48.4290 -48.4207 -48.3941 -48.3799 -48.3507 -48.3420 -48.3340 -48.2483
   -48.2327 -48.2257 -48.2225 -48.1786 -12.0824  -4.2233  -3.8238  -3.6730
    -3.6350  -3.1625  -2.9881  -2.9438  -2.8661  -2.8569  -2.7624  -2.7400
    -2.6969  -2.6522  -2.6239  -2.5479  -2.2842  -2.2154  -2.1913  -1.9388
    -1.9025  -1.7760  -1.7443  -1.6038  -1.4867  -1.4770  -1.4038  -1.3210
    -1.2955  -1.2090  -1.1185  -1.0567  -0.9796  -0.9694  -0.9314  -0.9138
    -0.8915  -0.6995  -0.6267  -0.5552  -0.5294  -0.3816  -0.3357  -0.2614
    -0.2563  -0.1839  -0.1550  -0.0536   0.0458   0.1184   0.1334   0.2546
     0.3057   0.3513   0.3636   0.4582   0.5234   0.5663   0.6501   0.6989
     0.7937   0.8566   0.9038   1.0473   1.0878   1.3676   1.5324   2.5604
     3.1118   3.5270   3.7844   4.4168   4.7592

          k = 0.0000-0.1024 0.0000 ( 17240 PWs)   bands (ev):

   -49.3555 -49.3116 -49.2746 -48.9930 -48.9721 -48.9404 -48.9189 -48.8941
   -48.8526 -48.7855 -48.7629 -48.7254 -48.7173 -48.7045 -48.6955 -48.6907
   -48.6807 -48.6761 -48.6592 -48.6307 -48.5906 -48.5245 -48.5158 -48.4574
   -48.4467 -48.4411 -48.4341 -48.3693 -48.3617 -48.3458 -48.3351 -48.2465
   -48.2331 -48.2266 -48.2224 -48.1786 -12.0745  -4.0959  -3.6504  -3.5195
    -3.3058  -3.1812  -2.8346  -2.8097  -2.7539  -2.6723  -2.5856  -2.5555
    -2.4692  -2.4061  -2.2955  -2.2757  -2.2535  -2.1405  -2.1052  -2.0800
    -1.8193  -1.8072  -1.7669  -1.6909  -1.6572  -1.5781  -1.5157  -1.3881
    -1.3576  -1.1340  -1.1292  -1.1100  -1.0228  -0.9503  -0.9118  -0.8851
    -0.8245  -0.8006  -0.7462  -0.6859  -0.6590  -0.6095  -0.5347  -0.5178
    -0.4376  -0.3695  -0.3499  -0.2999  -0.2170  -0.1420  -0.0473  -0.0272
     0.0537   0.0550   0.1721   0.2483   0.2656   0.3446   0.5424   0.7082
     0.7818   0.8287   0.8942   1.0464   1.0628   1.3711   1.5666   2.4215
     3.4622   3.5685   4.0663   4.0856   4.8879

          k = 0.0296-0.0171 0.0000 ( 17192 PWs)   bands (ev):

   -49.3906 -49.2843 -49.2776 -49.0049 -49.0026 -48.9510 -48.9129 -48.8633
   -48.8595 -48.8066 -48.8052 -48.7829 -48.7276 -48.6943 -48.6830 -48.6821
   -48.6628 -48.6517 -48.6411 -48.5899 -48.5780 -48.5583 -48.5460 -48.5417
   -48.4080 -48.4026 -48.3878 -48.3521 -48.3403 -48.3344 -48.3317 -48.2514
   -48.2325 -48.2236 -48.2228 -48.1786 -12.0983  -4.5551  -4.1257  -3.8747
    -3.8322  -3.3540  -3.2810  -3.2079  -3.1935  -3.1792  -3.0505  -3.0062
    -2.9880  -2.8675  -2.8302  -2.7532  -2.5587  -2.5294  -2.2173  -1.8529
    -1.8236  -1.6523  -1.5934  -1.5926  -1.5066  -1.4587  -1.4378  -1.3079
    -1.2484  -1.1360  -1.1218  -1.1028  -0.9892  -0.9638  -0.9381  -0.9229
    -0.5817  -0.5778  -0.3501  -0.3344  -0.2799  -0.2443  -0.0576  -0.0496
     0.0857   0.2079   0.3069   0.3762   0.4140   0.4911   0.5686   0.6021
     0.6446   0.6569   0.7455   0.7709   0.8319   0.8363   0.8942   0.9536
     0.9699   1.0727   1.1237   1.1415   1.2432   1.3622   2.0898   2.4809
     3.3049   3.4881   3.5741   3.9231   4.4605

          k = 0.0296 0.0171 0.0000 ( 17192 PWs)   bands (ev):

   -49.3906 -49.2843 -49.2776 -49.0049 -49.0026 -48.9510 -48.9129 -48.8633
   -48.8594 -48.8066 -48.8052 -48.7829 -48.7276 -48.6943 -48.6830 -48.6821
   -48.6628 -48.6517 -48.6410 -48.5899 -48.5781 -48.5583 -48.5460 -48.5417
   -48.4080 -48.4026 -48.3878 -48.3520 -48.3403 -48.3344 -48.3317 -48.2514
   -48.2325 -48.2237 -48.2228 -48.1786 -12.0983  -4.5551  -4.1257  -3.8747
    -3.8322  -3.3540  -3.2810  -3.2079  -3.1935  -3.1792  -3.0505  -3.0062
    -2.9880  -2.8675  -2.8302  -2.7532  -2.5587  -2.5294  -2.2173  -1.8529
    -1.8236  -1.6523  -1.5934  -1.5926  -1.5066  -1.4587  -1.4378  -1.3079
    -1.2484  -1.1360  -1.1218  -1.1028  -0.9892  -0.9638  -0.9381  -0.9229
    -0.5817  -0.5778  -0.3501  -0.3344  -0.2799  -0.2443  -0.0576  -0.0496
     0.0858   0.2079   0.3070   0.3762   0.4140   0.4911   0.5686   0.6021
     0.6447   0.6569   0.7455   0.7709   0.8319   0.8363   0.8943   0.9536
     0.9698   1.0727   1.1237   1.1415   1.2432   1.3622   2.0898   2.4809
     3.3049   3.4881   3.5741   3.9231   4.4605

          k = 0.0296 0.0512 0.0000 ( 17186 PWs)   bands (ev):

   -49.3761 -49.2950 -49.2759 -48.9985 -48.9914 -48.9402 -48.9231 -48.8703
   -48.8565 -48.7989 -48.7890 -48.7630 -48.7262 -48.6926 -48.6874 -48.6806
   -48.6783 -48.6561 -48.6428 -48.6151 -48.5848 -48.5443 -48.5281 -48.5220
   -48.4316 -48.3997 -48.3901 -48.3799 -48.3482 -48.3394 -48.3341 -48.2491
   -48.2325 -48.2254 -48.2224 -48.1786 -12.0864  -4.2965  -3.8972  -3.7735
    -3.6867  -3.1459  -3.0819  -3.0244  -2.9458  -2.9330  -2.8773  -2.8450
    -2.7624  -2.7183  -2.6843  -2.5706  -2.4317  -2.3095  -2.1903  -1.9044
    -1.8275  -1.7766  -1.6711  -1.6622  -1.5090  -1.4410  -1.3905  -1.2937
    -1.2778  -1.2025  -1.1443  -1.0879  -1.0448  -0.9614  -0.9407  -0.8593
    -0.7920  -0.7029  -0.6242  -0.4747  -0.4574  -0.3097  -0.2662  -0.1805
    -0.1289  -0.0182  -0.0040   0.0173   0.1107   0.1730   0.2217   0.3643
     0.4039   0.4077   0.4857   0.5343   0.6421   0.7327   0.7577   0.7783
     0.8598   0.8916   0.9433   1.1031   1.2081   1.3895   1.9370   2.0782
     2.8079   3.0868   3.7912   4.4907   5.0789

          k = 0.0296-0.1195 0.0000 ( 17183 PWs)   bands (ev):

   -49.3549 -49.3128 -49.2741 -48.9918 -48.9740 -48.9406 -48.9210 -48.8881
   -48.8552 -48.7827 -48.7601 -48.7319 -48.7252 -48.7152 -48.6892 -48.6858
   -48.6789 -48.6722 -48.6478 -48.6368 -48.5940 -48.5240 -48.5061 -48.4816
   -48.4617 -48.4274 -48.4076 -48.3801 -48.3622 -48.3439 -48.3369 -48.2466
   -48.2324 -48.2277 -48.2220 -48.1786 -12.0745  -4.0517  -3.6927  -3.5535
    -3.3564  -3.0090  -2.8043  -2.7425  -2.7072  -2.6770  -2.6267  -2.5431
    -2.4998  -2.4677  -2.3810  -2.3027  -2.2051  -2.1402  -2.0972  -2.0300
    -1.9061  -1.8421  -1.7759  -1.7160  -1.6522  -1.5647  -1.5300  -1.4232
    -1.3523  -1.3015  -1.2038  -1.1885  -1.1023  -1.0830  -0.9885  -0.9611
    -0.8641  -0.8016  -0.6876  -0.6673  -0.6121  -0.5793  -0.5395  -0.4630
    -0.4143  -0.3478  -0.2642  -0.2244  -0.1850  -0.0549   0.0185   0.0548
     0.1502   0.2021   0.3168   0.3466   0.4401   0.5806   0.6449   0.7186
     0.7488   0.8190   0.8869   0.9216   1.0117   1.1968   1.6461   2.0460
     2.5505   3.2952   4.0099   4.6773   5.3827

          k = 0.0296-0.0853 0.0000 ( 17183 PWs)   bands (ev):

   -49.3549 -49.3128 -49.2741 -48.9918 -48.9740 -48.9406 -48.9210 -48.8881
   -48.8552 -48.7827 -48.7601 -48.7319 -48.7252 -48.7151 -48.6893 -48.6858
   -48.6788 -48.6723 -48.6478 -48.6368 -48.5939 -48.5240 -48.5061 -48.4816
   -48.4617 -48.4274 -48.4076 -48.3801 -48.3622 -48.3439 -48.3369 -48.2466
   -48.2324 -48.2276 -48.2220 -48.1786 -12.0745  -4.0517  -3.6927  -3.5535
    -3.3564  -3.0090  -2.8043  -2.7425  -2.7072  -2.6770  -2.6267  -2.5431
    -2.4998  -2.4677  -2.3810  -2.3027  -2.2051  -2.1402  -2.0973  -2.0300
    -1.9061  -1.8421  -1.7759  -1.7160  -1.6522  -1.5647  -1.5300  -1.4232
    -1.3523  -1.3015  -1.2038  -1.1885  -1.1023  -1.0830  -0.9885  -0.9611
    -0.8641  -0.8016  -0.6876  -0.6673  -0.6121  -0.5793  -0.5395  -0.4629
    -0.4143  -0.3478  -0.2642  -0.2244  -0.1850  -0.0549   0.0185   0.0548
     0.1501   0.2021   0.3168   0.3466   0.4401   0.5806   0.6449   0.7186
     0.7488   0.8189   0.8869   0.9216   1.0117   1.1968   1.6461   2.0460
     2.5505   3.2952   4.0098   4.6773   5.3827

          k = 0.0296-0.0512 0.0000 ( 17186 PWs)   bands (ev):

   -49.3761 -49.2950 -49.2759 -48.9985 -48.9914 -48.9402 -48.9231 -48.8702
   -48.8565 -48.7989 -48.7889 -48.7630 -48.7262 -48.6926 -48.6874 -48.6806
   -48.6783 -48.6562 -48.6428 -48.6151 -48.5847 -48.5444 -48.5281 -48.5221
   -48.4316 -48.3997 -48.3901 -48.3799 -48.3482 -48.3394 -48.3341 -48.2491
   -48.2325 -48.2254 -48.2224 -48.1786 -12.0864  -4.2965  -3.8972  -3.7735
    -3.6867  -3.1459  -3.0819  -3.0244  -2.9458  -2.9330  -2.8773  -2.8450
    -2.7624  -2.7183  -2.6843  -2.5706  -2.4317  -2.3095  -2.1903  -1.9044
    -1.8275  -1.7766  -1.6711  -1.6622  -1.5090  -1.4410  -1.3905  -1.2937
    -1.2778  -1.2025  -1.1443  -1.0879  -1.0448  -0.9614  -0.9407  -0.8593
    -0.7920  -0.7029  -0.6242  -0.4748  -0.4574  -0.3097  -0.2662  -0.1805
    -0.1289  -0.0182  -0.0040   0.0173   0.1107   0.1730   0.2217   0.3644
     0.4038   0.4078   0.4857   0.5342   0.6421   0.7327   0.7577   0.7783
     0.8598   0.8916   0.9433   1.1031   1.2081   1.3895   1.9370   2.0782
     2.8079   3.0868   3.7912   4.4907   5.0789

          k = 0.0591-0.0341 0.0000 ( 17196 PWs)   bands (ev):

   -49.3704 -49.2993 -49.2755 -48.9969 -48.9860 -48.9352 -48.9274 -48.8769
   -48.8543 -48.7952 -48.7826 -48.7519 -48.7257 -48.6917 -48.6850 -48.6834
   -48.6764 -48.6752 -48.6353 -48.6284 -48.5856 -48.5380 -48.5281 -48.5058
   -48.4288 -48.4208 -48.3941 -48.3800 -48.3506 -48.3420 -48.3339 -48.2483
   -48.2329 -48.2253 -48.2227 -48.1786 -12.0824  -4.2233  -3.8238  -3.6730
    -3.6350  -3.1625  -2.9881  -2.9438  -2.8661  -2.8569  -2.7624  -2.7400
    -2.6969  -2.6522  -2.6240  -2.5479  -2.2842  -2.2154  -2.1913  -1.9387
    -1.9025  -1.7760  -1.7443  -1.6039  -1.4868  -1.4770  -1.4038  -1.3210
    -1.2955  -1.2090  -1.1184  -1.0567  -0.9797  -0.9694  -0.9314  -0.9138
    -0.8914  -0.6996  -0.6267  -0.5552  -0.5294  -0.3817  -0.3356  -0.2615
    -0.2563  -0.1839  -0.1550  -0.0536   0.0458   0.1184   0.1334   0.2546
     0.3058   0.3514   0.3636   0.4582   0.5233   0.5663   0.6501   0.6988
     0.7936   0.8568   0.9039   1.0474   1.0877   1.3676   1.5324   2.5604
     3.1118   3.5270   3.7844   4.4168   4.7592

          k = 0.0591-0.0000 0.0000 ( 17186 PWs)   bands (ev):

   -49.3761 -49.2951 -49.2758 -48.9984 -48.9915 -48.9402 -48.9231 -48.8703
   -48.8564 -48.7990 -48.7889 -48.7629 -48.7262 -48.6926 -48.6874 -48.6804
   -48.6782 -48.6563 -48.6429 -48.6152 -48.5846 -48.5444 -48.5280 -48.5221
   -48.4316 -48.3998 -48.3902 -48.3799 -48.3482 -48.3394 -48.3341 -48.2491
   -48.2326 -48.2252 -48.2225 -48.1786 -12.0864  -4.2965  -3.8972  -3.7735
    -3.6867  -3.1459  -3.0819  -3.0244  -2.9458  -2.9330  -2.8773  -2.8450
    -2.7624  -2.7183  -2.6843  -2.5706  -2.4317  -2.3095  -2.1903  -1.9044
    -1.8275  -1.7766  -1.6711  -1.6623  -1.5090  -1.4409  -1.3905  -1.2938
    -1.2778  -1.2025  -1.1443  -1.0878  -1.0448  -0.9614  -0.9406  -0.8594
    -0.7920  -0.7029  -0.6242  -0.4747  -0.4574  -0.3096  -0.2662  -0.1805
    -0.1289  -0.0182  -0.0040   0.0173   0.1106   0.1730   0.2217   0.3645
     0.4038   0.4078   0.4856   0.5342   0.6421   0.7326   0.7578   0.7783
     0.8598   0.8917   0.9433   1.1031   1.2081   1.3895   1.9370   2.0783
     2.8079   3.0868   3.7912   4.4907   5.0789

          k = 0.0591 0.0341 0.0000 ( 17196 PWs)   bands (ev):

   -49.3704 -49.2993 -49.2755 -48.9969 -48.9861 -48.9352 -48.9274 -48.8770
   -48.8543 -48.7951 -48.7827 -48.7519 -48.7257 -48.6916 -48.6850 -48.6834
   -48.6764 -48.6753 -48.6352 -48.6283 -48.5856 -48.5380 -48.5282 -48.5058
   -48.4289 -48.4208 -48.3941 -48.3800 -48.3506 -48.3420 -48.3340 -48.2483
   -48.2328 -48.2254 -48.2226 -48.1786 -12.0824  -4.2233  -3.8238  -3.6730
    -3.6350  -3.1625  -2.9881  -2.9438  -2.8661  -2.8569  -2.7624  -2.7400
    -2.6969  -2.6522  -2.6240  -2.5479  -2.2842  -2.2154  -2.1913  -1.9387
    -1.9025  -1.7760  -1.7443  -1.6039  -1.4868  -1.4770  -1.4038  -1.3210
    -1.2955  -1.2090  -1.1184  -1.0567  -0.9796  -0.9694  -0.9314  -0.9138
    -0.8914  -0.6996  -0.6267  -0.5552  -0.5294  -0.3816  -0.3357  -0.2615
    -0.2563  -0.1839  -0.1550  -0.0536   0.0458   0.1184   0.1334   0.2546
     0.3057   0.3514   0.3636   0.4582   0.5233   0.5663   0.6501   0.6988
     0.7936   0.8567   0.9039   1.0474   1.0877   1.3676   1.5324   2.5604
     3.1118   3.5270   3.7844   4.4168   4.7592

          k = 0.0591-0.1365 0.0000 ( 17183 PWs)   bands (ev):

   -49.3548 -49.3129 -49.2740 -48.9917 -48.9741 -48.9405 -48.9209 -48.8882
   -48.8551 -48.7828 -48.7600 -48.7318 -48.7252 -48.7152 -48.6892 -48.6859
   -48.6788 -48.6720 -48.6480 -48.6370 -48.5938 -48.5241 -48.5060 -48.4816
   -48.4617 -48.4274 -48.4076 -48.3801 -48.3622 -48.3439 -48.3369 -48.2466
   -48.2325 -48.2275 -48.2220 -48.1786 -12.0745  -4.0517  -3.6927  -3.5535
    -3.3564  -3.0090  -2.8043  -2.7425  -2.7072  -2.6770  -2.6268  -2.5431
    -2.4998  -2.4677  -2.3810  -2.3027  -2.2051  -2.1402  -2.0972  -2.0300
    -1.9061  -1.8420  -1.7759  -1.7160  -1.6522  -1.5647  -1.5300  -1.4232
    -1.3523  -1.3015  -1.2037  -1.1886  -1.1024  -1.0830  -0.9885  -0.9610
    -0.8641  -0.8016  -0.6876  -0.6673  -0.6122  -0.5793  -0.5395  -0.4630
    -0.4143  -0.3478  -0.2642  -0.2244  -0.1850  -0.0549   0.0185   0.0547
     0.1502   0.2020   0.3168   0.3466   0.4401   0.5806   0.6448   0.7186
     0.7489   0.8190   0.8870   0.9216   1.0117   1.1969   1.6461   2.0460
     2.5505   3.2952   4.0099   4.6773   5.3827

          k = 0.0591-0.1024 0.0000 ( 17208 PWs)   bands (ev):

   -49.3356 -49.3313 -49.2731 -48.9883 -48.9592 -48.9574 -48.9036 -48.9018
   -48.8577 -48.7604 -48.7542 -48.7352 -48.7217 -48.7124 -48.7107 -48.6855
   -48.6780 -48.6738 -48.6440 -48.6437 -48.6016 -48.5017 -48.4944 -48.4723
   -48.4720 -48.4604 -48.3926 -48.3798 -48.3796 -48.3417 -48.3415 -48.2457
   -48.2306 -48.2304 -48.2216 -48.1786 -12.0705  -3.9258  -3.6476  -3.5663
    -2.9479  -2.9468  -2.7011  -2.5793  -2.5612  -2.5489  -2.4230  -2.4116
    -2.3763  -2.3724  -2.3230  -2.2931  -2.2051  -2.1922  -2.1642  -1.9319
    -1.8836  -1.8103  -1.7641  -1.7204  -1.7180  -1.6936  -1.6124  -1.5942
    -1.5619  -1.3645  -1.3278  -1.3245  -1.3230  -1.3105  -0.9912  -0.9634
    -0.9445  -0.9141  -0.9084  -0.8306  -0.8092  -0.7424  -0.5567  -0.4614
    -0.3092  -0.2926  -0.2500  -0.1743  -0.1128  -0.0203   0.0821   0.1310
     0.1666   0.2301   0.4030   0.4361   0.5447   0.5638   0.6553   0.7101
     0.7371   0.7789   0.7847   0.8551   0.9045   0.9677   1.1482   1.8896
     2.2529   3.0522   4.3977   4.5015   5.3697

          k = 0.0591-0.0683 0.0000 ( 17183 PWs)   bands (ev):

   -49.3548 -49.3129 -49.2740 -48.9917 -48.9740 -48.9405 -48.9210 -48.8882
   -48.8552 -48.7829 -48.7599 -48.7318 -48.7252 -48.7152 -48.6892 -48.6859
   -48.6788 -48.6720 -48.6481 -48.6370 -48.5938 -48.5241 -48.5060 -48.4816
   -48.4617 -48.4274 -48.4076 -48.3802 -48.3621 -48.3439 -48.3368 -48.2466
   -48.2326 -48.2274 -48.2221 -48.1786 -12.0745  -4.0517  -3.6927  -3.5535
    -3.3564  -3.0090  -2.8043  -2.7425  -2.7072  -2.6769  -2.6268  -2.5430
    -2.4998  -2.4677  -2.3810  -2.3026  -2.2051  -2.1402  -2.0973  -2.0300
    -1.9061  -1.8420  -1.7759  -1.7160  -1.6522  -1.5647  -1.5300  -1.4232
    -1.3523  -1.3015  -1.2037  -1.1885  -1.1024  -1.0830  -0.9885  -0.9610
    -0.8641  -0.8016  -0.6876  -0.6673  -0.6122  -0.5793  -0.5395  -0.4629
    -0.4143  -0.3478  -0.2642  -0.2244  -0.1851  -0.0549   0.0186   0.0547
     0.1502   0.2020   0.3168   0.3466   0.4401   0.5806   0.6448   0.7186
     0.7489   0.8190   0.8870   0.9216   1.0116   1.1969   1.6461   2.0460
     2.5505   3.2952   4.0099   4.6773   5.3827

          k =-0.0887 0.0512 0.0000 ( 17240 PWs)   bands (ev):

   -49.3554 -49.3117 -49.2745 -48.9930 -48.9723 -48.9403 -48.9188 -48.8942
   -48.8525 -48.7858 -48.7626 -48.7254 -48.7173 -48.7043 -48.6953 -48.6912
   -48.6806 -48.6759 -48.6598 -48.6310 -48.5903 -48.5247 -48.5156 -48.4571
   -48.4469 -48.4410 -48.4343 -48.3695 -48.3614 -48.3458 -48.3351 -48.2465
   -48.2333 -48.2262 -48.2226 -48.1786 -12.0745  -4.0959  -3.6504  -3.5195
    -3.3058  -3.1812  -2.8346  -2.8097  -2.7540  -2.6722  -2.5856  -2.5555
    -2.4692  -2.4060  -2.2956  -2.2757  -2.2534  -2.1406  -2.1052  -2.0800
    -1.8193  -1.8071  -1.7669  -1.6908  -1.6573  -1.5781  -1.5157  -1.3881
    -1.3575  -1.1340  -1.1292  -1.1101  -1.0227  -0.9503  -0.9118  -0.8851
    -0.8244  -0.8007  -0.7462  -0.6859  -0.6590  -0.6096  -0.5347  -0.5178
    -0.4376  -0.3696  -0.3499  -0.2999  -0.2170  -0.1421  -0.0473  -0.0273
     0.0538   0.0550   0.1721   0.2483   0.2656   0.3446   0.5424   0.7081
     0.7816   0.8288   0.8944   1.0464   1.0629   1.3711   1.5666   2.4215
     3.4622   3.5685   4.0663   4.0856   4.8878

          k =-0.0887 0.0853 0.0000 ( 17183 PWs)   bands (ev):

   -49.3548 -49.3129 -49.2740 -48.9917 -48.9741 -48.9405 -48.9209 -48.8882
   -48.8552 -48.7829 -48.7599 -48.7318 -48.7252 -48.7149 -48.6893 -48.6860
   -48.6786 -48.6722 -48.6481 -48.6371 -48.5937 -48.5241 -48.5060 -48.4816
   -48.4616 -48.4275 -48.4076 -48.3802 -48.3621 -48.3439 -48.3368 -48.2466
   -48.2326 -48.2273 -48.2221 -48.1786 -12.0745  -4.0517  -3.6927  -3.5535
    -3.3564  -3.0090  -2.8043  -2.7425  -2.7072  -2.6769  -2.6268  -2.5430
    -2.4998  -2.4677  -2.3810  -2.3026  -2.2051  -2.1402  -2.0973  -2.0300
    -1.9061  -1.8421  -1.7758  -1.7160  -1.6522  -1.5646  -1.5300  -1.4232
    -1.3523  -1.3015  -1.2037  -1.1885  -1.1024  -1.0830  -0.9885  -0.9610
    -0.8641  -0.8016  -0.6876  -0.6673  -0.6121  -0.5793  -0.5395  -0.4629
    -0.4143  -0.3478  -0.2642  -0.2244  -0.1851  -0.0549   0.0185   0.0548
     0.1501   0.2021   0.3168   0.3466   0.4401   0.5805   0.6448   0.7186
     0.7489   0.8190   0.8870   0.9217   1.0116   1.1969   1.6461   2.0460
     2.5505   3.2952   4.0098   4.6773   5.3827

          k =-0.0887 0.1195 0.0000 ( 17183 PWs)   bands (ev):

   -49.3548 -49.3129 -49.2740 -48.9917 -48.9741 -48.9405 -48.9209 -48.8882
   -48.8551 -48.7829 -48.7600 -48.7318 -48.7252 -48.7149 -48.6894 -48.6859
   -48.6786 -48.6723 -48.6480 -48.6370 -48.5938 -48.5241 -48.5060 -48.4816
[...]
    -0.2540  -0.1834  -0.1545  -0.0592   0.0567   0.1163   0.1173   0.2497
     0.3095   0.3590   0.3657   0.4551   0.5165   0.5651   0.6465   0.6920
     0.7825   0.8422   0.8978   1.0438   1.0851   1.3710   1.5196   2.5557
     3.0964   3.5298   3.7833   4.4079   4.7613

          k = 0.0591-0.0000 0.0000 ( 17186 PWs)   bands (ev):

   -49.3818 -49.2936 -49.2742 -49.0003 -48.9934 -48.9338 -48.9233 -48.8651
   -48.8528 -48.7983 -48.7883 -48.7608 -48.7361 -48.6870 -48.6811 -48.6728
   -48.6712 -48.6540 -48.6429 -48.6109 -48.5810 -48.5481 -48.5313 -48.5250
   -48.4358 -48.4042 -48.3937 -48.3838 -48.3522 -48.3442 -48.3389 -48.2529
   -48.2354 -48.2278 -48.2250 -48.1777 -12.0623  -4.2914  -3.8723  -3.7690
    -3.6687  -3.1290  -3.0648  -3.0090  -2.9252  -2.9134  -2.8789  -2.8344
    -2.7496  -2.7163  -2.6827  -2.5777  -2.4398  -2.3153  -2.1807  -1.9094
    -1.8364  -1.7669  -1.6764  -1.6579  -1.5056  -1.4350  -1.3995  -1.3011
    -1.2619  -1.2054  -1.1468  -1.0746  -1.0391  -0.9504  -0.9333  -0.8559
    -0.7917  -0.7145  -0.6221  -0.4831  -0.4743  -0.3142  -0.2673  -0.1819
    -0.1362  -0.0250  -0.0056   0.0165   0.1149   0.1726   0.2314   0.3598
     0.3976   0.3989   0.4780   0.5382   0.6422   0.7251   0.7532   0.7737
     0.8493   0.8842   0.9391   1.0955   1.2061   1.3758   1.9360   2.0827
     2.7831   3.0899   3.7997   4.4718   5.0737

          k = 0.0591 0.0341 0.0000 ( 17196 PWs)   bands (ev):

   -49.3762 -49.2977 -49.2738 -48.9986 -48.9886 -48.9292 -48.9275 -48.8709
   -48.8508 -48.7948 -48.7814 -48.7506 -48.7356 -48.6855 -48.6796 -48.6776
   -48.6731 -48.6675 -48.6348 -48.6239 -48.5818 -48.5419 -48.5311 -48.5092
   -48.4334 -48.4245 -48.3981 -48.3839 -48.3546 -48.3468 -48.3388 -48.2522
   -48.2356 -48.2280 -48.2251 -48.1777 -12.0581  -4.2238  -3.7977  -3.6569
    -3.6171  -3.1464  -2.9751  -2.9217  -2.8582  -2.8343  -2.7640  -2.7212
    -2.6857  -2.6496  -2.6174  -2.5565  -2.2893  -2.2231  -2.1866  -1.9414
    -1.8933  -1.7898  -1.7490  -1.6026  -1.4865  -1.4546  -1.4084  -1.3302
    -1.2872  -1.2187  -1.1216  -1.0563  -0.9714  -0.9622  -0.9298  -0.9132
    -0.8808  -0.6972  -0.6373  -0.5645  -0.5348  -0.3925  -0.3392  -0.2720
    -0.2540  -0.1834  -0.1545  -0.0592   0.0566   0.1163   0.1173   0.2497
     0.3095   0.3590   0.3657   0.4551   0.5165   0.5651   0.6465   0.6920
     0.7825   0.8422   0.8978   1.0438   1.0851   1.3710   1.5196   2.5557
     3.0964   3.5298   3.7833   4.4079   4.7613

          k = 0.0591-0.1365 0.0000 ( 17183 PWs)   bands (ev):

   -49.3614 -49.3105 -49.2722 -48.9939 -48.9772 -48.9395 -48.9166 -48.8809
   -48.8509 -48.7830 -48.7583 -48.7356 -48.7316 -48.7126 -48.6840 -48.6778
   -48.6713 -48.6660 -48.6437 -48.6355 -48.5899 -48.5278 -48.5096 -48.4853
   -48.4657 -48.4313 -48.4117 -48.3841 -48.3661 -48.3488 -48.3417 -48.2506
   -48.2350 -48.2300 -48.2246 -48.1777 -12.0495  -4.0654  -3.6485  -3.5271
    -3.3375  -2.9910  -2.7886  -2.7288  -2.7012  -2.6540  -2.6125  -2.5335
    -2.4911  -2.4588  -2.3732  -2.3027  -2.2091  -2.1436  -2.1016  -2.0267
    -1.9055  -1.8480  -1.7840  -1.7193  -1.6425  -1.5627  -1.5321  -1.4276
    -1.3650  -1.3034  -1.2138  -1.1977  -1.0986  -1.0779  -0.9953  -0.9642
    -0.8667  -0.7978  -0.6913  -0.6691  -0.6197  -0.5778  -0.5400  -0.4634
    -0.4215  -0.3435  -0.2582  -0.2289  -0.1862  -0.0625   0.0161   0.0470
     0.1538   0.2049   0.3157   0.3440   0.4373   0.5735   0.6365   0.7155
     0.7441   0.8129   0.8826   0.9161   1.0121   1.1967   1.6273   2.0479
     2.5532   3.2960   3.9986   4.6578   5.3821

          k = 0.0591-0.1024 0.0000 ( 17208 PWs)   bands (ev):

   -49.3488 -49.3223 -49.2711 -48.9911 -48.9674 -48.9505 -48.9055 -48.8891
   -48.8527 -48.7612 -48.7552 -48.7378 -48.7239 -48.7109 -48.7096 -48.6761
   -48.6700 -48.6660 -48.6414 -48.6408 -48.5976 -48.5058 -48.4982 -48.4765
   -48.4761 -48.4634 -48.3971 -48.3836 -48.3834 -48.3465 -48.3464 -48.2499
   -48.2331 -48.2328 -48.2242 -48.1777 -12.0452  -3.9540  -3.5744  -3.5479
    -2.9302  -2.9095  -2.6831  -2.5778  -2.5743  -2.5478  -2.3939  -2.3896
    -2.3675  -2.3383  -2.3242  -2.2779  -2.1912  -2.1899  -2.1649  -1.9176
    -1.8838  -1.8413  -1.8075  -1.7323  -1.7175  -1.7011  -1.6012  -1.5797
    -1.5691  -1.4060  -1.3300  -1.3277  -1.3254  -1.3149  -0.9943  -0.9657
    -0.9482  -0.9138  -0.8993  -0.8365  -0.8066  -0.7376  -0.5606  -0.4692
    -0.3093  -0.2891  -0.2516  -0.1675  -0.1143  -0.0203   0.0532   0.1436
     0.1760   0.2281   0.3871   0.4195   0.5468   0.5540   0.6527   0.7067
     0.7358   0.7691   0.7808   0.8580   0.9108   0.9677   1.1515   1.8622
     2.2631   3.0644   4.3860   4.4752   5.3617

          k = 0.0591-0.0683 0.0000 ( 17183 PWs)   bands (ev):

   -49.3614 -49.3105 -49.2722 -48.9939 -48.9772 -48.9395 -48.9166 -48.8809
   -48.8509 -48.7830 -48.7583 -48.7356 -48.7315 -48.7126 -48.6840 -48.6778
   -48.6713 -48.6660 -48.6437 -48.6355 -48.5898 -48.5278 -48.5096 -48.4853
   -48.4657 -48.4313 -48.4117 -48.3841 -48.3661 -48.3488 -48.3417 -48.2506
   -48.2351 -48.2300 -48.2246 -48.1777 -12.0495  -4.0654  -3.6485  -3.5271
    -3.3375  -2.9910  -2.7886  -2.7288  -2.7012  -2.6540  -2.6125  -2.5335
    -2.4911  -2.4588  -2.3732  -2.3027  -2.2091  -2.1436  -2.1016  -2.0267
    -1.9055  -1.8480  -1.7840  -1.7193  -1.6425  -1.5627  -1.5321  -1.4276
    -1.3650  -1.3034  -1.2138  -1.1978  -1.0986  -1.0779  -0.9953  -0.9642
    -0.8667  -0.7978  -0.6913  -0.6691  -0.6197  -0.5778  -0.5400  -0.4634
    -0.4215  -0.3435  -0.2582  -0.2289  -0.1862  -0.0625   0.0161   0.0470
     0.1538   0.2049   0.3157   0.3440   0.4373   0.5735   0.6365   0.7154
     0.7441   0.8129   0.8826   0.9161   1.0121   1.1967   1.6273   2.0479
     2.5532   3.2960   3.9986   4.6578   5.3821

          k =-0.0887 0.0512 0.0000 ( 17240 PWs)   bands (ev):

   -49.3619 -49.3094 -49.2727 -48.9946 -48.9764 -48.9389 -48.9157 -48.8853
   -48.8488 -48.7860 -48.7591 -48.7353 -48.7233 -48.7001 -48.6899 -48.6847
   -48.6725 -48.6675 -48.6534 -48.6307 -48.5863 -48.5285 -48.5190 -48.4616
   -48.4502 -48.4455 -48.4378 -48.3735 -48.3655 -48.3506 -48.3399 -48.2506
   -48.2357 -48.2290 -48.2250 -48.1777 -12.0495  -4.1094  -3.6019  -3.4953
    -3.2772  -3.1696  -2.8184  -2.7948  -2.7556  -2.6625  -2.5761  -2.5261
    -2.4690  -2.3948  -2.2917  -2.2814  -2.2520  -2.1486  -2.1042  -2.0654
    -1.8393  -1.8036  -1.7452  -1.6907  -1.6578  -1.5863  -1.5145  -1.4006
    -1.3751  -1.1536  -1.1374  -1.1130  -1.0300  -0.9558  -0.9146  -0.8740
    -0.8031  -0.8003  -0.7560  -0.6862  -0.6583  -0.6021  -0.5379  -0.5336
    -0.4253  -0.3697  -0.3453  -0.2948  -0.2248  -0.1640  -0.0595  -0.0289
     0.0504   0.0528   0.1816   0.2544   0.2604   0.3453   0.5415   0.7099
     0.7698   0.8219   0.8888   1.0380   1.0589   1.3772   1.5430   2.4250
     3.4523   3.5723   4.0581   4.0664   4.8906

          k =-0.0887 0.0853 0.0000 ( 17183 PWs)   bands (ev):

   -49.3614 -49.3105 -49.2722 -48.9939 -48.9772 -48.9395 -48.9166 -48.8809
   -48.8509 -48.7830 -48.7583 -48.7356 -48.7315 -48.7125 -48.6841 -48.6778
   -48.6712 -48.6661 -48.6437 -48.6355 -48.5898 -48.5279 -48.5096 -48.4853
   -48.4657 -48.4313 -48.4117 -48.3841 -48.3661 -48.3488 -48.3417 -48.2506
   -48.2351 -48.2300 -48.2246 -48.1777 -12.0495  -4.0654  -3.6485  -3.5271
    -3.3375  -2.9910  -2.7886  -2.7288  -2.7012  -2.6540  -2.6125  -2.5335
    -2.4911  -2.4588  -2.3732  -2.3027  -2.2091  -2.1436  -2.1016  -2.0267
    -1.9055  -1.8480  -1.7840  -1.7193  -1.6425  -1.5627  -1.5321  -1.4276
    -1.3650  -1.3034  -1.2139  -1.1978  -1.0986  -1.0779  -0.9953  -0.9642
    -0.8667  -0.7978  -0.6913  -0.6691  -0.6197  -0.5778  -0.5400  -0.4634
    -0.4215  -0.3435  -0.2582  -0.2289  -0.1862  -0.0625   0.0161   0.0470
     0.1538   0.2049   0.3157   0.3440   0.4373   0.5735   0.6365   0.7154
     0.7441   0.8129   0.8826   0.9161   1.0121   1.1967   1.6273   2.0479
     2.5532   3.2960   3.9986   4.6578   5.3821

          k =-0.0887 0.1195 0.0000 ( 17183 PWs)   bands (ev):

   -49.3614 -49.3105 -49.2722 -48.9939 -48.9772 -48.9395 -48.9166 -48.8809
   -48.8509 -48.7830 -48.7583 -48.7356 -48.7316 -48.7125 -48.6841 -48.6778
   -48.6712 -48.6661 -48.6437 -48.6355 -48.5898 -48.5278 -48.5096 -48.4853
   -48.4657 -48.4313 -48.4117 -48.3841 -48.3661 -48.3488 -48.3417 -48.2506
   -48.2351 -48.2300 -48.2246 -48.1777 -12.0495  -4.0654  -3.6485  -3.5271
    -3.3375  -2.9910  -2.7886  -2.7288  -2.7012  -2.6540  -2.6125  -2.5335
    -2.4911  -2.4588  -2.3732  -2.3027  -2.2091  -2.1436  -2.1016  -2.0267
    -1.9055  -1.8480  -1.7840  -1.7193  -1.6425  -1.5627  -1.5321  -1.4276
    -1.3650  -1.3034  -1.2139  -1.1978  -1.0986  -1.0779  -0.9953  -0.9642
    -0.8667  -0.7978  -0.6913  -0.6691  -0.6197  -0.5778  -0.5400  -0.4634
    -0.4215  -0.3435  -0.2582  -0.2289  -0.1862  -0.0625   0.0161   0.0470
     0.1538   0.2049   0.3157   0.3440   0.4373   0.5735   0.6365   0.7154
     0.7441   0.8129   0.8826   0.9161   1.0121   1.1967   1.6273   2.0479
     2.5532   3.2960   3.9986   4.6578   5.3821

          k =-0.0887-0.0512 0.0000 ( 17240 PWs)   bands (ev):

   -49.3619 -49.3094 -49.2727 -48.9946 -48.9764 -48.9389 -48.9157 -48.8853
   -48.8488 -48.7860 -48.7592 -48.7353 -48.7233 -48.7001 -48.6899 -48.6846
   -48.6725 -48.6675 -48.6534 -48.6306 -48.5863 -48.5285 -48.5190 -48.4617
   -48.4502 -48.4455 -48.4378 -48.3735 -48.3655 -48.3506 -48.3399 -48.2506
   -48.2357 -48.2290 -48.2250 -48.1777 -12.0495  -4.1094  -3.6019  -3.4953
    -3.2772  -3.1696  -2.8184  -2.7947  -2.7556  -2.6625  -2.5761  -2.5261
    -2.4690  -2.3948  -2.2917  -2.2814  -2.2520  -2.1486  -2.1042  -2.0654
    -1.8393  -1.8036  -1.7453  -1.6907  -1.6578  -1.5863  -1.5145  -1.4006
    -1.3751  -1.1536  -1.1374  -1.1130  -1.0300  -0.9558  -0.9146  -0.8740
    -0.8031  -0.8003  -0.7560  -0.6862  -0.6583  -0.6021  -0.5379  -0.5336
    -0.4253  -0.3697  -0.3453  -0.2948  -0.2248  -0.1640  -0.0595  -0.0289
     0.0504   0.0528   0.1816   0.2544   0.2604   0.3453   0.5415   0.7099
     0.7698   0.8219   0.8888   1.0380   1.0589   1.3772   1.5430   2.4250
     3.4523   3.5723   4.0581   4.0664   4.8906

     the Fermi energy is     1.0658 ev

!    total energy              =   -2421.91511793 Ry
     Harris-Foulkes estimate   =   -2421.91511887 Ry
     estimated scf accuracy    <       0.00000007 Ry

     The total energy is the sum of the following terms:

     one-electron contribution =  -20637.48811719 Ry
     hartree contribution      =   10370.12944045 Ry
     xc contribution           =    -398.94543683 Ry
     ewald contribution        =    8244.49995282 Ry
     electric field correction =       0.00001583 Ry
     smearing contrib. (-TS)   =      -0.11097300 Ry

     convergence has been achieved in  11 iterations
 
 BEEF-vdW xc energy contributions
           1 :   -347.181397978666     
           2 :    317.074363363265     
           3 :   -265.686878502568     
           4 :    206.791619051144     
           5 :   -153.760434698412     
           6 :    115.183970465218     
           7 :   -92.9900467402556     
           8 :    83.4045183522812     
           9 :   -79.9184758622843     
          10 :    76.6689650437140     
          11 :   -70.7022549665872     
          12 :    62.3350633468771     
          13 :   -53.8730421343245     
          14 :    47.6865472619009     
          15 :   -44.7611552013092     
          16 :    44.3553858430912     
          17 :   -44.7022654141664     
          18 :    44.1523488905046     
          19 :   -42.0375430078110     
          20 :    38.8222640740821     
          21 :   -35.5916795117786     
          22 :    33.2854489794358     
          23 :   -32.1615212240321     
          24 :    31.7583125473841     
          25 :   -31.2948178348350     
          26 :    30.2000307295444     
          27 :   -28.4336921477676     
          28 :    26.4300427364623     
          29 :   -24.7507052252620     
          30 :    23.7008345138524     
          31 :   -33.9810654506723     
          32 :   -25.0785657029142     

     Forces acting on atoms (Ry/au):


     negative rho (up, down):  9.438E-01 0.000E+00
     atom    1 type  1   force =     0.00000087   -0.00000595    0.00033365
     atom    2 type  1   force =    -0.00000049    0.00268424   -0.00236024
     atom    3 type  1   force =     0.00232641   -0.00133930   -0.00235652
     atom    4 type  1   force =    -0.00232671   -0.00133912   -0.00235630
     atom    5 type  1   force =    -0.00113700    0.00065748   -0.00248385
     atom    6 type  1   force =     0.00113657    0.00065745   -0.00248386
     atom    7 type  1   force =     0.00000027   -0.00000162    0.01027750
     atom    8 type  1   force =    -0.00000003   -0.00131359   -0.00248226
     atom    9 type  1   force =     0.00115918    0.00065862    0.00105133
     atom   10 type  1   force =    -0.00115980    0.00066072    0.00105148
     atom   11 type  1   force =     0.00000138   -0.00132745    0.00105306
     atom   12 type  1   force =    -0.00000094    0.00001032    0.00072637
     atom   13 type  2   force =     0.00000030   -0.00000181    0.00002966

     Total force =     0.003028     Total SCF correction =     0.000659
     SCF correction compared to forces is large: reduce conv_thr to get better values


     entering subroutine stress ...


     negative rho (up, down):  9.438E-01 0.000E+00
          total   stress  (Ry/bohr**3)                   (kbar)     P=   -5.80
  -0.00005641  -0.00000000  -0.00000000         -8.30     -0.00     -0.00
  -0.00000000  -0.00005641  -0.00000000         -0.00     -8.30     -0.00
  -0.00000000  -0.00000000  -0.00000554         -0.00     -0.00     -0.81


     bfgs converged in   6 scf cycles and   5 bfgs steps
     (criteria: energy <  1.0E+00, force <  1.9E-03)

     End of BFGS Geometry Optimization

     Final energy   =   -2421.9151179285 Ry
Begin final coordinates

ATOMIC_POSITIONS (crystal)
Pd1      0.166666667   0.166666667   0.406452311    0   0   0
Pd1      0.666666667   0.166666667   0.406452311    0   0   0
Pd1      0.166666667   0.666666667   0.406452311    0   0   0
Pd1      0.666666667   0.666666667   0.406452311    0   0   0
Pd1      0.833333333   0.333333333   0.500000000    0   0   0
Pd1      0.333333333   0.333333333   0.500000000    0   0   0
Pd1      0.833333333   0.833333333   0.500000000    0   0   0
Pd1      0.333333333   0.833333333   0.500000000    0   0   0
Pd1     -0.003873922  -0.003870933   0.594175040
Pd1      0.507745556  -0.003871773   0.594174909
Pd1     -0.003871614   0.507742786   0.594174761
Pd1      0.500000520   0.499998466   0.593950693
S1       0.166666947   0.166667104   0.657975231
End final coordinates



     Writing output data file calc.save
 
     init_run     :     11.27s CPU     11.65s WALL (       1 calls)
     electrons    :   1846.59s CPU   1982.34s WALL (       6 calls)
     update_pot   :     15.23s CPU     16.46s WALL (       5 calls)
     forces       :     84.39s CPU     90.53s WALL (       6 calls)
     stress       :    285.35s CPU    307.91s WALL (       6 calls)

     Called by init_run:
     wfcinit      :      4.55s CPU      4.61s WALL (       1 calls)
     potinit      :      1.75s CPU      1.88s WALL (       1 calls)

     Called by electrons:
     c_bands      :    762.41s CPU    795.97s WALL (      73 calls)
     sum_band     :    370.25s CPU    407.34s WALL (      73 calls)
     v_of_rho     :    118.41s CPU    132.05s WALL (      79 calls)
     newd         :    294.44s CPU    298.33s WALL (      79 calls)
     mix_rho      :      4.09s CPU      4.19s WALL (      73 calls)
     vdW_energy   :     59.91s CPU     66.59s WALL (     295 calls)
     vdW_ffts     :    148.38s CPU    155.42s WALL (     602 calls)
     vdW_v        :     57.97s CPU     60.57s WALL (     295 calls)

     Called by c_bands:
     init_us_2    :      3.88s CPU      3.91s WALL (     795 calls)
     cegterg      :    689.70s CPU    702.45s WALL (     365 calls)

     Called by *egterg:
     h_psi        :    455.33s CPU    465.40s WALL (    1263 calls)
     s_psi        :     39.65s CPU     39.73s WALL (    1263 calls)
     g_psi        :      2.52s CPU      2.52s WALL (     893 calls)
     cdiaghg      :     58.70s CPU     59.17s WALL (    1233 calls)

     Called by h_psi:
     add_vuspsi   :     40.50s CPU     40.56s WALL (    1263 calls)

     General routines
     calbec       :     63.73s CPU     64.64s WALL (    1688 calls)
     fft          :    228.91s CPU    246.39s WALL (   17837 calls)
     ffts         :      0.28s CPU      0.29s WALL (     152 calls)
     fftw         :    294.43s CPU    302.81s WALL (  231891 calls)
     interpolate  :      2.51s CPU      2.59s WALL (     152 calls)
     davcio       :      0.00s CPU      0.03s WALL (       5 calls)
 
     Parallel routines
     fft_scatter  :    293.93s CPU    320.13s WALL (  249880 calls)
 
     PWSCF        : 37m43.93s CPU    40m32.91s WALL

 
   This run was terminated on:   9:38:15   3May2018            

=------------------------------------------------------------------------------=
   JOB DONE.
=------------------------------------------------------------------------------=
Job  /afs/slac/g/suncat/bin/suncat-tsmpirun -x LD_LIBRARY_PATH -wdir /scratch/qe693239_jnTXX pw.x -npool 4 -in pw.inp

TID   HOST_NAME   COMMAND_LINE            STATUS            TERMINATION_TIME
===== ========== ================  =======================  ===================
00000 suncat0076 pw.x -npool 4 -i  Done                     05/03/2018 09:38:15
00001 suncat0076 pw.x -npool 4 -i  Done                     05/03/2018 09:38:15
00002 suncat0076 pw.x -npool 4 -i  Done                     05/03/2018 09:38:15
00003 suncat0076 pw.x -npool 4 -i  Done                     05/03/2018 09:38:15
00004 suncat0076 pw.x -npool 4 -i  Done                     05/03/2018 09:38:15
00005 suncat0076 pw.x -npool 4 -i  Done                     05/03/2018 09:38:15
00006 suncat0076 pw.x -npool 4 -i  Done                     05/03/2018 09:38:15
00007 suncat0076 pw.x -npool 4 -i  Done                     05/03/2018 09:38:15
00008 suncat0073 pw.x -npool 4 -i  Done                     05/03/2018 09:38:15
00009 suncat0073 pw.x -npool 4 -i  Done                     05/03/2018 09:38:15
00010 suncat0073 pw.x -npool 4 -i  Done                     05/03/2018 09:38:15
00011 suncat0073 pw.x -npool 4 -i  Done                     05/03/2018 09:38:15
00012 suncat0073 pw.x -npool 4 -i  Done                     05/03/2018 09:38:15
00013 suncat0073 pw.x -npool 4 -i  Done                     05/03/2018 09:38:15
00014 suncat0073 pw.x -npool 4 -i  Done                     05/03/2018 09:38:15
00015 suncat0073 pw.x -npool 4 -i  Done                     05/03/2018 09:38:15
00016 suncat0018 pw.x -npool 4 -i  Done                     05/03/2018 09:38:15
00017 suncat0018 pw.x -npool 4 -i  Done                     05/03/2018 09:38:15
00018 suncat0018 pw.x -npool 4 -i  Done                     05/03/2018 09:38:15
00019 suncat0018 pw.x -npool 4 -i  Done                     05/03/2018 09:38:15
00020 suncat0018 pw.x -npool 4 -i  Done                     05/03/2018 09:38:15
00021 suncat0018 pw.x -npool 4 -i  Done                     05/03/2018 09:38:15
00022 suncat0018 pw.x -npool 4 -i  Done                     05/03/2018 09:38:15
00023 suncat0018 pw.x -npool 4 -i  Done                     05/03/2018 09:38:15
00024 suncat0017 pw.x -npool 4 -i  Done                     05/03/2018 09:38:15
00025 suncat0017 pw.x -npool 4 -i  Done                     05/03/2018 09:38:15
00026 suncat0017 pw.x -npool 4 -i  Done                     05/03/2018 09:38:15
00027 suncat0017 pw.x -npool 4 -i  Done                     05/03/2018 09:38:15
00028 suncat0017 pw.x -npool 4 -i  Done                     05/03/2018 09:38:15
00029 suncat0017 pw.x -npool 4 -i  Done                     05/03/2018 09:38:15
00030 suncat0017 pw.x -npool 4 -i  Done                     05/03/2018 09:38:15
00031 suncat0017 pw.x -npool 4 -i  Done                     05/03/2018 09:38:15
