  python dir          : /u/if/mamunm/src/espresso
  espresso dir        : /nfs/slac/g/suncatfs/sw/espv18/espresso-dynpy-beef/bin
  pseudo dir          : /u/if/mamunm/psp/gbrv1.5pbe
  ase-espresso py git : GITVERSION



     Program PWSCF v.5.1rc2 (svn rev. 11289) starts on  2May2018 at 17:49:10 

     This program is part of the open-source Quantum ESPRESSO suite
     for quantum simulation of materials; please cite
         "P. Giannozzi et al., J. Phys.:Condens. Matter 21 395502 (2009);
          URL http://www.quantum-espresso.org", 
     in publications or presentations arising from this work. More details at
     http://www.quantum-espresso.org/quote

     Parallel version (MPI), running on    32 processors
     K-points division:     npool     =       4
     R & G space division:  proc/nbgrp/npool/nimage =       8
     Reading input from pw.inp
     Message from routine read_cards :
     DEPRECATED: no units specified in CELL_PARAMETERS card

     Current dimensions of program PWSCF are:
     Max number of different atomic species (ntypx) = 10
     Max number of k-points (npk) =  40000
     Max angular momentum in pseudopotentials (lmaxx) =  3
     Presently stress not available with electric field


     **************************************************************************
     Initializing libbeef V0.1.1 with the BEEF-vdW functional.
     Citation: Wellendorff et al., PRB 85, 235149 (2012).
     **************************************************************************


     IMPORTANT: XC functional enforced from input :
     Exchange-correlation      = BEEF-VDW ( 1  4 27 13 2)
     Any further DFT definition will be discarded
     Please, verify this is what you really want


     Subspace diagonalization in iterative solution of the eigenvalue problem:
     a serial algorithm will be used

 
     Parallelization info
     --------------------
     sticks:   dense  smooth     PW     G-vecs:    dense   smooth      PW
     Min         329     130     39                61797    15613    2499
     Max         330     131     40                61814    15645    2512
     Sum        2635    1045    313               494447   125015   20053
 


     bravais-lattice index     =            0
     lattice parameter (alat)  =       1.8897  a.u.
     unit-cell volume          =    4158.3597 (a.u.)^3
     number of atoms/cell      =           13
     number of atomic types    =            2
     number of electrons       =       162.00
     number of Kohn-Sham states=           91
     kinetic-energy cutoff     =      36.7493  Ry
     charge density cutoff     =     367.4932  Ry
     convergence threshold     =      1.0E-05
     mixing beta               =       0.3000
     number of iterations used =           10  plain     mixing
     Exchange-correlation      = BEEF-VDW ( 1  4 27 13 2)
     nstep                     =           50


     celldm(1)=   1.889726  celldm(2)=   0.000000  celldm(3)=   0.000000
     celldm(4)=   0.000000  celldm(5)=   0.000000  celldm(6)=   0.000000

     crystal axes: (cart. coord. in units of alat)
               a(1) = (   5.399178   0.000000   0.000000 )  
               a(2) = (   2.699589   4.675825   0.000000 )  
               a(3) = (   0.000000   0.000000  24.408411 )  

     reciprocal axes: (cart. coord. in units 2 pi/alat)
               b(1) = (  0.185213 -0.106933  0.000000 )  
               b(2) = (  0.000000  0.213866  0.000000 )  
               b(3) = (  0.000000  0.000000  0.040969 )  


     PseudoPot. # 1 for V  read from file:
     /u/if/mamunm/psp/gbrv1.5pbe/V.UPF
     MD5 check sum: 22b79981416ebb76fdaf5b1b8640f6fb
     Pseudo is Ultrasoft + core correction, Zval = 13.0
     Generated by new atomic code, or converted to UPF format
     Using radial grid of  853 points,  6 beta functions with: 
                l(1) =   0
                l(2) =   0
                l(3) =   1
                l(4) =   1
                l(5) =   2
                l(6) =   2
     Q(r) pseudized with  8 coefficients,  rinner =    1.100   1.100   1.100
                                                       1.100   1.100

     PseudoPot. # 2 for O  read from file:
     /u/if/mamunm/psp/gbrv1.5pbe/O.UPF
     MD5 check sum: 734c27235a0248c51dbae37a1fbe46ec
     Pseudo is Ultrasoft + core correction, Zval =  6.0
     Generated by new atomic code, or converted to UPF format
     Using radial grid of  737 points,  5 beta functions with: 
                l(1) =   0
                l(2) =   0
                l(3) =   1
                l(4) =   1
                l(5) =   2
     Q(r) pseudized with  8 coefficients,  rinner =    0.900   0.900   0.900
                                                       0.900   0.900

     vdW kernel table read from file vdW_kernel_table
     MD5 check sum: 095c7af220d748ca6e76c0b4c6cfb241

     atomic species   valence    mass     pseudopotential
        V1            13.00    50.94150     V ( 1.00)
        O1             6.00    15.99900     O ( 1.00)

     No symmetry found



   Cartesian axes

     site n.     atom                  positions (alat units)
         1           V1  tau(   1) = (   1.3497945   0.7793042  10.0000000  )
         2           V1  tau(   2) = (   4.0493836   0.7793042  10.0000000  )
         3           V1  tau(   3) = (   2.6995891   3.1172170  10.0000000  )
         4           V1  tau(   4) = (   5.3991782   3.1172170  10.0000000  )
         5           V1  tau(   5) = (   5.3991782   1.5586085  12.2042053  )
         6           V1  tau(   6) = (   2.6995891   1.5586085  12.2042053  )
         7           V1  tau(   7) = (   6.7489727   3.8965212  12.2042053  )
         8           V1  tau(   8) = (   4.0493836   3.8965212  12.2042053  )
         9           V1  tau(   9) = (   0.0000000   0.0000000  14.4084105  )
        10           V1  tau(  10) = (   2.6995891   0.0000000  14.4084105  )
        11           V1  tau(  11) = (   1.3497945   2.3379127  14.4084105  )
        12           V1  tau(  12) = (   4.0493836   2.3379127  14.4084105  )
        13           O1  tau(  13) = (   0.0000000   0.0000000  16.2699105  )

     number of k points=    20  Fermi-Dirac smearing, width (Ry)=  0.0110
                       cart. coord. in units 2pi/alat
        k(    1) = (   0.0000000   0.0000000   0.0000000), wk =   0.0555556
        k(    2) = (   0.0000000   0.0356443   0.0000000), wk =   0.1111111
        k(    3) = (   0.0000000   0.0712887   0.0000000), wk =   0.1111111
        k(    4) = (   0.0000000  -0.1069330   0.0000000), wk =   0.0555556
        k(    5) = (   0.0308689  -0.0178222   0.0000000), wk =   0.1111111
        k(    6) = (   0.0308689   0.0178222   0.0000000), wk =   0.1111111
        k(    7) = (   0.0308689   0.0534665   0.0000000), wk =   0.1111111
        k(    8) = (   0.0308689  -0.1247552   0.0000000), wk =   0.1111111
        k(    9) = (   0.0308689  -0.0891108   0.0000000), wk =   0.1111111
        k(   10) = (   0.0308689  -0.0534665   0.0000000), wk =   0.1111111
        k(   11) = (   0.0617378  -0.0356443   0.0000000), wk =   0.1111111
        k(   12) = (   0.0617378   0.0000000   0.0000000), wk =   0.1111111
        k(   13) = (   0.0617378   0.0356443   0.0000000), wk =   0.1111111
        k(   14) = (   0.0617378  -0.1425773   0.0000000), wk =   0.1111111
        k(   15) = (   0.0617378  -0.1069330   0.0000000), wk =   0.1111111
        k(   16) = (   0.0617378  -0.0712887   0.0000000), wk =   0.1111111
        k(   17) = (  -0.0926067   0.0534665   0.0000000), wk =   0.0555556
        k(   18) = (  -0.0926067   0.0891108   0.0000000), wk =   0.1111111
        k(   19) = (  -0.0926067   0.1247552   0.0000000), wk =   0.1111111
        k(   20) = (  -0.0926067  -0.0534665   0.0000000), wk =   0.0555556

     Dense  grid:   494447 G-vectors     FFT dimensions: (  64,  64, 288)

     Smooth grid:   125015 G-vectors     FFT dimensions: (  40,  40, 180)

     Largest allocated arrays     est. size (Mb)     dimensions
        Kohn-Sham Wavefunctions         2.84 Mb     (    2047,   91)
        NL pseudopotentials             7.15 Mb     (    2047,  229)
        Each V/rho on FFT grid          2.25 Mb     (  147456)
        Each G-vector array             0.47 Mb     (   61814)
        G-vector shells                 0.12 Mb     (   16161)
     Largest temporary arrays     est. size (Mb)     dimensions
        Auxiliary wavefunctions        11.37 Mb     (    2047,  364)
        Each subspace H/S matrix        2.02 Mb     (     364,  364)
        Each <psi_i|beta_j> matrix      0.32 Mb     (     229,   91)
        Arrays for rho mixing          22.50 Mb     (  147456,   10)

     Check: negative/imaginary core charge=   -0.000001    0.000000

     Initial potential from superposition of free atoms
     Check: negative starting charge=   -0.011706

     starting charge  161.98527, renormalised to  162.00000

     negative rho (up, down):  1.171E-02 0.000E+00


     ************************************************************************
     *
     * You are using vdW-DF for exchange-correlation in this calculation.
     * Please cite the following three references that made this development
     * possible:
     *
     *   M. Dion, H. Rydberg, E. Schroder, D. C. Langreth, and
     *   B. I. Lundqvist, Phys. Rev. Lett. 92, 246401 (2004).
     *
     *   T. Thonhauser, V. R. Cooper, S. Li, A. Puzder, P. Hyldgaard, and
     *   D. C. Langreth, Phys. Rev. B 76, 125112 (2007).
     *
     *   G. Roman-Perez and J. M. Soler, Phys. Rev. Lett. 103, 096102 (2009).
     *
     *
     * If you are using vdW-DF2, please also cite:
     *
     *   K. Lee, E. D. Murray, L. Kong, B. I. Lundqvist, and
     *   D. C. Langreth, Phys. Rev. B 82, 081101(R) (2010).
     *
     *
     * If you are calculating the stress with vdW-DF, please also cite:
     *
     *   R. Sabatini, E. Kucukbenli, B. Kolb, T. Thonhauser, and
     *   S. de Gironcoli, J. Phys.: Condens. Matter 24, 424209 (2012).
     *
     ************************************************************************

     Carrying out vdW-DF run using the following parameters:

     Nqs =      20    Nr_points =    1024   r_max =   100.000
     q_mesh =
               0.00001000     0.04494208     0.09755937     0.15916263
               0.23128650     0.31572767     0.41458969     0.53033537
               0.66584808     0.82450364     1.01025438     1.22772762
               1.48234092     1.78043706     2.12944203     2.53805004
               3.01644009     3.57652955     4.23227104     5.00000000

     Gradients computed in reciprocal space

     ************************************************************************


 
     Adding external electric field

     Computed dipole along edir(3) : 
        Dipole               -0.0042 Ry au,         -0.0106 Debye
        Dipole field         -0.0000 Ry au
 
        Potential amp.        0.0011 Ry
        Total length         44.9721 bohr
 
     Starting wfc are  124 randomized atomic wfcs

     total cpu time spent up to now is        9.0 secs

     per-process dynamical memory:    69.9 Mb

     Self-consistent Calculation

     iteration #  1     ecut=    36.75 Ry     beta=0.30
     Davidson diagonalization with overlap
     ethr =  1.00E-02,  avg # of iterations =  2.4

     negative rho (up, down):  1.225E-02 0.000E+00
 
     Adding external electric field

     Computed dipole along edir(3) : 
        Dipole               -2.7206 Ry au,         -6.9152 Debye
        Dipole field         -0.0082 Ry au
 
        Potential amp.        0.7395 Ry
        Total length         44.9721 bohr
 

     total cpu time spent up to now is       23.4 secs

     total energy              =   -1776.26926478 Ry
     Harris-Foulkes estimate   =   -1782.13984546 Ry
     estimated scf accuracy    <      12.14036116 Ry

     iteration #  2     ecut=    36.75 Ry     beta=0.30
     Davidson diagonalization with overlap
     ethr =  7.49E-03,  avg # of iterations =  9.5

     negative rho (up, down):  1.125E-02 0.000E+00
 
     Adding external electric field

     Computed dipole along edir(3) : 
        Dipole                3.1109 Ry au,          7.9071 Debye
        Dipole field          0.0094 Ry au
 
        Potential amp.       -0.8456 Ry
        Total length         44.9721 bohr
 

     total cpu time spent up to now is       45.4 secs

     total energy              =   -1765.94573780 Ry
     Harris-Foulkes estimate   =   -1799.49688799 Ry
     estimated scf accuracy    <     698.97459010 Ry

     iteration #  3     ecut=    36.75 Ry     beta=0.30
     Davidson diagonalization with overlap
     ethr =  7.49E-03,  avg # of iterations =  9.3

     negative rho (up, down):  1.041E-02 0.000E+00
 
     Adding external electric field

     Computed dipole along edir(3) : 
        Dipole               -0.1984 Ry au,         -0.5044 Debye
        Dipole field         -0.0006 Ry au
 
        Potential amp.        0.0539 Ry
        Total length         44.9721 bohr
 

     total cpu time spent up to now is       67.5 secs

     total energy              =   -1770.78841730 Ry
     Harris-Foulkes estimate   =   -1801.39717227 Ry
     estimated scf accuracy    <     983.72296004 Ry

     iteration #  4     ecut=    36.75 Ry     beta=0.30
     Davidson diagonalization with overlap
     ethr =  7.49E-03,  avg # of iterations =  5.6

     negative rho (up, down):  1.068E-02 0.000E+00
 
     Adding external electric field

     Computed dipole along edir(3) : 
        Dipole                0.1807 Ry au,          0.4593 Debye
        Dipole field          0.0005 Ry au
 
        Potential amp.       -0.0491 Ry
        Total length         44.9721 bohr
 

     total cpu time spent up to now is       85.4 secs

     total energy              =   -1781.08166621 Ry
     Harris-Foulkes estimate   =   -1782.05011778 Ry
     estimated scf accuracy    <      21.94529493 Ry

     iteration #  5     ecut=    36.75 Ry     beta=0.30
     Davidson diagonalization with overlap
     ethr =  7.49E-03,  avg # of iterations =  1.6

     negative rho (up, down):  1.108E-02 0.000E+00
 
     Adding external electric field

     Computed dipole along edir(3) : 
        Dipole                0.0785 Ry au,          0.1994 Debye
        Dipole field          0.0002 Ry au
 
        Potential amp.       -0.0213 Ry
        Total length         44.9721 bohr
 

     total cpu time spent up to now is       98.8 secs

     total energy              =   -1781.26588848 Ry
     Harris-Foulkes estimate   =   -1781.43204526 Ry
     estimated scf accuracy    <       4.50820843 Ry

     iteration #  6     ecut=    36.75 Ry     beta=0.30
     Davidson diagonalization with overlap
     ethr =  2.78E-03,  avg # of iterations =  3.4

     negative rho (up, down):  1.212E-02 0.000E+00
 
     Adding external electric field

     Computed dipole along edir(3) : 
        Dipole               -0.2326 Ry au,         -0.5912 Debye
        Dipole field         -0.0007 Ry au
 
        Potential amp.        0.0632 Ry
        Total length         44.9721 bohr
 

     total cpu time spent up to now is      113.2 secs

     total energy              =   -1781.22815656 Ry
     Harris-Foulkes estimate   =   -1781.37717916 Ry
     estimated scf accuracy    <       1.87165083 Ry

     iteration #  7     ecut=    36.75 Ry     beta=0.30
     Davidson diagonalization with overlap
     ethr =  1.16E-03,  avg # of iterations =  7.0

     negative rho (up, down):  1.225E-02 0.000E+00
 
     Adding external electric field

     Computed dipole along edir(3) : 
        Dipole               -0.1329 Ry au,         -0.3377 Debye
        Dipole field         -0.0004 Ry au
 
        Potential amp.        0.0361 Ry
        Total length         44.9721 bohr
 

     total cpu time spent up to now is      130.6 secs

     total energy              =   -1781.39390342 Ry
     Harris-Foulkes estimate   =   -1781.46124186 Ry
     estimated scf accuracy    <       1.54779318 Ry

     iteration #  8     ecut=    36.75 Ry     beta=0.30
     Davidson diagonalization with overlap
     ethr =  9.55E-04,  avg # of iterations =  3.3

     negative rho (up, down):  1.262E-02 0.000E+00
 
     Adding external electric field

     Computed dipole along edir(3) : 
        Dipole               -0.0721 Ry au,         -0.1833 Debye
        Dipole field         -0.0002 Ry au
 
        Potential amp.        0.0196 Ry
        Total length         44.9721 bohr
 

     total cpu time spent up to now is      145.6 secs

     total energy              =   -1781.41570138 Ry
     Harris-Foulkes estimate   =   -1781.44075443 Ry
     estimated scf accuracy    <       0.34820798 Ry

     iteration #  9     ecut=    36.75 Ry     beta=0.30
     Davidson diagonalization with overlap
     ethr =  2.15E-04,  avg # of iterations =  6.9

     negative rho (up, down):  1.281E-02 0.000E+00
 
     Adding external electric field

     Computed dipole along edir(3) : 
        Dipole               -0.1641 Ry au,         -0.4172 Debye
        Dipole field         -0.0005 Ry au
 
        Potential amp.        0.0446 Ry
        Total length         44.9721 bohr
 

     total cpu time spent up to now is      163.9 secs

     total energy              =   -1781.44973126 Ry
     Harris-Foulkes estimate   =   -1781.46700776 Ry
     estimated scf accuracy    <       0.72302749 Ry

     iteration # 10     ecut=    36.75 Ry     beta=0.30
     Davidson diagonalization with overlap
     ethr =  2.15E-04,  avg # of iterations =  1.0

     negative rho (up, down):  1.317E-02 0.000E+00
 
     Adding external electric field

     Computed dipole along edir(3) : 
        Dipole               -0.3505 Ry au,         -0.8909 Debye
        Dipole field         -0.0011 Ry au
 
        Potential amp.        0.0953 Ry
        Total length         44.9721 bohr
 

     total cpu time spent up to now is      177.0 secs

     total energy              =   -1781.42469259 Ry
     Harris-Foulkes estimate   =   -1781.45574223 Ry
     estimated scf accuracy    <       0.51322087 Ry

     iteration # 11     ecut=    36.75 Ry     beta=0.30
     Davidson diagonalization with overlap
     ethr =  2.15E-04,  avg # of iterations =  1.5

     negative rho (up, down):  1.334E-02 0.000E+00
 
     Adding external electric field

     Computed dipole along edir(3) : 
        Dipole               -0.3487 Ry au,         -0.8863 Debye
        Dipole field         -0.0011 Ry au
 
        Potential amp.        0.0948 Ry
        Total length         44.9721 bohr
 

     total cpu time spent up to now is      191.0 secs

     total energy              =   -1781.42895376 Ry
     Harris-Foulkes estimate   =   -1781.43860932 Ry
     estimated scf accuracy    <       0.33176860 Ry

     iteration # 12     ecut=    36.75 Ry     beta=0.30
     Davidson diagonalization with overlap
     ethr =  2.05E-04,  avg # of iterations =  2.1

     negative rho (up, down):  1.347E-02 0.000E+00
 
     Adding external electric field

     Computed dipole along edir(3) : 
        Dipole               -0.3320 Ry au,         -0.8438 Debye
        Dipole field         -0.0010 Ry au
 
        Potential amp.        0.0902 Ry
        Total length         44.9721 bohr
 

     total cpu time spent up to now is      204.6 secs

     total energy              =   -1781.43230379 Ry
     Harris-Foulkes estimate   =   -1781.43567057 Ry
     estimated scf accuracy    <       0.11465878 Ry

     iteration # 13     ecut=    36.75 Ry     beta=0.30
     Davidson diagonalization with overlap
     ethr =  7.08E-05,  avg # of iterations =  5.4

     negative rho (up, down):  1.357E-02 0.000E+00
 
     Adding external electric field

     Computed dipole along edir(3) : 
        Dipole               -0.3521 Ry au,         -0.8949 Debye
        Dipole field         -0.0011 Ry au
 
        Potential amp.        0.0957 Ry
        Total length         44.9721 bohr
 

     total cpu time spent up to now is      220.6 secs

     total energy              =   -1781.43700805 Ry
     Harris-Foulkes estimate   =   -1781.43900098 Ry
     estimated scf accuracy    <       0.05140709 Ry

     iteration # 14     ecut=    36.75 Ry     beta=0.30
     Davidson diagonalization with overlap
     ethr =  3.17E-05,  avg # of iterations =  5.0

     negative rho (up, down):  1.363E-02 0.000E+00
 
     Adding external electric field

     Computed dipole along edir(3) : 
        Dipole               -0.3300 Ry au,         -0.8389 Debye
        Dipole field         -0.0010 Ry au
 
        Potential amp.        0.0897 Ry
        Total length         44.9721 bohr
 

     total cpu time spent up to now is      236.1 secs

     total energy              =   -1781.43721588 Ry
     Harris-Foulkes estimate   =   -1781.43888696 Ry
     estimated scf accuracy    <       0.03556085 Ry

     iteration # 15     ecut=    36.75 Ry     beta=0.30
     Davidson diagonalization with overlap
     ethr =  2.20E-05,  avg # of iterations =  3.1

     negative rho (up, down):  1.391E-02 0.000E+00
 
     Adding external electric field

     Computed dipole along edir(3) : 
        Dipole               -0.3019 Ry au,         -0.7674 Debye
        Dipole field         -0.0009 Ry au
 
        Potential amp.        0.0821 Ry
        Total length         44.9721 bohr
 

     total cpu time spent up to now is      251.5 secs

     total energy              =   -1781.43661247 Ry
     Harris-Foulkes estimate   =   -1781.43816575 Ry
     estimated scf accuracy    <       0.02265772 Ry

     iteration # 16     ecut=    36.75 Ry     beta=0.30
     Davidson diagonalization with overlap
     ethr =  1.40E-05,  avg # of iterations =  5.2

     negative rho (up, down):  1.432E-02 0.000E+00
 
     Adding external electric field

     Computed dipole along edir(3) : 
        Dipole               -0.3093 Ry au,         -0.7862 Debye
        Dipole field         -0.0009 Ry au
 
        Potential amp.        0.0841 Ry
        Total length         44.9721 bohr
 

     total cpu time spent up to now is      268.0 secs

     total energy              =   -1781.43835654 Ry
     Harris-Foulkes estimate   =   -1781.43870862 Ry
     estimated scf accuracy    <       0.01137807 Ry

     iteration # 17     ecut=    36.75 Ry     beta=0.30
     Davidson diagonalization with overlap
     ethr =  7.02E-06,  avg # of iterations =  5.3

     negative rho (up, down):  1.434E-02 0.000E+00
 
     Adding external electric field

     Computed dipole along edir(3) : 
        Dipole               -0.3601 Ry au,         -0.9153 Debye
        Dipole field         -0.0011 Ry au
 
        Potential amp.        0.0979 Ry
        Total length         44.9721 bohr
 

     total cpu time spent up to now is      284.1 secs

     total energy              =   -1781.43756722 Ry
     Harris-Foulkes estimate   =   -1781.43877539 Ry
     estimated scf accuracy    <       0.01519950 Ry

     iteration # 18     ecut=    36.75 Ry     beta=0.30
     Davidson diagonalization with overlap
     ethr =  7.02E-06,  avg # of iterations =  4.7

     negative rho (up, down):  1.463E-02 0.000E+00
 
     Adding external electric field

     Computed dipole along edir(3) : 
        Dipole               -0.3604 Ry au,         -0.9160 Debye
        Dipole field         -0.0011 Ry au
 
        Potential amp.        0.0980 Ry
        Total length         44.9721 bohr
 

     total cpu time spent up to now is      299.9 secs

     total energy              =   -1781.43836368 Ry
     Harris-Foulkes estimate   =   -1781.43840503 Ry
     estimated scf accuracy    <       0.00119239 Ry

     iteration # 19     ecut=    36.75 Ry     beta=0.30
     Davidson diagonalization with overlap
     ethr =  7.36E-07,  avg # of iterations =  7.6

     negative rho (up, down):  1.479E-02 0.000E+00
 
     Adding external electric field

     Computed dipole along edir(3) : 
        Dipole               -0.3632 Ry au,         -0.9231 Debye
        Dipole field         -0.0011 Ry au
 
        Potential amp.        0.0987 Ry
        Total length         44.9721 bohr
 

     total cpu time spent up to now is      320.2 secs

     total energy              =   -1781.43852506 Ry
     Harris-Foulkes estimate   =   -1781.43860651 Ry
     estimated scf accuracy    <       0.00176523 Ry

     iteration # 20     ecut=    36.75 Ry     beta=0.30
     Davidson diagonalization with overlap
     ethr =  7.36E-07,  avg # of iterations =  1.9

     negative rho (up, down):  1.504E-02 0.000E+00
 
     Adding external electric field

     Computed dipole along edir(3) : 
        Dipole               -0.3673 Ry au,         -0.9337 Debye
        Dipole field         -0.0011 Ry au
 
        Potential amp.        0.0998 Ry
        Total length         44.9721 bohr
 

     total cpu time spent up to now is      334.4 secs

     total energy              =   -1781.43851616 Ry
     Harris-Foulkes estimate   =   -1781.43856646 Ry
     estimated scf accuracy    <       0.00175814 Ry

     iteration # 21     ecut=    36.75 Ry     beta=0.30
     Davidson diagonalization with overlap
     ethr =  7.36E-07,  avg # of iterations =  4.6

     negative rho (up, down):  1.516E-02 0.000E+00
 
     Adding external electric field

     Computed dipole along edir(3) : 
        Dipole               -0.3672 Ry au,         -0.9334 Debye
        Dipole field         -0.0011 Ry au
 
        Potential amp.        0.0998 Ry
        Total length         44.9721 bohr
 

     total cpu time spent up to now is      349.5 secs

     total energy              =   -1781.43853117 Ry
     Harris-Foulkes estimate   =   -1781.43856293 Ry
     estimated scf accuracy    <       0.00067677 Ry

     iteration # 22     ecut=    36.75 Ry     beta=0.30
     Davidson diagonalization with overlap
     ethr =  4.18E-07,  avg # of iterations =  1.6

     negative rho (up, down):  1.517E-02 0.000E+00
 
     Adding external electric field

     Computed dipole along edir(3) : 
        Dipole               -0.3667 Ry au,         -0.9321 Debye
        Dipole field         -0.0011 Ry au
 
        Potential amp.        0.0997 Ry
        Total length         44.9721 bohr
 

     total cpu time spent up to now is      363.6 secs

     total energy              =   -1781.43853723 Ry
     Harris-Foulkes estimate   =   -1781.43855308 Ry
     estimated scf accuracy    <       0.00032889 Ry

     iteration # 23     ecut=    36.75 Ry     beta=0.30
     Davidson diagonalization with overlap
     ethr =  2.03E-07,  avg # of iterations =  4.8

     negative rho (up, down):  1.531E-02 0.000E+00
 
     Adding external electric field

     Computed dipole along edir(3) : 
        Dipole               -0.3661 Ry au,         -0.9306 Debye
        Dipole field         -0.0011 Ry au
 
        Potential amp.        0.0995 Ry
        Total length         44.9721 bohr
 

     total cpu time spent up to now is      380.3 secs

     total energy              =   -1781.43853693 Ry
     Harris-Foulkes estimate   =   -1781.43857195 Ry
     estimated scf accuracy    <       0.00042476 Ry

     iteration # 24     ecut=    36.75 Ry     beta=0.30
     Davidson diagonalization with overlap
     ethr =  2.03E-07,  avg # of iterations =  3.8

     negative rho (up, down):  1.529E-02 0.000E+00
 
     Adding external electric field

     Computed dipole along edir(3) : 
        Dipole               -0.3661 Ry au,         -0.9306 Debye
        Dipole field         -0.0011 Ry au
 
        Potential amp.        0.0995 Ry
        Total length         44.9721 bohr
 

     total cpu time spent up to now is      395.6 secs

     total energy              =   -1781.43854616 Ry
     Harris-Foulkes estimate   =   -1781.43855943 Ry
     estimated scf accuracy    <       0.00018851 Ry

     iteration # 25     ecut=    36.75 Ry     beta=0.30
     Davidson diagonalization with overlap
     ethr =  1.16E-07,  avg # of iterations =  2.8

     negative rho (up, down):  1.535E-02 0.000E+00
 
     Adding external electric field

     Computed dipole along edir(3) : 
        Dipole               -0.3678 Ry au,         -0.9348 Debye
        Dipole field         -0.0011 Ry au
 
        Potential amp.        0.1000 Ry
        Total length         44.9721 bohr
 

     total cpu time spent up to now is      410.2 secs

     total energy              =   -1781.43855185 Ry
     Harris-Foulkes estimate   =   -1781.43855238 Ry
     estimated scf accuracy    <       0.00007693 Ry

     iteration # 26     ecut=    36.75 Ry     beta=0.30
     Davidson diagonalization with overlap
     ethr =  4.75E-08,  avg # of iterations =  5.7

     negative rho (up, down):  1.540E-02 0.000E+00
 
     Adding external electric field

     Computed dipole along edir(3) : 
        Dipole               -0.3685 Ry au,         -0.9366 Debye
        Dipole field         -0.0011 Ry au
 
        Potential amp.        0.1002 Ry
        Total length         44.9721 bohr
 

     total cpu time spent up to now is      426.7 secs

     total energy              =   -1781.43855417 Ry
     Harris-Foulkes estimate   =   -1781.43855506 Ry
     estimated scf accuracy    <       0.00006836 Ry

     iteration # 27     ecut=    36.75 Ry     beta=0.30
     Davidson diagonalization with overlap
     ethr =  4.22E-08,  avg # of iterations =  2.5

     negative rho (up, down):  1.541E-02 0.000E+00
 
     Adding external electric field

     Computed dipole along edir(3) : 
        Dipole               -0.3690 Ry au,         -0.9378 Debye
        Dipole field         -0.0011 Ry au
 
        Potential amp.        0.1003 Ry
        Total length         44.9721 bohr
 

     total cpu time spent up to now is      442.1 secs

     total energy              =   -1781.43855479 Ry
     Harris-Foulkes estimate   =   -1781.43855569 Ry
     estimated scf accuracy    <       0.00003026 Ry

     iteration # 28     ecut=    36.75 Ry     beta=0.30
     Davidson diagonalization with overlap
     ethr =  1.87E-08,  avg # of iterations =  3.9

     negative rho (up, down):  1.539E-02 0.000E+00
 
     Adding external electric field

     Computed dipole along edir(3) : 
        Dipole               -0.3692 Ry au,         -0.9385 Debye
        Dipole field         -0.0011 Ry au
 
        Potential amp.        0.1004 Ry
        Total length         44.9721 bohr
 

     total cpu time spent up to now is      458.9 secs

     total energy              =   -1781.43855570 Ry
     Harris-Foulkes estimate   =   -1781.43855616 Ry
     estimated scf accuracy    <       0.00001022 Ry

     iteration # 29     ecut=    36.75 Ry     beta=0.30
     Davidson diagonalization with overlap
     ethr =  6.31E-09,  avg # of iterations =  5.1

     negative rho (up, down):  1.554E-02 0.000E+00

     negative rho (up, down):  1.554E-02 0.000E+00

     negative rho (up, down):  1.554E-02 0.000E+00

     negative rho (up, down):  1.554E-02 0.000E+00

     negative rho (up, down):  1.554E-02 0.000E+00

     negative rho (up, down):  1.554E-02 0.000E+00

     negative rho (up, down):  1.554E-02 0.000E+00

     negative rho (up, down):  1.554E-02 0.000E+00

     negative rho (up, down):  1.554E-02 0.000E+00

     negative rho (up, down):  1.554E-02 0.000E+00

     negative rho (up, down):  1.554E-02 0.000E+00

     negative rho (up, down):  1.554E-02 0.000E+00

     negative rho (up, down):  1.554E-02 0.000E+00

     negative rho (up, down):  1.554E-02 0.000E+00

     negative rho (up, down):  1.554E-02 0.000E+00

     negative rho (up, down):  1.554E-02 0.000E+00

     negative rho (up, down):  1.554E-02 0.000E+00

     negative rho (up, down):  1.554E-02 0.000E+00

     negative rho (up, down):  1.554E-02 0.000E+00

     negative rho (up, down):  1.554E-02 0.000E+00

     negative rho (up, down):  1.554E-02 0.000E+00

     negative rho (up, down):  1.554E-02 0.000E+00

     negative rho (up, down):  1.554E-02 0.000E+00

     negative rho (up, down):  1.554E-02 0.000E+00

     negative rho (up, down):  1.554E-02 0.000E+00

     negative rho (up, down):  1.554E-02 0.000E+00

     negative rho (up, down):  1.554E-02 0.000E+00

     negative rho (up, down):  1.554E-02 0.000E+00

     negative rho (up, down):  1.554E-02 0.000E+00

     negative rho (up, down):  1.554E-02 0.000E+00

     negative rho (up, down):  1.554E-02 0.000E+00

     negative rho (up, down):  1.554E-02 0.000E+00

     negative rho (up, down):  1.554E-02 0.000E+00

     negative rho (up, down):  1.554E-02 0.000E+00

     negative rho (up, down):  1.554E-02 0.000E+00
 
     Adding external electric field

     Computed dipole along edir(3) : 
        Dipole               -0.3637 Ry au,         -0.9243 Debye
        Dipole field         -0.0011 Ry au
 
        Potential amp.        0.0988 Ry
        Total length         44.9721 bohr
 

     total cpu time spent up to now is      518.6 secs

     End of self-consistent calculation

          k = 0.0000 0.0000 0.0000 ( 15569 PWs)   bands (ev):

   -63.8291 -63.7278 -63.6917 -63.6584 -63.6572 -63.6273 -63.5952 -63.5693
   -63.5689 -63.5441 -63.5412 -63.5409 -37.8822 -37.8818 -37.8748 -37.8132
   -37.8130 -37.8117 -37.7866 -37.7109 -37.7108 -37.7029 -37.6280 -37.5605
   -37.5224 -37.5215 -37.4182 -37.4170 -37.4168 -37.3947 -37.3723 -37.3722
   -37.3025 -37.2895 -37.2894 -37.2802 -37.2731 -37.2728 -37.2427 -37.2042
   -37.2041 -37.1919 -37.1810 -37.1806 -37.1346 -37.1345 -37.0713 -37.0713
   -16.2992  -5.5337  -3.9784  -2.8918  -2.6579  -2.6579  -2.6060  -2.4795
    -2.2877  -2.2877  -2.1200  -2.1199  -2.0818  -1.7947  -1.7946  -1.7785
    -1.6477  -1.6477  -1.6162  -0.8803  -0.6076  -0.6075   0.0598   0.1860
     0.2824   0.2825   0.4128   0.5952   0.6915   0.6915   0.7801   0.7803
     0.8491   0.8491   0.9395   0.9568   0.9569   0.9772   0.9772   1.0624
     1.4304   1.6946   1.6948

          k = 0.0000 0.0356 0.0000 ( 15635 PWs)   bands (ev):

   -63.8240 -63.7259 -63.6865 -63.6626 -63.6584 -63.6234 -63.5961 -63.5751
   -63.5691 -63.5472 -63.5423 -63.5409 -37.8631 -37.8603 -37.8488 -37.7941
   -37.7927 -37.7844 -37.7648 -37.6902 -37.6860 -37.6716 -37.6230 -37.5616
   -37.5330 -37.5281 -37.4218 -37.4217 -37.4163 -37.4031 -37.3922 -37.3676
   -37.3257 -37.3144 -37.2918 -37.2785 -37.2681 -37.2635 -37.2531 -37.2261
   -37.2147 -37.2080 -37.2016 -37.1805 -37.1668 -37.1438 -37.1093 -37.0793
   -16.2986  -5.3157  -3.7774  -2.7325  -2.6515  -2.5748  -2.5413  -2.4098
    -2.2643  -2.1804  -2.1611  -2.0719  -1.9990  -1.6937  -1.6446  -1.6150
    -1.5331  -1.5130  -1.5074  -0.8351  -0.6172  -0.5989  -0.0079   0.2083
     0.3043   0.3241   0.3411   0.4567   0.5341   0.5443   0.6360   0.7808
     0.8179   0.8340   0.9043   0.9184   0.9371   0.9528   0.9942   1.1185
     1.1733   1.4342   1.4518

          k = 0.0000 0.0713 0.0000 ( 15669 PWs)   bands (ev):

   -63.8128 -63.7227 -63.6775 -63.6678 -63.6584 -63.6206 -63.5984 -63.5824
   -63.5692 -63.5587 -63.5431 -63.5407 -37.8366 -37.8083 -37.7709 -37.7496
   -37.7490 -37.7283 -37.6990 -37.6420 -37.6396 -37.6064 -37.5892 -37.5644
   -37.5482 -37.5344 -37.4584 -37.4554 -37.4164 -37.4082 -37.4073 -37.3651
   -37.3559 -37.3509 -37.3474 -37.3021 -37.2901 -37.2817 -37.2601 -37.2561
   -37.2433 -37.2397 -37.2372 -37.2144 -37.1908 -37.1696 -37.1604 -37.1012
   -16.2972  -4.7026  -3.2520  -3.0117  -2.5691  -2.4190  -2.3845  -2.2190
    -2.0806  -1.9954  -1.9698  -1.8602  -1.7844  -1.4964  -1.3249  -1.2726
    -1.2181  -1.1338  -1.1037  -0.7230  -0.5911  -0.5619  -0.3098  -0.0577
     0.0316   0.0502   0.1587   0.2237   0.3803   0.4584   0.4629   0.4908
     0.5441   0.6059   0.6197   0.7036   0.8549   0.9556   1.0021   1.0160
     1.0862   1.1686   1.2287

          k = 0.0000-0.1069 0.0000 ( 15660 PWs)   bands (ev):

   -63.8065 -63.7212 -63.6832 -63.6585 -63.6523 -63.6328 -63.5961 -63.5756
   -63.5736 -63.5692 -63.5432 -63.5407 -37.8208 -37.7736 -37.7354 -37.7222
   -37.7128 -37.7005 -37.6432 -37.6145 -37.6114 -37.5956 -37.5789 -37.5646
   -37.5420 -37.5053 -37.4773 -37.4400 -37.4327 -37.4242 -37.4196 -37.4081
   -37.3652 -37.3436 -37.3427 -37.3407 -37.3376 -37.3339 -37.3327 -37.2620
   -37.2568 -37.2394 -37.2302 -37.2208 -37.2062 -37.1945 -37.1350 -37.1278
   -16.2966  -3.8453  -3.8260  -2.7552  -2.6714  -2.3558  -2.3234  -2.2052
    -1.8205  -1.8048  -1.7275  -1.7010  -1.5935  -1.4905  -1.0206  -0.9758
    -0.9452  -0.9283  -0.8375  -0.7580  -0.4184  -0.4089  -0.3919  -0.3537
    -0.2657  -0.2234  -0.0274   0.0502   0.0800   0.1482   0.1742   0.2896
     0.3505   0.4217   0.4641   0.5590   0.6966   0.7359   0.7467   0.9013
     0.9134   1.2481   1.3030

          k = 0.0309-0.0178 0.0000 ( 15635 PWs)   bands (ev):

   -63.8241 -63.7258 -63.6865 -63.6637 -63.6574 -63.6234 -63.5962 -63.5750
   -63.5691 -63.5472 -63.5422 -63.5410 -37.8631 -37.8607 -37.8484 -37.7940
   -37.7929 -37.7843 -37.7648 -37.6902 -37.6860 -37.6716 -37.6230 -37.5615
   -37.5337 -37.5274 -37.4218 -37.4216 -37.4163 -37.4030 -37.3922 -37.3679
   -37.3256 -37.3144 -37.2917 -37.2786 -37.2681 -37.2635 -37.2532 -37.2262
   -37.2147 -37.2082 -37.2013 -37.1802 -37.1669 -37.1437 -37.1093 -37.0793
   -16.2986  -5.3157  -3.7774  -2.7325  -2.6515  -2.5749  -2.5413  -2.4098
    -2.2643  -2.1805  -2.1611  -2.0719  -1.9990  -1.6937  -1.6446  -1.6149
    -1.5331  -1.5130  -1.5074  -0.8351  -0.6171  -0.5990  -0.0079   0.2082
     0.3043   0.3240   0.3411   0.4566   0.5340   0.5445   0.6360   0.7808
     0.8178   0.8340   0.9042   0.9184   0.9372   0.9529   0.9943   1.1185
     1.1732   1.4343   1.4518

          k = 0.0309 0.0178 0.0000 ( 15635 PWs)   bands (ev):

   -63.8241 -63.7258 -63.6865 -63.6634 -63.6577 -63.6233 -63.5962 -63.5747
   -63.5694 -63.5472 -63.5421 -63.5411 -37.8631 -37.8606 -37.8485 -37.7939
   -37.7929 -37.7844 -37.7648 -37.6902 -37.6860 -37.6716 -37.6230 -37.5615
   -37.5335 -37.5276 -37.4218 -37.4216 -37.4163 -37.4031 -37.3921 -37.3678
   -37.3256 -37.3146 -37.2917 -37.2786 -37.2680 -37.2637 -37.2530 -37.2262
   -37.2147 -37.2080 -37.2014 -37.1804 -37.1668 -37.1438 -37.1093 -37.0793
   -16.2986  -5.3157  -3.7774  -2.7325  -2.6515  -2.5748  -2.5413  -2.4098
    -2.2643  -2.1804  -2.1611  -2.0719  -1.9990  -1.6938  -1.6446  -1.6149
    -1.5331  -1.5130  -1.5074  -0.8351  -0.6171  -0.5989  -0.0079   0.2082
     0.3043   0.3241   0.3411   0.4567   0.5341   0.5444   0.6360   0.7808
     0.8179   0.8340   0.9042   0.9184   0.9372   0.9529   0.9942   1.1185
     1.1733   1.4342   1.4517

          k = 0.0309 0.0535 0.0000 ( 15620 PWs)   bands (ev):

   -63.8159 -63.7230 -63.6772 -63.6717 -63.6570 -63.6190 -63.5962 -63.5863
   -63.5675 -63.5515 -63.5480 -63.5386 -37.8439 -37.8222 -37.7905 -37.7651
   -37.7551 -37.7412 -37.7235 -37.6604 -37.6384 -37.6213 -37.6081 -37.5633
   -37.5451 -37.5407 -37.4736 -37.4168 -37.4131 -37.4069 -37.3973 -37.3812
   -37.3701 -37.3263 -37.3006 -37.2950 -37.2895 -37.2677 -37.2591 -37.2564
   -37.2502 -37.2237 -37.2082 -37.1959 -37.1910 -37.1790 -37.1519 -37.0984
   -16.2976  -4.8986  -3.4096  -2.6944  -2.5917  -2.5312  -2.4219  -2.3158
    -2.1938  -2.1050  -2.0730  -1.9722  -1.7058  -1.4918  -1.4587  -1.3656
    -1.3049  -1.2823  -1.2346  -0.7525  -0.6233  -0.5746  -0.1777   0.0509
     0.1335   0.1448   0.2153   0.2632   0.3485   0.4848   0.5239   0.5808
     0.6531   0.6903   0.7050   0.8235   0.8585   0.9455   1.0704   1.1183
     1.1377   1.1802   1.2019

          k = 0.0309-0.1248 0.0000 ( 15642 PWs)   bands (ev):

   -63.8068 -63.7184 -63.6876 -63.6581 -63.6540 -63.6246 -63.6002 -63.5859
   -63.5692 -63.5600 -63.5511 -63.5369 -37.8213 -37.7658 -37.7357 -37.7174
   -37.7044 -37.6982 -37.6543 -37.6211 -37.6110 -37.5948 -37.5806 -37.5610
   -37.5427 -37.5259 -37.4898 -37.4581 -37.4534 -37.4122 -37.3995 -37.3932
   -37.3845 -37.3690 -37.3497 -37.3418 -37.3156 -37.3025 -37.2770 -37.2693
   -37.2583 -37.2481 -37.2235 -37.2153 -37.2106 -37.1909 -37.1651 -37.1303
   -16.2966  -4.1461  -3.2626  -2.8502  -2.6113  -2.4569  -2.3966  -2.2207
    -2.1097  -1.8791  -1.6606  -1.6409  -1.4085  -1.3087  -1.0991  -1.0638
    -1.0077  -0.9360  -0.8511  -0.6114  -0.5614  -0.5091  -0.4213  -0.3187
    -0.2552  -0.1668  -0.0847  -0.0107   0.0577   0.1727   0.2061   0.2481
     0.3226   0.3831   0.4364   0.5527   0.6931   0.7251   0.9143   0.9372
     1.0204   1.1512   1.2659

          k = 0.0309-0.0891 0.0000 ( 15642 PWs)   bands (ev):

   -63.8068 -63.7183 -63.6877 -63.6579 -63.6541 -63.6245 -63.6003 -63.5857
   -63.5694 -63.5599 -63.5512 -63.5369 -37.8213 -37.7658 -37.7357 -37.7175
   -37.7045 -37.6983 -37.6543 -37.6210 -37.6111 -37.5948 -37.5806 -37.5610
   -37.5426 -37.5256 -37.4898 -37.4583 -37.4535 -37.4122 -37.3995 -37.3931
   -37.3845 -37.3690 -37.3498 -37.3418 -37.3158 -37.3024 -37.2771 -37.2693
   -37.2582 -37.2479 -37.2234 -37.2154 -37.2106 -37.1909 -37.1651 -37.1302
   -16.2966  -4.1461  -3.2626  -2.8502  -2.6113  -2.4569  -2.3966  -2.2207
    -2.1097  -1.8791  -1.6606  -1.6409  -1.4085  -1.3087  -1.0991  -1.0638
    -1.0077  -0.9360  -0.8511  -0.6114  -0.5614  -0.5091  -0.4213  -0.3187
    -0.2553  -0.1668  -0.0847  -0.0108   0.0577   0.1726   0.2062   0.2481
     0.3226   0.3831   0.4364   0.5528   0.6932   0.7251   0.9143   0.9371
     1.0204   1.1512   1.2659

          k = 0.0309-0.0535 0.0000 ( 15620 PWs)   bands (ev):

   -63.8159 -63.7229 -63.6773 -63.6719 -63.6569 -63.6190 -63.5961 -63.5865
   -63.5675 -63.5514 -63.5482 -63.5386 -37.8439 -37.8223 -37.7905 -37.7652
   -37.7550 -37.7413 -37.7235 -37.6604 -37.6384 -37.6213 -37.6080 -37.5632
   -37.5452 -37.5405 -37.4734 -37.4168 -37.4131 -37.4069 -37.3974 -37.3812
   -37.3701 -37.3263 -37.3005 -37.2951 -37.2895 -37.2678 -37.2592 -37.2565
   -37.2501 -37.2236 -37.2082 -37.1959 -37.1909 -37.1790 -37.1518 -37.0983
   -16.2976  -4.8986  -3.4096  -2.6944  -2.5917  -2.5312  -2.4219  -2.3157
    -2.1938  -2.1050  -2.0730  -1.9722  -1.7058  -1.4918  -1.4587  -1.3655
    -1.3049  -1.2824  -1.2346  -0.7525  -0.6233  -0.5746  -0.1777   0.0509
     0.1336   0.1448   0.2153   0.2632   0.3485   0.4848   0.5239   0.5808
     0.6531   0.6903   0.7049   0.8235   0.8585   0.9455   1.0704   1.1183
     1.1376   1.1802   1.2019

          k = 0.0617-0.0356 0.0000 ( 15669 PWs)   bands (ev):

   -63.8129 -63.7223 -63.6782 -63.6684 -63.6575 -63.6206 -63.5986 -63.5823
   -63.5692 -63.5587 -63.5429 -63.5409 -37.8366 -37.8088 -37.7706 -37.7495
   -37.7489 -37.7284 -37.6990 -37.6419 -37.6395 -37.6064 -37.5892 -37.5647
   -37.5477 -37.5346 -37.4585 -37.4548 -37.4164 -37.4082 -37.4072 -37.3651
   -37.3560 -37.3512 -37.3480 -37.3021 -37.2901 -37.2819 -37.2602 -37.2561
   -37.2432 -37.2397 -37.2373 -37.2139 -37.1908 -37.1694 -37.1604 -37.1012
   -16.2972  -4.7026  -3.2520  -3.0117  -2.5691  -2.4191  -2.3845  -2.2190
    -2.0805  -1.9954  -1.9698  -1.8602  -1.7844  -1.4963  -1.3249  -1.2726
    -1.2180  -1.1337  -1.1037  -0.7229  -0.5912  -0.5619  -0.3098  -0.0577
     0.0316   0.0503   0.1587   0.2237   0.3803   0.4584   0.4629   0.4907
     0.5441   0.6059   0.6196   0.7035   0.8550   0.9554   1.0020   1.0161
     1.0862   1.1687   1.2288

          k = 0.0617 0.0000 0.0000 ( 15620 PWs)   bands (ev):

   -63.8159 -63.7227 -63.6774 -63.6723 -63.6565 -63.6190 -63.5963 -63.5863
   -63.5675 -63.5515 -63.5481 -63.5386 -37.8440 -37.8225 -37.7903 -37.7654
   -37.7546 -37.7415 -37.7235 -37.6604 -37.6383 -37.6213 -37.6080 -37.5632
   -37.5455 -37.5403 -37.4730 -37.4166 -37.4133 -37.4069 -37.3977 -37.3812
   -37.3703 -37.3263 -37.3005 -37.2951 -37.2897 -37.2677 -37.2591 -37.2566
   -37.2502 -37.2235 -37.2081 -37.1959 -37.1909 -37.1789 -37.1518 -37.0983
   -16.2976  -4.8986  -3.4096  -2.6944  -2.5917  -2.5312  -2.4219  -2.3158
    -2.1938  -2.1050  -2.0730  -1.9722  -1.7057  -1.4919  -1.4586  -1.3655
    -1.3049  -1.2824  -1.2346  -0.7525  -0.6233  -0.5747  -0.1777   0.0509
     0.1335   0.1448   0.2153   0.2632   0.3485   0.4850   0.5239   0.5808
     0.6531   0.6904   0.7049   0.8235   0.8585   0.9454   1.0703   1.1183
     1.1376   1.1803   1.2019

          k = 0.0617 0.0356 0.0000 ( 15669 PWs)   bands (ev):

   -63.8129 -63.7224 -63.6780 -63.6682 -63.6578 -63.6207 -63.5987 -63.5819
   -63.5695 -63.5586 -63.5428 -63.5410 -37.8367 -37.8087 -37.7706 -37.7494
   -37.7489 -37.7284 -37.6991 -37.6420 -37.6395 -37.6064 -37.5893 -37.5646
   -37.5479 -37.5345 -37.4585 -37.4550 -37.4164 -37.4082 -37.4073 -37.3650
   -37.3561 -37.3511 -37.3479 -37.3021 -37.2902 -37.2818 -37.2600 -37.2561
   -37.2430 -37.2399 -37.2372 -37.2142 -37.1908 -37.1694 -37.1605 -37.1012
   -16.2972  -4.7026  -3.2520  -3.0117  -2.5691  -2.4191  -2.3845  -2.2190
    -2.0805  -1.9955  -1.9697  -1.8601  -1.7844  -1.4963  -1.3249  -1.2727
    -1.2180  -1.1338  -1.1037  -0.7229  -0.5912  -0.5619  -0.3098  -0.0577
     0.0316   0.0502   0.1586   0.2238   0.3802   0.4584   0.4629   0.4908
     0.5441   0.6059   0.6197   0.7036   0.8550   0.9555   1.0020   1.0161
     1.0861   1.1687   1.2287

          k = 0.0617-0.1426 0.0000 ( 15642 PWs)   bands (ev):

   -63.8069 -63.7181 -63.6881 -63.6579 -63.6539 -63.6247 -63.6002 -63.5857
   -63.5695 -63.5598 -63.5512 -63.5369 -37.8213 -37.7661 -37.7356 -37.7173
   -37.7046 -37.6980 -37.6543 -37.6211 -37.6110 -37.5949 -37.5806 -37.5609
   -37.5427 -37.5260 -37.4898 -37.4579 -37.4532 -37.4122 -37.3995 -37.3931
   -37.3847 -37.3691 -37.3501 -37.3418 -37.3158 -37.3023 -37.2768 -37.2695
   -37.2582 -37.2479 -37.2234 -37.2155 -37.2106 -37.1908 -37.1651 -37.1303
   -16.2966  -4.1461  -3.2626  -2.8502  -2.6113  -2.4569  -2.3967  -2.2207
    -2.1097  -1.8791  -1.6606  -1.6409  -1.4085  -1.3087  -1.0991  -1.0638
    -1.0078  -0.9360  -0.8511  -0.6114  -0.5614  -0.5091  -0.4213  -0.3187
    -0.2552  -0.1668  -0.0847  -0.0107   0.0577   0.1727   0.2061   0.2480
     0.3226   0.3831   0.4364   0.5527   0.6932   0.7252   0.9142   0.9372
     1.0203   1.1512   1.2660

          k = 0.0617-0.1069 0.0000 ( 15672 PWs)   bands (ev):

   -63.8039 -63.7077 -63.7028 -63.6544 -63.6462 -63.6191 -63.6168 -63.5804
   -63.5669 -63.5651 -63.5545 -63.5353 -37.8131 -37.7215 -37.7143 -37.6938
   -37.6790 -37.6768 -37.6434 -37.6308 -37.6170 -37.5805 -37.5725 -37.5546
   -37.5181 -37.5173 -37.5157 -37.4646 -37.4531 -37.4531 -37.4212 -37.3959
   -37.3935 -37.3861 -37.3608 -37.3575 -37.3452 -37.2849 -37.2797 -37.2462
   -37.2460 -37.2433 -37.2350 -37.2341 -37.2208 -37.1792 -37.1760 -37.1744
   -16.2962  -3.3892  -3.3199  -3.3198  -2.5032  -2.4987  -2.4826  -2.0621
    -2.0375  -1.9984  -1.3291  -1.2963  -1.1921  -1.1117  -1.0911  -1.0880
    -0.7185  -0.7041  -0.6958  -0.6932  -0.5894  -0.5731  -0.5573  -0.5477
    -0.3405  -0.2865  -0.2775  -0.0999  -0.0924  -0.0830  -0.0182   0.0519
     0.0848   0.1582   0.3215   0.3915   0.5783   0.7799   0.9930   1.0064
     1.0898   1.2051   1.2161

          k = 0.0617-0.0713 0.0000 ( 15642 PWs)   bands (ev):

   -63.8069 -63.7178 -63.6885 -63.6577 -63.6540 -63.6246 -63.6004 -63.5857
   -63.5695 -63.5599 -63.5511 -63.5369 -37.8213 -37.7663 -37.7355 -37.7173
   -37.7047 -37.6980 -37.6542 -37.6210 -37.6109 -37.5948 -37.5806 -37.5608
   -37.5426 -37.5258 -37.4898 -37.4580 -37.4533 -37.4121 -37.3995 -37.3932
   -37.3850 -37.3691 -37.3502 -37.3418 -37.3159 -37.3024 -37.2769 -37.2694
   -37.2583 -37.2479 -37.2233 -37.2155 -37.2105 -37.1907 -37.1651 -37.1302
   -16.2966  -4.1461  -3.2626  -2.8502  -2.6113  -2.4569  -2.3967  -2.2207
    -2.1097  -1.8791  -1.6606  -1.6409  -1.4085  -1.3087  -1.0991  -1.0638
    -1.0078  -0.9360  -0.8511  -0.6114  -0.5614  -0.5091  -0.4213  -0.3187
    -0.2553  -0.1668  -0.0847  -0.0107   0.0578   0.1726   0.2061   0.2479
     0.3226   0.3831   0.4364   0.5527   0.6932   0.7251   0.9142   0.9372
     1.0203   1.1512   1.2661

          k =-0.0926 0.0535 0.0000 ( 15660 PWs)   bands (ev):

   -63.8066 -63.7204 -63.6848 -63.6575 -63.6523 -63.6329 -63.5961 -63.5756
   -63.5735 -63.5693 -63.5430 -63.5408 -37.8209 -37.7743 -37.7350 -37.7220
   -37.7132 -37.7001 -37.6431 -37.6143 -37.6113 -37.5957 -37.5791 -37.5643
   -37.5420 -37.5047 -37.4765 -37.4405 -37.4328 -37.4243 -37.4195 -37.4091
   -37.3652 -37.3438 -37.3428 -37.3407 -37.3376 -37.3338 -37.3336 -37.2616
   -37.2568 -37.2395 -37.2302 -37.2209 -37.2062 -37.1940 -37.1350 -37.1277
   -16.2966  -3.8454  -3.8259  -2.7551  -2.6714  -2.3559  -2.3235  -2.2052
    -1.8205  -1.8048  -1.7275  -1.7010  -1.5936  -1.4904  -1.0206  -0.9758
    -0.9454  -0.9283  -0.8375  -0.7579  -0.4183  -0.4089  -0.3921  -0.3537
    -0.2656  -0.2234  -0.0274   0.0503   0.0799   0.1481   0.1742   0.2895
     0.3504   0.4216   0.4641   0.5592   0.6967   0.7359   0.7466   0.9013
     0.9131   1.2483   1.3076

          k =-0.0926 0.0891 0.0000 ( 15642 PWs)   bands (ev):

   -63.8069 -63.7177 -63.6888 -63.6573 -63.6542 -63.6246 -63.6002 -63.5859
   -63.5692 -63.5601 -63.5511 -63.5369 -37.8213 -37.7663 -37.7354 -37.7174
   -37.7048 -37.6980 -37.6542 -37.6209 -37.6110 -37.5946 -37.5808 -37.5608
   -37.5426 -37.5253 -37.4898 -37.4583 -37.4535 -37.4121 -37.3994 -37.3933
   -37.3850 -37.3691 -37.3502 -37.3418 -37.3156 -37.3025 -37.2769 -37.2693
   -37.2583 -37.2480 -37.2233 -37.2153 -37.2105 -37.1907 -37.1651 -37.1302
   -16.2966  -4.1461  -3.2626  -2.8502  -2.6113  -2.4569  -2.3967  -2.2207
    -2.1098  -1.8791  -1.6606  -1.6409  -1.4084  -1.3087  -1.0991  -1.0638
    -1.0077  -0.9360  -0.8511  -0.6114  -0.5614  -0.5091  -0.4213  -0.3188
    -0.2552  -0.1668  -0.0847  -0.0107   0.0578   0.1726   0.2062   0.2480
     0.3225   0.3831   0.4364   0.5527   0.6933   0.7251   0.9142   0.9371
     1.0202   1.1512   1.2662

          k =-0.0926 0.1248 0.0000 ( 15642 PWs)   bands (ev):

   -63.8069 -63.7178 -63.6885 -63.6573 -63.6543 -63.6247 -63.6002 -63.5858
   -63.5694 -63.5598 -63.5512 -63.5369 -37.8213 -37.7662 -37.7354 -37.7174
   -37.7048 -37.6980 -37.6543 -37.6209 -37.6111 -37.5946 -37.5807 -37.5609
   -37.5426 -37.5253 -37.4898 -37.4584 -37.4536 -37.4121 -37.3995 -37.3932
   -37.3848 -37.3691 -37.3501 -37.3418 -37.3157 -37.3024 -37.2769 -37.2694
   -37.2582 -37.2479 -37.2234 -37.2154 -37.2105 -37.1908 -37.1652 -37.1303
   -16.2966  -4.1461  -3.2626  -2.8502  -2.6113  -2.4569  -2.3967  -2.2207
    -2.1098  -1.8791  -1.6606  -1.6409  -1.4085  -1.3087  -1.0991  -1.0638
    -1.0078  -0.9360  -0.8511  -0.6114  -0.5614  -0.5091  -0.4213  -0.3188
    -0.2552  -0.1668  -0.0847  -0.0107   0.0578   0.1726   0.2062   0.2481
     0.3225   0.3831   0.4364   0.5528   0.6933   0.7251   0.9142   0.9371
     1.0202   1.1512   1.2662

          k =-0.0926-0.0535 0.0000 ( 15660 PWs)   bands (ev):

   -63.8066 -63.7206 -63.6842 -63.6578 -63.6522 -63.6330 -63.5960 -63.5757
   -63.5731 -63.5695 -63.5430 -63.5409 -37.8209 -37.7741 -37.7351 -37.7218
   -37.7132 -37.7002 -37.6432 -37.6145 -37.6113 -37.5957 -37.5790 -37.5644
   -37.5420 -37.5050 -37.4768 -37.4403 -37.4327 -37.4243 -37.4195 -37.4087
   -37.3652 -37.3438 -37.3428 -37.3410 -37.3376 -37.3335 -37.3334 -37.2615
   -37.2567 -37.2396 -37.2299 -37.2210 -37.2064 -37.1942 -37.1350 -37.1279
   -16.2966  -3.8454  -3.8259  -2.7551  -2.6714  -2.3559  -2.3235  -2.2052
    -1.8205  -1.8048  -1.7274  -1.7011  -1.5936  -1.4905  -1.0205  -0.9759
    -0.9454  -0.9283  -0.8375  -0.7580  -0.4183  -0.4089  -0.3920  -0.3537
    -0.2657  -0.2233  -0.0275   0.0502   0.0800   0.1482   0.1743   0.2895
     0.3505   0.4216   0.4641   0.5591   0.6967   0.7359   0.7467   0.9013
     0.9131   1.2484   1.3031

     the Fermi energy is     0.5586 ev

!    total energy              =   -1781.43855166 Ry
     Harris-Foulkes estimate   =   -1781.43856927 Ry
     estimated scf accuracy    <       0.00000593 Ry

     The total energy is the sum of the following terms:

     one-electron contribution =  -15307.30280217 Ry
     hartree contribution      =    7641.37968451 Ry
     xc contribution           =    -251.66667158 Ry
     ewald contribution        =    6136.29356352 Ry
     electric field correction =       0.00039963 Ry
     smearing contrib. (-TS)   =      -0.14272557 Ry

     convergence has been achieved in  29 iterations
 
 BEEF-vdW xc energy contributions
           1 :   -216.779599033436     
           2 :    194.299529389084     
           3 :   -157.289157238051     
           4 :    117.465710062598     
           5 :   -84.8923287945452     
           6 :    64.2600762885207     
           7 :   -54.3648064655474     
           8 :    50.3827449085763     
           9 :   -47.2436003989052     
          10 :    42.1787276663544     
          11 :   -35.3690580420836     
          12 :    28.8076811257583     
          13 :   -24.4260132857165     
          14 :    22.7292116686421     
          15 :   -22.6545236978109     
          16 :    22.4910368794623     
          17 :   -21.0898706952225     
          18 :    18.5241501552115     
          19 :   -15.8353742263579     
          20 :    14.1557313808905     
          21 :   -13.8857148546522     
          22 :    14.4785120959622     
          23 :   -14.9044940500800     
          24 :    14.3955235328496     
          25 :   -12.9352999001451     
          26 :    11.1928063330643     
          27 :   -9.99877236769584     
          28 :    9.76103860175306     
          29 :   -10.2238660335915     
          30 :    10.7016911024017     
          31 :   -22.4968694996588     
          32 :   -16.1667405695972     

     Forces acting on atoms (Ry/au):


     negative rho (up, down):  1.554E-02 0.000E+00
     atom    1 type  1   force =    -0.00022478   -0.00011843   -0.00147283
     atom    2 type  1   force =     0.00023468   -0.00012369   -0.00145754
     atom    3 type  1   force =     0.00001073    0.00024770   -0.00147079
     atom    4 type  1   force =    -0.00000306   -0.00000544   -0.00059861
     atom    5 type  1   force =     0.00000810    0.00592198   -0.00535326
     atom    6 type  1   force =    -0.00002361    0.00004009    0.00944196
     atom    7 type  1   force =    -0.00508097   -0.00297909   -0.00542507
     atom    8 type  1   force =     0.00508408   -0.00298709   -0.00542988
     atom    9 type  1   force =     0.00000262    0.00000489    0.19454566
     atom   10 type  1   force =    -0.00000396    0.00437936   -0.00497688
     atom   11 type  1   force =     0.00378288   -0.00218726   -0.00493855
     atom   12 type  1   force =    -0.00378850   -0.00218769   -0.00494579
     atom   13 type  2   force =     0.00000179   -0.00000534   -0.16791844

     Total force =     0.257246     Total SCF correction =     0.002325


     entering subroutine stress ...


     negative rho (up, down):  1.554E-02 0.000E+00
          total   stress  (Ry/bohr**3)                   (kbar)     P=  -22.87
  -0.00016727   0.00000001   0.00000001        -24.61      0.00      0.00
   0.00000001  -0.00016735   0.00000001          0.00    -24.62      0.00
   0.00000001   0.00000001  -0.00013189          0.00      0.00    -19.40


     BFGS Geometry Optimization

     number of scf cycles    =   1
     number of bfgs steps    =   0

     energy   new            =   -1781.4385516561 Ry

     new trust radius        =       0.1945456632 bohr
     new conv_thr            =       0.0000099958 Ry


ATOMIC_POSITIONS (crystal)
V1       0.166666667   0.166666667   0.409694847    0   0   0
V1       0.666666667   0.166666667   0.409694847    0   0   0
V1       0.166666667   0.666666667   0.409694847    0   0   0
V1       0.666666667   0.666666667   0.409694847    0   0   0
V1       0.833333333   0.333333333   0.500000000    0   0   0
V1       0.333333333   0.333333333   0.500000000    0   0   0
V1       0.833333333   0.833333333   0.500000000    0   0   0
V1       0.333333333   0.833333333   0.500000000    0   0   0
V1      -0.000000020   0.000000554   0.594522926
V1       0.499751799   0.000495626   0.590197254
V1       0.000494532   0.499752461   0.590198085
V1       0.499752480   0.499752412   0.590197928
O1       0.000000478  -0.000000605   0.662929358



     Writing output data file calc.save
     Check: negative starting charge=   -0.011706
     NEW-OLD atomic charge density approx. for the potential

     Check: negative/imaginary core charge=   -0.000001    0.000000
     Check: negative starting charge=   -0.011662

     negative rho (up, down):  1.562E-02 0.000E+00
 
     Adding external electric field

     Computed dipole along edir(3) : 
        Dipole               -0.3634 Ry au,         -0.9237 Debye
        Dipole field         -0.0011 Ry au
 
        Potential amp.        0.0988 Ry
        Total length         44.9721 bohr
 

     total cpu time spent up to now is      575.8 secs

     per-process dynamical memory:   105.9 Mb

     Self-consistent Calculation

     iteration #  1     ecut=    36.75 Ry     beta=0.30
     Davidson diagonalization with overlap
     ethr =  1.00E-06,  avg # of iterations = 16.9

     negative rho (up, down):  1.558E-02 0.000E+00
 
     Adding external electric field

     Computed dipole along edir(3) : 
        Dipole               -0.8032 Ry au,         -2.0415 Debye
        Dipole field         -0.0024 Ry au
 
        Potential amp.        0.2183 Ry
        Total length         44.9721 bohr
 

     total cpu time spent up to now is      606.9 secs

     total energy              =   -1781.45553975 Ry
     Harris-Foulkes estimate   =   -1781.48674061 Ry
     estimated scf accuracy    <       0.07082775 Ry

     iteration #  2     ecut=    36.75 Ry     beta=0.30
     Davidson diagonalization with overlap
     ethr =  4.37E-05,  avg # of iterations =  6.7

     negative rho (up, down):  1.557E-02 0.000E+00
 
     Adding external electric field

     Computed dipole along edir(3) : 
        Dipole               -0.2795 Ry au,         -0.7104 Debye
        Dipole field         -0.0008 Ry au
 
        Potential amp.        0.0760 Ry
        Total length         44.9721 bohr
 

     total cpu time spent up to now is      627.4 secs

     total energy              =   -1781.06703681 Ry
     Harris-Foulkes estimate   =   -1781.95336207 Ry
     estimated scf accuracy    <      52.13419266 Ry

     iteration #  3     ecut=    36.75 Ry     beta=0.30
     Davidson diagonalization with overlap
     ethr =  4.37E-05,  avg # of iterations =  7.0

     negative rho (up, down):  1.566E-02 0.000E+00
 
     Adding external electric field

     Computed dipole along edir(3) : 
        Dipole               -0.3149 Ry au,         -0.8004 Debye
        Dipole field         -0.0010 Ry au
 
        Potential amp.        0.0856 Ry
        Total length         44.9721 bohr
 

     total cpu time spent up to now is      648.3 secs

     total energy              =   -1781.45423368 Ry
     Harris-Foulkes estimate   =   -1781.50913397 Ry
     estimated scf accuracy    <       1.29282085 Ry

     iteration #  4     ecut=    36.75 Ry     beta=0.30
     Davidson diagonalization with overlap
     ethr =  4.37E-05,  avg # of iterations =  5.0

     negative rho (up, down):  1.573E-02 0.000E+00
 
     Adding external electric field

     Computed dipole along edir(3) : 
        Dipole               -0.2940 Ry au,         -0.7473 Debye
        Dipole field         -0.0009 Ry au
 
        Potential amp.        0.0799 Ry
        Total length         44.9721 bohr
 

     total cpu time spent up to now is      666.2 secs

     total energy              =   -1781.47997866 Ry
     Harris-Foulkes estimate   =   -1781.48593525 Ry
     estimated scf accuracy    <       0.06168602 Ry

     iteration #  5     ecut=    36.75 Ry     beta=0.30
     Davidson diagonalization with overlap
     ethr =  3.81E-05,  avg # of iterations =  3.5

     negative rho (up, down):  1.565E-02 0.000E+00
 
     Adding external electric field

     Computed dipole along edir(3) : 
        Dipole               -0.2619 Ry au,         -0.6657 Debye
        Dipole field         -0.0008 Ry au
 
        Potential amp.        0.0712 Ry
        Total length         44.9721 bohr
 

     total cpu time spent up to now is      680.9 secs

     total energy              =   -1781.48198519 Ry
     Harris-Foulkes estimate   =   -1781.48365642 Ry
     estimated scf accuracy    <       0.00927461 Ry

     iteration #  6     ecut=    36.75 Ry     beta=0.30
     Davidson diagonalization with overlap
     ethr =  5.73E-06,  avg # of iterations =  5.5

     negative rho (up, down):  1.563E-02 0.000E+00
 
     Adding external electric field

     Computed dipole along edir(3) : 
        Dipole               -0.2507 Ry au,         -0.6371 Debye
        Dipole field         -0.0008 Ry au
 
        Potential amp.        0.0681 Ry
        Total length         44.9721 bohr
 

     total cpu time spent up to now is      699.5 secs

     total energy              =   -1781.48209317 Ry
     Harris-Foulkes estimate   =   -1781.48540562 Ry
     estimated scf accuracy    <       0.03632903 Ry

     iteration #  7     ecut=    36.75 Ry     beta=0.30
     Davidson diagonalization with overlap
     ethr =  5.73E-06,  avg # of iterations =  4.7

     negative rho (up, down):  1.561E-02 0.000E+00
 
     Adding external electric field

     Computed dipole along edir(3) : 
        Dipole               -0.2562 Ry au,         -0.6511 Debye
        Dipole field         -0.0008 Ry au
 
        Potential amp.        0.0696 Ry
        Total length         44.9721 bohr
 

     total cpu time spent up to now is      716.3 secs

     total energy              =   -1781.48328207 Ry
     Harris-Foulkes estimate   =   -1781.48385264 Ry
     estimated scf accuracy    <       0.00695610 Ry

     iteration #  8     ecut=    36.75 Ry     beta=0.30
     Davidson diagonalization with overlap
     ethr =  4.29E-06,  avg # of iterations =  3.0

     negative rho (up, down):  1.560E-02 0.000E+00
 
     Adding external electric field

     Computed dipole along edir(3) : 
        Dipole               -0.2567 Ry au,         -0.6525 Debye
        Dipole field         -0.0008 Ry au
 
        Potential amp.        0.0698 Ry
        Total length         44.9721 bohr
 

     total cpu time spent up to now is      731.1 secs

     total energy              =   -1781.48331245 Ry
     Harris-Foulkes estimate   =   -1781.48363044 Ry
     estimated scf accuracy    <       0.00261587 Ry

     iteration #  9     ecut=    36.75 Ry     beta=0.30
     Davidson diagonalization with overlap
     ethr =  1.61E-06,  avg # of iterations =  4.4

     negative rho (up, down):  1.559E-02 0.000E+00
 
     Adding external electric field

     Computed dipole along edir(3) : 
        Dipole               -0.2524 Ry au,         -0.6416 Debye
        Dipole field         -0.0008 Ry au
 
        Potential amp.        0.0686 Ry
        Total length         44.9721 bohr
 

     total cpu time spent up to now is      747.6 secs

     total energy              =   -1781.48357292 Ry
     Harris-Foulkes estimate   =   -1781.48368242 Ry
     estimated scf accuracy    <       0.00139519 Ry

     iteration # 10     ecut=    36.75 Ry     beta=0.30
     Davidson diagonalization with overlap
     ethr =  8.61E-07,  avg # of iterations =  4.0

     negative rho (up, down):  1.560E-02 0.000E+00
 
     Adding external electric field

     Computed dipole along edir(3) : 
        Dipole               -0.2503 Ry au,         -0.6362 Debye
        Dipole field         -0.0008 Ry au
 
        Potential amp.        0.0680 Ry
        Total length         44.9721 bohr
 

     total cpu time spent up to now is      762.8 secs

     total energy              =   -1781.48360356 Ry
     Harris-Foulkes estimate   =   -1781.48369379 Ry
     estimated scf accuracy    <       0.00151922 Ry

     iteration # 11     ecut=    36.75 Ry     beta=0.30
     Davidson diagonalization with overlap
     ethr =  8.61E-07,  avg # of iterations =  1.0

     negative rho (up, down):  1.560E-02 0.000E+00
 
     Adding external electric field

     Computed dipole along edir(3) : 
        Dipole               -0.2483 Ry au,         -0.6311 Debye
        Dipole field         -0.0008 Ry au
 
        Potential amp.        0.0675 Ry
        Total length         44.9721 bohr
 

     total cpu time spent up to now is      776.7 secs

     total energy              =   -1781.48356464 Ry
     Harris-Foulkes estimate   =   -1781.48365157 Ry
     estimated scf accuracy    <       0.00078001 Ry

     iteration # 12     ecut=    36.75 Ry     beta=0.30
     Davidson diagonalization with overlap
     ethr =  4.81E-07,  avg # of iterations =  4.0

     negative rho (up, down):  1.560E-02 0.000E+00
 
     Adding external electric field

     Computed dipole along edir(3) : 
        Dipole               -0.2481 Ry au,         -0.6307 Debye
        Dipole field         -0.0007 Ry au
 
        Potential amp.        0.0674 Ry
        Total length         44.9721 bohr
 

     total cpu time spent up to now is      792.6 secs

     total energy              =   -1781.48363922 Ry
     Harris-Foulkes estimate   =   -1781.48365082 Ry
     estimated scf accuracy    <       0.00033108 Ry

     iteration # 13     ecut=    36.75 Ry     beta=0.30
     Davidson diagonalization with overlap
     ethr =  2.04E-07,  avg # of iterations =  1.6

     negative rho (up, down):  1.560E-02 0.000E+00
 
     Adding external electric field

     Computed dipole along edir(3) : 
        Dipole               -0.2475 Ry au,         -0.6292 Debye
        Dipole field         -0.0007 Ry au
 
        Potential amp.        0.0673 Ry
        Total length         44.9721 bohr
 

     total cpu time spent up to now is      806.8 secs

     total energy              =   -1781.48363101 Ry
     Harris-Foulkes estimate   =   -1781.48365151 Ry
     estimated scf accuracy    <       0.00029786 Ry

     iteration # 14     ecut=    36.75 Ry     beta=0.30
     Davidson diagonalization with overlap
     ethr =  1.84E-07,  avg # of iterations =  2.0

     negative rho (up, down):  1.561E-02 0.000E+00
 
     Adding external electric field

     Computed dipole along edir(3) : 
        Dipole               -0.2499 Ry au,         -0.6351 Debye
        Dipole field         -0.0008 Ry au
 
        Potential amp.        0.0679 Ry
        Total length         44.9721 bohr
 

     total cpu time spent up to now is      821.2 secs

     total energy              =   -1781.48362809 Ry
     Harris-Foulkes estimate   =   -1781.48364132 Ry
     estimated scf accuracy    <       0.00077814 Ry

     iteration # 15     ecut=    36.75 Ry     beta=0.30
     Davidson diagonalization with overlap
     ethr =  1.84E-07,  avg # of iterations =  1.0

     negative rho (up, down):  1.561E-02 0.000E+00
 
     Adding external electric field

     Computed dipole along edir(3) : 
        Dipole               -0.2501 Ry au,         -0.6356 Debye
        Dipole field         -0.0008 Ry au
 
        Potential amp.        0.0680 Ry
        Total length         44.9721 bohr
 

     total cpu time spent up to now is      835.0 secs

     total energy              =   -1781.48363588 Ry
     Harris-Foulkes estimate   =   -1781.48363837 Ry
     estimated scf accuracy    <       0.00007503 Ry

     iteration # 16     ecut=    36.75 Ry     beta=0.30
     Davidson diagonalization with overlap
     ethr =  4.63E-08,  avg # of iterations =  4.7

     negative rho (up, down):  1.561E-02 0.000E+00
 
     Adding external electric field

     Computed dipole along edir(3) : 
        Dipole               -0.2506 Ry au,         -0.6370 Debye
        Dipole field         -0.0008 Ry au
 
        Potential amp.        0.0681 Ry
        Total length         44.9721 bohr
 

     total cpu time spent up to now is      850.9 secs

     total energy              =   -1781.48363674 Ry
     Harris-Foulkes estimate   =   -1781.48363927 Ry
     estimated scf accuracy    <       0.00005122 Ry

     iteration # 17     ecut=    36.75 Ry     beta=0.30
     Davidson diagonalization with overlap
     ethr =  3.16E-08,  avg # of iterations =  4.0

     negative rho (up, down):  1.561E-02 0.000E+00
 
     Adding external electric field

     Computed dipole along edir(3) : 
        Dipole               -0.2519 Ry au,         -0.6402 Debye
        Dipole field         -0.0008 Ry au
 
        Potential amp.        0.0685 Ry
        Total length         44.9721 bohr
 

     total cpu time spent up to now is      866.4 secs

     total energy              =   -1781.48363515 Ry
     Harris-Foulkes estimate   =   -1781.48363873 Ry
     estimated scf accuracy    <       0.00010094 Ry

     iteration # 18     ecut=    36.75 Ry     beta=0.30
     Davidson diagonalization with overlap
     ethr =  3.16E-08,  avg # of iterations =  4.2

     negative rho (up, down):  1.561E-02 0.000E+00
 
     Adding external electric field

     Computed dipole along edir(3) : 
        Dipole               -0.2517 Ry au,         -0.6397 Debye
        Dipole field         -0.0008 Ry au
 
        Potential amp.        0.0684 Ry
        Total length         44.9721 bohr
 

     total cpu time spent up to now is      882.4 secs

     total energy              =   -1781.48363880 Ry
     Harris-Foulkes estimate   =   -1781.48364065 Ry
     estimated scf accuracy    <       0.00002680 Ry

     iteration # 19     ecut=    36.75 Ry     beta=0.30
     Davidson diagonalization with overlap
     ethr =  1.65E-08,  avg # of iterations =  2.4

     negative rho (up, down):  1.561E-02 0.000E+00
 
     Adding external electric field

     Computed dipole along edir(3) : 
        Dipole               -0.2514 Ry au,         -0.6391 Debye
        Dipole field         -0.0008 Ry au
 
        Potential amp.        0.0683 Ry
        Total length         44.9721 bohr
 

     total cpu time spent up to now is      897.8 secs

     total energy              =   -1781.48363852 Ry
     Harris-Foulkes estimate   =   -1781.48363994 Ry
     estimated scf accuracy    <       0.00001240 Ry

     iteration # 20     ecut=    36.75 Ry     beta=0.30
     Davidson diagonalization with overlap
     ethr =  7.66E-09,  avg # of iterations =  4.0

     negative rho (up, down):  1.561E-02 0.000E+00

     negative rho (up, down):  1.561E-02 0.000E+00

     negative rho (up, down):  1.561E-02 0.000E+00

     negative rho (up, down):  1.561E-02 0.000E+00

     negative rho (up, down):  1.561E-02 0.000E+00

     negative rho (up, down):  1.561E-02 0.000E+00

     negative rho (up, down):  1.561E-02 0.000E+00

     negative rho (up, down):  1.561E-02 0.000E+00

     negative rho (up, down):  1.561E-02 0.000E+00

     negative rho (up, down):  1.561E-02 0.000E+00

     negative rho (up, down):  1.561E-02 0.000E+00

     negative rho (up, down):  1.561E-02 0.000E+00

     negative rho (up, down):  1.561E-02 0.000E+00

     negative rho (up, down):  1.561E-02 0.000E+00

     negative rho (up, down):  1.561E-02 0.000E+00

     negative rho (up, down):  1.561E-02 0.000E+00

     negative rho (up, down):  1.561E-02 0.000E+00

     negative rho (up, down):  1.561E-02 0.000E+00

     negative rho (up, down):  1.561E-02 0.000E+00

     negative rho (up, down):  1.561E-02 0.000E+00

     negative rho (up, down):  1.561E-02 0.000E+00

     negative rho (up, down):  1.561E-02 0.000E+00

     negative rho (up, down):  1.561E-02 0.000E+00

     negative rho (up, down):  1.561E-02 0.000E+00

     negative rho (up, down):  1.561E-02 0.000E+00

     negative rho (up, down):  1.561E-02 0.000E+00

     negative rho (up, down):  1.561E-02 0.000E+00

     negative rho (up, down):  1.561E-02 0.000E+00

     negative rho (up, down):  1.561E-02 0.000E+00

     negative rho (up, down):  1.561E-02 0.000E+00

     negative rho (up, down):  1.561E-02 0.000E+00

     negative rho (up, down):  1.561E-02 0.000E+00

     negative rho (up, down):  1.561E-02 0.000E+00

     negative rho (up, down):  1.561E-02 0.000E+00

     negative rho (up, down):  1.561E-02 0.000E+00
 
     Adding external electric field

     Computed dipole along edir(3) : 
        Dipole               -0.2516 Ry au,         -0.6395 Debye
        Dipole field         -0.0008 Ry au
 
        Potential amp.        0.0684 Ry
        Total length         44.9721 bohr
 

     total cpu time spent up to now is      956.7 secs

     End of self-consistent calculation

          k = 0.0000 0.0000 0.0000 ( 15569 PWs)   bands (ev):

   -63.6269 -63.5461 -63.5047 -63.4632 -63.4630 -63.4514 -63.4246 -63.3993
   -63.3990 -63.3687 -63.3683 -63.3682 -37.8152 -37.6717 -37.6716 -37.6342
   -37.6288 -37.6287 -37.6114 -37.5346 -37.5346 -37.5292 -37.5184 -37.3821
   -37.3348 -37.3347 -37.2445 -37.2444 -37.2434 -37.1966 -37.1650 -37.1650
   -37.1319 -37.1154 -37.1152 -37.1044 -37.0913 -37.0912 -37.0732 -37.0252
   -37.0251 -37.0184 -36.9954 -36.9953 -36.9583 -36.9583 -36.8973 -36.8973
   -16.7705  -5.3495  -3.7954  -3.0992  -3.0782  -3.0782  -2.6435  -2.2989
    -2.1958  -2.1957  -2.0415  -2.0415  -2.0094  -1.5963  -1.5963  -1.5898
    -1.4929  -1.4929  -1.4572  -0.7017  -0.4191  -0.4191   0.2420   0.3691
     0.4562   0.4563   0.5870   0.7413   0.8854   0.8854   0.9555   0.9556
     1.0449   1.0449   1.1182   1.1581   1.1581   1.1773   1.1774   1.2851
     1.5758   1.8439   1.8440

          k = 0.0000 0.0356 0.0000 ( 15635 PWs)   bands (ev):

   -63.6215 -63.5421 -63.5017 -63.4691 -63.4632 -63.4472 -63.4256 -63.4049
   -63.3991 -63.3734 -63.3682 -63.3682 -37.8115 -37.6499 -37.6397 -37.6148
   -37.6091 -37.6014 -37.5888 -37.5139 -37.5137 -37.5054 -37.4908 -37.3825
   -37.3485 -37.3419 -37.2475 -37.2429 -37.2415 -37.2087 -37.1839 -37.1606
   -37.1514 -37.1410 -37.1138 -37.1003 -37.0927 -37.0848 -37.0825 -37.0469
   -37.0397 -37.0280 -37.0192 -37.0011 -36.9903 -36.9668 -36.9355 -36.9053
   -16.7699  -5.1323  -3.6052  -3.0942  -3.0602  -3.0382  -2.4527  -2.2913
    -2.1413  -2.0929  -2.0795  -1.9332  -1.9019  -1.5115  -1.4554  -1.4220
    -1.3610  -1.3514  -1.3434  -0.6568  -0.4287  -0.4042   0.1783   0.3813
     0.4664   0.4967   0.5242   0.6417   0.7088   0.7223   0.8123   0.9749
     1.0200   1.0264   1.0906   1.0913   1.1421   1.1473   1.1992   1.3051
     1.3321   1.5904   1.6298

          k = 0.0000 0.0713 0.0000 ( 15669 PWs)   bands (ev):

   -63.6091 -63.5344 -63.4929 -63.4803 -63.4633 -63.4450 -63.4262 -63.4120
   -63.3991 -63.3860 -63.3685 -63.3681 -37.8040 -37.5956 -37.5790 -37.5672
   -37.5639 -37.5424 -37.5161 -37.4764 -37.4654 -37.4504 -37.4053 -37.3851
   -37.3648 -37.3553 -37.2593 -37.2562 -37.2391 -37.2283 -37.2250 -37.1895
   -37.1857 -37.1664 -37.1365 -37.1291 -37.1168 -37.1064 -37.0824 -37.0799
   -37.0718 -37.0643 -37.0635 -37.0321 -37.0175 -36.9912 -36.9856 -36.9273
   -16.7687  -4.5230  -3.2210  -3.1072  -3.0284  -2.8614  -2.6955  -2.0673
    -1.9265  -1.8628  -1.8310  -1.6675  -1.6293  -1.3224  -1.1384  -1.0819
    -1.0409  -0.9727  -0.9113  -0.5458  -0.3911  -0.3821  -0.1191   0.1191
     0.2119   0.2290   0.3110   0.4212   0.5479   0.6165   0.6487   0.6524
     0.7297   0.7766   0.7863   0.8895   1.0231   1.1280   1.1646   1.1721
     1.2286   1.3493   1.4229

          k = 0.0000-0.1069 0.0000 ( 15660 PWs)   bands (ev):

   -63.6020 -63.5305 -63.4947 -63.4718 -63.4633 -63.4588 -63.4221 -63.4041
   -63.4023 -63.3992 -63.3685 -63.3680 -37.8004 -37.5551 -37.5517 -37.5393
   -37.5324 -37.5115 -37.4748 -37.4364 -37.4314 -37.4170 -37.4054 -37.3840
   -37.3228 -37.3130 -37.2824 -37.2784 -37.2528 -37.2445 -37.2406 -37.2234
   -37.1885 -37.1742 -37.1727 -37.1679 -37.1642 -37.1608 -37.1144 -37.0832
   -37.0831 -37.0669 -37.0588 -37.0493 -37.0323 -37.0099 -36.9609 -36.9541
   -16.7681  -3.6945  -3.6521  -3.1224  -3.0142  -2.9685  -2.3191  -2.2879
    -1.6395  -1.6243  -1.5327  -1.5219  -1.4023  -1.3436  -0.8433  -0.8083
    -0.7502  -0.7183  -0.6557  -0.5717  -0.2497  -0.2394  -0.2051  -0.1784
    -0.0879  -0.0292   0.1180   0.2063   0.2570   0.3174   0.3679   0.4490
     0.5250   0.5906   0.6320   0.6679   0.8855   0.8921   0.9348   1.0732
     1.0872   1.4331   1.5979

          k = 0.0309-0.0178 0.0000 ( 15635 PWs)   bands (ev):

   -63.6215 -63.5421 -63.5017 -63.4691 -63.4632 -63.4472 -63.4257 -63.4045
   -63.3993 -63.3734 -63.3682 -63.3682 -37.8115 -37.6498 -37.6398 -37.6148
   -37.6091 -37.6015 -37.5888 -37.5139 -37.5137 -37.5053 -37.4908 -37.3825
   -37.3485 -37.3419 -37.2475 -37.2430 -37.2415 -37.2087 -37.1839 -37.1607
   -37.1513 -37.1411 -37.1138 -37.1003 -37.0927 -37.0848 -37.0824 -37.0469
   -37.0398 -37.0279 -37.0192 -37.0012 -36.9903 -36.9668 -36.9355 -36.9054
   -16.7699  -5.1323  -3.6052  -3.0942  -3.0602  -3.0382  -2.4527  -2.2913
    -2.1414  -2.0929  -2.0795  -1.9332  -1.9019  -1.5115  -1.4554  -1.4220
    -1.3610  -1.3514  -1.3434  -0.6568  -0.4287  -0.4042   0.1783   0.3813
     0.4663   0.4967   0.5242   0.6417   0.7088   0.7223   0.8123   0.9749
     1.0201   1.0264   1.0906   1.0912   1.1421   1.1474   1.1991   1.3051
     1.3321   1.5903   1.6298

          k = 0.0309 0.0178 0.0000 ( 15635 PWs)   bands (ev):

   -63.6215 -63.5421 -63.5017 -63.4693 -63.4631 -63.4472 -63.4256 -63.4046
   -63.3992 -63.3734 -63.3682 -63.3682 -37.8115 -37.6499 -37.6397 -37.6148
   -37.6091 -37.6014 -37.5888 -37.5139 -37.5137 -37.5053 -37.4908 -37.3825
   -37.3486 -37.3418 -37.2475 -37.2429 -37.2415 -37.2086 -37.1840 -37.1606
   -37.1514 -37.1411 -37.1138 -37.1003 -37.0927 -37.0848 -37.0824 -37.0469
   -37.0398 -37.0280 -37.0192 -37.0011 -36.9903 -36.9668 -36.9355 -36.9054
   -16.7699  -5.1323  -3.6052  -3.0942  -3.0602  -3.0382  -2.4527  -2.2913
    -2.1413  -2.0929  -2.0795  -1.9332  -1.9019  -1.5115  -1.4554  -1.4220
    -1.3610  -1.3514  -1.3435  -0.6568  -0.4287  -0.4042   0.1783   0.3813
     0.4663   0.4967   0.5242   0.6417   0.7088   0.7223   0.8123   0.9749
     1.0201   1.0264   1.0905   1.0913   1.1421   1.1474   1.1992   1.3051
     1.3321   1.5903   1.6298

          k = 0.0309 0.0535 0.0000 ( 15620 PWs)   bands (ev):

   -63.6125 -63.5361 -63.4946 -63.4800 -63.4623 -63.4428 -63.4253 -63.4156
   -63.3973 -63.3783 -63.3753 -63.3646 -37.8059 -37.6138 -37.5875 -37.5802
   -37.5741 -37.5572 -37.5437 -37.4856 -37.4831 -37.4518 -37.4395 -37.3844
   -37.3631 -37.3568 -37.2704 -37.2511 -37.2352 -37.2276 -37.2080 -37.1868
   -37.1598 -37.1435 -37.1283 -37.1181 -37.1143 -37.0973 -37.0847 -37.0797
   -37.0712 -37.0458 -37.0296 -37.0229 -37.0152 -37.0000 -36.9769 -36.9244
   -16.7690  -4.7176  -3.3035  -3.0834  -3.0407  -2.9330  -2.3533  -2.2918
    -2.0847  -1.9638  -1.9424  -1.8297  -1.5411  -1.3106  -1.2774  -1.1694
    -1.1321  -1.1142  -1.0529  -0.5749  -0.4370  -0.3747   0.0118   0.2351
     0.2956   0.3174   0.3843   0.4512   0.5195   0.6680   0.6941   0.7940
     0.8162   0.8302   0.8911   0.9979   1.0508   1.1331   1.2359   1.2754
     1.3284   1.3427   1.4042

          k = 0.0309-0.1248 0.0000 ( 15642 PWs)   bands (ev):

   -63.6024 -63.5283 -63.4966 -63.4770 -63.4620 -63.4496 -63.4279 -63.4134
   -63.3973 -63.3897 -63.3786 -63.3625 -37.8004 -37.5556 -37.5527 -37.5281
   -37.5223 -37.5048 -37.4759 -37.4473 -37.4374 -37.4134 -37.4003 -37.3709
   -37.3642 -37.3273 -37.3163 -37.2856 -37.2548 -37.2411 -37.2219 -37.2187
   -37.1940 -37.1878 -37.1697 -37.1469 -37.1374 -37.1262 -37.1019 -37.0954
   -37.0822 -37.0740 -37.0482 -37.0418 -37.0353 -37.0113 -36.9914 -36.9564
   -16.7681  -3.9747  -3.1977  -3.1115  -3.0297  -2.8865  -2.4632  -2.2673
    -2.0124  -1.7101  -1.4955  -1.4607  -1.2169  -1.1310  -0.9164  -0.8719
    -0.8184  -0.7569  -0.6669  -0.4355  -0.3853  -0.3131  -0.2446  -0.1337
    -0.0706   0.0120   0.0638   0.1745   0.2097   0.3373   0.3607   0.4168
     0.4937   0.5551   0.6140   0.7221   0.8464   0.9123   1.0644   1.1320
     1.1899   1.3943   1.4603

          k = 0.0309-0.0891 0.0000 ( 15642 PWs)   bands (ev):

   -63.6024 -63.5283 -63.4966 -63.4771 -63.4620 -63.4496 -63.4278 -63.4135
   -63.3971 -63.3898 -63.3786 -63.3625 -37.8004 -37.5556 -37.5527 -37.5281
   -37.5223 -37.5048 -37.4759 -37.4473 -37.4374 -37.4134 -37.4003 -37.3710
   -37.3642 -37.3274 -37.3163 -37.2856 -37.2547 -37.2411 -37.2219 -37.2187
   -37.1940 -37.1878 -37.1697 -37.1469 -37.1374 -37.1262 -37.1019 -37.0953
   -37.0822 -37.0741 -37.0482 -37.0417 -37.0353 -37.0113 -36.9914 -36.9564
   -16.7681  -3.9747  -3.1977  -3.1115  -3.0297  -2.8865  -2.4632  -2.2673
    -2.0124  -1.7101  -1.4955  -1.4607  -1.2169  -1.1310  -0.9164  -0.8719
[...]
     0.9918   1.0689   1.3877

          k = 0.0309-0.0535 0.0000 ( 15620 PWs)   bands (ev):

   -63.7779 -63.7367 -63.6876 -63.6731 -63.6574 -63.6338 -63.6305 -63.6222
   -63.6136 -63.6008 -63.5964 -63.5931 -37.9753 -37.8620 -37.8572 -37.8340
   -37.8109 -37.7562 -37.7530 -37.7223 -37.6925 -37.6507 -37.6471 -37.5877
   -37.5593 -37.5583 -37.4814 -37.4478 -37.4337 -37.4208 -37.4071 -37.3915
   -37.3721 -37.3588 -37.3322 -37.3171 -37.3075 -37.2979 -37.2909 -37.2785
   -37.2553 -37.2486 -37.2376 -37.2291 -37.2216 -37.1921 -37.1714 -37.1484
   -16.7046  -4.9591  -3.4235  -3.1482  -3.0188  -3.0066  -2.6201  -2.5214
    -2.3713  -2.2306  -2.1919  -2.1078  -1.8227  -1.5925  -1.5431  -1.4235
    -1.3691  -1.3342  -1.2459  -0.8295  -0.6522  -0.5840  -0.2242  -0.0181
    -0.0072   0.0196   0.1254   0.2005   0.3103   0.4153   0.4765   0.5293
     0.5782   0.6217   0.6722   0.7189   0.8037   0.8750   0.8987   1.0218
     1.0621   1.0929   1.1692

          k = 0.0617-0.0356 0.0000 ( 15669 PWs)   bands (ev):

   -63.7708 -63.7356 -63.6916 -63.6758 -63.6460 -63.6438 -63.6329 -63.6229
   -63.6095 -63.6046 -63.5972 -63.5925 -37.9750 -37.8521 -37.8406 -37.8270
   -37.7880 -37.7439 -37.7379 -37.7108 -37.6699 -37.6632 -37.6012 -37.5894
   -37.5754 -37.5559 -37.4830 -37.4314 -37.4303 -37.4297 -37.4131 -37.3965
   -37.3912 -37.3747 -37.3507 -37.3290 -37.3256 -37.3166 -37.2880 -37.2710
   -37.2690 -37.2620 -37.2463 -37.2422 -37.2041 -37.2021 -37.1809 -37.1469
   -16.7044  -4.7626  -3.2881  -3.1973  -3.0269  -2.9928  -2.8751  -2.3189
    -2.2244  -2.1701  -2.0760  -1.9138  -1.9030  -1.5872  -1.4303  -1.3498
    -1.2790  -1.2402  -1.1028  -0.8003  -0.6310  -0.5781  -0.3589  -0.1933
    -0.0943  -0.0557   0.0341   0.2115   0.2713   0.3133   0.3666   0.4605
     0.5163   0.5550   0.6156   0.6603   0.7334   0.8391   0.9168   0.9347
     0.9397   0.9924   1.1784

          k = 0.0617 0.0000 0.0000 ( 15620 PWs)   bands (ev):

   -63.7779 -63.7367 -63.6876 -63.6731 -63.6574 -63.6338 -63.6306 -63.6222
   -63.6136 -63.6008 -63.5964 -63.5931 -37.9753 -37.8621 -37.8571 -37.8340
   -37.8109 -37.7562 -37.7530 -37.7223 -37.6925 -37.6507 -37.6471 -37.5877
   -37.5593 -37.5583 -37.4814 -37.4477 -37.4337 -37.4208 -37.4071 -37.3915
   -37.3721 -37.3588 -37.3321 -37.3171 -37.3075 -37.2979 -37.2909 -37.2785
   -37.2553 -37.2486 -37.2376 -37.2291 -37.2216 -37.1921 -37.1714 -37.1484
   -16.7046  -4.9591  -3.4235  -3.1482  -3.0188  -3.0066  -2.6201  -2.5214
    -2.3713  -2.2306  -2.1919  -2.1078  -1.8227  -1.5925  -1.5431  -1.4235
    -1.3691  -1.3342  -1.2459  -0.8294  -0.6522  -0.5840  -0.2242  -0.0181
    -0.0072   0.0196   0.1254   0.2005   0.3103   0.4154   0.4765   0.5293
     0.5782   0.6217   0.6722   0.7189   0.8037   0.8750   0.8987   1.0219
     1.0621   1.0929   1.1692

          k = 0.0617 0.0356 0.0000 ( 15669 PWs)   bands (ev):

   -63.7708 -63.7356 -63.6916 -63.6758 -63.6460 -63.6438 -63.6329 -63.6229
   -63.6095 -63.6047 -63.5972 -63.5925 -37.9750 -37.8521 -37.8406 -37.8270
   -37.7880 -37.7439 -37.7379 -37.7108 -37.6699 -37.6633 -37.6013 -37.5894
   -37.5754 -37.5559 -37.4830 -37.4314 -37.4303 -37.4297 -37.4131 -37.3965
   -37.3912 -37.3747 -37.3507 -37.3290 -37.3256 -37.3166 -37.2879 -37.2710
   -37.2690 -37.2620 -37.2463 -37.2422 -37.2041 -37.2021 -37.1809 -37.1469
   -16.7044  -4.7626  -3.2881  -3.1973  -3.0269  -2.9928  -2.8751  -2.3189
    -2.2244  -2.1701  -2.0760  -1.9138  -1.9030  -1.5872  -1.4302  -1.3498
    -1.2790  -1.2402  -1.1028  -0.8003  -0.6310  -0.5781  -0.3589  -0.1933
    -0.0942  -0.0557   0.0341   0.2115   0.2714   0.3133   0.3666   0.4605
     0.5163   0.5549   0.6155   0.6602   0.7334   0.8391   0.9167   0.9348
     0.9398   0.9925   1.1784

          k = 0.0617-0.1426 0.0000 ( 15642 PWs)   bands (ev):

   -63.7535 -63.7327 -63.7006 -63.6746 -63.6603 -63.6401 -63.6281 -63.6217
   -63.6161 -63.6042 -63.5985 -63.5932 -37.9743 -37.8288 -37.8056 -37.7906
   -37.7450 -37.7134 -37.7088 -37.6815 -37.6521 -37.6191 -37.6030 -37.5901
   -37.5512 -37.5317 -37.5058 -37.4893 -37.4624 -37.4415 -37.4170 -37.4033
   -37.3973 -37.3864 -37.3744 -37.3568 -37.3393 -37.3327 -37.3149 -37.2893
   -37.2824 -37.2665 -37.2433 -37.2320 -37.2192 -37.2079 -37.1966 -37.1743
   -16.7039  -4.2076  -3.3787  -3.0562  -3.0349  -2.9838  -2.7200  -2.4967
    -2.2506  -1.9660  -1.8247  -1.7572  -1.5126  -1.4091  -1.2367  -1.1883
    -1.0802  -1.0087  -0.9046  -0.7433  -0.6348  -0.5928  -0.5213  -0.3934
    -0.3523  -0.2688  -0.1902  -0.0837  -0.0228   0.0390   0.1374   0.2056
     0.2835   0.3248   0.3825   0.4299   0.5473   0.7348   0.7978   0.9187
     0.9918   1.0689   1.3877

          k = 0.0617-0.1069 0.0000 ( 15672 PWs)   bands (ev):

   -63.7443 -63.7229 -63.7104 -63.6854 -63.6496 -63.6476 -63.6326 -63.6191
   -63.6094 -63.6058 -63.6044 -63.5924 -37.9741 -37.8138 -37.7783 -37.7639
   -37.7143 -37.6982 -37.6949 -37.6832 -37.6670 -37.5945 -37.5635 -37.5472
   -37.5448 -37.5270 -37.5260 -37.5014 -37.4987 -37.4891 -37.4779 -37.4124
   -37.3972 -37.3922 -37.3884 -37.3430 -37.3397 -37.3334 -37.3037 -37.2739
   -37.2685 -37.2650 -37.2502 -37.2500 -37.2396 -37.2143 -37.2058 -37.1995
   -16.7036  -3.5271  -3.3818  -3.3779  -3.0072  -2.9996  -2.9224  -2.2402
    -2.1994  -2.1247  -1.5544  -1.3645  -1.3136  -1.2883  -1.2091  -1.2031
    -0.9371  -0.8261  -0.8125  -0.7817  -0.7460  -0.6233  -0.6081  -0.5878
    -0.4378  -0.3893  -0.3506  -0.1770  -0.1454  -0.1034  -0.0648   0.0469
     0.0836   0.1576   0.1953   0.2682   0.3348   0.8204   0.9411   1.0086
     1.0535   1.1393   1.3244

          k = 0.0617-0.0713 0.0000 ( 15642 PWs)   bands (ev):

   -63.7535 -63.7327 -63.7006 -63.6746 -63.6603 -63.6401 -63.6281 -63.6217
   -63.6161 -63.6042 -63.5985 -63.5932 -37.9743 -37.8288 -37.8056 -37.7906
   -37.7450 -37.7134 -37.7088 -37.6815 -37.6521 -37.6191 -37.6030 -37.5900
   -37.5512 -37.5317 -37.5058 -37.4893 -37.4624 -37.4415 -37.4170 -37.4033
   -37.3973 -37.3864 -37.3744 -37.3568 -37.3393 -37.3327 -37.3149 -37.2893
   -37.2824 -37.2665 -37.2433 -37.2320 -37.2192 -37.2079 -37.1966 -37.1743
   -16.7039  -4.2076  -3.3787  -3.0562  -3.0349  -2.9839  -2.7200  -2.4967
    -2.2506  -1.9660  -1.8247  -1.7572  -1.5126  -1.4091  -1.2368  -1.1883
    -1.0802  -1.0087  -0.9045  -0.7433  -0.6348  -0.5928  -0.5213  -0.3934
    -0.3523  -0.2689  -0.1902  -0.0838  -0.0228   0.0390   0.1374   0.2056
     0.2835   0.3248   0.3825   0.4299   0.5473   0.7349   0.7978   0.9187
     0.9918   1.0689   1.3877

          k =-0.0926 0.0535 0.0000 ( 15660 PWs)   bands (ev):

   -63.7489 -63.7368 -63.7084 -63.6618 -63.6565 -63.6462 -63.6363 -63.6180
   -63.6106 -63.6095 -63.5984 -63.5924 -37.9743 -37.8282 -37.8064 -37.7990
   -37.7519 -37.7125 -37.7071 -37.6591 -37.6455 -37.6318 -37.6271 -37.6114
   -37.5279 -37.4899 -37.4786 -37.4504 -37.4469 -37.4457 -37.4393 -37.4185
   -37.4101 -37.3945 -37.3835 -37.3664 -37.3660 -37.3580 -37.3183 -37.2962
   -37.2806 -37.2666 -37.2350 -37.2220 -37.2201 -37.2139 -37.1810 -37.1641
   -16.7039  -3.9134  -3.8906  -3.0749  -3.0502  -2.9788  -2.5938  -2.4971
    -1.9330  -1.8530  -1.8478  -1.7785  -1.7295  -1.5817  -1.1776  -1.1479
    -1.0635  -0.9228  -0.9138  -0.8134  -0.5748  -0.5536  -0.4257  -0.4094
    -0.3814  -0.3618  -0.1243  -0.0227   0.0532   0.0735   0.1314   0.1771
     0.2109   0.3340   0.3799   0.4675   0.5950   0.6873   0.7126   0.8567
     0.9892   1.0221   1.4575

          k =-0.0926 0.0891 0.0000 ( 15642 PWs)   bands (ev):

   -63.7535 -63.7327 -63.7006 -63.6746 -63.6603 -63.6401 -63.6281 -63.6217
   -63.6162 -63.6042 -63.5985 -63.5932 -37.9743 -37.8288 -37.8056 -37.7906
   -37.7450 -37.7134 -37.7088 -37.6815 -37.6521 -37.6191 -37.6030 -37.5900
   -37.5512 -37.5317 -37.5058 -37.4893 -37.4624 -37.4415 -37.4170 -37.4033
   -37.3973 -37.3864 -37.3744 -37.3568 -37.3393 -37.3327 -37.3149 -37.2893
   -37.2824 -37.2665 -37.2433 -37.2320 -37.2192 -37.2079 -37.1966 -37.1743
   -16.7039  -4.2076  -3.3787  -3.0562  -3.0349  -2.9839  -2.7200  -2.4967
    -2.2506  -1.9660  -1.8247  -1.7572  -1.5126  -1.4091  -1.2368  -1.1883
    -1.0802  -1.0087  -0.9045  -0.7433  -0.6348  -0.5928  -0.5213  -0.3934
    -0.3523  -0.2689  -0.1902  -0.0838  -0.0228   0.0390   0.1374   0.2056
     0.2835   0.3248   0.3825   0.4299   0.5473   0.7349   0.7978   0.9187
     0.9918   1.0689   1.3877

          k =-0.0926 0.1248 0.0000 ( 15642 PWs)   bands (ev):

   -63.7535 -63.7327 -63.7006 -63.6746 -63.6603 -63.6401 -63.6281 -63.6217
   -63.6162 -63.6042 -63.5985 -63.5932 -37.9743 -37.8288 -37.8056 -37.7906
   -37.7450 -37.7134 -37.7088 -37.6815 -37.6521 -37.6191 -37.6030 -37.5900
   -37.5512 -37.5317 -37.5058 -37.4893 -37.4624 -37.4415 -37.4170 -37.4033
   -37.3973 -37.3864 -37.3744 -37.3568 -37.3393 -37.3327 -37.3149 -37.2893
   -37.2824 -37.2665 -37.2433 -37.2320 -37.2192 -37.2079 -37.1966 -37.1743
   -16.7039  -4.2076  -3.3787  -3.0562  -3.0349  -2.9839  -2.7200  -2.4967
    -2.2506  -1.9660  -1.8247  -1.7572  -1.5126  -1.4091  -1.2367  -1.1883
    -1.0802  -1.0087  -0.9046  -0.7433  -0.6348  -0.5928  -0.5213  -0.3934
    -0.3523  -0.2688  -0.1902  -0.0837  -0.0228   0.0390   0.1374   0.2056
     0.2835   0.3248   0.3825   0.4299   0.5473   0.7348   0.7978   0.9187
     0.9918   1.0689   1.3877

          k =-0.0926-0.0535 0.0000 ( 15660 PWs)   bands (ev):

   -63.7490 -63.7368 -63.7084 -63.6618 -63.6565 -63.6462 -63.6362 -63.6180
   -63.6107 -63.6095 -63.5984 -63.5923 -37.9743 -37.8282 -37.8063 -37.7990
   -37.7519 -37.7126 -37.7071 -37.6591 -37.6456 -37.6318 -37.6271 -37.6114
   -37.5279 -37.4899 -37.4786 -37.4504 -37.4469 -37.4457 -37.4393 -37.4185
   -37.4101 -37.3946 -37.3835 -37.3664 -37.3660 -37.3580 -37.3183 -37.2962
   -37.2806 -37.2666 -37.2350 -37.2220 -37.2201 -37.2139 -37.1810 -37.1641
   -16.7039  -3.9134  -3.8906  -3.0749  -3.0502  -2.9788  -2.5938  -2.4971
    -1.9330  -1.8530  -1.8478  -1.7785  -1.7295  -1.5818  -1.1775  -1.1479
    -1.0636  -0.9228  -0.9138  -0.8134  -0.5748  -0.5536  -0.4257  -0.4094
    -0.3814  -0.3618  -0.1243  -0.0227   0.0532   0.0735   0.1314   0.1771
     0.2109   0.3339   0.3799   0.4675   0.5949   0.6873   0.7126   0.8567
     0.9892   1.0222   1.4575

     the Fermi energy is     0.4907 ev

!    total energy              =   -1781.49543519 Ry
     Harris-Foulkes estimate   =   -1781.49543830 Ry
     estimated scf accuracy    <       0.00000009 Ry

     The total energy is the sum of the following terms:

     one-electron contribution =  -15350.86865225 Ry
     hartree contribution      =    7662.92332699 Ry
     xc contribution           =    -251.89212527 Ry
     ewald contribution        =    6158.48348999 Ry
     electric field correction =       0.00047192 Ry
     smearing contrib. (-TS)   =      -0.14194656 Ry

     convergence has been achieved in  14 iterations
 
 BEEF-vdW xc energy contributions
           1 :   -217.012881192890     
           2 :    194.593198853860     
           3 :   -157.645641627002     
           4 :    117.809683958173     
           5 :   -85.1209539132394     
           6 :    64.3195969593207     
           7 :   -54.2796900116331     
           8 :    50.2256891276363     
           9 :   -47.0852462194526     
          10 :    42.0557868989706     
          11 :   -35.2777853127365     
          12 :    28.7117393044587     
          13 :   -24.2780511051657     
          14 :    22.5042214545034     
          15 :   -22.3716974010051     
          16 :    22.2042648875096     
          17 :   -20.8525377923117     
          18 :    18.3517606092903     
          19 :   -15.6919405305414     
          20 :    13.9751256223993     
          21 :   -13.6159689629008     
          22 :    14.1195599515582     
          23 :   -14.5108223719091     
          24 :    14.0403285040095     
          25 :   -12.6625216217140     
          26 :    10.9897506040829     
          27 :   -9.80785783574544     
          28 :    9.52442448015918     
          29 :   -9.92875773882798     
          30 :    10.3914440491033     
          31 :   -22.5100356454951     
          32 :   -16.1891614535554     

     Forces acting on atoms (Ry/au):


     negative rho (up, down):  1.539E-02 0.000E+00
     atom    1 type  1   force =    -0.00080793   -0.00046684    0.00166574
     atom    2 type  1   force =     0.00080814   -0.00046700    0.00166556
     atom    3 type  1   force =    -0.00000031    0.00093232    0.00166175
     atom    4 type  1   force =    -0.00000044    0.00000013    0.00223725
     atom    5 type  1   force =    -0.00000022   -0.01077690    0.00206115
     atom    6 type  1   force =    -0.00000034    0.00001275   -0.01651686
     atom    7 type  1   force =     0.00934298    0.00538080    0.00204041
     atom    8 type  1   force =    -0.00934264    0.00538026    0.00203905
     atom    9 type  1   force =    -0.00000141    0.00000006   -0.00032122
     atom   10 type  1   force =     0.00000025    0.00065876    0.00053822
     atom   11 type  1   force =     0.00057011   -0.00032710    0.00054160
     atom   12 type  1   force =    -0.00056856   -0.00032617    0.00053900
     atom   13 type  2   force =     0.00000038   -0.00000105    0.00184834

     Total force =     0.002385     Total SCF correction =     0.000232


     entering subroutine stress ...


     negative rho (up, down):  1.539E-02 0.000E+00
          total   stress  (Ry/bohr**3)                   (kbar)     P=  -10.34
  -0.00010031   0.00000000   0.00000000        -14.76      0.00      0.00
   0.00000000  -0.00010032   0.00000000          0.00    -14.76      0.00
   0.00000000   0.00000000  -0.00001032          0.00      0.00     -1.52


     bfgs converged in  14 scf cycles and  13 bfgs steps
     (criteria: energy <  1.0E+00, force <  1.9E-03)

     End of BFGS Geometry Optimization

     Final energy   =   -1781.4954351938 Ry
Begin final coordinates

ATOMIC_POSITIONS (crystal)
V1       0.166666667   0.166666667   0.409694847    0   0   0
V1       0.666666667   0.166666667   0.409694847    0   0   0
V1       0.166666667   0.666666667   0.409694847    0   0   0
V1       0.666666667   0.666666667   0.409694847    0   0   0
V1       0.833333333   0.333333333   0.500000000    0   0   0
V1       0.333333333   0.333333333   0.500000000    0   0   0
V1       0.833333333   0.833333333   0.500000000    0   0   0
V1       0.333333333   0.833333333   0.500000000    0   0   0
V1       0.000000789   0.000000549   0.603389704
V1       0.498861465   0.002277322   0.583927037
V1       0.002268785   0.498866940   0.583931634
V1       0.498861903   0.498865066   0.583928851
O1       0.000003560  -0.000003966   0.669836775
End final coordinates



     Writing output data file calc.save
 
     init_run     :      8.34s CPU      8.58s WALL (       1 calls)
     electrons    :   5377.44s CPU   5798.69s WALL (      14 calls)
     update_pot   :     29.83s CPU     31.26s WALL (      13 calls)
     forces       :    175.75s CPU    191.58s WALL (      14 calls)
     stress       :    562.49s CPU    594.98s WALL (      14 calls)

     Called by init_run:
     wfcinit      :      2.94s CPU      2.99s WALL (       1 calls)
     potinit      :      1.51s CPU      1.57s WALL (       1 calls)

     Called by electrons:
     c_bands      :   2291.52s CPU   2411.85s WALL (     291 calls)
     sum_band     :   1095.36s CPU   1197.89s WALL (     291 calls)
     v_of_rho     :    382.18s CPU    410.95s WALL (     304 calls)
     newd         :    940.23s CPU    968.73s WALL (     304 calls)
     mix_rho      :     14.83s CPU     15.29s WALL (     291 calls)
     vdW_energy   :    156.44s CPU    171.89s WALL (     808 calls)
     vdW_ffts     :    326.41s CPU    341.99s WALL (    1644 calls)
     vdW_v        :    134.67s CPU    139.51s WALL (     808 calls)

     Called by c_bands:
     init_us_2    :     15.25s CPU     15.34s WALL (    3055 calls)
     cegterg      :   2086.07s CPU   2130.53s WALL (    1455 calls)

     Called by *egterg:
     h_psi        :   1293.20s CPU   1327.41s WALL (    7269 calls)
     s_psi        :    133.35s CPU    133.76s WALL (    7269 calls)
     g_psi        :      8.25s CPU      8.33s WALL (    5809 calls)
     cdiaghg      :    244.77s CPU    246.47s WALL (    7194 calls)

     Called by h_psi:
     add_vuspsi   :    137.67s CPU    138.19s WALL (    7269 calls)

     General routines
     calbec       :    207.04s CPU    211.16s WALL (    8864 calls)
     fft          :    529.74s CPU    578.82s WALL (   49523 calls)
     ffts         :      0.85s CPU      0.93s WALL (     595 calls)
     fftw         :    756.08s CPU    791.09s WALL (  800633 calls)
     interpolate  :      7.91s CPU      8.14s WALL (     595 calls)
     davcio       :      0.00s CPU      0.02s WALL (       5 calls)
 
     Parallel routines
     fft_scatter  :    763.80s CPU    842.75s WALL (  850751 calls)
 
     PWSCF        :     1h43m CPU        1h51m WALL

 
   This run was terminated on:  19:40:28   2May2018            

=------------------------------------------------------------------------------=
   JOB DONE.
=------------------------------------------------------------------------------=
Job  /afs/slac/g/suncat/bin/suncat-tsmpirun -x LD_LIBRARY_PATH -wdir /scratch/qe820033_1BUNz pw.x -npool 4 -in pw.inp

TID   HOST_NAME   COMMAND_LINE            STATUS            TERMINATION_TIME
===== ========== ================  =======================  ===================
00000 suncat0010 pw.x -npool 4 -i  Done                     05/02/2018 19:40:28
00001 suncat0010 pw.x -npool 4 -i  Done                     05/02/2018 19:40:28
00002 suncat0010 pw.x -npool 4 -i  Done                     05/02/2018 19:40:28
00003 suncat0010 pw.x -npool 4 -i  Done                     05/02/2018 19:40:28
00004 suncat0010 pw.x -npool 4 -i  Done                     05/02/2018 19:40:28
00005 suncat0010 pw.x -npool 4 -i  Done                     05/02/2018 19:40:28
00006 suncat0010 pw.x -npool 4 -i  Done                     05/02/2018 19:40:28
00007 suncat0010 pw.x -npool 4 -i  Done                     05/02/2018 19:40:28
00008 suncat0191 pw.x -npool 4 -i  Done                     05/02/2018 19:40:28
00009 suncat0191 pw.x -npool 4 -i  Done                     05/02/2018 19:40:28
00010 suncat0191 pw.x -npool 4 -i  Done                     05/02/2018 19:40:28
00011 suncat0191 pw.x -npool 4 -i  Done                     05/02/2018 19:40:28
00012 suncat0191 pw.x -npool 4 -i  Done                     05/02/2018 19:40:28
00013 suncat0191 pw.x -npool 4 -i  Done                     05/02/2018 19:40:28
00014 suncat0191 pw.x -npool 4 -i  Done                     05/02/2018 19:40:28
00015 suncat0191 pw.x -npool 4 -i  Done                     05/02/2018 19:40:28
00016 suncat0143 pw.x -npool 4 -i  Done                     05/02/2018 19:40:28
00017 suncat0143 pw.x -npool 4 -i  Done                     05/02/2018 19:40:28
00018 suncat0143 pw.x -npool 4 -i  Done                     05/02/2018 19:40:28
00019 suncat0143 pw.x -npool 4 -i  Done                     05/02/2018 19:40:28
00020 suncat0143 pw.x -npool 4 -i  Done                     05/02/2018 19:40:28
00021 suncat0143 pw.x -npool 4 -i  Done                     05/02/2018 19:40:28
00022 suncat0143 pw.x -npool 4 -i  Done                     05/02/2018 19:40:28
00023 suncat0143 pw.x -npool 4 -i  Done                     05/02/2018 19:40:28
00024 suncat0279 pw.x -npool 4 -i  Done                     05/02/2018 19:40:28
00025 suncat0279 pw.x -npool 4 -i  Done                     05/02/2018 19:40:28
00026 suncat0279 pw.x -npool 4 -i  Done                     05/02/2018 19:40:28
00027 suncat0279 pw.x -npool 4 -i  Done                     05/02/2018 19:40:28
00028 suncat0279 pw.x -npool 4 -i  Done                     05/02/2018 19:40:28
00029 suncat0279 pw.x -npool 4 -i  Done                     05/02/2018 19:40:28
00030 suncat0279 pw.x -npool 4 -i  Done                     05/02/2018 19:40:28
00031 suncat0279 pw.x -npool 4 -i  Done                     05/02/2018 19:40:28
