  python dir          : /nfs/slac/g/suncatfs/sw/espv20/lib/python2.7/site-packages/espresso
  espresso dir        : /nfs/slac/g/suncatfs/sw/espv18/espresso-dynpy-beef/bin
  pseudo dir          : /afs/slac.stanford.edu/u/if/mamunm/psp/gbrv1.5pbe
  ase-espresso py git : ffa2778-git



     Program PWSCF v.5.1rc2 (svn rev. 11289) starts on 15Jan2018 at  7:16:35 

     This program is part of the open-source Quantum ESPRESSO suite
     for quantum simulation of materials; please cite
         "P. Giannozzi et al., J. Phys.:Condens. Matter 21 395502 (2009);
          URL http://www.quantum-espresso.org", 
     in publications or presentations arising from this work. More details at
     http://www.quantum-espresso.org/quote

     Parallel version (MPI), running on    32 processors
     R & G space division:  proc/nbgrp/npool/nimage =      32
     Reading input from pw.inp
     Message from routine read_cards :
     DEPRECATED: no units specified in CELL_PARAMETERS card

     Current dimensions of program PWSCF are:
     Max number of different atomic species (ntypx) = 10
     Max number of k-points (npk) =  40000
     Max angular momentum in pseudopotentials (lmaxx) =  3
     Presently stress not available with electric field


     **************************************************************************
     Initializing libbeef V0.1.1 with the BEEF-vdW functional.
     Citation: Wellendorff et al., PRB 85, 235149 (2012).
     **************************************************************************


     IMPORTANT: XC functional enforced from input :
     Exchange-correlation      = BEEF-VDW ( 1  4 27 13 2)
     Any further DFT definition will be discarded
     Please, verify this is what you really want


     Subspace diagonalization in iterative solution of the eigenvalue problem:
     a serial algorithm will be used

 
     Parallelization info
     --------------------
     sticks:   dense  smooth     PW     G-vecs:    dense   smooth      PW
     Min          84      33      9                16000     4018     623
     Max          85      34     10                16029     4064     652
     Sum        2713    1075    313               512659   129281   20533
 


     bravais-lattice index     =            0
     lattice parameter (alat)  =       1.8897  a.u.
     unit-cell volume          =    4306.9643 (a.u.)^3
     number of atoms/cell      =           13
     number of atomic types    =            2
     number of electrons       =       186.00
     number of Kohn-Sham states=          103
     kinetic-energy cutoff     =      36.7493  Ry
     charge density cutoff     =     367.4932  Ry
     convergence threshold     =      1.0E-05
     mixing beta               =       0.3000
     number of iterations used =           10  plain     mixing
     Exchange-correlation      = BEEF-VDW ( 1  4 27 13 2)
     nstep                     =           50


     celldm(1)=   1.889726  celldm(2)=   0.000000  celldm(3)=   0.000000
     celldm(4)=   0.000000  celldm(5)=   0.000000  celldm(6)=   0.000000

     crystal axes: (cart. coord. in units of alat)
               a(1) = (   5.486772   0.000000   0.000000 )  
               a(2) = (   2.743386   4.751684   0.000000 )  
               a(3) = (   0.000000   0.000000  24.479931 )  

     reciprocal axes: (cart. coord. in units 2 pi/alat)
               b(1) = (  0.182257 -0.105226  0.000000 )  
               b(2) = (  0.000000  0.210452  0.000000 )  
               b(3) = (  0.000000  0.000000  0.040850 )  


     PseudoPot. # 1 for Re read from file:
     /afs/slac.stanford.edu/u/if/mamunm/psp/gbrv1.5pbe/Re.UPF
     MD5 check sum: 85f993410f3e006da9d71c142b4ad953
     Pseudo is Ultrasoft + core correction, Zval = 15.0
     Generated by new atomic code, or converted to UPF format
     Using radial grid of  981 points,  8 beta functions with: 
                l(1) =   0
                l(2) =   0
                l(3) =   1
                l(4) =   1
                l(5) =   2
                l(6) =   2
                l(7) =   3
                l(8) =   3
     Q(r) pseudized with  8 coefficients,  rinner =    1.150   1.150   1.150
                                                       1.150   1.150   1.150
                                                       1.150

     PseudoPot. # 2 for O  read from file:
     /afs/slac.stanford.edu/u/if/mamunm/psp/gbrv1.5pbe/O.UPF
     MD5 check sum: 734c27235a0248c51dbae37a1fbe46ec
     Pseudo is Ultrasoft + core correction, Zval =  6.0
     Generated by new atomic code, or converted to UPF format
     Using radial grid of  737 points,  5 beta functions with: 
                l(1) =   0
                l(2) =   0
                l(3) =   1
                l(4) =   1
                l(5) =   2
     Q(r) pseudized with  8 coefficients,  rinner =    0.900   0.900   0.900
                                                       0.900   0.900

     vdW kernel table read from file vdW_kernel_table
     MD5 check sum: 095c7af220d748ca6e76c0b4c6cfb241

     atomic species   valence    mass     pseudopotential
        Re1           15.00   186.20700     Re( 1.00)
        O1             6.00    15.99900     O ( 1.00)

     No symmetry found



   Cartesian axes

     site n.     atom                  positions (alat units)
         1           Re1 tau(   1) = (   1.3716930   0.7919474  10.0000000  )
         2           Re1 tau(   2) = (   4.1150791   0.7919474  10.0000000  )
         3           Re1 tau(   3) = (   2.7433861   3.1677894  10.0000000  )
         4           Re1 tau(   4) = (   5.4867722   3.1677894  10.0000000  )
         5           Re1 tau(   5) = (   5.4867722   1.5838947  12.2399654  )
         6           Re1 tau(   6) = (   2.7433861   1.5838947  12.2399654  )
         7           Re1 tau(   7) = (   6.8584652   3.9597368  12.2399654  )
         8           Re1 tau(   8) = (   4.1150791   3.9597368  12.2399654  )
         9           Re1 tau(   9) = (   0.0000000   0.0000000  14.4799307  )
        10           Re1 tau(  10) = (   2.7433861   0.0000000  14.4799307  )
        11           Re1 tau(  11) = (   1.3716930   2.3758421  14.4799307  )
        12           Re1 tau(  12) = (   4.1150791   2.3758421  14.4799307  )
        13           O1  tau(  13) = (   2.7433861   1.5838947  16.6499307  )

     number of k points=    20  Fermi-Dirac smearing, width (Ry)=  0.0110
                       cart. coord. in units 2pi/alat
        k(    1) = (   0.0000000   0.0000000   0.0000000), wk =   0.0555556
        k(    2) = (   0.0000000   0.0350753   0.0000000), wk =   0.1111111
        k(    3) = (   0.0000000   0.0701506   0.0000000), wk =   0.1111111
        k(    4) = (   0.0000000  -0.1052259   0.0000000), wk =   0.0555556
        k(    5) = (   0.0303761  -0.0175376   0.0000000), wk =   0.1111111
        k(    6) = (   0.0303761   0.0175376   0.0000000), wk =   0.1111111
        k(    7) = (   0.0303761   0.0526129   0.0000000), wk =   0.1111111
        k(    8) = (   0.0303761  -0.1227635   0.0000000), wk =   0.1111111
        k(    9) = (   0.0303761  -0.0876882   0.0000000), wk =   0.1111111
        k(   10) = (   0.0303761  -0.0526129   0.0000000), wk =   0.1111111
        k(   11) = (   0.0607522  -0.0350753   0.0000000), wk =   0.1111111
        k(   12) = (   0.0607522   0.0000000   0.0000000), wk =   0.1111111
        k(   13) = (   0.0607522   0.0350753   0.0000000), wk =   0.1111111
        k(   14) = (   0.0607522  -0.1403011   0.0000000), wk =   0.1111111
        k(   15) = (   0.0607522  -0.1052259   0.0000000), wk =   0.1111111
        k(   16) = (   0.0607522  -0.0701506   0.0000000), wk =   0.1111111
        k(   17) = (  -0.0911283   0.0526129   0.0000000), wk =   0.0555556
        k(   18) = (  -0.0911283   0.0876882   0.0000000), wk =   0.1111111
        k(   19) = (  -0.0911283   0.1227635   0.0000000), wk =   0.1111111
        k(   20) = (  -0.0911283  -0.0526129   0.0000000), wk =   0.0555556

     Dense  grid:   512659 G-vectors     FFT dimensions: (  64,  64, 288)

     Smooth grid:   129281 G-vectors     FFT dimensions: (  45,  45, 180)

     Largest allocated arrays     est. size (Mb)     dimensions
        Kohn-Sham Wavefunctions         0.81 Mb     (     516,  103)
        NL pseudopotentials             3.13 Mb     (     516,  397)
        Each V/rho on FFT grid          0.56 Mb     (   36864)
        Each G-vector array             0.12 Mb     (   16029)
        G-vector shells                 0.06 Mb     (    7603)
     Largest temporary arrays     est. size (Mb)     dimensions
        Auxiliary wavefunctions         3.24 Mb     (     516,  412)
        Each subspace H/S matrix        2.59 Mb     (     412,  412)
        Each <psi_i|beta_j> matrix      0.62 Mb     (     397,  103)
        Arrays for rho mixing           5.62 Mb     (   36864,   10)

     Initial potential from superposition of free atoms
     Check: negative starting charge=   -1.539739

     starting charge  179.99946, renormalised to  186.00000

     negative rho (up, down):  1.591E+00 0.000E+00


     ************************************************************************
     *
     * You are using vdW-DF for exchange-correlation in this calculation.
     * Please cite the following three references that made this development
     * possible:
     *
     *   M. Dion, H. Rydberg, E. Schroder, D. C. Langreth, and
     *   B. I. Lundqvist, Phys. Rev. Lett. 92, 246401 (2004).
     *
     *   T. Thonhauser, V. R. Cooper, S. Li, A. Puzder, P. Hyldgaard, and
     *   D. C. Langreth, Phys. Rev. B 76, 125112 (2007).
     *
     *   G. Roman-Perez and J. M. Soler, Phys. Rev. Lett. 103, 096102 (2009).
     *
     *
     * If you are using vdW-DF2, please also cite:
     *
     *   K. Lee, E. D. Murray, L. Kong, B. I. Lundqvist, and
     *   D. C. Langreth, Phys. Rev. B 82, 081101(R) (2010).
     *
     *
     * If you are calculating the stress with vdW-DF, please also cite:
     *
     *   R. Sabatini, E. Kucukbenli, B. Kolb, T. Thonhauser, and
     *   S. de Gironcoli, J. Phys.: Condens. Matter 24, 424209 (2012).
     *
     ************************************************************************

     Carrying out vdW-DF run using the following parameters:

     Nqs =      20    Nr_points =    1024   r_max =   100.000
     q_mesh =
               0.00001000     0.04494208     0.09755937     0.15916263
               0.23128650     0.31572767     0.41458969     0.53033537
               0.66584808     0.82450364     1.01025438     1.22772762
               1.48234092     1.78043706     2.12944203     2.53805004
               3.01644009     3.57652955     4.23227104     5.00000000

     Gradients computed in reciprocal space

     ************************************************************************


 
     Adding external electric field

     Computed dipole along edir(3) : 
        Dipole               -1.6669 Ry au,         -4.2368 Debye
        Dipole field         -0.0049 Ry au
 
        Potential amp.        0.4387 Ry
        Total length         45.1039 bohr
 
     Starting wfc are  160 randomized atomic wfcs

     total cpu time spent up to now is       20.8 secs

     per-process dynamical memory:    50.0 Mb

     Self-consistent Calculation

     iteration #  1     ecut=    36.75 Ry     beta=0.30
     Davidson diagonalization with overlap
     ethr =  1.00E-02,  avg # of iterations =  2.0

     negative rho (up, down):  1.601E+00 0.000E+00
 
     Adding external electric field

     Computed dipole along edir(3) : 
        Dipole               22.7970 Ry au,         57.9441 Debye
        Dipole field          0.0665 Ry au
 
        Potential amp.       -6.0001 Ry
        Total length         45.1039 bohr
 

     total cpu time spent up to now is       57.7 secs

     total energy              =   -2301.14441362 Ry
     Harris-Foulkes estimate   =   -2338.50268595 Ry
     estimated scf accuracy    <      77.16165201 Ry

     iteration #  2     ecut=    36.75 Ry     beta=0.30
     Davidson diagonalization with overlap
     ethr =  1.00E-02,  avg # of iterations = 11.8

     negative rho (up, down):  1.596E+00 0.000E+00
 
     Adding external electric field

     Computed dipole along edir(3) : 
        Dipole               -4.0629 Ry au,        -10.3269 Debye
        Dipole field         -0.0119 Ry au
 
        Potential amp.        1.0693 Ry
        Total length         45.1039 bohr
 

     total cpu time spent up to now is      158.8 secs

     total energy              =   -2184.54309736 Ry
     Harris-Foulkes estimate   =   -2586.31212313 Ry
     estimated scf accuracy    <    9746.98347257 Ry

     iteration #  3     ecut=    36.75 Ry     beta=0.30
     Davidson diagonalization with overlap
     ethr =  1.00E-02,  avg # of iterations =  8.5

     negative rho (up, down):  1.596E+00 0.000E+00
 
     Adding external electric field

     Computed dipole along edir(3) : 
        Dipole               -2.4467 Ry au,         -6.2190 Debye
        Dipole field         -0.0071 Ry au
 
        Potential amp.        0.6440 Ry
        Total length         45.1039 bohr
 

     total cpu time spent up to now is      236.4 secs

     total energy              =   -2327.68239597 Ry
     Harris-Foulkes estimate   =   -2370.04813990 Ry
     estimated scf accuracy    <     861.57145054 Ry

     iteration #  4     ecut=    36.75 Ry     beta=0.30
     Davidson diagonalization with overlap
     ethr =  1.00E-02,  avg # of iterations =  6.5

     negative rho (up, down):  1.603E+00 0.000E+00
 
     Adding external electric field

     Computed dipole along edir(3) : 
        Dipole               -1.7669 Ry au,         -4.4909 Debye
        Dipole field         -0.0052 Ry au
 
        Potential amp.        0.4650 Ry
        Total length         45.1039 bohr
 

     total cpu time spent up to now is      294.6 secs

     total energy              =   -2337.83467262 Ry
     Harris-Foulkes estimate   =   -2339.46728305 Ry
     estimated scf accuracy    <      41.50159175 Ry

     iteration #  5     ecut=    36.75 Ry     beta=0.30
     Davidson diagonalization with overlap
     ethr =  1.00E-02,  avg # of iterations =  1.0

     negative rho (up, down):  1.608E+00 0.000E+00
 
     Adding external electric field

     Computed dipole along edir(3) : 
        Dipole               -1.8456 Ry au,         -4.6911 Debye
        Dipole field         -0.0054 Ry au
 
        Potential amp.        0.4858 Ry
        Total length         45.1039 bohr
 

     total cpu time spent up to now is      326.6 secs

     total energy              =   -2338.07897663 Ry
     Harris-Foulkes estimate   =   -2338.40219802 Ry
     estimated scf accuracy    <       9.79583918 Ry

     iteration #  6     ecut=    36.75 Ry     beta=0.30
     Davidson diagonalization with overlap
     ethr =  5.27E-03,  avg # of iterations =  1.0

     negative rho (up, down):  1.625E+00 0.000E+00
 
     Adding external electric field

     Computed dipole along edir(3) : 
        Dipole               -1.7022 Ry au,         -4.3265 Debye
        Dipole field         -0.0050 Ry au
 
        Potential amp.        0.4480 Ry
        Total length         45.1039 bohr
 

     total cpu time spent up to now is      357.8 secs

     total energy              =   -2337.91409735 Ry
     Harris-Foulkes estimate   =   -2338.21626463 Ry
     estimated scf accuracy    <       2.01849911 Ry

     iteration #  7     ecut=    36.75 Ry     beta=0.30
     Davidson diagonalization with overlap
     ethr =  1.09E-03,  avg # of iterations =  6.6

     negative rho (up, down):  1.622E+00 0.000E+00
 
     Adding external electric field

     Computed dipole along edir(3) : 
        Dipole               -1.5688 Ry au,         -3.9875 Debye
        Dipole field         -0.0046 Ry au
 
        Potential amp.        0.4129 Ry
        Total length         45.1039 bohr
 

     total cpu time spent up to now is      405.2 secs

     total energy              =   -2338.10727027 Ry
     Harris-Foulkes estimate   =   -2338.40590847 Ry
     estimated scf accuracy    <      10.76915892 Ry

     iteration #  8     ecut=    36.75 Ry     beta=0.30
     Davidson diagonalization with overlap
     ethr =  1.09E-03,  avg # of iterations =  3.2

     negative rho (up, down):  1.621E+00 0.000E+00
 
     Adding external electric field

     Computed dipole along edir(3) : 
        Dipole               -1.5511 Ry au,         -3.9426 Debye
        Dipole field         -0.0045 Ry au
 
        Potential amp.        0.4083 Ry
        Total length         45.1039 bohr
 

     total cpu time spent up to now is      439.6 secs

     total energy              =   -2338.25073105 Ry
     Harris-Foulkes estimate   =   -2338.26525418 Ry
     estimated scf accuracy    <       0.31360788 Ry

     iteration #  9     ecut=    36.75 Ry     beta=0.30
     Davidson diagonalization with overlap
     ethr =  1.69E-04,  avg # of iterations =  6.9

     negative rho (up, down):  1.619E+00 0.000E+00
 
     Adding external electric field

     Computed dipole along edir(3) : 
        Dipole               -1.4603 Ry au,         -3.7118 Debye
        Dipole field         -0.0043 Ry au
 
        Potential amp.        0.3844 Ry
        Total length         45.1039 bohr
 

     total cpu time spent up to now is      483.0 secs

     total energy              =   -2338.25477321 Ry
     Harris-Foulkes estimate   =   -2338.26987218 Ry
     estimated scf accuracy    <       0.07827340 Ry

     iteration # 10     ecut=    36.75 Ry     beta=0.30
     Davidson diagonalization with overlap
     ethr =  4.21E-05,  avg # of iterations =  7.0

     negative rho (up, down):  1.617E+00 0.000E+00
 
     Adding external electric field

     Computed dipole along edir(3) : 
        Dipole               -1.4206 Ry au,         -3.6107 Debye
        Dipole field         -0.0041 Ry au
 
        Potential amp.        0.3739 Ry
        Total length         45.1039 bohr
 

     total cpu time spent up to now is      529.0 secs

     total energy              =   -2338.26439098 Ry
     Harris-Foulkes estimate   =   -2338.26897678 Ry
     estimated scf accuracy    <       0.09645488 Ry

     iteration # 11     ecut=    36.75 Ry     beta=0.30
     Davidson diagonalization with overlap
     ethr =  4.21E-05,  avg # of iterations =  1.0

     negative rho (up, down):  1.617E+00 0.000E+00
 
     Adding external electric field

     Computed dipole along edir(3) : 
        Dipole               -1.3209 Ry au,         -3.3574 Debye
        Dipole field         -0.0039 Ry au
 
        Potential amp.        0.3477 Ry
        Total length         45.1039 bohr
 

     total cpu time spent up to now is      560.4 secs

     total energy              =   -2338.26255562 Ry
     Harris-Foulkes estimate   =   -2338.26763292 Ry
     estimated scf accuracy    <       0.13296816 Ry

     iteration # 12     ecut=    36.75 Ry     beta=0.30
     Davidson diagonalization with overlap
     ethr =  4.21E-05,  avg # of iterations =  1.0

     negative rho (up, down):  1.617E+00 0.000E+00
 
     Adding external electric field

     Computed dipole along edir(3) : 
        Dipole               -1.2733 Ry au,         -3.2364 Debye
        Dipole field         -0.0037 Ry au
 
        Potential amp.        0.3351 Ry
        Total length         45.1039 bohr
 

     total cpu time spent up to now is      591.9 secs

     total energy              =   -2338.26050846 Ry
     Harris-Foulkes estimate   =   -2338.26383039 Ry
     estimated scf accuracy    <       0.10051092 Ry

     iteration # 13     ecut=    36.75 Ry     beta=0.30
     Davidson diagonalization with overlap
     ethr =  4.21E-05,  avg # of iterations =  1.0

     negative rho (up, down):  1.619E+00 0.000E+00
 
     Adding external electric field

     Computed dipole along edir(3) : 
        Dipole               -0.8711 Ry au,         -2.2142 Debye
        Dipole field         -0.0025 Ry au
 
        Potential amp.        0.2293 Ry
        Total length         45.1039 bohr
 

     total cpu time spent up to now is      623.7 secs

     total energy              =   -2338.25064154 Ry
     Harris-Foulkes estimate   =   -2338.26360907 Ry
     estimated scf accuracy    <       0.04365968 Ry

     iteration # 14     ecut=    36.75 Ry     beta=0.30
     Davidson diagonalization with overlap
     ethr =  2.35E-05,  avg # of iterations =  6.0

     negative rho (up, down):  1.618E+00 0.000E+00
 
     Adding external electric field

     Computed dipole along edir(3) : 
        Dipole               -0.8094 Ry au,         -2.0573 Debye
        Dipole field         -0.0024 Ry au
 
        Potential amp.        0.2130 Ry
        Total length         45.1039 bohr
 

     total cpu time spent up to now is      668.8 secs

     total energy              =   -2338.25433001 Ry
     Harris-Foulkes estimate   =   -2338.26392723 Ry
     estimated scf accuracy    <       0.39723515 Ry

     iteration # 15     ecut=    36.75 Ry     beta=0.30
     Davidson diagonalization with overlap
     ethr =  2.35E-05,  avg # of iterations =  1.6

     negative rho (up, down):  1.618E+00 0.000E+00
 
     Adding external electric field

     Computed dipole along edir(3) : 
        Dipole               -0.7090 Ry au,         -1.8021 Debye
        Dipole field         -0.0021 Ry au
 
        Potential amp.        0.1866 Ry
        Total length         45.1039 bohr
 

     total cpu time spent up to now is      701.1 secs

     total energy              =   -2338.25394771 Ry
     Harris-Foulkes estimate   =   -2338.25710572 Ry
     estimated scf accuracy    <       0.13567302 Ry

     iteration # 16     ecut=    36.75 Ry     beta=0.30
     Davidson diagonalization with overlap
     ethr =  2.35E-05,  avg # of iterations =  3.1

     negative rho (up, down):  1.618E+00 0.000E+00
 
     Adding external electric field

     Computed dipole along edir(3) : 
        Dipole               -0.6406 Ry au,         -1.6282 Debye
        Dipole field         -0.0019 Ry au
 
        Potential amp.        0.1686 Ry
        Total length         45.1039 bohr
 

     total cpu time spent up to now is      735.2 secs

     total energy              =   -2338.25454266 Ry
     Harris-Foulkes estimate   =   -2338.25549011 Ry
     estimated scf accuracy    <       0.04122124 Ry

     iteration # 17     ecut=    36.75 Ry     beta=0.30
     Davidson diagonalization with overlap
     ethr =  2.22E-05,  avg # of iterations =  1.1

     negative rho (up, down):  1.619E+00 0.000E+00
 
     Adding external electric field

     Computed dipole along edir(3) : 
        Dipole               -0.5447 Ry au,         -1.3844 Debye
        Dipole field         -0.0016 Ry au
 
        Potential amp.        0.1434 Ry
        Total length         45.1039 bohr
 

     total cpu time spent up to now is      766.7 secs

     total energy              =   -2338.25418082 Ry
     Harris-Foulkes estimate   =   -2338.25528309 Ry
     estimated scf accuracy    <       0.01716925 Ry

     iteration # 18     ecut=    36.75 Ry     beta=0.30
     Davidson diagonalization with overlap
     ethr =  9.23E-06,  avg # of iterations =  6.3

     negative rho (up, down):  1.619E+00 0.000E+00
 
     Adding external electric field

     Computed dipole along edir(3) : 
        Dipole               -0.5396 Ry au,         -1.3716 Debye
        Dipole field         -0.0016 Ry au
 
        Potential amp.        0.1420 Ry
        Total length         45.1039 bohr
 

     total cpu time spent up to now is      807.6 secs

     total energy              =   -2338.25542227 Ry
     Harris-Foulkes estimate   =   -2338.25550647 Ry
     estimated scf accuracy    <       0.00649203 Ry

     iteration # 19     ecut=    36.75 Ry     beta=0.30
     Davidson diagonalization with overlap
     ethr =  3.49E-06,  avg # of iterations =  4.5

     negative rho (up, down):  1.619E+00 0.000E+00
 
     Adding external electric field

     Computed dipole along edir(3) : 
        Dipole               -0.5548 Ry au,         -1.4102 Debye
        Dipole field         -0.0016 Ry au
 
        Potential amp.        0.1460 Ry
        Total length         45.1039 bohr
 

     total cpu time spent up to now is      843.9 secs

     total energy              =   -2338.25531169 Ry
     Harris-Foulkes estimate   =   -2338.25549907 Ry
     estimated scf accuracy    <       0.00527176 Ry

     iteration # 20     ecut=    36.75 Ry     beta=0.30
     Davidson diagonalization with overlap
     ethr =  2.83E-06,  avg # of iterations =  1.0

     negative rho (up, down):  1.619E+00 0.000E+00
 
     Adding external electric field

     Computed dipole along edir(3) : 
        Dipole               -0.5542 Ry au,         -1.4086 Debye
        Dipole field         -0.0016 Ry au
 
        Potential amp.        0.1459 Ry
        Total length         45.1039 bohr
 

     total cpu time spent up to now is      875.4 secs

     total energy              =   -2338.25538533 Ry
     Harris-Foulkes estimate   =   -2338.25541437 Ry
     estimated scf accuracy    <       0.00050867 Ry

     iteration # 21     ecut=    36.75 Ry     beta=0.30
     Davidson diagonalization with overlap
     ethr =  2.73E-07,  avg # of iterations =  6.0

     negative rho (up, down):  1.619E+00 0.000E+00
 
     Adding external electric field

     Computed dipole along edir(3) : 
        Dipole               -0.5531 Ry au,         -1.4057 Debye
        Dipole field         -0.0016 Ry au
 
        Potential amp.        0.1456 Ry
        Total length         45.1039 bohr
 

     total cpu time spent up to now is      918.9 secs

     total energy              =   -2338.25543980 Ry
     Harris-Foulkes estimate   =   -2338.25544930 Ry
     estimated scf accuracy    <       0.00003261 Ry

     iteration # 22     ecut=    36.75 Ry     beta=0.30
     Davidson diagonalization with overlap
     ethr =  1.75E-08,  avg # of iterations =  5.0

     negative rho (up, down):  1.619E+00 0.000E+00

     negative rho (up, down):  1.619E+00 0.000E+00

     negative rho (up, down):  1.619E+00 0.000E+00

     negative rho (up, down):  1.619E+00 0.000E+00

     negative rho (up, down):  1.619E+00 0.000E+00

     negative rho (up, down):  1.619E+00 0.000E+00

     negative rho (up, down):  1.619E+00 0.000E+00

     negative rho (up, down):  1.619E+00 0.000E+00

     negative rho (up, down):  1.619E+00 0.000E+00

     negative rho (up, down):  1.619E+00 0.000E+00

     negative rho (up, down):  1.619E+00 0.000E+00

     negative rho (up, down):  1.619E+00 0.000E+00

     negative rho (up, down):  1.619E+00 0.000E+00

     negative rho (up, down):  1.619E+00 0.000E+00

     negative rho (up, down):  1.619E+00 0.000E+00

     negative rho (up, down):  1.619E+00 0.000E+00

     negative rho (up, down):  1.619E+00 0.000E+00

     negative rho (up, down):  1.619E+00 0.000E+00

     negative rho (up, down):  1.619E+00 0.000E+00

     negative rho (up, down):  1.619E+00 0.000E+00

     negative rho (up, down):  1.619E+00 0.000E+00

     negative rho (up, down):  1.619E+00 0.000E+00

     negative rho (up, down):  1.619E+00 0.000E+00

     negative rho (up, down):  1.619E+00 0.000E+00

     negative rho (up, down):  1.619E+00 0.000E+00

     negative rho (up, down):  1.619E+00 0.000E+00

     negative rho (up, down):  1.619E+00 0.000E+00

     negative rho (up, down):  1.619E+00 0.000E+00

     negative rho (up, down):  1.619E+00 0.000E+00

     negative rho (up, down):  1.619E+00 0.000E+00

     negative rho (up, down):  1.619E+00 0.000E+00

     negative rho (up, down):  1.619E+00 0.000E+00

     negative rho (up, down):  1.619E+00 0.000E+00

     negative rho (up, down):  1.619E+00 0.000E+00

     negative rho (up, down):  1.619E+00 0.000E+00
 
     Adding external electric field

     Computed dipole along edir(3) : 
        Dipole               -0.5547 Ry au,         -1.4100 Debye
        Dipole field         -0.0016 Ry au
 
        Potential amp.        0.1460 Ry
        Total length         45.1039 bohr
 

     total cpu time spent up to now is     1009.8 secs

     End of self-consistent calculation

          k = 0.0000 0.0000 0.0000 ( 16091 PWs)   bands (ev):

   -78.4039 -78.3480 -78.3127 -78.3123 -78.2935 -78.2931 -78.2915 -78.2537
   -78.1963 -78.1865 -78.1856 -78.1788 -40.6547 -40.6431 -40.6430 -40.5558
   -40.5023 -40.4694 -40.4692 -40.3595 -40.3388 -40.3386 -40.1356 -40.0390
   -40.0387 -39.9989 -39.9723 -39.9720 -39.9662 -39.8930 -39.8890 -39.8888
   -39.7793 -39.7793 -39.7632 -39.6956 -39.6935 -39.6931 -39.6901 -39.6398
   -39.6398 -39.6039 -39.5994 -39.5990 -39.4728 -39.4726 -39.3997 -39.3996
   -13.5661  -6.9760  -5.0138  -4.4653  -4.0737  -4.0672  -4.0672  -3.7751
    -3.7575  -3.7575  -3.0850  -3.0785  -3.0784  -2.9177  -2.8868  -2.8867
    -1.4136  -1.3417  -1.3416  -0.4105  -0.2936  -0.2936  -0.1270   0.0400
     0.3800   0.3800   0.5426   0.5426   0.7472   0.8272   0.8272   0.8766
     0.8857   0.8858   0.9283   1.1279   1.1279   1.4995   1.4996   1.8479
     2.5725   2.5726   2.6746   2.8902   2.9296   2.9298   3.3814   3.4593
     3.4593   4.0150   4.0150   4.0316   4.0317   4.3526   4.6794

          k = 0.0000 0.0351 0.0000 ( 16151 PWs)   bands (ev):

   -78.3979 -78.3442 -78.3177 -78.3124 -78.2983 -78.2932 -78.2907 -78.2491
   -78.1972 -78.1893 -78.1865 -78.1797 -40.6190 -40.6103 -40.5904 -40.5348
   -40.4711 -40.4407 -40.4348 -40.3261 -40.3070 -40.2882 -40.1359 -40.0729
   -40.0610 -40.0363 -39.9659 -39.9620 -39.9458 -39.9074 -39.8971 -39.8743
   -39.7981 -39.7955 -39.7554 -39.7193 -39.7141 -39.7027 -39.6858 -39.6839
   -39.6543 -39.6350 -39.6313 -39.5877 -39.5270 -39.4861 -39.4592 -39.4136
   -13.5649  -6.6961  -4.7292  -4.1730  -4.0432  -3.8388  -3.8338  -3.6774
    -3.5633  -3.5525  -2.9928  -2.9223  -2.9160  -2.7446  -2.6084  -2.5883
    -1.3579  -1.3090  -1.2620  -0.4155  -0.3291  -0.1853  -0.1749   0.0174
     0.1342   0.2222   0.2860   0.4704   0.6191   0.6241   0.7859   0.8195
     0.9485   0.9768   1.0078   1.0398   1.3134   1.3973   1.4265   1.5951
     2.2049   2.2280   2.2445   2.6707   2.7349   2.8785   2.9342   3.1914
     3.1956   3.2570   3.2642   3.9189   4.0678   4.3540   4.5159

          k = 0.0000 0.0702 0.0000 ( 16185 PWs)   bands (ev):

   -78.3815 -78.3385 -78.3289 -78.3125 -78.3066 -78.2932 -78.2918 -78.2365
   -78.2020 -78.1983 -78.1865 -78.1803 -40.5372 -40.5288 -40.4808 -40.4451
   -40.4040 -40.3742 -40.3719 -40.2547 -40.2319 -40.1629 -40.1398 -40.1250
   -40.1139 -40.0724 -39.9564 -39.9463 -39.9306 -39.9228 -39.9049 -39.8681
   -39.8637 -39.8375 -39.8288 -39.7784 -39.7629 -39.7456 -39.7126 -39.7083
   -39.6934 -39.6854 -39.6638 -39.6429 -39.5903 -39.5522 -39.5196 -39.4508
   -13.5625  -5.9330  -4.2272  -4.0025  -3.4376  -3.4103  -3.2666  -3.2589
    -3.0723  -3.0635  -2.7609  -2.4405  -2.4302  -2.3116  -1.8544  -1.8209
    -1.2648  -1.2547  -1.0531  -0.9838  -0.5919  -0.5027  -0.4945  -0.2894
    -0.1159   0.0252   0.2071   0.3190   0.3961   0.4862   0.6192   0.6509
     0.8397   0.8578   0.9437   1.1889   1.2024   1.2797   1.4074   1.4222
     1.4888   1.4995   1.6861   1.8072   1.8105   2.1253   2.3093   2.4190
     2.8178   2.8880   3.0597   3.3503   3.4778   3.6443   3.6639

          k = 0.0000-0.1052 0.0000 ( 16164 PWs)   bands (ev):

   -78.3624 -78.3548 -78.3199 -78.3170 -78.3125 -78.2931 -78.2925 -78.2214
   -78.2167 -78.1994 -78.1864 -78.1805 -40.4802 -40.4716 -40.4202 -40.4065
   -40.3643 -40.3334 -40.2621 -40.2464 -40.2046 -40.1958 -40.1679 -40.1633
   -40.0220 -39.9852 -39.9528 -39.9493 -39.9242 -39.9199 -39.9182 -39.9026
   -39.8976 -39.8775 -39.8600 -39.8506 -39.8211 -39.8054 -39.7720 -39.7667
   -39.7079 -39.6943 -39.6704 -39.6639 -39.6167 -39.5492 -39.5032 -39.4984
   -13.5613  -4.9565  -4.9435  -3.3957  -3.3707  -2.8331  -2.8200  -2.8112
    -2.8012  -2.7252  -2.7078  -1.9807  -1.9733  -1.6819  -1.6530  -1.5030
    -1.4763  -1.1288  -1.1046  -1.0253  -1.0194  -0.6771  -0.6538  -0.4317
    -0.1296  -0.0573   0.1201   0.2129   0.2858   0.2907   0.2937   0.3251
     0.4340   0.6128   0.7271   0.7344   0.7787   0.8496   0.8786   1.2210
     1.3288   1.4226   1.4570   1.9576   2.2749   2.2973   2.3031   2.4078
     2.5669   2.5980   2.7914   2.8696   3.2345   3.2587   3.4264

          k = 0.0304-0.0175 0.0000 ( 16151 PWs)   bands (ev):

   -78.3979 -78.3442 -78.3177 -78.3125 -78.2983 -78.2932 -78.2907 -78.2491
   -78.1972 -78.1898 -78.1858 -78.1800 -40.6191 -40.6102 -40.5904 -40.5348
   -40.4710 -40.4408 -40.4346 -40.3259 -40.3073 -40.2881 -40.1359 -40.0730
   -40.0609 -40.0363 -39.9658 -39.9620 -39.9459 -39.9074 -39.8971 -39.8743
   -39.7980 -39.7956 -39.7554 -39.7193 -39.7140 -39.7028 -39.6858 -39.6838
   -39.6543 -39.6348 -39.6316 -39.5876 -39.5269 -39.4862 -39.4592 -39.4135
   -13.5649  -6.6961  -4.7292  -4.1730  -4.0432  -3.8387  -3.8338  -3.6774
    -3.5633  -3.5525  -2.9928  -2.9223  -2.9160  -2.7446  -2.6083  -2.5884
    -1.3578  -1.3091  -1.2620  -0.4155  -0.3291  -0.1853  -0.1749   0.0174
     0.1342   0.2222   0.2859   0.4705   0.6191   0.6241   0.7859   0.8195
     0.9485   0.9768   1.0078   1.0398   1.3134   1.3972   1.4265   1.5951
     2.2049   2.2280   2.2444   2.6706   2.7350   2.8784   2.9342   3.1915
     3.1956   3.2570   3.2642   3.9189   4.0678   4.3541   4.5164

          k = 0.0304 0.0175 0.0000 ( 16151 PWs)   bands (ev):

   -78.3979 -78.3443 -78.3174 -78.3127 -78.2981 -78.2935 -78.2906 -78.2491
   -78.1972 -78.1898 -78.1857 -78.1800 -40.6191 -40.6102 -40.5904 -40.5348
   -40.4711 -40.4407 -40.4347 -40.3259 -40.3072 -40.2881 -40.1360 -40.0728
   -40.0612 -40.0362 -39.9658 -39.9620 -39.9460 -39.9074 -39.8971 -39.8743
   -39.7981 -39.7955 -39.7554 -39.7191 -39.7142 -39.7027 -39.6858 -39.6841
   -39.6543 -39.6348 -39.6316 -39.5877 -39.5271 -39.4860 -39.4591 -39.4136
   -13.5649  -6.6961  -4.7292  -4.1730  -4.0432  -3.8387  -3.8338  -3.6774
    -3.5633  -3.5525  -2.9928  -2.9223  -2.9160  -2.7446  -2.6083  -2.5883
    -1.3579  -1.3090  -1.2620  -0.4155  -0.3290  -0.1853  -0.1749   0.0174
     0.1342   0.2222   0.2860   0.4705   0.6191   0.6241   0.7859   0.8195
     0.9485   0.9767   1.0078   1.0398   1.3134   1.3973   1.4265   1.5951
     2.2049   2.2280   2.2444   2.6705   2.7350   2.8785   2.9342   3.1914
     3.1956   3.2570   3.2642   3.9189   4.0678   4.3541   4.5164

          k = 0.0304 0.0526 0.0000 ( 16230 PWs)   bands (ev):

   -78.3867 -78.3380 -78.3253 -78.3166 -78.3010 -78.2957 -78.2900 -78.2405
   -78.1986 -78.1943 -78.1912 -78.1785 -40.5717 -40.5171 -40.5126 -40.4969
   -40.4202 -40.3895 -40.3859 -40.2819 -40.2260 -40.2118 -40.1428 -40.1101
   -40.0990 -40.0833 -39.9705 -39.9409 -39.9331 -39.9188 -39.8904 -39.8743
   -39.8694 -39.7936 -39.7812 -39.7653 -39.7595 -39.7451 -39.7120 -39.6989
   -39.6809 -39.6729 -39.6186 -39.6048 -39.6029 -39.5520 -39.5132 -39.4440
   -13.5631  -6.1704  -4.2106  -3.8606  -3.8552  -3.6329  -3.3959  -3.3808
    -3.3174  -3.0751  -2.7365  -2.7307  -2.5126  -2.3416  -2.3140  -1.9578
    -1.3244  -1.2034  -1.1719  -0.7965  -0.4368  -0.3096  -0.2741  -0.1995
    -0.1679  -0.0153   0.1927   0.2291   0.4318   0.6393   0.7276   0.7331
     0.8164   0.9420   0.9557   1.0964   1.1867   1.2586   1.4807   1.5881
     1.6729   1.7688   1.9095   1.9584   1.9976   2.2621   2.4257   2.6555
     2.7427   2.8620   3.1652   3.4717   3.6841   3.7290   4.1643

          k = 0.0304-0.1228 0.0000 ( 16218 PWs)   bands (ev):

   -78.3675 -78.3439 -78.3288 -78.3185 -78.3069 -78.2975 -78.2890 -78.2257
   -78.2080 -78.1993 -78.1948 -78.1765 -40.4855 -40.4361 -40.4311 -40.3848
   -40.3577 -40.3399 -40.3327 -40.2518 -40.2053 -40.1792 -40.1475 -40.1042
   -40.0821 -40.0210 -40.0054 -39.9619 -39.9345 -39.9198 -39.9164 -39.9058
   -39.8815 -39.8714 -39.8593 -39.8137 -39.8050 -39.7833 -39.7464 -39.7377
   -39.7113 -39.7029 -39.6480 -39.6432 -39.6315 -39.5609 -39.5526 -39.4961
   -13.5613  -5.2632  -4.3302  -3.5123  -3.4414  -3.1533  -2.9121  -2.7849
    -2.7778  -2.4689  -2.4600  -2.1755  -1.9205  -1.8358  -1.7374  -1.5728
    -1.3162  -1.1563  -1.1201  -1.0298  -0.9952  -0.8039  -0.5743  -0.5168
    -0.3844  -0.2018  -0.0064   0.1326   0.2050   0.2364   0.2860   0.3749
     0.4139   0.5729   0.6096   0.6864   0.9669   1.0635   1.1905   1.2818
     1.3902   1.4665   1.6107   1.6507   2.0926   2.2902   2.3732   2.4414
     2.5524   2.7882   2.8644   2.9667   3.1106   3.2301   3.6233

          k = 0.0304-0.0877 0.0000 ( 16218 PWs)   bands (ev):

   -78.3675 -78.3440 -78.3286 -78.3189 -78.3068 -78.2974 -78.2890 -78.2257
   -78.2080 -78.1994 -78.1948 -78.1765 -40.4855 -40.4361 -40.4312 -40.3848
   -40.3577 -40.3398 -40.3328 -40.2518 -40.2054 -40.1791 -40.1475 -40.1042
   -40.0820 -40.0210 -40.0057 -39.9619 -39.9345 -39.9198 -39.9165 -39.9057
   -39.8815 -39.8714 -39.8592 -39.8137 -39.8049 -39.7834 -39.7464 -39.7377
   -39.7113 -39.7029 -39.6480 -39.6432 -39.6315 -39.5610 -39.5527 -39.4961
   -13.5613  -5.2632  -4.3302  -3.5123  -3.4414  -3.1533  -2.9121  -2.7849
    -2.7778  -2.4689  -2.4600  -2.1755  -1.9205  -1.8358  -1.7373  -1.5728
    -1.3162  -1.1563  -1.1201  -1.0298  -0.9952  -0.8039  -0.5743  -0.5168
    -0.3844  -0.2018  -0.0064   0.1326   0.2050   0.2364   0.2859   0.3749
     0.4138   0.5729   0.6096   0.6864   0.9669   1.0635   1.1905   1.2819
     1.3902   1.4665   1.6107   1.6507   2.0927   2.2902   2.3732   2.4413
     2.5524   2.7882   2.8644   2.9667   3.1105   3.2301   3.6231

          k = 0.0304-0.0526 0.0000 ( 16230 PWs)   bands (ev):

   -78.3867 -78.3378 -78.3255 -78.3166 -78.3010 -78.2956 -78.2901 -78.2405
   -78.1986 -78.1942 -78.1913 -78.1785 -40.5717 -40.5170 -40.5127 -40.4969
   -40.4201 -40.3896 -40.3859 -40.2818 -40.2261 -40.2117 -40.1428 -40.1101
   -40.0991 -40.0833 -39.9705 -39.9410 -39.9329 -39.9189 -39.8904 -39.8743
   -39.8694 -39.7937 -39.7813 -39.7654 -39.7592 -39.7451 -39.7120 -39.6988
   -39.6809 -39.6727 -39.6187 -39.6047 -39.6029 -39.5521 -39.5133 -39.4439
   -13.5631  -6.1704  -4.2106  -3.8606  -3.8551  -3.6329  -3.3959  -3.3808
    -3.3174  -3.0751  -2.7365  -2.7307  -2.5126  -2.3416  -2.3140  -1.9578
    -1.3244  -1.2034  -1.1719  -0.7965  -0.4369  -0.3096  -0.2741  -0.1995
    -0.1679  -0.0153   0.1927   0.2291   0.4318   0.6393   0.7277   0.7331
     0.8164   0.9420   0.9558   1.0964   1.1867   1.2586   1.4807   1.5881
     1.6729   1.7688   1.9096   1.9583   1.9977   2.2621   2.4257   2.6555
     2.7426   2.8620   3.1652   3.4717   3.6840   3.7290   4.1619

          k = 0.0608-0.0351 0.0000 ( 16185 PWs)   bands (ev):

   -78.3815 -78.3384 -78.3290 -78.3125 -78.3066 -78.2931 -78.2917 -78.2365
   -78.2022 -78.1983 -78.1858 -78.1808 -40.5373 -40.5286 -40.4807 -40.4451
   -40.4038 -40.3745 -40.3719 -40.2544 -40.2322 -40.1629 -40.1398 -40.1250
   -40.1138 -40.0724 -39.9565 -39.9464 -39.9306 -39.9226 -39.9052 -39.8682
   -39.8636 -39.8375 -39.8288 -39.7784 -39.7628 -39.7458 -39.7125 -39.7083
   -39.6932 -39.6856 -39.6638 -39.6427 -39.5903 -39.5522 -39.5197 -39.4507
   -13.5625  -5.9330  -4.2272  -4.0025  -3.4376  -3.4103  -3.2665  -3.2590
    -3.0723  -3.0635  -2.7609  -2.4404  -2.4303  -2.3116  -1.8543  -1.8210
    -1.2647  -1.2548  -1.0531  -0.9838  -0.5919  -0.5028  -0.4945  -0.2895
    -0.1159   0.0252   0.2070   0.3190   0.3961   0.4862   0.6192   0.6509
     0.8398   0.8578   0.9437   1.1889   1.2024   1.2797   1.4074   1.4222
     1.4887   1.4994   1.6861   1.8073   1.8105   2.1253   2.3092   2.4191
     2.8177   2.8880   3.0598   3.3503   3.4777   3.6443   3.6638

          k = 0.0608 0.0000 0.0000 ( 16230 PWs)   bands (ev):

   -78.3867 -78.3379 -78.3253 -78.3167 -78.3009 -78.2958 -78.2900 -78.2405
   -78.1987 -78.1948 -78.1905 -78.1787 -40.5717 -40.5170 -40.5127 -40.4969
   -40.4201 -40.3895 -40.3859 -40.2818 -40.2262 -40.2116 -40.1428 -40.1100
   -40.0992 -40.0832 -39.9705 -39.9407 -39.9332 -39.9189 -39.8905 -39.8742
   -39.8695 -39.7935 -39.7811 -39.7653 -39.7595 -39.7453 -39.7120 -39.6989
   -39.6809 -39.6728 -39.6186 -39.6049 -39.6027 -39.5521 -39.5133 -39.4439
   -13.5631  -6.1704  -4.2106  -3.8606  -3.8552  -3.6329  -3.3959  -3.3808
    -3.3174  -3.0751  -2.7365  -2.7307  -2.5126  -2.3417  -2.3140  -1.9578
    -1.3244  -1.2035  -1.1719  -0.7965  -0.4368  -0.3096  -0.2741  -0.1995
    -0.1679  -0.0153   0.1927   0.2291   0.4317   0.6393   0.7276   0.7332
     0.8164   0.9420   0.9557   1.0964   1.1867   1.2587   1.4807   1.5882
     1.6728   1.7688   1.9095   1.9584   1.9977   2.2621   2.4256   2.6555
     2.7427   2.8620   3.1652   3.4717   3.6840   3.7291   4.1748

          k = 0.0608 0.0351 0.0000 ( 16185 PWs)   bands (ev):

   -78.3815 -78.3387 -78.3285 -78.3128 -78.3063 -78.2934 -78.2917 -78.2365
   -78.2022 -78.1983 -78.1857 -78.1808 -40.5373 -40.5287 -40.4808 -40.4451
   -40.4040 -40.3743 -40.3719 -40.2544 -40.2321 -40.1629 -40.1398 -40.1251
   -40.1138 -40.0723 -39.9567 -39.9462 -39.9306 -39.9226 -39.9052 -39.8680
   -39.8637 -39.8375 -39.8289 -39.7783 -39.7629 -39.7458 -39.7125 -39.7084
   -39.6932 -39.6856 -39.6639 -39.6430 -39.5902 -39.5523 -39.5195 -39.4508
   -13.5625  -5.9330  -4.2272  -4.0025  -3.4376  -3.4103  -3.2665  -3.2590
    -3.0723  -3.0635  -2.7609  -2.4404  -2.4303  -2.3116  -1.8544  -1.8210
    -1.2648  -1.2547  -1.0531  -0.9838  -0.5918  -0.5028  -0.4945  -0.2894
    -0.1159   0.0252   0.2071   0.3190   0.3961   0.4862   0.6192   0.6508
     0.8397   0.8578   0.9437   1.1889   1.2024   1.2797   1.4074   1.4222
     1.4888   1.4994   1.6861   1.8073   1.8105   2.1253   2.3092   2.4190
     2.8178   2.8880   3.0597   3.3504   3.4777   3.6443   3.6638

          k = 0.0608-0.1403 0.0000 ( 16218 PWs)   bands (ev):

   -78.3675 -78.3440 -78.3286 -78.3187 -78.3067 -78.2977 -78.2890 -78.2257
   -78.2083 -78.1993 -78.1945 -78.1766 -40.4855 -40.4361 -40.4311 -40.3848
   -40.3578 -40.3399 -40.3328 -40.2518 -40.2052 -40.1792 -40.1474 -40.1042
   -40.0820 -40.0211 -40.0054 -39.9619 -39.9344 -39.9200 -39.9166 -39.9057
   -39.8814 -39.8715 -39.8593 -39.8137 -39.8048 -39.7834 -39.7464 -39.7377
   -39.7113 -39.7029 -39.6481 -39.6431 -39.6316 -39.5609 -39.5525 -39.4962
   -13.5613  -5.2633  -4.3302  -3.5123  -3.4414  -3.1532  -2.9121  -2.7849
    -2.7778  -2.4689  -2.4600  -2.1755  -1.9205  -1.8358  -1.7374  -1.5728
    -1.3162  -1.1563  -1.1200  -1.0298  -0.9952  -0.8039  -0.5743  -0.5168
    -0.3844  -0.2018  -0.0064   0.1326   0.2050   0.2363   0.2860   0.3748
     0.4139   0.5729   0.6096   0.6865   0.9669   1.0635   1.1905   1.2818
     1.3902   1.4665   1.6107   1.6507   2.0926   2.2901   2.3733   2.4414
     2.5523   2.7883   2.8644   2.9667   3.1106   3.2301   3.6231

          k = 0.0608-0.1052 0.0000 ( 16272 PWs)   bands (ev):

   -78.3525 -78.3472 -78.3411 -78.3137 -78.3092 -78.3009 -78.2872 -78.2130
   -78.2118 -78.2061 -78.1995 -78.1744 -40.3941 -40.3836 -40.3760 -40.3707
   -40.3697 -40.3127 -40.3013 -40.2941 -40.2856 -40.1214 -40.1100 -40.0519
   -40.0462 -40.0406 -40.0259 -39.9798 -39.9702 -39.9667 -39.9322 -39.9243
   -39.9160 -39.9011 -39.8672 -39.8082 -39.8000 -39.7917 -39.7687 -39.7214
   -39.7146 -39.6941 -39.6778 -39.6248 -39.6184 -39.5699 -39.5695 -39.5682
   -13.5608  -4.3344  -4.3224  -4.3187  -2.9081  -2.8892  -2.8866  -2.2712
    -2.2575  -2.1642  -1.9777  -1.9414  -1.9374  -1.6939  -1.6904  -1.6896
    -1.3438  -1.3334  -1.2048  -1.0444  -1.0367  -0.8634  -0.8624  -0.8095
    -0.4996  -0.4051  -0.4018  -0.2618  -0.2252  -0.1981   0.0074   0.2376
     0.2738   0.5791   0.5881   0.8935   0.9225   1.0553   1.1546   1.1688
     1.3412   1.4585   1.4870   1.6964   1.9838   2.0697   2.4129   2.6602
     2.6888   2.8193   2.8676   2.8851   3.2845   3.3900   3.5267

          k = 0.0608-0.0702 0.0000 ( 16218 PWs)   bands (ev):

   -78.3675 -78.3440 -78.3287 -78.3188 -78.3070 -78.2973 -78.2890 -78.2257
   -78.2082 -78.1994 -78.1946 -78.1766 -40.4855 -40.4361 -40.4311 -40.3848
   -40.3576 -40.3399 -40.3328 -40.2518 -40.2053 -40.1790 -40.1477 -40.1042
   -40.0821 -40.0211 -40.0055 -39.9618 -39.9344 -39.9199 -39.9166 -39.9057
   -39.8814 -39.8715 -39.8593 -39.8137 -39.8048 -39.7834 -39.7464 -39.7377
   -39.7114 -39.7028 -39.6480 -39.6431 -39.6315 -39.5611 -39.5526 -39.4961
   -13.5613  -5.2632  -4.3302  -3.5123  -3.4414  -3.1532  -2.9121  -2.7849
    -2.7778  -2.4689  -2.4600  -2.1755  -1.9205  -1.8358  -1.7373  -1.5728
    -1.3162  -1.1563  -1.1201  -1.0298  -0.9952  -0.8039  -0.5743  -0.5169
    -0.3844  -0.2018  -0.0064   0.1326   0.2050   0.2363   0.2860   0.3748
     0.4139   0.5728   0.6096   0.6865   0.9669   1.0635   1.1904   1.2819
     1.3902   1.4665   1.6107   1.6507   2.0926   2.2901   2.3733   2.4414
     2.5523   2.7882   2.8644   2.9667   3.1105   3.2301   3.6230

          k =-0.0911 0.0526 0.0000 ( 16164 PWs)   bands (ev):

   -78.3623 -78.3549 -78.3196 -78.3174 -78.3126 -78.2931 -78.2924 -78.2209
   -78.2174 -78.1994 -78.1858 -78.1809 -40.4804 -40.4714 -40.4202 -40.4064
   -40.3641 -40.3337 -40.2622 -40.2463 -40.2043 -40.1958 -40.1676 -40.1637
   -40.0224 -39.9849 -39.9527 -39.9492 -39.9244 -39.9200 -39.9180 -39.9027
   -39.8977 -39.8777 -39.8598 -39.8507 -39.8208 -39.8058 -39.7721 -39.7666
   -39.7077 -39.6944 -39.6705 -39.6637 -39.6165 -39.5495 -39.5027 -39.4989
   -13.5613  -4.9566  -4.9434  -3.3957  -3.3707  -2.8331  -2.8202  -2.8112
    -2.8011  -2.7252  -2.7078  -1.9808  -1.9733  -1.6819  -1.6531  -1.5028
    -1.4765  -1.1289  -1.1046  -1.0254  -1.0194  -0.6769  -0.6540  -0.4317
    -0.1296  -0.0573   0.1201   0.2129   0.2858   0.2907   0.2936   0.3249
     0.4340   0.6128   0.7271   0.7343   0.7787   0.8496   0.8787   1.2211
     1.3288   1.4224   1.4572   1.9575   2.2750   2.2973   2.3032   2.4076
     2.5670   2.5980   2.7914   2.8695   3.2346   3.2586   3.4265

          k =-0.0911 0.0877 0.0000 ( 16218 PWs)   bands (ev):

   -78.3675 -78.3440 -78.3288 -78.3185 -78.3071 -78.2974 -78.2890 -78.2256
   -78.2084 -78.1993 -78.1944 -78.1766 -40.4855 -40.4361 -40.4311 -40.3847
   -40.3576 -40.3399 -40.3329 -40.2518 -40.2053 -40.1789 -40.1477 -40.1042
   -40.0821 -40.0210 -40.0054 -39.9619 -39.9345 -39.9199 -39.9165 -39.9057
   -39.8814 -39.8714 -39.8594 -39.8137 -39.8050 -39.7832 -39.7465 -39.7377
   -39.7115 -39.7028 -39.6478 -39.6432 -39.6315 -39.5611 -39.5526 -39.4961
   -13.5613  -5.2632  -4.3302  -3.5123  -3.4414  -3.1532  -2.9121  -2.7849
    -2.7778  -2.4689  -2.4600  -2.1755  -1.9205  -1.8358  -1.7373  -1.5728
    -1.3162  -1.1563  -1.1200  -1.0298  -0.9952  -0.8039  -0.5743  -0.5168
    -0.3844  -0.2018  -0.0064   0.1327   0.2049   0.2364   0.2860   0.3748
     0.4138   0.5728   0.6096   0.6865   0.9669   1.0635   1.1904   1.2819
     1.3902   1.4664   1.6107   1.6507   2.0926   2.2902   2.3732   2.4415
     2.5523   2.7882   2.8645   2.9667   3.1106   3.2301   3.6232

          k =-0.0911 0.1228 0.0000 ( 16218 PWs)   bands (ev):

   -78.3675 -78.3440 -78.3286 -78.3188 -78.3067 -78.2977 -78.2890 -78.2256
   -78.2084 -78.1993 -78.1944 -78.1766 -40.4855 -40.4361 -40.4312 -40.3847
   -40.3578 -40.3398 -40.3329 -40.2518 -40.2053 -40.1791 -40.1474 -40.1043
   -40.0819 -40.0210 -40.0057 -39.9620 -39.9344 -39.9199 -39.9165 -39.9057
   -39.8813 -39.8714 -39.8594 -39.8137 -39.8049 -39.7833 -39.7465 -39.7377
   -39.7114 -39.7028 -39.6480 -39.6432 -39.6316 -39.5610 -39.5525 -39.4961
   -13.5613  -5.2633  -4.3302  -3.5123  -3.4414  -3.1532  -2.9121  -2.7849
    -2.7778  -2.4689  -2.4600  -2.1755  -1.9205  -1.8358  -1.7373  -1.5728
    -1.3162  -1.1563  -1.1200  -1.0298  -0.9952  -0.8039  -0.5743  -0.5168
    -0.3844  -0.2018  -0.0064   0.1326   0.2049   0.2364   0.2860   0.3748
     0.4138   0.5729   0.6096   0.6865   0.9669   1.0635   1.1904   1.2819
     1.3902   1.4665   1.6107   1.6507   2.0927   2.2901   2.3732   2.4414
     2.5524   2.7882   2.8645   2.9667   3.1106   3.2301   3.6234

          k =-0.0911-0.0526 0.0000 ( 16164 PWs)   bands (ev):

   -78.3625 -78.3547 -78.3199 -78.3166 -78.3128 -78.2934 -78.2923 -78.2208
   -78.2175 -78.1993 -78.1857 -78.1810 -40.4804 -40.4715 -40.4203 -40.4063
   -40.3644 -40.3335 -40.2623 -40.2462 -40.2044 -40.1958 -40.1676 -40.1636
   -40.0218 -39.9853 -39.9529 -39.9493 -39.9241 -39.9198 -39.9183 -39.9027
   -39.8977 -39.8777 -39.8598 -39.8507 -39.8208 -39.8058 -39.7721 -39.7666
   -39.7077 -39.6944 -39.6705 -39.6637 -39.6170 -39.5490 -39.5027 -39.4990
   -13.5613  -4.9566  -4.9434  -3.3958  -3.3705  -2.8331  -2.8201  -2.8111
    -2.8012  -2.7253  -2.7077  -1.9808  -1.9733  -1.6819  -1.6530  -1.5029
    -1.4764  -1.1289  -1.1046  -1.0253  -1.0194  -0.6770  -0.6539  -0.4317
    -0.1296  -0.0573   0.1201   0.2129   0.2858   0.2908   0.2937   0.3249
     0.4341   0.6129   0.7271   0.7343   0.7788   0.8497   0.8786   1.2210
     1.3287   1.4225   1.4571   1.9575   2.2750   2.2972   2.3033   2.4077
     2.5670   2.5980   2.7913   2.8696   3.2344   3.2589   3.4265

     the Fermi energy is     2.2537 ev

!    total energy              =   -2338.25544000 Ry
     Harris-Foulkes estimate   =   -2338.25544059 Ry
     estimated scf accuracy    <       0.00000759 Ry

     The total energy is the sum of the following terms:

     one-electron contribution =  -18791.74590122 Ry
     hartree contribution      =    9380.05856594 Ry
     xc contribution           =    -656.56779383 Ry
     ewald contribution        =    7730.06634346 Ry
     electric field correction =       0.00089784 Ry
     smearing contrib. (-TS)   =      -0.06755219 Ry

     convergence has been achieved in  22 iterations
 
 BEEF-vdW xc energy contributions
           1 :   -583.555034023417     
           2 :    542.170968617057     
           3 :   -468.068664466902     
           4 :    375.495462378264     
           5 :   -279.979594953514     
           6 :    194.414660084830     
           7 :   -126.514761742554     
           8 :    78.1682186054165     
           9 :   -46.5994882295741     
          10 :    26.6353458876395     
          11 :   -13.0928748172682     
          12 :    2.43214495561233     
          13 :    6.70962371088410     
          14 :   -13.9815870357850     
          15 :    18.3436031520121     
          16 :   -19.1213831082850     
          17 :    16.6485874297728     
          18 :   -12.2965749992968     
          19 :    7.96740233679543     
          20 :   -5.33810818027609     
          21 :    5.21496891802735     
          22 :   -7.28034643069668     
          23 :    10.3234847110559     
          24 :   -12.8291485441354     
          25 :    13.6442119963423     
          26 :   -12.4322057440747     
          27 :    9.73633600304720     
          28 :   -6.65451588500810     
          29 :    4.30441500168490     
          30 :   -3.33726015901175     
          31 :   -48.6488762432739     
          32 :   -36.0360326053074     

     Forces acting on atoms (Ry/au):


     negative rho (up, down):  1.619E+00 0.000E+00
     atom    1 type  1   force =    -0.00109955   -0.00058103    0.02048940
     atom    2 type  1   force =     0.00109933   -0.00060967    0.02048796
     atom    3 type  1   force =    -0.00003660    0.00122421    0.02040785
     atom    4 type  1   force =     0.00002169   -0.00003078    0.01975121
     atom    5 type  1   force =     0.00010204   -0.00566317   -0.00126973
     atom    6 type  1   force =    -0.00009266   -0.00014734    0.01038545
     atom    7 type  1   force =     0.00481635    0.00283301   -0.00114101
     atom    8 type  1   force =    -0.00479872    0.00295439   -0.00125444
     atom    9 type  1   force =    -0.00000942    0.00003421   -0.03333884
     atom   10 type  1   force =     0.00000511    0.00272784    0.04164591
     atom   11 type  1   force =     0.00230344   -0.00135218    0.04161473
     atom   12 type  1   force =    -0.00232483   -0.00138233    0.04173466
     atom   13 type  2   force =     0.00001381   -0.00000716   -0.17951314

     Total force =     0.201058     Total SCF correction =     0.014185


     entering subroutine stress ...


     negative rho (up, down):  1.619E+00 0.000E+00
          total   stress  (Ry/bohr**3)                   (kbar)     P=  -36.92
  -0.00018706   0.00000008   0.00000002        -27.52      0.01      0.00
   0.00000008  -0.00018704   0.00000002          0.01    -27.51      0.00
   0.00000002   0.00000002  -0.00037887          0.00      0.00    -55.73

 !ASE

     Writing output data file calc.save
 
     init_run     :     14.58s CPU     20.40s WALL (       1 calls)
     electrons    :    728.66s CPU    989.19s WALL (       1 calls)
     forces       :      5.86s CPU      6.50s WALL (       1 calls)
     stress       :     19.46s CPU     20.68s WALL (       1 calls)

     Called by init_run:
     wfcinit      :     11.32s CPU     16.32s WALL (       1 calls)
     potinit      :      1.15s CPU      1.66s WALL (       1 calls)

     Called by electrons:
     c_bands      :    554.61s CPU    751.88s WALL (      22 calls)
     sum_band     :     93.51s CPU    129.92s WALL (      22 calls)
     v_of_rho     :     22.31s CPU     33.35s WALL (      23 calls)
     newd         :     26.29s CPU     26.81s WALL (      23 calls)
     mix_rho      :      0.86s CPU      1.32s WALL (      22 calls)
     vdW_energy   :      2.43s CPU      2.45s WALL (      59 calls)
     vdW_ffts     :     34.89s CPU     53.56s WALL (     120 calls)
     vdW_v        :      6.59s CPU      9.64s WALL (      59 calls)

     Called by c_bands:
     init_us_2    :      1.83s CPU      1.94s WALL (     940 calls)
     cegterg      :    533.98s CPU    730.37s WALL (     440 calls)

     Called by *egterg:
     h_psi        :    345.33s CPU    526.32s WALL (    2301 calls)
     s_psi        :     23.20s CPU     23.28s WALL (    2301 calls)
     g_psi        :      0.75s CPU      0.77s WALL (    1841 calls)
     cdiaghg      :    106.94s CPU    110.24s WALL (    2281 calls)

     Called by h_psi:
     add_vuspsi   :     23.92s CPU     24.10s WALL (    2301 calls)

     General routines
     calbec       :     45.62s CPU     54.70s WALL (    2781 calls)
     fft          :     53.10s CPU     82.09s WALL (    3621 calls)
     ffts         :      0.18s CPU      0.30s WALL (      45 calls)
     fftw         :    329.10s CPU    535.34s WALL (  287400 calls)
     interpolate  :      0.79s CPU      1.28s WALL (      45 calls)
     davcio       :      0.00s CPU      0.02s WALL (      20 calls)
 
     Parallel routines
     fft_scatter  :    335.57s CPU    568.84s WALL (  291066 calls)
 
     PWSCF        : 12m49.37s CPU    17m18.04s WALL

 
   This run was terminated on:   7:33:53  15Jan2018            

=------------------------------------------------------------------------------=
   JOB DONE.
=------------------------------------------------------------------------------=
Job  /afs/slac/g/suncat/bin/suncat-tsmpirun -x LD_LIBRARY_PATH -wdir /scratch/qe842473_0TckQ pw.x -in pw.inp

TID   HOST_NAME   COMMAND_LINE            STATUS            TERMINATION_TIME
===== ========== ================  =======================  ===================
00000 suncat0050 pw.x -in pw.inp   Done                     01/15/2018 07:33:53
00001 suncat0050 pw.x -in pw.inp   Done                     01/15/2018 07:33:53
00002 suncat0050 pw.x -in pw.inp   Done                     01/15/2018 07:33:53
00003 suncat0050 pw.x -in pw.inp   Done                     01/15/2018 07:33:53
00004 suncat0050 pw.x -in pw.inp   Done                     01/15/2018 07:33:53
00005 suncat0050 pw.x -in pw.inp   Done                     01/15/2018 07:33:53
00006 suncat0050 pw.x -in pw.inp   Done                     01/15/2018 07:33:53
00007 suncat0050 pw.x -in pw.inp   Done                     01/15/2018 07:33:53
00008 suncat0242 pw.x -in pw.inp   Done                     01/15/2018 07:33:53
00009 suncat0242 pw.x -in pw.inp   Done                     01/15/2018 07:33:53
00010 suncat0242 pw.x -in pw.inp   Done                     01/15/2018 07:33:53
00011 suncat0242 pw.x -in pw.inp   Done                     01/15/2018 07:33:53
00012 suncat0242 pw.x -in pw.inp   Done                     01/15/2018 07:33:53
00013 suncat0242 pw.x -in pw.inp   Done                     01/15/2018 07:33:53
00014 suncat0242 pw.x -in pw.inp   Done                     01/15/2018 07:33:53
00015 suncat0242 pw.x -in pw.inp   Done                     01/15/2018 07:33:53
00016 suncat0241 pw.x -in pw.inp   Done                     01/15/2018 07:33:53
00017 suncat0241 pw.x -in pw.inp   Done                     01/15/2018 07:33:53
00018 suncat0241 pw.x -in pw.inp   Done                     01/15/2018 07:33:53
00019 suncat0241 pw.x -in pw.inp   Done                     01/15/2018 07:33:53
00020 suncat0241 pw.x -in pw.inp   Done                     01/15/2018 07:33:53
00021 suncat0241 pw.x -in pw.inp   Done                     01/15/2018 07:33:53
00022 suncat0241 pw.x -in pw.inp   Done                     01/15/2018 07:33:53
00023 suncat0241 pw.x -in pw.inp   Done                     01/15/2018 07:33:53
00024 suncat0240 pw.x -in pw.inp   Done                     01/15/2018 07:33:53
00025 suncat0240 pw.x -in pw.inp   Done                     01/15/2018 07:33:53
00026 suncat0240 pw.x -in pw.inp   Done                     01/15/2018 07:33:53
00027 suncat0240 pw.x -in pw.inp   Done                     01/15/2018 07:33:53
00028 suncat0240 pw.x -in pw.inp   Done                     01/15/2018 07:33:53
00029 suncat0240 pw.x -in pw.inp   Done                     01/15/2018 07:33:53
00030 suncat0240 pw.x -in pw.inp   Done                     01/15/2018 07:33:53
00031 suncat0240 pw.x -in pw.inp   Done                     01/15/2018 07:33:53

     Program PWSCF v.5.1rc2 (svn rev. 11289) starts on 15Jan2018 at  7:33:59 

     This program is part of the open-source Quantum ESPRESSO suite
     for quantum simulation of materials; please cite
         "P. Giannozzi et al., J. Phys.:Condens. Matter 21 395502 (2009);
          URL http://www.quantum-espresso.org", 
     in publications or presentations arising from this work. More details at
     http://www.quantum-espresso.org/quote

     Parallel version (MPI), running on    32 processors
     R & G space division:  proc/nbgrp/npool/nimage =      32
     Reading input from pw.inp
     Message from routine read_cards :
     DEPRECATED: no units specified in CELL_PARAMETERS card

     Current dimensions of program PWSCF are:
     Max number of different atomic species (ntypx) = 10
     Max number of k-points (npk) =  40000
     Max angular momentum in pseudopotentials (lmaxx) =  3
     Presently stress not available with electric field


     **************************************************************************
     Initializing libbeef V0.1.1 with the BEEF-vdW functional.
     Citation: Wellendorff et al., PRB 85, 235149 (2012).
     **************************************************************************


     IMPORTANT: XC functional enforced from input :
     Exchange-correlation      = BEEF-VDW ( 1  4 27 13 2)
     Any further DFT definition will be discarded
     Please, verify this is what you really want


     Subspace diagonalization in iterative solution of the eigenvalue problem:
     a serial algorithm will be used

 
     Parallelization info
     --------------------
     sticks:   dense  smooth     PW     G-vecs:    dense   smooth      PW
     Min          84      33      9                16000     4018     623
     Max          85      34     10                16029     4064     652
     Sum        2713    1075    313               512659   129281   20533
 


     bravais-lattice index     =            0
     lattice parameter (alat)  =       1.8897  a.u.
     unit-cell volume          =    4306.9643 (a.u.)^3
     number of atoms/cell      =           13
     number of atomic types    =            2
     number of electrons       =       186.00
     number of Kohn-Sham states=          103
     kinetic-energy cutoff     =      36.7493  Ry
     charge density cutoff     =     367.4932  Ry
     convergence threshold     =      1.0E-05
     mixing beta               =       0.3000
     number of iterations used =           10  plain     mixing
     Exchange-correlation      = BEEF-VDW ( 1  4 27 13 2)
     nstep                     =           50


     celldm(1)=   1.889726  celldm(2)=   0.000000  celldm(3)=   0.000000
     celldm(4)=   0.000000  celldm(5)=   0.000000  celldm(6)=   0.000000

     crystal axes: (cart. coord. in units of alat)
               a(1) = (   5.486772   0.000000   0.000000 )  
               a(2) = (   2.743386   4.751684   0.000000 )  
               a(3) = (   0.000000   0.000000  24.479931 )  

     reciprocal axes: (cart. coord. in units 2 pi/alat)
               b(1) = (  0.182257 -0.105226  0.000000 )  
               b(2) = (  0.000000  0.210452  0.000000 )  
               b(3) = (  0.000000  0.000000  0.040850 )  


     PseudoPot. # 1 for Re read from file:
     /afs/slac.stanford.edu/u/if/mamunm/psp/gbrv1.5pbe/Re.UPF
     MD5 check sum: 85f993410f3e006da9d71c142b4ad953
     Pseudo is Ultrasoft + core correction, Zval = 15.0
     Generated by new atomic code, or converted to UPF format
     Using radial grid of  981 points,  8 beta functions with: 
                l(1) =   0
                l(2) =   0
                l(3) =   1
                l(4) =   1
                l(5) =   2
                l(6) =   2
                l(7) =   3
                l(8) =   3
     Q(r) pseudized with  8 coefficients,  rinner =    1.150   1.150   1.150
                                                       1.150   1.150   1.150
                                                       1.150

     PseudoPot. # 2 for O  read from file:
     /afs/slac.stanford.edu/u/if/mamunm/psp/gbrv1.5pbe/O.UPF
     MD5 check sum: 734c27235a0248c51dbae37a1fbe46ec
     Pseudo is Ultrasoft + core correction, Zval =  6.0
     Generated by new atomic code, or converted to UPF format
     Using radial grid of  737 points,  5 beta functions with: 
                l(1) =   0
                l(2) =   0
                l(3) =   1
                l(4) =   1
                l(5) =   2
     Q(r) pseudized with  8 coefficients,  rinner =    0.900   0.900   0.900
                                                       0.900   0.900

     vdW kernel table read from file vdW_kernel_table
     MD5 check sum: 095c7af220d748ca6e76c0b4c6cfb241

     atomic species   valence    mass     pseudopotential
        Re1           15.00   186.20700     Re( 1.00)
        O1             6.00    15.99900     O ( 1.00)

     No symmetry found



   Cartesian axes

     site n.     atom                  positions (alat units)
         1           Re1 tau(   1) = (   1.3716930   0.7919474  10.0000000  )
         2           Re1 tau(   2) = (   4.1150791   0.7919474  10.0000000  )
         3           Re1 tau(   3) = (   2.7433861   3.1677894  10.0000000  )
         4           Re1 tau(   4) = (   5.4867722   3.1677894  10.0000000  )
         5           Re1 tau(   5) = (   5.4867722   1.5838947  12.2399654  )
         6           Re1 tau(   6) = (   2.7433861   1.5838947  12.2399654  )
         7           Re1 tau(   7) = (   6.8584652   3.9597368  12.2399654  )
         8           Re1 tau(   8) = (   4.1150791   3.9597368  12.2399654  )
         9           Re1 tau(   9) = (   5.4867480   0.0000880  14.3942131  )
        10           Re1 tau(  10) = (   2.7433992   0.0070136  14.5870067  )
        11           Re1 tau(  11) = (   1.3776154   2.3723655  14.5869265  )
        12           Re1 tau(  12) = (   4.1091018   2.3722879  14.5872349  )
        13           O1  tau(  13) = (   2.7434216   1.5838763  16.1883839  )

     number of k points=    20  Fermi-Dirac smearing, width (Ry)=  0.0110
                       cart. coord. in units 2pi/alat
        k(    1) = (   0.0000000   0.0000000   0.0000000), wk =   0.0555556
        k(    2) = (   0.0000000   0.0350753   0.0000000), wk =   0.1111111
        k(    3) = (   0.0000000   0.0701506   0.0000000), wk =   0.1111111
        k(    4) = (   0.0000000  -0.1052259   0.0000000), wk =   0.0555556
        k(    5) = (   0.0303761  -0.0175376   0.0000000), wk =   0.1111111
        k(    6) = (   0.0303761   0.0175376   0.0000000), wk =   0.1111111
        k(    7) = (   0.0303761   0.0526129   0.0000000), wk =   0.1111111
        k(    8) = (   0.0303761  -0.1227635   0.0000000), wk =   0.1111111
        k(    9) = (   0.0303761  -0.0876882   0.0000000), wk =   0.1111111
        k(   10) = (   0.0303761  -0.0526129   0.0000000), wk =   0.1111111
        k(   11) = (   0.0607522  -0.0350753   0.0000000), wk =   0.1111111
        k(   12) = (   0.0607522   0.0000000   0.0000000), wk =   0.1111111
        k(   13) = (   0.0607522   0.0350753   0.0000000), wk =   0.1111111
        k(   14) = (   0.0607522  -0.1403011   0.0000000), wk =   0.1111111
        k(   15) = (   0.0607522  -0.1052259   0.0000000), wk =   0.1111111
        k(   16) = (   0.0607522  -0.0701506   0.0000000), wk =   0.1111111
        k(   17) = (  -0.0911283   0.0526129   0.0000000), wk =   0.0555556
        k(   18) = (  -0.0911283   0.0876882   0.0000000), wk =   0.1111111
        k(   19) = (  -0.0911283   0.1227635   0.0000000), wk =   0.1111111
        k(   20) = (  -0.0911283  -0.0526129   0.0000000), wk =   0.0555556

     Dense  grid:   512659 G-vectors     FFT dimensions: (  64,  64, 288)

     Smooth grid:   129281 G-vectors     FFT dimensions: (  45,  45, 180)

     Largest allocated arrays     est. size (Mb)     dimensions
        Kohn-Sham Wavefunctions         0.81 Mb     (     516,  103)
        NL pseudopotentials             3.13 Mb     (     516,  397)
        Each V/rho on FFT grid          0.56 Mb     (   36864)
        Each G-vector array             0.12 Mb     (   16029)
        G-vector shells                 0.06 Mb     (    7603)
     Largest temporary arrays     est. size (Mb)     dimensions
        Auxiliary wavefunctions         3.24 Mb     (     516,  412)
        Each subspace H/S matrix        2.59 Mb     (     412,  412)
        Each <psi_i|beta_j> matrix      0.62 Mb     (     397,  103)
        Arrays for rho mixing           5.62 Mb     (   36864,   10)

     Initial potential from superposition of free atoms
     Check: negative starting charge=   -1.539364

     starting charge  179.99946, renormalised to  186.00000

     negative rho (up, down):  1.591E+00 0.000E+00


     ************************************************************************
     *
     * You are using vdW-DF for exchange-correlation in this calculation.
     * Please cite the following three references that made this development
     * possible:
     *
     *   M. Dion, H. Rydberg, E. Schroder, D. C. Langreth, and
     *   B. I. Lundqvist, Phys. Rev. Lett. 92, 246401 (2004).
     *
     *   T. Thonhauser, V. R. Cooper, S. Li, A. Puzder, P. Hyldgaard, and
     *   D. C. Langreth, Phys. Rev. B 76, 125112 (2007).
     *
     *   G. Roman-Perez and J. M. Soler, Phys. Rev. Lett. 103, 096102 (2009).
     *
     *
     * If you are using vdW-DF2, please also cite:
     *
     *   K. Lee, E. D. Murray, L. Kong, B. I. Lundqvist, and
     *   D. C. Langreth, Phys. Rev. B 82, 081101(R) (2010).
     *
     *
     * If you are calculating the stress with vdW-DF, please also cite:
     *
     *   R. Sabatini, E. Kucukbenli, B. Kolb, T. Thonhauser, and
     *   S. de Gironcoli, J. Phys.: Condens. Matter 24, 424209 (2012).
     *
     ************************************************************************

     Carrying out vdW-DF run using the following parameters:

     Nqs =      20    Nr_points =    1024   r_max =   100.000
     q_mesh =
               0.00001000     0.04494208     0.09755937     0.15916263
               0.23128650     0.31572767     0.41458969     0.53033537
               0.66584808     0.82450364     1.01025438     1.22772762
               1.48234092     1.78043706     2.12944203     2.53805004
               3.01644009     3.57652955     4.23227104     5.00000000

     Gradients computed in reciprocal space

     ************************************************************************


 
     Adding external electric field

     Computed dipole along edir(3) : 
        Dipole               -1.4850 Ry au,         -3.7745 Debye
        Dipole field         -0.0043 Ry au
 
        Potential amp.        0.3908 Ry
        Total length         45.1039 bohr
 
     Starting wfc are  160 randomized atomic wfcs

     total cpu time spent up to now is       20.4 secs

     per-process dynamical memory:    49.8 Mb

     Self-consistent Calculation

     iteration #  1     ecut=    36.75 Ry     beta=0.30
     Davidson diagonalization with overlap
     ethr =  1.00E-02,  avg # of iterations =  2.0

     negative rho (up, down):  1.606E+00 0.000E+00
 
     Adding external electric field

     Computed dipole along edir(3) : 
        Dipole               20.4591 Ry au,         52.0019 Debye
        Dipole field          0.0597 Ry au
 
        Potential amp.       -5.3848 Ry
        Total length         45.1039 bohr
 

     total cpu time spent up to now is       58.2 secs

     total energy              =   -2306.84747064 Ry
     Harris-Foulkes estimate   =   -2339.02945494 Ry
     estimated scf accuracy    <      66.39678201 Ry

     iteration #  2     ecut=    36.75 Ry     beta=0.30
     Davidson diagonalization with overlap
     ethr =  1.00E-02,  avg # of iterations = 12.5

     negative rho (up, down):  1.600E+00 0.000E+00
 
     Adding external electric field

     Computed dipole along edir(3) : 
        Dipole               -4.0032 Ry au,        -10.1750 Debye
        Dipole field         -0.0117 Ry au
 
        Potential amp.        1.0536 Ry
        Total length         45.1039 bohr
 

     total cpu time spent up to now is      158.8 secs

     total energy              =   -2189.91546768 Ry
     Harris-Foulkes estimate   =   -2543.54778785 Ry
     estimated scf accuracy    <    8783.95538519 Ry

     iteration #  3     ecut=    36.75 Ry     beta=0.30
     Davidson diagonalization with overlap
     ethr =  1.00E-02,  avg # of iterations =  8.1

     negative rho (up, down):  1.598E+00 0.000E+00
 
     Adding external electric field

     Computed dipole along edir(3) : 
        Dipole               -2.3945 Ry au,         -6.0862 Debye
        Dipole field         -0.0070 Ry au
 
        Potential amp.        0.6302 Ry
        Total length         45.1039 bohr
 

     total cpu time spent up to now is      236.4 secs

     total energy              =   -2328.77010424 Ry
     Harris-Foulkes estimate   =   -2364.42652765 Ry
     estimated scf accuracy    <     729.17229942 Ry

     iteration #  4     ecut=    36.75 Ry     beta=0.30
     Davidson diagonalization with overlap
     ethr =  1.00E-02,  avg # of iterations =  6.7

     negative rho (up, down):  1.602E+00 0.000E+00
 
     Adding external electric field

     Computed dipole along edir(3) : 
        Dipole               -1.6403 Ry au,         -4.1693 Debye
        Dipole field         -0.0048 Ry au
 
        Potential amp.        0.4317 Ry
        Total length         45.1039 bohr
 

     total cpu time spent up to now is      296.3 secs

     total energy              =   -2337.85138019 Ry
     Harris-Foulkes estimate   =   -2339.34756635 Ry
     estimated scf accuracy    <      26.06621109 Ry

     iteration #  5     ecut=    36.75 Ry     beta=0.30
     Davidson diagonalization with overlap
     ethr =  1.00E-02,  avg # of iterations =  1.6

     negative rho (up, down):  1.611E+00 0.000E+00
 
     Adding external electric field

     Computed dipole along edir(3) : 
        Dipole               -1.7619 Ry au,         -4.4782 Debye
        Dipole field         -0.0051 Ry au
 
        Potential amp.        0.4637 Ry
        Total length         45.1039 bohr
 

     total cpu time spent up to now is      328.5 secs

     total energy              =   -2338.19012159 Ry
     Harris-Foulkes estimate   =   -2338.48794230 Ry
     estimated scf accuracy    <       3.54491175 Ry

     iteration #  6     ecut=    36.75 Ry     beta=0.30
     Davidson diagonalization with overlap
     ethr =  1.91E-03,  avg # of iterations =  5.6

     negative rho (up, down):  1.623E+00 0.000E+00
 
     Adding external electric field

     Computed dipole along edir(3) : 
        Dipole               -1.5918 Ry au,         -4.0459 Debye
        Dipole field         -0.0046 Ry au
 
        Potential amp.        0.4190 Ry
        Total length         45.1039 bohr
 

     total cpu time spent up to now is      368.8 secs

     total energy              =   -2338.36722877 Ry
     Harris-Foulkes estimate   =   -2338.47407140 Ry
     estimated scf accuracy    <       0.48920832 Ry

     iteration #  7     ecut=    36.75 Ry     beta=0.30
     Davidson diagonalization with overlap
     ethr =  2.63E-04,  avg # of iterations =  7.0

     negative rho (up, down):  1.622E+00 0.000E+00
 
     Adding external electric field

     Computed dipole along edir(3) : 
        Dipole               -1.4998 Ry au,         -3.8120 Debye
        Dipole field         -0.0044 Ry au
 
        Potential amp.        0.3947 Ry
        Total length         45.1039 bohr
 

     total cpu time spent up to now is      419.1 secs

     total energy              =   -2338.43056871 Ry
     Harris-Foulkes estimate   =   -2338.47147961 Ry
     estimated scf accuracy    <       0.98379692 Ry

     iteration #  8     ecut=    36.75 Ry     beta=0.30
     Davidson diagonalization with overlap
     ethr =  2.63E-04,  avg # of iterations =  1.7

     negative rho (up, down):  1.618E+00 0.000E+00
 
     Adding external electric field

     Computed dipole along edir(3) : 
        Dipole               -1.4097 Ry au,         -3.5831 Debye
        Dipole field         -0.0041 Ry au
 
        Potential amp.        0.3710 Ry
        Total length         45.1039 bohr
 

     total cpu time spent up to now is      451.9 secs

     total energy              =   -2338.44260737 Ry
     Harris-Foulkes estimate   =   -2338.45496944 Ry
     estimated scf accuracy    <       0.16060414 Ry

     iteration #  9     ecut=    36.75 Ry     beta=0.30
     Davidson diagonalization with overlap
     ethr =  8.63E-05,  avg # of iterations =  5.4

     negative rho (up, down):  1.617E+00 0.000E+00
 
     Adding external electric field

     Computed dipole along edir(3) : 
        Dipole               -1.3381 Ry au,         -3.4011 Debye
        Dipole field         -0.0039 Ry au
 
        Potential amp.        0.3522 Ry
        Total length         45.1039 bohr
 

     total cpu time spent up to now is      490.5 secs

     total energy              =   -2338.44881933 Ry
     Harris-Foulkes estimate   =   -2338.45594794 Ry
     estimated scf accuracy    <       0.17735473 Ry

     iteration # 10     ecut=    36.75 Ry     beta=0.30
     Davidson diagonalization with overlap
     ethr =  8.63E-05,  avg # of iterations =  1.0

     negative rho (up, down):  1.617E+00 0.000E+00
 
     Adding external electric field

     Computed dipole along edir(3) : 
        Dipole               -1.2203 Ry au,         -3.1017 Debye
        Dipole field         -0.0036 Ry au
 
        Potential amp.        0.3212 Ry
        Total length         45.1039 bohr
 

     total cpu time spent up to now is      522.1 secs

     total energy              =   -2338.44564827 Ry
     Harris-Foulkes estimate   =   -2338.45176595 Ry
     estimated scf accuracy    <       0.08642234 Ry

     iteration # 11     ecut=    36.75 Ry     beta=0.30
     Davidson diagonalization with overlap
     ethr =  4.65E-05,  avg # of iterations =  1.1

     negative rho (up, down):  1.618E+00 0.000E+00
 
     Adding external electric field

     Computed dipole along edir(3) : 
        Dipole               -1.1175 Ry au,         -2.8403 Debye
        Dipole field         -0.0033 Ry au
 
        Potential amp.        0.2941 Ry
        Total length         45.1039 bohr
 

     total cpu time spent up to now is      553.7 secs

     total energy              =   -2338.44346139 Ry
     Harris-Foulkes estimate   =   -2338.44757935 Ry
     estimated scf accuracy    <       0.03959623 Ry

     iteration # 12     ecut=    36.75 Ry     beta=0.30
     Davidson diagonalization with overlap
     c_bands:  1 eigenvalues not converged
     ethr =  2.13E-05,  avg # of iterations =  2.5

     negative rho (up, down):  1.618E+00 0.000E+00
 
     Adding external electric field

     Computed dipole along edir(3) : 
        Dipole               -1.0761 Ry au,         -2.7352 Debye
        Dipole field         -0.0031 Ry au
 
        Potential amp.        0.2832 Ry
        Total length         45.1039 bohr
 

     total cpu time spent up to now is      586.8 secs

     total energy              =   -2338.44297483 Ry
     Harris-Foulkes estimate   =   -2338.44437247 Ry
     estimated scf accuracy    <       0.02172637 Ry

     iteration # 13     ecut=    36.75 Ry     beta=0.30
     Davidson diagonalization with overlap
     ethr =  1.17E-05,  avg # of iterations =  5.5

     negative rho (up, down):  1.618E+00 0.000E+00
 
     Adding external electric field

     Computed dipole along edir(3) : 
        Dipole               -0.3777 Ry au,         -0.9599 Debye
        Dipole field         -0.0011 Ry au
 
        Potential amp.        0.0994 Ry
        Total length         45.1039 bohr
 

     total cpu time spent up to now is      624.4 secs

     total energy              =   -2338.43413525 Ry
     Harris-Foulkes estimate   =   -2338.44624335 Ry
     estimated scf accuracy    <       0.01636938 Ry

     iteration # 14     ecut=    36.75 Ry     beta=0.30
     Davidson diagonalization with overlap
     ethr =  8.80E-06,  avg # of iterations =  6.5

     negative rho (up, down):  1.618E+00 0.000E+00
 
     Adding external electric field

     Computed dipole along edir(3) : 
        Dipole               -0.2994 Ry au,         -0.7610 Debye
        Dipole field         -0.0009 Ry au
 
        Potential amp.        0.0788 Ry
        Total length         45.1039 bohr
 

     total cpu time spent up to now is      677.0 secs

     total energy              =   -2338.43629151 Ry
     Harris-Foulkes estimate   =   -2338.44260298 Ry
     estimated scf accuracy    <       0.12948012 Ry

     iteration # 15     ecut=    36.75 Ry     beta=0.30
     Davidson diagonalization with overlap
     ethr =  8.80E-06,  avg # of iterations =  3.6

     negative rho (up, down):  1.619E+00 0.000E+00
 
     Adding external electric field

     Computed dipole along edir(3) : 
        Dipole               -0.3272 Ry au,         -0.8317 Debye
        Dipole field         -0.0010 Ry au
 
        Potential amp.        0.0861 Ry
        Total length         45.1039 bohr
 

     total cpu time spent up to now is      712.8 secs

     total energy              =   -2338.43339189 Ry
     Harris-Foulkes estimate   =   -2338.43764390 Ry
     estimated scf accuracy    <       0.03903096 Ry

     iteration # 16     ecut=    36.75 Ry     beta=0.30
     Davidson diagonalization with overlap
     ethr =  8.80E-06,  avg # of iterations =  5.5

     negative rho (up, down):  1.619E+00 0.000E+00
 
     Adding external electric field

     Computed dipole along edir(3) : 
        Dipole               -0.2843 Ry au,         -0.7226 Debye
        Dipole field         -0.0008 Ry au
 
        Potential amp.        0.0748 Ry
        Total length         45.1039 bohr
 

     total cpu time spent up to now is      755.3 secs

     total energy              =   -2338.43572973 Ry
     Harris-Foulkes estimate   =   -2338.43602179 Ry
     estimated scf accuracy    <       0.00144304 Ry

     iteration # 17     ecut=    36.75 Ry     beta=0.30
     Davidson diagonalization with overlap
     ethr =  7.76E-07,  avg # of iterations =  4.8

     negative rho (up, down):  1.619E+00 0.000E+00
 
     Adding external electric field

     Computed dipole along edir(3) : 
        Dipole               -0.2421 Ry au,         -0.6154 Debye
        Dipole field         -0.0007 Ry au
 
        Potential amp.        0.0637 Ry
        Total length         45.1039 bohr
 

[...]
   -39.7379 -39.7013 -39.6907 -39.5402 -39.4907 -39.4764 -39.4173 -39.3933
   -39.3842 -39.3264 -39.2467 -39.2174 -39.1848 -39.1726 -39.1487 -39.1240
   -39.1071 -39.0604 -39.0371 -39.0273 -39.0059 -38.9835 -38.9536 -38.9394
   -38.9229 -38.8881 -38.8393 -38.8350 -38.8164 -38.7734 -38.7391 -38.6746
   -16.6462  -5.4611  -3.9239  -3.5564  -3.4379  -3.1560  -3.0698  -2.9407
    -2.7955  -2.6331  -2.4445  -2.1829  -2.1613  -1.9576  -1.8524  -1.6860
    -1.4498  -1.2670  -0.6560  -0.4151  -0.3304  -0.2508   0.0127   0.4144
     0.4448   0.5736   0.6381   0.6547   0.9301   1.0699   1.2705   1.3797
     1.4646   1.5551   1.6079   1.7847   1.8330   2.0169   2.1308   2.2465
     2.4222   2.5637   2.6083   2.6497   2.7713   2.9451   3.2511   3.3457
     3.5611   3.9039   4.1692   4.3655   4.4852   4.8484   4.8997

          k = 0.0608-0.0351 0.0000 ( 16185 PWs)   bands (ev):

   -77.6929 -77.6495 -77.6348 -77.6034 -77.5403 -77.5090 -77.4957 -77.4670
   -77.4329 -77.4175 -77.4114 -77.3292 -39.9144 -39.7880 -39.7665 -39.7410
   -39.7001 -39.6750 -39.6691 -39.5238 -39.4795 -39.4610 -39.4190 -39.4112
   -39.3738 -39.3247 -39.2452 -39.2313 -39.1873 -39.1768 -39.1623 -39.1161
   -39.1143 -39.0869 -39.0572 -39.0320 -39.0157 -38.9820 -38.9713 -38.9390
   -38.9288 -38.9048 -38.8918 -38.8600 -38.8018 -38.7874 -38.7382 -38.6809
   -16.6402  -5.2421  -3.9641  -3.4944  -3.2828  -3.1743  -2.9850  -2.6948
    -2.5431  -2.5157  -2.3220  -2.1446  -2.0447  -1.8379  -1.7341  -1.5721
    -1.3336  -1.0535  -0.5953  -0.4223  -0.3501  -0.2673  -0.0929   0.2204
     0.2785   0.3344   0.6007   0.7300   1.0127   1.0339   1.1967   1.3213
     1.3315   1.5129   1.6207   1.8162   1.9316   1.9496   2.0803   2.0977
     2.2052   2.2317   2.3988   2.5130   2.6093   2.8605   3.1252   3.1929
     3.6243   3.9523   4.0041   4.1361   4.4029   4.4545   4.6163

          k = 0.0608 0.0000 0.0000 ( 16230 PWs)   bands (ev):

   -77.6962 -77.6462 -77.6350 -77.6053 -77.5404 -77.5072 -77.4954 -77.4708
   -77.4270 -77.4212 -77.4096 -77.3290 -39.9399 -39.8127 -39.7721 -39.7600
   -39.7379 -39.7012 -39.6909 -39.5401 -39.4910 -39.4763 -39.4174 -39.3931
   -39.3844 -39.3263 -39.2468 -39.2174 -39.1848 -39.1727 -39.1488 -39.1238
   -39.1072 -39.0603 -39.0370 -39.0274 -39.0060 -38.9835 -38.9534 -38.9395
   -38.9230 -38.8881 -38.8392 -38.8350 -38.8165 -38.7734 -38.7391 -38.6746
   -16.6462  -5.4612  -3.9239  -3.5563  -3.4379  -3.1559  -3.0698  -2.9407
    -2.7955  -2.6331  -2.4446  -2.1829  -2.1613  -1.9577  -1.8523  -1.6860
    -1.4499  -1.2669  -0.6559  -0.4152  -0.3305  -0.2506   0.0127   0.4145
     0.4449   0.5737   0.6381   0.6544   0.9302   1.0700   1.2706   1.3795
     1.4646   1.5551   1.6080   1.7847   1.8329   2.0169   2.1309   2.2465
     2.4221   2.5636   2.6084   2.6496   2.7714   2.9452   3.2512   3.3457
     3.5610   3.9039   4.1692   4.3653   4.4853   4.8483   4.9000

          k = 0.0608 0.0351 0.0000 ( 16185 PWs)   bands (ev):

   -77.6929 -77.6495 -77.6347 -77.6033 -77.5405 -77.5084 -77.4961 -77.4669
   -77.4330 -77.4170 -77.4117 -77.3292 -39.9144 -39.7878 -39.7668 -39.7411
   -39.7001 -39.6751 -39.6690 -39.5239 -39.4794 -39.4610 -39.4190 -39.4112
   -39.3737 -39.3247 -39.2451 -39.2314 -39.1874 -39.1767 -39.1622 -39.1160
   -39.1145 -39.0868 -39.0571 -39.0318 -39.0158 -38.9820 -38.9715 -38.9389
   -38.9288 -38.9050 -38.8917 -38.8600 -38.8018 -38.7874 -38.7382 -38.6809
   -16.6403  -5.2420  -3.9639  -3.4945  -3.2828  -3.1744  -2.9851  -2.6948
    -2.5430  -2.5157  -2.3220  -2.1445  -2.0449  -1.8379  -1.7341  -1.5720
    -1.3334  -1.0536  -0.5952  -0.4224  -0.3502  -0.2673  -0.0928   0.2204
     0.2786   0.3345   0.6008   0.7301   1.0128   1.0338   1.1967   1.3215
     1.3313   1.5128   1.6207   1.8161   1.9317   1.9497   2.0803   2.0977
     2.2052   2.2317   2.3988   2.5130   2.6093   2.8605   3.1253   3.1928
     3.6243   3.9523   4.0042   4.1361   4.4028   4.4546   4.6163

          k = 0.0608-0.1403 0.0000 ( 16218 PWs)   bands (ev):

   -77.6847 -77.6564 -77.6355 -77.5995 -77.5377 -77.5166 -77.4947 -77.4565
   -77.4390 -77.4254 -77.4079 -77.3295 -39.8483 -39.7326 -39.7126 -39.6913
   -39.6585 -39.6294 -39.5912 -39.5238 -39.4892 -39.4604 -39.4314 -39.4037
   -39.3528 -39.3193 -39.2742 -39.2380 -39.2074 -39.1720 -39.1631 -39.1449
   -39.1203 -39.1028 -39.0780 -39.0672 -39.0487 -39.0223 -38.9977 -38.9789
   -38.9495 -38.9307 -38.8918 -38.8550 -38.8316 -38.7877 -38.7667 -38.7258
   -16.6283  -4.6481  -3.9132  -3.3879  -3.1730  -3.0257  -2.6514  -2.4959
    -2.2585  -2.1155  -1.9855  -1.8099  -1.6506  -1.5629  -1.3918  -1.2193
    -1.0462  -0.9162  -0.6670  -0.5176  -0.4214  -0.3357  -0.1999  -0.1303
     0.0821   0.1871   0.3422   0.4874   0.7025   0.8276   0.8998   1.0048
     1.0419   1.1341   1.2122   1.3960   1.5061   1.6999   1.8513   1.9745
     2.0555   2.2684   2.3554   2.4035   2.9063   3.0440   3.1522   3.2146
     3.4939   3.5477   3.6860   3.7620   4.1422   4.2862   4.4533

          k = 0.0608-0.1052 0.0000 ( 16272 PWs)   bands (ev):

   -77.6789 -77.6613 -77.6363 -77.5977 -77.5309 -77.5267 -77.4935 -77.4466
   -77.4390 -77.4374 -77.4057 -77.3297 -39.7955 -39.7030 -39.6672 -39.6346
   -39.6337 -39.6258 -39.5493 -39.5454 -39.5351 -39.5100 -39.4090 -39.3618
   -39.3177 -39.3144 -39.2800 -39.2424 -39.2200 -39.2098 -39.1799 -39.1727
   -39.1550 -39.1089 -39.1002 -39.0611 -39.0441 -39.0231 -39.0056 -39.0039
   -38.9694 -38.9293 -38.8726 -38.8352 -38.8239 -38.7992 -38.7922 -38.7898
   -16.6223  -4.1339  -3.6680  -3.6441  -3.0679  -3.0472  -2.8137  -2.0943
    -2.0591  -1.8464  -1.5074  -1.5014  -1.2926  -1.2802  -1.2269  -1.0140
    -1.0016  -0.9529  -0.9237  -0.6214  -0.6001  -0.4118  -0.3389  -0.1818
    -0.0237   0.1075   0.1603   0.2235   0.2533   0.4598   0.5317   0.5980
     0.7688   0.7878   1.3464   1.3599   1.4767   1.7567   1.7777   1.8861
     2.0587   2.2674   2.2677   2.6694   2.6951   2.7279   3.2927   3.4881
     3.5002   3.5912   3.8485   3.8885   3.9975   4.4662   4.8395

          k = 0.0608-0.0702 0.0000 ( 16218 PWs)   bands (ev):

   -77.6848 -77.6564 -77.6355 -77.5996 -77.5374 -77.5172 -77.4945 -77.4566
   -77.4387 -77.4257 -77.4078 -77.3295 -39.8483 -39.7327 -39.7125 -39.6913
   -39.6585 -39.6293 -39.5912 -39.5238 -39.4893 -39.4604 -39.4315 -39.4038
   -39.3528 -39.3193 -39.2741 -39.2379 -39.2074 -39.1720 -39.1630 -39.1450
   -39.1204 -39.1029 -39.0779 -39.0673 -39.0486 -39.0223 -38.9976 -38.9790
   -38.9494 -38.9308 -38.8918 -38.8550 -38.8316 -38.7878 -38.7666 -38.7258
   -16.6283  -4.6481  -3.9133  -3.3879  -3.1730  -3.0255  -2.6514  -2.4958
    -2.2585  -2.1156  -1.9854  -1.8098  -1.6505  -1.5629  -1.3919  -1.2193
    -1.0462  -0.9163  -0.6670  -0.5177  -0.4215  -0.3358  -0.1998  -0.1303
     0.0820   0.1870   0.3423   0.4873   0.7027   0.8278   0.8998   1.0049
     1.0418   1.1341   1.2122   1.3959   1.5060   1.6999   1.8513   1.9744
     2.0555   2.2683   2.3554   2.4034   2.9062   3.0440   3.1522   3.2147
     3.4939   3.5478   3.6860   3.7620   4.1421   4.2863   4.4533

          k =-0.0911 0.0526 0.0000 ( 16164 PWs)   bands (ev):

   -77.6843 -77.6575 -77.6348 -77.5994 -77.5392 -77.5143 -77.4957 -77.4530
   -77.4465 -77.4179 -77.4114 -77.3295 -39.8516 -39.7370 -39.7300 -39.6922
   -39.6745 -39.6237 -39.5214 -39.5165 -39.4776 -39.4752 -39.4366 -39.4098
   -39.4056 -39.3060 -39.2539 -39.2093 -39.2055 -39.1841 -39.1447 -39.1162
   -39.1161 -39.1115 -39.0849 -39.0671 -39.0571 -39.0495 -39.0197 -38.9886
   -38.9460 -38.9421 -38.9163 -38.8609 -38.8462 -38.7627 -38.7334 -38.7230
   -16.6283  -4.5121  -4.2236  -3.4657  -3.0863  -3.0333  -2.6024  -2.3131
    -2.1477  -2.0799  -2.0603  -2.0341  -1.7244  -1.5091  -1.2618  -1.2260
    -0.9544  -0.8958  -0.8344  -0.5009  -0.3541  -0.2692  -0.2214  -0.2067
     0.1298   0.1484   0.5757   0.7000   0.8824   0.9190   0.9915   1.0573
     1.1147   1.1913   1.2476   1.3581   1.5116   1.5525   1.6369   1.7979
     1.9759   2.0072   2.2075   2.8314   2.9915   3.0140   3.0301   3.2548
     3.3843   3.5226   3.6759   3.7472   4.0366   4.1429   4.2201

          k =-0.0911 0.0877 0.0000 ( 16218 PWs)   bands (ev):

   -77.6847 -77.6564 -77.6355 -77.5996 -77.5375 -77.5171 -77.4945 -77.4566
   -77.4386 -77.4258 -77.4078 -77.3295 -39.8483 -39.7327 -39.7125 -39.6914
   -39.6585 -39.6293 -39.5912 -39.5239 -39.4893 -39.4602 -39.4315 -39.4038
   -39.3528 -39.3193 -39.2741 -39.2381 -39.2073 -39.1720 -39.1628 -39.1450
   -39.1204 -39.1029 -39.0779 -39.0673 -39.0487 -39.0222 -38.9975 -38.9789
   -38.9495 -38.9308 -38.8918 -38.8548 -38.8317 -38.7878 -38.7666 -38.7258
   -16.6283  -4.6482  -3.9132  -3.3881  -3.1729  -3.0254  -2.6514  -2.4959
    -2.2585  -2.1156  -1.9854  -1.8099  -1.6505  -1.5630  -1.3918  -1.2194
    -1.0462  -0.9163  -0.6670  -0.5177  -0.4216  -0.3357  -0.1999  -0.1302
     0.0821   0.1870   0.3424   0.4872   0.7026   0.8278   0.8998   1.0050
     1.0418   1.1341   1.2122   1.3960   1.5060   1.6999   1.8514   1.9744
     2.0554   2.2684   2.3555   2.4035   2.9062   3.0440   3.1520   3.2149
     3.4940   3.5479   3.6859   3.7621   4.1420   4.2863   4.4533

          k =-0.0911 0.1228 0.0000 ( 16218 PWs)   bands (ev):

   -77.6847 -77.6565 -77.6355 -77.5995 -77.5377 -77.5167 -77.4947 -77.4566
   -77.4388 -77.4256 -77.4078 -77.3295 -39.8483 -39.7326 -39.7126 -39.6913
   -39.6585 -39.6294 -39.5912 -39.5238 -39.4894 -39.4602 -39.4314 -39.4038
   -39.3528 -39.3193 -39.2741 -39.2382 -39.2074 -39.1720 -39.1628 -39.1451
   -39.1203 -39.1028 -39.0780 -39.0671 -39.0488 -39.0221 -38.9976 -38.9789
   -38.9497 -38.9308 -38.8918 -38.8549 -38.8317 -38.7877 -38.7667 -38.7258
   -16.6283  -4.6481  -3.9131  -3.3882  -3.1729  -3.0255  -2.6514  -2.4960
    -2.2585  -2.1156  -1.9855  -1.8099  -1.6506  -1.5629  -1.3918  -1.2194
    -1.0462  -0.9163  -0.6669  -0.5177  -0.4216  -0.3357  -0.1999  -0.1301
     0.0821   0.1870   0.3424   0.4873   0.7024   0.8278   0.8999   1.0051
     1.0417   1.1341   1.2123   1.3959   1.5060   1.6999   1.8514   1.9745
     2.0554   2.2685   2.3555   2.4035   2.9062   3.0442   3.1518   3.2148
     3.4940   3.5478   3.6859   3.7621   4.1420   4.2863   4.4532

          k =-0.0911-0.0526 0.0000 ( 16164 PWs)   bands (ev):

   -77.6843 -77.6576 -77.6347 -77.5993 -77.5396 -77.5136 -77.4961 -77.4527
   -77.4469 -77.4174 -77.4117 -77.3295 -39.8516 -39.7367 -39.7302 -39.6924
   -39.6744 -39.6238 -39.5214 -39.5165 -39.4776 -39.4753 -39.4365 -39.4096
   -39.4055 -39.3060 -39.2540 -39.2094 -39.2055 -39.1843 -39.1445 -39.1164
   -39.1160 -39.1114 -39.0848 -39.0671 -39.0571 -39.0496 -39.0195 -38.9888
   -38.9460 -38.9419 -38.9165 -38.8608 -38.8462 -38.7626 -38.7336 -38.7230
   -16.6283  -4.5120  -4.2235  -3.4656  -3.0864  -3.0335  -2.6026  -2.3130
    -2.1478  -2.0799  -2.0601  -2.0344  -1.7243  -1.5092  -1.2620  -1.2258
    -0.9542  -0.8957  -0.8346  -0.5007  -0.3543  -0.2692  -0.2214  -0.2064
     0.1298   0.1486   0.5755   0.7002   0.8822   0.9187   0.9918   1.0572
     1.1146   1.1913   1.2475   1.3584   1.5116   1.5524   1.6369   1.7982
     1.9761   2.0069   2.2077   2.8315   2.9912   3.0141   3.0305   3.2548
     3.3842   3.5222   3.6761   3.7472   4.0364   4.1430   4.2200

     the Fermi energy is     3.0246 ev

!    total energy              =   -2338.51945347 Ry
     Harris-Foulkes estimate   =   -2338.51945919 Ry
     estimated scf accuracy    <       0.00000573 Ry

     The total energy is the sum of the following terms:

     one-electron contribution =  -19257.92116692 Ry
     hartree contribution      =    9616.85206030 Ry
     xc contribution           =    -657.21003123 Ry
     ewald contribution        =    7959.82248232 Ry
     electric field correction =       0.00000025 Ry
     smearing contrib. (-TS)   =      -0.06279819 Ry

     convergence has been achieved in  20 iterations
 
 BEEF-vdW xc energy contributions
           1 :   -584.217988770071     
           2 :    543.066138151033     
           3 :   -469.207627599229     
           4 :    376.662983877011     
           5 :   -280.882346332692     
           6 :    194.842108657670     
           7 :   -126.436208625763     
           8 :    77.7358531887202     
           9 :   -46.0688259611098     
          10 :    26.2488676113900     
          11 :   -12.9840610234423     
          12 :    2.59362500861801     
          13 :    6.39138905895209     
          14 :   -13.6593581908170     
          15 :    18.1448658469664     
          16 :   -19.1082090843555     
          17 :    16.8109170485371     
          18 :   -12.5711356229268     
          19 :    8.26681638536581     
          20 :   -5.58002682284280     
          21 :    5.34696813540052     
          22 :   -7.29566493234768     
          23 :    10.2605462095254     
          24 :   -12.7535458660426     
          25 :    13.6205854598679     
          26 :   -12.4964273134020     
          27 :    9.87984271508856     
          28 :   -6.82981251709077     
          29 :    4.44942808721737     
          30 :   -3.40700961281652     
          31 :   -48.6907899885772     
          32 :   -36.1252908682660     

     Forces acting on atoms (Ry/au):


     negative rho (up, down):  1.622E+00 0.000E+00
     atom    1 type  1   force =     0.00014884    0.00001014    0.01430304
     atom    2 type  1   force =    -0.00016463    0.00009016    0.01438400
     atom    3 type  1   force =     0.00008935   -0.00015746    0.01459830
     atom    4 type  1   force =    -0.00008273    0.00005105    0.01939913
     atom    5 type  1   force =    -0.00008346   -0.00097123   -0.01876515
     atom    6 type  1   force =     0.00005376   -0.00012322   -0.00697713
     atom    7 type  1   force =     0.00071487    0.00059350   -0.01869072
     atom    8 type  1   force =    -0.00070052    0.00054241   -0.01857943
     atom    9 type  1   force =     0.00010170   -0.00020661    0.00038024
     atom   10 type  1   force =    -0.00006294    0.00005788    0.00005646
     atom   11 type  1   force =     0.00005049    0.00007047   -0.00003315
     atom   12 type  1   force =    -0.00011839    0.00011280    0.00004131
     atom   13 type  2   force =     0.00005366   -0.00006991   -0.00011690

     Total force =     0.045818     Total SCF correction =     0.014120
     SCF correction compared to forces is large: reduce conv_thr to get better values


     entering subroutine stress ...


     negative rho (up, down):  1.622E+00 0.000E+00
          total   stress  (Ry/bohr**3)                   (kbar)     P=  -14.05
  -0.00009269  -0.00000002   0.00000000        -13.64     -0.00      0.00
  -0.00000002  -0.00009278  -0.00000002         -0.00    -13.65     -0.00
   0.00000000  -0.00000002  -0.00010102          0.00     -0.00    -14.86

 !ASE

     Writing output data file calc.save
 
     init_run     :     14.10s CPU     19.95s WALL (       1 calls)
     electrons    :    674.57s CPU    925.34s WALL (       1 calls)
     forces       :      5.81s CPU      6.47s WALL (       1 calls)
     stress       :     19.48s CPU     20.86s WALL (       1 calls)

     Called by init_run:
     wfcinit      :     11.19s CPU     16.28s WALL (       1 calls)
     potinit      :      1.10s CPU      1.65s WALL (       1 calls)

     Called by electrons:
     c_bands      :    515.91s CPU    705.16s WALL (      20 calls)
     sum_band     :     84.20s CPU    117.95s WALL (      20 calls)
     v_of_rho     :     20.00s CPU     30.39s WALL (      21 calls)
     newd         :     23.95s CPU     24.41s WALL (      21 calls)
     mix_rho      :      0.76s CPU      1.18s WALL (      20 calls)
     vdW_energy   :      2.57s CPU      2.79s WALL (      57 calls)
     vdW_ffts     :     32.37s CPU     51.85s WALL (     116 calls)
     vdW_v        :      6.37s CPU      9.37s WALL (      57 calls)

     Called by c_bands:
     init_us_2    :      1.38s CPU      1.46s WALL (     860 calls)
     cegterg      :    497.40s CPU    685.69s WALL (     400 calls)

     Called by *egterg:
     h_psi        :    318.18s CPU    491.96s WALL (    2121 calls)
     s_psi        :     21.18s CPU     21.32s WALL (    2121 calls)
     g_psi        :      0.73s CPU      0.74s WALL (    1701 calls)
     cdiaghg      :    103.53s CPU    107.15s WALL (    2101 calls)

     Called by h_psi:
     add_vuspsi   :     21.84s CPU     22.05s WALL (    2121 calls)

     General routines
     calbec       :     42.14s CPU     50.40s WALL (    2561 calls)
     fft          :     49.29s CPU     78.92s WALL (    3489 calls)
     ffts         :      0.15s CPU      0.26s WALL (      41 calls)
     fftw         :    301.42s CPU    498.61s WALL (  266652 calls)
     interpolate  :      0.69s CPU      1.14s WALL (      41 calls)
     davcio       :      0.00s CPU      0.02s WALL (      20 calls)
 
     Parallel routines
     fft_scatter  :    307.85s CPU    532.17s WALL (  270182 calls)
 
     PWSCF        : 11m54.77s CPU    16m13.88s WALL

 
   This run was terminated on:  10:19:30  15Jan2018            

=------------------------------------------------------------------------------=
   JOB DONE.
=------------------------------------------------------------------------------=
Job  /afs/slac/g/suncat/bin/suncat-tsmpirun -x LD_LIBRARY_PATH -wdir /scratch/qe842473_0TckQ pw.x -in pw.inp

TID   HOST_NAME   COMMAND_LINE            STATUS            TERMINATION_TIME
===== ========== ================  =======================  ===================
00000 suncat0050 pw.x -in pw.inp   Done                     01/15/2018 10:19:30
00001 suncat0050 pw.x -in pw.inp   Done                     01/15/2018 10:19:30
00002 suncat0050 pw.x -in pw.inp   Done                     01/15/2018 10:19:30
00003 suncat0050 pw.x -in pw.inp   Done                     01/15/2018 10:19:30
00004 suncat0050 pw.x -in pw.inp   Done                     01/15/2018 10:19:30
00005 suncat0050 pw.x -in pw.inp   Done                     01/15/2018 10:19:30
00006 suncat0050 pw.x -in pw.inp   Done                     01/15/2018 10:19:30
00007 suncat0050 pw.x -in pw.inp   Done                     01/15/2018 10:19:30
00008 suncat0242 pw.x -in pw.inp   Done                     01/15/2018 10:19:30
00009 suncat0242 pw.x -in pw.inp   Done                     01/15/2018 10:19:30
00010 suncat0242 pw.x -in pw.inp   Done                     01/15/2018 10:19:30
00011 suncat0242 pw.x -in pw.inp   Done                     01/15/2018 10:19:30
00012 suncat0242 pw.x -in pw.inp   Done                     01/15/2018 10:19:30
00013 suncat0242 pw.x -in pw.inp   Done                     01/15/2018 10:19:30
00014 suncat0242 pw.x -in pw.inp   Done                     01/15/2018 10:19:30
00015 suncat0242 pw.x -in pw.inp   Done                     01/15/2018 10:19:30
00016 suncat0241 pw.x -in pw.inp   Done                     01/15/2018 10:19:30
00017 suncat0241 pw.x -in pw.inp   Done                     01/15/2018 10:19:30
00018 suncat0241 pw.x -in pw.inp   Done                     01/15/2018 10:19:30
00019 suncat0241 pw.x -in pw.inp   Done                     01/15/2018 10:19:30
00020 suncat0241 pw.x -in pw.inp   Done                     01/15/2018 10:19:30
00021 suncat0241 pw.x -in pw.inp   Done                     01/15/2018 10:19:30
00022 suncat0241 pw.x -in pw.inp   Done                     01/15/2018 10:19:30
00023 suncat0241 pw.x -in pw.inp   Done                     01/15/2018 10:19:30
00024 suncat0240 pw.x -in pw.inp   Done                     01/15/2018 10:19:30
00025 suncat0240 pw.x -in pw.inp   Done                     01/15/2018 10:19:30
00026 suncat0240 pw.x -in pw.inp   Done                     01/15/2018 10:19:30
00027 suncat0240 pw.x -in pw.inp   Done                     01/15/2018 10:19:30
00028 suncat0240 pw.x -in pw.inp   Done                     01/15/2018 10:19:30
00029 suncat0240 pw.x -in pw.inp   Done                     01/15/2018 10:19:30
00030 suncat0240 pw.x -in pw.inp   Done                     01/15/2018 10:19:30
00031 suncat0240 pw.x -in pw.inp   Done                     01/15/2018 10:19:30
