  python dir          : /u/if/mamunm/src/espresso
  espresso dir        : /nfs/slac/g/suncatfs/sw/espv18/espresso-dynpy-beef/bin
  pseudo dir          : /u/if/mamunm/psp/gbrv1.5pbe
  ase-espresso py git : GITVERSION



     Program PWSCF v.5.1rc2 (svn rev. 11289) starts on  3May2018 at 18:29:33 

     This program is part of the open-source Quantum ESPRESSO suite
     for quantum simulation of materials; please cite
         "P. Giannozzi et al., J. Phys.:Condens. Matter 21 395502 (2009);
          URL http://www.quantum-espresso.org", 
     in publications or presentations arising from this work. More details at
     http://www.quantum-espresso.org/quote

     Parallel version (MPI), running on    32 processors
     K-points division:     npool     =       4
     R & G space division:  proc/nbgrp/npool/nimage =       8
     Reading input from pw.inp
     Message from routine read_cards :
     DEPRECATED: no units specified in CELL_PARAMETERS card

     Current dimensions of program PWSCF are:
     Max number of different atomic species (ntypx) = 10
     Max number of k-points (npk) =  40000
     Max angular momentum in pseudopotentials (lmaxx) =  3
     Presently stress not available with electric field


     **************************************************************************
     Initializing libbeef V0.1.1 with the BEEF-vdW functional.
     Citation: Wellendorff et al., PRB 85, 235149 (2012).
     **************************************************************************


     IMPORTANT: XC functional enforced from input :
     Exchange-correlation      = BEEF-VDW ( 1  4 27 13 2)
     Any further DFT definition will be discarded
     Please, verify this is what you really want


     Subspace diagonalization in iterative solution of the eigenvalue problem:
     a serial algorithm will be used

 
     Parallelization info
     --------------------
     sticks:   dense  smooth     PW     G-vecs:    dense   smooth      PW
     Min         417     168     47                80423    20354    3153
     Max         418     169     48                80438    20375    3172
     Sum        3343    1345    379               643481   162939   25279
 


     bravais-lattice index     =            0
     lattice parameter (alat)  =       1.8897  a.u.
     unit-cell volume          =    5409.9593 (a.u.)^3
     number of atoms/cell      =           13
     number of atomic types    =            2
     number of electrons       =       229.00
     number of Kohn-Sham states=          124
     kinetic-energy cutoff     =      36.7493  Ry
     charge density cutoff     =     367.4932  Ry
     convergence threshold     =      1.0E-05
     mixing beta               =       0.3000
     number of iterations used =           10  plain     mixing
     Exchange-correlation      = BEEF-VDW ( 1  4 27 13 2)
     nstep                     =           50


     celldm(1)=   1.889726  celldm(2)=   0.000000  celldm(3)=   0.000000
     celldm(4)=   0.000000  celldm(5)=   0.000000  celldm(6)=   0.000000

     crystal axes: (cart. coord. in units of alat)
               a(1) = (   6.088539   0.000000   0.000000 )  
               a(2) = (   3.044269   5.272829   0.000000 )  
               a(3) = (   0.000000   0.000000  24.971271 )  

     reciprocal axes: (cart. coord. in units 2 pi/alat)
               b(1) = (  0.164243 -0.094826  0.000000 )  
               b(2) = (  0.000000  0.189652  0.000000 )  
               b(3) = (  0.000000  0.000000  0.040046 )  


     PseudoPot. # 1 for Ga read from file:
     /u/if/mamunm/psp/gbrv1.5pbe/Ga.UPF
     MD5 check sum: ccd671392a58a050fbb373893b4fcd66
     Pseudo is Ultrasoft + core correction, Zval = 19.0
     Generated by new atomic code, or converted to UPF format
     Using radial grid of  871 points,  6 beta functions with: 
                l(1) =   0
                l(2) =   0
                l(3) =   1
                l(4) =   1
                l(5) =   2
                l(6) =   2
     Q(r) pseudized with  8 coefficients,  rinner =    1.250   1.250   1.250
                                                       1.250   1.250

     PseudoPot. # 2 for H  read from file:
     /u/if/mamunm/psp/gbrv1.5pbe/H.UPF
     MD5 check sum: 761ae9a214b05c3daf00ab9f6b793d6f
     Pseudo is Ultrasoft, Zval =  1.0
     Generated by new atomic code, or converted to UPF format
     Using radial grid of  615 points,  2 beta functions with: 
                l(1) =   0
                l(2) =   0
     Q(r) pseudized with  8 coefficients,  rinner =    0.700

     vdW kernel table read from file vdW_kernel_table
     MD5 check sum: 095c7af220d748ca6e76c0b4c6cfb241

     atomic species   valence    mass     pseudopotential
        Ga1           19.00    69.72300     Ga( 1.00)
        H1             1.00     1.00800     H ( 1.00)

     No symmetry found



   Cartesian axes

     site n.     atom                  positions (alat units)
         1           Ga1 tau(   1) = (   1.5221346   0.8788048  10.0000000  )
         2           Ga1 tau(   2) = (   4.5664039   0.8788048  10.0000000  )
         3           Ga1 tau(   3) = (   3.0442693   3.5152194  10.0000000  )
         4           Ga1 tau(   4) = (   6.0885386   3.5152194  10.0000000  )
         5           Ga1 tau(   5) = (   6.0885386   1.7576097  12.4856355  )
         6           Ga1 tau(   6) = (   3.0442693   1.7576097  12.4856355  )
         7           Ga1 tau(   7) = (   7.6106732   4.3940242  12.4856355  )
         8           Ga1 tau(   8) = (   4.5664039   4.3940242  12.4856355  )
         9           Ga1 tau(   9) = (   0.0000000   0.0000000  14.9712709  )
        10           Ga1 tau(  10) = (   3.0442693   0.0000000  14.9712709  )
        11           Ga1 tau(  11) = (   1.5221346   2.6364145  14.9712709  )
        12           Ga1 tau(  12) = (   4.5664039   2.6364145  14.9712709  )
        13           H1  tau(  13) = (   0.0000000   0.0000000  16.2717709  )

     number of k points=    20  Fermi-Dirac smearing, width (Ry)=  0.0110
                       cart. coord. in units 2pi/alat
        k(    1) = (   0.0000000   0.0000000   0.0000000), wk =   0.0555556
        k(    2) = (   0.0000000   0.0316086   0.0000000), wk =   0.1111111
        k(    3) = (   0.0000000   0.0632172   0.0000000), wk =   0.1111111
        k(    4) = (   0.0000000  -0.0948258   0.0000000), wk =   0.0555556
        k(    5) = (   0.0273738  -0.0158043   0.0000000), wk =   0.1111111
        k(    6) = (   0.0273738   0.0158043   0.0000000), wk =   0.1111111
        k(    7) = (   0.0273738   0.0474129   0.0000000), wk =   0.1111111
        k(    8) = (   0.0273738  -0.1106300   0.0000000), wk =   0.1111111
        k(    9) = (   0.0273738  -0.0790215   0.0000000), wk =   0.1111111
        k(   10) = (   0.0273738  -0.0474129   0.0000000), wk =   0.1111111
        k(   11) = (   0.0547477  -0.0316086   0.0000000), wk =   0.1111111
        k(   12) = (   0.0547477   0.0000000   0.0000000), wk =   0.1111111
        k(   13) = (   0.0547477   0.0316086   0.0000000), wk =   0.1111111
        k(   14) = (   0.0547477  -0.1264343   0.0000000), wk =   0.1111111
        k(   15) = (   0.0547477  -0.0948258   0.0000000), wk =   0.1111111
        k(   16) = (   0.0547477  -0.0632172   0.0000000), wk =   0.1111111
        k(   17) = (  -0.0821215   0.0474129   0.0000000), wk =   0.0555556
        k(   18) = (  -0.0821215   0.0790215   0.0000000), wk =   0.1111111
        k(   19) = (  -0.0821215   0.1106300   0.0000000), wk =   0.1111111
        k(   20) = (  -0.0821215  -0.0474129   0.0000000), wk =   0.0555556

     Dense  grid:   643481 G-vectors     FFT dimensions: (  72,  72, 288)

     Smooth grid:   162939 G-vectors     FFT dimensions: (  45,  45, 192)

     Largest allocated arrays     est. size (Mb)     dimensions
        Kohn-Sham Wavefunctions         4.85 Mb     (    2564,  124)
        NL pseudopotentials             8.53 Mb     (    2564,  218)
        Each V/rho on FFT grid          2.85 Mb     (  186624)
        Each G-vector array             0.61 Mb     (   80438)
        G-vector shells                 0.16 Mb     (   21346)
     Largest temporary arrays     est. size (Mb)     dimensions
        Auxiliary wavefunctions        19.41 Mb     (    2564,  496)
        Each subspace H/S matrix        3.75 Mb     (     496,  496)
        Each <psi_i|beta_j> matrix      0.41 Mb     (     218,  124)
        Arrays for rho mixing          28.48 Mb     (  186624,   10)

     Initial potential from superposition of free atoms
     Check: negative starting charge=   -0.001259

     starting charge  216.99998, renormalised to  229.00000

     negative rho (up, down):  1.329E-03 0.000E+00


     ************************************************************************
     *
     * You are using vdW-DF for exchange-correlation in this calculation.
     * Please cite the following three references that made this development
     * possible:
     *
     *   M. Dion, H. Rydberg, E. Schroder, D. C. Langreth, and
     *   B. I. Lundqvist, Phys. Rev. Lett. 92, 246401 (2004).
     *
     *   T. Thonhauser, V. R. Cooper, S. Li, A. Puzder, P. Hyldgaard, and
     *   D. C. Langreth, Phys. Rev. B 76, 125112 (2007).
     *
     *   G. Roman-Perez and J. M. Soler, Phys. Rev. Lett. 103, 096102 (2009).
     *
     *
     * If you are using vdW-DF2, please also cite:
     *
     *   K. Lee, E. D. Murray, L. Kong, B. I. Lundqvist, and
     *   D. C. Langreth, Phys. Rev. B 82, 081101(R) (2010).
     *
     *
     * If you are calculating the stress with vdW-DF, please also cite:
     *
     *   R. Sabatini, E. Kucukbenli, B. Kolb, T. Thonhauser, and
     *   S. de Gironcoli, J. Phys.: Condens. Matter 24, 424209 (2012).
     *
     ************************************************************************

     Carrying out vdW-DF run using the following parameters:

     Nqs =      20    Nr_points =    1024   r_max =   100.000
     q_mesh =
               0.00001000     0.04494208     0.09755937     0.15916263
               0.23128650     0.31572767     0.41458969     0.53033537
               0.66584808     0.82450364     1.01025438     1.22772762
               1.48234092     1.78043706     2.12944203     2.53805004
               3.01644009     3.57652955     4.23227104     5.00000000

     Gradients computed in reciprocal space

     ************************************************************************


 
     Adding external electric field

     Computed dipole along edir(3) : 
        Dipole               -0.3956 Ry au,         -1.0055 Debye
        Dipole field         -0.0009 Ry au
 
        Potential amp.        0.0846 Ry
        Total length         46.0091 bohr
 
     Starting wfc are  145 randomized atomic wfcs

     total cpu time spent up to now is       12.5 secs

     per-process dynamical memory:    95.8 Mb

     Self-consistent Calculation

     iteration #  1     ecut=    36.75 Ry     beta=0.30
     Davidson diagonalization with overlap
     ethr =  1.00E-02,  avg # of iterations =  8.1
 
     Adding external electric field

     Computed dipole along edir(3) : 
        Dipole               11.6490 Ry au,         29.6088 Debye
        Dipole field          0.0271 Ry au
 
        Potential amp.       -2.4899 Ry
        Total length         46.0091 bohr
 

     total cpu time spent up to now is       50.6 secs

     total energy              =   -4937.42118150 Ry
     Harris-Foulkes estimate   =   -5023.61630233 Ry
     estimated scf accuracy    <     180.13280621 Ry

     iteration #  2     ecut=    36.75 Ry     beta=0.30
     Davidson diagonalization with overlap
     ethr =  1.00E-02,  avg # of iterations =  4.4
 
     Adding external electric field

     Computed dipole along edir(3) : 
        Dipole               -6.2285 Ry au,        -15.8313 Debye
        Dipole field         -0.0145 Ry au
 
        Potential amp.        1.3313 Ry
        Total length         46.0091 bohr
 

     total cpu time spent up to now is       85.5 secs

     total energy              =   -4979.14767608 Ry
     Harris-Foulkes estimate   =   -5017.10731319 Ry
     estimated scf accuracy    <     123.94824959 Ry

     iteration #  3     ecut=    36.75 Ry     beta=0.30
     Davidson diagonalization with overlap
     ethr =  1.00E-02,  avg # of iterations =  5.0
 
     Adding external electric field

     Computed dipole along edir(3) : 
        Dipole                4.7325 Ry au,         12.0289 Debye
        Dipole field          0.0110 Ry au
 
        Potential amp.       -1.0115 Ry
        Total length         46.0091 bohr
 

     total cpu time spent up to now is      115.0 secs

     total energy              =   -4984.31648720 Ry
     Harris-Foulkes estimate   =   -5022.22808117 Ry
     estimated scf accuracy    <     297.93325825 Ry

     iteration #  4     ecut=    36.75 Ry     beta=0.30
     Davidson diagonalization with overlap
     ethr =  1.00E-02,  avg # of iterations =  4.8
 
     Adding external electric field

     Computed dipole along edir(3) : 
        Dipole                2.7192 Ry au,          6.9116 Debye
        Dipole field          0.0063 Ry au
 
        Potential amp.       -0.5812 Ry
        Total length         46.0091 bohr
 

     total cpu time spent up to now is      141.8 secs

     total energy              =   -5000.29905674 Ry
     Harris-Foulkes estimate   =   -5002.27169277 Ry
     estimated scf accuracy    <      12.29669865 Ry

     iteration #  5     ecut=    36.75 Ry     beta=0.30
     Davidson diagonalization with overlap
     ethr =  5.37E-03,  avg # of iterations =  2.0
 
     Adding external electric field

     Computed dipole along edir(3) : 
        Dipole                1.8182 Ry au,          4.6214 Debye
        Dipole field          0.0042 Ry au
 
        Potential amp.       -0.3886 Ry
        Total length         46.0091 bohr
 

     total cpu time spent up to now is      163.9 secs

     total energy              =   -5000.44026720 Ry
     Harris-Foulkes estimate   =   -5000.78763426 Ry
     estimated scf accuracy    <       1.93105826 Ry

     iteration #  6     ecut=    36.75 Ry     beta=0.30
     Davidson diagonalization with overlap
     ethr =  8.43E-04,  avg # of iterations =  2.2
 
     Adding external electric field

     Computed dipole along edir(3) : 
        Dipole                0.0436 Ry au,          0.1109 Debye
        Dipole field          0.0001 Ry au
 
        Potential amp.       -0.0093 Ry
        Total length         46.0091 bohr
 

     total cpu time spent up to now is      186.2 secs

     total energy              =   -4999.84861838 Ry
     Harris-Foulkes estimate   =   -5000.51007501 Ry
     estimated scf accuracy    <       1.09857284 Ry

     iteration #  7     ecut=    36.75 Ry     beta=0.30
     Davidson diagonalization with overlap
     ethr =  4.80E-04,  avg # of iterations =  3.8
 
     Adding external electric field

     Computed dipole along edir(3) : 
        Dipole                0.6560 Ry au,          1.6675 Debye
        Dipole field          0.0015 Ry au
 
        Potential amp.       -0.1402 Ry
        Total length         46.0091 bohr
 

     total cpu time spent up to now is      212.5 secs

     total energy              =   -5000.01568575 Ry
     Harris-Foulkes estimate   =   -5000.34256786 Ry
     estimated scf accuracy    <       1.55816790 Ry

     iteration #  8     ecut=    36.75 Ry     beta=0.30
     Davidson diagonalization with overlap
     ethr =  4.80E-04,  avg # of iterations =  3.0

     negative rho (up, down):  3.827E-07 0.000E+00
 
     Adding external electric field

     Computed dipole along edir(3) : 
        Dipole                0.0232 Ry au,          0.0590 Debye
        Dipole field          0.0001 Ry au
 
        Potential amp.       -0.0050 Ry
        Total length         46.0091 bohr
 

     total cpu time spent up to now is      235.9 secs

     total energy              =   -5000.13735541 Ry
     Harris-Foulkes estimate   =   -5000.17682939 Ry
     estimated scf accuracy    <       0.05180295 Ry

     iteration #  9     ecut=    36.75 Ry     beta=0.30
     Davidson diagonalization with overlap
     ethr =  2.26E-05,  avg # of iterations =  5.2

     negative rho (up, down):  3.152E-04 0.000E+00
 
     Adding external electric field

     Computed dipole along edir(3) : 
        Dipole               -0.1064 Ry au,         -0.2705 Debye
        Dipole field         -0.0002 Ry au
 
        Potential amp.        0.0227 Ry
        Total length         46.0091 bohr
 

     total cpu time spent up to now is      262.2 secs

     total energy              =   -5000.14308274 Ry
     Harris-Foulkes estimate   =   -5000.14748385 Ry
     estimated scf accuracy    <       0.01584241 Ry

     iteration # 10     ecut=    36.75 Ry     beta=0.30
     Davidson diagonalization with overlap
     ethr =  6.92E-06,  avg # of iterations =  3.3

     negative rho (up, down):  3.099E-04 0.000E+00
 
     Adding external electric field

     Computed dipole along edir(3) : 
        Dipole               -0.0982 Ry au,         -0.2495 Debye
        Dipole field         -0.0002 Ry au
 
        Potential amp.        0.0210 Ry
        Total length         46.0091 bohr
 

     total cpu time spent up to now is      286.0 secs

     total energy              =   -5000.14576677 Ry
     Harris-Foulkes estimate   =   -5000.14653438 Ry
     estimated scf accuracy    <       0.00652501 Ry

     iteration # 11     ecut=    36.75 Ry     beta=0.30
     Davidson diagonalization with overlap
     ethr =  2.85E-06,  avg # of iterations =  2.0

     negative rho (up, down):  7.889E-04 0.000E+00
 
     Adding external electric field

     Computed dipole along edir(3) : 
        Dipole               -0.0707 Ry au,         -0.1798 Debye
        Dipole field         -0.0002 Ry au
 
        Potential amp.        0.0151 Ry
        Total length         46.0091 bohr
 

     total cpu time spent up to now is      307.9 secs

     total energy              =   -5000.14505098 Ry
     Harris-Foulkes estimate   =   -5000.14592412 Ry
     estimated scf accuracy    <       0.00448419 Ry

     iteration # 12     ecut=    36.75 Ry     beta=0.30
     Davidson diagonalization with overlap
     ethr =  1.96E-06,  avg # of iterations =  3.5

     negative rho (up, down):  1.028E-03 0.000E+00
 
     Adding external electric field

     Computed dipole along edir(3) : 
        Dipole               -0.0674 Ry au,         -0.1713 Debye
        Dipole field         -0.0002 Ry au
 
        Potential amp.        0.0144 Ry
        Total length         46.0091 bohr
 

     total cpu time spent up to now is      331.6 secs

     total energy              =   -5000.14541351 Ry
     Harris-Foulkes estimate   =   -5000.14542448 Ry
     estimated scf accuracy    <       0.00008763 Ry

     iteration # 13     ecut=    36.75 Ry     beta=0.30
     Davidson diagonalization with overlap
     ethr =  3.83E-08,  avg # of iterations =  4.0

     negative rho (up, down):  1.029E-03 0.000E+00
 
     Adding external electric field

     Computed dipole along edir(3) : 
        Dipole               -0.0692 Ry au,         -0.1760 Debye
        Dipole field         -0.0002 Ry au
 
        Potential amp.        0.0148 Ry
        Total length         46.0091 bohr
 

     total cpu time spent up to now is      358.1 secs

     total energy              =   -5000.14544046 Ry
     Harris-Foulkes estimate   =   -5000.14544222 Ry
     estimated scf accuracy    <       0.00002006 Ry

     iteration # 14     ecut=    36.75 Ry     beta=0.30
     Davidson diagonalization with overlap
     ethr =  8.76E-09,  avg # of iterations =  2.7

     negative rho (up, down):  1.024E-03 0.000E+00

     negative rho (up, down):  1.024E-03 0.000E+00

     negative rho (up, down):  1.024E-03 0.000E+00

     negative rho (up, down):  1.024E-03 0.000E+00

     negative rho (up, down):  1.024E-03 0.000E+00

     negative rho (up, down):  1.024E-03 0.000E+00

     negative rho (up, down):  1.024E-03 0.000E+00

     negative rho (up, down):  1.024E-03 0.000E+00

     negative rho (up, down):  1.024E-03 0.000E+00

     negative rho (up, down):  1.024E-03 0.000E+00

     negative rho (up, down):  1.024E-03 0.000E+00

     negative rho (up, down):  1.024E-03 0.000E+00

     negative rho (up, down):  1.024E-03 0.000E+00

     negative rho (up, down):  1.024E-03 0.000E+00

     negative rho (up, down):  1.024E-03 0.000E+00

     negative rho (up, down):  1.024E-03 0.000E+00

     negative rho (up, down):  1.024E-03 0.000E+00

     negative rho (up, down):  1.024E-03 0.000E+00

     negative rho (up, down):  1.024E-03 0.000E+00

     negative rho (up, down):  1.024E-03 0.000E+00

     negative rho (up, down):  1.024E-03 0.000E+00

     negative rho (up, down):  1.024E-03 0.000E+00

     negative rho (up, down):  1.024E-03 0.000E+00

     negative rho (up, down):  1.024E-03 0.000E+00

     negative rho (up, down):  1.024E-03 0.000E+00

     negative rho (up, down):  1.024E-03 0.000E+00

     negative rho (up, down):  1.024E-03 0.000E+00

     negative rho (up, down):  1.024E-03 0.000E+00

     negative rho (up, down):  1.024E-03 0.000E+00

     negative rho (up, down):  1.024E-03 0.000E+00

     negative rho (up, down):  1.024E-03 0.000E+00

     negative rho (up, down):  1.024E-03 0.000E+00

     negative rho (up, down):  1.024E-03 0.000E+00

     negative rho (up, down):  1.024E-03 0.000E+00

     negative rho (up, down):  1.024E-03 0.000E+00
 
     Adding external electric field

     Computed dipole along edir(3) : 
        Dipole               -0.0772 Ry au,         -0.1963 Debye
        Dipole field         -0.0002 Ry au
 
        Potential amp.        0.0165 Ry
        Total length         46.0091 bohr
 

     total cpu time spent up to now is      431.8 secs

     End of self-consistent calculation

          k = 0.0000 0.0000 0.0000 ( 20347 PWs)   bands (ev):

   -94.8830 -94.8830 -94.8428 -94.7002 -94.7000 -94.7000 -94.6952 -94.6773
   -94.6773 -94.6772 -94.6764 -94.6756 -94.6756 -94.6746 -94.6746 -94.6706
   -94.6693 -94.6693 -94.6654 -94.6652 -94.6652 -94.6642 -94.6642 -94.6637
   -94.6606 -94.6603 -94.6603 -94.6409 -94.6395 -94.6395 -94.6360 -94.6360
   -94.6356 -94.6124 -94.6124 -94.5987 -15.5723 -15.2579 -15.2579 -15.2114
   -15.2114 -15.1644 -15.1604 -15.1604 -15.1259 -15.1150 -15.1143 -15.1101
   -15.1101 -15.1016 -15.1016 -15.0884 -15.0801 -15.0634 -15.0634 -15.0564
   -15.0525 -15.0525 -15.0436 -15.0436 -15.0400 -15.0400 -15.0397 -15.0353
   -15.0268 -15.0268 -14.9964 -14.9939 -14.9939 -14.9667 -14.9667 -14.9662
   -14.9489 -14.9489 -14.9471 -14.9471 -14.9259 -14.9168 -14.9168 -14.9057
   -14.9057 -14.8984 -14.8928 -14.8928 -14.8770 -14.8762 -14.8762 -14.8672
   -14.8672 -14.8668 -14.8660 -14.8660 -14.8539 -14.8438 -14.8438 -14.8335
   -10.0842  -8.7581  -6.8199  -5.4004  -4.8498  -4.8498  -4.7333  -4.4566
    -4.4566  -3.9323  -3.1966  -3.1966  -2.7836  -2.6928  -2.6928  -2.5265
    -1.6056  -0.9124  -0.9124  -0.7492  -0.7483  -0.7483   0.3679   1.6163
     2.9329   3.0687   3.0687   3.0883

          k = 0.0000 0.0316 0.0000 ( 20271 PWs)   bands (ev):

   -94.8829 -94.8829 -94.8428 -94.7002 -94.7000 -94.7000 -94.6952 -94.6772
   -94.6772 -94.6771 -94.6764 -94.6757 -94.6756 -94.6747 -94.6746 -94.6705
   -94.6694 -94.6693 -94.6653 -94.6652 -94.6652 -94.6642 -94.6642 -94.6637
   -94.6605 -94.6603 -94.6603 -94.6408 -94.6396 -94.6395 -94.6360 -94.6360
   -94.6356 -94.6124 -94.6123 -94.5987 -15.5711 -15.2529 -15.2493 -15.2097
   -15.2085 -15.1567 -15.1497 -15.1470 -15.1189 -15.1106 -15.1075 -15.1031
   -15.0994 -15.0933 -15.0912 -15.0798 -15.0760 -15.0621 -15.0613 -15.0560
   -15.0524 -15.0455 -15.0427 -15.0395 -15.0390 -15.0340 -15.0333 -15.0300
   -15.0245 -15.0219 -14.9987 -14.9928 -14.9917 -14.9733 -14.9691 -14.9678
   -14.9562 -14.9550 -14.9502 -14.9474 -14.9312 -14.9232 -14.9187 -14.9109
   -14.9088 -14.9038 -14.9012 -14.8974 -14.8880 -14.8872 -14.8844 -14.8801
   -14.8779 -14.8718 -14.8704 -14.8672 -14.8594 -14.8543 -14.8486 -14.8434
    -9.9329  -8.6161  -6.7755  -6.2234  -5.5511  -5.3575  -5.1287  -4.5585
    -4.1723  -3.6387  -3.2059  -3.1126  -2.6613  -2.1056  -2.0829  -2.0078
    -1.4241  -1.3251  -0.9845  -0.4908   0.1268   0.4516   0.9053   1.6208
     2.0417   2.4502   2.9730   3.1884

          k = 0.0000 0.0632 0.0000 ( 20353 PWs)   bands (ev):

   -94.8829 -94.8829 -94.8428 -94.7001 -94.7001 -94.7000 -94.6952 -94.6771
   -94.6770 -94.6768 -94.6765 -94.6760 -94.6756 -94.6748 -94.6747 -94.6703
   -94.6696 -94.6693 -94.6653 -94.6652 -94.6652 -94.6642 -94.6641 -94.6638
   -94.6605 -94.6603 -94.6603 -94.6406 -94.6398 -94.6395 -94.6361 -94.6360
   -94.6356 -94.6124 -94.6124 -94.5987 -15.5688 -15.2424 -15.2308 -15.2063
   -15.2025 -15.1419 -15.1196 -15.1144 -15.1067 -15.0994 -15.0963 -15.0886
   -15.0794 -15.0747 -15.0707 -15.0676 -15.0647 -15.0580 -15.0551 -15.0492
   -15.0433 -15.0419 -15.0412 -15.0332 -15.0253 -15.0247 -15.0134 -15.0125
   -15.0082 -15.0019 -15.0004 -14.9954 -14.9862 -14.9845 -14.9757 -14.9750
   -14.9710 -14.9668 -14.9587 -14.9477 -14.9467 -14.9427 -14.9305 -14.9257
   -14.9238 -14.9233 -14.9214 -14.9140 -14.9128 -14.9100 -14.9055 -14.9019
   -14.8916 -14.8883 -14.8866 -14.8818 -14.8797 -14.8663 -14.8558 -14.8490
    -9.4787  -8.2121  -7.6327  -6.6720  -6.0033  -5.7858  -5.7716  -4.9423
    -4.4196  -4.1715  -3.2354  -2.6559  -2.1052  -1.5590  -1.5321  -0.8229
    -0.5039  -0.3524  -0.0725   0.5278   1.1390   1.2742   1.3970   1.6259
     1.7108   2.4178   2.6522   2.7233

          k = 0.0000-0.0948 0.0000 ( 20384 PWs)   bands (ev):

   -94.8829 -94.8829 -94.8428 -94.7001 -94.7001 -94.7000 -94.6952 -94.6771
   -94.6769 -94.6766 -94.6765 -94.6762 -94.6756 -94.6749 -94.6747 -94.6702
   -94.6697 -94.6693 -94.6653 -94.6653 -94.6652 -94.6642 -94.6641 -94.6639
   -94.6605 -94.6604 -94.6603 -94.6405 -94.6399 -94.6395 -94.6361 -94.6359
   -94.6357 -94.6124 -94.6124 -94.5987 -15.5677 -15.2369 -15.2208 -15.2043
   -15.1994 -15.1269 -15.1164 -15.0977 -15.0921 -15.0894 -15.0886 -15.0858
   -15.0786 -15.0690 -15.0639 -15.0561 -15.0557 -15.0487 -15.0417 -15.0389
   -15.0382 -15.0342 -15.0282 -15.0266 -15.0217 -15.0178 -15.0101 -15.0066
   -15.0062 -15.0058 -14.9994 -14.9912 -14.9813 -14.9811 -14.9759 -14.9721
   -14.9686 -14.9634 -14.9603 -14.9558 -14.9557 -14.9492 -14.9469 -14.9441
   -14.9405 -14.9378 -14.9377 -14.9333 -14.9289 -14.9246 -14.9125 -14.9113
   -14.9099 -14.9077 -14.8976 -14.8848 -14.8847 -14.8670 -14.8575 -14.8487
    -8.7791  -8.6644  -7.6735  -7.2080  -6.1758  -5.9329  -5.6815  -5.0292
    -4.7016  -4.5447  -3.3083  -2.6114  -1.7790  -0.9002  -0.4244  -0.4148
    -0.1549  -0.0734   0.2555   1.0767   1.1392   1.1442   1.5332   2.0365
     2.1586   2.2500   2.5015   2.5472

          k = 0.0274-0.0158 0.0000 ( 20271 PWs)   bands (ev):

   -94.8829 -94.8829 -94.8428 -94.7002 -94.7000 -94.7000 -94.6952 -94.6772
   -94.6772 -94.6771 -94.6764 -94.6757 -94.6756 -94.6747 -94.6746 -94.6705
   -94.6694 -94.6693 -94.6653 -94.6652 -94.6652 -94.6642 -94.6642 -94.6637
   -94.6605 -94.6603 -94.6603 -94.6408 -94.6396 -94.6395 -94.6360 -94.6360
   -94.6356 -94.6124 -94.6123 -94.5987 -15.5711 -15.2529 -15.2493 -15.2097
   -15.2085 -15.1567 -15.1497 -15.1470 -15.1189 -15.1106 -15.1075 -15.1031
   -15.0994 -15.0933 -15.0912 -15.0798 -15.0760 -15.0621 -15.0613 -15.0560
   -15.0524 -15.0455 -15.0427 -15.0395 -15.0390 -15.0340 -15.0333 -15.0300
   -15.0245 -15.0219 -14.9987 -14.9928 -14.9917 -14.9733 -14.9691 -14.9678
   -14.9562 -14.9550 -14.9502 -14.9474 -14.9312 -14.9232 -14.9187 -14.9109
   -14.9088 -14.9038 -14.9012 -14.8974 -14.8880 -14.8872 -14.8844 -14.8801
   -14.8779 -14.8718 -14.8704 -14.8672 -14.8594 -14.8543 -14.8486 -14.8434
    -9.9329  -8.6161  -6.7755  -6.2234  -5.5511  -5.3575  -5.1287  -4.5585
    -4.1723  -3.6387  -3.2059  -3.1126  -2.6613  -2.1056  -2.0829  -2.0078
    -1.4241  -1.3251  -0.9845  -0.4908   0.1268   0.4516   0.9053   1.6208
     2.0417   2.4502   2.9730   3.1884

          k = 0.0274 0.0158 0.0000 ( 20271 PWs)   bands (ev):

   -94.8829 -94.8829 -94.8428 -94.7002 -94.7000 -94.7000 -94.6952 -94.6772
   -94.6772 -94.6771 -94.6764 -94.6757 -94.6756 -94.6747 -94.6746 -94.6705
   -94.6694 -94.6693 -94.6653 -94.6652 -94.6652 -94.6642 -94.6642 -94.6637
   -94.6605 -94.6603 -94.6603 -94.6408 -94.6396 -94.6395 -94.6360 -94.6360
   -94.6356 -94.6124 -94.6123 -94.5987 -15.5711 -15.2529 -15.2493 -15.2097
   -15.2085 -15.1567 -15.1497 -15.1470 -15.1189 -15.1106 -15.1075 -15.1031
   -15.0994 -15.0933 -15.0912 -15.0798 -15.0760 -15.0621 -15.0613 -15.0560
   -15.0524 -15.0455 -15.0427 -15.0395 -15.0390 -15.0340 -15.0333 -15.0300
   -15.0245 -15.0219 -14.9987 -14.9928 -14.9917 -14.9733 -14.9691 -14.9678
   -14.9562 -14.9550 -14.9502 -14.9474 -14.9312 -14.9232 -14.9187 -14.9109
   -14.9088 -14.9038 -14.9012 -14.8974 -14.8880 -14.8872 -14.8844 -14.8801
   -14.8779 -14.8718 -14.8704 -14.8672 -14.8594 -14.8543 -14.8486 -14.8434
    -9.9329  -8.6161  -6.7755  -6.2234  -5.5511  -5.3575  -5.1287  -4.5585
    -4.1723  -3.6387  -3.2059  -3.1126  -2.6613  -2.1056  -2.0829  -2.0078
    -1.4241  -1.3251  -0.9845  -0.4908   0.1268   0.4516   0.9053   1.6208
     2.0417   2.4502   2.9730   3.1884

          k = 0.0274 0.0474 0.0000 ( 20341 PWs)   bands (ev):

   -94.8829 -94.8829 -94.8428 -94.7002 -94.7000 -94.7000 -94.6952 -94.6771
   -94.6771 -94.6769 -94.6764 -94.6759 -94.6757 -94.6748 -94.6747 -94.6704
   -94.6695 -94.6693 -94.6653 -94.6652 -94.6652 -94.6642 -94.6641 -94.6638
   -94.6605 -94.6603 -94.6603 -94.6407 -94.6397 -94.6395 -94.6361 -94.6360
   -94.6356 -94.6124 -94.6123 -94.5987 -15.5694 -15.2442 -15.2366 -15.2070
   -15.2042 -15.1397 -15.1382 -15.1211 -15.1051 -15.1011 -15.0966 -15.0956
   -15.0826 -15.0800 -15.0748 -15.0688 -15.0675 -15.0604 -15.0567 -15.0541
   -15.0522 -15.0467 -15.0407 -15.0326 -15.0302 -15.0280 -15.0195 -15.0158
   -15.0147 -15.0082 -14.9991 -14.9925 -14.9888 -14.9818 -14.9748 -14.9710
   -14.9696 -14.9667 -14.9541 -14.9484 -14.9414 -14.9348 -14.9297 -14.9204
   -14.9178 -14.9152 -14.9134 -14.9118 -14.9056 -14.9030 -14.9015 -14.8944
   -14.8914 -14.8823 -14.8793 -14.8732 -14.8706 -14.8640 -14.8581 -14.8539
    -9.6300  -8.3391  -7.0275  -6.8288  -6.4316  -5.6401  -5.4111  -4.5682
    -4.3012  -3.8455  -3.3511  -2.9932  -2.3271  -2.1285  -1.1062  -1.0558
    -0.9959  -0.3636  -0.1808   0.1166   0.4399   0.9892   1.1599   1.7999
     2.1005   2.2974   2.6422   3.0034

          k = 0.0274-0.1106 0.0000 ( 20377 PWs)   bands (ev):

   -94.8829 -94.8829 -94.8428 -94.7001 -94.7001 -94.7000 -94.6952 -94.6770
   -94.6769 -94.6766 -94.6766 -94.6761 -94.6757 -94.6749 -94.6747 -94.6701
   -94.6697 -94.6693 -94.6653 -94.6653 -94.6652 -94.6642 -94.6641 -94.6639
   -94.6605 -94.6604 -94.6603 -94.6404 -94.6399 -94.6395 -94.6361 -94.6359
   -94.6357 -94.6124 -94.6124 -94.5987 -15.5677 -15.2344 -15.2237 -15.2037
   -15.2002 -15.1231 -15.1075 -15.1023 -15.0990 -15.0852 -15.0816 -15.0799
   -15.0765 -15.0697 -15.0665 -15.0628 -15.0578 -15.0523 -15.0477 -15.0431
   -15.0381 -15.0340 -15.0272 -15.0237 -15.0217 -15.0178 -15.0122 -15.0086
   -15.0071 -15.0046 -14.9960 -14.9929 -14.9890 -14.9822 -14.9790 -14.9760
   -14.9738 -14.9668 -14.9624 -14.9560 -14.9527 -14.9501 -14.9460 -14.9428
   -14.9404 -14.9363 -14.9293 -14.9276 -14.9229 -14.9200 -14.9135 -14.9091
   -14.9057 -14.8985 -14.8937 -14.8873 -14.8816 -14.8709 -14.8651 -14.8564
    -9.0267  -8.1453  -7.7688  -7.1880  -6.8317  -6.0569  -5.5275  -4.7963
    -4.4817  -3.9363  -3.4530  -2.7505  -2.0420  -1.2965  -0.7956  -0.3703
    -0.1362   0.1486   0.3197   0.7385   1.1902   1.3220   1.5068   1.5878
     2.1681   2.4825   2.5700   2.7657

          k = 0.0274-0.0790 0.0000 ( 20377 PWs)   bands (ev):

   -94.8829 -94.8829 -94.8428 -94.7001 -94.7001 -94.7000 -94.6952 -94.6770
   -94.6769 -94.6766 -94.6766 -94.6761 -94.6757 -94.6749 -94.6747 -94.6701
   -94.6697 -94.6693 -94.6653 -94.6653 -94.6652 -94.6642 -94.6640 -94.6639
   -94.6605 -94.6604 -94.6603 -94.6404 -94.6399 -94.6395 -94.6361 -94.6359
   -94.6357 -94.6124 -94.6124 -94.5987 -15.5677 -15.2344 -15.2237 -15.2037
   -15.2002 -15.1231 -15.1075 -15.1023 -15.0990 -15.0852 -15.0816 -15.0799
   -15.0765 -15.0697 -15.0665 -15.0628 -15.0578 -15.0523 -15.0477 -15.0431
   -15.0381 -15.0340 -15.0272 -15.0237 -15.0217 -15.0178 -15.0122 -15.0086
   -15.0071 -15.0046 -14.9960 -14.9929 -14.9890 -14.9822 -14.9790 -14.9760
   -14.9738 -14.9668 -14.9624 -14.9560 -14.9527 -14.9501 -14.9460 -14.9428
   -14.9404 -14.9363 -14.9293 -14.9276 -14.9229 -14.9200 -14.9135 -14.9091
   -14.9057 -14.8985 -14.8937 -14.8873 -14.8816 -14.8709 -14.8651 -14.8564
    -9.0267  -8.1453  -7.7688  -7.1880  -6.8317  -6.0569  -5.5275  -4.7963
    -4.4817  -3.9363  -3.4530  -2.7505  -2.0420  -1.2965  -0.7956  -0.3703
    -0.1362   0.1486   0.3197   0.7385   1.1902   1.3220   1.5068   1.5878
     2.1681   2.4825   2.5700   2.7657

          k = 0.0274-0.0474 0.0000 ( 20341 PWs)   bands (ev):

   -94.8829 -94.8829 -94.8428 -94.7002 -94.7000 -94.7000 -94.6952 -94.6771
   -94.6771 -94.6769 -94.6764 -94.6759 -94.6757 -94.6748 -94.6747 -94.6704
   -94.6695 -94.6693 -94.6653 -94.6652 -94.6652 -94.6642 -94.6641 -94.6638
   -94.6605 -94.6603 -94.6603 -94.6407 -94.6397 -94.6395 -94.6361 -94.6360
   -94.6356 -94.6124 -94.6124 -94.5987 -15.5694 -15.2442 -15.2366 -15.2070
   -15.2042 -15.1397 -15.1382 -15.1211 -15.1051 -15.1011 -15.0966 -15.0956
   -15.0826 -15.0800 -15.0748 -15.0688 -15.0675 -15.0604 -15.0567 -15.0541
   -15.0522 -15.0467 -15.0407 -15.0326 -15.0302 -15.0280 -15.0195 -15.0158
   -15.0147 -15.0082 -14.9991 -14.9925 -14.9888 -14.9818 -14.9748 -14.9710
   -14.9696 -14.9667 -14.9541 -14.9484 -14.9414 -14.9348 -14.9297 -14.9204
   -14.9178 -14.9152 -14.9134 -14.9118 -14.9056 -14.9030 -14.9015 -14.8944
   -14.8914 -14.8823 -14.8793 -14.8732 -14.8706 -14.8640 -14.8581 -14.8539
    -9.6300  -8.3391  -7.0275  -6.8288  -6.4316  -5.6401  -5.4111  -4.5682
    -4.3012  -3.8455  -3.3511  -2.9932  -2.3271  -2.1285  -1.1062  -1.0558
    -0.9959  -0.3636  -0.1808   0.1166   0.4399   0.9892   1.1599   1.7999
     2.1005   2.2974   2.6422   3.0034

          k = 0.0547-0.0316 0.0000 ( 20353 PWs)   bands (ev):

   -94.8829 -94.8829 -94.8428 -94.7001 -94.7001 -94.7000 -94.6952 -94.6771
   -94.6770 -94.6768 -94.6765 -94.6760 -94.6756 -94.6748 -94.6747 -94.6703
   -94.6696 -94.6693 -94.6653 -94.6652 -94.6652 -94.6642 -94.6641 -94.6638
   -94.6605 -94.6603 -94.6603 -94.6406 -94.6398 -94.6395 -94.6361 -94.6360
   -94.6356 -94.6124 -94.6124 -94.5987 -15.5688 -15.2424 -15.2308 -15.2063
   -15.2025 -15.1419 -15.1196 -15.1144 -15.1067 -15.0994 -15.0963 -15.0886
   -15.0794 -15.0747 -15.0707 -15.0676 -15.0647 -15.0581 -15.0551 -15.0492
   -15.0433 -15.0419 -15.0412 -15.0332 -15.0254 -15.0247 -15.0134 -15.0125
   -15.0082 -15.0019 -15.0004 -14.9954 -14.9862 -14.9845 -14.9757 -14.9750
   -14.9710 -14.9668 -14.9587 -14.9477 -14.9467 -14.9427 -14.9305 -14.9257
   -14.9238 -14.9233 -14.9214 -14.9140 -14.9128 -14.9100 -14.9055 -14.9019
   -14.8916 -14.8883 -14.8866 -14.8818 -14.8797 -14.8663 -14.8558 -14.8490
    -9.4787  -8.2121  -7.6328  -6.6720  -6.0033  -5.7858  -5.7716  -4.9423
    -4.4196  -4.1715  -3.2354  -2.6559  -2.1052  -1.5590  -1.5321  -0.8229
    -0.5039  -0.3524  -0.0725   0.5278   1.1390   1.2742   1.3970   1.6259
     1.7108   2.4178   2.6522   2.7233

          k = 0.0547 0.0000 0.0000 ( 20341 PWs)   bands (ev):

   -94.8829 -94.8829 -94.8428 -94.7002 -94.7000 -94.7000 -94.6952 -94.6771
   -94.6771 -94.6769 -94.6764 -94.6759 -94.6757 -94.6748 -94.6747 -94.6704
   -94.6695 -94.6693 -94.6653 -94.6652 -94.6652 -94.6642 -94.6641 -94.6638
   -94.6605 -94.6603 -94.6603 -94.6407 -94.6397 -94.6395 -94.6361 -94.6360
   -94.6356 -94.6124 -94.6124 -94.5987 -15.5694 -15.2442 -15.2366 -15.2070
   -15.2042 -15.1397 -15.1382 -15.1211 -15.1051 -15.1011 -15.0966 -15.0956
   -15.0827 -15.0800 -15.0748 -15.0688 -15.0675 -15.0604 -15.0567 -15.0541
   -15.0522 -15.0467 -15.0407 -15.0326 -15.0302 -15.0280 -15.0195 -15.0158
   -15.0147 -15.0082 -14.9991 -14.9925 -14.9888 -14.9818 -14.9748 -14.9710
   -14.9696 -14.9667 -14.9541 -14.9484 -14.9414 -14.9348 -14.9297 -14.9204
   -14.9178 -14.9152 -14.9134 -14.9118 -14.9056 -14.9030 -14.9015 -14.8944
   -14.8914 -14.8823 -14.8793 -14.8732 -14.8706 -14.8640 -14.8581 -14.8539
    -9.6300  -8.3391  -7.0275  -6.8288  -6.4316  -5.6401  -5.4111  -4.5682
    -4.3012  -3.8455  -3.3511  -2.9932  -2.3271  -2.1285  -1.1062  -1.0558
    -0.9959  -0.3636  -0.1808   0.1166   0.4399   0.9892   1.1599   1.7999
     2.1005   2.2974   2.6422   3.0034

          k = 0.0547 0.0316 0.0000 ( 20353 PWs)   bands (ev):

   -94.8829 -94.8829 -94.8428 -94.7001 -94.7001 -94.7000 -94.6952 -94.6771
   -94.6770 -94.6768 -94.6765 -94.6760 -94.6756 -94.6748 -94.6747 -94.6703
   -94.6696 -94.6693 -94.6653 -94.6652 -94.6652 -94.6642 -94.6641 -94.6638
   -94.6605 -94.6603 -94.6603 -94.6406 -94.6398 -94.6395 -94.6361 -94.6360
   -94.6356 -94.6124 -94.6124 -94.5987 -15.5688 -15.2424 -15.2308 -15.2063
   -15.2025 -15.1419 -15.1196 -15.1144 -15.1067 -15.0994 -15.0963 -15.0886
   -15.0794 -15.0747 -15.0707 -15.0676 -15.0647 -15.0580 -15.0551 -15.0492
   -15.0433 -15.0419 -15.0412 -15.0332 -15.0253 -15.0247 -15.0134 -15.0125
   -15.0082 -15.0019 -15.0004 -14.9954 -14.9862 -14.9845 -14.9757 -14.9750
   -14.9710 -14.9668 -14.9587 -14.9477 -14.9467 -14.9427 -14.9305 -14.9257
   -14.9238 -14.9233 -14.9214 -14.9140 -14.9128 -14.9100 -14.9055 -14.9019
   -14.8916 -14.8883 -14.8866 -14.8818 -14.8797 -14.8663 -14.8558 -14.8490
    -9.4787  -8.2121  -7.6327  -6.6720  -6.0033  -5.7858  -5.7716  -4.9423
    -4.4196  -4.1715  -3.2354  -2.6559  -2.1052  -1.5590  -1.5321  -0.8229
    -0.5039  -0.3524  -0.0725   0.5278   1.1390   1.2742   1.3970   1.6259
     1.7108   2.4178   2.6522   2.7233

          k = 0.0547-0.1264 0.0000 ( 20377 PWs)   bands (ev):

   -94.8829 -94.8829 -94.8428 -94.7001 -94.7001 -94.7000 -94.6952 -94.6770
   -94.6769 -94.6766 -94.6766 -94.6761 -94.6757 -94.6749 -94.6747 -94.6701
   -94.6697 -94.6693 -94.6653 -94.6653 -94.6652 -94.6642 -94.6641 -94.6639
   -94.6605 -94.6604 -94.6603 -94.6404 -94.6400 -94.6395 -94.6361 -94.6359
   -94.6357 -94.6124 -94.6124 -94.5987 -15.5677 -15.2344 -15.2237 -15.2037
   -15.2002 -15.1231 -15.1075 -15.1023 -15.0990 -15.0852 -15.0816 -15.0799
   -15.0765 -15.0697 -15.0665 -15.0628 -15.0578 -15.0523 -15.0477 -15.0431
   -15.0381 -15.0340 -15.0272 -15.0237 -15.0217 -15.0178 -15.0122 -15.0086
   -15.0071 -15.0046 -14.9960 -14.9929 -14.9890 -14.9822 -14.9790 -14.9760
   -14.9738 -14.9668 -14.9624 -14.9560 -14.9527 -14.9501 -14.9460 -14.9428
   -14.9404 -14.9363 -14.9293 -14.9276 -14.9229 -14.9200 -14.9135 -14.9091
   -14.9057 -14.8985 -14.8937 -14.8873 -14.8816 -14.8709 -14.8651 -14.8564
    -9.0267  -8.1453  -7.7688  -7.1880  -6.8317  -6.0569  -5.5275  -4.7963
    -4.4817  -3.9363  -3.4530  -2.7505  -2.0420  -1.2965  -0.7956  -0.3703
    -0.1362   0.1486   0.3197   0.7385   1.1902   1.3220   1.5068   1.5878
     2.1681   2.4825   2.5700   2.7657

          k = 0.0547-0.0948 0.0000 ( 20397 PWs)   bands (ev):

   -94.8829 -94.8829 -94.8428 -94.7001 -94.7001 -94.7000 -94.6952 -94.6769
   -94.6768 -94.6768 -94.6763 -94.6763 -94.6757 -94.6748 -94.6748 -94.6699
   -94.6699 -94.6693 -94.6653 -94.6653 -94.6652 -94.6642 -94.6640 -94.6639
   -94.6604 -94.6604 -94.6603 -94.6402 -94.6402 -94.6394 -94.6361 -94.6358
   -94.6358 -94.6124 -94.6124 -94.5987 -15.5671 -15.2259 -15.2246 -15.2016
   -15.2001 -15.1014 -15.1005 -15.0962 -15.0888 -15.0814 -15.0789 -15.0767
   -15.0732 -15.0690 -15.0684 -15.0624 -15.0542 -15.0442 -15.0422 -15.0415
   -15.0312 -15.0300 -15.0282 -15.0199 -15.0168 -15.0140 -15.0117 -15.0075
   -15.0066 -14.9957 -14.9926 -14.9912 -14.9899 -14.9881 -14.9858 -14.9848
   -14.9781 -14.9734 -14.9707 -14.9706 -14.9548 -14.9539 -14.9491 -14.9420
   -14.9415 -14.9388 -14.9370 -14.9344 -14.9258 -14.9180 -14.9153 -14.9120
   -14.9073 -14.8960 -14.8937 -14.8935 -14.8927 -14.8741 -14.8735 -14.8663
    -8.4021  -8.2127  -8.1954  -7.3755  -6.7596  -6.7491  -5.4698  -4.6011
    -4.5911  -3.3983  -3.2966  -2.9873  -1.9778  -0.8050  -0.7643  -0.7550
    -0.4571  -0.4483   0.6854   1.0938   1.2633   1.6246   2.2656   2.2773
     2.4878   2.7848   2.7900   2.9867

          k = 0.0547-0.0632 0.0000 ( 20377 PWs)   bands (ev):

   -94.8829 -94.8829 -94.8428 -94.7001 -94.7001 -94.7000 -94.6952 -94.6770
   -94.6769 -94.6766 -94.6766 -94.6761 -94.6757 -94.6749 -94.6747 -94.6701
   -94.6697 -94.6693 -94.6653 -94.6653 -94.6652 -94.6642 -94.6640 -94.6639
   -94.6605 -94.6604 -94.6603 -94.6404 -94.6399 -94.6395 -94.6361 -94.6359
   -94.6357 -94.6124 -94.6124 -94.5987 -15.5677 -15.2344 -15.2237 -15.2037
   -15.2002 -15.1231 -15.1075 -15.1023 -15.0990 -15.0852 -15.0816 -15.0799
   -15.0765 -15.0697 -15.0665 -15.0628 -15.0578 -15.0523 -15.0477 -15.0431
   -15.0381 -15.0340 -15.0272 -15.0237 -15.0217 -15.0178 -15.0122 -15.0086
   -15.0071 -15.0046 -14.9960 -14.9929 -14.9890 -14.9822 -14.9790 -14.9760
   -14.9738 -14.9668 -14.9624 -14.9560 -14.9527 -14.9501 -14.9460 -14.9428
   -14.9404 -14.9363 -14.9293 -14.9276 -14.9229 -14.9200 -14.9135 -14.9091
   -14.9057 -14.8985 -14.8937 -14.8873 -14.8816 -14.8709 -14.8651 -14.8564
    -9.0267  -8.1453  -7.7688  -7.1880  -6.8317  -6.0569  -5.5275  -4.7963
    -4.4817  -3.9363  -3.4530  -2.7505  -2.0420  -1.2965  -0.7956  -0.3703
    -0.1362   0.1486   0.3197   0.7385   1.1902   1.3220   1.5068   1.5878
     2.1681   2.4825   2.5700   2.7657

          k =-0.0821 0.0474 0.0000 ( 20384 PWs)   bands (ev):

   -94.8829 -94.8829 -94.8428 -94.7001 -94.7001 -94.7000 -94.6952 -94.6771
   -94.6769 -94.6766 -94.6765 -94.6762 -94.6756 -94.6749 -94.6747 -94.6702
   -94.6697 -94.6693 -94.6653 -94.6653 -94.6652 -94.6642 -94.6640 -94.6639
   -94.6605 -94.6604 -94.6603 -94.6404 -94.6399 -94.6395 -94.6361 -94.6359
   -94.6357 -94.6124 -94.6124 -94.5987 -15.5677 -15.2369 -15.2208 -15.2043
   -15.1994 -15.1269 -15.1164 -15.0977 -15.0921 -15.0893 -15.0886 -15.0858
   -15.0786 -15.0690 -15.0639 -15.0561 -15.0557 -15.0487 -15.0417 -15.0389
   -15.0382 -15.0342 -15.0282 -15.0266 -15.0217 -15.0178 -15.0101 -15.0066
   -15.0062 -15.0058 -14.9994 -14.9912 -14.9813 -14.9811 -14.9759 -14.9721
   -14.9686 -14.9634 -14.9603 -14.9558 -14.9557 -14.9492 -14.9469 -14.9441
   -14.9405 -14.9378 -14.9377 -14.9333 -14.9289 -14.9246 -14.9125 -14.9113
   -14.9099 -14.9077 -14.8976 -14.8848 -14.8847 -14.8670 -14.8575 -14.8487
    -8.7791  -8.6644  -7.6735  -7.2080  -6.1758  -5.9329  -5.6815  -5.0292
    -4.7016  -4.5447  -3.3083  -2.6114  -1.7790  -0.9002  -0.4244  -0.4148
    -0.1549  -0.0734   0.2555   1.0767   1.1392   1.1442   1.5332   2.0365
     2.1586   2.2500   2.5015   2.5472

          k =-0.0821 0.0790 0.0000 ( 20377 PWs)   bands (ev):

   -94.8829 -94.8829 -94.8428 -94.7001 -94.7001 -94.7000 -94.6952 -94.6770
   -94.6769 -94.6766 -94.6766 -94.6761 -94.6757 -94.6749 -94.6747 -94.6701
   -94.6697 -94.6693 -94.6653 -94.6653 -94.6652 -94.6642 -94.6640 -94.6639
   -94.6605 -94.6604 -94.6603 -94.6404 -94.6400 -94.6395 -94.6361 -94.6359
   -94.6357 -94.6124 -94.6124 -94.5987 -15.5677 -15.2344 -15.2237 -15.2037
   -15.2002 -15.1231 -15.1075 -15.1023 -15.0990 -15.0852 -15.0816 -15.0799
   -15.0765 -15.0697 -15.0665 -15.0628 -15.0578 -15.0523 -15.0477 -15.0431
   -15.0381 -15.0340 -15.0272 -15.0237 -15.0217 -15.0178 -15.0122 -15.0086
   -15.0071 -15.0046 -14.9960 -14.9929 -14.9890 -14.9822 -14.9790 -14.9760
   -14.9738 -14.9668 -14.9624 -14.9560 -14.9527 -14.9501 -14.9460 -14.9428
   -14.9404 -14.9363 -14.9293 -14.9276 -14.9229 -14.9200 -14.9135 -14.9091
   -14.9057 -14.8985 -14.8937 -14.8873 -14.8816 -14.8709 -14.8651 -14.8564
    -9.0267  -8.1453  -7.7688  -7.1880  -6.8317  -6.0569  -5.5275  -4.7963
    -4.4817  -3.9363  -3.4530  -2.7505  -2.0420  -1.2965  -0.7956  -0.3703
    -0.1362   0.1486   0.3197   0.7385   1.1902   1.3220   1.5068   1.5878
     2.1681   2.4825   2.5700   2.7657

          k =-0.0821 0.1106 0.0000 ( 20377 PWs)   bands (ev):

   -94.8829 -94.8829 -94.8428 -94.7001 -94.7001 -94.7000 -94.6952 -94.6770
   -94.6769 -94.6766 -94.6766 -94.6761 -94.6757 -94.6749 -94.6747 -94.6701
   -94.6697 -94.6693 -94.6653 -94.6653 -94.6652 -94.6642 -94.6640 -94.6639
   -94.6605 -94.6604 -94.6603 -94.6404 -94.6400 -94.6395 -94.6361 -94.6359
   -94.6357 -94.6124 -94.6124 -94.5987 -15.5677 -15.2344 -15.2237 -15.2037
   -15.2002 -15.1231 -15.1075 -15.1023 -15.0990 -15.0852 -15.0816 -15.0799
   -15.0765 -15.0697 -15.0665 -15.0628 -15.0578 -15.0523 -15.0477 -15.0431
   -15.0381 -15.0340 -15.0272 -15.0237 -15.0217 -15.0178 -15.0122 -15.0086
   -15.0071 -15.0046 -14.9960 -14.9929 -14.9890 -14.9822 -14.9790 -14.9760
   -14.9738 -14.9668 -14.9624 -14.9560 -14.9527 -14.9501 -14.9460 -14.9428
   -14.9404 -14.9363 -14.9293 -14.9276 -14.9229 -14.9200 -14.9135 -14.9091
   -14.9057 -14.8985 -14.8937 -14.8873 -14.8816 -14.8709 -14.8651 -14.8564
    -9.0267  -8.1453  -7.7688  -7.1880  -6.8317  -6.0569  -5.5275  -4.7963
    -4.4817  -3.9363  -3.4530  -2.7505  -2.0420  -1.2965  -0.7956  -0.3703
    -0.1362   0.1486   0.3197   0.7385   1.1902   1.3220   1.5068   1.5878
     2.1681   2.4825   2.5700   2.7657

          k =-0.0821-0.0474 0.0000 ( 20384 PWs)   bands (ev):

   -94.8829 -94.8829 -94.8428 -94.7001 -94.7001 -94.7000 -94.6952 -94.6771
   -94.6769 -94.6766 -94.6765 -94.6762 -94.6756 -94.6749 -94.6747 -94.6702
   -94.6697 -94.6693 -94.6653 -94.6653 -94.6652 -94.6642 -94.6641 -94.6639
   -94.6605 -94.6604 -94.6603 -94.6404 -94.6399 -94.6395 -94.6361 -94.6359
   -94.6357 -94.6124 -94.6124 -94.5987 -15.5677 -15.2369 -15.2208 -15.2043
   -15.1994 -15.1269 -15.1164 -15.0977 -15.0921 -15.0894 -15.0886 -15.0858
   -15.0786 -15.0690 -15.0639 -15.0561 -15.0556 -15.0487 -15.0417 -15.0389
   -15.0382 -15.0342 -15.0282 -15.0266 -15.0217 -15.0178 -15.0101 -15.0066
   -15.0062 -15.0058 -14.9994 -14.9912 -14.9813 -14.9811 -14.9759 -14.9721
   -14.9686 -14.9634 -14.9603 -14.9558 -14.9557 -14.9492 -14.9469 -14.9441
   -14.9405 -14.9378 -14.9377 -14.9333 -14.9289 -14.9246 -14.9125 -14.9113
   -14.9099 -14.9077 -14.8976 -14.8848 -14.8847 -14.8670 -14.8575 -14.8487
    -8.7791  -8.6644  -7.6735  -7.2080  -6.1758  -5.9329  -5.6815  -5.0292
    -4.7016  -4.5447  -3.3083  -2.6114  -1.7790  -0.9002  -0.4244  -0.4148
    -0.1549  -0.0734   0.2555   1.0767   1.1392   1.1442   1.5332   2.0365
     2.1586   2.2500   2.5015   2.5472

     the Fermi energy is     0.0408 ev

!    total energy              =   -5000.14544166 Ry
     Harris-Foulkes estimate   =   -5000.14543940 Ry
     estimated scf accuracy    <       0.00000109 Ry

     The total energy is the sum of the following terms:

     one-electron contribution =  -27136.13473847 Ry
     hartree contribution      =   13571.73039384 Ry
     xc contribution           =    -597.29520968 Ry
     ewald contribution        =    9161.58683923 Ry
     electric field correction =       0.00001386 Ry
     smearing contrib. (-TS)   =      -0.03274043 Ry

     convergence has been achieved in  14 iterations
 
 BEEF-vdW xc energy contributions
           1 :   -534.077599444998     
           2 :    484.911858498219     
           3 :   -402.439690962053     
           4 :    310.605728805465     
           5 :   -230.660766146107     
           6 :    173.166870116707     
           7 :   -136.439843795682     
           8 :    111.248103412671     
           9 :   -88.2140024370576     
          10 :    63.3168454762445     
          11 :   -38.7136105580093     
          12 :    19.3556416687761     
          13 :   -8.42237803851924     
          14 :    4.84277725352786     
          15 :   -4.26229472836508     
          16 :    2.25656570827982     
          17 :    2.78572456952656     
          18 :   -9.11880526572759     
          19 :    13.5366650744597     
          20 :   -14.0659020364482     
          21 :    11.4192538712671     
          22 :   -8.28960767695821     
          23 :    7.22360308910822     
          24 :   -8.78545297523090     
          25 :    11.3509180742299     
          26 :   -12.5540077710115     
          27 :    11.1759246679466     
          28 :   -8.03054822313811     
          29 :    5.25183660288121     
          30 :   -4.62315788552974     
          31 :   -39.3407161278739     
          32 :   -26.7065356445469     

     Forces acting on atoms (Ry/au):


     negative rho (up, down):  1.024E-03 0.000E+00
     atom    1 type  1   force =     0.00183624    0.00106714    0.00673165
     atom    2 type  1   force =    -0.00184220    0.00106021    0.00674925
     atom    3 type  1   force =    -0.00000561   -0.00212782    0.00672850
     atom    4 type  1   force =     0.00000200   -0.00001094    0.00003718
     atom    5 type  1   force =    -0.00000899    0.00131814    0.00420322
     atom    6 type  1   force =     0.00000566    0.00000170   -0.00677843
     atom    7 type  1   force =    -0.00113774   -0.00066271    0.00424931
     atom    8 type  1   force =     0.00115067   -0.00065461    0.00413855
     atom    9 type  1   force =    -0.00000835    0.00000112   -0.26536785
     atom   10 type  1   force =     0.00001377    0.00282574   -0.00642656
     atom   11 type  1   force =     0.00243710   -0.00141730   -0.00641372
     atom   12 type  1   force =    -0.00244085   -0.00139936   -0.00641104
     atom   13 type  2   force =    -0.00000171   -0.00000130    0.25855994

     Total force =     0.370703     Total SCF correction =     0.004015


     entering subroutine stress ...


     negative rho (up, down):  1.024E-03 0.000E+00
          total   stress  (Ry/bohr**3)                   (kbar)     P=   -0.31
  -0.00004876   0.00000000   0.00000000         -7.17      0.00      0.00
   0.00000000  -0.00004876   0.00000000          0.00     -7.17      0.00
   0.00000000   0.00000000   0.00009115          0.00      0.00     13.41


     BFGS Geometry Optimization

     number of scf cycles    =   1
     number of bfgs steps    =   0

     energy   new            =   -5000.1454416566 Ry

     new trust radius        =       0.2653678551 bohr
     new conv_thr            =       0.0000099958 Ry


ATOMIC_POSITIONS (crystal)
Ga1      0.166666667   0.166666667   0.400460194    0   0   0
Ga1      0.666666667   0.166666667   0.400460194    0   0   0
Ga1      0.166666667   0.666666667   0.400460194    0   0   0
Ga1      0.666666667   0.666666667   0.400460194    0   0   0
Ga1      0.833333333   0.333333333   0.500000000    0   0   0
Ga1      0.333333333   0.333333333   0.500000000    0   0   0
Ga1      0.833333333   0.833333333   0.500000000    0   0   0
Ga1      0.333333333   0.833333333   0.500000000    0   0   0
Ga1     -0.000000782   0.000000112   0.593916279
Ga1      0.499859402   0.000283589   0.599403618
Ga1      0.000282937   0.499857760   0.599403890
Ga1      0.499858076   0.499859561   0.599403947
H1      -0.000000083  -0.000000130   0.657098912



     Writing output data file calc.save
     Check: negative starting charge=   -0.001259
     NEW-OLD atomic charge density approx. for the potential
     Check: negative starting charge=   -0.001240

     negative rho (up, down):  1.254E-03 0.000E+00
 
     Adding external electric field

     Computed dipole along edir(3) : 
        Dipole               -0.3619 Ry au,         -0.9197 Debye
        Dipole field         -0.0008 Ry au
 
        Potential amp.        0.0773 Ry
        Total length         46.0091 bohr
 

     total cpu time spent up to now is      503.3 secs

     per-process dynamical memory:   134.9 Mb

     Self-consistent Calculation

     iteration #  1     ecut=    36.75 Ry     beta=0.30
     Davidson diagonalization with overlap
     ethr =  1.00E-06,  avg # of iterations =  7.0

     negative rho (up, down):  1.093E-03 0.000E+00
 
     Adding external electric field

     Computed dipole along edir(3) : 
        Dipole                1.4018 Ry au,          3.5630 Debye
        Dipole field          0.0033 Ry au
 
        Potential amp.       -0.2996 Ry
        Total length         46.0091 bohr
 

     total cpu time spent up to now is      542.7 secs

     total energy              =   -5000.06151862 Ry
     Harris-Foulkes estimate   =   -5000.21473880 Ry
     estimated scf accuracy    <       0.31890850 Ry

     iteration #  2     ecut=    36.75 Ry     beta=0.30
     Davidson diagonalization with overlap
     ethr =  1.39E-04,  avg # of iterations =  7.6

     negative rho (up, down):  1.027E-03 0.000E+00
 
     Adding external electric field

     Computed dipole along edir(3) : 
        Dipole               -0.1482 Ry au,         -0.3768 Debye
        Dipole field         -0.0003 Ry au
 
        Potential amp.        0.0317 Ry
        Total length         46.0091 bohr
 

     total cpu time spent up to now is      571.5 secs

     total energy              =   -4999.68972666 Ry
     Harris-Foulkes estimate   =   -5000.73018048 Ry
     estimated scf accuracy    <      14.00262167 Ry

     iteration #  3     ecut=    36.75 Ry     beta=0.30
     Davidson diagonalization with overlap
     ethr =  1.39E-04,  avg # of iterations =  4.8

     negative rho (up, down):  1.011E-03 0.000E+00
 
     Adding external electric field

     Computed dipole along edir(3) : 
        Dipole               -0.1136 Ry au,         -0.2886 Debye
        Dipole field         -0.0003 Ry au
 
        Potential amp.        0.0243 Ry
        Total length         46.0091 bohr
 

     total cpu time spent up to now is      597.8 secs

     total energy              =   -5000.20086345 Ry
     Harris-Foulkes estimate   =   -5000.20509434 Ry
     estimated scf accuracy    <       0.02199825 Ry

     iteration #  4     ecut=    36.75 Ry     beta=0.30
     Davidson diagonalization with overlap
     ethr =  9.61E-06,  avg # of iterations =  3.0

     negative rho (up, down):  9.852E-04 0.000E+00
 
     Adding external electric field

     Computed dipole along edir(3) : 
        Dipole               -0.1268 Ry au,         -0.3223 Debye
        Dipole field         -0.0003 Ry au
 
        Potential amp.        0.0271 Ry
        Total length         46.0091 bohr
 

     total cpu time spent up to now is      621.4 secs

     total energy              =   -5000.20333130 Ry
     Harris-Foulkes estimate   =   -5000.20343581 Ry
     estimated scf accuracy    <       0.00173002 Ry

     iteration #  5     ecut=    36.75 Ry     beta=0.30
     Davidson diagonalization with overlap
     ethr =  7.55E-07,  avg # of iterations =  3.0

     negative rho (up, down):  9.963E-04 0.000E+00
 
     Adding external electric field

     Computed dipole along edir(3) : 
        Dipole               -0.1304 Ry au,         -0.3313 Debye
        Dipole field         -0.0003 Ry au
 
        Potential amp.        0.0279 Ry
        Total length         46.0091 bohr
 

     total cpu time spent up to now is      645.1 secs

     total energy              =   -5000.20356689 Ry
     Harris-Foulkes estimate   =   -5000.20346536 Ry
     estimated scf accuracy    <       0.00034288 Ry

     iteration #  6     ecut=    36.75 Ry     beta=0.30
     Davidson diagonalization with overlap
     ethr =  1.50E-07,  avg # of iterations =  2.0

     negative rho (up, down):  1.006E-03 0.000E+00
 
     Adding external electric field

     Computed dipole along edir(3) : 
        Dipole               -0.1296 Ry au,         -0.3294 Debye
        Dipole field         -0.0003 Ry au
 
        Potential amp.        0.0277 Ry
        Total length         46.0091 bohr
 

     total cpu time spent up to now is      668.2 secs

     total energy              =   -5000.20359137 Ry
     Harris-Foulkes estimate   =   -5000.20358333 Ry
     estimated scf accuracy    <       0.00001607 Ry

     iteration #  7     ecut=    36.75 Ry     beta=0.30
     Davidson diagonalization with overlap
     ethr =  7.02E-09,  avg # of iterations =  3.4

     negative rho (up, down):  1.021E-03 0.000E+00

     negative rho (up, down):  1.021E-03 0.000E+00

     negative rho (up, down):  1.021E-03 0.000E+00

     negative rho (up, down):  1.021E-03 0.000E+00

     negative rho (up, down):  1.021E-03 0.000E+00

     negative rho (up, down):  1.021E-03 0.000E+00

     negative rho (up, down):  1.021E-03 0.000E+00

     negative rho (up, down):  1.021E-03 0.000E+00

     negative rho (up, down):  1.021E-03 0.000E+00

     negative rho (up, down):  1.021E-03 0.000E+00

     negative rho (up, down):  1.021E-03 0.000E+00

     negative rho (up, down):  1.021E-03 0.000E+00

     negative rho (up, down):  1.021E-03 0.000E+00

     negative rho (up, down):  1.021E-03 0.000E+00

     negative rho (up, down):  1.021E-03 0.000E+00

     negative rho (up, down):  1.021E-03 0.000E+00

     negative rho (up, down):  1.021E-03 0.000E+00

     negative rho (up, down):  1.021E-03 0.000E+00

     negative rho (up, down):  1.021E-03 0.000E+00

     negative rho (up, down):  1.021E-03 0.000E+00

     negative rho (up, down):  1.021E-03 0.000E+00

     negative rho (up, down):  1.021E-03 0.000E+00

     negative rho (up, down):  1.021E-03 0.000E+00

     negative rho (up, down):  1.021E-03 0.000E+00

     negative rho (up, down):  1.021E-03 0.000E+00

     negative rho (up, down):  1.021E-03 0.000E+00

     negative rho (up, down):  1.021E-03 0.000E+00

     negative rho (up, down):  1.021E-03 0.000E+00

     negative rho (up, down):  1.021E-03 0.000E+00

     negative rho (up, down):  1.021E-03 0.000E+00

     negative rho (up, down):  1.021E-03 0.000E+00

     negative rho (up, down):  1.021E-03 0.000E+00

     negative rho (up, down):  1.021E-03 0.000E+00

     negative rho (up, down):  1.021E-03 0.000E+00

     negative rho (up, down):  1.021E-03 0.000E+00
 
     Adding external electric field

     Computed dipole along edir(3) : 
        Dipole               -0.1263 Ry au,         -0.3210 Debye
        Dipole field         -0.0003 Ry au
 
        Potential amp.        0.0270 Ry
        Total length         46.0091 bohr
 

     total cpu time spent up to now is      745.3 secs

     End of self-consistent calculation

          k = 0.0000 0.0000 0.0000 ( 20347 PWs)   bands (ev):

   -94.7718 -94.7718 -94.7682 -94.7630 -94.7629 -94.7629 -94.7473 -94.7473
   -94.7405 -94.7405 -94.7403 -94.7399 -94.7388 -94.7388 -94.7386 -94.7373
   -94.7373 -94.7354 -94.7352 -94.7352 -94.7326 -94.7326 -94.7321 -94.7283
   -94.7281 -94.7281 -94.7098 -94.7090 -94.7090 -94.7082 -94.7081 -94.7081
   -94.6798 -94.6798 -94.6718 -94.6681 -15.2512 -15.2428 -15.2428 -15.2035
   -15.2035 -15.2017 -15.1900 -15.1900 -15.1895 -15.1806 -15.1669 -15.1669
   -15.1615 -15.1585 -15.1422 -15.1315 -15.1315 -15.1220 -15.1193 -15.1193
   -15.1129 -15.1129 -15.1107 -15.1107 -15.1083 -15.1023 -15.1014 -15.1014
   -15.0914 -15.0914 -15.0360 -15.0360 -15.0339 -15.0313 -15.0313 -15.0302
   -15.0128 -15.0128 -15.0077 -15.0077 -14.9808 -14.9714 -14.9714 -14.9667
   -14.9563 -14.9563 -14.9475 -14.9475 -14.9420 -14.9420 -14.9420 -14.9342
   -14.9342 -14.9338 -14.9282 -14.9282 -14.9209 -14.9096 -14.9096 -14.9050
   -10.1778  -8.7325  -6.5822  -5.2293  -4.9486  -4.9486  -4.7630  -4.5320
    -4.5320  -3.8889  -3.2756  -3.2756  -2.8898  -2.7798  -2.7798  -2.6526
    -1.6305  -0.9589  -0.9589  -0.8073  -0.7482  -0.7482   0.2809   1.6022
     2.8880   3.0260   3.0347   3.0347

          k = 0.0000 0.0316 0.0000 ( 20271 PWs)   bands (ev):

   -94.7718 -94.7718 -94.7682 -94.7630 -94.7629 -94.7628 -94.7472 -94.7472
   -94.7405 -94.7404 -94.7402 -94.7399 -94.7389 -94.7388 -94.7386 -94.7374
   -94.7373 -94.7353 -94.7352 -94.7352 -94.7325 -94.7325 -94.7321 -94.7283
   -94.7281 -94.7281 -94.7097 -94.7090 -94.7089 -94.7082 -94.7081 -94.7081
   -94.6798 -94.6798 -94.6718 -94.6681 -15.2425 -15.2334 -15.2298 -15.2004
   -15.1926 -15.1906 -15.1835 -15.1812 -15.1777 -15.1734 -15.1633 -15.1564
   -15.1558 -15.1503 -15.1376 -15.1291 -15.1283 -15.1227 -15.1173 -15.1164
   -15.1116 -15.1107 -15.1090 -15.1038 -15.1029 -15.0979 -15.0973 -15.0930
   -15.0900 -15.0854 -15.0421 -15.0386 -15.0371 -15.0348 -15.0327 -15.0325
   -15.0200 -15.0197 -15.0118 -15.0079 -14.9856 -14.9770 -14.9758 -14.9712
   -14.9619 -14.9619 -14.9586 -14.9538 -14.9525 -14.9523 -14.9466 -14.9433
   -14.9431 -14.9383 -14.9376 -14.9324 -14.9258 -14.9203 -14.9146 -14.9137
   -10.0256  -8.5841  -6.4954  -6.3306  -5.5603  -5.4525  -5.0807  -4.5242
    -4.2399  -3.6381  -3.2980  -3.2072  -2.7411  -2.1988  -2.1648  -2.0908
    -1.4866  -1.3514  -1.0392  -0.5280   0.0986   0.3854   0.8517   1.6121
     1.9943   2.4245   2.8621   3.1913

          k = 0.0000 0.0632 0.0000 ( 20353 PWs)   bands (ev):

   -94.7718 -94.7718 -94.7682 -94.7630 -94.7629 -94.7628 -94.7472 -94.7472
   -94.7405 -94.7403 -94.7400 -94.7400 -94.7392 -94.7388 -94.7384 -94.7376
   -94.7373 -94.7353 -94.7352 -94.7352 -94.7326 -94.7325 -94.7321 -94.7283
   -94.7281 -94.7281 -94.7095 -94.7089 -94.7088 -94.7084 -94.7083 -94.7081
   -94.6798 -94.6798 -94.6718 -94.6681 -15.2252 -15.2072 -15.1989 -15.1911
   -15.1732 -15.1697 -15.1679 -15.1636 -15.1561 -15.1554 -15.1520 -15.1453
   -15.1393 -15.1344 -15.1295 -15.1274 -15.1213 -15.1193 -15.1099 -15.1083
   -15.1077 -15.1025 -15.0956 -15.0909 -15.0851 -15.0849 -15.0819 -15.0783
   -15.0745 -15.0613 -15.0575 -15.0530 -15.0448 -15.0430 -15.0409 -15.0392
   -15.0336 -15.0313 -15.0198 -15.0080 -15.0048 -14.9962 -14.9933 -14.9921
   -14.9855 -14.9854 -14.9794 -14.9755 -14.9721 -14.9707 -14.9631 -14.9622
   -14.9555 -14.9534 -14.9502 -14.9468 -14.9459 -14.9324 -14.9252 -14.9133
    -9.5684  -8.1473  -7.7185  -6.4206  -6.0007  -5.8885  -5.8813  -4.8134
    -4.4873  -4.2304  -3.1898  -2.7197  -2.2095  -1.6458  -1.6048  -0.8543
    -0.5680  -0.4409  -0.1615   0.4682   1.0841   1.2104   1.3312   1.5348
     1.6683   2.3534   2.5925   2.6710

          k = 0.0000-0.0948 0.0000 ( 20384 PWs)   bands (ev):

   -94.7718 -94.7718 -94.7682 -94.7630 -94.7629 -94.7629 -94.7472 -94.7472
   -94.7406 -94.7402 -94.7401 -94.7398 -94.7394 -94.7388 -94.7382 -94.7377
   -94.7373 -94.7353 -94.7352 -94.7352 -94.7326 -94.7324 -94.7322 -94.7282
   -94.7282 -94.7281 -94.7094 -94.7088 -94.7086 -94.7086 -94.7085 -94.7081
   -94.6798 -94.6798 -94.6718 -94.6681 -15.2113 -15.1914 -15.1874 -15.1770
   -15.1768 -15.1660 -15.1609 -15.1567 -15.1468 -15.1439 -15.1399 -15.1325
   -15.1300 -15.1242 -15.1220 -15.1197 -15.1163 -15.1119 -15.1020 -15.0968
   -15.0964 -15.0943 -15.0919 -15.0876 -15.0754 -15.0733 -15.0730 -15.0718
   -15.0713 -15.0688 -15.0627 -15.0576 -15.0459 -15.0436 -15.0429 -15.0310
   -15.0265 -15.0246 -15.0243 -15.0205 -15.0174 -15.0159 -15.0116 -15.0079
   -15.0034 -15.0028 -14.9966 -14.9962 -14.9914 -14.9823 -14.9789 -14.9746
   -14.9694 -14.9642 -14.9521 -14.9512 -14.9487 -14.9332 -14.9264 -14.9127
    -8.8582  -8.7469  -7.4945  -7.2769  -6.1094  -6.0287  -5.5410  -5.0737
    -4.7568  -4.6130  -3.2268  -2.6581  -1.8476  -0.9560  -0.5365  -0.4872
    -0.2413  -0.1742   0.2081   0.9969   1.0305   1.0982   1.4499   1.9928
     2.0977   2.2018   2.3986   2.4435

          k = 0.0274-0.0158 0.0000 ( 20271 PWs)   bands (ev):

   -94.7718 -94.7718 -94.7682 -94.7630 -94.7629 -94.7628 -94.7472 -94.7472
   -94.7405 -94.7404 -94.7402 -94.7399 -94.7389 -94.7388 -94.7386 -94.7374
   -94.7373 -94.7353 -94.7352 -94.7352 -94.7325 -94.7325 -94.7321 -94.7283
   -94.7281 -94.7281 -94.7097 -94.7090 -94.7089 -94.7082 -94.7081 -94.7081
   -94.6798 -94.6798 -94.6718 -94.6681 -15.2425 -15.2334 -15.2298 -15.2004
   -15.1926 -15.1906 -15.1835 -15.1812 -15.1777 -15.1734 -15.1633 -15.1564
   -15.1558 -15.1503 -15.1376 -15.1291 -15.1283 -15.1227 -15.1173 -15.1164
   -15.1116 -15.1107 -15.1090 -15.1038 -15.1029 -15.0979 -15.0973 -15.0930
   -15.0900 -15.0854 -15.0421 -15.0386 -15.0371 -15.0348 -15.0327 -15.0325
   -15.0200 -15.0197 -15.0118 -15.0079 -14.9856 -14.9770 -14.9758 -14.9712
   -14.9619 -14.9619 -14.9586 -14.9538 -14.9525 -14.9523 -14.9466 -14.9433
   -14.9431 -14.9383 -14.9376 -14.9324 -14.9258 -14.9203 -14.9146 -14.9137
   -10.0256  -8.5841  -6.4954  -6.3306  -5.5603  -5.4525  -5.0807  -4.5242
    -4.2399  -3.6381  -3.2980  -3.2072  -2.7411  -2.1988  -2.1648  -2.0908
    -1.4866  -1.3514  -1.0392  -0.5280   0.0986   0.3854   0.8517   1.6121
     1.9943   2.4245   2.8621   3.1913

          k = 0.0274 0.0158 0.0000 ( 20271 PWs)   bands (ev):

   -94.7718 -94.7718 -94.7682 -94.7630 -94.7629 -94.7628 -94.7472 -94.7472
   -94.7405 -94.7404 -94.7402 -94.7399 -94.7389 -94.7388 -94.7386 -94.7374
   -94.7373 -94.7353 -94.7352 -94.7352 -94.7325 -94.7325 -94.7321 -94.7283
   -94.7281 -94.7281 -94.7097 -94.7090 -94.7089 -94.7082 -94.7081 -94.7081
   -94.6798 -94.6798 -94.6718 -94.6681 -15.2425 -15.2334 -15.2298 -15.2004
   -15.1926 -15.1906 -15.1835 -15.1812 -15.1777 -15.1734 -15.1633 -15.1564
   -15.1558 -15.1503 -15.1376 -15.1291 -15.1283 -15.1227 -15.1173 -15.1164
   -15.1116 -15.1107 -15.1090 -15.1038 -15.1029 -15.0979 -15.0973 -15.0930
   -15.0900 -15.0854 -15.0421 -15.0386 -15.0371 -15.0348 -15.0327 -15.0325
   -15.0200 -15.0197 -15.0118 -15.0079 -14.9856 -14.9770 -14.9758 -14.9712
   -14.9619 -14.9619 -14.9586 -14.9538 -14.9525 -14.9523 -14.9466 -14.9433
   -14.9431 -14.9383 -14.9376 -14.9324 -14.9258 -14.9203 -14.9146 -14.9137
   -10.0256  -8.5841  -6.4954  -6.3306  -5.5603  -5.4525  -5.0807  -4.5242
    -4.2399  -3.6381  -3.2980  -3.2072  -2.7411  -2.1988  -2.1648  -2.0908
    -1.4866  -1.3514  -1.0391  -0.5280   0.0986   0.3854   0.8517   1.6121
     1.9943   2.4245   2.8621   3.1913

          k = 0.0274 0.0474 0.0000 ( 20341 PWs)   bands (ev):

   -94.7718 -94.7718 -94.7682 -94.7630 -94.7629 -94.7628 -94.7472 -94.7472
   -94.7405 -94.7404 -94.7401 -94.7400 -94.7391 -94.7388 -94.7384 -94.7375
   -94.7373 -94.7353 -94.7352 -94.7352 -94.7326 -94.7325 -94.7321 -94.7283
   -94.7281 -94.7281 -94.7096 -94.7090 -94.7088 -94.7084 -94.7082 -94.7081
   -94.6798 -94.6798 -94.6718 -94.6681 -15.2272 -15.2185 -15.2072 -15.1885
   -15.1844 -15.1712 -15.1701 -15.1652 -15.1627 -15.1596 -15.1554 -15.1488
   -15.1429 -15.1388 -15.1338 -15.1262 -15.1236 -15.1222 -15.1168 -15.1102
   -15.1082 -15.1058 -15.1015 -15.0938 -15.0912 -15.0894 -15.0855 -15.0818
   -15.0810 -15.0692 -15.0520 -15.0472 -15.0427 -15.0396 -15.0372 -15.0358
   -15.0351 -15.0298 -15.0144 -15.0113 -14.9990 -14.9921 -14.9856 -14.9835
   -14.9773 -14.9739 -14.9730 -14.9704 -14.9688 -14.9670 -14.9575 -14.9572
   -14.9516 -14.9486 -14.9456 -14.9399 -14.9390 -14.9294 -14.9260 -14.9194
    -9.7209  -8.2893  -7.0282  -6.9106  -6.2088  -5.6642  -5.4795  -4.5741
    -4.2799  -3.8830  -3.4018  -3.0352  -2.4128  -2.2241  -1.1829  -1.1562
    -1.0275  -0.3766  -0.2573   0.0358   0.3623   0.9407   1.1000   1.7169
     2.0657   2.2673   2.5838   2.9399

          k = 0.0274-0.1106 0.0000 ( 20377 PWs)   bands (ev):

   -94.7718 -94.7718 -94.7682 -94.7630 -94.7629 -94.7628 -94.7472 -94.7472
   -94.7405 -94.7403 -94.7401 -94.7398 -94.7393 -94.7389 -94.7382 -94.7377
   -94.7373 -94.7353 -94.7352 -94.7352 -94.7326 -94.7324 -94.7322 -94.7282
   -94.7282 -94.7281 -94.7094 -94.7090 -94.7086 -94.7086 -94.7084 -94.7082
   -94.6798 -94.6798 -94.6718 -94.6681 -15.2081 -15.1918 -15.1824 -15.1805
   -15.1699 -15.1647 -15.1600 -15.1531 -15.1497 -15.1454 -15.1406 -15.1374
   -15.1320 -15.1268 -15.1224 -15.1205 -15.1176 -15.1112 -15.1069 -15.0999
   -15.0965 -15.0912 -15.0885 -15.0874 -15.0821 -15.0752 -15.0743 -15.0728
   -15.0683 -15.0663 -15.0606 -15.0583 -15.0525 -15.0473 -15.0425 -15.0393
   -15.0361 -15.0277 -15.0235 -15.0209 -15.0153 -15.0111 -15.0087 -15.0071
   -15.0015 -14.9978 -14.9941 -14.9890 -14.9825 -14.9789 -14.9740 -14.9708
   -14.9679 -14.9598 -14.9549 -14.9495 -14.9481 -14.9370 -14.9332 -14.9208
    -9.1119  -8.1951  -7.6956  -7.2621  -6.7822  -5.9356  -5.5469  -4.7475
    -4.5855  -3.9044  -3.5149  -2.7858  -2.1099  -1.3915  -0.8378  -0.4356
    -0.2075   0.0938   0.2180   0.6661   1.1075   1.2419   1.4259   1.5298
     2.1303   2.4138   2.5097   2.7168

          k = 0.0274-0.0790 0.0000 ( 20377 PWs)   bands (ev):

   -94.7718 -94.7718 -94.7682 -94.7630 -94.7629 -94.7628 -94.7472 -94.7472
   -94.7405 -94.7403 -94.7401 -94.7398 -94.7393 -94.7389 -94.7382 -94.7377
   -94.7373 -94.7353 -94.7352 -94.7352 -94.7326 -94.7324 -94.7322 -94.7282
   -94.7282 -94.7281 -94.7094 -94.7090 -94.7086 -94.7086 -94.7084 -94.7082
   -94.6798 -94.6798 -94.6718 -94.6681 -15.2081 -15.1918 -15.1824 -15.1805
   -15.1699 -15.1647 -15.1600 -15.1531 -15.1497 -15.1454 -15.1406 -15.1374
   -15.1320 -15.1268 -15.1224 -15.1205 -15.1176 -15.1112 -15.1069 -15.0999
   -15.0965 -15.0912 -15.0885 -15.0874 -15.0821 -15.0752 -15.0743 -15.0728
   -15.0683 -15.0663 -15.0606 -15.0583 -15.0525 -15.0473 -15.0425 -15.0393
   -15.0361 -15.0277 -15.0235 -15.0209 -15.0153 -15.0111 -15.0087 -15.0071
   -15.0015 -14.9978 -14.9941 -14.9890 -14.9825 -14.9789 -14.9740 -14.9708
   -14.9679 -14.9598 -14.9549 -14.9495 -14.9481 -14.9370 -14.9332 -14.9208
    -9.1119  -8.1951  -7.6956  -7.2621  -6.7822  -5.9356  -5.5469  -4.7475
    -4.5855  -3.9044  -3.5149  -2.7858  -2.1099  -1.3915  -0.8378  -0.4356
    -0.2075   0.0938   0.2180   0.6661   1.1075   1.2419   1.4259   1.5298
     2.1303   2.4138   2.5097   2.7168

          k = 0.0274-0.0474 0.0000 ( 20341 PWs)   bands (ev):

   -94.7718 -94.7718 -94.7682 -94.7630 -94.7629 -94.7628 -94.7472 -94.7472
   -94.7405 -94.7404 -94.7401 -94.7400 -94.7391 -94.7388 -94.7384 -94.7375
   -94.7373 -94.7353 -94.7352 -94.7352 -94.7326 -94.7325 -94.7321 -94.7283
   -94.7281 -94.7281 -94.7096 -94.7090 -94.7088 -94.7084 -94.7082 -94.7081
   -94.6798 -94.6798 -94.6718 -94.6681 -15.2272 -15.2185 -15.2072 -15.1885
   -15.1844 -15.1712 -15.1701 -15.1652 -15.1627 -15.1596 -15.1554 -15.1488
   -15.1429 -15.1388 -15.1338 -15.1262 -15.1236 -15.1222 -15.1168 -15.1102
   -15.1082 -15.1058 -15.1015 -15.0938 -15.0912 -15.0894 -15.0855 -15.0818
   -15.0810 -15.0692 -15.0520 -15.0472 -15.0427 -15.0396 -15.0372 -15.0358
   -15.0351 -15.0298 -15.0144 -15.0113 -14.9990 -14.9921 -14.9856 -14.9835
   -14.9773 -14.9739 -14.9730 -14.9704 -14.9688 -14.9670 -14.9575 -14.9572
   -14.9516 -14.9486 -14.9456 -14.9399 -14.9390 -14.9294 -14.9260 -14.9194
    -9.7209  -8.2893  -7.0282  -6.9106  -6.2088  -5.6642  -5.4795  -4.5741
    -4.2799  -3.8830  -3.4018  -3.0352  -2.4128  -2.2241  -1.1829  -1.1562
    -1.0275  -0.3766  -0.2573   0.0358   0.3623   0.9407   1.1000   1.7169
     2.0657   2.2673   2.5838   2.9399

          k = 0.0547-0.0316 0.0000 ( 20353 PWs)   bands (ev):

   -94.7718 -94.7718 -94.7682 -94.7630 -94.7629 -94.7628 -94.7472 -94.7472
   -94.7405 -94.7403 -94.7400 -94.7400 -94.7392 -94.7388 -94.7384 -94.7376
   -94.7373 -94.7353 -94.7352 -94.7352 -94.7326 -94.7325 -94.7321 -94.7283
   -94.7281 -94.7281 -94.7095 -94.7089 -94.7088 -94.7084 -94.7083 -94.7081
   -94.6798 -94.6798 -94.6718 -94.6681 -15.2252 -15.2072 -15.1989 -15.1911
   -15.1732 -15.1697 -15.1679 -15.1636 -15.1561 -15.1554 -15.1520 -15.1453
   -15.1393 -15.1344 -15.1295 -15.1274 -15.1213 -15.1193 -15.1099 -15.1083
   -15.1077 -15.1025 -15.0956 -15.0909 -15.0851 -15.0849 -15.0819 -15.0783
   -15.0745 -15.0613 -15.0575 -15.0530 -15.0448 -15.0430 -15.0409 -15.0392
   -15.0336 -15.0313 -15.0198 -15.0080 -15.0048 -14.9962 -14.9933 -14.9921
   -14.9855 -14.9854 -14.9794 -14.9755 -14.9721 -14.9707 -14.9631 -14.9622
   -14.9555 -14.9534 -14.9502 -14.9468 -14.9459 -14.9324 -14.9252 -14.9133
    -9.5684  -8.1473  -7.7185  -6.4206  -6.0007  -5.8885  -5.8813  -4.8134
    -4.4873  -4.2304  -3.1898  -2.7197  -2.2095  -1.6458  -1.6048  -0.8543
    -0.5680  -0.4409  -0.1615   0.4682   1.0841   1.2104   1.3312   1.5348
     1.6683   2.3534   2.5925   2.6710

          k = 0.0547 0.0000 0.0000 ( 20341 PWs)   bands (ev):

   -94.7718 -94.7718 -94.7682 -94.7630 -94.7629 -94.7628 -94.7472 -94.7472
   -94.7405 -94.7404 -94.7401 -94.7400 -94.7391 -94.7388 -94.7384 -94.7375
   -94.7373 -94.7353 -94.7352 -94.7352 -94.7326 -94.7325 -94.7321 -94.7283
   -94.7281 -94.7281 -94.7096 -94.7090 -94.7088 -94.7084 -94.7082 -94.7081
   -94.6798 -94.6798 -94.6718 -94.6681 -15.2272 -15.2185 -15.2072 -15.1885
   -15.1844 -15.1712 -15.1701 -15.1652 -15.1627 -15.1596 -15.1554 -15.1488
   -15.1429 -15.1388 -15.1338 -15.1262 -15.1236 -15.1222 -15.1168 -15.1102
   -15.1082 -15.1058 -15.1015 -15.0938 -15.0912 -15.0894 -15.0855 -15.0818
   -15.0810 -15.0692 -15.0520 -15.0472 -15.0427 -15.0396 -15.0372 -15.0358
   -15.0351 -15.0298 -15.0144 -15.0113 -14.9990 -14.9921 -14.9856 -14.9835
   -14.9773 -14.9739 -14.9730 -14.9704 -14.9688 -14.9670 -14.9575 -14.9572
   -14.9516 -14.9486 -14.9456 -14.9399 -14.9390 -14.9294 -14.9260 -14.9194
    -9.7209  -8.2893  -7.0282  -6.9106  -6.2088  -5.6642  -5.4795  -4.5741
    -4.2799  -3.8830  -3.4018  -3.0352  -2.4128  -2.2241  -1.1829  -1.1562
    -1.0275  -0.3766  -0.2573   0.0358   0.3623   0.9407   1.1000   1.7169
     2.0657   2.2673   2.5838   2.9399

          k = 0.0547 0.0316 0.0000 ( 20353 PWs)   bands (ev):

   -94.7718 -94.7718 -94.7682 -94.7630 -94.7629 -94.7628 -94.7472 -94.7472
   -94.7405 -94.7403 -94.7400 -94.7400 -94.7392 -94.7388 -94.7384 -94.7376
   -94.7373 -94.7353 -94.7352 -94.7352 -94.7326 -94.7325 -94.7321 -94.7283
   -94.7281 -94.7281 -94.7095 -94.7089 -94.7088 -94.7084 -94.7083 -94.7081
   -94.6798 -94.6798 -94.6718 -94.6681 -15.2252 -15.2072 -15.1989 -15.1911
   -15.1732 -15.1697 -15.1679 -15.1636 -15.1561 -15.1554 -15.1520 -15.1453
   -15.1393 -15.1344 -15.1295 -15.1274 -15.1213 -15.1193 -15.1099 -15.1083
   -15.1077 -15.1025 -15.0956 -15.0909 -15.0851 -15.0849 -15.0819 -15.0783
   -15.0745 -15.0613 -15.0575 -15.0530 -15.0448 -15.0430 -15.0409 -15.0392
   -15.0336 -15.0313 -15.0198 -15.0080 -15.0048 -14.9962 -14.9933 -14.9921
   -14.9855 -14.9854 -14.9794 -14.9755 -14.9721 -14.9707 -14.9631 -14.9622
   -14.9555 -14.9534 -14.9502 -14.9468 -14.9459 -14.9324 -14.9252 -14.9133
    -9.5684  -8.1473  -7.7185  -6.4206  -6.0007  -5.8885  -5.8813  -4.8134
    -4.4873  -4.2304  -3.1898  -2.7197  -2.2095  -1.6458  -1.6048  -0.8543
    -0.5680  -0.4409  -0.1615   0.4682   1.0841   1.2104   1.3312   1.5348
     1.6683   2.3534   2.5925   2.6710

          k = 0.0547-0.1264 0.0000 ( 20377 PWs)   bands (ev):

   -94.7718 -94.7718 -94.7682 -94.7630 -94.7629 -94.7628 -94.7472 -94.7472
   -94.7405 -94.7403 -94.7401 -94.7398 -94.7393 -94.7389 -94.7382 -94.7377
   -94.7373 -94.7353 -94.7352 -94.7352 -94.7326 -94.7324 -94.7322 -94.7282
   -94.7282 -94.7281 -94.7094 -94.7090 -94.7086 -94.7086 -94.7084 -94.7082
   -94.6798 -94.6798 -94.6718 -94.6681 -15.2081 -15.1918 -15.1824 -15.1805
   -15.1699 -15.1647 -15.1600 -15.1531 -15.1497 -15.1454 -15.1406 -15.1374
   -15.1320 -15.1268 -15.1224 -15.1205 -15.1176 -15.1112 -15.1069 -15.0999
   -15.0965 -15.0912 -15.0885 -15.0874 -15.0821 -15.0752 -15.0743 -15.0728
   -15.0683 -15.0663 -15.0606 -15.0583 -15.0525 -15.0473 -15.0425 -15.0393
   -15.0361 -15.0277 -15.0235 -15.0209 -15.0153 -15.0111 -15.0087 -15.0071
   -15.0015 -14.9978 -14.9941 -14.9890 -14.9825 -14.9789 -14.9740 -14.9708
   -14.9679 -14.9598 -14.9549 -14.9495 -14.9481 -14.9370 -14.9332 -14.9208
    -9.1119  -8.1951  -7.6956  -7.2621  -6.7822  -5.9356  -5.5469  -4.7475
    -4.5855  -3.9044  -3.5149  -2.7858  -2.1099  -1.3915  -0.8378  -0.4356
    -0.2075   0.0938   0.2180   0.6661   1.1075   1.2419   1.4259   1.5298
     2.1303   2.4138   2.5097   2.7168

          k = 0.0547-0.0948 0.0000 ( 20397 PWs)   bands (ev):

   -94.7718 -94.7718 -94.7682 -94.7629 -94.7629 -94.7629 -94.7472 -94.7472
   -94.7405 -94.7402 -94.7402 -94.7395 -94.7395 -94.7389 -94.7380 -94.7380
   -94.7373 -94.7353 -94.7353 -94.7352 -94.7326 -94.7323 -94.7323 -94.7282
   -94.7282 -94.7281 -94.7092 -94.7092 -94.7087 -94.7084 -94.7084 -94.7084
   -94.6798 -94.6798 -94.6718 -94.6681 -15.1950 -15.1748 -15.1727 -15.1710
   -15.1676 -15.1633 -15.1583 -15.1553 -15.1520 -15.1413 -15.1367 -15.1360
   -15.1251 -15.1220 -15.1152 -15.1137 -15.1111 -15.1061 -15.1009 -15.0986
   -15.0930 -15.0882 -15.0842 -15.0836 -15.0830 -15.0778 -15.0749 -15.0707
   -15.0627 -15.0589 -15.0578 -15.0571 -15.0547 -15.0517 -15.0496 -15.0421
   -15.0417 -15.0384 -15.0372 -15.0361 -15.0178 -15.0119 -15.0095 -15.0089
   -15.0067 -15.0040 -15.0039 -14.9930 -14.9812 -14.9786 -14.9773 -14.9739
   -14.9679 -14.9617 -14.9608 -14.9537 -14.9523 -14.9407 -14.9404 -14.9308
    -8.4563  -8.2934  -8.2791  -7.1344  -6.8261  -6.8199  -5.2386  -4.6447
    -4.6386  -3.3991  -3.3667  -3.0571  -2.0463  -0.9115  -0.8520  -0.8307
    -0.5133  -0.4969   0.6448   1.0809   1.2522   1.5255   2.1995   2.2175
     2.3718   2.6731   2.7239   2.9005

          k = 0.0547-0.0632 0.0000 ( 20377 PWs)   bands (ev):

   -94.7718 -94.7718 -94.7682 -94.7630 -94.7629 -94.7628 -94.7472 -94.7472
   -94.7405 -94.7403 -94.7401 -94.7398 -94.7393 -94.7389 -94.7382 -94.7377
   -94.7373 -94.7353 -94.7352 -94.7352 -94.7326 -94.7324 -94.7322 -94.7282
   -94.7282 -94.7281 -94.7094 -94.7090 -94.7086 -94.7086 -94.7084 -94.7082
   -94.6798 -94.6798 -94.6718 -94.6681 -15.2081 -15.1918 -15.1824 -15.1805
   -15.1699 -15.1647 -15.1600 -15.1531 -15.1497 -15.1454 -15.1406 -15.1374
   -15.1320 -15.1268 -15.1224 -15.1205 -15.1176 -15.1112 -15.1069 -15.0999
   -15.0965 -15.0912 -15.0885 -15.0874 -15.0821 -15.0752 -15.0743 -15.0728
   -15.0683 -15.0663 -15.0606 -15.0583 -15.0525 -15.0473 -15.0425 -15.0393
   -15.0361 -15.0277 -15.0235 -15.0209 -15.0153 -15.0111 -15.0087 -15.0071
   -15.0015 -14.9978 -14.9941 -14.9890 -14.9825 -14.9789 -14.9740 -14.9708
   -14.9679 -14.9598 -14.9549 -14.9495 -14.9481 -14.9370 -14.9332 -14.9208
    -9.1119  -8.1951  -7.6956  -7.2621  -6.7822  -5.9356  -5.5469  -4.7475
    -4.5855  -3.9044  -3.5149  -2.7858  -2.1099  -1.3915  -0.8378  -0.4356
    -0.2075   0.0938   0.2180   0.6661   1.1075   1.2419   1.4259   1.5298
     2.1303   2.4138   2.5097   2.7167

          k =-0.0821 0.0474 0.0000 ( 20384 PWs)   bands (ev):

   -94.7718 -94.7718 -94.7682 -94.7630 -94.7629 -94.7629 -94.7472 -94.7472
   -94.7406 -94.7402 -94.7401 -94.7398 -94.7394 -94.7388 -94.7382 -94.7377
   -94.7373 -94.7353 -94.7352 -94.7352 -94.7326 -94.7324 -94.7322 -94.7282
   -94.7282 -94.7281 -94.7094 -94.7088 -94.7086 -94.7086 -94.7085 -94.7081
   -94.6798 -94.6798 -94.6718 -94.6681 -15.2113 -15.1914 -15.1874 -15.1770
   -15.1768 -15.1660 -15.1609 -15.1567 -15.1468 -15.1439 -15.1399 -15.1325
   -15.1300 -15.1242 -15.1220 -15.1197 -15.1163 -15.1119 -15.1020 -15.0968
   -15.0964 -15.0943 -15.0919 -15.0876 -15.0754 -15.0733 -15.0730 -15.0718
   -15.0713 -15.0688 -15.0627 -15.0576 -15.0459 -15.0436 -15.0429 -15.0310
   -15.0265 -15.0246 -15.0243 -15.0205 -15.0174 -15.0159 -15.0116 -15.0079
   -15.0034 -15.0028 -14.9966 -14.9962 -14.9914 -14.9823 -14.9789 -14.9746
   -14.9694 -14.9642 -14.9521 -14.9512 -14.9487 -14.9332 -14.9264 -14.9127
    -8.8582  -8.7469  -7.4945  -7.2769  -6.1094  -6.0287  -5.5410  -5.0737
    -4.7568  -4.6130  -3.2268  -2.6581  -1.8476  -0.9560  -0.5365  -0.4872
    -0.2413  -0.1742   0.2081   0.9969   1.0305   1.0982   1.4499   1.9928
     2.0977   2.2018   2.3986   2.4435

          k =-0.0821 0.0790 0.0000 ( 20377 PWs)   bands (ev):

   -94.7718 -94.7718 -94.7682 -94.7630 -94.7629 -94.7628 -94.7472 -94.7472
   -94.7405 -94.7403 -94.7401 -94.7398 -94.7393 -94.7389 -94.7382 -94.7377
   -94.7373 -94.7353 -94.7352 -94.7352 -94.7326 -94.7324 -94.7322 -94.7282
   -94.7282 -94.7281 -94.7094 -94.7090 -94.7086 -94.7086 -94.7084 -94.7082
   -94.6798 -94.6798 -94.6718 -94.6681 -15.2081 -15.1918 -15.1824 -15.1805
   -15.1699 -15.1647 -15.1600 -15.1531 -15.1497 -15.1454 -15.1406 -15.1374
   -15.1320 -15.1268 -15.1224 -15.1205 -15.1176 -15.1112 -15.1068 -15.0999
   -15.0965 -15.0912 -15.0885 -15.0874 -15.0821 -15.0752 -15.0743 -15.0728
   -15.0683 -15.0663 -15.0606 -15.0583 -15.0525 -15.0473 -15.0425 -15.0393
   -15.0361 -15.0277 -15.0235 -15.0209 -15.0153 -15.0111 -15.0087 -15.0071
   -15.0015 -14.9978 -14.9941 -14.9890 -14.9825 -14.9789 -14.9740 -14.9708
   -14.9679 -14.9598 -14.9549 -14.9495 -14.9481 -14.9370 -14.9332 -14.9208
[...]
    -4.3547  -3.9056  -3.3505  -3.0645  -2.4606  -2.2518  -1.3016  -1.2765
    -1.0742  -0.3618  -0.2379  -0.0388   0.3207   0.9410   1.1567   1.6004
     2.1091   2.2941   2.5715   2.8995

          k = 0.0547 0.0316 0.0000 ( 20353 PWs)   bands (ev):

   -94.8175 -94.8175 -94.8125 -94.8001 -94.8000 -94.8000 -94.7924 -94.7923
   -94.7804 -94.7796 -94.7795 -94.7794 -94.7793 -94.7790 -94.7789 -94.7780
   -94.7777 -94.7742 -94.7741 -94.7737 -94.7703 -94.7701 -94.7700 -94.7604
   -94.7603 -94.7603 -94.7396 -94.7388 -94.7385 -94.7375 -94.7373 -94.7370
   -94.7294 -94.7294 -94.7160 -94.7129 -15.2699 -15.2525 -15.2460 -15.2344
   -15.2171 -15.2166 -15.2120 -15.2067 -15.1984 -15.1982 -15.1969 -15.1892
   -15.1863 -15.1771 -15.1730 -15.1717 -15.1648 -15.1610 -15.1544 -15.1498
   -15.1455 -15.1409 -15.1398 -15.1306 -15.1268 -15.1255 -15.1239 -15.1185
   -15.1179 -15.1000 -15.0975 -15.0889 -15.0837 -15.0825 -15.0783 -15.0783
   -15.0738 -15.0703 -15.0584 -15.0462 -15.0422 -15.0353 -15.0271 -15.0267
   -15.0225 -15.0219 -15.0139 -15.0115 -15.0091 -15.0085 -14.9990 -14.9977
   -14.9948 -14.9899 -14.9842 -14.9798 -14.9781 -14.9644 -14.9539 -14.9531
    -9.7028  -8.1935  -7.8533  -6.4634  -6.1003  -6.0124  -5.8949  -4.8325
    -4.5489  -4.2061  -3.2076  -2.7365  -2.2269  -1.7138  -1.6779  -0.8802
    -0.6342  -0.4973  -0.2929   0.4540   1.0864   1.2420   1.2913   1.5227
     1.5736   2.3370   2.5936   2.6886

          k = 0.0547-0.1264 0.0000 ( 20377 PWs)   bands (ev):

   -94.8175 -94.8175 -94.8125 -94.8001 -94.8000 -94.8000 -94.7924 -94.7923
   -94.7802 -94.7798 -94.7795 -94.7793 -94.7793 -94.7791 -94.7787 -94.7782
   -94.7777 -94.7742 -94.7740 -94.7738 -94.7702 -94.7701 -94.7700 -94.7604
   -94.7603 -94.7603 -94.7395 -94.7390 -94.7385 -94.7375 -94.7373 -94.7371
   -94.7295 -94.7294 -94.7160 -94.7129 -15.2511 -15.2375 -15.2287 -15.2260
   -15.2146 -15.2091 -15.2063 -15.1974 -15.1949 -15.1893 -15.1846 -15.1824
   -15.1766 -15.1708 -15.1669 -15.1632 -15.1600 -15.1552 -15.1459 -15.1428
   -15.1373 -15.1333 -15.1294 -15.1283 -15.1243 -15.1193 -15.1167 -15.1122
   -15.1070 -15.1029 -15.0981 -15.0972 -15.0907 -15.0857 -15.0820 -15.0787
   -15.0758 -15.0655 -15.0647 -15.0578 -15.0544 -15.0512 -15.0445 -15.0426
   -15.0393 -15.0341 -15.0289 -15.0278 -15.0194 -15.0121 -15.0074 -15.0055
   -15.0027 -14.9963 -14.9873 -14.9849 -14.9798 -14.9686 -14.9631 -14.9593
    -9.2438  -8.3244  -7.7440  -7.3968  -6.8338  -5.9840  -5.5300  -4.7979
    -4.6194  -3.8770  -3.5462  -2.8533  -2.1564  -1.4429  -0.8623  -0.4437
    -0.2950   0.0453   0.1148   0.6522   0.9977   1.1976   1.3506   1.5363
     2.1663   2.3734   2.4673   2.7604

          k = 0.0547-0.0948 0.0000 ( 20397 PWs)   bands (ev):

   -94.8175 -94.8175 -94.8125 -94.8001 -94.8001 -94.8000 -94.7923 -94.7923
   -94.7800 -94.7800 -94.7795 -94.7793 -94.7792 -94.7792 -94.7784 -94.7784
   -94.7778 -94.7742 -94.7739 -94.7739 -94.7702 -94.7702 -94.7700 -94.7604
   -94.7603 -94.7603 -94.7393 -94.7392 -94.7384 -94.7376 -94.7372 -94.7372
   -94.7295 -94.7295 -94.7160 -94.7129 -15.2352 -15.2232 -15.2186 -15.2153
   -15.2142 -15.2089 -15.2061 -15.1996 -15.1970 -15.1863 -15.1847 -15.1791
   -15.1699 -15.1600 -15.1577 -15.1555 -15.1546 -15.1472 -15.1470 -15.1387
   -15.1345 -15.1318 -15.1273 -15.1245 -15.1235 -15.1229 -15.1177 -15.1076
   -15.1026 -15.0995 -15.0979 -15.0952 -15.0914 -15.0914 -15.0893 -15.0831
   -15.0808 -15.0726 -15.0721 -15.0672 -15.0604 -15.0526 -15.0487 -15.0474
   -15.0437 -15.0416 -15.0401 -15.0335 -15.0129 -15.0102 -15.0085 -15.0073
   -15.0052 -15.0029 -14.9921 -14.9874 -14.9833 -14.9723 -14.9707 -14.9682
    -8.5455  -8.4733  -8.4068  -7.1479  -6.9417  -6.8450  -5.2460  -4.6227
    -4.5461  -3.5136  -3.4584  -3.1068  -2.1063  -1.0401  -0.9399  -0.8213
    -0.5392  -0.4759   0.5933   1.1150   1.2907   1.5147   2.1346   2.1499
     2.2856   2.6830   2.7359   2.7988

          k = 0.0547-0.0632 0.0000 ( 20377 PWs)   bands (ev):

   -94.8175 -94.8175 -94.8125 -94.8001 -94.8000 -94.8000 -94.7924 -94.7923
   -94.7802 -94.7798 -94.7795 -94.7793 -94.7793 -94.7791 -94.7787 -94.7782
   -94.7777 -94.7742 -94.7740 -94.7738 -94.7702 -94.7701 -94.7700 -94.7604
   -94.7603 -94.7603 -94.7395 -94.7390 -94.7385 -94.7375 -94.7373 -94.7371
   -94.7295 -94.7294 -94.7160 -94.7129 -15.2511 -15.2375 -15.2287 -15.2260
   -15.2146 -15.2091 -15.2063 -15.1973 -15.1949 -15.1893 -15.1846 -15.1824
   -15.1766 -15.1708 -15.1669 -15.1632 -15.1600 -15.1552 -15.1459 -15.1428
   -15.1373 -15.1333 -15.1294 -15.1283 -15.1243 -15.1193 -15.1167 -15.1122
   -15.1070 -15.1029 -15.0981 -15.0972 -15.0907 -15.0857 -15.0820 -15.0787
   -15.0758 -15.0655 -15.0647 -15.0578 -15.0544 -15.0512 -15.0445 -15.0426
   -15.0393 -15.0341 -15.0289 -15.0278 -15.0194 -15.0121 -15.0074 -15.0055
   -15.0027 -14.9963 -14.9873 -14.9849 -14.9798 -14.9686 -14.9631 -14.9593
    -9.2438  -8.3244  -7.7440  -7.3968  -6.8338  -5.9840  -5.5300  -4.7979
    -4.6194  -3.8770  -3.5462  -2.8533  -2.1564  -1.4429  -0.8623  -0.4437
    -0.2950   0.0453   0.1148   0.6521   0.9977   1.1976   1.3506   1.5363
     2.1663   2.3734   2.4673   2.7604

          k =-0.0821 0.0474 0.0000 ( 20384 PWs)   bands (ev):

   -94.8175 -94.8175 -94.8125 -94.8001 -94.8000 -94.8000 -94.7924 -94.7923
   -94.7802 -94.7798 -94.7795 -94.7793 -94.7792 -94.7791 -94.7787 -94.7782
   -94.7777 -94.7742 -94.7740 -94.7738 -94.7702 -94.7701 -94.7700 -94.7604
   -94.7603 -94.7603 -94.7395 -94.7389 -94.7385 -94.7375 -94.7373 -94.7371
   -94.7294 -94.7294 -94.7160 -94.7129 -15.2540 -15.2382 -15.2322 -15.2228
   -15.2191 -15.2108 -15.2100 -15.2023 -15.1904 -15.1886 -15.1829 -15.1767
   -15.1752 -15.1711 -15.1622 -15.1612 -15.1606 -15.1563 -15.1403 -15.1379
   -15.1377 -15.1375 -15.1361 -15.1282 -15.1210 -15.1173 -15.1155 -15.1125
   -15.1091 -15.1040 -15.0985 -15.0916 -15.0857 -15.0820 -15.0791 -15.0728
   -15.0678 -15.0663 -15.0641 -15.0614 -15.0562 -15.0557 -15.0485 -15.0464
   -15.0382 -15.0346 -15.0342 -15.0287 -15.0208 -15.0185 -15.0184 -15.0124
   -15.0034 -14.9985 -14.9849 -14.9833 -14.9822 -14.9654 -14.9553 -14.9526
    -8.9741  -8.8966  -7.5209  -7.3494  -6.2444  -6.1607  -5.5362  -5.0253
    -4.7585  -4.6738  -3.2417  -2.6261  -1.8450  -0.9549  -0.6523  -0.6133
    -0.3188  -0.2775   0.1471   0.9271   0.9938   1.0459   1.4128   2.0209
     2.0852   2.1751   2.3353   2.3666

          k =-0.0821 0.0790 0.0000 ( 20377 PWs)   bands (ev):

   -94.8175 -94.8175 -94.8125 -94.8001 -94.8000 -94.8000 -94.7924 -94.7923
   -94.7802 -94.7798 -94.7795 -94.7793 -94.7793 -94.7791 -94.7787 -94.7782
   -94.7777 -94.7742 -94.7740 -94.7738 -94.7702 -94.7701 -94.7700 -94.7604
   -94.7603 -94.7603 -94.7395 -94.7390 -94.7385 -94.7375 -94.7373 -94.7371
   -94.7295 -94.7294 -94.7160 -94.7129 -15.2511 -15.2375 -15.2287 -15.2260
   -15.2146 -15.2091 -15.2063 -15.1974 -15.1949 -15.1893 -15.1846 -15.1824
   -15.1766 -15.1708 -15.1669 -15.1632 -15.1600 -15.1552 -15.1459 -15.1428
   -15.1373 -15.1333 -15.1294 -15.1283 -15.1243 -15.1193 -15.1167 -15.1121
   -15.1070 -15.1029 -15.0981 -15.0972 -15.0907 -15.0857 -15.0820 -15.0787
   -15.0758 -15.0655 -15.0647 -15.0578 -15.0544 -15.0512 -15.0445 -15.0426
   -15.0393 -15.0341 -15.0289 -15.0278 -15.0194 -15.0121 -15.0074 -15.0055
   -15.0027 -14.9963 -14.9873 -14.9849 -14.9798 -14.9686 -14.9631 -14.9593
    -9.2438  -8.3244  -7.7439  -7.3968  -6.8338  -5.9840  -5.5300  -4.7979
    -4.6194  -3.8770  -3.5462  -2.8533  -2.1564  -1.4429  -0.8623  -0.4436
    -0.2950   0.0453   0.1148   0.6522   0.9977   1.1976   1.3506   1.5363
     2.1663   2.3734   2.4673   2.7605

          k =-0.0821 0.1106 0.0000 ( 20377 PWs)   bands (ev):

   -94.8175 -94.8175 -94.8125 -94.8001 -94.8000 -94.8000 -94.7924 -94.7923
   -94.7802 -94.7798 -94.7795 -94.7793 -94.7793 -94.7791 -94.7787 -94.7782
   -94.7777 -94.7742 -94.7740 -94.7738 -94.7702 -94.7701 -94.7700 -94.7604
   -94.7603 -94.7603 -94.7395 -94.7390 -94.7385 -94.7375 -94.7373 -94.7371
   -94.7295 -94.7294 -94.7160 -94.7129 -15.2511 -15.2375 -15.2287 -15.2260
   -15.2146 -15.2091 -15.2063 -15.1974 -15.1949 -15.1893 -15.1846 -15.1824
   -15.1766 -15.1708 -15.1669 -15.1632 -15.1600 -15.1552 -15.1459 -15.1428
   -15.1373 -15.1333 -15.1294 -15.1283 -15.1243 -15.1193 -15.1167 -15.1122
   -15.1070 -15.1029 -15.0981 -15.0972 -15.0907 -15.0857 -15.0820 -15.0787
   -15.0758 -15.0655 -15.0647 -15.0578 -15.0544 -15.0512 -15.0445 -15.0426
   -15.0393 -15.0341 -15.0289 -15.0278 -15.0194 -15.0121 -15.0074 -15.0055
   -15.0027 -14.9963 -14.9873 -14.9849 -14.9798 -14.9686 -14.9631 -14.9593
    -9.2438  -8.3244  -7.7440  -7.3968  -6.8338  -5.9840  -5.5300  -4.7979
    -4.6194  -3.8770  -3.5462  -2.8533  -2.1564  -1.4429  -0.8623  -0.4437
    -0.2950   0.0453   0.1148   0.6522   0.9977   1.1976   1.3506   1.5363
     2.1663   2.3734   2.4673   2.7604

          k =-0.0821-0.0474 0.0000 ( 20384 PWs)   bands (ev):

   -94.8175 -94.8175 -94.8125 -94.8001 -94.8000 -94.8000 -94.7924 -94.7923
   -94.7802 -94.7798 -94.7795 -94.7793 -94.7792 -94.7791 -94.7787 -94.7782
   -94.7777 -94.7742 -94.7740 -94.7738 -94.7702 -94.7701 -94.7700 -94.7604
   -94.7603 -94.7603 -94.7395 -94.7389 -94.7385 -94.7375 -94.7373 -94.7371
   -94.7294 -94.7294 -94.7160 -94.7129 -15.2540 -15.2382 -15.2322 -15.2228
   -15.2191 -15.2108 -15.2100 -15.2023 -15.1904 -15.1886 -15.1829 -15.1767
   -15.1752 -15.1711 -15.1622 -15.1612 -15.1606 -15.1563 -15.1403 -15.1379
   -15.1377 -15.1375 -15.1361 -15.1282 -15.1210 -15.1173 -15.1155 -15.1125
   -15.1091 -15.1040 -15.0985 -15.0916 -15.0857 -15.0820 -15.0791 -15.0728
   -15.0678 -15.0664 -15.0641 -15.0614 -15.0562 -15.0557 -15.0485 -15.0464
   -15.0382 -15.0346 -15.0342 -15.0287 -15.0208 -15.0185 -15.0184 -15.0124
   -15.0034 -14.9985 -14.9849 -14.9833 -14.9822 -14.9654 -14.9553 -14.9526
    -8.9741  -8.8966  -7.5209  -7.3494  -6.2444  -6.1608  -5.5362  -5.0253
    -4.7585  -4.6738  -3.2417  -2.6261  -1.8450  -0.9549  -0.6523  -0.6133
    -0.3188  -0.2775   0.1471   0.9270   0.9938   1.0460   1.4127   2.0209
     2.0852   2.1751   2.3352   2.3666

     the Fermi energy is    -0.0825 ev

!    total energy              =   -5000.20529472 Ry
     Harris-Foulkes estimate   =   -5000.20529467 Ry
     estimated scf accuracy    <       0.00000007 Ry

     The total energy is the sum of the following terms:

     one-electron contribution =  -27503.75397329 Ry
     hartree contribution      =   13754.84642702 Ry
     xc contribution           =    -597.27414824 Ry
     ewald contribution        =    9346.00899239 Ry
     electric field correction =       0.00005529 Ry
     smearing contrib. (-TS)   =      -0.03264788 Ry

     convergence has been achieved in   5 iterations
 
 BEEF-vdW xc energy contributions
           1 :   -534.061348416944     
           2 :    484.926149301088     
           3 :   -402.504734599652     
           4 :    310.723389029052     
           5 :   -230.814303276261     
           6 :    173.327243575068     
           7 :   -136.575052718141     
           8 :    111.333658208104     
           9 :   -88.2415764947191     
          10 :    63.2978457275358     
          11 :   -38.6751517429570     
          12 :    19.3289445234076     
          13 :   -8.42772129403568     
          14 :    4.87812910630805     
          15 :   -4.30326434647850     
          16 :    2.27076570349402     
          17 :    2.81742135092736     
          18 :   -9.18790621037761     
          19 :    13.6091716381634     
          20 :   -14.1012374022592     
          21 :    11.3956539037829     
          22 :   -8.21957004169917     
          23 :    7.14849650502788     
          24 :   -8.75168687603104     
          25 :    11.3826530577758     
          26 :   -12.6400121839745     
          27 :    11.2789595423928     
          28 :   -8.11136150801610     
          29 :    5.28893230275116     
          30 :   -4.61388022850133     
          31 :   -39.3411106788529     
          32 :   -26.7173734169306     

     Forces acting on atoms (Ry/au):


     negative rho (up, down):  1.024E-03 0.000E+00
     atom    1 type  1   force =     0.00194122    0.00112072    0.00458437
     atom    2 type  1   force =    -0.00194124    0.00112081    0.00458472
     atom    3 type  1   force =    -0.00000006   -0.00224155    0.00458473
     atom    4 type  1   force =     0.00000001    0.00000004   -0.00209023
     atom    5 type  1   force =    -0.00000110    0.00210632   -0.00006830
     atom    6 type  1   force =     0.00000115    0.00000115   -0.01277804
     atom    7 type  1   force =    -0.00182342   -0.00105319   -0.00006966
     atom    8 type  1   force =     0.00182332   -0.00105420   -0.00006870
     atom    9 type  1   force =     0.00000008    0.00000017    0.00073111
     atom   10 type  1   force =    -0.00000022   -0.00192598   -0.00002596
     atom   11 type  1   force =    -0.00166791    0.00096285   -0.00002760
     atom   12 type  1   force =     0.00166819    0.00096282   -0.00003155
     atom   13 type  2   force =    -0.00000001    0.00000003    0.00067511

     Total force =     0.003482     Total SCF correction =     0.001114
     SCF correction compared to forces is large: reduce conv_thr to get better values


     entering subroutine stress ...


     negative rho (up, down):  1.024E-03 0.000E+00
          total   stress  (Ry/bohr**3)                   (kbar)     P=   -5.34
  -0.00004675  -0.00000000   0.00000000         -6.88     -0.00      0.00
  -0.00000000  -0.00004675   0.00000000         -0.00     -6.88      0.00
   0.00000000   0.00000000  -0.00001537          0.00      0.00     -2.26


     bfgs converged in  21 scf cycles and  14 bfgs steps
     (criteria: energy <  1.0E+00, force <  1.9E-03)

     End of BFGS Geometry Optimization

     Final energy   =   -5000.2052947195 Ry
Begin final coordinates

ATOMIC_POSITIONS (crystal)
Ga1      0.166666667   0.166666667   0.400460194    0   0   0
Ga1      0.666666667   0.166666667   0.400460194    0   0   0
Ga1      0.166666667   0.666666667   0.400460194    0   0   0
Ga1      0.666666667   0.666666667   0.400460194    0   0   0
Ga1      0.833333333   0.333333333   0.500000000    0   0   0
Ga1      0.333333333   0.333333333   0.500000000    0   0   0
Ga1      0.833333333   0.833333333   0.500000000    0   0   0
Ga1      0.333333333   0.833333333   0.500000000    0   0   0
Ga1     -0.000000839  -0.000000786   0.593510781
Ga1      0.497064935   0.005870335   0.595447726
Ga1      0.005868508   0.497065022   0.595448611
Ga1      0.497065163   0.497067090   0.595451124
H1       0.000000322  -0.000000004   0.657409145
End final coordinates



     Writing output data file calc.save
 
     init_run     :     11.75s CPU     12.15s WALL (       1 calls)
     electrons    :   4588.52s CPU   4836.70s WALL (      21 calls)
     update_pot   :     53.76s CPU     56.67s WALL (      20 calls)
     forces       :    363.10s CPU    377.27s WALL (      21 calls)
     stress       :   1101.53s CPU   1149.36s WALL (      21 calls)

     Called by init_run:
     wfcinit      :      4.88s CPU      4.95s WALL (       1 calls)
     potinit      :      1.87s CPU      2.01s WALL (       1 calls)

     Called by electrons:
     c_bands      :   1876.40s CPU   1940.43s WALL (     134 calls)
     sum_band     :    791.92s CPU    837.64s WALL (     134 calls)
     v_of_rho     :    242.27s CPU    264.82s WALL (     149 calls)
     newd         :    693.94s CPU    699.70s WALL (     149 calls)
     mix_rho      :      7.42s CPU      7.53s WALL (     134 calls)
     vdW_energy   :    209.84s CPU    230.85s WALL (     905 calls)
     vdW_ffts     :    519.35s CPU    540.75s WALL (    1852 calls)
     vdW_v        :    187.07s CPU    197.14s WALL (     905 calls)

     Called by c_bands:
     init_us_2    :      8.95s CPU      8.99s WALL (    1555 calls)
     cegterg      :   1781.79s CPU   1821.18s WALL (     670 calls)

     Called by *egterg:
     h_psi        :   1069.46s CPU   1089.35s WALL (    3319 calls)
     s_psi        :     95.46s CPU     95.75s WALL (    3319 calls)
     g_psi        :      6.34s CPU      6.36s WALL (    2644 calls)
     cdiaghg      :    223.64s CPU    225.66s WALL (    3184 calls)

     Called by h_psi:
     add_vuspsi   :     98.02s CPU     98.25s WALL (    3319 calls)

     General routines
     calbec       :    158.84s CPU    162.61s WALL (    4199 calls)
     fft          :    785.55s CPU    835.60s WALL (   54041 calls)
     ffts         :      0.58s CPU      0.63s WALL (     283 calls)
     fftw         :    669.22s CPU    691.24s WALL (  487732 calls)
     interpolate  :      5.64s CPU      5.81s WALL (     283 calls)
     davcio       :      0.00s CPU      0.04s WALL (       5 calls)
 
     Parallel routines
     fft_scatter  :    853.36s CPU    920.12s WALL (  542056 calls)
 
     PWSCF        :     1h43m CPU        1h49m WALL

 
   This run was terminated on:  20:18:38   3May2018            

=------------------------------------------------------------------------------=
   JOB DONE.
=------------------------------------------------------------------------------=
Job  /afs/slac/g/suncat/bin/suncat-tsmpirun -x LD_LIBRARY_PATH -wdir /scratch/qe800311_rFgjm pw.x -npool 4 -in pw.inp

TID   HOST_NAME   COMMAND_LINE            STATUS            TERMINATION_TIME
===== ========== ================  =======================  ===================
00000 suncat0030 pw.x -npool 4 -i  Done                     05/03/2018 20:18:38
00001 suncat0030 pw.x -npool 4 -i  Done                     05/03/2018 20:18:38
00002 suncat0030 pw.x -npool 4 -i  Done                     05/03/2018 20:18:38
00003 suncat0030 pw.x -npool 4 -i  Done                     05/03/2018 20:18:38
00004 suncat0030 pw.x -npool 4 -i  Done                     05/03/2018 20:18:38
00005 suncat0030 pw.x -npool 4 -i  Done                     05/03/2018 20:18:38
00006 suncat0030 pw.x -npool 4 -i  Done                     05/03/2018 20:18:38
00007 suncat0030 pw.x -npool 4 -i  Done                     05/03/2018 20:18:38
00008 suncat0019 pw.x -npool 4 -i  Done                     05/03/2018 20:18:38
00009 suncat0019 pw.x -npool 4 -i  Done                     05/03/2018 20:18:38
00010 suncat0019 pw.x -npool 4 -i  Done                     05/03/2018 20:18:38
00011 suncat0019 pw.x -npool 4 -i  Done                     05/03/2018 20:18:38
00012 suncat0019 pw.x -npool 4 -i  Done                     05/03/2018 20:18:38
00013 suncat0019 pw.x -npool 4 -i  Done                     05/03/2018 20:18:38
00014 suncat0019 pw.x -npool 4 -i  Done                     05/03/2018 20:18:38
00015 suncat0019 pw.x -npool 4 -i  Done                     05/03/2018 20:18:38
00016 suncat0161 pw.x -npool 4 -i  Done                     05/03/2018 20:18:38
00017 suncat0161 pw.x -npool 4 -i  Done                     05/03/2018 20:18:38
00018 suncat0161 pw.x -npool 4 -i  Done                     05/03/2018 20:18:38
00019 suncat0161 pw.x -npool 4 -i  Done                     05/03/2018 20:18:38
00020 suncat0161 pw.x -npool 4 -i  Done                     05/03/2018 20:18:38
00021 suncat0161 pw.x -npool 4 -i  Done                     05/03/2018 20:18:38
00022 suncat0161 pw.x -npool 4 -i  Done                     05/03/2018 20:18:38
00023 suncat0161 pw.x -npool 4 -i  Done                     05/03/2018 20:18:38
00024 suncat0146 pw.x -npool 4 -i  Done                     05/03/2018 20:18:38
00025 suncat0146 pw.x -npool 4 -i  Done                     05/03/2018 20:18:38
00026 suncat0146 pw.x -npool 4 -i  Done                     05/03/2018 20:18:38
00027 suncat0146 pw.x -npool 4 -i  Done                     05/03/2018 20:18:38
00028 suncat0146 pw.x -npool 4 -i  Done                     05/03/2018 20:18:38
00029 suncat0146 pw.x -npool 4 -i  Done                     05/03/2018 20:18:38
00030 suncat0146 pw.x -npool 4 -i  Done                     05/03/2018 20:18:38
00031 suncat0146 pw.x -npool 4 -i  Done                     05/03/2018 20:18:38
