  python dir          : /u/if/mamunm/src/espresso
  espresso dir        : /nfs/slac/g/suncatfs/sw/espv18/espresso-dynpy-beef/bin
  pseudo dir          : /u/if/mamunm/psp/gbrv1.5pbe
  ase-espresso py git : GITVERSION



     Program PWSCF v.5.1rc2 (svn rev. 11289) starts on  2May2018 at 18:29:52 

     This program is part of the open-source Quantum ESPRESSO suite
     for quantum simulation of materials; please cite
         "P. Giannozzi et al., J. Phys.:Condens. Matter 21 395502 (2009);
          URL http://www.quantum-espresso.org", 
     in publications or presentations arising from this work. More details at
     http://www.quantum-espresso.org/quote

     Parallel version (MPI), running on    32 processors
     K-points division:     npool     =       4
     R & G space division:  proc/nbgrp/npool/nimage =       8
     Reading input from pw.inp
     Message from routine read_cards :
     DEPRECATED: no units specified in CELL_PARAMETERS card

     Current dimensions of program PWSCF are:
     Max number of different atomic species (ntypx) = 10
     Max number of k-points (npk) =  40000
     Max angular momentum in pseudopotentials (lmaxx) =  3
     Presently stress not available with electric field


     **************************************************************************
     Initializing libbeef V0.1.1 with the BEEF-vdW functional.
     Citation: Wellendorff et al., PRB 85, 235149 (2012).
     **************************************************************************


     IMPORTANT: XC functional enforced from input :
     Exchange-correlation      = BEEF-VDW ( 1  4 27 13 2)
     Any further DFT definition will be discarded
     Please, verify this is what you really want


     Subspace diagonalization in iterative solution of the eigenvalue problem:
     a serial algorithm will be used

 
     Parallelization info
     --------------------
     sticks:   dense  smooth     PW     G-vecs:    dense   smooth      PW
     Min         465     186     53                90387    22883    3523
     Max         466     187     55                90396    22907    3532
     Sum        3721    1495    433               723123   183131   28227
 


     bravais-lattice index     =            0
     lattice parameter (alat)  =       1.8897  a.u.
     unit-cell volume          =    6082.7792 (a.u.)^3
     number of atoms/cell      =           13
     number of atomic types    =            2
     number of electrons       =       145.00
     number of Kohn-Sham states=           82
     kinetic-energy cutoff     =      36.7493  Ry
     charge density cutoff     =     367.4932  Ry
     convergence threshold     =      1.0E-05
     mixing beta               =       0.3000
     number of iterations used =           10  plain     mixing
     Exchange-correlation      = BEEF-VDW ( 1  4 27 13 2)
     nstep                     =           50


     celldm(1)=   1.889726  celldm(2)=   0.000000  celldm(3)=   0.000000
     celldm(4)=   0.000000  celldm(5)=   0.000000  celldm(6)=   0.000000

     crystal axes: (cart. coord. in units of alat)
               a(1) = (   6.421223   0.000000   0.000000 )  
               a(2) = (   3.210611   5.560942   0.000000 )  
               a(3) = (   0.000000   0.000000  25.242906 )  

     reciprocal axes: (cart. coord. in units 2 pi/alat)
               b(1) = (  0.155734 -0.089913  0.000000 )  
               b(2) = (  0.000000  0.179826  0.000000 )  
               b(3) = (  0.000000  0.000000  0.039615 )  


     PseudoPot. # 1 for Zr read from file:
     /u/if/mamunm/psp/gbrv1.5pbe/Zr.UPF
     MD5 check sum: 5db81b1e868ab7776c4564c113de050b
     Pseudo is Ultrasoft + core correction, Zval = 12.0
     Generated by new atomic code, or converted to UPF format
     Using radial grid of  887 points,  6 beta functions with: 
                l(1) =   0
                l(2) =   0
                l(3) =   1
                l(4) =   1
                l(5) =   2
                l(6) =   2
     Q(r) pseudized with  6 coefficients,  rinner =    1.200   1.200   1.200
                                                       1.200   1.200

     PseudoPot. # 2 for H  read from file:
     /u/if/mamunm/psp/gbrv1.5pbe/H.UPF
     MD5 check sum: 761ae9a214b05c3daf00ab9f6b793d6f
     Pseudo is Ultrasoft, Zval =  1.0
     Generated by new atomic code, or converted to UPF format
     Using radial grid of  615 points,  2 beta functions with: 
                l(1) =   0
                l(2) =   0
     Q(r) pseudized with  8 coefficients,  rinner =    0.700

     vdW kernel table read from file vdW_kernel_table
     MD5 check sum: 095c7af220d748ca6e76c0b4c6cfb241

     atomic species   valence    mass     pseudopotential
        Zr1           12.00    91.22400     Zr( 1.00)
        H1             1.00     1.00800     H ( 1.00)

     No symmetry found



   Cartesian axes

     site n.     atom                  positions (alat units)
         1           Zr1 tau(   1) = (   1.6053057   0.9268237  10.0000000  )
         2           Zr1 tau(   2) = (   4.8159170   0.9268237  10.0000000  )
         3           Zr1 tau(   3) = (   3.2106113   3.7072946  10.0000000  )
         4           Zr1 tau(   4) = (   6.4212227   3.7072946  10.0000000  )
         5           Zr1 tau(   5) = (   6.4212227   1.8536473  12.6214532  )
         6           Zr1 tau(   6) = (   3.2106113   1.8536473  12.6214532  )
         7           Zr1 tau(   7) = (   8.0265283   4.6341183  12.6214532  )
         8           Zr1 tau(   8) = (   4.8159170   4.6341183  12.6214532  )
         9           Zr1 tau(   9) = (   0.0000000   0.0000000  15.2429064  )
        10           Zr1 tau(  10) = (   3.2106113   0.0000000  15.2429064  )
        11           Zr1 tau(  11) = (   1.6053057   2.7804710  15.2429064  )
        12           Zr1 tau(  12) = (   4.8159170   2.7804710  15.2429064  )
        13           H1  tau(  13) = (   3.2106113   1.8536473  16.5819064  )

     number of k points=    20  Fermi-Dirac smearing, width (Ry)=  0.0110
                       cart. coord. in units 2pi/alat
        k(    1) = (   0.0000000   0.0000000   0.0000000), wk =   0.0555556
        k(    2) = (   0.0000000   0.0299709   0.0000000), wk =   0.1111111
        k(    3) = (   0.0000000   0.0599419   0.0000000), wk =   0.1111111
        k(    4) = (   0.0000000  -0.0899128   0.0000000), wk =   0.0555556
        k(    5) = (   0.0259556  -0.0149855   0.0000000), wk =   0.1111111
        k(    6) = (   0.0259556   0.0149855   0.0000000), wk =   0.1111111
        k(    7) = (   0.0259556   0.0449564   0.0000000), wk =   0.1111111
        k(    8) = (   0.0259556  -0.1048983   0.0000000), wk =   0.1111111
        k(    9) = (   0.0259556  -0.0749274   0.0000000), wk =   0.1111111
        k(   10) = (   0.0259556  -0.0449564   0.0000000), wk =   0.1111111
        k(   11) = (   0.0519112  -0.0299709   0.0000000), wk =   0.1111111
        k(   12) = (   0.0519112   0.0000000   0.0000000), wk =   0.1111111
        k(   13) = (   0.0519112   0.0299709   0.0000000), wk =   0.1111111
        k(   14) = (   0.0519112  -0.1198838   0.0000000), wk =   0.1111111
        k(   15) = (   0.0519112  -0.0899128   0.0000000), wk =   0.1111111
        k(   16) = (   0.0519112  -0.0599419   0.0000000), wk =   0.1111111
        k(   17) = (  -0.0778668   0.0449564   0.0000000), wk =   0.0555556
        k(   18) = (  -0.0778668   0.0749274   0.0000000), wk =   0.1111111
        k(   19) = (  -0.0778668   0.1048983   0.0000000), wk =   0.1111111
        k(   20) = (  -0.0778668  -0.0449564   0.0000000), wk =   0.0555556

     Dense  grid:   723123 G-vectors     FFT dimensions: (  75,  75, 300)

     Smooth grid:   183131 G-vectors     FFT dimensions: (  48,  48, 192)

     Largest allocated arrays     est. size (Mb)     dimensions
        Kohn-Sham Wavefunctions         3.62 Mb     (    2896,   82)
        NL pseudopotentials             9.63 Mb     (    2896,  218)
        Each V/rho on FFT grid          3.26 Mb     (  213750)
        Each G-vector array             0.69 Mb     (   90391)
        G-vector shells                 0.18 Mb     (   23541)
     Largest temporary arrays     est. size (Mb)     dimensions
        Auxiliary wavefunctions        14.49 Mb     (    2896,  328)
        Each subspace H/S matrix        1.64 Mb     (     328,  328)
        Each <psi_i|beta_j> matrix      0.27 Mb     (     218,   82)
        Arrays for rho mixing          32.62 Mb     (  213750,   10)

     Initial potential from superposition of free atoms
     Check: negative starting charge=   -0.729136

     starting charge  144.97420, renormalised to  145.00000

     negative rho (up, down):  7.293E-01 0.000E+00


     ************************************************************************
     *
     * You are using vdW-DF for exchange-correlation in this calculation.
     * Please cite the following three references that made this development
     * possible:
     *
     *   M. Dion, H. Rydberg, E. Schroder, D. C. Langreth, and
     *   B. I. Lundqvist, Phys. Rev. Lett. 92, 246401 (2004).
     *
     *   T. Thonhauser, V. R. Cooper, S. Li, A. Puzder, P. Hyldgaard, and
     *   D. C. Langreth, Phys. Rev. B 76, 125112 (2007).
     *
     *   G. Roman-Perez and J. M. Soler, Phys. Rev. Lett. 103, 096102 (2009).
     *
     *
     * If you are using vdW-DF2, please also cite:
     *
     *   K. Lee, E. D. Murray, L. Kong, B. I. Lundqvist, and
     *   D. C. Langreth, Phys. Rev. B 82, 081101(R) (2010).
     *
     *
     * If you are calculating the stress with vdW-DF, please also cite:
     *
     *   R. Sabatini, E. Kucukbenli, B. Kolb, T. Thonhauser, and
     *   S. de Gironcoli, J. Phys.: Condens. Matter 24, 424209 (2012).
     *
     ************************************************************************

     Carrying out vdW-DF run using the following parameters:

     Nqs =      20    Nr_points =    1024   r_max =   100.000
     q_mesh =
               0.00001000     0.04494208     0.09755937     0.15916263
               0.23128650     0.31572767     0.41458969     0.53033537
               0.66584808     0.82450364     1.01025438     1.22772762
               1.48234092     1.78043706     2.12944203     2.53805004
               3.01644009     3.57652955     4.23227104     5.00000000

     Gradients computed in reciprocal space

     ************************************************************************


 
     Adding external electric field

     Computed dipole along edir(3) : 
        Dipole               -0.0013 Ry au,         -0.0032 Debye
        Dipole field         -0.0000 Ry au
 
        Potential amp.        0.0002 Ry
        Total length         46.5096 bohr
 
     Starting wfc are  157 randomized atomic wfcs

     total cpu time spent up to now is       14.6 secs

     per-process dynamical memory:   100.1 Mb

     Self-consistent Calculation

     iteration #  1     ecut=    36.75 Ry     beta=0.30
     Davidson diagonalization with overlap
     ethr =  1.00E-02,  avg # of iterations =  2.0

     negative rho (up, down):  7.329E-01 0.000E+00
 
     Adding external electric field

     Computed dipole along edir(3) : 
        Dipole               -1.7693 Ry au,         -4.4972 Debye
        Dipole field         -0.0037 Ry au
 
        Potential amp.        0.3400 Ry
        Total length         46.5096 bohr
 

     total cpu time spent up to now is       34.1 secs

     total energy              =   -1195.23646847 Ry
     Harris-Foulkes estimate   =   -1198.68657998 Ry
     estimated scf accuracy    <       7.24072167 Ry

     iteration #  2     ecut=    36.75 Ry     beta=0.30
     Davidson diagonalization with overlap
     ethr =  4.99E-03,  avg # of iterations =  7.7

     negative rho (up, down):  7.331E-01 0.000E+00
 
     Adding external electric field

     Computed dipole along edir(3) : 
        Dipole                3.8854 Ry au,          9.8757 Debye
        Dipole field          0.0080 Ry au
 
        Potential amp.       -0.7467 Ry
        Total length         46.5096 bohr
 

     total cpu time spent up to now is       60.3 secs

     total energy              =   -1188.82035067 Ry
     Harris-Foulkes estimate   =   -1205.72682021 Ry
     estimated scf accuracy    <     284.92778960 Ry

     iteration #  3     ecut=    36.75 Ry     beta=0.30
     Davidson diagonalization with overlap
     ethr =  4.99E-03,  avg # of iterations = 11.2

     negative rho (up, down):  7.325E-01 0.000E+00
 
     Adding external electric field

     Computed dipole along edir(3) : 
        Dipole               -0.0872 Ry au,         -0.2217 Debye
        Dipole field         -0.0002 Ry au
 
        Potential amp.        0.0168 Ry
        Total length         46.5096 bohr
 

     total cpu time spent up to now is       92.4 secs

     total energy              =   -1190.11997548 Ry
     Harris-Foulkes estimate   =   -1208.47206994 Ry
     estimated scf accuracy    <     560.01244326 Ry

     iteration #  4     ecut=    36.75 Ry     beta=0.30
     Davidson diagonalization with overlap
     ethr =  4.99E-03,  avg # of iterations =  6.5

     negative rho (up, down):  7.336E-01 0.000E+00
 
     Adding external electric field

     Computed dipole along edir(3) : 
        Dipole                0.0282 Ry au,          0.0717 Debye
        Dipole field          0.0001 Ry au
 
        Potential amp.       -0.0054 Ry
        Total length         46.5096 bohr
 

     total cpu time spent up to now is      118.7 secs

     total energy              =   -1198.10321637 Ry
     Harris-Foulkes estimate   =   -1198.18017059 Ry
     estimated scf accuracy    <       3.23640135 Ry

     iteration #  5     ecut=    36.75 Ry     beta=0.30
     Davidson diagonalization with overlap
     ethr =  2.23E-03,  avg # of iterations =  2.0

     negative rho (up, down):  7.367E-01 0.000E+00
 
     Adding external electric field

     Computed dipole along edir(3) : 
        Dipole               -0.2092 Ry au,         -0.5317 Debye
        Dipole field         -0.0004 Ry au
 
        Potential amp.        0.0402 Ry
        Total length         46.5096 bohr
 

     total cpu time spent up to now is      138.4 secs

     total energy              =   -1198.09142392 Ry
     Harris-Foulkes estimate   =   -1198.14798890 Ry
     estimated scf accuracy    <       0.69364191 Ry

     iteration #  6     ecut=    36.75 Ry     beta=0.30
     Davidson diagonalization with overlap
     ethr =  4.78E-04,  avg # of iterations =  5.1

     negative rho (up, down):  7.397E-01 0.000E+00
 
     Adding external electric field

     Computed dipole along edir(3) : 
        Dipole               -0.1704 Ry au,         -0.4330 Debye
        Dipole field         -0.0004 Ry au
 
        Potential amp.        0.0327 Ry
        Total length         46.5096 bohr
 

     total cpu time spent up to now is      159.6 secs

     total energy              =   -1198.10386566 Ry
     Harris-Foulkes estimate   =   -1198.13113306 Ry
     estimated scf accuracy    <       0.79680888 Ry

     iteration #  7     ecut=    36.75 Ry     beta=0.30
     Davidson diagonalization with overlap
     ethr =  4.78E-04,  avg # of iterations =  1.4

     negative rho (up, down):  7.414E-01 0.000E+00
 
     Adding external electric field

     Computed dipole along edir(3) : 
        Dipole               -0.0810 Ry au,         -0.2058 Debye
        Dipole field         -0.0002 Ry au
 
        Potential amp.        0.0156 Ry
        Total length         46.5096 bohr
 

     total cpu time spent up to now is      178.7 secs

     total energy              =   -1198.10844313 Ry
     Harris-Foulkes estimate   =   -1198.11546245 Ry
     estimated scf accuracy    <       0.28063928 Ry

     iteration #  8     ecut=    36.75 Ry     beta=0.30
     Davidson diagonalization with overlap
     ethr =  1.94E-04,  avg # of iterations =  3.1

     negative rho (up, down):  7.452E-01 0.000E+00
 
     Adding external electric field

     Computed dipole along edir(3) : 
        Dipole               -0.0587 Ry au,         -0.1492 Debye
        Dipole field         -0.0001 Ry au
 
        Potential amp.        0.0113 Ry
        Total length         46.5096 bohr
 

     total cpu time spent up to now is      199.0 secs

     total energy              =   -1198.11088469 Ry
     Harris-Foulkes estimate   =   -1198.11314398 Ry
     estimated scf accuracy    <       0.04052866 Ry

     iteration #  9     ecut=    36.75 Ry     beta=0.30
     Davidson diagonalization with overlap
     ethr =  2.80E-05,  avg # of iterations =  8.0

     negative rho (up, down):  7.464E-01 0.000E+00
 
     Adding external electric field

     Computed dipole along edir(3) : 
        Dipole               -0.0826 Ry au,         -0.2099 Debye
        Dipole field         -0.0002 Ry au
 
        Potential amp.        0.0159 Ry
        Total length         46.5096 bohr
 

     total cpu time spent up to now is      223.2 secs

     total energy              =   -1198.11299444 Ry
     Harris-Foulkes estimate   =   -1198.11491496 Ry
     estimated scf accuracy    <       0.01643270 Ry

     iteration # 10     ecut=    36.75 Ry     beta=0.30
     Davidson diagonalization with overlap
     ethr =  1.13E-05,  avg # of iterations =  3.6

     negative rho (up, down):  7.472E-01 0.000E+00
 
     Adding external electric field

     Computed dipole along edir(3) : 
        Dipole               -0.0820 Ry au,         -0.2084 Debye
        Dipole field         -0.0002 Ry au
 
        Potential amp.        0.0158 Ry
        Total length         46.5096 bohr
 

     total cpu time spent up to now is      243.5 secs

     total energy              =   -1198.11369828 Ry
     Harris-Foulkes estimate   =   -1198.11404631 Ry
     estimated scf accuracy    <       0.00701031 Ry

     iteration # 11     ecut=    36.75 Ry     beta=0.30
     Davidson diagonalization with overlap
     ethr =  4.83E-06,  avg # of iterations =  5.5

     negative rho (up, down):  7.484E-01 0.000E+00
 
     Adding external electric field

     Computed dipole along edir(3) : 
        Dipole               -0.0129 Ry au,         -0.0327 Debye
        Dipole field         -0.0000 Ry au
 
        Potential amp.        0.0025 Ry
        Total length         46.5096 bohr
 

     total cpu time spent up to now is      266.4 secs

     total energy              =   -1198.11373563 Ry
     Harris-Foulkes estimate   =   -1198.11452268 Ry
     estimated scf accuracy    <       0.01484925 Ry

     iteration # 12     ecut=    36.75 Ry     beta=0.30
     Davidson diagonalization with overlap
     ethr =  4.83E-06,  avg # of iterations =  5.4

     negative rho (up, down):  7.486E-01 0.000E+00
 
     Adding external electric field

     Computed dipole along edir(3) : 
        Dipole               -0.0218 Ry au,         -0.0554 Debye
        Dipole field         -0.0000 Ry au
 
        Potential amp.        0.0042 Ry
        Total length         46.5096 bohr
 

     total cpu time spent up to now is      288.5 secs

     total energy              =   -1198.11438361 Ry
     Harris-Foulkes estimate   =   -1198.11452401 Ry
     estimated scf accuracy    <       0.00343598 Ry

     iteration # 13     ecut=    36.75 Ry     beta=0.30
     Davidson diagonalization with overlap
     ethr =  2.37E-06,  avg # of iterations =  1.4

     negative rho (up, down):  7.487E-01 0.000E+00
 
     Adding external electric field

     Computed dipole along edir(3) : 
        Dipole               -0.0248 Ry au,         -0.0630 Debye
        Dipole field         -0.0001 Ry au
 
        Potential amp.        0.0048 Ry
        Total length         46.5096 bohr
 

     total cpu time spent up to now is      307.7 secs

     total energy              =   -1198.11442798 Ry
     Harris-Foulkes estimate   =   -1198.11445332 Ry
     estimated scf accuracy    <       0.00038783 Ry

     iteration # 14     ecut=    36.75 Ry     beta=0.30
     Davidson diagonalization with overlap
     ethr =  2.67E-07,  avg # of iterations =  5.5

     negative rho (up, down):  7.487E-01 0.000E+00
 
     Adding external electric field

     Computed dipole along edir(3) : 
        Dipole               -0.0224 Ry au,         -0.0569 Debye
        Dipole field         -0.0000 Ry au
 
        Potential amp.        0.0043 Ry
        Total length         46.5096 bohr
 

     total cpu time spent up to now is      331.8 secs

     total energy              =   -1198.11448369 Ry
     Harris-Foulkes estimate   =   -1198.11449059 Ry
     estimated scf accuracy    <       0.00010071 Ry

     iteration # 15     ecut=    36.75 Ry     beta=0.30
     Davidson diagonalization with overlap
     ethr =  6.95E-08,  avg # of iterations =  2.6

     negative rho (up, down):  7.488E-01 0.000E+00
 
     Adding external electric field

     Computed dipole along edir(3) : 
        Dipole               -0.0210 Ry au,         -0.0534 Debye
        Dipole field         -0.0000 Ry au
 
        Potential amp.        0.0040 Ry
        Total length         46.5096 bohr
 

     total cpu time spent up to now is      351.4 secs

     total energy              =   -1198.11448737 Ry
     Harris-Foulkes estimate   =   -1198.11448746 Ry
     estimated scf accuracy    <       0.00005573 Ry

     iteration # 16     ecut=    36.75 Ry     beta=0.30
     Davidson diagonalization with overlap
     ethr =  3.84E-08,  avg # of iterations =  3.5

     negative rho (up, down):  7.488E-01 0.000E+00
 
     Adding external electric field

     Computed dipole along edir(3) : 
        Dipole               -0.0194 Ry au,         -0.0492 Debye
        Dipole field         -0.0000 Ry au
 
        Potential amp.        0.0037 Ry
        Total length         46.5096 bohr
 

     total cpu time spent up to now is      372.0 secs

     total energy              =   -1198.11448987 Ry
     Harris-Foulkes estimate   =   -1198.11448999 Ry
     estimated scf accuracy    <       0.00001866 Ry

     iteration # 17     ecut=    36.75 Ry     beta=0.30
     Davidson diagonalization with overlap
     ethr =  1.29E-08,  avg # of iterations =  5.3

     negative rho (up, down):  7.487E-01 0.000E+00

     negative rho (up, down):  7.487E-01 0.000E+00

     negative rho (up, down):  7.487E-01 0.000E+00

     negative rho (up, down):  7.487E-01 0.000E+00

     negative rho (up, down):  7.487E-01 0.000E+00

     negative rho (up, down):  7.487E-01 0.000E+00

     negative rho (up, down):  7.487E-01 0.000E+00

     negative rho (up, down):  7.487E-01 0.000E+00

     negative rho (up, down):  7.487E-01 0.000E+00

     negative rho (up, down):  7.487E-01 0.000E+00

     negative rho (up, down):  7.487E-01 0.000E+00

     negative rho (up, down):  7.487E-01 0.000E+00

     negative rho (up, down):  7.487E-01 0.000E+00

     negative rho (up, down):  7.487E-01 0.000E+00

     negative rho (up, down):  7.487E-01 0.000E+00

     negative rho (up, down):  7.487E-01 0.000E+00

     negative rho (up, down):  7.487E-01 0.000E+00

     negative rho (up, down):  7.487E-01 0.000E+00

     negative rho (up, down):  7.487E-01 0.000E+00

     negative rho (up, down):  7.487E-01 0.000E+00

     negative rho (up, down):  7.487E-01 0.000E+00

     negative rho (up, down):  7.487E-01 0.000E+00

     negative rho (up, down):  7.487E-01 0.000E+00

     negative rho (up, down):  7.487E-01 0.000E+00

     negative rho (up, down):  7.487E-01 0.000E+00

     negative rho (up, down):  7.487E-01 0.000E+00

     negative rho (up, down):  7.487E-01 0.000E+00

     negative rho (up, down):  7.487E-01 0.000E+00

     negative rho (up, down):  7.487E-01 0.000E+00

     negative rho (up, down):  7.487E-01 0.000E+00

     negative rho (up, down):  7.487E-01 0.000E+00

     negative rho (up, down):  7.487E-01 0.000E+00

     negative rho (up, down):  7.487E-01 0.000E+00

     negative rho (up, down):  7.487E-01 0.000E+00

     negative rho (up, down):  7.487E-01 0.000E+00
 
     Adding external electric field

     Computed dipole along edir(3) : 
        Dipole                0.0127 Ry au,          0.0323 Debye
        Dipole field          0.0000 Ry au
 
        Potential amp.       -0.0024 Ry
        Total length         46.5096 bohr
 

     total cpu time spent up to now is      454.8 secs

     End of self-consistent calculation

          k = 0.0000 0.0000 0.0000 ( 22923 PWs)   bands (ev):

   -47.8718 -47.8632 -47.7905 -47.7759 -47.7752 -47.7731 -47.7722 -47.7717
   -47.5512 -47.4745 -47.4667 -47.4663 -26.1616 -26.1613 -26.1590 -26.1140
   -26.1137 -26.1112 -26.0722 -25.9877 -25.9847 -25.9844 -25.8850 -25.7888
   -25.7763 -25.7757 -25.6424 -25.6421 -25.6409 -25.6070 -25.6067 -25.6045
   -25.5910 -25.5907 -25.5867 -25.4355 -25.4355 -25.4293 -25.4293 -25.3884
   -25.3795 -25.3792 -25.3627 -25.2884 -25.2871 -25.2870 -25.1374 -25.1374
    -3.7819  -3.0360  -2.0163  -1.4585  -1.1487  -1.1487  -1.0530  -1.0288
    -1.0288  -0.8886  -0.6026  -0.6025  -0.4041  -0.3957  -0.3957  -0.1950
     0.4454   0.4456   0.7281   1.3124   1.5095   1.5857   1.5857   1.9543
     1.9910   2.1000   2.1003   2.1103   2.3116   2.3116   2.4281   2.5636
     2.5637   2.6315

          k = 0.0000 0.0300 0.0000 ( 22902 PWs)   bands (ev):

   -47.8658 -47.8574 -47.7928 -47.7810 -47.7756 -47.7756 -47.7736 -47.7719
   -47.5458 -47.4773 -47.4693 -47.4665 -26.1366 -26.1347 -26.1183 -26.0896
   -26.0876 -26.0697 -26.0578 -25.9702 -25.9672 -25.9623 -25.8811 -25.8033
   -25.7888 -25.7830 -25.6371 -25.6338 -25.6295 -25.6288 -25.6260 -25.6199
   -25.6191 -25.5946 -25.5790 -25.4907 -25.4819 -25.4471 -25.4402 -25.3831
   -25.3751 -25.3737 -25.3508 -25.3122 -25.3122 -25.2776 -25.1825 -25.1476
    -3.6197  -2.9036  -1.8727  -1.2916  -1.1426  -1.0317  -1.0110  -0.9270
    -0.8951  -0.7695  -0.4709  -0.4060  -0.2967  -0.2788  -0.2757  -0.0838
     0.4879   0.4977   0.7293   1.2791   1.4723   1.5657   1.6096   1.7813
     1.9027   1.9200   1.9413   1.9534   2.1584   2.2515   2.4033   2.4261
     2.4403   2.4755

          k = 0.0000 0.0599 0.0000 ( 22852 PWs)   bands (ev):

   -47.8499 -47.8416 -47.8037 -47.7973 -47.7805 -47.7756 -47.7738 -47.7719
   -47.5311 -47.4903 -47.4711 -47.4665 -26.0757 -26.0727 -26.0303 -26.0276
   -26.0201 -26.0092 -25.9506 -25.9311 -25.9275 -25.9181 -25.8724 -25.8390
   -25.8112 -25.8033 -25.6974 -25.6953 -25.6947 -25.6876 -25.6280 -25.6099
   -25.6002 -25.5964 -25.5666 -25.5642 -25.5504 -25.4786 -25.4697 -25.3846
   -25.3823 -25.3662 -25.3611 -25.3552 -25.3451 -25.3008 -25.2506 -25.1752
    -3.2293  -2.5599  -1.5365  -1.4160  -0.9389  -0.7682  -0.6849  -0.6493
    -0.5521  -0.4938  -0.2080   0.0123   0.0667   0.0684   0.1064   0.2641
     0.5796   0.6149   0.7639   1.0295   1.2427   1.3092   1.3106   1.3444
     1.5111   1.7004   1.7055   1.7869   1.8706   1.8919   1.9252   2.0016
     2.0439   2.0488

          k = 0.0000-0.0899 0.0000 ( 22880 PWs)   bands (ev):

   -47.8344 -47.8212 -47.8196 -47.8162 -47.7818 -47.7757 -47.7738 -47.7720
   -47.5137 -47.5075 -47.4713 -47.4665 -26.0338 -26.0298 -25.9916 -25.9873
   -25.9780 -25.9691 -25.9016 -25.8998 -25.8773 -25.8677 -25.8361 -25.8255
   -25.7955 -25.7913 -25.7848 -25.7766 -25.7378 -25.7367 -25.7348 -25.7253
   -25.5751 -25.5705 -25.5256 -25.5202 -25.5133 -25.5048 -25.4523 -25.4473
   -25.4200 -25.4164 -25.3681 -25.3576 -25.3514 -25.3481 -25.2175 -25.2086
    -2.9906  -2.1049  -1.9638  -1.1721  -0.9227  -0.4546  -0.4544  -0.3718
    -0.3393  -0.3241  -0.1686   0.3772   0.3948   0.4581   0.4613   0.4842
     0.5478   0.8607   0.8774   0.9036   0.9412   0.9505   1.0141   1.2208
     1.2292   1.2496   1.4223   1.4793   1.4823   1.5016   1.6861   1.6996
     1.9355   2.0573

          k = 0.0260-0.0150 0.0000 ( 22902 PWs)   bands (ev):

   -47.8658 -47.8574 -47.7929 -47.7810 -47.7758 -47.7753 -47.7735 -47.7721
   -47.5458 -47.4772 -47.4695 -47.4663 -26.1365 -26.1348 -26.1183 -26.0895
   -26.0877 -26.0697 -26.0578 -25.9701 -25.9673 -25.9622 -25.8811 -25.8034
   -25.7885 -25.7832 -25.6370 -25.6339 -25.6296 -25.6287 -25.6260 -25.6198
   -25.6193 -25.5946 -25.5790 -25.4908 -25.4819 -25.4471 -25.4402 -25.3831
   -25.3750 -25.3738 -25.3508 -25.3122 -25.3121 -25.2776 -25.1825 -25.1476
    -3.6197  -2.9036  -1.8727  -1.2916  -1.1426  -1.0317  -1.0110  -0.9271
    -0.8951  -0.7695  -0.4709  -0.4060  -0.2967  -0.2788  -0.2758  -0.0838
     0.4880   0.4976   0.7293   1.2791   1.4723   1.5657   1.6096   1.7813
     1.9027   1.9199   1.9413   1.9534   2.1584   2.2515   2.4033   2.4261
     2.4404   2.4755

          k = 0.0260 0.0150 0.0000 ( 22902 PWs)   bands (ev):

   -47.8658 -47.8574 -47.7928 -47.7811 -47.7758 -47.7753 -47.7739 -47.7717
   -47.5458 -47.4773 -47.4690 -47.4667 -26.1368 -26.1346 -26.1183 -26.0897
   -26.0874 -26.0697 -26.0578 -25.9703 -25.9670 -25.9623 -25.8811 -25.8032
   -25.7892 -25.7827 -25.6372 -25.6336 -25.6293 -25.6289 -25.6261 -25.6200
   -25.6190 -25.5946 -25.5790 -25.4908 -25.4820 -25.4471 -25.4402 -25.3831
   -25.3752 -25.3736 -25.3508 -25.3123 -25.3121 -25.2776 -25.1825 -25.1476
    -3.6197  -2.9036  -1.8727  -1.2917  -1.1426  -1.0317  -1.0110  -0.9270
    -0.8951  -0.7695  -0.4708  -0.4060  -0.2967  -0.2788  -0.2757  -0.0838
     0.4878   0.4977   0.7293   1.2791   1.4723   1.5658   1.6096   1.7813
     1.9026   1.9201   1.9413   1.9533   2.1584   2.2515   2.4032   2.4261
     2.4403   2.4756

          k = 0.0260 0.0450 0.0000 ( 22896 PWs)   bands (ev):

   -47.8549 -47.8466 -47.7978 -47.7871 -47.7854 -47.7832 -47.7699 -47.7693
   -47.5358 -47.4829 -47.4766 -47.4637 -26.1023 -26.0622 -26.0612 -26.0567
   -26.0320 -26.0108 -26.0091 -25.9427 -25.9351 -25.9311 -25.8747 -25.8252
   -25.8184 -25.7890 -25.7135 -25.7112 -25.6163 -25.6144 -25.6135 -25.6026
   -25.6010 -25.5887 -25.5849 -25.5814 -25.5656 -25.4700 -25.4657 -25.3886
   -25.3774 -25.3696 -25.3635 -25.3449 -25.2921 -25.2891 -25.2608 -25.1694
    -3.3392  -2.6653  -1.6105  -1.1266  -1.1188  -0.9765  -0.8585  -0.7589
    -0.6092  -0.4823  -0.2343  -0.1167  -0.0849  -0.0628  -0.0153   0.1566
     0.5643   0.5784   0.7287   1.1678   1.2992   1.3557   1.4123   1.5526
     1.5656   1.7379   1.7884   1.8531   1.9484   1.9855   2.0963   2.1039
     2.1072   2.2361

          k = 0.0260-0.1049 0.0000 ( 22856 PWs)   bands (ev):

   -47.8374 -47.8279 -47.8100 -47.8054 -47.7912 -47.7888 -47.7677 -47.7664
   -47.5186 -47.4976 -47.4819 -47.4611 -26.0363 -26.0032 -25.9963 -25.9880
   -25.9657 -25.9468 -25.9045 -25.8991 -25.8919 -25.8734 -25.8661 -25.8463
   -25.8415 -25.8314 -25.8000 -25.7871 -25.7279 -25.7096 -25.6485 -25.6428
   -25.5823 -25.5697 -25.5592 -25.5489 -25.5152 -25.5095 -25.5069 -25.4675
   -25.3867 -25.3750 -25.3670 -25.3532 -25.3454 -25.3225 -25.2532 -25.2083
    -3.0056  -2.2260  -1.6086  -1.1730  -1.0048  -0.7910  -0.5155  -0.3713
    -0.2873  -0.0949  -0.0158   0.2754   0.2996   0.3370   0.3886   0.4280
     0.6598   0.7620   0.8148   0.8574   0.9877   1.0436   1.1132   1.1286
     1.1429   1.2918   1.4387   1.4917   1.5620   1.6224   1.6369   1.6624
     1.7535   2.0588

          k = 0.0260-0.0749 0.0000 ( 22856 PWs)   bands (ev):

   -47.8374 -47.8279 -47.8101 -47.8054 -47.7911 -47.7888 -47.7678 -47.7664
   -47.5186 -47.4975 -47.4819 -47.4611 -26.0363 -26.0032 -25.9963 -25.9879
   -25.9657 -25.9468 -25.9044 -25.8992 -25.8919 -25.8734 -25.8661 -25.8466
   -25.8412 -25.8313 -25.8001 -25.7871 -25.7279 -25.7096 -25.6485 -25.6429
   -25.5823 -25.5697 -25.5592 -25.5489 -25.5152 -25.5095 -25.5069 -25.4674
   -25.3868 -25.3750 -25.3669 -25.3534 -25.3454 -25.3225 -25.2532 -25.2083
    -3.0056  -2.2259  -1.6086  -1.1729  -1.0048  -0.7910  -0.5155  -0.3713
    -0.2873  -0.0949  -0.0158   0.2754   0.2996   0.3370   0.3886   0.4281
     0.6598   0.7620   0.8148   0.8574   0.9877   1.0436   1.1133   1.1286
     1.1428   1.2918   1.4386   1.4917   1.5620   1.6224   1.6369   1.6624
     1.7535   2.0588

          k = 0.0260-0.0450 0.0000 ( 22896 PWs)   bands (ev):

   -47.8549 -47.8466 -47.7980 -47.7865 -47.7859 -47.7830 -47.7701 -47.7693
   -47.5358 -47.4826 -47.4770 -47.4636 -26.1023 -26.0621 -26.0613 -26.0566
   -26.0320 -26.0109 -26.0091 -25.9425 -25.9355 -25.9308 -25.8747 -25.8256
   -25.8180 -25.7890 -25.7135 -25.7112 -25.6162 -25.6143 -25.6137 -25.6025
   -25.6010 -25.5887 -25.5849 -25.5814 -25.5656 -25.4700 -25.4657 -25.3886
   -25.3775 -25.3693 -25.3638 -25.3449 -25.2922 -25.2891 -25.2608 -25.1694
    -3.3392  -2.6653  -1.6105  -1.1266  -1.1189  -0.9764  -0.8585  -0.7589
    -0.6092  -0.4823  -0.2343  -0.1166  -0.0849  -0.0628  -0.0153   0.1566
     0.5644   0.5783   0.7287   1.1678   1.2993   1.3556   1.4124   1.5525
     1.5657   1.7379   1.7884   1.8531   1.9484   1.9855   2.0962   2.1039
     2.1072   2.2363

          k = 0.0519-0.0300 0.0000 ( 22852 PWs)   bands (ev):

   -47.8499 -47.8416 -47.8038 -47.7973 -47.7802 -47.7759 -47.7736 -47.7722
   -47.5311 -47.4903 -47.4713 -47.4663 -26.0755 -26.0728 -26.0301 -26.0278
   -26.0201 -26.0092 -25.9506 -25.9310 -25.9276 -25.9180 -25.8724 -25.8391
   -25.8110 -25.8035 -25.6973 -25.6954 -25.6945 -25.6877 -25.6280 -25.6099
   -25.6003 -25.5963 -25.5666 -25.5641 -25.5504 -25.4786 -25.4697 -25.3845
   -25.3823 -25.3663 -25.3612 -25.3551 -25.3451 -25.3008 -25.2506 -25.1752
    -3.2293  -2.5599  -1.5365  -1.4160  -0.9389  -0.7682  -0.6848  -0.6494
    -0.5521  -0.4938  -0.2080   0.0123   0.0667   0.0684   0.1065   0.2641
     0.5797   0.6149   0.7639   1.0295   1.2427   1.3092   1.3106   1.3444
     1.5111   1.7004   1.7055   1.7869   1.8706   1.8920   1.9252   2.0016
     2.0439   2.0488

          k = 0.0519 0.0000 0.0000 ( 22896 PWs)   bands (ev):

   -47.8549 -47.8466 -47.7979 -47.7869 -47.7855 -47.7831 -47.7700 -47.7693
   -47.5358 -47.4828 -47.4768 -47.4636 -26.1023 -26.0622 -26.0613 -26.0566
   -26.0320 -26.0108 -26.0091 -25.9426 -25.9353 -25.9309 -25.8747 -25.8254
   -25.8182 -25.7890 -25.7135 -25.7112 -25.6163 -25.6144 -25.6136 -25.6026
   -25.6010 -25.5887 -25.5849 -25.5814 -25.5656 -25.4700 -25.4657 -25.3886
   -25.3774 -25.3695 -25.3636 -25.3449 -25.2922 -25.2891 -25.2608 -25.1694
    -3.3392  -2.6653  -1.6105  -1.1266  -1.1189  -0.9765  -0.8585  -0.7589
    -0.6092  -0.4823  -0.2343  -0.1167  -0.0849  -0.0628  -0.0153   0.1566
     0.5644   0.5784   0.7287   1.1678   1.2993   1.3557   1.4124   1.5526
     1.5656   1.7379   1.7884   1.8531   1.9484   1.9855   2.0963   2.1039
     2.1072   2.2361

          k = 0.0519 0.0300 0.0000 ( 22852 PWs)   bands (ev):

   -47.8499 -47.8416 -47.8036 -47.7973 -47.7808 -47.7753 -47.7741 -47.7718
   -47.5311 -47.4904 -47.4708 -47.4667 -26.0758 -26.0725 -26.0305 -26.0275
   -26.0200 -26.0092 -25.9506 -25.9312 -25.9273 -25.9182 -25.8724 -25.8389
   -25.8115 -25.8031 -25.6975 -25.6951 -25.6949 -25.6874 -25.6280 -25.6099
   -25.6000 -25.5966 -25.5666 -25.5642 -25.5505 -25.4786 -25.4697 -25.3848
   -25.3822 -25.3661 -25.3611 -25.3553 -25.3451 -25.3008 -25.2506 -25.1752
    -3.2293  -2.5600  -1.5365  -1.4159  -0.9389  -0.7682  -0.6849  -0.6493
    -0.5521  -0.4938  -0.2079   0.0123   0.0666   0.0684   0.1064   0.2641
     0.5795   0.6150   0.7640   1.0295   1.2427   1.3092   1.3106   1.3444
     1.5111   1.7004   1.7055   1.7869   1.8706   1.8919   1.9252   2.0017
     2.0439   2.0487

          k = 0.0519-0.1199 0.0000 ( 22856 PWs)   bands (ev):

   -47.8374 -47.8279 -47.8099 -47.8054 -47.7914 -47.7888 -47.7677 -47.7664
   -47.5185 -47.4976 -47.4818 -47.4612 -26.0363 -26.0031 -25.9963 -25.9879
   -25.9657 -25.9467 -25.9045 -25.8989 -25.8920 -25.8734 -25.8661 -25.8463
   -25.8415 -25.8313 -25.8001 -25.7871 -25.7279 -25.7096 -25.6485 -25.6429
   -25.5822 -25.5697 -25.5593 -25.5489 -25.5152 -25.5095 -25.5069 -25.4675
   -25.3867 -25.3750 -25.3671 -25.3531 -25.3455 -25.3225 -25.2532 -25.2084
    -3.0055  -2.2260  -1.6086  -1.1730  -1.0048  -0.7910  -0.5155  -0.3713
    -0.2873  -0.0949  -0.0157   0.2754   0.2996   0.3370   0.3887   0.4280
     0.6598   0.7621   0.8148   0.8575   0.9877   1.0436   1.1132   1.1286
     1.1429   1.2918   1.4387   1.4917   1.5620   1.6224   1.6369   1.6624
     1.7535   2.0588

          k = 0.0519-0.0899 0.0000 ( 22914 PWs)   bands (ev):

   -47.8283 -47.8103 -47.8093 -47.8081 -47.8057 -47.8048 -47.7652 -47.7634
   -47.5060 -47.4976 -47.4971 -47.4585 -25.9710 -25.9621 -25.9586 -25.9517
   -25.9299 -25.9265 -25.9114 -25.8836 -25.8714 -25.8690 -25.8369 -25.8352
   -25.8345 -25.8313 -25.8302 -25.8293 -25.8256 -25.8254 -25.5855 -25.5853
   -25.5815 -25.5770 -25.5768 -25.5693 -25.5409 -25.5394 -25.4747 -25.4737
   -25.4723 -25.3774 -25.3573 -25.3503 -25.3485 -25.2693 -25.2691 -25.2587
    -2.9004  -1.6797  -1.6623  -1.5746  -0.7774  -0.7598  -0.5864   0.0790
     0.0857   0.1458   0.1485   0.1567   0.2945   0.5932   0.6033   0.6711
     0.7249   0.7279   0.7326   0.7347   0.7368   0.7385   0.7442   1.0743
     1.2238   1.2245   1.2254   1.3098   1.3190   1.3766   1.4869   1.5761
     1.5781   1.6887

          k = 0.0519-0.0599 0.0000 ( 22856 PWs)   bands (ev):

   -47.8373 -47.8279 -47.8102 -47.8053 -47.7910 -47.7888 -47.7678 -47.7664
   -47.5186 -47.4974 -47.4820 -47.4611 -26.0363 -26.0032 -25.9963 -25.9879
   -25.9657 -25.9468 -25.9043 -25.8993 -25.8918 -25.8734 -25.8661 -25.8465
   -25.8412 -25.8314 -25.8001 -25.7871 -25.7279 -25.7096 -25.6485 -25.6428
   -25.5823 -25.5697 -25.5592 -25.5489 -25.5152 -25.5094 -25.5069 -25.4674
   -25.3867 -25.3750 -25.3669 -25.3534 -25.3454 -25.3225 -25.2533 -25.2083
    -3.0056  -2.2259  -1.6087  -1.1729  -1.0048  -0.7910  -0.5155  -0.3713
    -0.2873  -0.0949  -0.0158   0.2754   0.2996   0.3371   0.3886   0.4281
     0.6598   0.7620   0.8149   0.8574   0.9877   1.0436   1.1133   1.1286
     1.1428   1.2918   1.4386   1.4917   1.5620   1.6224   1.6369   1.6624
     1.7535   2.0588

          k =-0.0779 0.0450 0.0000 ( 22880 PWs)   bands (ev):

   -47.8343 -47.8214 -47.8195 -47.8163 -47.7815 -47.7759 -47.7736 -47.7722
   -47.5139 -47.5074 -47.4715 -47.4663 -26.0336 -26.0300 -25.9914 -25.9875
   -25.9780 -25.9691 -25.9014 -25.9000 -25.8773 -25.8677 -25.8359 -25.8257
   -25.7954 -25.7913 -25.7848 -25.7767 -25.7380 -25.7365 -25.7346 -25.7255
   -25.5752 -25.5704 -25.5254 -25.5203 -25.5131 -25.5049 -25.4524 -25.4472
   -25.4198 -25.4165 -25.3681 -25.3575 -25.3516 -25.3480 -25.2177 -25.2084
    -2.9906  -2.1049  -1.9639  -1.1721  -0.9227  -0.4546  -0.4544  -0.3717
    -0.3393  -0.3241  -0.1686   0.3772   0.3948   0.4581   0.4613   0.4842
     0.5478   0.8608   0.8774   0.9036   0.9412   0.9506   1.0141   1.2208
     1.2291   1.2496   1.4224   1.4793   1.4822   1.5016   1.6861   1.6996
     1.9356   2.0573

          k =-0.0779 0.0749 0.0000 ( 22856 PWs)   bands (ev):

   -47.8373 -47.8279 -47.8102 -47.8053 -47.7911 -47.7888 -47.7678 -47.7664
   -47.5186 -47.4975 -47.4820 -47.4611 -26.0363 -26.0032 -25.9963 -25.9880
   -25.9657 -25.9468 -25.9044 -25.8992 -25.8918 -25.8734 -25.8661 -25.8463
   -25.8414 -25.8314 -25.8000 -25.7871 -25.7279 -25.7096 -25.6485 -25.6428
   -25.5823 -25.5697 -25.5592 -25.5489 -25.5152 -25.5094 -25.5069 -25.4675
   -25.3867 -25.3750 -25.3669 -25.3533 -25.3454 -25.3225 -25.2533 -25.2083
    -3.0056  -2.2259  -1.6086  -1.1729  -1.0048  -0.7910  -0.5156  -0.3713
    -0.2873  -0.0949  -0.0158   0.2754   0.2996   0.3371   0.3886   0.4281
     0.6598   0.7620   0.8149   0.8574   0.9877   1.0436   1.1132   1.1286
     1.1429   1.2918   1.4386   1.4917   1.5620   1.6224   1.6369   1.6624
     1.7535   2.0588

          k =-0.0779 0.1049 0.0000 ( 22856 PWs)   bands (ev):

   -47.8374 -47.8279 -47.8099 -47.8054 -47.7913 -47.7888 -47.7677 -47.7664
   -47.5185 -47.4976 -47.4818 -47.4611 -26.0363 -26.0031 -25.9963 -25.9879
   -25.9657 -25.9467 -25.9045 -25.8990 -25.8920 -25.8734 -25.8661 -25.8464
   -25.8414 -25.8313 -25.8001 -25.7871 -25.7279 -25.7096 -25.6485 -25.6429
   -25.5822 -25.5697 -25.5593 -25.5489 -25.5152 -25.5095 -25.5069 -25.4675
   -25.3867 -25.3750 -25.3670 -25.3532 -25.3454 -25.3225 -25.2532 -25.2084
    -3.0055  -2.2260  -1.6086  -1.1730  -1.0048  -0.7910  -0.5155  -0.3713
    -0.2873  -0.0949  -0.0157   0.2754   0.2996   0.3370   0.3886   0.4280
     0.6598   0.7620   0.8148   0.8575   0.9877   1.0436   1.1133   1.1286
     1.1429   1.2918   1.4387   1.4917   1.5620   1.6224   1.6369   1.6624
     1.7535   2.0588

          k =-0.0779-0.0450 0.0000 ( 22880 PWs)   bands (ev):

   -47.8345 -47.8210 -47.8198 -47.8161 -47.7821 -47.7753 -47.7742 -47.7718
   -47.5136 -47.5077 -47.4711 -47.4667 -26.0341 -26.0295 -25.9918 -25.9871
   -25.9779 -25.9690 -25.9018 -25.8996 -25.8773 -25.8677 -25.8363 -25.8253
   -25.7955 -25.7914 -25.7846 -25.7765 -25.7375 -25.7370 -25.7351 -25.7251
   -25.5749 -25.5708 -25.5257 -25.5200 -25.5135 -25.5046 -25.4522 -25.4475
   -25.4202 -25.4161 -25.3680 -25.3577 -25.3512 -25.3483 -25.2173 -25.2088
    -2.9906  -2.1050  -1.9638  -1.1722  -0.9227  -0.4545  -0.4545  -0.3718
    -0.3392  -0.3242  -0.1685   0.3773   0.3947   0.4580   0.4613   0.4842
     0.5478   0.8607   0.8774   0.9036   0.9414   0.9504   1.0142   1.2208
     1.2292   1.2496   1.4222   1.4793   1.4823   1.5016   1.6861   1.6996
     1.9355   2.0573

     the Fermi energy is     1.4132 ev

!    total energy              =   -1198.11448463 Ry
     Harris-Foulkes estimate   =   -1198.11449228 Ry
     estimated scf accuracy    <       0.00000972 Ry

     The total energy is the sum of the following terms:

     one-electron contribution =   -8234.01651143 Ry
     hartree contribution      =    4107.65111564 Ry
     xc contribution           =    -221.18894873 Ry
     ewald contribution        =    3149.55816203 Ry
     electric field correction =       0.00000033 Ry
     smearing contrib. (-TS)   =      -0.11830247 Ry

     convergence has been achieved in  17 iterations
 
 BEEF-vdW xc energy contributions
           1 :   -189.471635521354     
           2 :    171.509897217671     
           3 :   -141.214224688548     
           4 :    107.120169090826     
           5 :   -76.9707868242644     
           6 :    54.9679403738468     
           7 :   -41.0878165668276     
           8 :    32.4054525238166     
           9 :   -25.3846108020729     
          10 :    17.8150382388199     
          11 :   -9.53467543044138     
          12 :    1.87255307726855     
          13 :    3.59032438787818     
          14 :   -6.12414694704819     
          15 :    6.23790742223161     
          16 :   -5.26589406586413     
          17 :    4.52590621361026     
          18 :   -4.61106559965589     
          19 :    5.22296376110307     
          20 :   -5.57440492561489     
          21 :    5.03503291831382     
          22 :   -3.58057220269200     
          23 :    1.78318485932240     
          24 :  -0.406753775915746     
          25 :  -8.265578458383516E-002
          26 :  -0.233091817044908     
          27 :   0.843117499603125     
          28 :   -1.17680365954197     
          29 :   0.964305804797107     
          30 :  -0.365315998420272     
          31 :   -21.9349849147146     
          32 :   -16.3508193154402     

     Forces acting on atoms (Ry/au):


     negative rho (up, down):  7.487E-01 0.000E+00
     atom    1 type  1   force =     0.00050688    0.00027276    0.01439577
     atom    2 type  1   force =    -0.00050462    0.00031626    0.01432938
     atom    3 type  1   force =     0.00003669   -0.00058406    0.01435870
     atom    4 type  1   force =    -0.00004089    0.00000096    0.01470237
     atom    5 type  1   force =     0.00003423    0.00318498   -0.00198507
     atom    6 type  1   force =    -0.00003304   -0.00000664   -0.00261567
     atom    7 type  1   force =    -0.00276374   -0.00160896   -0.00195363
     atom    8 type  1   force =     0.00276496   -0.00157234   -0.00199886
     atom    9 type  1   force =     0.00003556    0.00000130   -0.02157153
     atom   10 type  1   force =    -0.00004328    0.01757164   -0.00053649
     atom   11 type  1   force =     0.01522254   -0.00881369   -0.00051876
     atom   12 type  1   force =    -0.01521729   -0.00876281   -0.00055960
     atom   13 type  2   force =     0.00000201    0.00000060   -0.02604660

     Total force =     0.045510     Total SCF correction =     0.003588


     entering subroutine stress ...


     negative rho (up, down):  7.487E-01 0.000E+00
          total   stress  (Ry/bohr**3)                   (kbar)     P=  -13.52
  -0.00008738   0.00000000  -0.00000000        -12.85      0.00     -0.00
   0.00000000  -0.00008737   0.00000000          0.00    -12.85      0.00
  -0.00000000   0.00000000  -0.00010099         -0.00      0.00    -14.86


     BFGS Geometry Optimization

     number of scf cycles    =   1
     number of bfgs steps    =   0

     energy   new            =   -1198.1144846302 Ry

     new trust radius        =       0.0260465960 bohr
     new conv_thr            =       0.0000099958 Ry


ATOMIC_POSITIONS (crystal)
Zr1      0.166666667   0.166666667   0.396150897    0   0   0
Zr1      0.666666667   0.166666667   0.396150897    0   0   0
Zr1      0.166666667   0.666666667   0.396150897    0   0   0
Zr1      0.666666667   0.666666667   0.396150897    0   0   0
Zr1      0.833333333   0.333333333   0.500000000    0   0   0
Zr1      0.333333333   0.333333333   0.500000000    0   0   0
Zr1      0.833333333   0.833333333   0.500000000    0   0   0
Zr1      0.333333333   0.833333333   0.500000000    0   0   0
Zr1      0.000002869   0.000000124   0.603396890
Zr1      0.499160378   0.001672111   0.603837856
Zr1      0.001673854   0.499161292   0.603838228
Zr1      0.499162866   0.499166134   0.603837372
H1       0.333333470   0.333333391   0.656347683



     Writing output data file calc.save
     Check: negative starting charge=   -0.729136
     NEW-OLD atomic charge density approx. for the potential
     Check: negative starting charge=   -0.729502

     negative rho (up, down):  7.491E-01 0.000E+00
 
     Adding external electric field

     Computed dipole along edir(3) : 
        Dipole                0.0127 Ry au,          0.0322 Debye
        Dipole field          0.0000 Ry au
 
        Potential amp.       -0.0024 Ry
        Total length         46.5096 bohr
 

     total cpu time spent up to now is      527.0 secs

     per-process dynamical memory:    89.6 Mb

     Self-consistent Calculation

     iteration #  1     ecut=    36.75 Ry     beta=0.30
     Davidson diagonalization with overlap
     ethr =  1.00E-06,  avg # of iterations =  8.4

     negative rho (up, down):  7.491E-01 0.000E+00
 
     Adding external electric field

     Computed dipole along edir(3) : 
        Dipole               -0.9457 Ry au,         -2.4036 Debye
        Dipole field         -0.0020 Ry au
 
        Potential amp.        0.1817 Ry
        Total length         46.5096 bohr
 

     total cpu time spent up to now is      557.8 secs

     total energy              =   -1198.07804087 Ry
     Harris-Foulkes estimate   =   -1198.11549767 Ry
     estimated scf accuracy    <       0.07801283 Ry

     iteration #  2     ecut=    36.75 Ry     beta=0.30
     Davidson diagonalization with overlap
     ethr =  5.38E-05,  avg # of iterations =  7.5

     negative rho (up, down):  7.492E-01 0.000E+00
 
     Adding external electric field

     Computed dipole along edir(3) : 
        Dipole               -0.0255 Ry au,         -0.0648 Debye
        Dipole field         -0.0001 Ry au
 
        Potential amp.        0.0049 Ry
        Total length         46.5096 bohr
 

     total cpu time spent up to now is      586.7 secs

     total energy              =   -1197.61438877 Ry
     Harris-Foulkes estimate   =   -1198.73491695 Ry
     estimated scf accuracy    <      50.33165775 Ry

     iteration #  3     ecut=    36.75 Ry     beta=0.30
     Davidson diagonalization with overlap
     ethr =  5.38E-05,  avg # of iterations =  6.8

     negative rho (up, down):  7.492E-01 0.000E+00
 
     Adding external electric field

     Computed dipole along edir(3) : 
        Dipole               -0.0264 Ry au,         -0.0672 Debye
        Dipole field         -0.0001 Ry au
 
        Potential amp.        0.0051 Ry
        Total length         46.5096 bohr
 

     total cpu time spent up to now is      614.3 secs

     total energy              =   -1198.11557310 Ry
     Harris-Foulkes estimate   =   -1198.11709964 Ry
     estimated scf accuracy    <       0.01536765 Ry

     iteration #  4     ecut=    36.75 Ry     beta=0.30
     Davidson diagonalization with overlap
     ethr =  1.06E-05,  avg # of iterations =  3.0

     negative rho (up, down):  7.491E-01 0.000E+00
 
     Adding external electric field

     Computed dipole along edir(3) : 
        Dipole               -0.0143 Ry au,         -0.0364 Debye
        Dipole field         -0.0000 Ry au
 
        Potential amp.        0.0028 Ry
        Total length         46.5096 bohr
 

     total cpu time spent up to now is      635.4 secs

     total energy              =   -1198.11632521 Ry
     Harris-Foulkes estimate   =   -1198.11644083 Ry
     estimated scf accuracy    <       0.00384158 Ry

     iteration #  5     ecut=    36.75 Ry     beta=0.30
     Davidson diagonalization with overlap
     ethr =  2.65E-06,  avg # of iterations =  3.2

     negative rho (up, down):  7.491E-01 0.000E+00
 
     Adding external electric field

     Computed dipole along edir(3) : 
        Dipole               -0.0110 Ry au,         -0.0280 Debye
        Dipole field         -0.0000 Ry au
 
        Potential amp.        0.0021 Ry
        Total length         46.5096 bohr
 

     total cpu time spent up to now is      656.7 secs

     total energy              =   -1198.11645822 Ry
     Harris-Foulkes estimate   =   -1198.11647062 Ry
     estimated scf accuracy    <       0.00032178 Ry

     iteration #  6     ecut=    36.75 Ry     beta=0.30
     Davidson diagonalization with overlap
     ethr =  2.22E-07,  avg # of iterations =  5.9

     negative rho (up, down):  7.491E-01 0.000E+00
 
     Adding external electric field

     Computed dipole along edir(3) : 
        Dipole               -0.0126 Ry au,         -0.0320 Debye
        Dipole field         -0.0000 Ry au
 
        Potential amp.        0.0024 Ry
        Total length         46.5096 bohr
 

     total cpu time spent up to now is      681.1 secs

     total energy              =   -1198.11649329 Ry
     Harris-Foulkes estimate   =   -1198.11649980 Ry
     estimated scf accuracy    <       0.00011491 Ry

     iteration #  7     ecut=    36.75 Ry     beta=0.30
     Davidson diagonalization with overlap
     ethr =  7.92E-08,  avg # of iterations =  2.5

     negative rho (up, down):  7.491E-01 0.000E+00
 
     Adding external electric field

     Computed dipole along edir(3) : 
        Dipole               -0.0156 Ry au,         -0.0396 Debye
        Dipole field         -0.0000 Ry au
 
        Potential amp.        0.0030 Ry
        Total length         46.5096 bohr
 

     total cpu time spent up to now is      701.5 secs

     total energy              =   -1198.11649011 Ry
     Harris-Foulkes estimate   =   -1198.11649617 Ry
     estimated scf accuracy    <       0.00005095 Ry

     iteration #  8     ecut=    36.75 Ry     beta=0.30
     Davidson diagonalization with overlap
     ethr =  3.51E-08,  avg # of iterations =  4.3

     negative rho (up, down):  7.491E-01 0.000E+00
 
     Adding external electric field

     Computed dipole along edir(3) : 
        Dipole               -0.0150 Ry au,         -0.0382 Debye
        Dipole field         -0.0000 Ry au
 
        Potential amp.        0.0029 Ry
        Total length         46.5096 bohr
 

     total cpu time spent up to now is      724.5 secs

     total energy              =   -1198.11649657 Ry
     Harris-Foulkes estimate   =   -1198.11649835 Ry
     estimated scf accuracy    <       0.00003050 Ry

     iteration #  9     ecut=    36.75 Ry     beta=0.30
     Davidson diagonalization with overlap
     ethr =  2.10E-08,  avg # of iterations =  1.0

     negative rho (up, down):  7.491E-01 0.000E+00
 
     Adding external electric field

     Computed dipole along edir(3) : 
        Dipole               -0.0136 Ry au,         -0.0346 Debye
        Dipole field         -0.0000 Ry au
 
        Potential amp.        0.0026 Ry
        Total length         46.5096 bohr
 

     total cpu time spent up to now is      743.8 secs

     total energy              =   -1198.11649561 Ry
     Harris-Foulkes estimate   =   -1198.11649724 Ry
     estimated scf accuracy    <       0.00001982 Ry

     iteration # 10     ecut=    36.75 Ry     beta=0.30
     Davidson diagonalization with overlap
     ethr =  1.37E-08,  avg # of iterations =  4.2

     negative rho (up, down):  7.491E-01 0.000E+00

     negative rho (up, down):  7.491E-01 0.000E+00

     negative rho (up, down):  7.491E-01 0.000E+00

     negative rho (up, down):  7.491E-01 0.000E+00

     negative rho (up, down):  7.491E-01 0.000E+00

     negative rho (up, down):  7.491E-01 0.000E+00

     negative rho (up, down):  7.491E-01 0.000E+00

     negative rho (up, down):  7.491E-01 0.000E+00

     negative rho (up, down):  7.491E-01 0.000E+00

     negative rho (up, down):  7.491E-01 0.000E+00

     negative rho (up, down):  7.491E-01 0.000E+00

     negative rho (up, down):  7.491E-01 0.000E+00

     negative rho (up, down):  7.491E-01 0.000E+00

     negative rho (up, down):  7.491E-01 0.000E+00

     negative rho (up, down):  7.491E-01 0.000E+00

     negative rho (up, down):  7.491E-01 0.000E+00

     negative rho (up, down):  7.491E-01 0.000E+00

     negative rho (up, down):  7.491E-01 0.000E+00

     negative rho (up, down):  7.491E-01 0.000E+00

     negative rho (up, down):  7.491E-01 0.000E+00

     negative rho (up, down):  7.491E-01 0.000E+00

     negative rho (up, down):  7.491E-01 0.000E+00

     negative rho (up, down):  7.491E-01 0.000E+00

     negative rho (up, down):  7.491E-01 0.000E+00

     negative rho (up, down):  7.491E-01 0.000E+00

     negative rho (up, down):  7.491E-01 0.000E+00

     negative rho (up, down):  7.491E-01 0.000E+00

     negative rho (up, down):  7.491E-01 0.000E+00

     negative rho (up, down):  7.491E-01 0.000E+00

     negative rho (up, down):  7.491E-01 0.000E+00

     negative rho (up, down):  7.491E-01 0.000E+00

     negative rho (up, down):  7.491E-01 0.000E+00

     negative rho (up, down):  7.491E-01 0.000E+00

     negative rho (up, down):  7.491E-01 0.000E+00

     negative rho (up, down):  7.491E-01 0.000E+00
 
     Adding external electric field

     Computed dipole along edir(3) : 
        Dipole               -0.0330 Ry au,         -0.0839 Debye
        Dipole field         -0.0001 Ry au
 
        Potential amp.        0.0063 Ry
        Total length         46.5096 bohr
 

     total cpu time spent up to now is      826.5 secs

     End of self-consistent calculation

          k = 0.0000 0.0000 0.0000 ( 22923 PWs)   bands (ev):

   -47.8661 -47.8580 -47.7805 -47.7706 -47.7705 -47.7698 -47.7697 -47.7693
   -47.5464 -47.4703 -47.4615 -47.4611 -26.1567 -26.1565 -26.1564 -26.1089
   -26.1085 -26.1084 -26.0685 -25.9830 -25.9809 -25.9808 -25.8803 -25.7815
   -25.7729 -25.7729 -25.6383 -25.6382 -25.6341 -25.6018 -25.6018 -25.6000
   -25.5855 -25.5855 -25.5832 -25.4309 -25.4309 -25.4249 -25.4249 -25.3830
   -25.3748 -25.3745 -25.3574 -25.2836 -25.2823 -25.2821 -25.1325 -25.1325
    -3.7964  -3.0529  -2.0235  -1.4578  -1.1483  -1.1483  -1.0491  -1.0263
    -1.0263  -0.8862  -0.5990  -0.5990  -0.4047  -0.3921  -0.3921  -0.1954
     0.4488   0.4488   0.7372   1.3179   1.5134   1.5938   1.5939   1.9622
     1.9966   2.1029   2.1030   2.1217   2.3138   2.3138   2.4279   2.5648
     2.5666   2.5814

          k = 0.0000 0.0300 0.0000 ( 22902 PWs)   bands (ev):

   -47.8600 -47.8522 -47.7834 -47.7759 -47.7734 -47.7706 -47.7697 -47.7695
   -47.5410 -47.4730 -47.4641 -47.4613 -26.1315 -26.1315 -26.1143 -26.0842
   -26.0841 -26.0654 -26.0540 -25.9655 -25.9635 -25.9584 -25.8764 -25.7976
   -25.7846 -25.7798 -25.6325 -25.6293 -25.6252 -25.6230 -25.6210 -25.6152
   -25.6135 -25.5899 -25.5742 -25.4861 -25.4775 -25.4425 -25.4358 -25.3778
   -25.3703 -25.3689 -25.3455 -25.3075 -25.3073 -25.2728 -25.1776 -25.1427
    -3.6373  -2.9206  -1.8788  -1.2895  -1.1401  -1.0304  -1.0107  -0.9239
    -0.8923  -0.7676  -0.4685  -0.4028  -0.2955  -0.2769  -0.2721  -0.0827
     0.4906   0.5015   0.7377   1.2844   1.4767   1.5719   1.6175   1.7871
     1.9091   1.9240   1.9472   1.9567   2.1618   2.2539   2.4059   2.4321
     2.4427   2.4775

          k = 0.0000 0.0599 0.0000 ( 22852 PWs)   bands (ev):

   -47.8434 -47.8363 -47.7976 -47.7922 -47.7759 -47.7706 -47.7698 -47.7696
   -47.5264 -47.4856 -47.4662 -47.4613 -26.0702 -26.0699 -26.0249 -26.0247
   -26.0160 -26.0051 -25.9462 -25.9257 -25.9240 -25.9142 -25.8681 -25.8344
   -25.8067 -25.7999 -25.6915 -25.6905 -25.6895 -25.6846 -25.6234 -25.6052
   -25.5961 -25.5906 -25.5613 -25.5593 -25.5454 -25.4740 -25.4653 -25.3795
   -25.3775 -25.3607 -25.3564 -25.3507 -25.3398 -25.2958 -25.2458 -25.1702
    -3.2602  -2.5713  -1.5358  -1.4153  -0.9355  -0.7660  -0.6838  -0.6466
    -0.5498  -0.4925  -0.2062   0.0128   0.0680   0.0723   0.1082   0.2686
     0.5810   0.6215   0.7682   1.0337   1.2469   1.3118   1.3146   1.3501
     1.5132   1.7048   1.7093   1.7902   1.8764   1.8943   1.9321   2.0058
     2.0500   2.0542

          k = 0.0000-0.0899 0.0000 ( 22880 PWs)   bands (ev):

   -47.8241 -47.8172 -47.8147 -47.8134 -47.7763 -47.7706 -47.7698 -47.7696
   -47.5095 -47.5023 -47.4666 -47.4613 -26.0279 -26.0275 -25.9860 -25.9850
   -25.9735 -25.9651 -25.8964 -25.8960 -25.8722 -25.8646 -25.8320 -25.8218
   -25.7908 -25.7865 -25.7801 -25.7723 -25.7338 -25.7315 -25.7284 -25.7224
   -25.5711 -25.5641 -25.5196 -25.5153 -25.5080 -25.5020 -25.4474 -25.4424
   -25.4148 -25.4111 -25.3629 -25.3529 -25.3463 -25.3429 -25.2133 -25.2030
    -3.0358  -2.1011  -1.9659  -1.1683  -0.9232  -0.4531  -0.4509  -0.3675
    -0.3399  -0.3174  -0.1699   0.3797   0.3974   0.4574   0.4595   0.4871
     0.5564   0.8614   0.8807   0.9073   0.9396   0.9564   1.0213   1.2254
     1.2359   1.2516   1.4302   1.4816   1.4909   1.4974   1.6848   1.7084
     1.9364   2.0678

          k = 0.0260-0.0150 0.0000 ( 22902 PWs)   bands (ev):

   -47.8600 -47.8522 -47.7835 -47.7759 -47.7734 -47.7706 -47.7697 -47.7696
   -47.5410 -47.4730 -47.4639 -47.4614 -26.1315 -26.1315 -26.1143 -26.0842
   -26.0841 -26.0654 -26.0540 -25.9655 -25.9635 -25.9585 -25.8764 -25.7976
   -25.7846 -25.7798 -25.6325 -25.6293 -25.6252 -25.6231 -25.6210 -25.6152
   -25.6135 -25.5899 -25.5742 -25.4861 -25.4775 -25.4425 -25.4358 -25.3777
   -25.3704 -25.3688 -25.3455 -25.3075 -25.3072 -25.2727 -25.1776 -25.1427
    -3.6373  -2.9206  -1.8788  -1.2895  -1.1401  -1.0304  -1.0107  -0.9239
    -0.8923  -0.7676  -0.4685  -0.4028  -0.2955  -0.2770  -0.2721  -0.0827
     0.4906   0.5015   0.7377   1.2844   1.4767   1.5719   1.6175   1.7871
     1.9091   1.9240   1.9472   1.9567   2.1618   2.2539   2.4058   2.4321
     2.4427   2.4775

          k = 0.0260 0.0150 0.0000 ( 22902 PWs)   bands (ev):

   -47.8600 -47.8522 -47.7834 -47.7759 -47.7736 -47.7705 -47.7698 -47.7694
   -47.5410 -47.4729 -47.4644 -47.4611 -26.1315 -26.1315 -26.1143 -26.0842
   -26.0841 -26.0654 -26.0540 -25.9655 -25.9636 -25.9584 -25.8764 -25.7976
   -25.7846 -25.7798 -25.6325 -25.6294 -25.6252 -25.6230 -25.6210 -25.6152
   -25.6135 -25.5899 -25.5742 -25.4861 -25.4775 -25.4425 -25.4358 -25.3778
   -25.3701 -25.3690 -25.3455 -25.3074 -25.3074 -25.2728 -25.1776 -25.1426
    -3.6373  -2.9206  -1.8788  -1.2895  -1.1400  -1.0304  -1.0107  -0.9239
    -0.8923  -0.7675  -0.4685  -0.4028  -0.2955  -0.2769  -0.2721  -0.0827
     0.4906   0.5015   0.7377   1.2844   1.4767   1.5719   1.6175   1.7871
     1.9091   1.9240   1.9472   1.9568   2.1618   2.2539   2.4060   2.4320
     2.4427   2.4774

          k = 0.0260 0.0450 0.0000 ( 22896 PWs)   bands (ev):

   -47.8487 -47.8413 -47.7895 -47.7822 -47.7812 -47.7805 -47.7674 -47.7645
   -47.5310 -47.4783 -47.4717 -47.4585 -26.0982 -26.0584 -26.0562 -26.0533
   -26.0279 -26.0060 -26.0051 -25.9378 -25.9313 -25.9272 -25.8703 -25.8199
   -25.8149 -25.7851 -25.7085 -25.7067 -25.6114 -25.6106 -25.6082 -25.5974
   -25.5961 -25.5824 -25.5799 -25.5772 -25.5614 -25.4653 -25.4614 -25.3834
   -25.3725 -25.3644 -25.3590 -25.3396 -25.2875 -25.2842 -25.2557 -25.1645
    -3.3652  -2.6795  -1.6136  -1.1235  -1.1163  -0.9718  -0.8577  -0.7587
    -0.6065  -0.4805  -0.2329  -0.1131  -0.0836  -0.0612  -0.0126   0.1599
     0.5664   0.5833   0.7350   1.1722   1.3042   1.3591   1.4183   1.5544
     1.5697   1.7456   1.7919   1.8570   1.9531   1.9886   2.1011   2.1076
     2.1125   2.2419

          k = 0.0260-0.1049 0.0000 ( 22856 PWs)   bands (ev):

   -47.8294 -47.8225 -47.8056 -47.8003 -47.7878 -47.7840 -47.7647 -47.7615
   -47.5140 -47.4926 -47.4769 -47.4561 -26.0322 -25.9991 -25.9927 -25.9835
   -25.9617 -25.9424 -25.8984 -25.8955 -25.8882 -25.8687 -25.8624 -25.8415
   -25.8374 -25.8273 -25.7955 -25.7827 -25.7234 -25.7049 -25.6436 -25.6384
   -25.5773 -25.5649 -25.5542 -25.5435 -25.5105 -25.5050 -25.5022 -25.4623
   -25.3816 -25.3701 -25.3620 -25.3483 -25.3401 -25.3176 -25.2485 -25.2033
    -3.0488  -2.2285  -1.6060  -1.1713  -1.0021  -0.7894  -0.5127  -0.3682
    -0.2859  -0.0930  -0.0137   0.2772   0.2997   0.3377   0.3912   0.4342
     0.6649   0.7654   0.8165   0.8594   0.9919   1.0489   1.1177   1.1325
     1.1461   1.2939   1.4380   1.4963   1.5653   1.6262   1.6439   1.6685
     1.7574   2.0621

          k = 0.0260-0.0749 0.0000 ( 22856 PWs)   bands (ev):

   -47.8294 -47.8225 -47.8056 -47.8003 -47.7877 -47.7840 -47.7647 -47.7615
   -47.5139 -47.4927 -47.4768 -47.4561 -26.0322 -25.9990 -25.9927 -25.9836
   -25.9617 -25.9424 -25.8984 -25.8955 -25.8882 -25.8687 -25.8624 -25.8415
   -25.8375 -25.8273 -25.7955 -25.7827 -25.7234 -25.7049 -25.6436 -25.6384
   -25.5773 -25.5649 -25.5542 -25.5435 -25.5105 -25.5050 -25.5022 -25.4624
   -25.3815 -25.3701 -25.3621 -25.3482 -25.3402 -25.3176 -25.2485 -25.2033
    -3.0488  -2.2285  -1.6060  -1.1713  -1.0021  -0.7894  -0.5127  -0.3682
    -0.2859  -0.0930  -0.0137   0.2772   0.2998   0.3377   0.3912   0.4342
     0.6649   0.7654   0.8165   0.8594   0.9919   1.0489   1.1177   1.1325
     1.1461   1.2939   1.4381   1.4963   1.5653   1.6262   1.6439   1.6686
     1.7574   2.0621

          k = 0.0260-0.0450 0.0000 ( 22896 PWs)   bands (ev):

   -47.8487 -47.8413 -47.7896 -47.7820 -47.7814 -47.7803 -47.7674 -47.7645
   -47.5310 -47.4785 -47.4714 -47.4586 -26.0982 -26.0584 -26.0562 -26.0533
   -26.0279 -26.0060 -26.0051 -25.9379 -25.9312 -25.9273 -25.8703 -25.8198
   -25.8149 -25.7851 -25.7085 -25.7067 -25.6114 -25.6106 -25.6082 -25.5974
   -25.5961 -25.5824 -25.5798 -25.5772 -25.5614 -25.4653 -25.4614 -25.3834
   -25.3724 -25.3647 -25.3588 -25.3396 -25.2874 -25.2843 -25.2557 -25.1645
    -3.3652  -2.6795  -1.6136  -1.1235  -1.1163  -0.9718  -0.8577  -0.7587
    -0.6066  -0.4805  -0.2329  -0.1131  -0.0835  -0.0612  -0.0126   0.1598
     0.5664   0.5833   0.7350   1.1722   1.3041   1.3592   1.4183   1.5544
     1.5697   1.7456   1.7918   1.8570   1.9531   1.9887   2.1011   2.1076
     2.1125   2.2419

          k = 0.0519-0.0300 0.0000 ( 22852 PWs)   bands (ev):

   -47.8434 -47.8363 -47.7976 -47.7922 -47.7758 -47.7706 -47.7697 -47.7696
   -47.5264 -47.4857 -47.4660 -47.4615 -26.0702 -26.0699 -26.0248 -26.0247
   -26.0160 -26.0051 -25.9462 -25.9257 -25.9239 -25.9142 -25.8681 -25.8344
   -25.8067 -25.7999 -25.6915 -25.6905 -25.6895 -25.6846 -25.6234 -25.6052
   -25.5961 -25.5906 -25.5612 -25.5593 -25.5454 -25.4740 -25.4653 -25.3796
   -25.3774 -25.3606 -25.3563 -25.3508 -25.3398 -25.2958 -25.2458 -25.1702
    -3.2602  -2.5713  -1.5358  -1.4153  -0.9355  -0.7660  -0.6838  -0.6466
    -0.5498  -0.4925  -0.2062   0.0128   0.0680   0.0723   0.1082   0.2686
     0.5810   0.6215   0.7682   1.0337   1.2469   1.3118   1.3146   1.3500
     1.5132   1.7048   1.7093   1.7902   1.8765   1.8943   1.9321   2.0059
     2.0500   2.0541

          k = 0.0519 0.0000 0.0000 ( 22896 PWs)   bands (ev):

   -47.8487 -47.8413 -47.7895 -47.7821 -47.7812 -47.7805 -47.7674 -47.7645
   -47.5310 -47.4784 -47.4716 -47.4585 -26.0982 -26.0584 -26.0562 -26.0533
   -26.0279 -26.0060 -26.0051 -25.9378 -25.9312 -25.9272 -25.8703 -25.8198
   -25.8149 -25.7851 -25.7085 -25.7067 -25.6114 -25.6106 -25.6082 -25.5974
   -25.5961 -25.5824 -25.5799 -25.5772 -25.5614 -25.4653 -25.4614 -25.3834
   -25.3724 -25.3645 -25.3589 -25.3396 -25.2874 -25.2842 -25.2557 -25.1645
    -3.3652  -2.6795  -1.6136  -1.1235  -1.1163  -0.9718  -0.8577  -0.7587
    -0.6065  -0.4805  -0.2329  -0.1131  -0.0836  -0.0612  -0.0126   0.1598
     0.5664   0.5833   0.7350   1.1722   1.3041   1.3591   1.4183   1.5544
     1.5697   1.7456   1.7918   1.8570   1.9531   1.9886   2.1011   2.1076
     2.1125   2.2419

          k = 0.0519 0.0300 0.0000 ( 22852 PWs)   bands (ev):

   -47.8434 -47.8363 -47.7976 -47.7922 -47.7761 -47.7706 -47.7698 -47.7694
   -47.5264 -47.4855 -47.4665 -47.4611 -26.0702 -26.0699 -26.0249 -26.0247
   -26.0160 -26.0050 -25.9462 -25.9256 -25.9240 -25.9142 -25.8680 -25.8344
   -25.8067 -25.7998 -25.6915 -25.6906 -25.6895 -25.6846 -25.6234 -25.6052
   -25.5962 -25.5905 -25.5613 -25.5593 -25.5455 -25.4740 -25.4653 -25.3793
   -25.3775 -25.3608 -25.3565 -25.3505 -25.3397 -25.2958 -25.2458 -25.1702
    -3.2602  -2.5713  -1.5358  -1.4153  -0.9354  -0.7660  -0.6838  -0.6466
    -0.5499  -0.4925  -0.2062   0.0128   0.0681   0.0723   0.1082   0.2686
     0.5810   0.6215   0.7682   1.0337   1.2469   1.3118   1.3146   1.3501
     1.5133   1.7048   1.7093   1.7902   1.8764   1.8943   1.9321   2.0058
     2.0500   2.0542

          k = 0.0519-0.1199 0.0000 ( 22856 PWs)   bands (ev):

   -47.8294 -47.8225 -47.8055 -47.8003 -47.7878 -47.7840 -47.7647 -47.7615
   -47.5140 -47.4926 -47.4770 -47.4561 -26.0322 -25.9991 -25.9928 -25.9836
   -25.9617 -25.9424 -25.8984 -25.8955 -25.8882 -25.8687 -25.8624 -25.8415
   -25.8374 -25.8273 -25.7955 -25.7827 -25.7234 -25.7049 -25.6436 -25.6384
   -25.5773 -25.5649 -25.5542 -25.5435 -25.5105 -25.5050 -25.5021 -25.4623
   -25.3816 -25.3701 -25.3619 -25.3484 -25.3401 -25.3176 -25.2485 -25.2033
    -3.0488  -2.2285  -1.6061  -1.1713  -1.0021  -0.7894  -0.5127  -0.3682
    -0.2859  -0.0930  -0.0137   0.2772   0.2997   0.3376   0.3911   0.4342
     0.6649   0.7654   0.8165   0.8594   0.9919   1.0489   1.1177   1.1325
     1.1461   1.2939   1.4381   1.4963   1.5653   1.6262   1.6439   1.6685
     1.7574   2.0621

          k = 0.0519-0.0899 0.0000 ( 22914 PWs)   bands (ev):

   -47.8156 -47.8074 -47.8043 -47.8037 -47.8033 -47.8012 -47.7618 -47.7584
   -47.5021 -47.4923 -47.4918 -47.4535 -25.9689 -25.9568 -25.9555 -25.9476
   -25.9251 -25.9220 -25.9065 -25.8765 -25.8686 -25.8652 -25.8345 -25.8322
   -25.8277 -25.8272 -25.8260 -25.8245 -25.8233 -25.8185 -25.5800 -25.5800
   -25.5763 -25.5716 -25.5712 -25.5680 -25.5357 -25.5346 -25.4692 -25.4687
   -25.4670 -25.3725 -25.3527 -25.3443 -25.3438 -25.2648 -25.2646 -25.2530
    -2.9495  -1.6762  -1.6585  -1.5752  -0.7730  -0.7564  -0.5870   0.0828
     0.0831   0.1498   0.1499   0.1630   0.2963   0.5940   0.6129   0.6659
     0.7302   0.7329   0.7346   0.7350   0.7412   0.7430   0.7484   1.0730
     1.2092   1.2282   1.2411   1.3099   1.3344   1.3788   1.4933   1.5805
     1.5808   1.6935

          k = 0.0519-0.0599 0.0000 ( 22856 PWs)   bands (ev):

   -47.8293 -47.8225 -47.8056 -47.8003 -47.7877 -47.7840 -47.7647 -47.7615
   -47.5139 -47.4928 -47.4768 -47.4561 -26.0322 -25.9991 -25.9927 -25.9836
   -25.9617 -25.9424 -25.8984 -25.8955 -25.8882 -25.8687 -25.8624 -25.8415
   -25.8375 -25.8273 -25.7955 -25.7827 -25.7234 -25.7049 -25.6436 -25.6384
   -25.5772 -25.5649 -25.5542 -25.5436 -25.5105 -25.5050 -25.5022 -25.4624
   -25.3815 -25.3701 -25.3621 -25.3482 -25.3402 -25.3176 -25.2484 -25.2033
    -3.0488  -2.2285  -1.6060  -1.1713  -1.0021  -0.7894  -0.5127  -0.3682
    -0.2860  -0.0930  -0.0137   0.2772   0.2997   0.3377   0.3912   0.4342
     0.6649   0.7654   0.8165   0.8595   0.9919   1.0490   1.1177   1.1325
     1.1461   1.2939   1.4381   1.4963   1.5653   1.6262   1.6439   1.6686
     1.7574   2.0621

          k =-0.0779 0.0450 0.0000 ( 22880 PWs)   bands (ev):

   -47.8241 -47.8172 -47.8147 -47.8134 -47.7762 -47.7707 -47.7697 -47.7696
   -47.5093 -47.5024 -47.4664 -47.4615 -26.0279 -26.0275 -25.9860 -25.9849
   -25.9735 -25.9651 -25.8963 -25.8961 -25.8722 -25.8646 -25.8320 -25.8218
   -25.7908 -25.7864 -25.7801 -25.7723 -25.7338 -25.7316 -25.7284 -25.7224
   -25.5710 -25.5642 -25.5196 -25.5153 -25.5080 -25.5020 -25.4473 -25.4425
   -25.4150 -25.4109 -25.3628 -25.3531 -25.3462 -25.3430 -25.2131 -25.2032
    -3.0358  -2.1011  -1.9658  -1.1683  -0.9232  -0.4530  -0.4509  -0.3675
    -0.3398  -0.3175  -0.1699   0.3797   0.3974   0.4574   0.4595   0.4871
     0.5565   0.8614   0.8807   0.9073   0.9396   0.9563   1.0214   1.2254
     1.2359   1.2517   1.4301   1.4816   1.4909   1.4974   1.6848   1.7084
     1.9364   2.0678

          k =-0.0779 0.0749 0.0000 ( 22856 PWs)   bands (ev):

   -47.8294 -47.8225 -47.8056 -47.8003 -47.7877 -47.7840 -47.7647 -47.7615
   -47.5139 -47.4927 -47.4768 -47.4561 -26.0322 -25.9991 -25.9927 -25.9835
   -25.9617 -25.9424 -25.8984 -25.8955 -25.8882 -25.8687 -25.8624 -25.8415
   -25.8374 -25.8273 -25.7955 -25.7827 -25.7234 -25.7049 -25.6436 -25.6384
   -25.5772 -25.5649 -25.5542 -25.5435 -25.5105 -25.5050 -25.5022 -25.4624
   -25.3816 -25.3701 -25.3621 -25.3482 -25.3402 -25.3176 -25.2484 -25.2033
    -3.0488  -2.2285  -1.6060  -1.1713  -1.0021  -0.7894  -0.5127  -0.3682
    -0.2860  -0.0930  -0.0137   0.2772   0.2997   0.3377   0.3912   0.4342
     0.6649   0.7654   0.8165   0.8594   0.9919   1.0490   1.1177   1.1325
     1.1461   1.2939   1.4380   1.4963   1.5653   1.6262   1.6439   1.6685
     1.7574   2.0621

          k =-0.0779 0.1049 0.0000 ( 22856 PWs)   bands (ev):

   -47.8294 -47.8225 -47.8055 -47.8003 -47.7878 -47.7840 -47.7647 -47.7615
   -47.5140 -47.4926 -47.4770 -47.4561 -26.0322 -25.9990 -25.9928 -25.9836
   -25.9617 -25.9424 -25.8984 -25.8955 -25.8882 -25.8687 -25.8624 -25.8415
   -25.8375 -25.8273 -25.7955 -25.7827 -25.7234 -25.7049 -25.6436 -25.6384
   -25.5773 -25.5649 -25.5542 -25.5435 -25.5105 -25.5050 -25.5021 -25.4624
   -25.3815 -25.3701 -25.3620 -25.3484 -25.3401 -25.3176 -25.2485 -25.2033
    -3.0488  -2.2285  -1.6061  -1.1713  -1.0021  -0.7894  -0.5127  -0.3682
    -0.2859  -0.0930  -0.0137   0.2772   0.2998   0.3376   0.3911   0.4342
     0.6649   0.7654   0.8165   0.8594   0.9919   1.0489   1.1177   1.1325
     1.1461   1.2939   1.4381   1.4963   1.5653   1.6262   1.6439   1.6685
     1.7574   2.0621

          k =-0.0779-0.0450 0.0000 ( 22880 PWs)   bands (ev):

   -47.8242 -47.8171 -47.8148 -47.8133 -47.7765 -47.7706 -47.7698 -47.7695
   -47.5096 -47.5021 -47.4669 -47.4611 -26.0279 -26.0275 -25.9860 -25.9850
   -25.9736 -25.9650 -25.8964 -25.8959 -25.8723 -25.8645 -25.8320 -25.8217
   -25.7908 -25.7865 -25.7801 -25.7723 -25.7338 -25.7314 -25.7285 -25.7223
   -25.5712 -25.5640 -25.5197 -25.5153 -25.5080 -25.5019 -25.4475 -25.4422
   -25.4146 -25.4114 -25.3630 -25.3528 -25.3466 -25.3427 -25.2135 -25.2028
    -3.0358  -2.1010  -1.9659  -1.1683  -0.9232  -0.4531  -0.4508  -0.3675
    -0.3399  -0.3174  -0.1699   0.3796   0.3974   0.4574   0.4595   0.4872
     0.5564   0.8615   0.8807   0.9072   0.9396   0.9564   1.0213   1.2254
     1.2359   1.2516   1.4302   1.4816   1.4908   1.4974   1.6849   1.7084
     1.9363   2.0678

     the Fermi energy is     1.4172 ev

!    total energy              =   -1198.11649277 Ry
     Harris-Foulkes estimate   =   -1198.11649607 Ry
     estimated scf accuracy    <       0.00000564 Ry

     The total energy is the sum of the following terms:

     one-electron contribution =   -8238.22775878 Ry
     hartree contribution      =    4109.79270133 Ry
     xc contribution           =    -221.19693188 Ry
     ewald contribution        =    3151.63366898 Ry
     electric field correction =       0.00000225 Ry
     smearing contrib. (-TS)   =      -0.11817467 Ry

     convergence has been achieved in  10 iterations
 
 BEEF-vdW xc energy contributions
           1 :   -189.479639867995     
           2 :    171.520351419847     
           3 :   -141.227217944519     
           4 :    107.133106765691     
           5 :   -76.9800658180230     
           6 :    54.9713521174517     
           7 :   -41.0860978324039     
           8 :    32.4019011436548     
           9 :   -25.3830136632462     
          10 :    17.8173204794356     
          11 :   -9.53987863023355     
          12 :    1.87782358463343     
          13 :    3.58751718695234     
          14 :   -6.12417477808236     
          15 :    6.23879580172050     
          16 :   -5.26485701508668     
          17 :    4.52145350286426     
          18 :   -4.60418831878704     
          19 :    5.21659324572414     
          20 :   -5.57150628958149     
          21 :    5.03663599327726     
          22 :   -3.58507193158388     
          23 :    1.78735578680087     
          24 :  -0.407800326028536     
          25 :  -8.536866246319619E-002
          26 :  -0.228427416218238     
          27 :   0.839448342607312     
          28 :   -1.17622174634823     
          29 :   0.966716042184856     
          30 :  -0.368642189127144     
          31 :   -21.9356055735483     
          32 :   -16.3519907587382     

     Forces acting on atoms (Ry/au):


     negative rho (up, down):  7.491E-01 0.000E+00
     atom    1 type  1   force =     0.00056034    0.00033718    0.01442495
     atom    2 type  1   force =    -0.00056107    0.00030062    0.01446230
     atom    3 type  1   force =    -0.00003123   -0.00064280    0.01444376
     atom    4 type  1   force =     0.00003660    0.00000574    0.01434278
     atom    5 type  1   force =    -0.00001283    0.00356877   -0.00177142
     atom    6 type  1   force =     0.00000625   -0.00000014   -0.00279972
     atom    7 type  1   force =    -0.00308749   -0.00177839   -0.00180100
     atom    8 type  1   force =     0.00308588   -0.00179280   -0.00176339
     atom    9 type  1   force =    -0.00002627   -0.00000130   -0.02035896
     atom   10 type  1   force =     0.00002678    0.01559612   -0.00126005
     atom   11 type  1   force =     0.01350642   -0.00778136   -0.00127713
     atom   12 type  1   force =    -0.01350639   -0.00781215   -0.00123883
     atom   13 type  2   force =     0.00000300    0.00000052   -0.02540328

     Total force =     0.042358     Total SCF correction =     0.008121
     SCF correction compared to forces is large: reduce conv_thr to get better values


     entering subroutine stress ...


     negative rho (up, down):  7.491E-01 0.000E+00
          total   stress  (Ry/bohr**3)                   (kbar)     P=  -13.33
  -0.00008625  -0.00000000  -0.00000000        -12.69     -0.00     -0.00
  -0.00000000  -0.00008625   0.00000000         -0.00    -12.69      0.00
  -0.00000000   0.00000000  -0.00009929         -0.00      0.00    -14.61


     number of scf cycles    =   2
     number of bfgs steps    =   1

     energy   old            =   -1198.1144846302 Ry
     energy   new            =   -1198.1164927746 Ry

     CASE: energy  _new < energy  _old


     WARNING: bfgs curvature condition failed, Theta= 0.861
     new trust radius        =       0.0390698941 bohr
     new conv_thr            =       0.0000001000 Ry


ATOMIC_POSITIONS (crystal)
Zr1      0.166666667   0.166666667   0.396150897    0   0   0
Zr1      0.666666667   0.166666667   0.396150897    0   0   0
Zr1      0.166666667   0.666666667   0.396150897    0   0   0
Zr1      0.666666667   0.666666667   0.396150897    0   0   0
Zr1      0.833333333   0.333333333   0.500000000    0   0   0
Zr1      0.333333333   0.333333333   0.500000000    0   0   0
Zr1      0.833333333   0.833333333   0.500000000    0   0   0
Zr1      0.333333333   0.833333333   0.500000000    0   0   0
Zr1      0.000001907   0.000000046   0.602733881
Zr1      0.497985849   0.004022685   0.603804392
Zr1      0.004024344   0.497986513   0.603804547
Zr1      0.497987833   0.497990397   0.603804167
H1       0.333333771   0.333333469   0.655528645



     Writing output data file calc.save
     Check: negative starting charge=   -0.729502
     NEW-OLD atomic charge density approx. for the potential
     Check: negative starting charge=   -0.729426

     negative rho (up, down):  7.490E-01 0.000E+00
 
     Adding external electric field

     Computed dipole along edir(3) : 
        Dipole               -0.0331 Ry au,         -0.0841 Debye
        Dipole field         -0.0001 Ry au
 
        Potential amp.        0.0064 Ry
        Total length         46.5096 bohr
 

     total cpu time spent up to now is      904.1 secs

     per-process dynamical memory:    89.6 Mb

     Self-consistent Calculation

     iteration #  1     ecut=    36.75 Ry     beta=0.30
     Davidson diagonalization with overlap
     ethr =  1.00E-06,  avg # of iterations = 10.5

     negative rho (up, down):  7.490E-01 0.000E+00
 
     Adding external electric field

     Computed dipole along edir(3) : 
        Dipole                0.6169 Ry au,          1.5680 Debye
        Dipole field          0.0013 Ry au
 
        Potential amp.       -0.1185 Ry
        Total length         46.5096 bohr
 

     total cpu time spent up to now is      937.9 secs

     total energy              =   -1198.10229419 Ry
     Harris-Foulkes estimate   =   -1198.11881917 Ry
     estimated scf accuracy    <       0.03462686 Ry

     iteration #  2     ecut=    36.75 Ry     beta=0.30
     Davidson diagonalization with overlap
     ethr =  2.39E-05,  avg # of iterations =  8.4

     negative rho (up, down):  7.491E-01 0.000E+00
 
     Adding external electric field

     Computed dipole along edir(3) : 
        Dipole                0.0037 Ry au,          0.0094 Debye
        Dipole field          0.0000 Ry au
 
        Potential amp.       -0.0007 Ry
        Total length         46.5096 bohr
 

     total cpu time spent up to now is      967.6 secs

     total energy              =   -1197.88063523 Ry
     Harris-Foulkes estimate   =   -1198.40048567 Ry
     estimated scf accuracy    <      24.99529029 Ry

     iteration #  3     ecut=    36.75 Ry     beta=0.30
     Davidson diagonalization with overlap
     ethr =  2.39E-05,  avg # of iterations =  6.5

     negative rho (up, down):  7.491E-01 0.000E+00
 
     Adding external electric field

     Computed dipole along edir(3) : 
        Dipole                0.0035 Ry au,          0.0088 Debye
        Dipole field          0.0000 Ry au
 
        Potential amp.       -0.0007 Ry
        Total length         46.5096 bohr
 

     total cpu time spent up to now is      994.3 secs

     total energy              =   -1198.11817278 Ry
     Harris-Foulkes estimate   =   -1198.11957169 Ry
     estimated scf accuracy    <       0.01164968 Ry

     iteration #  4     ecut=    36.75 Ry     beta=0.30
     Davidson diagonalization with overlap
     ethr =  8.03E-06,  avg # of iterations =  3.1

     negative rho (up, down):  7.490E-01 0.000E+00
 
     Adding external electric field

     Computed dipole along edir(3) : 
        Dipole               -0.0092 Ry au,         -0.0233 Debye
        Dipole field         -0.0000 Ry au
 
        Potential amp.        0.0018 Ry
        Total length         46.5096 bohr
 

     total cpu time spent up to now is     1015.6 secs

     total energy              =   -1198.11894367 Ry
     Harris-Foulkes estimate   =   -1198.11911312 Ry
     estimated scf accuracy    <       0.00219563 Ry

     iteration #  5     ecut=    36.75 Ry     beta=0.30
     Davidson diagonalization with overlap
     ethr =  1.51E-06,  avg # of iterations =  2.9

     negative rho (up, down):  7.490E-01 0.000E+00
 
     Adding external electric field

     Computed dipole along edir(3) : 
        Dipole               -0.0089 Ry au,         -0.0226 Debye
        Dipole field         -0.0000 Ry au
 
[...]
     1.7881   2.0944

          k = 0.0260-0.0749 0.0000 ( 22856 PWs)   bands (ev):

   -47.7958 -47.7733 -47.7664 -47.7568 -47.7358 -47.7342 -47.7160 -47.6624
   -47.4293 -47.4094 -47.3948 -47.3747 -26.0111 -25.9809 -25.9625 -25.9542
   -25.9380 -25.9051 -25.8670 -25.8642 -25.8559 -25.8328 -25.8313 -25.8055
   -25.7985 -25.7899 -25.7572 -25.7328 -25.6876 -25.6518 -25.6088 -25.5815
   -25.5296 -25.5021 -25.4891 -25.4797 -25.4524 -25.4436 -25.4135 -25.3746
   -25.2979 -25.2842 -25.2750 -25.2591 -25.2437 -25.2297 -25.1672 -25.1234
    -3.4899  -2.2408  -1.5963  -1.1535  -0.9982  -0.7857  -0.5189  -0.3638
    -0.3233  -0.1177  -0.0031   0.2440   0.2725   0.3082   0.3795   0.4457
     0.6694   0.7400   0.8002   0.8581   0.9776   1.0618   1.1313   1.1614
     1.1724   1.2955   1.4320   1.5192   1.5940   1.6535   1.6856   1.7202
     1.7881   2.0944

          k = 0.0260-0.0450 0.0000 ( 22896 PWs)   bands (ev):

   -47.8152 -47.7817 -47.7540 -47.7536 -47.7372 -47.7239 -47.7139 -47.6610
   -47.4464 -47.3924 -47.3918 -47.3774 -26.0742 -26.0407 -26.0258 -26.0134
   -26.0091 -25.9707 -25.9604 -25.9065 -25.9026 -25.8973 -25.8340 -25.7818
   -25.7753 -25.7477 -25.6779 -25.6535 -25.5732 -25.5706 -25.5533 -25.5447
   -25.5408 -25.5238 -25.5117 -25.4906 -25.4828 -25.4364 -25.3987 -25.2988
   -25.2853 -25.2767 -25.2719 -25.2425 -25.2071 -25.2005 -25.1738 -25.0851
    -3.7098  -2.7633  -1.6242  -1.1254  -1.1199  -0.9656  -0.8892  -0.7926
    -0.6037  -0.4879  -0.2295  -0.1219  -0.0876  -0.0774  -0.0200   0.1982
     0.5797   0.6101   0.7524   1.1585   1.3224   1.3678   1.4521   1.5254
     1.5910   1.7893   1.8141   1.8994   1.9790   2.0314   2.1207   2.1930
     2.2075   2.2847

          k = 0.0519-0.0300 0.0000 ( 22852 PWs)   bands (ev):

   -47.8100 -47.7773 -47.7650 -47.7427 -47.7422 -47.7290 -47.7125 -47.6618
   -47.4418 -47.4021 -47.3823 -47.3819 -26.0534 -26.0370 -26.0043 -25.9924
   -25.9778 -25.9759 -25.9096 -25.8947 -25.8931 -25.8837 -25.8325 -25.7950
   -25.7678 -25.7646 -25.6596 -25.6577 -25.6429 -25.6288 -25.5872 -25.5486
   -25.5279 -25.5183 -25.4953 -25.4866 -25.4671 -25.4437 -25.4032 -25.2963
   -25.2921 -25.2725 -25.2708 -25.2627 -25.2440 -25.2111 -25.1645 -25.0906
    -3.6364  -2.6330  -1.5323  -1.4130  -0.9400  -0.7710  -0.7178  -0.6573
    -0.5648  -0.4935  -0.1866  -0.0195   0.0509   0.0581   0.1076   0.3011
     0.5927   0.6454   0.7747   1.0293   1.2308   1.3092   1.3156   1.3934
     1.5130   1.7084   1.7154   1.8207   1.8907   1.9449   1.9898   2.0678
     2.1014   2.1272

          k = 0.0519 0.0000 0.0000 ( 22896 PWs)   bands (ev):

   -47.8152 -47.7817 -47.7540 -47.7536 -47.7372 -47.7239 -47.7139 -47.6610
   -47.4464 -47.3924 -47.3918 -47.3774 -26.0742 -26.0407 -26.0258 -26.0134
   -26.0091 -25.9707 -25.9604 -25.9065 -25.9026 -25.8973 -25.8340 -25.7818
   -25.7753 -25.7477 -25.6779 -25.6535 -25.5732 -25.5706 -25.5533 -25.5447
   -25.5408 -25.5238 -25.5117 -25.4906 -25.4828 -25.4364 -25.3987 -25.2988
   -25.2853 -25.2767 -25.2719 -25.2425 -25.2071 -25.2005 -25.1738 -25.0851
    -3.7098  -2.7633  -1.6242  -1.1254  -1.1199  -0.9656  -0.8892  -0.7926
    -0.6037  -0.4879  -0.2295  -0.1219  -0.0876  -0.0774  -0.0200   0.1982
     0.5797   0.6101   0.7524   1.1585   1.3224   1.3678   1.4521   1.5254
     1.5910   1.7893   1.8141   1.8994   1.9790   2.0314   2.1207   2.1930
     2.2074   2.2847

          k = 0.0519 0.0300 0.0000 ( 22852 PWs)   bands (ev):

   -47.8100 -47.7773 -47.7650 -47.7427 -47.7422 -47.7290 -47.7125 -47.6618
   -47.4418 -47.4021 -47.3823 -47.3819 -26.0534 -26.0370 -26.0043 -25.9924
   -25.9778 -25.9759 -25.9096 -25.8947 -25.8931 -25.8837 -25.8325 -25.7950
   -25.7678 -25.7646 -25.6596 -25.6577 -25.6429 -25.6288 -25.5872 -25.5486
   -25.5279 -25.5183 -25.4953 -25.4866 -25.4671 -25.4437 -25.4032 -25.2963
   -25.2921 -25.2725 -25.2708 -25.2627 -25.2440 -25.2111 -25.1645 -25.0906
    -3.6364  -2.6330  -1.5323  -1.4130  -0.9400  -0.7710  -0.7178  -0.6573
    -0.5648  -0.4935  -0.1866  -0.0195   0.0509   0.0581   0.1076   0.3011
     0.5927   0.6454   0.7746   1.0293   1.2308   1.3092   1.3156   1.3934
     1.5130   1.7084   1.7154   1.8207   1.8907   1.9449   1.9898   2.0678
     2.1014   2.1272

          k = 0.0519-0.1199 0.0000 ( 22856 PWs)   bands (ev):

   -47.7958 -47.7733 -47.7664 -47.7568 -47.7358 -47.7342 -47.7161 -47.6624
   -47.4293 -47.4094 -47.3948 -47.3747 -26.0111 -25.9809 -25.9625 -25.9542
   -25.9380 -25.9051 -25.8670 -25.8642 -25.8559 -25.8328 -25.8313 -25.8055
   -25.7985 -25.7899 -25.7572 -25.7328 -25.6876 -25.6518 -25.6088 -25.5815
   -25.5296 -25.5021 -25.4891 -25.4797 -25.4523 -25.4436 -25.4135 -25.3746
   -25.2979 -25.2842 -25.2750 -25.2591 -25.2437 -25.2297 -25.1672 -25.1234
    -3.4899  -2.2408  -1.5963  -1.1535  -0.9982  -0.7857  -0.5189  -0.3638
    -0.3233  -0.1177  -0.0031   0.2440   0.2725   0.3082   0.3795   0.4457
     0.6694   0.7400   0.8002   0.8581   0.9776   1.0618   1.1313   1.1614
     1.1724   1.2955   1.4320   1.5192   1.5940   1.6535   1.6856   1.7202
     1.7881   2.0944

          k = 0.0519-0.0899 0.0000 ( 22914 PWs)   bands (ev):

   -47.7766 -47.7765 -47.7759 -47.7589 -47.7389 -47.7312 -47.7207 -47.6622
   -47.4128 -47.4126 -47.4109 -47.3721 -25.9691 -25.9332 -25.9258 -25.9246
   -25.8977 -25.8800 -25.8784 -25.8424 -25.8351 -25.8319 -25.8005 -25.7994
   -25.7983 -25.7935 -25.7879 -25.7830 -25.7796 -25.7372 -25.5439 -25.5437
   -25.5412 -25.5218 -25.5157 -25.5082 -25.4606 -25.4340 -25.3919 -25.3766
   -25.3705 -25.2883 -25.2603 -25.2576 -25.2456 -25.1842 -25.1818 -25.1722
    -3.4180  -1.6627  -1.6462  -1.5715  -0.7429  -0.7354  -0.5881  -0.0499
     0.1091   0.1100   0.1439   0.1739   0.3020   0.5382   0.5868   0.6154
     0.6601   0.7122   0.7146   0.7182   0.7604   0.7980   0.8138   1.0677
     1.2074   1.2728   1.3047   1.3236   1.3802   1.3905   1.5230   1.6052
     1.6113   1.7285

          k = 0.0519-0.0599 0.0000 ( 22856 PWs)   bands (ev):

   -47.7958 -47.7733 -47.7664 -47.7568 -47.7358 -47.7342 -47.7160 -47.6624
   -47.4293 -47.4094 -47.3948 -47.3747 -26.0111 -25.9809 -25.9625 -25.9542
   -25.9380 -25.9051 -25.8670 -25.8642 -25.8559 -25.8328 -25.8313 -25.8055
   -25.7985 -25.7899 -25.7572 -25.7328 -25.6876 -25.6518 -25.6088 -25.5815
   -25.5296 -25.5021 -25.4891 -25.4797 -25.4524 -25.4436 -25.4135 -25.3746
   -25.2979 -25.2842 -25.2750 -25.2591 -25.2437 -25.2297 -25.1672 -25.1234
    -3.4899  -2.2408  -1.5963  -1.1535  -0.9982  -0.7857  -0.5189  -0.3638
    -0.3233  -0.1177  -0.0031   0.2440   0.2725   0.3082   0.3795   0.4457
     0.6694   0.7400   0.8002   0.8581   0.9776   1.0618   1.1313   1.1614
     1.1724   1.2955   1.4320   1.5192   1.5940   1.6535   1.6856   1.7202
     1.7881   2.0944

          k =-0.0779 0.0450 0.0000 ( 22880 PWs)   bands (ev):

   -47.7878 -47.7874 -47.7649 -47.7427 -47.7423 -47.7403 -47.7125 -47.6629
   -47.4228 -47.4213 -47.3823 -47.3819 -26.0144 -25.9935 -25.9648 -25.9501
   -25.9411 -25.9376 -25.8642 -25.8624 -25.8378 -25.8339 -25.7957 -25.7920
   -25.7733 -25.7539 -25.7501 -25.7025 -25.6971 -25.6915 -25.6849 -25.6492
   -25.4915 -25.4854 -25.4849 -25.4655 -25.4592 -25.4329 -25.3645 -25.3552
   -25.3332 -25.3268 -25.2725 -25.2685 -25.2553 -25.2408 -25.1322 -25.1232
    -3.4857  -2.0875  -1.9725  -1.1454  -0.9159  -0.4715  -0.4592  -0.3743
    -0.3653  -0.3117  -0.1659   0.3571   0.3672   0.4078   0.4300   0.4717
     0.5755   0.8347   0.8402   0.8995   0.9193   1.0021   1.0499   1.2580
     1.2585   1.2779   1.4585   1.4870   1.4939   1.5540   1.7077   1.7699
     1.9189   2.1229

          k =-0.0779 0.0749 0.0000 ( 22856 PWs)   bands (ev):

   -47.7958 -47.7733 -47.7664 -47.7568 -47.7358 -47.7342 -47.7160 -47.6624
   -47.4293 -47.4094 -47.3948 -47.3747 -26.0111 -25.9809 -25.9625 -25.9542
   -25.9381 -25.9051 -25.8670 -25.8642 -25.8559 -25.8328 -25.8313 -25.8055
   -25.7985 -25.7899 -25.7572 -25.7328 -25.6876 -25.6518 -25.6088 -25.5815
   -25.5296 -25.5021 -25.4891 -25.4797 -25.4524 -25.4436 -25.4135 -25.3746
   -25.2979 -25.2842 -25.2750 -25.2591 -25.2437 -25.2297 -25.1672 -25.1234
    -3.4899  -2.2408  -1.5963  -1.1535  -0.9982  -0.7857  -0.5189  -0.3638
    -0.3233  -0.1177  -0.0031   0.2440   0.2725   0.3082   0.3795   0.4457
     0.6694   0.7400   0.8002   0.8581   0.9776   1.0618   1.1313   1.1614
     1.1724   1.2955   1.4320   1.5192   1.5940   1.6535   1.6856   1.7202
     1.7881   2.0944

          k =-0.0779 0.1049 0.0000 ( 22856 PWs)   bands (ev):

   -47.7958 -47.7733 -47.7664 -47.7568 -47.7358 -47.7342 -47.7161 -47.6624
   -47.4293 -47.4094 -47.3948 -47.3747 -26.0111 -25.9809 -25.9625 -25.9542
   -25.9380 -25.9051 -25.8670 -25.8642 -25.8559 -25.8328 -25.8313 -25.8055
   -25.7985 -25.7899 -25.7572 -25.7328 -25.6876 -25.6518 -25.6088 -25.5815
   -25.5296 -25.5021 -25.4891 -25.4797 -25.4523 -25.4436 -25.4135 -25.3746
   -25.2979 -25.2842 -25.2750 -25.2591 -25.2437 -25.2297 -25.1672 -25.1234
    -3.4899  -2.2408  -1.5963  -1.1535  -0.9982  -0.7857  -0.5189  -0.3638
    -0.3233  -0.1177  -0.0031   0.2440   0.2725   0.3082   0.3795   0.4457
     0.6694   0.7400   0.8002   0.8581   0.9776   1.0618   1.1313   1.1614
     1.1724   1.2955   1.4320   1.5192   1.5940   1.6535   1.6856   1.7202
     1.7881   2.0944

          k =-0.0779-0.0450 0.0000 ( 22880 PWs)   bands (ev):

   -47.7878 -47.7874 -47.7650 -47.7427 -47.7423 -47.7403 -47.7125 -47.6629
   -47.4228 -47.4213 -47.3823 -47.3819 -26.0144 -25.9935 -25.9648 -25.9501
   -25.9411 -25.9376 -25.8642 -25.8624 -25.8378 -25.8339 -25.7957 -25.7920
   -25.7733 -25.7539 -25.7500 -25.7025 -25.6971 -25.6915 -25.6849 -25.6492
   -25.4915 -25.4854 -25.4849 -25.4655 -25.4592 -25.4329 -25.3645 -25.3552
   -25.3332 -25.3268 -25.2725 -25.2685 -25.2553 -25.2408 -25.1322 -25.1232
    -3.4857  -2.0875  -1.9725  -1.1454  -0.9159  -0.4715  -0.4592  -0.3744
    -0.3653  -0.3117  -0.1659   0.3571   0.3672   0.4078   0.4300   0.4717
     0.5755   0.8347   0.8402   0.8995   0.9193   1.0021   1.0499   1.2580
     1.2585   1.2779   1.4585   1.4870   1.4939   1.5539   1.7077   1.7699
     1.9189   2.1229

     the Fermi energy is     1.4377 ev

!    total energy              =   -1198.12910921 Ry
     Harris-Foulkes estimate   =   -1198.12910927 Ry
     estimated scf accuracy    <       0.00000004 Ry

     The total energy is the sum of the following terms:

     one-electron contribution =   -8370.42880373 Ry
     hartree contribution      =    4176.19468881 Ry
     xc contribution           =    -221.39705011 Ry
     ewald contribution        =    3217.61622807 Ry
     electric field correction =       0.00000090 Ry
     smearing contrib. (-TS)   =      -0.11417314 Ry

     convergence has been achieved in  10 iterations
 
 BEEF-vdW xc energy contributions
           1 :   -189.680178160194     
           2 :    171.779254216575     
           3 :   -141.541874218408     
           4 :    107.431175836520     
           5 :   -77.1655886909624     
           6 :    54.9898248155303     
           7 :   -40.9638717214395     
           8 :    32.2336306672755     
           9 :   -25.2761417607066     
          10 :    17.8295035947339     
          11 :   -9.64777636796020     
          12 :    1.99539051271819     
          13 :    3.55289485272820     
          14 :   -6.21198630504415     
          15 :    6.40960834290914     
          16 :   -5.42573642945331     
          17 :    4.58721625435751     
          18 :   -4.55449488307403     
          19 :    5.10988232717335     
          20 :   -5.50546952642861     
          21 :    5.08188701600295     
          22 :   -3.73741049848755     
          23 :    1.97098020780183     
          24 :  -0.526054567933841     
          25 :  -8.694239182557340E-002
          26 :  -0.128423089478758     
          27 :   0.721926132200451     
          28 :   -1.12783650592792     
          29 :    1.02451869360448     
          30 :  -0.498605669096236     
          31 :   -21.9509437210585     
          32 :   -16.3782583572690     

     Forces acting on atoms (Ry/au):


     negative rho (up, down):  7.492E-01 0.000E+00
     atom    1 type  1   force =    -0.00000112   -0.00000076    0.01249092
     atom    2 type  1   force =     0.00000107   -0.00000077    0.01249131
     atom    3 type  1   force =    -0.00000003    0.00000139    0.01249122
     atom    4 type  1   force =     0.00000002    0.00000016    0.01162277
     atom    5 type  1   force =    -0.00000022    0.00769940   -0.01150179
     atom    6 type  1   force =    -0.00000050    0.00000002   -0.01573108
     atom    7 type  1   force =    -0.00666772   -0.00384958   -0.01150060
     atom    8 type  1   force =     0.00666798   -0.00385001   -0.01150218
     atom    9 type  1   force =    -0.00000112   -0.00000030    0.00039852
     atom   10 type  1   force =     0.00000043    0.00033054    0.00032121
     atom   11 type  1   force =     0.00028845   -0.00016588    0.00032100
     atom   12 type  1   force =    -0.00028497   -0.00016436    0.00032208
     atom   13 type  2   force =    -0.00000226    0.00000015   -0.00022337

     Total force =     0.000920     Total SCF correction =     0.000237
     SCF correction compared to forces is large: reduce conv_thr to get better values


     entering subroutine stress ...


     negative rho (up, down):  7.492E-01 0.000E+00
          total   stress  (Ry/bohr**3)                   (kbar)     P=   -7.64
  -0.00005819  -0.00000000  -0.00000000         -8.56     -0.00     -0.00
  -0.00000000  -0.00005819   0.00000000         -0.00     -8.56      0.00
  -0.00000000   0.00000000  -0.00003935         -0.00      0.00     -5.79


     bfgs converged in  15 scf cycles and  14 bfgs steps
     (criteria: energy <  1.0E+00, force <  1.9E-03)

     End of BFGS Geometry Optimization

     Final energy   =   -1198.1291092132 Ry
Begin final coordinates

ATOMIC_POSITIONS (crystal)
Zr1      0.166666667   0.166666667   0.396150897    0   0   0
Zr1      0.666666667   0.166666667   0.396150897    0   0   0
Zr1      0.166666667   0.666666667   0.396150897    0   0   0
Zr1      0.666666667   0.666666667   0.396150897    0   0   0
Zr1      0.833333333   0.333333333   0.500000000    0   0   0
Zr1      0.333333333   0.333333333   0.500000000    0   0   0
Zr1      0.833333333   0.833333333   0.500000000    0   0   0
Zr1      0.333333333   0.833333333   0.500000000    0   0   0
Zr1      0.000000887   0.000000023   0.597005941
Zr1      0.496113289   0.007772248   0.600481146
Zr1      0.007771211   0.496113683   0.600481375
Zr1      0.496113147   0.496112764   0.600480819
H1       0.333335935   0.333332909   0.644888437
End final coordinates



     Writing output data file calc.save
 
     init_run     :     13.73s CPU     14.19s WALL (       1 calls)
     electrons    :   4941.94s CPU   5263.58s WALL (      15 calls)
     update_pot   :     44.70s CPU     48.45s WALL (      14 calls)
     forces       :    256.45s CPU    271.80s WALL (      15 calls)
     stress       :    791.85s CPU    826.13s WALL (      15 calls)

     Called by init_run:
     wfcinit      :      5.93s CPU      6.05s WALL (       1 calls)
     potinit      :      2.18s CPU      2.37s WALL (       1 calls)

     Called by electrons:
     c_bands      :   1867.22s CPU   1963.38s WALL (     174 calls)
     sum_band     :    989.01s CPU   1058.94s WALL (     174 calls)
     v_of_rho     :    333.60s CPU    365.05s WALL (     187 calls)
     newd         :    916.70s CPU    947.08s WALL (     187 calls)
     mix_rho      :     12.59s CPU     13.16s WALL (     174 calls)
     vdW_energy   :    190.90s CPU    210.85s WALL (     727 calls)
     vdW_ffts     :    483.13s CPU    504.43s WALL (    1484 calls)
     vdW_v        :    197.83s CPU    203.69s WALL (     727 calls)

     Called by c_bands:
     init_us_2    :     12.29s CPU     12.35s WALL (    1895 calls)
     cegterg      :   1709.38s CPU   1755.18s WALL (     870 calls)

     Called by *egterg:
     h_psi        :   1146.80s CPU   1171.71s WALL (    4998 calls)
     s_psi        :    106.81s CPU    107.13s WALL (    4998 calls)
     g_psi        :      7.07s CPU      7.10s WALL (    4123 calls)
     cdiaghg      :    137.56s CPU    138.50s WALL (    4913 calls)

     Called by h_psi:
     add_vuspsi   :    109.45s CPU    109.81s WALL (    4998 calls)

     General routines
     calbec       :    163.82s CPU    166.76s WALL (    6018 calls)
     fft          :    800.75s CPU    883.78s WALL (   43909 calls)
     ffts         :      0.85s CPU      0.91s WALL (     361 calls)
     fftw         :    688.70s CPU    714.74s WALL (  446596 calls)
     interpolate  :      8.02s CPU      8.55s WALL (     361 calls)
     davcio       :      0.00s CPU      0.03s WALL (       5 calls)
 
     Parallel routines
     fft_scatter  :    914.87s CPU   1020.33s WALL (  490866 calls)
 
     PWSCF        :     1h42m CPU        1h48m WALL

 
   This run was terminated on:  20:18:23   2May2018            

=------------------------------------------------------------------------------=
   JOB DONE.
=------------------------------------------------------------------------------=
Job  /afs/slac/g/suncat/bin/suncat-tsmpirun -x LD_LIBRARY_PATH -wdir /scratch/qe857116_HP1PD pw.x -npool 4 -in pw.inp

TID   HOST_NAME   COMMAND_LINE            STATUS            TERMINATION_TIME
===== ========== ================  =======================  ===================
00000 suncat0182 pw.x -npool 4 -i  Done                     05/02/2018 20:18:23
00001 suncat0182 pw.x -npool 4 -i  Done                     05/02/2018 20:18:23
00002 suncat0182 pw.x -npool 4 -i  Done                     05/02/2018 20:18:23
00003 suncat0182 pw.x -npool 4 -i  Done                     05/02/2018 20:18:23
00004 suncat0182 pw.x -npool 4 -i  Done                     05/02/2018 20:18:23
00005 suncat0182 pw.x -npool 4 -i  Done                     05/02/2018 20:18:23
00006 suncat0182 pw.x -npool 4 -i  Done                     05/02/2018 20:18:23
00007 suncat0182 pw.x -npool 4 -i  Done                     05/02/2018 20:18:23
00008 suncat0173 pw.x -npool 4 -i  Done                     05/02/2018 20:18:23
00009 suncat0173 pw.x -npool 4 -i  Done                     05/02/2018 20:18:23
00010 suncat0173 pw.x -npool 4 -i  Done                     05/02/2018 20:18:23
00011 suncat0173 pw.x -npool 4 -i  Done                     05/02/2018 20:18:23
00012 suncat0173 pw.x -npool 4 -i  Done                     05/02/2018 20:18:23
00013 suncat0173 pw.x -npool 4 -i  Done                     05/02/2018 20:18:23
00014 suncat0173 pw.x -npool 4 -i  Done                     05/02/2018 20:18:23
00015 suncat0173 pw.x -npool 4 -i  Done                     05/02/2018 20:18:23
00016 suncat0244 pw.x -npool 4 -i  Done                     05/02/2018 20:18:23
00017 suncat0244 pw.x -npool 4 -i  Done                     05/02/2018 20:18:23
00018 suncat0244 pw.x -npool 4 -i  Done                     05/02/2018 20:18:23
00019 suncat0244 pw.x -npool 4 -i  Done                     05/02/2018 20:18:23
00020 suncat0244 pw.x -npool 4 -i  Done                     05/02/2018 20:18:23
00021 suncat0244 pw.x -npool 4 -i  Done                     05/02/2018 20:18:23
00022 suncat0244 pw.x -npool 4 -i  Done                     05/02/2018 20:18:23
00023 suncat0244 pw.x -npool 4 -i  Done                     05/02/2018 20:18:23
00024 suncat0243 pw.x -npool 4 -i  Done                     05/02/2018 20:18:23
00025 suncat0243 pw.x -npool 4 -i  Done                     05/02/2018 20:18:23
00026 suncat0243 pw.x -npool 4 -i  Done                     05/02/2018 20:18:23
00027 suncat0243 pw.x -npool 4 -i  Done                     05/02/2018 20:18:23
00028 suncat0243 pw.x -npool 4 -i  Done                     05/02/2018 20:18:23
00029 suncat0243 pw.x -npool 4 -i  Done                     05/02/2018 20:18:23
00030 suncat0243 pw.x -npool 4 -i  Done                     05/02/2018 20:18:23
00031 suncat0243 pw.x -npool 4 -i  Done                     05/02/2018 20:18:23
