  python dir    : /nfs/slac/g/suncatfs/mamunm/src/decaf-espresso/decaf
espresso dir  : /nfs/slac/g/suncatfs/sw/espv18/espresso-dynpy-beef/bin/pw.x
executable    : pam -g /afs/slac/g/suncat/bin/suncat-tsmpirun -x LD_LIBRARY_PATH -wdir /tmp/qe_3785505qvczxlb_scratch pw.x -npool 4 -in pw.pwi

     Program PWSCF v.5.1rc2 (svn rev. 11289) starts on 16Jan2019 at 15:55: 2 

     This program is part of the open-source Quantum ESPRESSO suite
     for quantum simulation of materials; please cite
         "P. Giannozzi et al., J. Phys.:Condens. Matter 21 395502 (2009);
          URL http://www.quantum-espresso.org", 
     in publications or presentations arising from this work. More details at
     http://www.quantum-espresso.org/quote

     Parallel version (MPI), running on    32 processors
     K-points division:     npool     =       4
     R & G space division:  proc/nbgrp/npool/nimage =       8
     Reading input from pw.pwi
Warning: card &CELL ignored
Warning: card / ignored

     Current dimensions of program PWSCF are:
     Max number of different atomic species (ntypx) = 10
     Max number of k-points (npk) =  40000
     Max angular momentum in pseudopotentials (lmaxx) =  3

     **************************************************************************
     Initializing libbeef V0.1.1 with the BEEF-vdW functional.
     Citation: Wellendorff et al., PRB 85, 235149 (2012).
     **************************************************************************


     IMPORTANT: XC functional enforced from input :
     Exchange-correlation      = BEEF-VDW ( 1  4 27 13 2)
     Any further DFT definition will be discarded
     Please, verify this is what you really want


     Subspace diagonalization in iterative solution of the eigenvalue problem:
     a serial algorithm will be used

 
     Parallelization info
     --------------------
     sticks:   dense  smooth     PW     G-vecs:    dense   smooth      PW
     Min         282     114     33                52582    13326    2145
     Max         283     115     34                52595    13361    2159
     Sum        2263     913    265               420703   106687   17243
 
     Generating pointlists ...
     new r_m :   0.1369 (alat units)  1.2963 (a.u.) for type    1
     new r_m :   0.1369 (alat units)  1.2963 (a.u.) for type    2


     bravais-lattice index     =            0
     lattice parameter (alat)  =       9.4723  a.u.
     unit-cell volume          =    3537.7769 (a.u.)^3
     number of atoms/cell      =           13
     number of atomic types    =            2
     number of electrons       =       205.00
     number of Kohn-Sham states=          112
     kinetic-energy cutoff     =      36.7493  Ry
     charge density cutoff     =     367.4933  Ry
     convergence threshold     =      1.0E-04
     mixing beta               =       0.1000
     number of iterations used =            8  plain     mixing
     Exchange-correlation      = BEEF-VDW ( 1  4 27 13 2)
     nstep                     =           50


     celldm(1)=   9.472344  celldm(2)=   0.000000  celldm(3)=   0.000000
     celldm(4)=   0.000000  celldm(5)=   0.000000  celldm(6)=   0.000000

     crystal axes: (cart. coord. in units of alat)
               a(1) = (   1.000000   0.000000   0.000000 )  
               a(2) = (   0.500000   0.866025   0.000000 )  
               a(3) = (   0.000000   0.000000   4.806483 )  

     reciprocal axes: (cart. coord. in units 2 pi/alat)
               b(1) = (  1.000000 -0.577350  0.000000 )  
               b(2) = (  0.000000  1.154701  0.000000 )  
               b(3) = (  0.000000  0.000000  0.208052 )  


     PseudoPot. # 1 for Co read from file:
     /nfs/slac/g/suncatfs/mamunm/src/decaf-espresso/gbrv15pbe/Co.UPF
     MD5 check sum: 5f91765df6ddd3222702df6e7b74a16d
     Pseudo is Ultrasoft + core correction, Zval = 17.0
     Generated by new atomic code, or converted to UPF format
     Using radial grid of  863 points,  6 beta functions with: 
                l(1) =   0
                l(2) =   0
                l(3) =   1
                l(4) =   1
                l(5) =   2
                l(6) =   2
     Q(r) pseudized with  8 coefficients,  rinner =    1.200   1.200   1.200
                                                       1.200   1.200

     PseudoPot. # 2 for H  read from file:
     /nfs/slac/g/suncatfs/mamunm/src/decaf-espresso/gbrv15pbe/H.UPF
     MD5 check sum: 761ae9a214b05c3daf00ab9f6b793d6f
     Pseudo is Ultrasoft, Zval =  1.0
     Generated by new atomic code, or converted to UPF format
     Using radial grid of  615 points,  2 beta functions with: 
                l(1) =   0
                l(2) =   0
     Q(r) pseudized with  8 coefficients,  rinner =    0.700

     vdW kernel table read from file vdW_kernel_table
     MD5 check sum: 095c7af220d748ca6e76c0b4c6cfb241

     atomic species   valence    mass     pseudopotential
        Co            17.00    58.93319     Co( 1.00)
        H              1.00     1.00800     H ( 1.00)

     Starting magnetic structure 
     atomic species   magnetization
        Co           0.118
        H            0.000

     No symmetry found



   Cartesian axes

     site n.     atom                  positions (alat units)
         1           Co  tau(   1) = (   0.2500000   0.1443376   1.9949931  )
         2           Co  tau(   2) = (   0.7500000   0.1443376   1.9949931  )
         3           Co  tau(   3) = (   0.5000000   0.5773503   1.9949931  )
         4           Co  tau(   4) = (   1.0000000   0.5773503   1.9949931  )
         5           Co  tau(   5) = (   1.0000000   0.2886751   2.4032414  )
         6           Co  tau(   6) = (   0.5000000   0.2886751   2.4032414  )
         7           Co  tau(   7) = (   1.2500000   0.7216878   2.4032414  )
         8           Co  tau(   8) = (   0.7500000   0.7216878   2.4032414  )
         9           Co  tau(   9) = (  -0.0038546   0.0000341   2.8050235  )
        10           Co  tau(  10) = (   0.5038567   0.0000393   2.8050072  )
        11           Co  tau(  11) = (   0.2500053   0.4332558   2.8003598  )
        12           Co  tau(  12) = (   0.7499979   0.4327518   2.8005188  )
        13           H   tau(  13) = (   0.2500026   0.0011362   3.0186277  )

     number of k points=    40  Fermi-Dirac smearing, width (Ry)=  0.0110
                       cart. coord. in units 2pi/alat
        k(    1) = (   0.0000000   0.0000000   0.0000000), wk =   0.0277778
        k(    2) = (   0.0000000   0.1924501   0.0000000), wk =   0.0555556
        k(    3) = (   0.0000000   0.3849002   0.0000000), wk =   0.0555556
        k(    4) = (   0.0000000  -0.5773503   0.0000000), wk =   0.0277778
        k(    5) = (   0.1666667  -0.0962250   0.0000000), wk =   0.0555556
        k(    6) = (   0.1666667   0.0962250   0.0000000), wk =   0.0555556
        k(    7) = (   0.1666667   0.2886751   0.0000000), wk =   0.0555556
        k(    8) = (   0.1666667  -0.6735753   0.0000000), wk =   0.0555556
        k(    9) = (   0.1666667  -0.4811252   0.0000000), wk =   0.0555556
        k(   10) = (   0.1666667  -0.2886751   0.0000000), wk =   0.0555556
        k(   11) = (   0.3333333  -0.1924501   0.0000000), wk =   0.0555556
        k(   12) = (   0.3333333  -0.0000000   0.0000000), wk =   0.0555556
        k(   13) = (   0.3333333   0.1924501   0.0000000), wk =   0.0555556
        k(   14) = (   0.3333333  -0.7698004   0.0000000), wk =   0.0555556
        k(   15) = (   0.3333333  -0.5773503   0.0000000), wk =   0.0555556
        k(   16) = (   0.3333333  -0.3849002   0.0000000), wk =   0.0555556
        k(   17) = (  -0.5000000   0.2886751   0.0000000), wk =   0.0277778
        k(   18) = (  -0.5000000   0.4811252   0.0000000), wk =   0.0555556
        k(   19) = (  -0.5000000   0.6735753   0.0000000), wk =   0.0555556
        k(   20) = (  -0.5000000  -0.2886751   0.0000000), wk =   0.0277778
        k(   21) = (   0.0000000   0.0000000   0.0000000), wk =   0.0277778
        k(   22) = (   0.0000000   0.1924501   0.0000000), wk =   0.0555556
        k(   23) = (   0.0000000   0.3849002   0.0000000), wk =   0.0555556
        k(   24) = (   0.0000000  -0.5773503   0.0000000), wk =   0.0277778
        k(   25) = (   0.1666667  -0.0962250   0.0000000), wk =   0.0555556
        k(   26) = (   0.1666667   0.0962250   0.0000000), wk =   0.0555556
        k(   27) = (   0.1666667   0.2886751   0.0000000), wk =   0.0555556
        k(   28) = (   0.1666667  -0.6735753   0.0000000), wk =   0.0555556
        k(   29) = (   0.1666667  -0.4811252   0.0000000), wk =   0.0555556
        k(   30) = (   0.1666667  -0.2886751   0.0000000), wk =   0.0555556
        k(   31) = (   0.3333333  -0.1924501   0.0000000), wk =   0.0555556
        k(   32) = (   0.3333333  -0.0000000   0.0000000), wk =   0.0555556
        k(   33) = (   0.3333333   0.1924501   0.0000000), wk =   0.0555556
        k(   34) = (   0.3333333  -0.7698004   0.0000000), wk =   0.0555556
        k(   35) = (   0.3333333  -0.5773503   0.0000000), wk =   0.0555556
        k(   36) = (   0.3333333  -0.3849002   0.0000000), wk =   0.0555556
        k(   37) = (  -0.5000000   0.2886751   0.0000000), wk =   0.0277778
        k(   38) = (  -0.5000000   0.4811252   0.0000000), wk =   0.0555556
        k(   39) = (  -0.5000000   0.6735753   0.0000000), wk =   0.0555556
        k(   40) = (  -0.5000000  -0.2886751   0.0000000), wk =   0.0277778

     Dense  grid:   420703 G-vectors     FFT dimensions: (  60,  60, 288)

     Smooth grid:   106687 G-vectors     FFT dimensions: (  40,  40, 180)

     Largest allocated arrays     est. size (Mb)     dimensions
        Kohn-Sham Wavefunctions         2.91 Mb     (    1704,  112)
        NL pseudopotentials             5.67 Mb     (    1704,  218)
        Each V/rho on FFT grid          3.96 Mb     (  129600,   2)
        Each G-vector array             0.40 Mb     (   52591)
        G-vector shells                 0.11 Mb     (   14412)
     Largest temporary arrays     est. size (Mb)     dimensions
        Auxiliary wavefunctions        11.65 Mb     (    1704,  448)
        Each subspace H/S matrix        3.06 Mb     (     448,  448)
        Each <psi_i|beta_j> matrix      0.37 Mb     (     218,  112)
        Arrays for rho mixing          15.82 Mb     (  129600,    8)

     Check: negative/imaginary core charge=   -0.000007    0.000000

     Initial potential from superposition of free atoms
     Check: negative starting charge=(component1):   -0.000202
     Check: negative starting charge=(component2):   -0.000158

     starting charge  192.99991, renormalised to  205.00000

     negative rho (up, down):  2.146E-04 1.683E-04


     ************************************************************************
     *
     * You are using vdW-DF for exchange-correlation in this calculation.
     * Please cite the following three references that made this development
     * possible:
     *
     *   M. Dion, H. Rydberg, E. Schroder, D. C. Langreth, and
     *   B. I. Lundqvist, Phys. Rev. Lett. 92, 246401 (2004).
     *
     *   T. Thonhauser, V. R. Cooper, S. Li, A. Puzder, P. Hyldgaard, and
     *   D. C. Langreth, Phys. Rev. B 76, 125112 (2007).
     *
     *   G. Roman-Perez and J. M. Soler, Phys. Rev. Lett. 103, 096102 (2009).
     *
     *
     * If you are using vdW-DF2, please also cite:
     *
     *   K. Lee, E. D. Murray, L. Kong, B. I. Lundqvist, and
     *   D. C. Langreth, Phys. Rev. B 82, 081101(R) (2010).
     *
     *
     * If you are calculating the stress with vdW-DF, please also cite:
     *
     *   R. Sabatini, E. Kucukbenli, B. Kolb, T. Thonhauser, and
     *   S. de Gironcoli, J. Phys.: Condens. Matter 24, 424209 (2012).
     *
     ************************************************************************

     Carrying out vdW-DF run using the following parameters:

     Nqs =      20    Nr_points =    1024   r_max =   100.000
     q_mesh =
               0.00001000     0.04494208     0.09755937     0.15916263
               0.23128650     0.31572767     0.41458969     0.53033537
               0.66584808     0.82450364     1.01025438     1.22772762
               1.48234092     1.78043706     2.12944203     2.53805004
               3.01644009     3.57652955     4.23227104     5.00000000

     Gradients computed in reciprocal space

     ************************************************************************


 
     Adding external electric field

     Computed dipole along edir(3) : 
        Dipole               -0.3641 Ry au,         -0.9255 Debye
        Dipole field         -0.0013 Ry au
 
        Potential amp.        0.1060 Ry
        Total length         40.9758 bohr
 
 
     Adding external electric field

     Computed dipole along edir(3) : 
        Dipole               -0.3641 Ry au,         -0.9255 Debye
        Dipole field         -0.0013 Ry au
 
        Potential amp.        0.1060 Ry
        Total length         40.9758 bohr
 
     Starting wfc are  157 randomized atomic wfcs

     total cpu time spent up to now is       13.2 secs

     per-process dynamical memory:    94.5 Mb

     Self-consistent Calculation

     iteration #  1     ecut=    36.75 Ry     beta=0.10
     Davidson diagonalization with overlap
     ethr =  1.00E-02,  avg # of iterations =  7.9
 
     Adding external electric field

     Computed dipole along edir(3) : 
        Dipole               -1.3572 Ry au,         -3.4497 Debye
        Dipole field         -0.0048 Ry au
 
        Potential amp.        0.3951 Ry
        Total length         40.9758 bohr
 
 
     Adding external electric field

     Computed dipole along edir(3) : 
        Dipole               -1.3572 Ry au,         -3.4497 Debye
        Dipole field         -0.0048 Ry au
 
        Potential amp.        0.3951 Ry
        Total length         40.9758 bohr
 
 
     Magnetic moment per site:
     atom:    1    charge:   13.6665    magn:    1.5548    constr:    0.0000
     atom:    2    charge:   13.6671    magn:    1.5552    constr:    0.0000
     atom:    3    charge:   13.6667    magn:    1.5549    constr:    0.0000
     atom:    4    charge:   13.6665    magn:    1.5549    constr:    0.0000
     atom:    5    charge:   13.6658    magn:    1.5522    constr:    0.0000
     atom:    6    charge:   13.6657    magn:    1.5521    constr:    0.0000
     atom:    7    charge:   13.6654    magn:    1.5514    constr:    0.0000
     atom:    8    charge:   13.6641    magn:    1.5521    constr:    0.0000
     atom:    9    charge:   13.6273    magn:    1.5387    constr:    0.0000
     atom:   10    charge:   13.6272    magn:    1.5386    constr:    0.0000
     atom:   11    charge:   13.6151    magn:    1.5418    constr:    0.0000
     atom:   12    charge:   13.6148    magn:    1.5442    constr:    0.0000
     atom:   13    charge:    0.7439    magn:    0.0162    constr:    0.0000

     total cpu time spent up to now is       58.9 secs

     total energy              =   -3533.58137433 Ry
     Harris-Foulkes estimate   =   -3621.26786082 Ry
     estimated scf accuracy    <     493.60297844 Ry

     total magnetization       =     8.98 Bohr mag/cell
     absolute magnetization    =    11.18 Bohr mag/cell

     iteration #  2     ecut=    36.75 Ry     beta=0.10
     Davidson diagonalization with overlap
     ethr =  1.00E-02,  avg # of iterations =  6.8
 
     Adding external electric field

     Computed dipole along edir(3) : 
        Dipole               -7.9094 Ry au,        -20.1037 Debye
        Dipole field         -0.0281 Ry au
 
        Potential amp.        2.3024 Ry
        Total length         40.9758 bohr
 
 
     Adding external electric field

     Computed dipole along edir(3) : 
        Dipole               -7.9094 Ry au,        -20.1037 Debye
        Dipole field         -0.0281 Ry au
 
        Potential amp.        2.3024 Ry
        Total length         40.9758 bohr
 
 
     Magnetic moment per site:
     atom:    1    charge:   13.3993    magn:    1.4910    constr:    0.0000
     atom:    2    charge:   13.3990    magn:    1.4902    constr:    0.0000
     atom:    3    charge:   13.3989    magn:    1.4900    constr:    0.0000
     atom:    4    charge:   13.3989    magn:    1.4900    constr:    0.0000
     atom:    5    charge:   13.7310    magn:    1.4802    constr:    0.0000
     atom:    6    charge:   13.7309    magn:    1.4801    constr:    0.0000
     atom:    7    charge:   13.7308    magn:    1.4798    constr:    0.0000
     atom:    8    charge:   13.7296    magn:    1.4795    constr:    0.0000
     atom:    9    charge:   13.6577    magn:    1.4752    constr:    0.0000
     atom:   10    charge:   13.6578    magn:    1.4751    constr:    0.0000
     atom:   11    charge:   13.6523    magn:    1.4767    constr:    0.0000
     atom:   12    charge:   13.6521    magn:    1.4796    constr:    0.0000
     atom:   13    charge:    0.7467    magn:    0.0150    constr:    0.0000

     total cpu time spent up to now is      102.5 secs

     total energy              =   -3569.36465891 Ry
     Harris-Foulkes estimate   =   -3612.32632786 Ry
     estimated scf accuracy    <     425.97965035 Ry

     total magnetization       =     3.72 Bohr mag/cell
     absolute magnetization    =     4.65 Bohr mag/cell

     iteration #  3     ecut=    36.75 Ry     beta=0.10
     Davidson diagonalization with overlap
     ethr =  1.00E-02,  avg # of iterations =  5.0
 
     Adding external electric field

     Computed dipole along edir(3) : 
        Dipole               -2.7237 Ry au,         -6.9230 Debye
        Dipole field         -0.0097 Ry au
 
        Potential amp.        0.7929 Ry
        Total length         40.9758 bohr
 
 
     Adding external electric field

     Computed dipole along edir(3) : 
        Dipole               -2.7237 Ry au,         -6.9230 Debye
        Dipole field         -0.0097 Ry au
 
        Potential amp.        0.7929 Ry
        Total length         40.9758 bohr
 
 
     Magnetic moment per site:
     atom:    1    charge:   13.3948    magn:    1.4322    constr:    0.0000
     atom:    2    charge:   13.3943    magn:    1.4310    constr:    0.0000
     atom:    3    charge:   13.3943    magn:    1.4308    constr:    0.0000
     atom:    4    charge:   13.3943    magn:    1.4308    constr:    0.0000
     atom:    5    charge:   13.7583    magn:    1.4242    constr:    0.0000
     atom:    6    charge:   13.7583    magn:    1.4242    constr:    0.0000
     atom:    7    charge:   13.7583    magn:    1.4240    constr:    0.0000
     atom:    8    charge:   13.7571    magn:    1.4235    constr:    0.0000
     atom:    9    charge:   13.4913    magn:    1.4136    constr:    0.0000
     atom:   10    charge:   13.4913    magn:    1.4135    constr:    0.0000
     atom:   11    charge:   13.4882    magn:    1.4146    constr:    0.0000
     atom:   12    charge:   13.4881    magn:    1.4176    constr:    0.0000
     atom:   13    charge:    0.7262    magn:    0.0142    constr:    0.0000

     total cpu time spent up to now is      140.1 secs

     total energy              =   -3584.36043500 Ry
     Harris-Foulkes estimate   =   -3632.22592304 Ry
     estimated scf accuracy    <    1124.86966408 Ry

     total magnetization       =     1.73 Bohr mag/cell
     absolute magnetization    =     2.32 Bohr mag/cell

     iteration #  4     ecut=    36.75 Ry     beta=0.10
     Davidson diagonalization with overlap
     ethr =  1.00E-02,  avg # of iterations =  6.2
 
     Adding external electric field

     Computed dipole along edir(3) : 
        Dipole               -2.5719 Ry au,         -6.5370 Debye
        Dipole field         -0.0091 Ry au
 
        Potential amp.        0.7487 Ry
        Total length         40.9758 bohr
 
 
     Adding external electric field

     Computed dipole along edir(3) : 
        Dipole               -2.5719 Ry au,         -6.5370 Debye
        Dipole field         -0.0091 Ry au
 
        Potential amp.        0.7487 Ry
        Total length         40.9758 bohr
 
 
     Magnetic moment per site:
     atom:    1    charge:   13.4405    magn:    1.3713    constr:    0.0000
     atom:    2    charge:   13.4400    magn:    1.3700    constr:    0.0000
     atom:    3    charge:   13.4401    magn:    1.3698    constr:    0.0000
     atom:    4    charge:   13.4401    magn:    1.3698    constr:    0.0000
     atom:    5    charge:   13.5786    magn:    1.3878    constr:    0.0000
     atom:    6    charge:   13.5786    magn:    1.3878    constr:    0.0000
     atom:    7    charge:   13.5808    magn:    1.3899    constr:    0.0000
     atom:    8    charge:   13.5754    magn:    1.3860    constr:    0.0000
     atom:    9    charge:   13.5187    magn:    1.3794    constr:    0.0000
     atom:   10    charge:   13.5187    magn:    1.3794    constr:    0.0000
     atom:   11    charge:   13.5159    magn:    1.3810    constr:    0.0000
     atom:   12    charge:   13.5161    magn:    1.3840    constr:    0.0000
     atom:   13    charge:    0.7307    magn:    0.0137    constr:    0.0000

     total cpu time spent up to now is      176.9 secs

     total energy              =   -3596.19462971 Ry
     Harris-Foulkes estimate   =   -3602.16732552 Ry
     estimated scf accuracy    <      81.13011811 Ry

     total magnetization       =     8.80 Bohr mag/cell
     absolute magnetization    =     9.41 Bohr mag/cell

     iteration #  5     ecut=    36.75 Ry     beta=0.10
     Davidson diagonalization with overlap
     ethr =  1.00E-02,  avg # of iterations =  1.6
 
     Adding external electric field

     Computed dipole along edir(3) : 
        Dipole               -1.0160 Ry au,         -2.5824 Debye
        Dipole field         -0.0036 Ry au
 
        Potential amp.        0.2958 Ry
        Total length         40.9758 bohr
 
 
     Adding external electric field

     Computed dipole along edir(3) : 
        Dipole               -1.0160 Ry au,         -2.5824 Debye
        Dipole field         -0.0036 Ry au
 
        Potential amp.        0.2958 Ry
        Total length         40.9758 bohr
 
 
     Magnetic moment per site:
     atom:    1    charge:   13.5190    magn:    1.2705    constr:    0.0000
     atom:    2    charge:   13.5181    magn:    1.2702    constr:    0.0000
     atom:    3    charge:   13.5196    magn:    1.2708    constr:    0.0000
     atom:    4    charge:   13.5196    magn:    1.2707    constr:    0.0000
     atom:    5    charge:   13.3597    magn:    1.2922    constr:    0.0000
     atom:    6    charge:   13.3599    magn:    1.2919    constr:    0.0000
     atom:    7    charge:   13.3538    magn:    1.2911    constr:    0.0000
     atom:    8    charge:   13.3609    magn:    1.2909    constr:    0.0000
     atom:    9    charge:   13.4413    magn:    1.4728    constr:    0.0000
     atom:   10    charge:   13.4412    magn:    1.4728    constr:    0.0000
     atom:   11    charge:   13.4045    magn:    1.4927    constr:    0.0000
     atom:   12    charge:   13.4049    magn:    1.5030    constr:    0.0000
     atom:   13    charge:    0.7535    magn:    0.0108    constr:    0.0000

     total cpu time spent up to now is      199.5 secs

     total energy              =   -3592.70817939 Ry
     Harris-Foulkes estimate   =   -3598.34675409 Ry
     estimated scf accuracy    <      52.40820573 Ry

     total magnetization       =    13.64 Bohr mag/cell
     absolute magnetization    =    14.43 Bohr mag/cell

     iteration #  6     ecut=    36.75 Ry     beta=0.10
     Davidson diagonalization with overlap
     ethr =  1.00E-02,  avg # of iterations =  4.2
 
     Adding external electric field

     Computed dipole along edir(3) : 
        Dipole               -1.7361 Ry au,         -4.4126 Debye
        Dipole field         -0.0062 Ry au
 
        Potential amp.        0.5054 Ry
        Total length         40.9758 bohr
 
 
     Adding external electric field

     Computed dipole along edir(3) : 
        Dipole               -1.7361 Ry au,         -4.4126 Debye
        Dipole field         -0.0062 Ry au
 
        Potential amp.        0.5054 Ry
        Total length         40.9758 bohr
 
 
     Magnetic moment per site:
     atom:    1    charge:   13.3905    magn:    1.1535    constr:    0.0000
     atom:    2    charge:   13.3939    magn:    1.1541    constr:    0.0000
     atom:    3    charge:   13.3902    magn:    1.1514    constr:    0.0000
     atom:    4    charge:   13.3902    magn:    1.1514    constr:    0.0000
     atom:    5    charge:   13.3110    magn:    1.1350    constr:    0.0000
     atom:    6    charge:   13.3112    magn:    1.1346    constr:    0.0000
     atom:    7    charge:   13.3070    magn:    1.1340    constr:    0.0000
     atom:    8    charge:   13.3115    magn:    1.1333    constr:    0.0000
     atom:    9    charge:   13.3814    magn:    1.3618    constr:    0.0000
     atom:   10    charge:   13.3813    magn:    1.3620    constr:    0.0000
     atom:   11    charge:   13.3583    magn:    1.3822    constr:    0.0000
     atom:   12    charge:   13.3583    magn:    1.3944    constr:    0.0000
     atom:   13    charge:    0.7625    magn:    0.0078    constr:    0.0000

     total cpu time spent up to now is      228.8 secs

     total energy              =   -3592.74054011 Ry
     Harris-Foulkes estimate   =   -3601.99911876 Ry
     estimated scf accuracy    <     318.39892501 Ry

     total magnetization       =     6.16 Bohr mag/cell
     absolute magnetization    =     6.95 Bohr mag/cell

     iteration #  7     ecut=    36.75 Ry     beta=0.10
     Davidson diagonalization with overlap
     ethr =  1.00E-02,  avg # of iterations =  2.5
 
     Adding external electric field

     Computed dipole along edir(3) : 
        Dipole               -1.5847 Ry au,         -4.0279 Debye
        Dipole field         -0.0056 Ry au
 
        Potential amp.        0.4613 Ry
        Total length         40.9758 bohr
 
 
     Adding external electric field

     Computed dipole along edir(3) : 
        Dipole               -1.5847 Ry au,         -4.0279 Debye
        Dipole field         -0.0056 Ry au
 
        Potential amp.        0.4613 Ry
        Total length         40.9758 bohr
 
 
     Magnetic moment per site:
     atom:    1    charge:   13.3857    magn:    1.1408    constr:    0.0000
     atom:    2    charge:   13.3886    magn:    1.1433    constr:    0.0000
     atom:    3    charge:   13.3844    magn:    1.1382    constr:    0.0000
     atom:    4    charge:   13.3844    magn:    1.1381    constr:    0.0000
     atom:    5    charge:   13.3153    magn:    1.1365    constr:    0.0000
     atom:    6    charge:   13.3153    magn:    1.1362    constr:    0.0000
     atom:    7    charge:   13.3150    magn:    1.1308    constr:    0.0000
     atom:    8    charge:   13.3142    magn:    1.1366    constr:    0.0000
     atom:    9    charge:   13.3674    magn:    1.3758    constr:    0.0000
     atom:   10    charge:   13.3674    magn:    1.3759    constr:    0.0000
     atom:   11    charge:   13.3735    magn:    1.3807    constr:    0.0000
     atom:   12    charge:   13.3741    magn:    1.3920    constr:    0.0000
     atom:   13    charge:    0.7679    magn:    0.0069    constr:    0.0000

     total cpu time spent up to now is      252.9 secs

     total energy              =   -3595.55749572 Ry
     Harris-Foulkes estimate   =   -3595.67670211 Ry
     estimated scf accuracy    <      14.49465389 Ry

     total magnetization       =    13.48 Bohr mag/cell
     absolute magnetization    =    14.86 Bohr mag/cell

     iteration #  8     ecut=    36.75 Ry     beta=0.10
     Davidson diagonalization with overlap
     ethr =  7.07E-03,  avg # of iterations =  1.7
 
     Adding external electric field

     Computed dipole along edir(3) : 
        Dipole               -1.4658 Ry au,         -3.7256 Debye
        Dipole field         -0.0052 Ry au
 
        Potential amp.        0.4267 Ry
        Total length         40.9758 bohr
 
 
     Adding external electric field

     Computed dipole along edir(3) : 
        Dipole               -1.4658 Ry au,         -3.7256 Debye
        Dipole field         -0.0052 Ry au
 
        Potential amp.        0.4267 Ry
        Total length         40.9758 bohr
 
 
     Magnetic moment per site:
     atom:    1    charge:   13.3752    magn:    1.1287    constr:    0.0000
     atom:    2    charge:   13.3767    magn:    1.1328    constr:    0.0000
     atom:    3    charge:   13.3739    magn:    1.1249    constr:    0.0000
     atom:    4    charge:   13.3739    magn:    1.1247    constr:    0.0000
     atom:    5    charge:   13.3206    magn:    1.1438    constr:    0.0000
     atom:    6    charge:   13.3206    magn:    1.1435    constr:    0.0000
     atom:    7    charge:   13.3215    magn:    1.1347    constr:    0.0000
     atom:    8    charge:   13.3200    magn:    1.1447    constr:    0.0000
     atom:    9    charge:   13.3719    magn:    1.3704    constr:    0.0000
     atom:   10    charge:   13.3719    magn:    1.3706    constr:    0.0000
     atom:   11    charge:   13.3729    magn:    1.3885    constr:    0.0000
     atom:   12    charge:   13.3735    magn:    1.3991    constr:    0.0000
     atom:   13    charge:    0.7750    magn:    0.0057    constr:    0.0000

     total cpu time spent up to now is      276.3 secs

     total energy              =   -3595.58881463 Ry
     Harris-Foulkes estimate   =   -3595.73901305 Ry
     estimated scf accuracy    <      10.82055564 Ry

     total magnetization       =    14.33 Bohr mag/cell
     absolute magnetization    =    15.69 Bohr mag/cell

     iteration #  9     ecut=    36.75 Ry     beta=0.10
     Davidson diagonalization with overlap
     ethr =  5.28E-03,  avg # of iterations =  1.0
 
     Adding external electric field

     Computed dipole along edir(3) : 
        Dipole               -1.3204 Ry au,         -3.3562 Debye
        Dipole field         -0.0047 Ry au
 
        Potential amp.        0.3844 Ry
        Total length         40.9758 bohr
 
 
     Adding external electric field

     Computed dipole along edir(3) : 
        Dipole               -1.3204 Ry au,         -3.3562 Debye
        Dipole field         -0.0047 Ry au
 
        Potential amp.        0.3844 Ry
        Total length         40.9758 bohr
 
 
     Magnetic moment per site:
     atom:    1    charge:   13.3695    magn:    1.0948    constr:    0.0000
     atom:    2    charge:   13.3709    magn:    1.0985    constr:    0.0000
     atom:    3    charge:   13.3683    magn:    1.0887    constr:    0.0000
     atom:    4    charge:   13.3682    magn:    1.0885    constr:    0.0000
     atom:    5    charge:   13.3306    magn:    1.1786    constr:    0.0000
     atom:    6    charge:   13.3307    magn:    1.1782    constr:    0.0000
     atom:    7    charge:   13.3249    magn:    1.1685    constr:    0.0000
     atom:    8    charge:   13.3298    magn:    1.1820    constr:    0.0000
     atom:    9    charge:   13.3794    magn:    1.3669    constr:    0.0000
     atom:   10    charge:   13.3794    magn:    1.3673    constr:    0.0000
     atom:   11    charge:   13.3774    magn:    1.4002    constr:    0.0000
     atom:   12    charge:   13.3777    magn:    1.4097    constr:    0.0000
     atom:   13    charge:    0.7887    magn:    0.0037    constr:    0.0000

     total cpu time spent up to now is      298.2 secs

     total energy              =   -3595.51042242 Ry
     Harris-Foulkes estimate   =   -3595.64078848 Ry
     estimated scf accuracy    <       6.59877883 Ry

     total magnetization       =    14.43 Bohr mag/cell
     absolute magnetization    =    15.73 Bohr mag/cell

     iteration # 10     ecut=    36.75 Ry     beta=0.10
     Davidson diagonalization with overlap
     ethr =  3.22E-03,  avg # of iterations =  1.7
 
     Adding external electric field

     Computed dipole along edir(3) : 
        Dipole               -0.8526 Ry au,         -2.1670 Debye
        Dipole field         -0.0030 Ry au
 
        Potential amp.        0.2482 Ry
        Total length         40.9758 bohr
 
 
     Adding external electric field

     Computed dipole along edir(3) : 
        Dipole               -0.8526 Ry au,         -2.1670 Debye
        Dipole field         -0.0030 Ry au
 
        Potential amp.        0.2482 Ry
        Total length         40.9758 bohr
 
 
     Magnetic moment per site:
     atom:    1    charge:   13.3446    magn:    0.9892    constr:    0.0000
     atom:    2    charge:   13.3425    magn:    0.9943    constr:    0.0000
     atom:    3    charge:   13.3425    magn:    0.9772    constr:    0.0000
     atom:    4    charge:   13.3427    magn:    0.9770    constr:    0.0000
     atom:    5    charge:   13.3584    magn:    1.2572    constr:    0.0000
     atom:    6    charge:   13.3582    magn:    1.2571    constr:    0.0000
     atom:    7    charge:   13.3709    magn:    1.2186    constr:    0.0000
     atom:    8    charge:   13.3608    magn:    1.2644    constr:    0.0000
     atom:    9    charge:   13.3771    magn:    1.3718    constr:    0.0000
     atom:   10    charge:   13.3772    magn:    1.3727    constr:    0.0000
     atom:   11    charge:   13.3752    magn:    1.4474    constr:    0.0000
     atom:   12    charge:   13.3760    magn:    1.4525    constr:    0.0000
     atom:   13    charge:    0.8304    magn:   -0.0023    constr:    0.0000

     total cpu time spent up to now is      321.5 secs

     total energy              =   -3595.25089462 Ry
     Harris-Foulkes estimate   =   -3595.57939253 Ry
     estimated scf accuracy    <       2.59118693 Ry

     total magnetization       =    14.87 Bohr mag/cell
     absolute magnetization    =    16.18 Bohr mag/cell

     iteration # 11     ecut=    36.75 Ry     beta=0.10
     Davidson diagonalization with overlap
     ethr =  1.26E-03,  avg # of iterations =  4.8
 
     Adding external electric field

     Computed dipole along edir(3) : 
        Dipole               -0.3065 Ry au,         -0.7790 Debye
        Dipole field         -0.0011 Ry au
 
        Potential amp.        0.0892 Ry
        Total length         40.9758 bohr
 
 
     Adding external electric field

     Computed dipole along edir(3) : 
        Dipole               -0.3065 Ry au,         -0.7790 Debye
        Dipole field         -0.0011 Ry au
 
        Potential amp.        0.0892 Ry
        Total length         40.9758 bohr
 
 
     Magnetic moment per site:
     atom:    1    charge:   13.3443    magn:    0.8700    constr:    0.0000
     atom:    2    charge:   13.3433    magn:    0.8728    constr:    0.0000
     atom:    3    charge:   13.3457    magn:    0.8518    constr:    0.0000
     atom:    4    charge:   13.3458    magn:    0.8518    constr:    0.0000
     atom:    5    charge:   13.3645    magn:    1.3284    constr:    0.0000
     atom:    6    charge:   13.3645    magn:    1.3282    constr:    0.0000
     atom:    7    charge:   13.3576    magn:    1.2796    constr:    0.0000
     atom:    8    charge:   13.3639    magn:    1.3389    constr:    0.0000
     atom:    9    charge:   13.3411    magn:    1.4030    constr:    0.0000
     atom:   10    charge:   13.3411    magn:    1.4044    constr:    0.0000
     atom:   11    charge:   13.3506    magn:    1.5177    constr:    0.0000
     atom:   12    charge:   13.3520    magn:    1.5224    constr:    0.0000
     atom:   13    charge:    0.8732    magn:   -0.0089    constr:    0.0000

     total cpu time spent up to now is      350.5 secs

     total energy              =   -3595.39468416 Ry
     Harris-Foulkes estimate   =   -3595.63297342 Ry
     estimated scf accuracy    <       6.86311014 Ry

     total magnetization       =    16.87 Bohr mag/cell
     absolute magnetization    =    18.18 Bohr mag/cell

     iteration # 12     ecut=    36.75 Ry     beta=0.10
     Davidson diagonalization with overlap
     ethr =  1.26E-03,  avg # of iterations =  1.4
 
     Adding external electric field

     Computed dipole along edir(3) : 
        Dipole               -0.2359 Ry au,         -0.5995 Debye
        Dipole field         -0.0008 Ry au
 
        Potential amp.        0.0687 Ry
        Total length         40.9758 bohr
 
 
     Adding external electric field

     Computed dipole along edir(3) : 
        Dipole               -0.2359 Ry au,         -0.5995 Debye
        Dipole field         -0.0008 Ry au
 
        Potential amp.        0.0687 Ry
        Total length         40.9758 bohr
 
 
     Magnetic moment per site:
     atom:    1    charge:   13.3519    magn:    0.8656    constr:    0.0000
     atom:    2    charge:   13.3533    magn:    0.8674    constr:    0.0000
     atom:    3    charge:   13.3525    magn:    0.8491    constr:    0.0000
     atom:    4    charge:   13.3524    magn:    0.8492    constr:    0.0000
     atom:    5    charge:   13.3431    magn:    1.3489    constr:    0.0000
     atom:    6    charge:   13.3431    magn:    1.3488    constr:    0.0000
     atom:    7    charge:   13.3391    magn:    1.2928    constr:    0.0000
     atom:    8    charge:   13.3439    magn:    1.3577    constr:    0.0000
     atom:    9    charge:   13.3387    magn:    1.4005    constr:    0.0000
     atom:   10    charge:   13.3387    magn:    1.4020    constr:    0.0000
     atom:   11    charge:   13.3483    magn:    1.5195    constr:    0.0000
     atom:   12    charge:   13.3487    magn:    1.5264    constr:    0.0000
     atom:   13    charge:    0.8751    magn:   -0.0099    constr:    0.0000

     total cpu time spent up to now is      373.0 secs

     total energy              =   -3595.36905370 Ry
     Harris-Foulkes estimate   =   -3595.47511535 Ry
     estimated scf accuracy    <       2.18416443 Ry

     total magnetization       =    16.92 Bohr mag/cell
     absolute magnetization    =    18.45 Bohr mag/cell

     iteration # 13     ecut=    36.75 Ry     beta=0.10
     Davidson diagonalization with overlap
     ethr =  1.07E-03,  avg # of iterations =  1.7
 
     Adding external electric field

     Computed dipole along edir(3) : 
        Dipole               -0.2510 Ry au,         -0.6381 Debye
        Dipole field         -0.0009 Ry au
 
        Potential amp.        0.0731 Ry
        Total length         40.9758 bohr
 
 
     Adding external electric field

     Computed dipole along edir(3) : 
        Dipole               -0.2510 Ry au,         -0.6381 Debye
        Dipole field         -0.0009 Ry au
 
        Potential amp.        0.0731 Ry
        Total length         40.9758 bohr
 
 
     Magnetic moment per site:
     atom:    1    charge:   13.3504    magn:    0.8827    constr:    0.0000
     atom:    2    charge:   13.3498    magn:    0.8862    constr:    0.0000
     atom:    3    charge:   13.3506    magn:    0.8676    constr:    0.0000
     atom:    4    charge:   13.3507    magn:    0.8676    constr:    0.0000
     atom:    5    charge:   13.3420    magn:    1.3552    constr:    0.0000
     atom:    6    charge:   13.3420    magn:    1.3551    constr:    0.0000
     atom:    7    charge:   13.3391    magn:    1.2986    constr:    0.0000
     atom:    8    charge:   13.3424    magn:    1.3644    constr:    0.0000
     atom:    9    charge:   13.3420    magn:    1.3958    constr:    0.0000
     atom:   10    charge:   13.3420    magn:    1.3973    constr:    0.0000
     atom:   11    charge:   13.3503    magn:    1.5160    constr:    0.0000
     atom:   12    charge:   13.3513    magn:    1.5224    constr:    0.0000
     atom:   13    charge:    0.8732    magn:   -0.0103    constr:    0.0000

     total cpu time spent up to now is      396.2 secs

     total energy              =   -3595.42320743 Ry
     Harris-Foulkes estimate   =   -3595.43082872 Ry
     estimated scf accuracy    <       0.65660371 Ry

     total magnetization       =    16.97 Bohr mag/cell
     absolute magnetization    =    18.59 Bohr mag/cell

     iteration # 14     ecut=    36.75 Ry     beta=0.10
     Davidson diagonalization with overlap
     ethr =  3.20E-04,  avg # of iterations =  1.4
 
     Adding external electric field

     Computed dipole along edir(3) : 
        Dipole               -0.2360 Ry au,         -0.5999 Debye
        Dipole field         -0.0008 Ry au
 
        Potential amp.        0.0687 Ry
        Total length         40.9758 bohr
 
 
     Adding external electric field

     Computed dipole along edir(3) : 
        Dipole               -0.2360 Ry au,         -0.5999 Debye
        Dipole field         -0.0008 Ry au
 
        Potential amp.        0.0687 Ry
        Total length         40.9758 bohr
 
 
     Magnetic moment per site:
     atom:    1    charge:   13.3452    magn:    0.9133    constr:    0.0000
     atom:    2    charge:   13.3488    magn:    0.9140    constr:    0.0000
     atom:    3    charge:   13.3451    magn:    0.8996    constr:    0.0000
     atom:    4    charge:   13.3450    magn:    0.8997    constr:    0.0000
     atom:    5    charge:   13.3425    magn:    1.3700    constr:    0.0000
     atom:    6    charge:   13.3425    magn:    1.3699    constr:    0.0000
     atom:    7    charge:   13.3408    magn:    1.3117    constr:    0.0000
     atom:    8    charge:   13.3436    magn:    1.3786    constr:    0.0000
     atom:    9    charge:   13.3453    magn:    1.3922    constr:    0.0000
     atom:   10    charge:   13.3453    magn:    1.3937    constr:    0.0000
     atom:   11    charge:   13.3520    magn:    1.5175    constr:    0.0000
     atom:   12    charge:   13.3511    magn:    1.5256    constr:    0.0000
     atom:   13    charge:    0.8719    magn:   -0.0113    constr:    0.0000

     total cpu time spent up to now is      419.0 secs

     total energy              =   -3595.42375837 Ry
     Harris-Foulkes estimate   =   -3595.42936525 Ry
     estimated scf accuracy    <       0.23093072 Ry

     total magnetization       =    17.08 Bohr mag/cell
     absolute magnetization    =    18.72 Bohr mag/cell

     iteration # 15     ecut=    36.75 Ry     beta=0.10
     Davidson diagonalization with overlap
     ethr =  1.13E-04,  avg # of iterations =  2.3
 
     Adding external electric field

     Computed dipole along edir(3) : 
        Dipole               -0.2337 Ry au,         -0.5940 Debye
        Dipole field         -0.0008 Ry au
 
        Potential amp.        0.0680 Ry
        Total length         40.9758 bohr
 
 
     Adding external electric field

     Computed dipole along edir(3) : 
        Dipole               -0.2337 Ry au,         -0.5940 Debye
        Dipole field         -0.0008 Ry au
 
        Potential amp.        0.0680 Ry
        Total length         40.9758 bohr
 
 
     Magnetic moment per site:
     atom:    1    charge:   13.3444    magn:    0.9318    constr:    0.0000
     atom:    2    charge:   13.3466    magn:    0.9335    constr:    0.0000
     atom:    3    charge:   13.3444    magn:    0.9188    constr:    0.0000
     atom:    4    charge:   13.3443    magn:    0.9189    constr:    0.0000
     atom:    5    charge:   13.3409    magn:    1.3752    constr:    0.0000
     atom:    6    charge:   13.3409    magn:    1.3750    constr:    0.0000
     atom:    7    charge:   13.3399    magn:    1.3162    constr:    0.0000
     atom:    8    charge:   13.3422    magn:    1.3833    constr:    0.0000
     atom:    9    charge:   13.3450    magn:    1.3925    constr:    0.0000
     atom:   10    charge:   13.3450    magn:    1.3940    constr:    0.0000
     atom:   11    charge:   13.3510    magn:    1.5195    constr:    0.0000
     atom:   12    charge:   13.3505    magn:    1.5275    constr:    0.0000
     atom:   13    charge:    0.8706    magn:   -0.0118    constr:    0.0000

     total cpu time spent up to now is      445.4 secs

     total energy              =   -3595.46073981 Ry
     Harris-Foulkes estimate   =   -3595.46006061 Ry
     estimated scf accuracy    <       0.09200570 Ry

     total magnetization       =    18.36 Bohr mag/cell
     absolute magnetization    =    19.93 Bohr mag/cell

     iteration # 16     ecut=    36.75 Ry     beta=0.10
     Davidson diagonalization with overlap
     ethr =  4.49E-05,  avg # of iterations =  2.5
 
     Adding external electric field

     Computed dipole along edir(3) : 
        Dipole               -0.2247 Ry au,         -0.5712 Debye
        Dipole field         -0.0008 Ry au
 
        Potential amp.        0.0654 Ry
        Total length         40.9758 bohr
 
 
     Adding external electric field

     Computed dipole along edir(3) : 
        Dipole               -0.2247 Ry au,         -0.5712 Debye
        Dipole field         -0.0008 Ry au
 
        Potential amp.        0.0654 Ry
        Total length         40.9758 bohr
 
 
     Magnetic moment per site:
     atom:    1    charge:   13.3446    magn:    0.9491    constr:    0.0000
     atom:    2    charge:   13.3469    magn:    0.9506    constr:    0.0000
     atom:    3    charge:   13.3443    magn:    0.9370    constr:    0.0000
     atom:    4    charge:   13.3442    magn:    0.9372    constr:    0.0000
     atom:    5    charge:   13.3395    magn:    1.3814    constr:    0.0000
     atom:    6    charge:   13.3395    magn:    1.3812    constr:    0.0000
     atom:    7    charge:   13.3388    magn:    1.3220    constr:    0.0000
     atom:    8    charge:   13.3401    magn:    1.3897    constr:    0.0000
     atom:    9    charge:   13.3445    magn:    1.3931    constr:    0.0000
     atom:   10    charge:   13.3445    magn:    1.3945    constr:    0.0000
     atom:   11    charge:   13.3500    magn:    1.5218    constr:    0.0000
     atom:   12    charge:   13.3499    magn:    1.5297    constr:    0.0000
     atom:   13    charge:    0.8698    magn:   -0.0121    constr:    0.0000

     total cpu time spent up to now is      470.7 secs

     total energy              =   -3595.46209305 Ry
     Harris-Foulkes estimate   =   -3595.46150461 Ry
     estimated scf accuracy    <       0.10494030 Ry

     total magnetization       =    18.41 Bohr mag/cell
     absolute magnetization    =    20.01 Bohr mag/cell

     iteration # 17     ecut=    36.75 Ry     beta=0.10
     Davidson diagonalization with overlap
     ethr =  4.49E-05,  avg # of iterations =  1.0
 
     Adding external electric field

     Computed dipole along edir(3) : 
        Dipole               -0.1936 Ry au,         -0.4921 Debye
        Dipole field         -0.0007 Ry au
 
        Potential amp.        0.0564 Ry
        Total length         40.9758 bohr
 
 
     Adding external electric field

     Computed dipole along edir(3) : 
        Dipole               -0.1936 Ry au,         -0.4921 Debye
        Dipole field         -0.0007 Ry au
 
        Potential amp.        0.0564 Ry
        Total length         40.9758 bohr
 
 
     Magnetic moment per site:
     atom:    1    charge:   13.3447    magn:    1.0083    constr:    0.0000
     atom:    2    charge:   13.3471    magn:    1.0088    constr:    0.0000
     atom:    3    charge:   13.3459    magn:    0.9976    constr:    0.0000
     atom:    4    charge:   13.3458    magn:    0.9980    constr:    0.0000
     atom:    5    charge:   13.3358    magn:    1.4067    constr:    0.0000
     atom:    6    charge:   13.3357    magn:    1.4066    constr:    0.0000
     atom:    7    charge:   13.3355    magn:    1.3458    constr:    0.0000
     atom:    8    charge:   13.3392    magn:    1.4119    constr:    0.0000
     atom:    9    charge:   13.3430    magn:    1.3941    constr:    0.0000
     atom:   10    charge:   13.3430    magn:    1.3955    constr:    0.0000
     atom:   11    charge:   13.3501    magn:    1.5276    constr:    0.0000
     atom:   12    charge:   13.3481    magn:    1.5375    constr:    0.0000
     atom:   13    charge:    0.8682    magn:   -0.0135    constr:    0.0000

     total cpu time spent up to now is      492.6 secs

     total energy              =   -3595.46486172 Ry
     Harris-Foulkes estimate   =   -3595.46239249 Ry
     estimated scf accuracy    <       0.07831150 Ry

     total magnetization       =    18.44 Bohr mag/cell
     absolute magnetization    =    20.06 Bohr mag/cell

     iteration # 18     ecut=    36.75 Ry     beta=0.10
     Davidson diagonalization with overlap
     ethr =  3.82E-05,  avg # of iterations =  1.2
 
     Adding external electric field

     Computed dipole along edir(3) : 
        Dipole               -0.1466 Ry au,         -0.3727 Debye
        Dipole field         -0.0005 Ry au
 
        Potential amp.        0.0427 Ry
        Total length         40.9758 bohr
 
 
     Adding external electric field

     Computed dipole along edir(3) : 
        Dipole               -0.1466 Ry au,         -0.3727 Debye
        Dipole field         -0.0005 Ry au
 
        Potential amp.        0.0427 Ry
        Total length         40.9758 bohr
 
 
     Magnetic moment per site:
     atom:    1    charge:   13.3473    magn:    1.1734    constr:    0.0000
     atom:    2    charge:   13.3465    magn:    1.1736    constr:    0.0000
     atom:    3    charge:   13.3460    magn:    1.1709    constr:    0.0000
     atom:    4    charge:   13.3460    magn:    1.1716    constr:    0.0000
     atom:    5    charge:   13.3345    magn:    1.4670    constr:    0.0000
     atom:    6    charge:   13.3346    magn:    1.4669    constr:    0.0000
     atom:    7    charge:   13.3309    magn:    1.4068    constr:    0.0000
     atom:    8    charge:   13.3364    magn:    1.4716    constr:    0.0000
     atom:    9    charge:   13.3481    magn:    1.3900    constr:    0.0000
     atom:   10    charge:   13.3480    magn:    1.3909    constr:    0.0000
     atom:   11    charge:   13.3464    magn:    1.5432    constr:    0.0000
     atom:   12    charge:   13.3474    magn:    1.5518    constr:    0.0000
     atom:   13    charge:    0.8619    magn:   -0.0167    constr:    0.0000

     total cpu time spent up to now is      514.9 secs

     total energy              =   -3595.47360651 Ry
     Harris-Foulkes estimate   =   -3595.46582579 Ry
     estimated scf accuracy    <       0.04523947 Ry

     total magnetization       =    18.53 Bohr mag/cell
     absolute magnetization    =    20.24 Bohr mag/cell

     iteration # 19     ecut=    36.75 Ry     beta=0.10
     Davidson diagonalization with overlap
     ethr =  2.21E-05,  avg # of iterations =  3.4

     negative rho (up, down):  3.400E-08 0.000E+00
 
     Adding external electric field

     Computed dipole along edir(3) : 
        Dipole               -0.0978 Ry au,         -0.2486 Debye
        Dipole field         -0.0003 Ry au
 
        Potential amp.        0.0285 Ry
        Total length         40.9758 bohr
 
 
     Adding external electric field

     Computed dipole along edir(3) : 
        Dipole               -0.0978 Ry au,         -0.2486 Debye
        Dipole field         -0.0003 Ry au
 
        Potential amp.        0.0285 Ry
        Total length         40.9758 bohr
 
 
     Magnetic moment per site:
     atom:    1    charge:   13.3471    magn:    1.2920    constr:    0.0000
     atom:    2    charge:   13.3472    magn:    1.2899    constr:    0.0000
     atom:    3    charge:   13.3471    magn:    1.2934    constr:    0.0000
     atom:    4    charge:   13.3471    magn:    1.2945    constr:    0.0000
     atom:    5    charge:   13.3336    magn:    1.5127    constr:    0.0000
     atom:    6    charge:   13.3336    magn:    1.5127    constr:    0.0000
     atom:    7    charge:   13.3324    magn:    1.4494    constr:    0.0000
     atom:    8    charge:   13.3342    magn:    1.5167    constr:    0.0000
     atom:    9    charge:   13.3468    magn:    1.3892    constr:    0.0000
     atom:   10    charge:   13.3467    magn:    1.3898    constr:    0.0000
     atom:   11    charge:   13.3487    magn:    1.5511    constr:    0.0000
     atom:   12    charge:   13.3491    magn:    1.5606    constr:    0.0000
     atom:   13    charge:    0.8591    magn:   -0.0191    constr:    0.0000

     total cpu time spent up to now is      540.1 secs

     total energy              =   -3595.48162222 Ry
     Harris-Foulkes estimate   =   -3595.47777751 Ry
     estimated scf accuracy    <       0.05044458 Ry

     total magnetization       =    18.74 Bohr mag/cell
     absolute magnetization    =    20.72 Bohr mag/cell

     iteration # 20     ecut=    36.75 Ry     beta=0.10
     Davidson diagonalization with overlap
     ethr =  2.21E-05,  avg # of iterations =  1.2

     negative rho (up, down):  5.634E-07 1.994E-08
 
     Adding external electric field

     Computed dipole along edir(3) : 
        Dipole               -0.0701 Ry au,         -0.1781 Debye
        Dipole field         -0.0002 Ry au
 
        Potential amp.        0.0204 Ry
        Total length         40.9758 bohr
 
 
     Adding external electric field

     Computed dipole along edir(3) : 
        Dipole               -0.0701 Ry au,         -0.1781 Debye
        Dipole field         -0.0002 Ry au
 
        Potential amp.        0.0204 Ry
        Total length         40.9758 bohr
 
 
     Magnetic moment per site:
     atom:    1    charge:   13.3469    magn:    1.3676    constr:    0.0000
     atom:    2    charge:   13.3469    magn:    1.3652    constr:    0.0000
     atom:    3    charge:   13.3466    magn:    1.3727    constr:    0.0000
     atom:    4    charge:   13.3466    magn:    1.3740    constr:    0.0000
     atom:    5    charge:   13.3343    magn:    1.5402    constr:    0.0000
     atom:    6    charge:   13.3343    magn:    1.5401    constr:    0.0000
     atom:    7    charge:   13.3330    magn:    1.4766    constr:    0.0000
     atom:    8    charge:   13.3347    magn:    1.5428    constr:    0.0000
     atom:    9    charge:   13.3454    magn:    1.3871    constr:    0.0000
     atom:   10    charge:   13.3454    magn:    1.3876    constr:    0.0000
     atom:   11    charge:   13.3482    magn:    1.5575    constr:    0.0000
     atom:   12    charge:   13.3482    magn:    1.5673    constr:    0.0000
     atom:   13    charge:    0.8582    magn:   -0.0205    constr:    0.0000

     total cpu time spent up to now is      562.3 secs

     total energy              =   -3595.48544195 Ry
     Harris-Foulkes estimate   =   -3595.48328311 Ry
     estimated scf accuracy    <       0.01338913 Ry

     total magnetization       =    18.83 Bohr mag/cell
     absolute magnetization    =    21.00 Bohr mag/cell

     iteration # 21     ecut=    36.75 Ry     beta=0.10
     Davidson diagonalization with overlap
     ethr =  6.53E-06,  avg # of iterations =  4.0

     negative rho (up, down):  1.565E-05 1.006E-06
 
     Adding external electric field

     Computed dipole along edir(3) : 
        Dipole               -0.0421 Ry au,         -0.1069 Debye
        Dipole field         -0.0001 Ry au
 
        Potential amp.        0.0122 Ry
        Total length         40.9758 bohr
 
 
     Adding external electric field

     Computed dipole along edir(3) : 
        Dipole               -0.0421 Ry au,         -0.1069 Debye
        Dipole field         -0.0001 Ry au
 
        Potential amp.        0.0122 Ry
        Total length         40.9758 bohr
 
 
     Magnetic moment per site:
     atom:    1    charge:   13.3453    magn:    1.4279    constr:    0.0000
     atom:    2    charge:   13.3463    magn:    1.4243    constr:    0.0000
     atom:    3    charge:   13.3461    magn:    1.4345    constr:    0.0000
     atom:    4    charge:   13.3460    magn:    1.4359    constr:    0.0000
     atom:    5    charge:   13.3340    magn:    1.5608    constr:    0.0000
     atom:    6    charge:   13.3340    magn:    1.5607    constr:    0.0000
     atom:    7    charge:   13.3335    magn:    1.4959    constr:    0.0000
     atom:    8    charge:   13.3346    magn:    1.5623    constr:    0.0000
     atom:    9    charge:   13.3447    magn:    1.3832    constr:    0.0000
     atom:   10    charge:   13.3446    magn:    1.3836    constr:    0.0000
     atom:   11    charge:   13.3456    magn:    1.5616    constr:    0.0000
     atom:   12    charge:   13.3463    magn:    1.5717    constr:    0.0000
     atom:   13    charge:    0.8585    magn:   -0.0217    constr:    0.0000

     total cpu time spent up to now is      588.9 secs

     total energy              =   -3595.48795542 Ry
     Harris-Foulkes estimate   =   -3595.48665163 Ry
     estimated scf accuracy    <       0.00829565 Ry

     total magnetization       =    18.87 Bohr mag/cell
     absolute magnetization    =    21.24 Bohr mag/cell

     iteration # 22     ecut=    36.75 Ry     beta=0.10
     Davidson diagonalization with overlap
     ethr =  4.05E-06,  avg # of iterations =  1.9

     negative rho (up, down):  4.055E-05 3.689E-06
 
     Adding external electric field

     Computed dipole along edir(3) : 
        Dipole               -0.0318 Ry au,         -0.0808 Debye
        Dipole field         -0.0001 Ry au
 
        Potential amp.        0.0092 Ry
        Total length         40.9758 bohr
 
 
     Adding external electric field

     Computed dipole along edir(3) : 
        Dipole               -0.0318 Ry au,         -0.0808 Debye
        Dipole field         -0.0001 Ry au
 
        Potential amp.        0.0092 Ry
        Total length         40.9758 bohr
 
 
     Magnetic moment per site:
     atom:    1    charge:   13.3460    magn:    1.4555    constr:    0.0000
     atom:    2    charge:   13.3451    magn:    1.4534    constr:    0.0000
     atom:    3    charge:   13.3448    magn:    1.4649    constr:    0.0000
     atom:    4    charge:   13.3449    magn:    1.4661    constr:    0.0000
     atom:    5    charge:   13.3358    magn:    1.5698    constr:    0.0000
     atom:    6    charge:   13.3357    magn:    1.5698    constr:    0.0000
     atom:    7    charge:   13.3348    magn:    1.5052    constr:    0.0000
     atom:    8    charge:   13.3361    magn:    1.5713    constr:    0.0000
     atom:    9    charge:   13.3440    magn:    1.3798    constr:    0.0000
     atom:   10    charge:   13.3440    magn:    1.3800    constr:    0.0000
     atom:   11    charge:   13.3461    magn:    1.5609    constr:    0.0000
     atom:   12    charge:   13.3462    magn:    1.5721    constr:    0.0000
     atom:   13    charge:    0.8598    magn:   -0.0223    constr:    0.0000

     total cpu time spent up to now is      613.0 secs

     total energy              =   -3595.48851517 Ry
     Harris-Foulkes estimate   =   -3595.48834884 Ry
     estimated scf accuracy    <       0.00619737 Ry

     total magnetization       =    18.89 Bohr mag/cell
     absolute magnetization    =    21.35 Bohr mag/cell

     iteration # 23     ecut=    36.75 Ry     beta=0.10
     Davidson diagonalization with overlap
     ethr =  3.02E-06,  avg # of iterations =  2.8

     negative rho (up, down):  3.286E-04 1.475E-04
 
     Adding external electric field

     Computed dipole along edir(3) : 
        Dipole               -0.0179 Ry au,         -0.0454 Debye
        Dipole field         -0.0001 Ry au
 
        Potential amp.        0.0052 Ry
        Total length         40.9758 bohr
 
 
     Adding external electric field

     Computed dipole along edir(3) : 
        Dipole               -0.0179 Ry au,         -0.0454 Debye
        Dipole field         -0.0001 Ry au
 
        Potential amp.        0.0052 Ry
        Total length         40.9758 bohr
 
 
     Magnetic moment per site:
     atom:    1    charge:   13.3446    magn:    1.4925    constr:    0.0000
     atom:    2    charge:   13.3445    magn:    1.4898    constr:    0.0000
     atom:    3    charge:   13.3445    magn:    1.5025    constr:    0.0000
     atom:    4    charge:   13.3444    magn:    1.5038    constr:    0.0000
     atom:    5    charge:   13.3365    magn:    1.5812    constr:    0.0000
     atom:    6    charge:   13.3365    magn:    1.5812    constr:    0.0000
     atom:    7    charge:   13.3348    magn:    1.5167    constr:    0.0000
     atom:    8    charge:   13.3364    magn:    1.5825    constr:    0.0000
     atom:    9    charge:   13.3432    magn:    1.3764    constr:    0.0000
     atom:   10    charge:   13.3432    magn:    1.3766    constr:    0.0000
     atom:   11    charge:   13.3450    magn:    1.5624    constr:    0.0000
     atom:   12    charge:   13.3458    magn:    1.5739    constr:    0.0000
     atom:   13    charge:    0.8607    magn:   -0.0231    constr:    0.0000

     total cpu time spent up to now is      638.0 secs

     total energy              =   -3595.48927007 Ry
     Harris-Foulkes estimate   =   -3595.48891160 Ry
     estimated scf accuracy    <       0.00281677 Ry

     total magnetization       =    18.90 Bohr mag/cell
     absolute magnetization    =    21.44 Bohr mag/cell

     iteration # 24     ecut=    36.75 Ry     beta=0.10
     Davidson diagonalization with overlap
     ethr =  1.37E-06,  avg # of iterations =  3.0

     negative rho (up, down):  1.905E-04 4.763E-05
 
     Adding external electric field

     Computed dipole along edir(3) : 
        Dipole               -0.0195 Ry au,         -0.0497 Debye
        Dipole field         -0.0001 Ry au
 
        Potential amp.        0.0057 Ry
        Total length         40.9758 bohr
 
 
     Adding external electric field

     Computed dipole along edir(3) : 
        Dipole               -0.0195 Ry au,         -0.0497 Debye
        Dipole field         -0.0001 Ry au
 
        Potential amp.        0.0057 Ry
        Total length         40.9758 bohr
 
 
     Magnetic moment per site:
     atom:    1    charge:   13.3444    magn:    1.4905    constr:    0.0000
     atom:    2    charge:   13.3443    magn:    1.4883    constr:    0.0000
     atom:    3    charge:   13.3438    magn:    1.5009    constr:    0.0000
     atom:    4    charge:   13.3438    magn:    1.5020    constr:    0.0000
     atom:    5    charge:   13.3364    magn:    1.5801    constr:    0.0000
     atom:    6    charge:   13.3364    magn:    1.5801    constr:    0.0000
     atom:    7    charge:   13.3359    magn:    1.5144    constr:    0.0000
     atom:    8    charge:   13.3368    magn:    1.5808    constr:    0.0000
     atom:    9    charge:   13.3432    magn:    1.3748    constr:    0.0000
     atom:   10    charge:   13.3432    magn:    1.3750    constr:    0.0000
     atom:   11    charge:   13.3452    magn:    1.5611    constr:    0.0000
     atom:   12    charge:   13.3454    magn:    1.5737    constr:    0.0000
     atom:   13    charge:    0.8617    magn:   -0.0231    constr:    0.0000

     total cpu time spent up to now is      663.2 secs

     total energy              =   -3595.48938189 Ry
     Harris-Foulkes estimate   =   -3595.48943995 Ry
     estimated scf accuracy    <       0.00142484 Ry

     total magnetization       =    18.90 Bohr mag/cell
     absolute magnetization    =    21.53 Bohr mag/cell

     iteration # 25     ecut=    36.75 Ry     beta=0.10
     Davidson diagonalization with overlap
     ethr =  6.95E-07,  avg # of iterations =  2.6

     negative rho (up, down):  5.877E-04 3.642E-04
 
     Adding external electric field

     Computed dipole along edir(3) : 
        Dipole               -0.0066 Ry au,         -0.0169 Debye
        Dipole field         -0.0000 Ry au
 
        Potential amp.        0.0019 Ry
        Total length         40.9758 bohr
 
 
     Adding external electric field

     Computed dipole along edir(3) : 
        Dipole               -0.0066 Ry au,         -0.0169 Debye
        Dipole field         -0.0000 Ry au
 
        Potential amp.        0.0019 Ry
        Total length         40.9758 bohr
 
 
     Magnetic moment per site:
     atom:    1    charge:   13.3441    magn:    1.5128    constr:    0.0000
     atom:    2    charge:   13.3440    magn:    1.5110    constr:    0.0000
     atom:    3    charge:   13.3430    magn:    1.5244    constr:    0.0000
     atom:    4    charge:   13.3430    magn:    1.5254    constr:    0.0000
     atom:    5    charge:   13.3365    magn:    1.5868    constr:    0.0000
     atom:    6    charge:   13.3365    magn:    1.5868    constr:    0.0000
     atom:    7    charge:   13.3356    magn:    1.5207    constr:    0.0000
     atom:    8    charge:   13.3365    magn:    1.5873    constr:    0.0000
     atom:    9    charge:   13.3426    magn:    1.3716    constr:    0.0000
     atom:   10    charge:   13.3426    magn:    1.3717    constr:    0.0000
     atom:   11    charge:   13.3449    magn:    1.5614    constr:    0.0000
     atom:   12    charge:   13.3453    magn:    1.5748    constr:    0.0000
     atom:   13    charge:    0.8628    magn:   -0.0238    constr:    0.0000

     total cpu time spent up to now is      688.0 secs

     total energy              =   -3595.48963629 Ry
     Harris-Foulkes estimate   =   -3595.48946847 Ry
     estimated scf accuracy    <       0.00209043 Ry

     total magnetization       =    18.90 Bohr mag/cell
     absolute magnetization    =    21.55 Bohr mag/cell

     iteration # 26     ecut=    36.75 Ry     beta=0.10
     Davidson diagonalization with overlap
     ethr =  6.95E-07,  avg # of iterations =  2.7

     negative rho (up, down):  4.621E-04 2.265E-04
 
     Adding external electric field

     Computed dipole along edir(3) : 
        Dipole               -0.0043 Ry au,         -0.0109 Debye
        Dipole field         -0.0000 Ry au
 
        Potential amp.        0.0012 Ry
        Total length         40.9758 bohr
 
 
     Adding external electric field

     Computed dipole along edir(3) : 
        Dipole               -0.0043 Ry au,         -0.0109 Debye
        Dipole field         -0.0000 Ry au
 
        Potential amp.        0.0012 Ry
        Total length         40.9758 bohr
 
 
     Magnetic moment per site:
     atom:    1    charge:   13.3430    magn:    1.5176    constr:    0.0000
     atom:    2    charge:   13.3428    magn:    1.5162    constr:    0.0000
     atom:    3    charge:   13.3427    magn:    1.5285    constr:    0.0000
     atom:    4    charge:   13.3427    magn:    1.5293    constr:    0.0000
     atom:    5    charge:   13.3364    magn:    1.5868    constr:    0.0000
     atom:    6    charge:   13.3364    magn:    1.5869    constr:    0.0000
     atom:    7    charge:   13.3355    magn:    1.5202    constr:    0.0000
     atom:    8    charge:   13.3371    magn:    1.5865    constr:    0.0000
     atom:    9    charge:   13.3426    magn:    1.3686    constr:    0.0000
     atom:   10    charge:   13.3426    magn:    1.3687    constr:    0.0000
     atom:   11    charge:   13.3453    magn:    1.5600    constr:    0.0000
     atom:   12    charge:   13.3452    magn:    1.5748    constr:    0.0000
     atom:   13    charge:    0.8641    magn:   -0.0241    constr:    0.0000

     total cpu time spent up to now is      712.2 secs

     total energy              =   -3595.48980876 Ry
     Harris-Foulkes estimate   =   -3595.48973479 Ry
     estimated scf accuracy    <       0.00086932 Ry

     total magnetization       =    18.91 Bohr mag/cell
     absolute magnetization    =    21.61 Bohr mag/cell

     iteration # 27     ecut=    36.75 Ry     beta=0.10
     Davidson diagonalization with overlap
     ethr =  4.24E-07,  avg # of iterations =  2.9

     negative rho (up, down):  4.912E-04 2.420E-04
 
     Adding external electric field

     Computed dipole along edir(3) : 
        Dipole               -0.0018 Ry au,         -0.0045 Debye
        Dipole field         -0.0000 Ry au
 
        Potential amp.        0.0005 Ry
        Total length         40.9758 bohr
 
 
     Adding external electric field

     Computed dipole along edir(3) : 
        Dipole               -0.0018 Ry au,         -0.0045 Debye
        Dipole field         -0.0000 Ry au
 
        Potential amp.        0.0005 Ry
        Total length         40.9758 bohr
 
 
     Magnetic moment per site:
     atom:    1    charge:   13.3426    magn:    1.5231    constr:    0.0000
     atom:    2    charge:   13.3428    magn:    1.5218    constr:    0.0000
     atom:    3    charge:   13.3421    magn:    1.5342    constr:    0.0000
     atom:    4    charge:   13.3421    magn:    1.5349    constr:    0.0000
     atom:    5    charge:   13.3364    magn:    1.5876    constr:    0.0000
     atom:    6    charge:   13.3364    magn:    1.5876    constr:    0.0000
     atom:    7    charge:   13.3357    magn:    1.5205    constr:    0.0000
     atom:    8    charge:   13.3368    magn:    1.5873    constr:    0.0000
     atom:    9    charge:   13.3426    magn:    1.3666    constr:    0.0000
     atom:   10    charge:   13.3426    magn:    1.3667    constr:    0.0000
     atom:   11    charge:   13.3449    magn:    1.5598    constr:    0.0000
     atom:   12    charge:   13.3453    magn:    1.5748    constr:    0.0000
     atom:   13    charge:    0.8648    magn:   -0.0243    constr:    0.0000

     total cpu time spent up to now is      737.5 secs

     total energy              =   -3595.48996487 Ry
     Harris-Foulkes estimate   =   -3595.48988631 Ry
     estimated scf accuracy    <       0.00088544 Ry

     total magnetization       =    18.91 Bohr mag/cell
     absolute magnetization    =    21.64 Bohr mag/cell

     iteration # 28     ecut=    36.75 Ry     beta=0.10
     Davidson diagonalization with overlap
     ethr =  4.24E-07,  avg # of iterations =  1.2

     negative rho (up, down):  9.125E-04 7.042E-04
 
     Adding external electric field

     Computed dipole along edir(3) : 
        Dipole                0.0037 Ry au,          0.0093 Debye
        Dipole field          0.0000 Ry au
 
        Potential amp.       -0.0011 Ry
        Total length         40.9758 bohr
 
 
     Adding external electric field

     Computed dipole along edir(3) : 
        Dipole                0.0037 Ry au,          0.0093 Debye
        Dipole field          0.0000 Ry au
 
        Potential amp.       -0.0011 Ry
        Total length         40.9758 bohr
 
 
     Magnetic moment per site:
     atom:    1    charge:   13.3424    magn:    1.5369    constr:    0.0000
     atom:    2    charge:   13.3426    magn:    1.5358    constr:    0.0000
     atom:    3    charge:   13.3418    magn:    1.5481    constr:    0.0000
     atom:    4    charge:   13.3418    magn:    1.5488    constr:    0.0000
     atom:    5    charge:   13.3364    magn:    1.5913    constr:    0.0000
     atom:    6    charge:   13.3364    magn:    1.5913    constr:    0.0000
     atom:    7    charge:   13.3355    magn:    1.5239    constr:    0.0000
     atom:    8    charge:   13.3367    magn:    1.5905    constr:    0.0000
     atom:    9    charge:   13.3427    magn:    1.3650    constr:    0.0000
     atom:   10    charge:   13.3427    magn:    1.3651    constr:    0.0000
     atom:   11    charge:   13.3447    magn:    1.5602    constr:    0.0000
     atom:   12    charge:   13.3451    magn:    1.5759    constr:    0.0000
     atom:   13    charge:    0.8648    magn:   -0.0246    constr:    0.0000

     total cpu time spent up to now is      759.7 secs

     total energy              =   -3595.49006345 Ry
     Harris-Foulkes estimate   =   -3595.48998753 Ry
     estimated scf accuracy    <       0.00052310 Ry

     total magnetization       =    18.91 Bohr mag/cell
     absolute magnetization    =    21.66 Bohr mag/cell

     iteration # 29     ecut=    36.75 Ry     beta=0.10
     Davidson diagonalization with overlap
     ethr =  2.55E-07,  avg # of iterations =  3.1

     negative rho (up, down):  8.710E-04 6.419E-04
 
     Adding external electric field

     Computed dipole along edir(3) : 
        Dipole                0.0035 Ry au,          0.0088 Debye
        Dipole field          0.0000 Ry au
 
        Potential amp.       -0.0010 Ry
        Total length         40.9758 bohr
 
 
     Adding external electric field

     Computed dipole along edir(3) : 
        Dipole                0.0035 Ry au,          0.0088 Debye
        Dipole field          0.0000 Ry au
 
        Potential amp.       -0.0010 Ry
        Total length         40.9758 bohr
 
 
     Magnetic moment per site:
     atom:    1    charge:   13.3422    magn:    1.5385    constr:    0.0000
     atom:    2    charge:   13.3425    magn:    1.5373    constr:    0.0000
     atom:    3    charge:   13.3418    magn:    1.5494    constr:    0.0000
     atom:    4    charge:   13.3417    magn:    1.5500    constr:    0.0000
     atom:    5    charge:   13.3363    magn:    1.5910    constr:    0.0000
     atom:    6    charge:   13.3363    magn:    1.5910    constr:    0.0000
     atom:    7    charge:   13.3357    magn:    1.5232    constr:    0.0000
     atom:    8    charge:   13.3367    magn:    1.5900    constr:    0.0000
     atom:    9    charge:   13.3427    magn:    1.3643    constr:    0.0000
     atom:   10    charge:   13.3427    magn:    1.3644    constr:    0.0000
     atom:   11    charge:   13.3450    magn:    1.5598    constr:    0.0000
     atom:   12    charge:   13.3453    magn:    1.5758    constr:    0.0000
     atom:   13    charge:    0.8649    magn:   -0.0247    constr:    0.0000

     total cpu time spent up to now is      784.4 secs

     total energy              =   -3595.49012708 Ry
     Harris-Foulkes estimate   =   -3595.49009672 Ry
     estimated scf accuracy    <       0.00015397 Ry

     total magnetization       =    18.91 Bohr mag/cell
     absolute magnetization    =    21.70 Bohr mag/cell

     iteration # 30     ecut=    36.75 Ry     beta=0.10
     Davidson diagonalization with overlap
     ethr =  7.51E-08,  avg # of iterations =  2.4

     negative rho (up, down):  1.058E-03 8.690E-04
 
     Adding external electric field

     Computed dipole along edir(3) : 
        Dipole                0.0045 Ry au,          0.0114 Debye
        Dipole field          0.0000 Ry au
 
        Potential amp.       -0.0013 Ry
        Total length         40.9758 bohr
 
 
     Adding external electric field

     Computed dipole along edir(3) : 
        Dipole                0.0045 Ry au,          0.0114 Debye
        Dipole field          0.0000 Ry au
 
        Potential amp.       -0.0013 Ry
        Total length         40.9758 bohr
 
 
     Magnetic moment per site:
     atom:    1    charge:   13.3421    magn:    1.5464    constr:    0.0000
     atom:    2    charge:   13.3423    magn:    1.5454    constr:    0.0000
     atom:    3    charge:   13.3415    magn:    1.5574    constr:    0.0000
     atom:    4    charge:   13.3415    magn:    1.5580    constr:    0.0000
     atom:    5    charge:   13.3365    magn:    1.5924    constr:    0.0000
     atom:    6    charge:   13.3365    magn:    1.5924    constr:    0.0000
     atom:    7    charge:   13.3356    magn:    1.5246    constr:    0.0000
     atom:    8    charge:   13.3369    magn:    1.5912    constr:    0.0000
     atom:    9    charge:   13.3427    magn:    1.3630    constr:    0.0000
     atom:   10    charge:   13.3428    magn:    1.3631    constr:    0.0000
     atom:   11    charge:   13.3450    magn:    1.5599    constr:    0.0000
     atom:   12    charge:   13.3453    magn:    1.5763    constr:    0.0000
     atom:   13    charge:    0.8649    magn:   -0.0249    constr:    0.0000

     total cpu time spent up to now is      809.2 secs

     total energy              =   -3595.49017514 Ry
     Harris-Foulkes estimate   =   -3595.49013297 Ry
     estimated scf accuracy    <       0.00014919 Ry

     total magnetization       =    18.91 Bohr mag/cell
     absolute magnetization    =    21.71 Bohr mag/cell

     iteration # 31     ecut=    36.75 Ry     beta=0.10
     Davidson diagonalization with overlap
     ethr =  7.28E-08,  avg # of iterations =  3.0

     negative rho (up, down):  6.621E-04 3.212E-04
 
     Adding external electric field

     Computed dipole along edir(3) : 
        Dipole                0.0067 Ry au,          0.0171 Debye
        Dipole field          0.0000 Ry au
 
        Potential amp.       -0.0020 Ry
        Total length         40.9758 bohr
 
 
     Adding external electric field

     Computed dipole along edir(3) : 
        Dipole                0.0067 Ry au,          0.0171 Debye
        Dipole field          0.0000 Ry au
 
        Potential amp.       -0.0020 Ry
        Total length         40.9758 bohr
 
 
     Magnetic moment per site:
     atom:    1    charge:   13.3408    magn:    1.5539    constr:    0.0000
     atom:    2    charge:   13.3419    magn:    1.5522    constr:    0.0000
     atom:    3    charge:   13.3424    magn:    1.5608    constr:    0.0000
     atom:    4    charge:   13.3423    magn:    1.5611    constr:    0.0000
     atom:    5    charge:   13.3352    magn:    1.5873    constr:    0.0000
     atom:    6    charge:   13.3352    magn:    1.5873    constr:    0.0000
     atom:    7    charge:   13.3363    magn:    1.5169    constr:    0.0000
     atom:    8    charge:   13.3353    magn:    1.5856    constr:    0.0000
     atom:    9    charge:   13.3446    magn:    1.3568    constr:    0.0000
     atom:   10    charge:   13.3445    magn:    1.3569    constr:    0.0000
     atom:   11    charge:   13.3439    magn:    1.5597    constr:    0.0000
     atom:   12    charge:   13.3458    magn:    1.5766    constr:    0.0000
     atom:   13    charge:    0.8644    magn:   -0.0252    constr:    0.0000

     total cpu time spent up to now is      834.5 secs

     End of self-consistent calculation

 ------ SPIN UP ------------


          k = 0.0000 0.0000 0.0000 ( 13257 PWs)   bands (ev):

   -95.6250 -95.5999 -95.5937 -95.5467 -95.4197 -95.3930 -95.3713 -95.3460
   -95.3370 -95.3313 -95.2435 -95.2287 -58.9851 -58.9695 -58.9650 -58.9245
   -58.8805 -58.8773 -58.8421 -58.8106 -58.7974 -58.7901 -58.7370 -58.7343
   -58.7303 -58.7121 -58.7028 -58.6948 -58.6839 -58.6743 -58.6739 -58.6714
   -58.6637 -58.6597 -58.6449 -58.6415 -58.5715 -58.5514 -58.5270 -58.5221
   -58.5190 -58.5092 -58.4831 -58.4702 -58.4689 -58.4338 -58.4211 -58.4091
    -7.3359  -5.8123  -4.5724  -4.1192  -4.0631  -4.0613  -3.9609  -3.8754
    -3.8619  -3.6778  -3.4900  -3.4880  -3.4156  -3.3191  -3.3139  -2.9657
    -2.6379  -2.6356  -2.3421  -2.1340  -2.1278  -2.0629  -1.9952  -1.9562
    -1.9550  -1.8469  -1.7786  -1.7569  -1.7453  -1.7143  -1.6421  -1.5450
    -1.5298  -1.4661  -1.4152  -1.3560  -0.9244  -0.9202  -0.8853  -0.8824
    -0.8765  -0.8110  -0.7998  -0.6522  -0.5780  -0.5567  -0.3064  -0.3032
    -0.2956  -0.2791  -0.2761  -0.2511  -0.2025  -0.1849  -0.0814  -0.0687
    -0.0637   0.1618   0.1879   0.1936   0.2109   0.2118   0.2375   0.5599

          k = 0.0000 0.1925 0.0000 ( 13286 PWs)   bands (ev):

   -95.6233 -95.5999 -95.5950 -95.5471 -95.4195 -95.3929 -95.3695 -95.3460
   -95.3389 -95.3313 -95.2438 -95.2287 -58.9763 -58.9570 -58.9561 -58.9210
   -58.8795 -58.8783 -58.8414 -58.8176 -58.7998 -58.7969 -58.7505 -58.7402
   -58.7263 -58.7053 -58.6981 -58.6879 -58.6767 -58.6692 -58.6679 -58.6657
   -58.6591 -58.6584 -58.6448 -58.6416 -58.5792 -58.5491 -58.5348 -58.5266
   -58.5192 -58.5103 -58.4858 -58.4826 -58.4723 -58.4348 -58.4254 -58.4189
    -7.1088  -5.6493  -4.4427  -4.0983  -4.0018  -3.9634  -3.9120  -3.7803
    -3.7632  -3.6071  -3.4330  -3.4127  -3.3662  -3.1787  -3.1773  -2.9219
    -2.6238  -2.5921  -2.3466  -2.1636  -2.0897  -2.0743  -2.0280  -1.9732
    -1.9268  -1.8682  -1.8566  -1.8347  -1.7445  -1.6647  -1.6484  -1.5952
    -1.5411  -1.4866  -1.4484  -1.4417  -1.0459  -1.0074  -0.9777  -0.9427
    -0.9256  -0.9029  -0.8605  -0.8535  -0.6739  -0.5782  -0.4664  -0.4039
    -0.4022  -0.3886  -0.3588  -0.3336  -0.2915  -0.2444  -0.1974  -0.1632
    -0.1274  -0.0852  -0.0242   0.0632   0.0703   0.0812   0.1045   0.5587

          k = 0.0000 0.3849 0.0000 ( 13322 PWs)   bands (ev):

   -95.6192 -95.5999 -95.5985 -95.5478 -95.4189 -95.3927 -95.3648 -95.3460
   -95.3435 -95.3313 -95.2446 -95.2287 -58.9576 -58.9331 -58.9233 -58.9098
   -58.8824 -58.8777 -58.8410 -58.8405 -58.8250 -58.7908 -58.7847 -58.7479
[...]
    -6.8000  -5.3178  -3.9403  -3.6058  -3.4929  -2.9060  -2.7699  -2.6240
    -2.4648  -2.3897  -2.0422  -1.9999  -1.9395  -1.8442  -1.7890  -1.6162
    -1.3010  -1.2933  -1.1932  -0.8422  -0.6774  -0.5916  -0.5715  -0.5527
    -0.4451  -0.3287  -0.2231  -0.1883  -0.1693  -0.1274  -0.0766  -0.0447
     0.0190   0.1079   0.1432   0.1605   0.1816   0.2483   0.3294   0.3678
     0.3914   0.4611   0.4993   0.7785   0.8459   0.8987   0.9297   1.0808
     1.2597   1.2858   1.4053   1.4683   1.4980   1.5342   1.5831   1.6359
     1.6830   1.7220   1.7308   1.8585   1.8771   1.8995   1.9857   2.1362

          k = 0.3333-0.1925 0.0000 ( 13322 PWs)   bands (ev):

   -93.2887 -93.2503 -93.2375 -93.2297 -93.2210 -93.2117 -93.0813 -93.0712
   -93.0520 -93.0352 -93.0264 -93.0261 -56.7568 -56.7219 -56.7110 -56.6904
   -56.6637 -56.6502 -56.6407 -56.6299 -56.6106 -56.5924 -56.5833 -56.5634
   -56.5564 -56.5498 -56.5375 -56.5027 -56.4864 -56.4811 -56.4708 -56.4645
   -56.4437 -56.4383 -56.4132 -56.4028 -56.3910 -56.3843 -56.3776 -56.3770
   -56.3723 -56.3527 -56.3426 -56.3396 -56.3375 -56.3367 -56.3307 -56.3023
    -6.5744  -5.1654  -4.2652  -3.7347  -2.9945  -2.8844  -2.8783  -2.6419
    -2.4510  -2.3434  -2.0614  -1.9058  -1.8896  -1.7179  -1.7063  -1.5870
    -1.2789  -1.2560  -1.1871  -0.9483  -0.7489  -0.7364  -0.7165  -0.5529
    -0.4619  -0.2886  -0.2511  -0.2452  -0.2260  -0.1892  -0.1158  -0.0560
     0.0038   0.0435   0.1285   0.1559   0.1777   0.1821   0.2177   0.2387
     0.2733   0.3731   0.5785   0.7603   0.7837   0.9313   0.9784   1.0590
     1.1741   1.2750   1.2782   1.3574   1.3944   1.4254   1.4481   1.5611
     1.5843   1.6513   1.7015   1.7452   1.8495   1.8950   1.9496   1.9810

          k = 0.3333-0.0000 0.0000 ( 13291 PWs)   bands (ev):

   -93.2895 -93.2502 -93.2373 -93.2290 -93.2216 -93.2115 -93.0810 -93.0712
   -93.0540 -93.0322 -93.0292 -93.0244 -56.7601 -56.7244 -56.7209 -56.7011
   -56.6647 -56.6521 -56.6470 -56.6329 -56.6107 -56.5922 -56.5687 -56.5627
   -56.5572 -56.5480 -56.5360 -56.5011 -56.4890 -56.4854 -56.4788 -56.4702
   -56.4401 -56.4285 -56.4185 -56.3927 -56.3889 -56.3876 -56.3839 -56.3751
   -56.3471 -56.3464 -56.3462 -56.3412 -56.3373 -56.3366 -56.3327 -56.2987
    -6.7898  -5.2897  -3.8555  -3.6063  -3.5696  -2.8480  -2.7763  -2.6822
    -2.6105  -2.2803  -2.0489  -2.0320  -1.9262  -1.8219  -1.8037  -1.6777
    -1.3012  -1.2993  -1.2295  -0.8426  -0.6754  -0.5942  -0.5618  -0.5546
    -0.4571  -0.3355  -0.2121  -0.1941  -0.1700  -0.0970  -0.0775  -0.0498
     0.0080   0.0998   0.1111   0.1500   0.2014   0.2502   0.3225   0.3704
     0.3943   0.4644   0.4933   0.7688   0.8763   0.9005   0.9386   1.1063
     1.2435   1.3056   1.4330   1.4610   1.4957   1.5290   1.5930   1.6625
     1.6903   1.7074   1.7297   1.8461   1.8774   1.8986   2.0048   2.1495

          k = 0.3333 0.1925 0.0000 ( 13322 PWs)   bands (ev):

   -93.2887 -93.2503 -93.2375 -93.2297 -93.2210 -93.2117 -93.0813 -93.0712
   -93.0520 -93.0352 -93.0264 -93.0261 -56.7568 -56.7219 -56.7110 -56.6904
   -56.6637 -56.6502 -56.6407 -56.6299 -56.6106 -56.5924 -56.5833 -56.5634
   -56.5564 -56.5498 -56.5375 -56.5027 -56.4864 -56.4811 -56.4708 -56.4645
   -56.4437 -56.4383 -56.4132 -56.4028 -56.3910 -56.3843 -56.3776 -56.3770
   -56.3723 -56.3527 -56.3426 -56.3396 -56.3375 -56.3367 -56.3307 -56.3023
    -6.5744  -5.1654  -4.2652  -3.7347  -2.9945  -2.8844  -2.8783  -2.6419
    -2.4510  -2.3435  -2.0614  -1.9058  -1.8896  -1.7179  -1.7063  -1.5870
    -1.2789  -1.2560  -1.1871  -0.9483  -0.7489  -0.7365  -0.7165  -0.5529
    -0.4619  -0.2886  -0.2511  -0.2452  -0.2260  -0.1892  -0.1158  -0.0560
     0.0038   0.0435   0.1285   0.1559   0.1777   0.1821   0.2177   0.2387
     0.2733   0.3731   0.5785   0.7603   0.7837   0.9313   0.9784   1.0590
     1.1741   1.2750   1.2782   1.3574   1.3944   1.4254   1.4481   1.5611
     1.5843   1.6513   1.7015   1.7452   1.8495   1.8950   1.9496   1.9810

          k = 0.3333-0.7698 0.0000 ( 13313 PWs)   bands (ev):

   -93.2871 -93.2492 -93.2403 -93.2299 -93.2199 -93.2121 -93.0819 -93.0710
   -93.0467 -93.0382 -93.0317 -93.0232 -56.7490 -56.7096 -56.6826 -56.6766
   -56.6548 -56.6419 -56.6336 -56.6305 -56.6235 -56.6067 -56.5936 -56.5711
   -56.5496 -56.5458 -56.5369 -56.5153 -56.4782 -56.4674 -56.4613 -56.4565
   -56.4477 -56.4359 -56.4217 -56.4135 -56.4086 -56.3900 -56.3837 -56.3789
   -56.3779 -56.3603 -56.3441 -56.3410 -56.3382 -56.3367 -56.3297 -56.3154
    -5.9681  -4.9903  -4.5604  -3.7660  -3.4855  -3.0043  -2.5889  -2.2833
    -2.2658  -2.0842  -1.9235  -1.7436  -1.7175  -1.6857  -1.4634  -1.4022
    -1.2322  -1.1848  -1.1293  -1.1146  -0.9887  -0.9684  -0.7998  -0.7194
    -0.6564  -0.5823  -0.5167  -0.4377  -0.3822  -0.3472  -0.3098  -0.2681
    -0.1468  -0.0686  -0.0391  -0.0006   0.1477   0.1996   0.2874   0.3204
     0.3880   0.5993   0.7208   0.7865   0.7904   0.8633   0.9009   0.9149
     0.9588   1.1345   1.1566   1.2562   1.3126   1.4429   1.4630   1.5091
     1.5643   1.6353   1.6733   1.6943   1.7467   1.8233   1.8524   1.8773

          k = 0.3333-0.5774 0.0000 ( 13323 PWs)   bands (ev):

   -93.2863 -93.2467 -93.2440 -93.2295 -93.2194 -93.2122 -93.0822 -93.0710
   -93.0408 -93.0393 -93.0377 -93.0220 -56.7444 -56.6950 -56.6750 -56.6580
   -56.6483 -56.6402 -56.6357 -56.6333 -56.6310 -56.6139 -56.6132 -56.5580
   -56.5520 -56.5407 -56.5328 -56.5278 -56.4716 -56.4678 -56.4563 -56.4521
   -56.4402 -56.4307 -56.4245 -56.4202 -56.4186 -56.4110 -56.3864 -56.3830
   -56.3797 -56.3450 -56.3418 -56.3394 -56.3378 -56.3374 -56.3357 -56.3311
    -5.3674  -4.8367  -4.8308  -4.3035  -3.1915  -3.1827  -2.7258  -1.9403
    -1.8941  -1.8372  -1.8322  -1.8163  -1.6985  -1.5117  -1.4380  -1.3418
    -1.3349  -1.3336  -1.1213  -1.1069  -1.0828  -1.0104  -0.9818  -0.7804
    -0.7541  -0.6775  -0.6657  -0.6083  -0.5819  -0.5665  -0.4687  -0.3160
    -0.2960  -0.1429   0.0758   0.1740   0.1883   0.2520   0.2606   0.2640
     0.5043   0.5790   0.6039   0.7802   0.8569   0.8969   0.9551   0.9613
     1.0228   1.0844   1.1070   1.4699   1.4851   1.4959   1.5288   1.5812
     1.6121   1.6596   1.6803   1.6820   1.6924   1.7084   1.7200   1.7358

          k = 0.3333-0.3849 0.0000 ( 13313 PWs)   bands (ev):

   -93.2871 -93.2492 -93.2403 -93.2299 -93.2199 -93.2121 -93.0819 -93.0710
   -93.0467 -93.0382 -93.0317 -93.0232 -56.7490 -56.7096 -56.6826 -56.6766
   -56.6548 -56.6419 -56.6336 -56.6305 -56.6235 -56.6067 -56.5936 -56.5711
   -56.5496 -56.5459 -56.5369 -56.5153 -56.4782 -56.4674 -56.4613 -56.4565
   -56.4477 -56.4359 -56.4217 -56.4136 -56.4086 -56.3900 -56.3837 -56.3789
   -56.3779 -56.3603 -56.3441 -56.3410 -56.3382 -56.3367 -56.3297 -56.3154
    -5.9681  -4.9903  -4.5604  -3.7660  -3.4855  -3.0043  -2.5889  -2.2833
    -2.2658  -2.0842  -1.9235  -1.7436  -1.7175  -1.6857  -1.4634  -1.4022
    -1.2322  -1.1848  -1.1293  -1.1146  -0.9887  -0.9684  -0.7999  -0.7194
    -0.6564  -0.5823  -0.5167  -0.4377  -0.3822  -0.3472  -0.3098  -0.2681
    -0.1468  -0.0686  -0.0391  -0.0006   0.1477   0.1996   0.2875   0.3204
     0.3880   0.5993   0.7208   0.7865   0.7904   0.8633   0.9009   0.9149
     0.9588   1.1345   1.1566   1.2562   1.3126   1.4429   1.4630   1.5091
     1.5643   1.6353   1.6732   1.6943   1.7467   1.8233   1.8524   1.8773

          k =-0.5000 0.2887 0.0000 ( 13378 PWs)   bands (ev):

   -93.2870 -93.2496 -93.2398 -93.2297 -93.2184 -93.2142 -93.0798 -93.0729
   -93.0438 -93.0434 -93.0264 -93.0262 -56.7391 -56.7096 -56.6890 -56.6848
   -56.6411 -56.6391 -56.6355 -56.6265 -56.6169 -56.6092 -56.6022 -56.5969
   -56.5524 -56.5485 -56.5311 -56.5104 -56.4732 -56.4700 -56.4652 -56.4490
   -56.4386 -56.4294 -56.4102 -56.4094 -56.4009 -56.3945 -56.3926 -56.3907
   -56.3825 -56.3766 -56.3443 -56.3412 -56.3375 -56.3368 -56.3176 -56.3158
    -5.6963  -5.4185  -4.6580  -3.6374  -3.1446  -2.8106  -2.7736  -2.3106
    -2.2832  -2.2691  -2.0662  -1.7137  -1.7103  -1.5730  -1.5481  -1.3590
    -1.2887  -1.0682  -1.0618  -1.0212  -1.0110  -0.9867  -0.9489  -0.6394
    -0.5862  -0.5648  -0.4452  -0.4425  -0.4261  -0.3748  -0.3133  -0.2267
    -0.1264  -0.0960   0.0101   0.0139   0.0425   0.0834   0.2397   0.2720
     0.6012   0.6635   0.6662   0.6860   0.7963   0.8144   0.9692   0.9974
     1.0073   1.0246   1.1152   1.1349   1.1937   1.2837   1.3457   1.3534
     1.4143   1.4226   1.6930   1.7430   1.8589   1.8761   1.9644   1.9916

          k =-0.5000 0.4811 0.0000 ( 13313 PWs)   bands (ev):

   -93.2871 -93.2486 -93.2413 -93.2291 -93.2186 -93.2141 -93.0798 -93.0728
   -93.0467 -93.0384 -93.0315 -93.0232 -56.7382 -56.7055 -56.6957 -56.6737
   -56.6509 -56.6405 -56.6387 -56.6337 -56.6209 -56.6147 -56.5953 -56.5721
   -56.5564 -56.5483 -56.5333 -56.5147 -56.4744 -56.4685 -56.4627 -56.4495
   -56.4354 -56.4305 -56.4222 -56.4157 -56.4071 -56.3960 -56.3892 -56.3826
   -56.3777 -56.3590 -56.3442 -56.3411 -56.3379 -56.3365 -56.3316 -56.3133
    -5.9497  -5.0018  -4.5324  -3.7542  -3.5172  -2.9971  -2.6175  -2.2952
    -2.2650  -2.0675  -1.9259  -1.7454  -1.7209  -1.6649  -1.4962  -1.4427
    -1.2329  -1.2200  -1.1318  -1.1045  -0.9897  -0.9537  -0.7982  -0.7242
    -0.6672  -0.5582  -0.5052  -0.4373  -0.3891  -0.3428  -0.3127  -0.2350
    -0.1424  -0.0813  -0.0557   0.0003   0.1367   0.1971   0.2745   0.3263
     0.3935   0.5853   0.7263   0.7815   0.8081   0.8516   0.8970   0.9193
     0.9527   1.1385   1.2023   1.2595   1.3090   1.4452   1.4760   1.5071
     1.5579   1.6478   1.6737   1.7049   1.7528   1.8157   1.8552   1.8776

          k =-0.5000 0.6736 0.0000 ( 13313 PWs)   bands (ev):

   -93.2871 -93.2486 -93.2413 -93.2291 -93.2186 -93.2141 -93.0798 -93.0728
   -93.0467 -93.0384 -93.0315 -93.0232 -56.7382 -56.7055 -56.6957 -56.6737
   -56.6509 -56.6405 -56.6387 -56.6337 -56.6209 -56.6147 -56.5953 -56.5721
   -56.5564 -56.5483 -56.5333 -56.5147 -56.4744 -56.4685 -56.4627 -56.4495
   -56.4354 -56.4305 -56.4222 -56.4157 -56.4071 -56.3960 -56.3892 -56.3826
   -56.3777 -56.3590 -56.3442 -56.3411 -56.3379 -56.3365 -56.3316 -56.3133
    -5.9497  -5.0018  -4.5324  -3.7542  -3.5172  -2.9971  -2.6175  -2.2952
    -2.2650  -2.0675  -1.9259  -1.7454  -1.7209  -1.6649  -1.4962  -1.4427
    -1.2329  -1.2200  -1.1318  -1.1045  -0.9897  -0.9537  -0.7982  -0.7242
    -0.6672  -0.5582  -0.5052  -0.4373  -0.3891  -0.3427  -0.3127  -0.2350
    -0.1424  -0.0813  -0.0557   0.0003   0.1367   0.1971   0.2745   0.3263
     0.3935   0.5853   0.7263   0.7815   0.8081   0.8516   0.8970   0.9193
     0.9527   1.1385   1.2023   1.2595   1.3090   1.4452   1.4761   1.5070
     1.5579   1.6478   1.6737   1.7049   1.7528   1.8157   1.8552   1.8776

          k =-0.5000-0.2887 0.0000 ( 13378 PWs)   bands (ev):

   -93.2870 -93.2496 -93.2398 -93.2297 -93.2184 -93.2142 -93.0798 -93.0729
   -93.0438 -93.0433 -93.0265 -93.0262 -56.7391 -56.7096 -56.6890 -56.6848
   -56.6410 -56.6391 -56.6355 -56.6266 -56.6169 -56.6092 -56.6022 -56.5969
   -56.5524 -56.5484 -56.5311 -56.5104 -56.4732 -56.4700 -56.4652 -56.4490
   -56.4386 -56.4294 -56.4102 -56.4094 -56.4010 -56.3945 -56.3926 -56.3907
   -56.3825 -56.3766 -56.3443 -56.3412 -56.3375 -56.3368 -56.3176 -56.3158
    -5.6963  -5.4185  -4.6580  -3.6374  -3.1446  -2.8106  -2.7736  -2.3106
    -2.2832  -2.2691  -2.0662  -1.7137  -1.7103  -1.5730  -1.5480  -1.3590
    -1.2887  -1.0682  -1.0618  -1.0212  -1.0110  -0.9867  -0.9489  -0.6394
    -0.5862  -0.5648  -0.4452  -0.4425  -0.4262  -0.3748  -0.3133  -0.2267
    -0.1264  -0.0959   0.0101   0.0139   0.0425   0.0834   0.2397   0.2721
     0.6012   0.6634   0.6662   0.6860   0.7963   0.8143   0.9692   0.9973
     1.0073   1.0246   1.1153   1.1348   1.1937   1.2837   1.3457   1.3534
     1.4143   1.4226   1.6930   1.7430   1.8589   1.8761   1.9644   1.9916

     the Fermi energy is     0.8736 ev

!    total energy              =   -3595.49041335 Ry
     Harris-Foulkes estimate   =   -3595.49041343 Ry
     estimated scf accuracy    <       0.00000058 Ry

     The total energy is the sum of the following terms:

     one-electron contribution =  -31457.39410710 Ry
     hartree contribution      =   15735.02738687 Ry
     xc contribution           =    -406.00711840 Ry
     ewald contribution        =   12532.95823453 Ry
     electric field correction =       0.00000000 Ry
     smearing contrib. (-TS)   =      -0.07480925 Ry

     total magnetization       =    18.91 Bohr mag/cell
     absolute magnetization    =    21.81 Bohr mag/cell

     convergence has been achieved in   7 iterations

     Forces acting on atoms (Ry/au):


     negative rho (up, down):  6.624E-04 3.201E-04
     atom    1 type  1   force =    -0.00000029    0.00070178    0.00964935
     atom    2 type  1   force =     0.00000002   -0.00059332    0.01033882
     atom    3 type  1   force =    -0.00093753    0.00016922    0.00973903
     atom    4 type  1   force =     0.00093740    0.00016947    0.00973953
     atom    5 type  1   force =    -0.00139677    0.00029289   -0.00906396
     atom    6 type  1   force =     0.00139694    0.00029128   -0.00906407
     atom    7 type  1   force =    -0.00000166   -0.00239624   -0.00868982
     atom    8 type  1   force =     0.00000119    0.00054161   -0.00930717
     atom    9 type  1   force =     0.00182002    0.00005916   -0.00108904
     atom   10 type  1   force =    -0.00181603    0.00005404   -0.00108230
     atom   11 type  1   force =    -0.00000429   -0.00167473    0.00005912
     atom   12 type  1   force =     0.00000219    0.00174165   -0.00003345
     atom   13 type  2   force =    -0.00000119    0.00064319   -0.00119603

     Total force =     0.004082     Total SCF correction =     0.002144
     SCF correction compared to forces is large: reduce conv_thr to get better values

     bfgs converged in   5 scf cycles and   4 bfgs steps
     (criteria: energy <  1.0E+12, force <  1.9E-03)

     End of BFGS Geometry Optimization

     Final energy   =   -3595.4904133530 Ry
Begin final coordinates

ATOMIC_POSITIONS (angstrom)
Co       1.253137179   0.723499087  10.000000000    0   0   0
Co       3.759411536   0.723499087  10.000000000    0   0   0
Co       2.506274357   2.893996350  10.000000000    0   0   0
Co       5.012548715   2.893996350  10.000000000    0   0   0
Co       5.012548715   1.446998175  12.046364444    0   0   0
Co       2.506274358   1.446998175  12.046364444    0   0   0
Co       6.265685894   3.617495437  12.046364444    0   0   0
Co       3.759411536   3.617495437  12.046364444    0   0   0
Co      -0.019698294   0.000270313  14.055487635
Co       2.525968534   0.000287983  14.055450613
Co       1.253152110   2.169298891  14.038138187
Co       3.759404239   2.171751266  14.038656434
H        1.253155408   0.007201082  15.128622324
End final coordinates



     Writing output data file calc.save
 
     init_run     :     12.11s CPU     12.61s WALL (       1 calls)
     electrons    :   1724.67s CPU   1825.89s WALL (       5 calls)
     update_pot   :      8.06s CPU      8.77s WALL (       4 calls)
     forces       :     84.86s CPU     91.09s WALL (       5 calls)

     Called by init_run:
     wfcinit      :      6.72s CPU      6.84s WALL (       1 calls)
     potinit      :      1.40s CPU      1.58s WALL (       1 calls)

     Called by electrons:
     c_bands      :   1023.76s CPU   1073.23s WALL (      68 calls)
     sum_band     :    402.68s CPU    428.17s WALL (      68 calls)
     v_of_rho     :     85.93s CPU     92.63s WALL (      73 calls)
     newd         :    196.67s CPU    202.64s WALL (      73 calls)
     mix_rho      :      4.71s CPU      4.88s WALL (      68 calls)
     vdW_energy   :     11.43s CPU     12.72s WALL (      78 calls)
     vdW_ffts     :     24.32s CPU     25.43s WALL (     156 calls)
     vdW_v        :     10.73s CPU     11.01s WALL (      78 calls)

     Called by c_bands:
     init_us_2    :      4.88s CPU      4.90s WALL (    1420 calls)
     cegterg      :    941.99s CPU    967.36s WALL (     680 calls)

     Called by *egterg:
     h_psi        :    560.11s CPU    573.82s WALL (    2697 calls)
     s_psi        :     53.81s CPU     53.94s WALL (    2697 calls)
     g_psi        :      3.46s CPU      3.47s WALL (    2007 calls)
     cdiaghg      :    134.00s CPU    134.92s WALL (    2647 calls)

     Called by h_psi:
     add_vuspsi   :     55.57s CPU     55.77s WALL (    2697 calls)

     General routines
     calbec       :     85.37s CPU     86.63s WALL (    3427 calls)
     fft          :     66.59s CPU     79.33s WALL (    6208 calls)
     ffts         :      0.43s CPU      0.47s WALL (     282 calls)
     fftw         :    363.43s CPU    378.83s WALL (  427368 calls)
     interpolate  :      3.15s CPU      3.30s WALL (     282 calls)
     davcio       :      0.00s CPU      0.10s WALL (      10 calls)
 
     Parallel routines
     fft_scatter  :    224.93s CPU    249.02s WALL (  433858 calls)
 
     PWSCF        : 30m43.84s CPU    32m35.25s WALL

 
   This run was terminated on:  16:27:37  16Jan2019            

=------------------------------------------------------------------------------=
   JOB DONE.
=------------------------------------------------------------------------------=
Job  /afs/slac/g/suncat/bin/suncat-tsmpirun -x LD_LIBRARY_PATH -wdir /tmp/qe_3785505qvczxlb_scratch pw.x -npool 4 -in pw.pwi

TID   HOST_NAME   COMMAND_LINE            STATUS            TERMINATION_TIME
===== ========== ================  =======================  ===================
00000 suncat0037 pw.x -npool 4 -i  Done                     01/16/2019 16:27:37
00001 suncat0037 pw.x -npool 4 -i  Done                     01/16/2019 16:27:37
00002 suncat0037 pw.x -npool 4 -i  Done                     01/16/2019 16:27:37
00003 suncat0037 pw.x -npool 4 -i  Done                     01/16/2019 16:27:37
00004 suncat0037 pw.x -npool 4 -i  Done                     01/16/2019 16:27:37
00005 suncat0037 pw.x -npool 4 -i  Done                     01/16/2019 16:27:37
00006 suncat0037 pw.x -npool 4 -i  Done                     01/16/2019 16:27:37
00007 suncat0037 pw.x -npool 4 -i  Done                     01/16/2019 16:27:37
00008 suncat0199 pw.x -npool 4 -i  Done                     01/16/2019 16:27:37
00009 suncat0199 pw.x -npool 4 -i  Done                     01/16/2019 16:27:37
00010 suncat0199 pw.x -npool 4 -i  Done                     01/16/2019 16:27:37
00011 suncat0199 pw.x -npool 4 -i  Done                     01/16/2019 16:27:37
00012 suncat0199 pw.x -npool 4 -i  Done                     01/16/2019 16:27:37
00013 suncat0199 pw.x -npool 4 -i  Done                     01/16/2019 16:27:37
00014 suncat0199 pw.x -npool 4 -i  Done                     01/16/2019 16:27:37
00015 suncat0199 pw.x -npool 4 -i  Done                     01/16/2019 16:27:37
00016 suncat0163 pw.x -npool 4 -i  Done                     01/16/2019 16:27:37
00017 suncat0163 pw.x -npool 4 -i  Done                     01/16/2019 16:27:37
00018 suncat0163 pw.x -npool 4 -i  Done                     01/16/2019 16:27:37
00019 suncat0163 pw.x -npool 4 -i  Done                     01/16/2019 16:27:37
00020 suncat0163 pw.x -npool 4 -i  Done                     01/16/2019 16:27:37
00021 suncat0163 pw.x -npool 4 -i  Done                     01/16/2019 16:27:37
00022 suncat0163 pw.x -npool 4 -i  Done                     01/16/2019 16:27:37
00023 suncat0163 pw.x -npool 4 -i  Done                     01/16/2019 16:27:37
00024 suncat0162 pw.x -npool 4 -i  Done                     01/16/2019 16:27:37
00025 suncat0162 pw.x -npool 4 -i  Done                     01/16/2019 16:27:37
00026 suncat0162 pw.x -npool 4 -i  Done                     01/16/2019 16:27:37
00027 suncat0162 pw.x -npool 4 -i  Done                     01/16/2019 16:27:37
00028 suncat0162 pw.x -npool 4 -i  Done                     01/16/2019 16:27:37
00029 suncat0162 pw.x -npool 4 -i  Done                     01/16/2019 16:27:37
00030 suncat0162 pw.x -npool 4 -i  Done                     01/16/2019 16:27:37
00031 suncat0162 pw.x -npool 4 -i  Done                     01/16/2019 16:27:37
