  python dir          : /u/if/mamunm/src/espresso
  espresso dir        : /nfs/slac/g/suncatfs/sw/espv18/espresso-dynpy-beef/bin
  pseudo dir          : /u/if/mamunm/psp/gbrv1.5pbe
  ase-espresso py git : GITVERSION



     Program PWSCF v.5.1rc2 (svn rev. 11289) starts on 23Apr2018 at 14:52:24 

     This program is part of the open-source Quantum ESPRESSO suite
     for quantum simulation of materials; please cite
         "P. Giannozzi et al., J. Phys.:Condens. Matter 21 395502 (2009);
          URL http://www.quantum-espresso.org", 
     in publications or presentations arising from this work. More details at
     http://www.quantum-espresso.org/quote

     Parallel version (MPI), running on    36 processors
     K-points division:     npool     =       3
     R & G space division:  proc/nbgrp/npool/nimage =      12
     Reading input from pw.inp
     Message from routine read_cards :
     DEPRECATED: no units specified in CELL_PARAMETERS card

     Current dimensions of program PWSCF are:
     Max number of different atomic species (ntypx) = 10
     Max number of k-points (npk) =  40000
     Max angular momentum in pseudopotentials (lmaxx) =  3
     Presently stress not available with electric field


     **************************************************************************
     Initializing libbeef V0.1.1 with the BEEF-vdW functional.
     Citation: Wellendorff et al., PRB 85, 235149 (2012).
     **************************************************************************


     IMPORTANT: XC functional enforced from input :
     Exchange-correlation      = BEEF-VDW ( 1  4 27 13 2)
     Any further DFT definition will be discarded
     Please, verify this is what you really want


     Subspace diagonalization in iterative solution of the eigenvalue problem:
     a serial algorithm will be used

 
     Parallelization info
     --------------------
     sticks:   dense  smooth     PW     G-vecs:    dense   smooth      PW
     Min         226      89     26                42660    10745    1708
     Max         227      90     27                42689    10802    1729
     Sum        2713    1069    313               511963   129143   20533
 


     bravais-lattice index     =            0
     lattice parameter (alat)  =       1.8897  a.u.
     unit-cell volume          =    4301.6107 (a.u.)^3
     number of atoms/cell      =           16
     number of atomic types    =            3
     number of electrons       =       187.00
     number of Kohn-Sham states=          103
     kinetic-energy cutoff     =      36.7493  Ry
     charge density cutoff     =     367.4932  Ry
     convergence threshold     =      1.0E-05
     mixing beta               =       0.3000
     number of iterations used =           10  plain     mixing
     Exchange-correlation      = BEEF-VDW ( 1  4 27 13 2)
     nstep                     =           50


     celldm(1)=   1.889726  celldm(2)=   0.000000  celldm(3)=   0.000000
     celldm(4)=   0.000000  celldm(5)=   0.000000  celldm(6)=   0.000000

     crystal axes: (cart. coord. in units of alat)
               a(1) = (   5.483647   0.000000   0.000000 )  
               a(2) = (   2.741823   4.748977   0.000000 )  
               a(3) = (   0.000000   0.000000  24.477379 )  

     reciprocal axes: (cart. coord. in units 2 pi/alat)
               b(1) = (  0.182360 -0.105286  0.000000 )  
               b(2) = (  0.000000  0.210572  0.000000 )  
               b(3) = (  0.000000  0.000000  0.040854 )  


     PseudoPot. # 1 for Tc read from file:
     /u/if/mamunm/psp/gbrv1.5pbe/Tc.UPF
     MD5 check sum: 9eb49e5b028550b2339a02317eb7b844
     Pseudo is Ultrasoft + core correction, Zval = 15.0
     Generated by new atomic code, or converted to UPF format
     Using radial grid of  965 points,  6 beta functions with: 
                l(1) =   0
                l(2) =   0
                l(3) =   1
                l(4) =   1
                l(5) =   2
                l(6) =   2
     Q(r) pseudized with  8 coefficients,  rinner =    1.300   1.300   1.300
                                                       1.300   1.300

     PseudoPot. # 2 for C  read from file:
     /u/if/mamunm/psp/gbrv1.5pbe/C.UPF
     MD5 check sum: d1aef80898a10debaa0f26306b886e00
     Pseudo is Ultrasoft + core correction, Zval =  4.0
     Generated by new atomic code, or converted to UPF format
     Using radial grid of  721 points,  4 beta functions with: 
                l(1) =   0
                l(2) =   0
                l(3) =   1
                l(4) =   1
     Q(r) pseudized with  8 coefficients,  rinner =    1.100   1.100   1.100


     PseudoPot. # 3 for H  read from file:
     /u/if/mamunm/psp/gbrv1.5pbe/H.UPF
     MD5 check sum: 761ae9a214b05c3daf00ab9f6b793d6f
     Pseudo is Ultrasoft, Zval =  1.0
     Generated by new atomic code, or converted to UPF format
     Using radial grid of  615 points,  2 beta functions with: 
                l(1) =   0
                l(2) =   0
     Q(r) pseudized with  8 coefficients,  rinner =    0.700

     vdW kernel table read from file vdW_kernel_table
     MD5 check sum: 095c7af220d748ca6e76c0b4c6cfb241

     atomic species   valence    mass     pseudopotential
        Tc1           15.00    97.90721     Tc( 1.00)
        C1             4.00    12.01100     C ( 1.00)
        H1             1.00     1.00800     H ( 1.00)

     No symmetry found



   Cartesian axes

     site n.     atom                  positions (alat units)
         1           Tc1 tau(   1) = (   1.3709117   0.7914962  10.0000000  )
         2           Tc1 tau(   2) = (   4.1127351   0.7914962  10.0000000  )
         3           Tc1 tau(   3) = (   2.7418234   3.1659850  10.0000000  )
         4           Tc1 tau(   4) = (   5.4836469   3.1659850  10.0000000  )
         5           Tc1 tau(   5) = (   5.4836469   1.5829925  12.2386895  )
         6           Tc1 tau(   6) = (   2.7418234   1.5829925  12.2386895  )
         7           Tc1 tau(   7) = (   6.8545586   3.9574812  12.2386895  )
         8           Tc1 tau(   8) = (   4.1127351   3.9574812  12.2386895  )
         9           Tc1 tau(   9) = (   0.0000000   0.0000000  14.4773789  )
        10           Tc1 tau(  10) = (   2.7418234   0.0000000  14.4773789  )
        11           Tc1 tau(  11) = (   1.3709117   2.3744887  14.4773789  )
        12           Tc1 tau(  12) = (   4.1127351   2.3744887  14.4773789  )
        13           C1  tau(  13) = (   1.3709117   0.7914962  15.9268789  )
        14           H1  tau(  14) = (   2.4609117   0.7914962  16.5568789  )
        15           H1  tau(  15) = (   6.4045586   1.6809962  16.5568789  )
        16           H1  tau(  16) = (   3.6627351   4.6509737  16.5568789  )

     number of k points=    20  Fermi-Dirac smearing, width (Ry)=  0.0110
                       cart. coord. in units 2pi/alat
        k(    1) = (   0.0000000   0.0000000   0.0000000), wk =   0.0555556
        k(    2) = (   0.0000000   0.0350953   0.0000000), wk =   0.1111111
        k(    3) = (   0.0000000   0.0701905   0.0000000), wk =   0.1111111
        k(    4) = (   0.0000000  -0.1052858   0.0000000), wk =   0.0555556
        k(    5) = (   0.0303934  -0.0175476   0.0000000), wk =   0.1111111
        k(    6) = (   0.0303934   0.0175476   0.0000000), wk =   0.1111111
        k(    7) = (   0.0303934   0.0526429   0.0000000), wk =   0.1111111
        k(    8) = (   0.0303934  -0.1228335   0.0000000), wk =   0.1111111
        k(    9) = (   0.0303934  -0.0877382   0.0000000), wk =   0.1111111
        k(   10) = (   0.0303934  -0.0526429   0.0000000), wk =   0.1111111
        k(   11) = (   0.0607868  -0.0350953   0.0000000), wk =   0.1111111
        k(   12) = (   0.0607868   0.0000000   0.0000000), wk =   0.1111111
        k(   13) = (   0.0607868   0.0350953   0.0000000), wk =   0.1111111
        k(   14) = (   0.0607868  -0.1403811   0.0000000), wk =   0.1111111
        k(   15) = (   0.0607868  -0.1052858   0.0000000), wk =   0.1111111
        k(   16) = (   0.0607868  -0.0701905   0.0000000), wk =   0.1111111
        k(   17) = (  -0.0911802   0.0526429   0.0000000), wk =   0.0555556
        k(   18) = (  -0.0911802   0.0877382   0.0000000), wk =   0.1111111
        k(   19) = (  -0.0911802   0.1228335   0.0000000), wk =   0.1111111
        k(   20) = (  -0.0911802  -0.0526429   0.0000000), wk =   0.0555556

     Dense  grid:   511963 G-vectors     FFT dimensions: (  64,  64, 288)

     Smooth grid:   129143 G-vectors     FFT dimensions: (  40,  40, 180)

     Largest allocated arrays     est. size (Mb)     dimensions
        Kohn-Sham Wavefunctions         2.20 Mb     (    1398,  103)
        NL pseudopotentials             4.91 Mb     (    1398,  230)
        Each V/rho on FFT grid          1.50 Mb     (   98304)
        Each G-vector array             0.33 Mb     (   42662)
        G-vector shells                 0.11 Mb     (   14814)
     Largest temporary arrays     est. size (Mb)     dimensions
        Auxiliary wavefunctions         8.79 Mb     (    1398,  412)
        Each subspace H/S matrix        2.59 Mb     (     412,  412)
        Each <psi_i|beta_j> matrix      0.36 Mb     (     230,  103)
        Arrays for rho mixing          15.00 Mb     (   98304,   10)

     Check: negative/imaginary core charge=   -0.000022    0.000000

     Initial potential from superposition of free atoms
     Check: negative starting charge=   -1.504624

     starting charge  174.99960, renormalised to  187.00000

     negative rho (up, down):  1.608E+00 0.000E+00


     ************************************************************************
     *
     * You are using vdW-DF for exchange-correlation in this calculation.
     * Please cite the following three references that made this development
     * possible:
     *
     *   M. Dion, H. Rydberg, E. Schroder, D. C. Langreth, and
     *   B. I. Lundqvist, Phys. Rev. Lett. 92, 246401 (2004).
     *
     *   T. Thonhauser, V. R. Cooper, S. Li, A. Puzder, P. Hyldgaard, and
     *   D. C. Langreth, Phys. Rev. B 76, 125112 (2007).
     *
     *   G. Roman-Perez and J. M. Soler, Phys. Rev. Lett. 103, 096102 (2009).
     *
     *
     * If you are using vdW-DF2, please also cite:
     *
     *   K. Lee, E. D. Murray, L. Kong, B. I. Lundqvist, and
     *   D. C. Langreth, Phys. Rev. B 82, 081101(R) (2010).
     *
     *
     * If you are calculating the stress with vdW-DF, please also cite:
     *
     *   R. Sabatini, E. Kucukbenli, B. Kolb, T. Thonhauser, and
     *   S. de Gironcoli, J. Phys.: Condens. Matter 24, 424209 (2012).
     *
     ************************************************************************

     Carrying out vdW-DF run using the following parameters:

     Nqs =      20    Nr_points =    1024   r_max =   100.000
     q_mesh =
               0.00001000     0.04494208     0.09755937     0.15916263
               0.23128650     0.31572767     0.41458969     0.53033537
               0.66584808     0.82450364     1.01025438     1.22772762
               1.48234092     1.78043706     2.12944203     2.53805004
               3.01644009     3.57652955     4.23227104     5.00000000

     Gradients computed in reciprocal space

     ************************************************************************


 
     Adding external electric field

     Computed dipole along edir(3) : 
        Dipole               -3.5899 Ry au,         -9.1247 Debye
        Dipole field         -0.0105 Ry au
 
        Potential amp.        0.9459 Ry
        Total length         45.0992 bohr
 
     Starting wfc are  163 randomized atomic wfcs

     total cpu time spent up to now is        7.1 secs

     Self-consistent Calculation

     iteration #  1     ecut=    36.75 Ry     beta=0.30
     Davidson diagonalization with overlap
     ethr =  1.00E-02,  avg # of iterations =  8.2

     negative rho (up, down):  1.602E+00 0.000E+00
 
     Adding external electric field

     Computed dipole along edir(3) : 
        Dipole               73.5428 Ry au,        186.9273 Debye
        Dipole field          0.2148 Ry au
 
        Potential amp.      -19.3784 Ry
        Total length         45.0992 bohr
 

     total cpu time spent up to now is       21.6 secs

     total energy              =   -1851.48643425 Ry
     Harris-Foulkes estimate   =   -2113.84648129 Ry
     estimated scf accuracy    <     552.06325506 Ry

     iteration #  2     ecut=    36.75 Ry     beta=0.30
     Davidson diagonalization with overlap
     c_bands:  1 eigenvalues not converged
     ethr =  1.00E-02,  avg # of iterations = 19.1

     negative rho (up, down):  1.566E+00 0.000E+00
 
     Adding external electric field

     Computed dipole along edir(3) : 
        Dipole               12.4173 Ry au,         31.5617 Debye
        Dipole field          0.0363 Ry au
 
        Potential amp.       -3.2719 Ry
        Total length         45.0992 bohr
 

     total cpu time spent up to now is       64.3 secs

     total energy              =   -1722.31437626 Ry
     Harris-Foulkes estimate   =   -3110.68110626 Ry
     estimated scf accuracy    <   22071.87009212 Ry

     iteration #  3     ecut=    36.75 Ry     beta=0.30
     Davidson diagonalization with overlap
     ethr =  1.00E-02,  avg # of iterations = 12.9

     negative rho (up, down):  1.554E+00 0.000E+00
 
     Adding external electric field

     Computed dipole along edir(3) : 
        Dipole               13.4346 Ry au,         34.1473 Debye
        Dipole field          0.0392 Ry au
 
        Potential amp.       -3.5400 Ry
        Total length         45.0992 bohr
 

     total cpu time spent up to now is       95.2 secs

     total energy              =   -2050.64890355 Ry
     Harris-Foulkes estimate   =   -2337.96032887 Ry
     estimated scf accuracy    <    3268.25666874 Ry

     iteration #  4     ecut=    36.75 Ry     beta=0.30
     Davidson diagonalization with overlap
     ethr =  1.00E-02,  avg # of iterations =  7.0

     negative rho (up, down):  1.582E+00 0.000E+00
 
     Adding external electric field

     Computed dipole along edir(3) : 
        Dipole                8.7329 Ry au,         22.1968 Debye
        Dipole field          0.0255 Ry au
 
        Potential amp.       -2.3011 Ry
        Total length         45.0992 bohr
 

     total cpu time spent up to now is      113.3 secs

     total energy              =   -2105.97072978 Ry
     Harris-Foulkes estimate   =   -2143.05806096 Ry
     estimated scf accuracy    <     502.41936688 Ry

     iteration #  5     ecut=    36.75 Ry     beta=0.30
     Davidson diagonalization with overlap
     ethr =  1.00E-02,  avg # of iterations =  6.9

     negative rho (up, down):  1.580E+00 0.000E+00
 
     Adding external electric field

     Computed dipole along edir(3) : 
        Dipole                8.9445 Ry au,         22.7347 Debye
        Dipole field          0.0261 Ry au
 
        Potential amp.       -2.3569 Ry
        Total length         45.0992 bohr
 

     total cpu time spent up to now is      131.2 secs

     total energy              =   -2118.54032975 Ry
     Harris-Foulkes estimate   =   -2129.41838910 Ry
     estimated scf accuracy    <     100.32277428 Ry

     iteration #  6     ecut=    36.75 Ry     beta=0.30
     Davidson diagonalization with overlap
     ethr =  1.00E-02,  avg # of iterations =  4.5

     negative rho (up, down):  1.575E+00 0.000E+00
 
     Adding external electric field

     Computed dipole along edir(3) : 
        Dipole                8.4037 Ry au,         21.3600 Debye
        Dipole field          0.0245 Ry au
 
        Potential amp.       -2.2143 Ry
        Total length         45.0992 bohr
 

     total cpu time spent up to now is      143.5 secs

     total energy              =   -2121.03555587 Ry
     Harris-Foulkes estimate   =   -2123.11291225 Ry
     estimated scf accuracy    <      78.60262738 Ry

     iteration #  7     ecut=    36.75 Ry     beta=0.30
     Davidson diagonalization with overlap
     ethr =  1.00E-02,  avg # of iterations =  1.1

     negative rho (up, down):  1.570E+00 0.000E+00
 
     Adding external electric field

     Computed dipole along edir(3) : 
        Dipole                9.0533 Ry au,         23.0112 Debye
        Dipole field          0.0264 Ry au
 
        Potential amp.       -2.3855 Ry
        Total length         45.0992 bohr
 

     total cpu time spent up to now is      153.1 secs

     total energy              =   -2122.13727684 Ry
     Harris-Foulkes estimate   =   -2121.63383162 Ry
     estimated scf accuracy    <      13.08715713 Ry

     iteration #  8     ecut=    36.75 Ry     beta=0.30
     Davidson diagonalization with overlap
     ethr =  7.00E-03,  avg # of iterations =  1.9

     negative rho (up, down):  1.600E+00 0.000E+00
 
     Adding external electric field

     Computed dipole along edir(3) : 
        Dipole                4.1353 Ry au,         10.5109 Debye
        Dipole field          0.0121 Ry au
 
        Potential amp.       -1.0896 Ry
        Total length         45.0992 bohr
 

     total cpu time spent up to now is      164.0 secs

     total energy              =   -2118.54351676 Ry
     Harris-Foulkes estimate   =   -2122.48361343 Ry
     estimated scf accuracy    <       8.91867583 Ry

     iteration #  9     ecut=    36.75 Ry     beta=0.30
     Davidson diagonalization with overlap
     ethr =  4.77E-03,  avg # of iterations =  2.4

     negative rho (up, down):  1.601E+00 0.000E+00
 
     Adding external electric field

     Computed dipole along edir(3) : 
        Dipole                3.4928 Ry au,          8.8777 Debye
        Dipole field          0.0102 Ry au
 
        Potential amp.       -0.9203 Ry
        Total length         45.0992 bohr
 

     total cpu time spent up to now is      175.6 secs

     total energy              =   -2119.06580831 Ry
     Harris-Foulkes estimate   =   -2119.38700320 Ry
     estimated scf accuracy    <       8.29394616 Ry

     iteration # 10     ecut=    36.75 Ry     beta=0.30
     Davidson diagonalization with overlap
     ethr =  4.44E-03,  avg # of iterations =  1.0

     negative rho (up, down):  1.600E+00 0.000E+00
 
     Adding external electric field

     Computed dipole along edir(3) : 
        Dipole                3.1996 Ry au,          8.1326 Debye
        Dipole field          0.0093 Ry au
 
        Potential amp.       -0.8431 Ry
        Total length         45.0992 bohr
 

     total cpu time spent up to now is      185.4 secs

     total energy              =   -2119.05727710 Ry
     Harris-Foulkes estimate   =   -2119.17288917 Ry
     estimated scf accuracy    <       7.75475217 Ry

     iteration # 11     ecut=    36.75 Ry     beta=0.30
     Davidson diagonalization with overlap
     ethr =  4.15E-03,  avg # of iterations =  1.0

     negative rho (up, down):  1.597E+00 0.000E+00
 
     Adding external electric field

     Computed dipole along edir(3) : 
        Dipole                2.5816 Ry au,          6.5617 Debye
        Dipole field          0.0075 Ry au
 
        Potential amp.       -0.6802 Ry
        Total length         45.0992 bohr
 

     total cpu time spent up to now is      194.9 secs

     total energy              =   -2118.86999696 Ry
     Harris-Foulkes estimate   =   -2119.10378471 Ry
     estimated scf accuracy    <       6.25482283 Ry

     iteration # 12     ecut=    36.75 Ry     beta=0.30
     Davidson diagonalization with overlap
     ethr =  3.34E-03,  avg # of iterations =  1.0

     negative rho (up, down):  1.600E+00 0.000E+00
 
     Adding external electric field

     Computed dipole along edir(3) : 
        Dipole               -1.3417 Ry au,         -3.4103 Debye
        Dipole field         -0.0039 Ry au
 
        Potential amp.        0.3535 Ry
        Total length         45.0992 bohr
 

     total cpu time spent up to now is      203.9 secs

     total energy              =   -2118.23407263 Ry
     Harris-Foulkes estimate   =   -2118.92487547 Ry
     estimated scf accuracy    <       1.93493487 Ry

     iteration # 13     ecut=    36.75 Ry     beta=0.30
     Davidson diagonalization with overlap
     ethr =  1.03E-03,  avg # of iterations =  6.1

     negative rho (up, down):  1.602E+00 0.000E+00
 
     Adding external electric field

     Computed dipole along edir(3) : 
        Dipole               -1.3547 Ry au,         -3.4434 Debye
        Dipole field         -0.0040 Ry au
 
        Potential amp.        0.3570 Ry
        Total length         45.0992 bohr
 

     total cpu time spent up to now is      217.0 secs

     total energy              =   -2118.76869685 Ry
     Harris-Foulkes estimate   =   -2118.74331800 Ry
     estimated scf accuracy    <       1.91139922 Ry

     iteration # 14     ecut=    36.75 Ry     beta=0.30
     Davidson diagonalization with overlap
     ethr =  1.02E-03,  avg # of iterations =  1.4

     negative rho (up, down):  1.603E+00 0.000E+00
 
     Adding external electric field

     Computed dipole along edir(3) : 
        Dipole               -1.5012 Ry au,         -3.8157 Debye
        Dipole field         -0.0044 Ry au
 
        Potential amp.        0.3956 Ry
        Total length         45.0992 bohr
 

     total cpu time spent up to now is      226.0 secs

     total energy              =   -2118.84141750 Ry
     Harris-Foulkes estimate   =   -2118.80111719 Ry
     estimated scf accuracy    <       1.84863443 Ry

     iteration # 15     ecut=    36.75 Ry     beta=0.30
     Davidson diagonalization with overlap
     ethr =  9.89E-04,  avg # of iterations =  1.7

     negative rho (up, down):  1.599E+00 0.000E+00
 
     Adding external electric field

     Computed dipole along edir(3) : 
        Dipole               -0.2906 Ry au,         -0.7387 Debye
        Dipole field         -0.0008 Ry au
 
        Potential amp.        0.0766 Ry
        Total length         45.0992 bohr
 

     total cpu time spent up to now is      235.2 secs

     total energy              =   -2118.44434977 Ry
     Harris-Foulkes estimate   =   -2118.86038087 Ry
     estimated scf accuracy    <       3.32263868 Ry

     iteration # 16     ecut=    36.75 Ry     beta=0.30
     Davidson diagonalization with overlap
     ethr =  9.89E-04,  avg # of iterations =  3.5

     negative rho (up, down):  1.594E+00 0.000E+00
 
     Adding external electric field

     Computed dipole along edir(3) : 
        Dipole                0.6366 Ry au,          1.6181 Debye
        Dipole field          0.0019 Ry au
 
        Potential amp.       -0.1677 Ry
        Total length         45.0992 bohr
 

     total cpu time spent up to now is      245.3 secs

     total energy              =   -2118.49520601 Ry
     Harris-Foulkes estimate   =   -2118.58508208 Ry
     estimated scf accuracy    <       0.39850443 Ry

     iteration # 17     ecut=    36.75 Ry     beta=0.30
     Davidson diagonalization with overlap
     ethr =  2.13E-04,  avg # of iterations =  6.0

     negative rho (up, down):  1.592E+00 0.000E+00
 
     Adding external electric field

     Computed dipole along edir(3) : 
        Dipole                0.3541 Ry au,          0.8999 Debye
        Dipole field          0.0010 Ry au
 
        Potential amp.       -0.0933 Ry
        Total length         45.0992 bohr
 

     total cpu time spent up to now is      257.6 secs

     total energy              =   -2118.53486809 Ry
     Harris-Foulkes estimate   =   -2118.55717692 Ry
     estimated scf accuracy    <       0.11366600 Ry

     iteration # 18     ecut=    36.75 Ry     beta=0.30
     Davidson diagonalization with overlap
     ethr =  6.08E-05,  avg # of iterations =  4.5

     negative rho (up, down):  1.589E+00 0.000E+00
 
     Adding external electric field

     Computed dipole along edir(3) : 
        Dipole                0.3557 Ry au,          0.9040 Debye
        Dipole field          0.0010 Ry au
 
        Potential amp.       -0.0937 Ry
        Total length         45.0992 bohr
 

     total cpu time spent up to now is      269.1 secs

     total energy              =   -2118.54009287 Ry
     Harris-Foulkes estimate   =   -2118.54676913 Ry
     estimated scf accuracy    <       0.08132027 Ry

     iteration # 19     ecut=    36.75 Ry     beta=0.30
     Davidson diagonalization with overlap
     ethr =  4.35E-05,  avg # of iterations =  2.8

     negative rho (up, down):  1.589E+00 0.000E+00
 
     Adding external electric field

     Computed dipole along edir(3) : 
        Dipole                0.4242 Ry au,          1.0782 Debye
        Dipole field          0.0012 Ry au
 
        Potential amp.       -0.1118 Ry
        Total length         45.0992 bohr
 

     total cpu time spent up to now is      279.4 secs

     total energy              =   -2118.53983665 Ry
     Harris-Foulkes estimate   =   -2118.54223401 Ry
     estimated scf accuracy    <       0.04736273 Ry

     iteration # 20     ecut=    36.75 Ry     beta=0.30
     Davidson diagonalization with overlap
     ethr =  2.53E-05,  avg # of iterations =  1.1

     negative rho (up, down):  1.589E+00 0.000E+00
 
     Adding external electric field

     Computed dipole along edir(3) : 
        Dipole                0.6273 Ry au,          1.5943 Debye
        Dipole field          0.0018 Ry au
 
        Potential amp.       -0.1653 Ry
        Total length         45.0992 bohr
 

     total cpu time spent up to now is      288.9 secs

     total energy              =   -2118.53903720 Ry
     Harris-Foulkes estimate   =   -2118.54019758 Ry
     estimated scf accuracy    <       0.01003944 Ry

     iteration # 21     ecut=    36.75 Ry     beta=0.30
     Davidson diagonalization with overlap
     ethr =  5.37E-06,  avg # of iterations =  8.2

     negative rho (up, down):  1.589E+00 0.000E+00
 
     Adding external electric field

     Computed dipole along edir(3) : 
        Dipole                0.5410 Ry au,          1.3750 Debye
        Dipole field          0.0016 Ry au
 
        Potential amp.       -0.1425 Ry
        Total length         45.0992 bohr
 

     total cpu time spent up to now is      303.1 secs

     total energy              =   -2118.53944578 Ry
     Harris-Foulkes estimate   =   -2118.54085819 Ry
     estimated scf accuracy    <       0.00889323 Ry

     iteration # 22     ecut=    36.75 Ry     beta=0.30
     Davidson diagonalization with overlap
     ethr =  4.76E-06,  avg # of iterations =  2.8

     negative rho (up, down):  1.589E+00 0.000E+00
 
     Adding external electric field

     Computed dipole along edir(3) : 
        Dipole                0.5652 Ry au,          1.4367 Debye
        Dipole field          0.0017 Ry au
 
        Potential amp.       -0.1489 Ry
        Total length         45.0992 bohr
 

     total cpu time spent up to now is      312.8 secs

     total energy              =   -2118.53959851 Ry
     Harris-Foulkes estimate   =   -2118.53997947 Ry
     estimated scf accuracy    <       0.00526061 Ry

     iteration # 23     ecut=    36.75 Ry     beta=0.30
     Davidson diagonalization with overlap
     ethr =  2.81E-06,  avg # of iterations =  2.8

     negative rho (up, down):  1.589E+00 0.000E+00
 
     Adding external electric field

     Computed dipole along edir(3) : 
        Dipole                0.6006 Ry au,          1.5265 Debye
        Dipole field          0.0018 Ry au
 
        Potential amp.       -0.1582 Ry
        Total length         45.0992 bohr
 

     total cpu time spent up to now is      322.3 secs

     total energy              =   -2118.53980970 Ry
     Harris-Foulkes estimate   =   -2118.53979517 Ry
     estimated scf accuracy    <       0.00404856 Ry

     iteration # 24     ecut=    36.75 Ry     beta=0.30
     Davidson diagonalization with overlap
     ethr =  2.17E-06,  avg # of iterations =  2.5

     negative rho (up, down):  1.589E+00 0.000E+00
 
     Adding external electric field

     Computed dipole along edir(3) : 
        Dipole                0.5565 Ry au,          1.4144 Debye
        Dipole field          0.0016 Ry au
 
        Potential amp.       -0.1466 Ry
        Total length         45.0992 bohr
 

     total cpu time spent up to now is      332.1 secs

     total energy              =   -2118.53973000 Ry
     Harris-Foulkes estimate   =   -2118.54014934 Ry
     estimated scf accuracy    <       0.00360502 Ry

     iteration # 25     ecut=    36.75 Ry     beta=0.30
     Davidson diagonalization with overlap
     ethr =  1.93E-06,  avg # of iterations =  1.4

     negative rho (up, down):  1.593E+00 0.000E+00
 
     Adding external electric field

     Computed dipole along edir(3) : 
        Dipole                0.4536 Ry au,          1.1529 Debye
        Dipole field          0.0013 Ry au
 
        Potential amp.       -0.1195 Ry
        Total length         45.0992 bohr
 

     total cpu time spent up to now is      341.4 secs

     total energy              =   -2118.53969665 Ry
     Harris-Foulkes estimate   =   -2118.54011944 Ry
     estimated scf accuracy    <       0.00178333 Ry

     iteration # 26     ecut=    36.75 Ry     beta=0.30
     Davidson diagonalization with overlap
     ethr =  9.54E-07,  avg # of iterations =  3.8

     negative rho (up, down):  1.592E+00 0.000E+00
 
     Adding external electric field

     Computed dipole along edir(3) : 
        Dipole                0.4305 Ry au,          1.0941 Debye
        Dipole field          0.0013 Ry au
 
        Potential amp.       -0.1134 Ry
        Total length         45.0992 bohr
 

     total cpu time spent up to now is      352.3 secs

     total energy              =   -2118.53975064 Ry
     Harris-Foulkes estimate   =   -2118.53989373 Ry
     estimated scf accuracy    <       0.00072801 Ry

     iteration # 27     ecut=    36.75 Ry     beta=0.30
     Davidson diagonalization with overlap
     ethr =  3.89E-07,  avg # of iterations =  2.8

     negative rho (up, down):  1.590E+00 0.000E+00
 
     Adding external electric field

     Computed dipole along edir(3) : 
        Dipole                0.3856 Ry au,          0.9801 Debye
        Dipole field          0.0011 Ry au
 
        Potential amp.       -0.1016 Ry
        Total length         45.0992 bohr
 

     total cpu time spent up to now is      362.4 secs

     total energy              =   -2118.53972214 Ry
     Harris-Foulkes estimate   =   -2118.53988907 Ry
     estimated scf accuracy    <       0.00036011 Ry

     iteration # 28     ecut=    36.75 Ry     beta=0.30
     Davidson diagonalization with overlap
     ethr =  1.93E-07,  avg # of iterations =  4.7

     negative rho (up, down):  1.590E+00 0.000E+00
 
     Adding external electric field

     Computed dipole along edir(3) : 
        Dipole                0.3848 Ry au,          0.9782 Debye
        Dipole field          0.0011 Ry au
 
        Potential amp.       -0.1014 Ry
        Total length         45.0992 bohr
 

     total cpu time spent up to now is      374.9 secs

     total energy              =   -2118.53975080 Ry
     Harris-Foulkes estimate   =   -2118.53979447 Ry
     estimated scf accuracy    <       0.00071017 Ry

     iteration # 29     ecut=    36.75 Ry     beta=0.30
     Davidson diagonalization with overlap
     ethr =  1.93E-07,  avg # of iterations =  3.7

     negative rho (up, down):  1.590E+00 0.000E+00
 
     Adding external electric field

     Computed dipole along edir(3) : 
        Dipole                0.3786 Ry au,          0.9623 Debye
        Dipole field          0.0011 Ry au
 
        Potential amp.       -0.0998 Ry
        Total length         45.0992 bohr
 

     total cpu time spent up to now is      385.6 secs

     total energy              =   -2118.53975488 Ry
     Harris-Foulkes estimate   =   -2118.53978824 Ry
     estimated scf accuracy    <       0.00032872 Ry

     iteration # 30     ecut=    36.75 Ry     beta=0.30
     Davidson diagonalization with overlap
     ethr =  1.76E-07,  avg # of iterations =  1.6

     negative rho (up, down):  1.590E+00 0.000E+00
 
     Adding external electric field

     Computed dipole along edir(3) : 
        Dipole                0.3738 Ry au,          0.9501 Debye
        Dipole field          0.0011 Ry au
 
        Potential amp.       -0.0985 Ry
        Total length         45.0992 bohr
 

     total cpu time spent up to now is      395.5 secs

     total energy              =   -2118.53975646 Ry
     Harris-Foulkes estimate   =   -2118.53977783 Ry
     estimated scf accuracy    <       0.00011486 Ry

     iteration # 31     ecut=    36.75 Ry     beta=0.30
     Davidson diagonalization with overlap
     ethr =  6.14E-08,  avg # of iterations =  5.2

     negative rho (up, down):  1.590E+00 0.000E+00
 
     Adding external electric field

     Computed dipole along edir(3) : 
        Dipole                0.3711 Ry au,          0.9431 Debye
        Dipole field          0.0011 Ry au
 
        Potential amp.       -0.0978 Ry
        Total length         45.0992 bohr
 

     total cpu time spent up to now is      406.6 secs

     total energy              =   -2118.53976196 Ry
     Harris-Foulkes estimate   =   -2118.53977211 Ry
     estimated scf accuracy    <       0.00004526 Ry

     iteration # 32     ecut=    36.75 Ry     beta=0.30
     Davidson diagonalization with overlap
     ethr =  2.42E-08,  avg # of iterations =  3.5

     negative rho (up, down):  1.589E+00 0.000E+00
 
     Adding external electric field

     Computed dipole along edir(3) : 
        Dipole                0.3651 Ry au,          0.9281 Debye
        Dipole field          0.0011 Ry au
 
        Potential amp.       -0.0962 Ry
        Total length         45.0992 bohr
 

     total cpu time spent up to now is      416.7 secs

     total energy              =   -2118.53976118 Ry
     Harris-Foulkes estimate   =   -2118.53977821 Ry
     estimated scf accuracy    <       0.00003318 Ry

     iteration # 33     ecut=    36.75 Ry     beta=0.30
     Davidson diagonalization with overlap
     ethr =  1.77E-08,  avg # of iterations =  3.6

     negative rho (up, down):  1.589E+00 0.000E+00

     negative rho (up, down):  1.589E+00 0.000E+00

     negative rho (up, down):  1.589E+00 0.000E+00

     negative rho (up, down):  1.589E+00 0.000E+00

     negative rho (up, down):  1.589E+00 0.000E+00

     negative rho (up, down):  1.589E+00 0.000E+00

     negative rho (up, down):  1.589E+00 0.000E+00

     negative rho (up, down):  1.589E+00 0.000E+00

     negative rho (up, down):  1.589E+00 0.000E+00

     negative rho (up, down):  1.589E+00 0.000E+00

     negative rho (up, down):  1.589E+00 0.000E+00

     negative rho (up, down):  1.589E+00 0.000E+00

     negative rho (up, down):  1.589E+00 0.000E+00

     negative rho (up, down):  1.589E+00 0.000E+00

     negative rho (up, down):  1.589E+00 0.000E+00

     negative rho (up, down):  1.589E+00 0.000E+00

     negative rho (up, down):  1.589E+00 0.000E+00

     negative rho (up, down):  1.589E+00 0.000E+00

     negative rho (up, down):  1.589E+00 0.000E+00

     negative rho (up, down):  1.589E+00 0.000E+00

     negative rho (up, down):  1.589E+00 0.000E+00

     negative rho (up, down):  1.589E+00 0.000E+00

     negative rho (up, down):  1.589E+00 0.000E+00

     negative rho (up, down):  1.589E+00 0.000E+00

     negative rho (up, down):  1.589E+00 0.000E+00

     negative rho (up, down):  1.589E+00 0.000E+00

     negative rho (up, down):  1.589E+00 0.000E+00

     negative rho (up, down):  1.589E+00 0.000E+00

     negative rho (up, down):  1.589E+00 0.000E+00

     negative rho (up, down):  1.589E+00 0.000E+00

     negative rho (up, down):  1.589E+00 0.000E+00

     negative rho (up, down):  1.589E+00 0.000E+00

     negative rho (up, down):  1.589E+00 0.000E+00

     negative rho (up, down):  1.589E+00 0.000E+00

     negative rho (up, down):  1.589E+00 0.000E+00
 
     Adding external electric field

     Computed dipole along edir(3) : 
        Dipole                0.3670 Ry au,          0.9329 Debye
        Dipole field          0.0011 Ry au
 
        Potential amp.       -0.0967 Ry
        Total length         45.0992 bohr
 

     total cpu time spent up to now is      457.2 secs

     End of self-consistent calculation

          k = 0.0000 0.0000 0.0000 ( 16073 PWs)   bands (ev):

   -64.1474 -64.0003 -63.9986 -63.9880 -63.9624 -63.8821 -63.8777 -63.8760
   -63.7626 -63.7509 -63.7486 -63.7441 -36.5858 -36.5715 -36.5710 -36.5342
   -36.4602 -36.4125 -36.4110 -36.2870 -36.2771 -36.2754 -35.9913 -35.9758
   -35.9711 -35.9088 -35.8756 -35.8724 -35.8515 -35.8440 -35.8434 -35.8045
   -35.7018 -35.6998 -35.6748 -35.6569 -35.6544 -35.6474 -35.6159 -35.6079
   -35.6071 -35.5457 -35.5442 -35.5435 -35.4282 -35.4268 -35.3475 -35.3469
   -10.7900  -4.0289  -3.7183  -3.6488  -3.1434  -2.0793  -2.0306  -2.0184
    -1.9551  -1.8927  -1.6010  -1.5446  -1.5321  -1.4435  -1.4390  -1.2123
    -1.0702  -1.0552  -0.4324   0.1415   0.1681   0.8333   0.8437   0.8594
     1.1325   1.2898   1.4490   1.4497   1.6245   1.6946   1.6991   1.8346
     1.8439   1.8449   1.9794   1.9808   2.4402   2.4468   2.4692   3.0506
     3.3706   3.3845   3.4320   3.6108   3.6371   3.8262   3.8278   4.0862
     4.2546   4.2604   4.3506   4.9080   4.9456   5.0761   5.1185

          k = 0.0000 0.0351 0.0000 ( 16137 PWs)   bands (ev):

   -64.1374 -64.0069 -64.0002 -63.9827 -63.9630 -63.8857 -63.8777 -63.8696
   -63.7667 -63.7542 -63.7496 -63.7458 -36.5500 -36.5384 -36.5197 -36.5021
   -36.4378 -36.3850 -36.3796 -36.2577 -36.2449 -36.2269 -36.0094 -35.9881
   -35.9799 -35.9350 -35.9098 -35.8830 -35.8491 -35.8423 -35.8269 -35.7798
   -35.7208 -35.7137 -35.6878 -35.6692 -35.6645 -35.6489 -35.6447 -35.6241
   -35.6189 -35.5768 -35.5751 -35.5315 -35.4803 -35.4395 -35.4050 -35.3605
   -10.7796  -4.0663  -3.6546  -3.5155  -2.9301  -1.9368  -1.8528  -1.8152
    -1.7265  -1.6603  -1.4673  -1.4174  -1.3619  -1.3125  -1.2967  -1.0472
    -0.8957  -0.8177  -0.3654   0.1611   0.2113   0.9152   0.9335   0.9641
     0.9775   1.1103   1.2577   1.4312   1.6399   1.6524   1.6640   1.7861
     1.8487   1.8968   1.9145   2.1699   2.2399   2.2768   2.3178   2.7213
     3.0240   3.1183   3.3667   3.4123   3.4761   3.5891   3.6795   3.7516
     4.0398   4.2649   4.3309   4.4182   4.6960   4.7362   4.8304

          k = 0.0000 0.0702 0.0000 ( 16149 PWs)   bands (ev):

   -64.1099 -64.0326 -64.0004 -63.9767 -63.9533 -63.8997 -63.8786 -63.8477
   -63.7862 -63.7571 -63.7497 -63.7491 -36.4688 -36.4568 -36.4338 -36.3798
   -36.3689 -36.3250 -36.3226 -36.2001 -36.1680 -36.1061 -36.0441 -36.0386
   -36.0204 -35.9747 -35.9230 -35.8865 -35.8518 -35.8471 -35.7948 -35.7893
   -35.7777 -35.7735 -35.7473 -35.7053 -35.6943 -35.6738 -35.6717 -35.6507
   -35.6378 -35.6283 -35.6061 -35.6050 -35.5374 -35.4972 -35.4695 -35.3967
   -10.7587  -4.1203  -3.6088  -3.1690  -2.3522  -1.6689  -1.3879  -1.3444
    -1.2973  -1.1850  -1.0280  -0.9772  -0.9493  -0.9102  -0.8614  -0.7147
    -0.4287  -0.1994  -0.1786   0.1816   0.3775   0.4257   0.6528   0.8327
     1.0264   1.1344   1.1683   1.2653   1.3471   1.3957   1.6020   1.7081
     1.7927   1.8209   1.9566   2.0798   2.1783   2.2407   2.2680   2.4403
     2.4884   2.6697   2.7745   2.8635   2.8923   3.0515   3.1247   3.2043
     3.4377   3.5183   3.7931   4.0618   4.1532   4.1681   4.2377

          k = 0.0000-0.1053 0.0000 ( 16164 PWs)   bands (ev):

   -64.0785 -64.0637 -64.0004 -63.9761 -63.9383 -63.9142 -63.8787 -63.8220
   -63.8117 -63.7576 -63.7507 -63.7497 -36.4127 -36.3988 -36.3788 -36.3447
   -36.3276 -36.2916 -36.1937 -36.1704 -36.1477 -36.1164 -36.0977 -36.0946
   -35.9706 -35.9303 -35.9034 -35.8733 -35.8616 -35.8585 -35.8449 -35.8063
   -35.7909 -35.7806 -35.7687 -35.7413 -35.7401 -35.7341 -35.7203 -35.7157
   -35.6532 -35.6473 -35.6172 -35.6005 -35.5858 -35.4940 -35.4516 -35.4403
   -10.7483  -4.1442  -3.5899  -2.9759  -1.7735  -1.7123  -1.0999  -1.0583
    -1.0460  -1.0019  -0.7765  -0.7319  -0.5763  -0.4312  -0.3752  -0.3029
    -0.1982  -0.0917  -0.0272  -0.0076   0.4644   0.4871   0.6233   0.6429
     0.6739   0.7958   1.0705   1.2125   1.4317   1.4993   1.6090   1.6382
     1.7003   1.7603   1.8013   1.8953   1.9136   1.9400   1.9982   2.0950
     2.1113   2.2828   2.2952   2.9262   2.9884   3.0231   3.0283   3.0384
     3.1536   3.4926   3.5202   3.5890   3.7265   3.8119   3.8496

          k = 0.0304-0.0175 0.0000 ( 16137 PWs)   bands (ev):

   -64.1374 -64.0075 -63.9993 -63.9829 -63.9630 -63.8871 -63.8763 -63.8696
   -63.7662 -63.7555 -63.7487 -63.7458 -36.5498 -36.5387 -36.5197 -36.5019
   -36.4378 -36.3856 -36.3791 -36.2575 -36.2459 -36.2262 -36.0099 -35.9880
   -35.9792 -35.9353 -35.9092 -35.8837 -35.8496 -35.8415 -35.8267 -35.7800
   -35.7199 -35.7148 -35.6883 -35.6695 -35.6634 -35.6486 -35.6447 -35.6238
   -35.6194 -35.5761 -35.5753 -35.5320 -35.4791 -35.4409 -35.4046 -35.3609
   -10.7796  -4.0287  -3.7088  -3.5066  -2.9276  -1.9354  -1.8520  -1.8187
    -1.7263  -1.6590  -1.4640  -1.4132  -1.3713  -1.3093  -1.2984  -1.0453
    -0.8912  -0.8226  -0.3654   0.1590   0.2140   0.9146   0.9315   0.9679
     0.9767   1.1109   1.2569   1.4317   1.6380   1.6503   1.6628   1.7850
     1.8554   1.8960   1.9154   2.1731   2.2496   2.2829   2.3044   2.7247
     3.0194   3.1205   3.3745   3.4106   3.4763   3.5857   3.6788   3.7506
     4.0442   4.2572   4.3407   4.4156   4.7029   4.7312   4.8288

          k = 0.0304 0.0175 0.0000 ( 16137 PWs)   bands (ev):

   -64.1374 -64.0081 -63.9987 -63.9829 -63.9632 -63.8831 -63.8803 -63.8696
   -63.7670 -63.7528 -63.7507 -63.7457 -36.5496 -36.5389 -36.5193 -36.5026
   -36.4379 -36.3843 -36.3801 -36.2582 -36.2444 -36.2267 -36.0082 -35.9858
   -35.9834 -35.9354 -35.9096 -35.8832 -35.8477 -35.8436 -35.8268 -35.7794
   -35.7214 -35.7123 -35.6881 -35.6694 -35.6645 -35.6488 -35.6458 -35.6236
   -35.6189 -35.5774 -35.5747 -35.5315 -35.4801 -35.4397 -35.4050 -35.3605
   -10.7796  -4.0288  -3.7180  -3.4969  -2.9278  -1.9340  -1.8478  -1.8249
    -1.7261  -1.6597  -1.4639  -1.4156  -1.3682  -1.3088  -1.2986  -1.0446
    -0.8866  -0.8273  -0.3655   0.1490   0.2264   0.9148   0.9334   0.9625
     0.9762   1.1131   1.2584   1.4303   1.6365   1.6550   1.6617   1.7856
     1.8531   1.8974   1.9158   2.1681   2.2368   2.2806   2.3158   2.7229
     3.0158   3.1261   3.3729   3.4134   3.4863   3.5764   3.6806   3.7532
     4.0394   4.2651   4.3264   4.4170   4.7011   4.7398   4.8253

          k = 0.0304 0.0526 0.0000 ( 16202 PWs)   bands (ev):

   -64.1186 -64.0194 -64.0073 -63.9755 -63.9576 -63.8913 -63.8822 -63.8546
   -63.7757 -63.7645 -63.7482 -63.7457 -36.5025 -36.4542 -36.4432 -36.4406
   -36.3956 -36.3377 -36.3353 -36.2205 -36.1698 -36.1515 -36.0375 -36.0294
   -36.0012 -35.9814 -35.9273 -35.8675 -35.8511 -35.8350 -35.8257 -35.7830
   -35.7676 -35.7365 -35.7186 -35.6943 -35.6928 -35.6727 -35.6610 -35.6521
   -35.6378 -35.6223 -35.5634 -35.5480 -35.5464 -35.4986 -35.4653 -35.3893
   -10.7639  -4.0773  -3.6665  -3.2484  -2.5236  -1.6339  -1.6019  -1.4741
    -1.3344  -1.2720  -1.2446  -1.1633  -1.0724  -1.0207  -0.9929  -0.7450
    -0.5960  -0.3673  -0.2747   0.1922   0.2969   0.5696   0.7943   0.8913
     1.0621   1.1214   1.1492   1.2815   1.3206   1.5702   1.6268   1.7015
     1.7907   1.9508   1.9815   2.0445   2.0717   2.1298   2.4281   2.5871
     2.6302   2.6976   2.8175   3.1492   3.2104   3.2615   3.3052   3.3445
     3.4333   3.4949   3.8303   4.2007   4.2658   4.4121   4.4938

          k = 0.0304-0.1228 0.0000 ( 16203 PWs)   bands (ev):

   -64.0865 -64.0465 -64.0158 -63.9700 -63.9405 -63.9086 -63.8822 -63.8289
   -63.7972 -63.7731 -63.7506 -63.7418 -36.4177 -36.3839 -36.3591 -36.3378
   -36.3123 -36.2904 -36.2719 -36.1971 -36.1394 -36.0992 -36.0830 -36.0443
   -36.0056 -35.9587 -35.9361 -35.8848 -35.8789 -35.8419 -35.8225 -35.8187
   -35.8001 -35.7728 -35.7622 -35.7481 -35.7322 -35.7115 -35.6969 -35.6867
   -35.6577 -35.6367 -35.6049 -35.5853 -35.5816 -35.5086 -35.4971 -35.4401
   -10.7483  -4.1130  -3.6298  -2.9741  -1.8659  -1.4347  -1.0890  -1.0704
    -1.0028  -0.9253  -0.8221  -0.6665  -0.6141  -0.5936  -0.4557  -0.3193
    -0.2244  -0.1160   0.0463   0.1146   0.3660   0.4058   0.4745   0.7153
     0.7669   0.8360   0.9506   1.1204   1.3104   1.3728   1.4476   1.4975
     1.5994   1.6774   1.7062   1.7669   1.8747   1.9726   2.1021   2.2552
     2.3237   2.4369   2.4696   2.5816   2.9232   3.0336   3.1050   3.1636
     3.2795   3.3980   3.4960   3.5308   3.7852   3.9932   4.0568

          k = 0.0304-0.0877 0.0000 ( 16203 PWs)   bands (ev):

   -64.0865 -64.0463 -64.0160 -63.9700 -63.9397 -63.9109 -63.8806 -63.8290
   -63.7968 -63.7735 -63.7507 -63.7417 -36.4176 -36.3839 -36.3593 -36.3375
   -36.3120 -36.2911 -36.2718 -36.1978 -36.1389 -36.0975 -36.0845 -36.0391
   -36.0102 -35.9682 -35.9317 -35.8866 -35.8725 -35.8353 -35.8247 -35.8220
   -35.8018 -35.7726 -35.7607 -35.7478 -35.7329 -35.7112 -35.6973 -35.6869
   -35.6565 -35.6397 -35.6009 -35.5870 -35.5820 -35.5089 -35.4971 -35.4403
   -10.7483  -4.1132  -3.6253  -2.9794  -1.8651  -1.4378  -1.0894  -1.0692
    -1.0065  -0.9229  -0.8127  -0.6617  -0.6194  -0.5931  -0.4686  -0.3185
    -0.2210  -0.1152   0.0418   0.1193   0.3726   0.4116   0.4688   0.7071
     0.7654   0.8455   0.9552   1.1098   1.3217   1.3615   1.4508   1.5111
     1.5881   1.6361   1.7151   1.7599   1.8942   2.0062   2.0802   2.2414
     2.3170   2.4638   2.4897   2.5735   2.9190   3.0168   3.1366   3.1652
     3.2725   3.3920   3.4671   3.5420   3.7898   4.0087   4.0407

          k = 0.0304-0.0526 0.0000 ( 16202 PWs)   bands (ev):

   -64.1186 -64.0186 -64.0082 -63.9754 -63.9572 -63.8962 -63.8775 -63.8546
   -63.7742 -63.7665 -63.7484 -63.7451 -36.5025 -36.4543 -36.4429 -36.4402
   -36.3952 -36.3390 -36.3345 -36.2204 -36.1716 -36.1509 -36.0392 -36.0269
   -36.0022 -35.9812 -35.9275 -35.8655 -35.8534 -35.8344 -35.8254 -35.7834
   -35.7685 -35.7360 -35.7183 -35.6942 -35.6922 -35.6722 -35.6613 -35.6512
   -35.6370 -35.6226 -35.5633 -35.5488 -35.5461 -35.4983 -35.4663 -35.3897
   -10.7640  -4.0776  -3.6540  -3.2621  -2.5230  -1.6336  -1.6048  -1.4713
    -1.3339  -1.2700  -1.2422  -1.1668  -1.0716  -1.0228  -0.9935  -0.7470
    -0.5986  -0.3626  -0.2737   0.1952   0.2879   0.5730   0.7992   0.8880
     1.0559   1.1198   1.1520   1.2823   1.3208   1.5745   1.6264   1.7008
     1.7958   1.9495   1.9845   2.0424   2.0728   2.1202   2.4525   2.5935
     2.6245   2.6892   2.8162   3.1521   3.2099   3.2481   3.3057   3.3514
     3.4273   3.4955   3.8306   4.2016   4.2686   4.4138   4.4909

          k = 0.0608-0.0351 0.0000 ( 16149 PWs)   bands (ev):

   -64.1099 -64.0329 -63.9995 -63.9773 -63.9528 -63.9022 -63.8764 -63.8477
   -63.7858 -63.7584 -63.7493 -63.7488 -36.4685 -36.4572 -36.4336 -36.3796
   -36.3690 -36.3257 -36.3223 -36.2000 -36.1695 -36.1057 -36.0438 -36.0387
   -36.0200 -35.9747 -35.9219 -35.8869 -35.8506 -35.8482 -35.7955 -35.7898
   -35.7788 -35.7714 -35.7477 -35.7054 -35.6932 -35.6735 -35.6715 -35.6506
   -35.6370 -35.6286 -35.6056 -35.6046 -35.5370 -35.4978 -35.4712 -35.3970
   -10.7588  -4.0334  -3.7138  -3.1715  -2.3476  -1.6682  -1.3880  -1.3486
    -1.2915  -1.1845  -1.0279  -0.9767  -0.9524  -0.9063  -0.8637  -0.7116
    -0.4258  -0.1998  -0.1803   0.1805   0.3767   0.4301   0.6534   0.8343
     1.0282   1.1376   1.1645   1.2641   1.3438   1.3952   1.6016   1.7085
     1.7840   1.8351   1.9597   2.0820   2.1794   2.2469   2.2671   2.4500
     2.4816   2.6713   2.7758   2.8661   2.8921   3.0525   3.1245   3.1956
     3.4446   3.5183   3.7916   4.0659   4.1493   4.1737   4.2465

          k = 0.0608 0.0000 0.0000 ( 16202 PWs)   bands (ev):

   -64.1185 -64.0202 -64.0063 -63.9759 -63.9573 -63.8940 -63.8795 -63.8546
   -63.7749 -63.7656 -63.7483 -63.7454 -36.5025 -36.4544 -36.4432 -36.4403
   -36.3955 -36.3379 -36.3353 -36.2208 -36.1704 -36.1511 -36.0376 -36.0291
   -36.0014 -35.9813 -35.9274 -35.8672 -35.8516 -35.8346 -35.8258 -35.7832
   -35.7676 -35.7365 -35.7184 -35.6945 -35.6924 -35.6719 -35.6611 -35.6517
   -35.6377 -35.6222 -35.5631 -35.5484 -35.5464 -35.4982 -35.4664 -35.3897
   -10.7640  -4.0054  -3.7476  -3.2543  -2.5192  -1.6338  -1.6005  -1.4769
    -1.3338  -1.2716  -1.2392  -1.1670  -1.0706  -1.0237  -0.9923  -0.7444
    -0.5921  -0.3680  -0.2750   0.1938   0.2959   0.5711   0.7978   0.8898
     1.0611   1.1254   1.1503   1.2787   1.3115   1.5717   1.6259   1.7025
     1.7947   1.9453   1.9861   2.0473   2.0727   2.1260   2.4435   2.5907
     2.6304   2.6943   2.8198   3.1505   3.2097   3.2606   3.3025   3.3493
     3.4249   3.4990   3.8312   4.2037   4.2688   4.4140   4.4885

          k = 0.0608 0.0351 0.0000 ( 16149 PWs)   bands (ev):

   -64.1098 -64.0334 -63.9988 -63.9776 -63.9537 -63.8963 -63.8816 -63.8476
   -63.7866 -63.7558 -63.7508 -63.7489 -36.4681 -36.4575 -36.4344 -36.3804
   -36.3689 -36.3243 -36.3227 -36.2005 -36.1674 -36.1039 -36.0448 -36.0383
   -36.0215 -35.9740 -35.9233 -35.8870 -35.8524 -35.8467 -35.7940 -35.7885
   -35.7779 -35.7734 -35.7476 -35.7051 -35.6945 -35.6732 -35.6713 -35.6508
   -35.6387 -35.6278 -35.6074 -35.6051 -35.5373 -35.4972 -35.4693 -35.3968
   -10.7587  -4.0321  -3.7285  -3.1558  -2.3482  -1.6676  -1.3874  -1.3503
    -1.2936  -1.1836  -1.0275  -0.9761  -0.9502  -0.9083  -0.8629  -0.7092
    -0.4237  -0.2050  -0.1796   0.1809   0.3770   0.4318   0.6531   0.8341
     1.0342   1.1354   1.1650   1.2675   1.3338   1.3952   1.6020   1.7111
     1.7845   1.8248   1.9576   2.0826   2.1803   2.2457   2.2685   2.4430
     2.4824   2.6713   2.7756   2.8652   2.8907   3.0548   3.1337   3.1901
     3.4446   3.5196   3.7972   4.0693   4.1490   4.1722   4.2536

          k = 0.0608-0.1404 0.0000 ( 16203 PWs)   bands (ev):

   -64.0862 -64.0474 -64.0150 -63.9703 -63.9413 -63.9060 -63.8841 -63.8288
   -63.7976 -63.7727 -63.7505 -63.7419 -36.4175 -36.3850 -36.3588 -36.3376
   -36.3132 -36.2901 -36.2716 -36.1970 -36.1408 -36.0960 -36.0843 -36.0383
   -36.0102 -35.9655 -35.9321 -35.8866 -35.8731 -35.8378 -35.8257 -35.8216
   -35.8017 -35.7723 -35.7612 -35.7477 -35.7318 -35.7118 -35.6971 -35.6869
   -35.6568 -35.6389 -35.6026 -35.5871 -35.5817 -35.5082 -35.4970 -35.4402
   -10.7483  -4.0576  -3.7029  -2.9676  -1.8637  -1.4368  -1.0896  -1.0704
    -1.0039  -0.9248  -0.8100  -0.6593  -0.6186  -0.5941  -0.4649  -0.3196
    -0.2212  -0.1148   0.0382   0.1179   0.3707   0.4134   0.4717   0.7055
     0.7696   0.8450   0.9567   1.1097   1.3213   1.3608   1.4514   1.5081
     1.5942   1.6407   1.7149   1.7587   1.8944   2.0032   2.0770   2.2400
     2.3094   2.4640   2.4913   2.5719   2.9178   3.0211   3.1339   3.1677
     3.2819   3.3861   3.4741   3.5418   3.7880   4.0065   4.0521

          k = 0.0608-0.1053 0.0000 ( 16272 PWs)   bands (ev):

   -64.0606 -64.0561 -64.0365 -63.9656 -63.9270 -63.9192 -63.8847 -63.8106
   -63.7976 -63.7951 -63.7512 -63.7377 -36.3417 -36.3251 -36.3183 -36.3140
   -36.3053 -36.2578 -36.2412 -36.2195 -36.2131 -36.1316 -36.0444 -35.9834
   -35.9799 -35.9613 -35.9508 -35.9179 -35.8962 -35.8951 -35.8547 -35.8166
   -35.8136 -35.7653 -35.7563 -35.7554 -35.7437 -35.7375 -35.7218 -35.6761
   -35.6597 -35.6430 -35.6056 -35.5720 -35.5659 -35.5181 -35.5164 -35.5051
   -10.7432  -4.0628  -3.6913  -2.8751  -1.2834  -1.2766  -1.2164  -0.7096
    -0.6748  -0.6492  -0.6349  -0.5910  -0.4068  -0.2978  -0.2842  -0.2712
    -0.1959  -0.1742  -0.1605   0.3029   0.3260   0.6217   0.6264   0.6408
     0.7232   0.7529   0.8528   0.8995   0.9648   0.9844   1.0259   1.0428
     1.3033   1.3654   1.6082   1.6921   1.7221   2.0534   2.0580   2.1424
     2.1754   2.2117   2.2501   2.8048   2.9031   2.9730   3.1393   3.1586
     3.3348   3.4430   3.4562   3.7135   3.7748   3.8228   4.5600

          k = 0.0608-0.0702 0.0000 ( 16203 PWs)   bands (ev):

   -64.0864 -64.0466 -64.0156 -63.9702 -63.9388 -63.9130 -63.8793 -63.8291
   -63.7964 -63.7739 -63.7508 -63.7415 -36.4175 -36.3836 -36.3595 -36.3374
   -36.3124 -36.2909 -36.2720 -36.1978 -36.1377 -36.1006 -36.0839 -36.0448
   -36.0058 -35.9606 -35.9338 -35.8845 -35.8792 -35.8411 -35.8227 -35.8182
   -35.7997 -35.7727 -35.7614 -35.7475 -35.7327 -35.7112 -35.6971 -35.6868
   -35.6571 -35.6367 -35.6039 -35.5848 -35.5819 -35.5103 -35.4978 -35.4404
   -10.7484  -4.0591  -3.6896  -2.9823  -1.8640  -1.4332  -1.0894  -1.0726
    -0.9977  -0.9267  -0.8225  -0.6652  -0.6136  -0.5934  -0.4572  -0.3195
    -0.2247  -0.1141   0.0477   0.1154   0.3682   0.4057   0.4736   0.7158
     0.7629   0.8362   0.9563   1.1201   1.3151   1.3691   1.4456   1.4945
     1.6039   1.6720   1.7049   1.7685   1.8721   1.9896   2.0957   2.2546
     2.3244   2.4383   2.4731   2.5882   2.9214   3.0303   3.1052   3.1643
     3.2836   3.3866   3.5050   3.5304   3.7866   3.9980   4.0571

          k =-0.0912 0.0526 0.0000 ( 16164 PWs)   bands (ev):

   -64.0779 -64.0645 -63.9996 -63.9768 -63.9358 -63.9187 -63.8764 -63.8227
   -63.8107 -63.7588 -63.7509 -63.7488 -36.4124 -36.3992 -36.3781 -36.3443
   -36.3282 -36.2925 -36.1948 -36.1700 -36.1475 -36.1172 -36.0980 -36.0953
   -35.9698 -35.9252 -35.9077 -35.8736 -35.8615 -35.8592 -35.8453 -35.8038
   -35.7905 -35.7809 -35.7683 -35.7410 -35.7397 -35.7334 -35.7201 -35.7166
   -35.6521 -35.6477 -35.6170 -35.6004 -35.5848 -35.4963 -35.4531 -35.4398
   -10.7485  -4.0390  -3.7154  -2.9820  -1.7723  -1.7064  -1.0992  -1.0577
    -1.0488  -1.0001  -0.7777  -0.7313  -0.5756  -0.4207  -0.3755  -0.3069
    -0.1988  -0.0923  -0.0269  -0.0072   0.4647   0.4897   0.6230   0.6458
     0.6707   0.7969   1.0773   1.2130   1.4167   1.5056   1.6184   1.6381
     1.7023   1.7646   1.8030   1.8961   1.9139   1.9354   2.0059   2.0982
     2.1062   2.2773   2.2952   2.9241   2.9963   3.0212   3.0282   3.0378
     3.1615   3.4941   3.5298   3.5856   3.7265   3.8160   3.8480

          k =-0.0912 0.0877 0.0000 ( 16203 PWs)   bands (ev):

   -64.0863 -64.0471 -64.0152 -63.9703 -63.9393 -63.9119 -63.8800 -63.8290
   -63.7966 -63.7737 -63.7507 -63.7416 -36.4177 -36.3839 -36.3590 -36.3370
   -36.3127 -36.2917 -36.2715 -36.1976 -36.1402 -36.0973 -36.0850 -36.0392
   -36.0096 -35.9651 -35.9330 -35.8851 -35.8732 -35.8375 -35.8251 -35.8220
   -35.8005 -35.7727 -35.7607 -35.7479 -35.7328 -35.7118 -35.6966 -35.6866
   -35.6561 -35.6391 -35.6009 -35.5871 -35.5810 -35.5104 -35.4978 -35.4404
   -10.7485  -4.0241  -3.7320  -2.9815  -1.8608  -1.4361  -1.0893  -1.0706
    -1.0043  -0.9247  -0.8127  -0.6596  -0.6196  -0.5945  -0.4620  -0.3195
    -0.2195  -0.1127   0.0398   0.1178   0.3702   0.4154   0.4695   0.7083
     0.7693   0.8433   0.9587   1.1091   1.3182   1.3544   1.4526   1.5097
     1.5923   1.6436   1.7142   1.7577   1.9005   2.0021   2.0849   2.2418
     2.3136   2.4611   2.4872   2.5747   2.9203   3.0229   3.1332   3.1687
     3.2827   3.3839   3.4742   3.5429   3.7868   4.0089   4.0445

          k =-0.0912 0.1228 0.0000 ( 16203 PWs)   bands (ev):

   -64.0862 -64.0476 -64.0147 -63.9704 -63.9409 -63.9072 -63.8832 -63.8288
   -63.7974 -63.7729 -63.7506 -63.7418 -36.4174 -36.3850 -36.3590 -36.3378
   -36.3134 -36.2894 -36.2719 -36.1969 -36.1394 -36.0985 -36.0833 -36.0438
   -36.0055 -35.9609 -35.9343 -35.8851 -35.8799 -35.8411 -35.8231 -35.8171
   -35.8007 -35.7723 -35.7618 -35.7475 -35.7315 -35.7118 -35.6970 -35.6868
   -35.6577 -35.6372 -35.6055 -35.5850 -35.5823 -35.5087 -35.4968 -35.4404
   -10.7484  -4.0227  -3.7407  -2.9726  -1.8621  -1.4339  -1.0891  -1.0708
    -0.9998  -0.9255  -0.8211  -0.6665  -0.6139  -0.5948  -0.4531  -0.3185
    -0.2246  -0.1122   0.0461   0.1162   0.3684   0.4044   0.4754   0.7171
     0.7694   0.8322   0.9520   1.1184   1.3148   1.3729   1.4472   1.4840
     1.6061   1.6744   1.7018   1.7652   1.8723   1.9887   2.1007   2.2528
     2.3210   2.4344   2.4735   2.5916   2.9238   3.0322   3.1052   3.1631
     3.2880   3.3941   3.4999   3.5328   3.7846   3.9943   4.0606

          k =-0.0912-0.0526 0.0000 ( 16164 PWs)   bands (ev):

   -64.0770 -64.0659 -63.9989 -63.9771 -63.9402 -63.9095 -63.8816 -63.8213
   -63.8127 -63.7563 -63.7508 -63.7504 -36.4113 -36.3997 -36.3816 -36.3424
   -36.3300 -36.2905 -36.1918 -36.1702 -36.1490 -36.1167 -36.0977 -36.0944
   -35.9675 -35.9263 -35.9090 -35.8734 -35.8625 -35.8591 -35.8434 -35.8079
   -35.7900 -35.7805 -35.7692 -35.7405 -35.7388 -35.7348 -35.7204 -35.7151
   -35.6537 -35.6464 -35.6181 -35.6000 -35.5879 -35.4934 -35.4508 -35.4410
   -10.7484  -4.0366  -3.7325  -2.9636  -1.7723  -1.7086  -1.0980  -1.0577
    -1.0467  -0.9999  -0.7764  -0.7312  -0.5771  -0.4261  -0.3730  -0.3053
    -0.1969  -0.0888  -0.0286  -0.0079   0.4661   0.4878   0.6189   0.6450
     0.6732   0.7991   1.0728   1.2124   1.4337   1.4985   1.6075   1.6358
     1.7015   1.7633   1.8037   1.9000   1.9107   1.9244   2.0096   2.0969
     2.1088   2.2793   2.2953   2.9270   2.9957   3.0188   3.0225   3.0379
     3.1640   3.4955   3.5290   3.5888   3.7271   3.8180   3.8494

     the Fermi energy is     3.1461 ev

!    total energy              =   -2118.53976047 Ry
     Harris-Foulkes estimate   =   -2118.53975977 Ry
     estimated scf accuracy    <       0.00000364 Ry

     The total energy is the sum of the following terms:

     one-electron contribution =  -19199.61538051 Ry
     hartree contribution      =    9604.86781561 Ry
     xc contribution           =    -403.04254134 Ry
     ewald contribution        =    7879.34293392 Ry
     electric field correction =       0.00039352 Ry
     smearing contrib. (-TS)   =      -0.09298167 Ry

     convergence has been achieved in  33 iterations
 
 BEEF-vdW xc energy contributions
           1 :   -352.958277396274     
           2 :    324.477314126152     
           3 :   -273.852292283820     
           4 :    211.262862761974     
           5 :   -147.538843500576     
           6 :    91.2016219177875     
           7 :   -46.8156350133215     
           8 :    14.8542397806910     
           9 :    7.05853593330539     
          10 :   -22.2837487070656     
          11 :    33.4537789732054     
          12 :   -41.5838311536824     
          13 :    46.1464401755486     
          14 :   -45.9077581309924     
          15 :    40.0010923360554     
          16 :   -28.7527998093958     
          17 :    13.9087051442024     
          18 :    1.77102916296599     
          19 :   -15.3460831422680     
          20 :    24.5693798528574     
          21 :   -28.4594096359640     
          22 :    27.3652295130639     
          23 :   -22.5729633029021     
          24 :    15.6749061732350     
          25 :   -8.01046521216676     
          26 :   0.394465024500619     
          27 :    6.81080626441832     
          28 :   -13.4047097569120     
          29 :    19.0455354782366     
          30 :   -23.1240779443306     
          31 :   -33.7816059442691     
          32 :   -24.8133384410182     

     Forces acting on atoms (Ry/au):


     negative rho (up, down):  1.589E+00 0.000E+00
     atom    1 type  1   force =    -0.00007991    0.00006515    0.02922887
     atom    2 type  1   force =    -0.00014150   -0.00389713    0.02782234
     atom    3 type  1   force =    -0.00328863    0.00215990    0.02797216
     atom    4 type  1   force =     0.00368612    0.00176896    0.02815540
     atom    5 type  1   force =    -0.00543396    0.00222335    0.00533799
     atom    6 type  1   force =     0.00482966    0.00399766    0.00552231
     atom    7 type  1   force =     0.00002199   -0.00027655   -0.04127522
     atom    8 type  1   force =     0.00017778   -0.00623563    0.00473533
     atom    9 type  1   force =    -0.01091842   -0.02282534   -0.04094205
     atom   10 type  1   force =     0.02661295    0.00380436   -0.03412233
     atom   11 type  1   force =    -0.01311748    0.02178747   -0.04254512
     atom   12 type  1   force =    -0.00031676   -0.00001384   -0.05104743
     atom   13 type  2   force =     0.03202979   -0.00248814    0.21161125
     atom   14 type  3   force =    -0.05370181   -0.01793522   -0.05836913
     atom   15 type  3   force =     0.02442663   -0.02120443   -0.03592725
     atom   16 type  3   force =    -0.00478645    0.03906942   -0.03615713

     Total force =     0.258619     Total SCF correction =     0.005866


     entering subroutine stress ...


     negative rho (up, down):  1.589E+00 0.000E+00
          total   stress  (Ry/bohr**3)                   (kbar)     P=  -28.70
  -0.00019857  -0.00000074  -0.00001070        -29.21     -0.11     -1.57
  -0.00000074  -0.00019466  -0.00000157         -0.11    -28.64     -0.23
  -0.00001070  -0.00000157  -0.00019210         -1.57     -0.23    -28.26


     BFGS Geometry Optimization

     number of scf cycles    =   1
     number of bfgs steps    =   0

     energy   new            =   -2118.5397604661 Ry

     new trust radius        =       0.2140360251 bohr
     new conv_thr            =       0.0000099958 Ry


ATOMIC_POSITIONS (crystal)
Tc1      0.166666667   0.166666667   0.408540475    0   0   0
Tc1      0.666666667   0.166666667   0.408540475    0   0   0
Tc1      0.166666667   0.666666667   0.408540475    0   0   0
Tc1      0.666666667   0.666666667   0.408540475    0   0   0
Tc1      0.833333333   0.333333333   0.500000000    0   0   0
Tc1      0.333333333   0.333333333   0.500000000    0   0   0
Tc1      0.833333333   0.833333333   0.500000000    0   0   0
Tc1      0.333333333   0.833333333   0.500000000    0   0   0
Tc1      0.000218072  -0.002543421   0.590574398
Tc1      0.502356216   0.000423919   0.590721833
Tc1     -0.002479736   0.502427772   0.590539741
Tc1      0.499970203   0.499998457   0.590355929
C1       0.169896199   0.166389414   0.655252297
H1       0.361256477   0.164668151   0.675153633
H1       0.994491346   0.351607341   0.675638805
H1       0.175617584   0.983716683   0.675633835



     Writing output data file calc.save
     Check: negative starting charge=   -1.504624
     NEW-OLD atomic charge density approx. for the potential

     Check: negative/imaginary core charge=   -0.000022    0.000000
     Check: negative starting charge=   -1.509524

     negative rho (up, down):  1.594E+00 0.000E+00
 
     Adding external electric field

     Computed dipole along edir(3) : 
        Dipole                0.1984 Ry au,          0.5042 Debye
        Dipole field          0.0006 Ry au
 
        Potential amp.       -0.0523 Ry
        Total length         45.0992 bohr
 

     total cpu time spent up to now is      481.7 secs

     Self-consistent Calculation

     iteration #  1     ecut=    36.75 Ry     beta=0.30
     Davidson diagonalization with overlap
     c_bands:  2 eigenvalues not converged
     ethr =  1.00E-06,  avg # of iterations = 15.7

     negative rho (up, down):  1.594E+00 0.000E+00
 
     Adding external electric field

     Computed dipole along edir(3) : 
        Dipole                2.9924 Ry au,          7.6060 Debye
        Dipole field          0.0087 Ry au
 
        Potential amp.       -0.7885 Ry
        Total length         45.0992 bohr
 

     total cpu time spent up to now is      507.8 secs

     total energy              =   -2118.02561583 Ry
     Harris-Foulkes estimate   =   -2118.58434131 Ry
     estimated scf accuracy    <       1.16263406 Ry

     iteration #  2     ecut=    36.75 Ry     beta=0.30
     Davidson diagonalization with overlap
     ethr =  6.22E-04,  avg # of iterations = 12.7

     negative rho (up, down):  1.594E+00 0.000E+00
 
     Adding external electric field

     Computed dipole along edir(3) : 
        Dipole               -0.2240 Ry au,         -0.5693 Debye
        Dipole field         -0.0007 Ry au
 
        Potential amp.        0.0590 Ry
        Total length         45.0992 bohr
 

     total cpu time spent up to now is      528.6 secs

     total energy              =   -2111.50961068 Ry
     Harris-Foulkes estimate   =   -2126.28922548 Ry
     estimated scf accuracy    <     650.69298645 Ry

     iteration #  3     ecut=    36.75 Ry     beta=0.30
     Davidson diagonalization with overlap
     ethr =  6.22E-04,  avg # of iterations =  7.2

     negative rho (up, down):  1.594E+00 0.000E+00
 
     Adding external electric field

     Computed dipole along edir(3) : 
        Dipole               -0.0306 Ry au,         -0.0777 Debye
        Dipole field         -0.0001 Ry au
 
        Potential amp.        0.0081 Ry
        Total length         45.0992 bohr
 

     total cpu time spent up to now is      547.0 secs

     total energy              =   -2118.50904764 Ry
     Harris-Foulkes estimate   =   -2118.66618971 Ry
     estimated scf accuracy    <       2.12877976 Ry

     iteration #  4     ecut=    36.75 Ry     beta=0.30
     Davidson diagonalization with overlap
     ethr =  6.22E-04,  avg # of iterations =  3.8

     negative rho (up, down):  1.594E+00 0.000E+00
 
     Adding external electric field

     Computed dipole along edir(3) : 
        Dipole                0.0855 Ry au,          0.2174 Debye
        Dipole field          0.0002 Ry au
 
        Potential amp.       -0.0225 Ry
        Total length         45.0992 bohr
 

     total cpu time spent up to now is      558.0 secs

     total energy              =   -2118.56908259 Ry
     Harris-Foulkes estimate   =   -2118.58908044 Ry
     estimated scf accuracy    <       0.48767220 Ry

     iteration #  5     ecut=    36.75 Ry     beta=0.30
     Davidson diagonalization with overlap
     ethr =  2.61E-04,  avg # of iterations =  2.9

     negative rho (up, down):  1.594E+00 0.000E+00
 
     Adding external electric field

     Computed dipole along edir(3) : 
        Dipole                0.1267 Ry au,          0.3220 Debye
        Dipole field          0.0004 Ry au
 
        Potential amp.       -0.0334 Ry
        Total length         45.0992 bohr
 

     total cpu time spent up to now is      568.4 secs

     total energy              =   -2118.58371557 Ry
     Harris-Foulkes estimate   =   -2118.58493109 Ry
     estimated scf accuracy    <       0.00463432 Ry

     iteration #  6     ecut=    36.75 Ry     beta=0.30
     Davidson diagonalization with overlap
     ethr =  2.48E-06,  avg # of iterations =  6.7

     negative rho (up, down):  1.594E+00 0.000E+00
 
     Adding external electric field

     Computed dipole along edir(3) : 
        Dipole                0.1401 Ry au,          0.3560 Debye
        Dipole field          0.0004 Ry au
 
        Potential amp.       -0.0369 Ry
        Total length         45.0992 bohr
 

     total cpu time spent up to now is      585.1 secs

     total energy              =   -2118.58705622 Ry
     Harris-Foulkes estimate   =   -2118.58817982 Ry
     estimated scf accuracy    <       0.03055446 Ry

     iteration #  7     ecut=    36.75 Ry     beta=0.30
     Davidson diagonalization with overlap
     ethr =  2.48E-06,  avg # of iterations =  5.0

     negative rho (up, down):  1.594E+00 0.000E+00
 
     Adding external electric field

     Computed dipole along edir(3) : 
        Dipole                0.1644 Ry au,          0.4178 Debye
        Dipole field          0.0005 Ry au
 
        Potential amp.       -0.0433 Ry
        Total length         45.0992 bohr
 

     total cpu time spent up to now is      596.6 secs

     total energy              =   -2118.58702214 Ry
     Harris-Foulkes estimate   =   -2118.58770519 Ry
     estimated scf accuracy    <       0.01865161 Ry

     iteration #  8     ecut=    36.75 Ry     beta=0.30
     Davidson diagonalization with overlap
     ethr =  2.48E-06,  avg # of iterations =  5.2

     negative rho (up, down):  1.594E+00 0.000E+00
 
     Adding external electric field

     Computed dipole along edir(3) : 
        Dipole                0.1836 Ry au,          0.4666 Debye
        Dipole field          0.0005 Ry au
 
        Potential amp.       -0.0484 Ry
        Total length         45.0992 bohr
 

     total cpu time spent up to now is      607.8 secs

     total energy              =   -2118.58726245 Ry
     Harris-Foulkes estimate   =   -2118.58746965 Ry
     estimated scf accuracy    <       0.00192582 Ry

     iteration #  9     ecut=    36.75 Ry     beta=0.30
     Davidson diagonalization with overlap
     ethr =  1.03E-06,  avg # of iterations =  4.6

     negative rho (up, down):  1.594E+00 0.000E+00
 
     Adding external electric field

     Computed dipole along edir(3) : 
        Dipole                0.2228 Ry au,          0.5664 Debye
        Dipole field          0.0007 Ry au
 
        Potential amp.       -0.0587 Ry
        Total length         45.0992 bohr
 

     total cpu time spent up to now is      618.1 secs

     total energy              =   -2118.58719307 Ry
     Harris-Foulkes estimate   =   -2118.58735029 Ry
     estimated scf accuracy    <       0.00233741 Ry

     iteration # 10     ecut=    36.75 Ry     beta=0.30
     Davidson diagonalization with overlap
     ethr =  1.03E-06,  avg # of iterations =  1.8

     negative rho (up, down):  1.594E+00 0.000E+00
 
     Adding external electric field

     Computed dipole along edir(3) : 
        Dipole                0.2402 Ry au,          0.6105 Debye
        Dipole field          0.0007 Ry au
 
        Potential amp.       -0.0633 Ry
        Total length         45.0992 bohr
 

     total cpu time spent up to now is      627.3 secs

     total energy              =   -2118.58718325 Ry
     Harris-Foulkes estimate   =   -2118.58722788 Ry
     estimated scf accuracy    <       0.00116972 Ry

     iteration # 11     ecut=    36.75 Ry     beta=0.30
     Davidson diagonalization with overlap
     ethr =  6.26E-07,  avg # of iterations =  1.0

     negative rho (up, down):  1.594E+00 0.000E+00
 
     Adding external electric field

     Computed dipole along edir(3) : 
        Dipole                0.2624 Ry au,          0.6669 Debye
        Dipole field          0.0008 Ry au
 
        Potential amp.       -0.0691 Ry
        Total length         45.0992 bohr
 

     total cpu time spent up to now is      636.4 secs

     total energy              =   -2118.58713392 Ry
     Harris-Foulkes estimate   =   -2118.58716946 Ry
     estimated scf accuracy    <       0.00075853 Ry

     iteration # 12     ecut=    36.75 Ry     beta=0.30
     Davidson diagonalization with overlap
     ethr =  4.06E-07,  avg # of iterations =  1.0

     negative rho (up, down):  1.594E+00 0.000E+00
 
     Adding external electric field

     Computed dipole along edir(3) : 
        Dipole                0.3053 Ry au,          0.7760 Debye
        Dipole field          0.0009 Ry au
 
        Potential amp.       -0.0804 Ry
        Total length         45.0992 bohr
 

     total cpu time spent up to now is      645.7 secs

     total energy              =   -2118.58705256 Ry
     Harris-Foulkes estimate   =   -2118.58707228 Ry
     estimated scf accuracy    <       0.00036634 Ry

     iteration # 13     ecut=    36.75 Ry     beta=0.30
     Davidson diagonalization with overlap
     ethr =  1.96E-07,  avg # of iterations =  4.7

     negative rho (up, down):  1.594E+00 0.000E+00
 
     Adding external electric field

     Computed dipole along edir(3) : 
        Dipole                0.3439 Ry au,          0.8742 Debye
        Dipole field          0.0010 Ry au
 
        Potential amp.       -0.0906 Ry
        Total length         45.0992 bohr
 

     total cpu time spent up to now is      656.6 secs

     total energy              =   -2118.58706490 Ry
     Harris-Foulkes estimate   =   -2118.58701379 Ry
     estimated scf accuracy    <       0.00013671 Ry

     iteration # 14     ecut=    36.75 Ry     beta=0.30
     Davidson diagonalization with overlap
     ethr =  7.31E-08,  avg # of iterations =  2.9

     negative rho (up, down):  1.594E+00 0.000E+00
 
     Adding external electric field

     Computed dipole along edir(3) : 
        Dipole                0.3421 Ry au,          0.8695 Debye
        Dipole field          0.0010 Ry au
 
        Potential amp.       -0.0901 Ry
        Total length         45.0992 bohr
 

     total cpu time spent up to now is      666.7 secs

     total energy              =   -2118.58704188 Ry
     Harris-Foulkes estimate   =   -2118.58707730 Ry
     estimated scf accuracy    <       0.00021382 Ry

     iteration # 15     ecut=    36.75 Ry     beta=0.30
     Davidson diagonalization with overlap
     ethr =  7.31E-08,  avg # of iterations =  4.4

     negative rho (up, down):  1.594E+00 0.000E+00
 
     Adding external electric field

     Computed dipole along edir(3) : 
        Dipole                0.3442 Ry au,          0.8749 Debye
        Dipole field          0.0010 Ry au
 
        Potential amp.       -0.0907 Ry
        Total length         45.0992 bohr
 

     total cpu time spent up to now is      678.0 secs

     total energy              =   -2118.58705894 Ry
     Harris-Foulkes estimate   =   -2118.58706298 Ry
     estimated scf accuracy    <       0.00011108 Ry

     iteration # 16     ecut=    36.75 Ry     beta=0.30
     Davidson diagonalization with overlap
     ethr =  5.94E-08,  avg # of iterations =  1.1

     negative rho (up, down):  1.594E+00 0.000E+00
 
     Adding external electric field

     Computed dipole along edir(3) : 
        Dipole                0.3471 Ry au,          0.8823 Debye
        Dipole field          0.0010 Ry au
 
        Potential amp.       -0.0915 Ry
        Total length         45.0992 bohr
 

     total cpu time spent up to now is      687.3 secs

     total energy              =   -2118.58706055 Ry
     Harris-Foulkes estimate   =   -2118.58705614 Ry
     estimated scf accuracy    <       0.00001611 Ry

     iteration # 17     ecut=    36.75 Ry     beta=0.30
     Davidson diagonalization with overlap
     ethr =  8.62E-09,  avg # of iterations =  4.8

     negative rho (up, down):  1.594E+00 0.000E+00

     negative rho (up, down):  1.594E+00 0.000E+00

     negative rho (up, down):  1.594E+00 0.000E+00

     negative rho (up, down):  1.594E+00 0.000E+00

     negative rho (up, down):  1.594E+00 0.000E+00

     negative rho (up, down):  1.594E+00 0.000E+00

     negative rho (up, down):  1.594E+00 0.000E+00

     negative rho (up, down):  1.594E+00 0.000E+00

     negative rho (up, down):  1.594E+00 0.000E+00

     negative rho (up, down):  1.594E+00 0.000E+00

     negative rho (up, down):  1.594E+00 0.000E+00

     negative rho (up, down):  1.594E+00 0.000E+00

     negative rho (up, down):  1.594E+00 0.000E+00

     negative rho (up, down):  1.594E+00 0.000E+00

     negative rho (up, down):  1.594E+00 0.000E+00

     negative rho (up, down):  1.594E+00 0.000E+00

     negative rho (up, down):  1.594E+00 0.000E+00

     negative rho (up, down):  1.594E+00 0.000E+00

     negative rho (up, down):  1.594E+00 0.000E+00

     negative rho (up, down):  1.594E+00 0.000E+00

     negative rho (up, down):  1.594E+00 0.000E+00

     negative rho (up, down):  1.594E+00 0.000E+00

     negative rho (up, down):  1.594E+00 0.000E+00

     negative rho (up, down):  1.594E+00 0.000E+00

     negative rho (up, down):  1.594E+00 0.000E+00

     negative rho (up, down):  1.594E+00 0.000E+00

     negative rho (up, down):  1.594E+00 0.000E+00

     negative rho (up, down):  1.594E+00 0.000E+00

     negative rho (up, down):  1.594E+00 0.000E+00

     negative rho (up, down):  1.594E+00 0.000E+00

     negative rho (up, down):  1.594E+00 0.000E+00

     negative rho (up, down):  1.594E+00 0.000E+00

     negative rho (up, down):  1.594E+00 0.000E+00

     negative rho (up, down):  1.594E+00 0.000E+00

     negative rho (up, down):  1.594E+00 0.000E+00
 
     Adding external electric field

     Computed dipole along edir(3) : 
        Dipole                0.3471 Ry au,          0.8822 Debye
        Dipole field          0.0010 Ry au
 
        Potential amp.       -0.0915 Ry
        Total length         45.0992 bohr
 

     total cpu time spent up to now is      727.8 secs

     End of self-consistent calculation

          k = 0.0000 0.0000 0.0000 ( 16073 PWs)   bands (ev):

   -64.1762 -64.0281 -64.0266 -64.0109 -63.9834 -63.9063 -63.9040 -63.8994
   -63.7916 -63.7791 -63.7784 -63.7659 -36.6191 -36.6057 -36.6048 -36.5536
   -36.4974 -36.4430 -36.4421 -36.3112 -36.2991 -36.2979 -36.0151 -35.9938
   -35.9898 -35.9302 -35.8984 -35.8955 -35.8825 -35.8737 -35.8734 -35.8344
   -35.7260 -35.7244 -35.6921 -35.6797 -35.6776 -35.6630 -35.6352 -35.6350
   -35.6329 -35.5725 -35.5722 -35.5720 -35.4461 -35.4452 -35.3758 -35.3754
   -10.9895  -4.2129  -3.9538  -3.5020  -2.9028  -2.1314  -2.0998  -2.0907
    -1.9929  -1.9062  -1.6503  -1.6009  -1.5923  -1.4931  -1.4908  -1.2322
    -1.1132  -1.1059  -0.4538   0.0878   0.1055   0.8372   0.8413   0.8470
     1.1183   1.2229   1.4035   1.4037   1.5824   1.6746   1.6757   1.7759
     1.7816   1.7823   1.9612   1.9620   2.3954   2.4101   2.4193   3.0044
     3.3836   3.3889   3.4085   3.5691   3.5882   3.8008   3.8019   4.0406
     4.2479   4.2515   4.3555   4.9029   4.9273   5.0817   5.1254

          k = 0.0000 0.0351 0.0000 ( 16137 PWs)   bands (ev):

   -64.1660 -64.0348 -64.0281 -64.0067 -63.9832 -63.9074 -63.9011 -63.8982
   -63.7956 -63.7830 -63.7788 -63.7676 -36.5836 -36.5722 -36.5532 -36.5254
   -36.4731 -36.4162 -36.4113 -36.2807 -36.2670 -36.2483 -36.0284 -36.0131
   -36.0008 -35.9623 -35.9388 -35.9090 -35.8695 -35.8688 -35.8523 -35.8076
   -35.7453 -35.7374 -35.7104 -35.6923 -35.6864 -35.6706 -35.6653 -35.6449
   -35.6415 -35.6042 -35.6028 -35.5595 -35.4975 -35.4577 -35.4332 -35.3889
   -10.9813  -4.2454  -3.9425  -3.2677  -2.7358  -1.9929  -1.9124  -1.8885
    -1.7645  -1.6820  -1.5171  -1.4680  -1.4220  -1.3636  -1.3437  -1.0707
    -0.9290  -0.8630  -0.3931   0.1070   0.1630   0.8510   0.9275   0.9575
     0.9679   1.1192   1.2232   1.3740   1.5865   1.5987   1.6109   1.7600
     1.8198   1.8536   1.8764   2.1544   2.1989   2.2438   2.2728   2.6716
     3.0048   3.1055   3.3590   3.3986   3.4399   3.5437   3.6536   3.7071
     4.0290   4.2591   4.3205   4.4022   4.6822   4.7207   4.8257

          k = 0.0000 0.0702 0.0000 ( 16149 PWs)   bands (ev):

   -64.1384 -64.0604 -64.0282 -64.0021 -63.9729 -63.9211 -63.9017 -63.8764
   -63.8151 -63.7860 -63.7788 -63.7708 -36.5026 -36.4906 -36.4634 -36.4123
   -36.4032 -36.3577 -36.3563 -36.2186 -36.1908 -36.1200 -36.0725 -36.0682
   -36.0511 -36.0008 -35.9454 -35.9097 -35.8701 -35.8651 -35.8211 -35.8142
   -35.8016 -35.7967 -35.7747 -35.7288 -35.7201 -35.7018 -35.6953 -35.6729
   -35.6630 -35.6488 -35.6273 -35.6226 -35.5600 -35.5252 -35.4875 -35.4250
   -10.9650  -4.2989  -3.9228  -2.7354  -2.2939  -1.7195  -1.4369  -1.4139
    -1.3424  -1.2213  -1.0623  -1.0270  -0.9953  -0.9618  -0.9093  -0.7478
    -0.4481  -0.2450  -0.2211   0.1461   0.3274   0.3852   0.6238   0.8019
     0.9943   1.1021   1.1249   1.2387   1.3213   1.3536   1.5911   1.6914
     1.7588   1.7974   1.9222   2.0217   2.1234   2.2034   2.2226   2.4182
     2.4521   2.6410   2.7655   2.8360   2.8692   3.0397   3.0959   3.1642
     3.4211   3.4977   3.7303   4.0594   4.1333   4.1440   4.2214

          k = 0.0000-0.1053 0.0000 ( 16164 PWs)   bands (ev):

   -64.1069 -64.0915 -64.0282 -64.0014 -63.9586 -63.9351 -63.9018 -63.8509
   -63.8405 -63.7865 -63.7788 -63.7724 -36.4470 -36.4326 -36.4099 -36.3823
   -36.3600 -36.3239 -36.2133 -36.2030 -36.1747 -36.1467 -36.1277 -36.1203
   -35.9719 -35.9558 -35.9223 -35.8961 -35.8859 -35.8798 -35.8660 -35.8277
   -35.8174 -35.8088 -35.7924 -35.7708 -35.7668 -35.7638 -35.7475 -35.7409
   -35.6770 -35.6665 -35.6359 -35.6180 -35.6047 -35.5127 -35.4786 -35.4687
   -10.9569  -4.3232  -3.9142  -2.4319  -1.8054  -1.7424  -1.1447  -1.1047
    -1.1004  -1.0403  -0.8220  -0.7761  -0.6125  -0.4796  -0.4270  -0.3613
    -0.2285  -0.1123  -0.0778  -0.0536   0.4140   0.4269   0.5881   0.5963
     0.6457   0.7597   1.0661   1.1918   1.4140   1.4574   1.5778   1.6039
     1.6822   1.7295   1.7713   1.8707   1.8851   1.9129   1.9810   2.0495
     2.0816   2.2141   2.2324   2.9052   2.9734   2.9794   3.0021   3.0380
     3.1137   3.4879   3.5378   3.6004   3.6910   3.7794   3.8162

[...]
     2.3694   2.5930   2.7131   2.7841   2.7976   2.9746   3.0561   3.0859
     3.3145   3.4384   3.5680   4.0534   4.0986   4.1133   4.2180

          k = 0.0608 0.0000 0.0000 ( 16202 PWs)   bands (ev):

   -64.2270 -64.1244 -64.1078 -64.0598 -64.0212 -63.9626 -63.9546 -63.9427
   -63.8865 -63.8720 -63.8594 -63.8523 -36.6548 -36.5945 -36.5702 -36.5687
   -36.4996 -36.4880 -36.4850 -36.3086 -36.2484 -36.2334 -36.1571 -36.1134
   -36.1055 -36.0800 -36.0059 -35.9635 -35.9424 -35.9153 -35.9005 -35.8693
   -35.8527 -35.8438 -35.8048 -35.7852 -35.7774 -35.7548 -35.7421 -35.7252
   -35.6983 -35.6886 -35.6532 -35.6454 -35.6377 -35.5829 -35.5413 -35.4956
   -10.6240  -3.8943  -3.8144  -2.8289  -2.1543  -1.8609  -1.8509  -1.7213
    -1.5404  -1.4677  -1.3983  -1.3337  -1.2479  -1.1874  -1.1861  -0.8477
    -0.7254  -0.4934  -0.4406   0.0493   0.1520   0.3652   0.6844   0.8262
     0.9187   1.0053   1.0991   1.1173   1.1950   1.4328   1.5011   1.5938
     1.7040   1.8020   1.8309   1.8402   1.8709   1.9984   2.3169   2.5050
     2.5456   2.5842   2.7612   3.0816   3.1015   3.2025   3.2182   3.2302
     3.2712   3.3559   3.7238   4.1408   4.2210   4.2950   4.4660

          k = 0.0608 0.0351 0.0000 ( 16149 PWs)   bands (ev):

   -64.2181 -64.1367 -64.1028 -64.0615 -64.0158 -63.9608 -63.9555 -63.9418
   -63.8956 -63.8667 -63.8597 -63.8558 -36.6296 -36.5828 -36.5616 -36.5118
   -36.4820 -36.4777 -36.4670 -36.2809 -36.2608 -36.1718 -36.1661 -36.1512
   -36.1275 -36.0699 -35.9947 -35.9719 -35.9142 -35.9134 -35.8973 -35.8842
   -35.8669 -35.8563 -35.8393 -35.7926 -35.7896 -35.7733 -35.7649 -35.7248
   -35.7238 -35.6906 -35.6849 -35.6681 -35.6061 -35.6017 -35.5475 -35.5016
   -10.6206  -3.9134  -3.8087  -2.6419  -2.0641  -1.8860  -1.6051  -1.6038
    -1.4955  -1.3648  -1.2050  -1.1403  -1.1377  -1.0900  -1.0486  -0.8362
    -0.5261  -0.3788  -0.3331   0.0629   0.1743   0.2910   0.5222   0.7207
     0.8720   0.9721   1.0563   1.1697   1.2753   1.2937   1.5595   1.6186
     1.6368   1.7255   1.7869   1.8523   1.9400   2.0688   2.1781   2.3330
     2.3666   2.5930   2.7131   2.7844   2.7973   2.9748   3.0564   3.0849
     3.3150   3.4379   3.5681   4.0532   4.0998   4.1128   4.2184

          k = 0.0608-0.1404 0.0000 ( 16203 PWs)   bands (ev):

   -64.1943 -64.1516 -64.1152 -64.0585 -64.0018 -63.9694 -63.9453 -63.9388
   -63.9051 -63.8808 -63.8614 -63.8491 -36.5708 -36.5216 -36.4972 -36.4757
   -36.4461 -36.4344 -36.3956 -36.3156 -36.2309 -36.2027 -36.1798 -36.1325
   -36.0928 -36.0413 -36.0254 -35.9666 -35.9499 -35.9225 -35.9041 -35.8957
   -35.8858 -35.8762 -35.8511 -35.8438 -35.8274 -35.8004 -35.7912 -35.7689
   -35.7320 -35.7100 -35.6710 -35.6573 -35.6367 -35.6039 -35.5808 -35.5445
   -10.6137  -3.9272  -3.8220  -2.1427  -1.8225  -1.6075  -1.3098  -1.2896
    -1.2218  -1.1122  -0.9885  -0.8694  -0.8014  -0.7669  -0.6225  -0.5281
    -0.4076  -0.2505  -0.1317  -0.0406   0.2118   0.2344   0.3548   0.5608
     0.6182   0.7100   0.8530   1.0105   1.1890   1.2821   1.3176   1.3766
     1.4596   1.5482   1.6299   1.7012   1.7747   1.8692   2.0329   2.1523
     2.1934   2.2533   2.3159   2.4239   2.7391   2.9814   3.0480   3.0787
     3.1754   3.3317   3.4028   3.4600   3.7650   3.8631   3.9776

          k = 0.0608-0.1053 0.0000 ( 16272 PWs)   bands (ev):

   -64.1672 -64.1663 -64.1312 -64.0553 -63.9903 -63.9762 -63.9493 -63.9253
   -63.9030 -63.9007 -63.8619 -63.8453 -36.5069 -36.4854 -36.4557 -36.4502
   -36.4419 -36.3910 -36.3532 -36.3458 -36.3380 -36.1821 -36.1156 -36.0733
   -36.0627 -36.0623 -36.0547 -36.0076 -35.9958 -35.9955 -35.9031 -35.8954
   -35.8875 -35.8601 -35.8575 -35.8432 -35.8281 -35.8267 -35.8227 -35.7392
   -35.7279 -35.7123 -35.6682 -35.6483 -35.6370 -35.6158 -35.6075 -35.6010
   -10.6102  -3.9245  -3.8384  -1.7802  -1.4414  -1.4256  -1.3773  -1.0056
    -0.8583  -0.8275  -0.7939  -0.7607  -0.6285  -0.6225  -0.5048  -0.4716
    -0.3798  -0.3605  -0.3394   0.1092   0.1657   0.5024   0.5247   0.5268
     0.6043   0.6830   0.6926   0.7584   0.7700   0.8818   0.9588   1.0149
     1.2012   1.2679   1.4065   1.5905   1.6181   1.9462   1.9965   2.0779
     2.1304   2.1363   2.1465   2.5409   2.7356   2.7750   2.9211   3.2106
     3.3404   3.3968   3.4490   3.5833   3.6490   3.7103   4.4906

          k = 0.0608-0.0702 0.0000 ( 16203 PWs)   bands (ev):

   -64.1942 -64.1518 -64.1150 -64.0586 -64.0015 -63.9702 -63.9447 -63.9389
   -63.9049 -63.8810 -63.8615 -63.8490 -36.5706 -36.5217 -36.4974 -36.4756
   -36.4452 -36.4345 -36.3960 -36.3155 -36.2308 -36.2035 -36.1795 -36.1327
   -36.0936 -36.0408 -36.0252 -35.9667 -35.9509 -35.9206 -35.9053 -35.8946
   -35.8869 -35.8751 -35.8513 -35.8440 -35.8274 -35.8006 -35.7921 -35.7685
   -35.7316 -35.7088 -35.6709 -35.6585 -35.6363 -35.6038 -35.5808 -35.5444
   -10.6136  -3.9347  -3.8141  -2.1421  -1.8205  -1.6084  -1.3126  -1.2874
    -1.2231  -1.1137  -0.9861  -0.8683  -0.8022  -0.7669  -0.6268  -0.5259
    -0.4072  -0.2484  -0.1335  -0.0410   0.2093   0.2356   0.3553   0.5631
     0.6153   0.7126   0.8466   1.0090   1.1928   1.2849   1.3139   1.3754
     1.4574   1.5513   1.6272   1.6998   1.7817   1.8658   2.0336   2.1549
     2.1941   2.2497   2.3165   2.4259   2.7376   2.9829   3.0482   3.0764
     3.1820   3.3256   3.4073   3.4583   3.7628   3.8620   3.9798

          k =-0.0912 0.0526 0.0000 ( 16164 PWs)   bands (ev):

   -64.1874 -64.1667 -64.1027 -64.0628 -63.9993 -63.9757 -63.9411 -63.9346
   -63.9164 -63.8680 -63.8612 -63.8555 -36.5744 -36.5222 -36.5095 -36.4922
   -36.4498 -36.4393 -36.3069 -36.2946 -36.2648 -36.2315 -36.1994 -36.1967
   -36.0316 -35.9765 -35.9507 -35.9439 -35.9396 -35.9390 -35.9309 -35.9071
   -35.8849 -35.8824 -35.8665 -35.8580 -35.8406 -35.8374 -35.8206 -35.8079
   -35.7319 -35.7105 -35.6770 -35.6432 -35.6422 -35.5820 -35.5541 -35.5413
   -10.6136  -3.9499  -3.7983  -2.0805  -1.9108  -1.7697  -1.3427  -1.2779
    -1.2571  -1.1696  -0.9937  -0.8555  -0.7060  -0.6507  -0.5752  -0.4974
    -0.3168  -0.2676  -0.2039  -0.1721   0.2036   0.2860   0.4723   0.4794
     0.5783   0.7204   1.0411   1.1889   1.2959   1.3343   1.4730   1.5568
     1.6172   1.6480   1.7384   1.7675   1.7907   1.8264   1.9387   1.9663
     1.9927   2.0404   2.0610   2.7498   2.8076   2.8635   3.0032   3.0499
     3.1563   3.4835   3.4877   3.5435   3.5900   3.6415   3.7323

          k =-0.0912 0.0877 0.0000 ( 16203 PWs)   bands (ev):

   -64.1942 -64.1518 -64.1150 -64.0586 -64.0016 -63.9700 -63.9449 -63.9388
   -63.9050 -63.8810 -63.8615 -63.8490 -36.5704 -36.5222 -36.4967 -36.4759
   -36.4459 -36.4338 -36.3958 -36.3158 -36.2310 -36.2030 -36.1800 -36.1325
   -36.0930 -36.0412 -36.0255 -35.9665 -35.9499 -35.9225 -35.9041 -35.8959
   -35.8856 -35.8760 -35.8509 -35.8437 -35.8274 -35.8007 -35.7911 -35.7687
   -35.7320 -35.7099 -35.6710 -35.6572 -35.6366 -35.6040 -35.5808 -35.5445
   -10.6136  -3.9316  -3.8174  -2.1418  -1.8218  -1.6075  -1.3104  -1.2898
    -1.2224  -1.1124  -0.9896  -0.8684  -0.8019  -0.7673  -0.6221  -0.5273
    -0.4077  -0.2505  -0.1320  -0.0410   0.2117   0.2347   0.3543   0.5611
     0.6178   0.7086   0.8525   1.0108   1.1886   1.2807   1.3175   1.3761
     1.4592   1.5489   1.6293   1.7005   1.7751   1.8690   2.0333   2.1532
     2.1944   2.2543   2.3162   2.4235   2.7391   2.9807   3.0482   3.0794
     3.1758   3.3319   3.4038   3.4601   3.7648   3.8625   3.9782

          k =-0.0912 0.1228 0.0000 ( 16203 PWs)   bands (ev):

   -64.1943 -64.1517 -64.1151 -64.0585 -64.0018 -63.9695 -63.9453 -63.9388
   -63.9051 -63.8809 -63.8615 -63.8491 -36.5706 -36.5217 -36.4973 -36.4757
   -36.4452 -36.4351 -36.3959 -36.3151 -36.2308 -36.2035 -36.1794 -36.1325
   -36.0938 -36.0407 -36.0250 -35.9667 -35.9511 -35.9206 -35.9053 -35.8950
   -35.8866 -35.8750 -35.8516 -35.8438 -35.8272 -35.8006 -35.7922 -35.7686
   -35.7317 -35.7088 -35.6709 -35.6587 -35.6363 -35.6037 -35.5808 -35.5445
   -10.6137  -3.9264  -3.8229  -2.1424  -1.8217  -1.6085  -1.3120  -1.2878
    -1.2219  -1.1138  -0.9862  -0.8682  -0.8022  -0.7669  -0.6265  -0.5256
    -0.4071  -0.2476  -0.1336  -0.0406   0.2097   0.2357   0.3556   0.5635
     0.6157   0.7126   0.8474   1.0086   1.1931   1.2853   1.3142   1.3758
     1.4582   1.5497   1.6267   1.6993   1.7819   1.8651   2.0335   2.1549
     2.1936   2.2498   2.3165   2.4259   2.7375   2.9821   3.0483   3.0773
     3.1819   3.3250   3.4073   3.4588   3.7619   3.8618   3.9799

          k =-0.0912-0.0526 0.0000 ( 16164 PWs)   bands (ev):

   -64.1876 -64.1665 -64.1029 -64.0626 -63.9996 -63.9748 -63.9418 -63.9345
   -63.9166 -63.8677 -63.8611 -63.8558 -36.5746 -36.5224 -36.5089 -36.4925
   -36.4497 -36.4402 -36.3066 -36.2950 -36.2633 -36.2321 -36.1992 -36.1966
   -36.0316 -35.9756 -35.9511 -35.9438 -35.9398 -35.9388 -35.9310 -35.9071
   -35.8847 -35.8828 -35.8666 -35.8581 -35.8408 -35.8373 -35.8207 -35.8077
   -35.7322 -35.7106 -35.6769 -35.6434 -35.6424 -35.5818 -35.5540 -35.5414
   -10.6137  -3.9422  -3.8067  -2.0820  -1.9111  -1.7702  -1.3416  -1.2786
    -1.2553  -1.1701  -0.9933  -0.8542  -0.7071  -0.6501  -0.5759  -0.4975
    -0.3167  -0.2663  -0.2039  -0.1713   0.2042   0.2853   0.4720   0.4799
     0.5787   0.7223   1.0421   1.1888   1.2966   1.3376   1.4736   1.5535
     1.6191   1.6472   1.7389   1.7654   1.7912   1.8267   1.9390   1.9663
     1.9925   2.0393   2.0585   2.7482   2.8086   2.8630   3.0031   3.0505
     3.1562   3.4846   3.4869   3.5422   3.5894   3.6426   3.7326

     the Fermi energy is     3.0585 ev

!    total energy              =   -2118.62724094 Ry
     Harris-Foulkes estimate   =   -2118.62724185 Ry
     estimated scf accuracy    <          6.7E-09 Ry

     The total energy is the sum of the following terms:

     one-electron contribution =  -19364.64271608 Ry
     hartree contribution      =    9686.82958502 Ry
     xc contribution           =    -403.25848413 Ry
     ewald contribution        =    7962.53500841 Ry
     electric field correction =       0.00029703 Ry
     smearing contrib. (-TS)   =      -0.09093119 Ry

     convergence has been achieved in  14 iterations
 
 BEEF-vdW xc energy contributions
           1 :   -353.147440214710     
           2 :    324.635216713197     
           3 :   -273.989437829865     
           4 :    211.406580341819     
           5 :   -147.688266799952     
           6 :    91.3255728557497     
           7 :   -46.8835887721689     
           8 :    14.8668878686312     
           9 :    7.05785572036416     
          10 :   -22.2229202258350     
          11 :    33.2659639247566     
          12 :   -41.2453107823387     
          13 :    45.7002544446246     
          14 :   -45.4547517021834     
          15 :    39.6603279998731     
          16 :   -28.6087844051557     
          17 :    13.9715222776506     
          18 :    1.57081577672517     
          19 :   -15.1243921695187     
          20 :    24.4332286526081     
          21 :   -28.4553463464168     
          22 :    27.4595301481250     
          23 :   -22.6731613971052     
          24 :    15.6805793259495     
          25 :   -7.86870342423003     
          26 :   0.131217433946347     
          27 :    7.10014264570265     
          28 :   -13.6004808489804     
          29 :    19.0605505981260     
          30 :   -22.9456722062058     
          31 :   -33.7933006030880     
          32 :   -24.8180489458625     

     Forces acting on atoms (Ry/au):


     negative rho (up, down):  1.589E+00 0.000E+00
     atom    1 type  1   force =    -0.00000138   -0.00005828    0.01809936
     atom    2 type  1   force =     0.00008075   -0.00464886    0.01777276
     atom    3 type  1   force =    -0.00403698    0.00223076    0.01786485
     atom    4 type  1   force =     0.00401124    0.00238096    0.01780833
     atom    5 type  1   force =     0.00164346   -0.00058474   -0.00672546
     atom    6 type  1   force =    -0.00130374   -0.00103592   -0.00684998
     atom    7 type  1   force =     0.00018055   -0.00007452   -0.04920118
     atom    8 type  1   force =    -0.00037314    0.00160424   -0.00689930
     atom    9 type  1   force =     0.00166313    0.00006855    0.00070765
     atom   10 type  1   force =    -0.00063174    0.00141341    0.00090998
     atom   11 type  1   force =    -0.00067431   -0.00141258    0.00012142
     atom   12 type  1   force =     0.00003977    0.00006422    0.00099314
     atom   13 type  2   force =    -0.00030993   -0.00002004   -0.00172711
     atom   14 type  3   force =     0.00183069   -0.00040746   -0.00093197
     atom   15 type  3   force =    -0.00021776    0.00183643   -0.00079867
     atom   16 type  3   force =    -0.00190061   -0.00135616   -0.00114382

     Total force =     0.005314     Total SCF correction =     0.000224


     entering subroutine stress ...


     negative rho (up, down):  1.589E+00 0.000E+00
          total   stress  (Ry/bohr**3)                   (kbar)     P=  -20.97
  -0.00016758  -0.00000003  -0.00000079        -24.65     -0.00     -0.12
  -0.00000003  -0.00016783   0.00000033         -0.00    -24.69      0.05
  -0.00000079   0.00000033  -0.00009232         -0.12      0.05    -13.58


     bfgs converged in  25 scf cycles and  24 bfgs steps
     (criteria: energy <  1.0E+00, force <  1.9E-03)

     End of BFGS Geometry Optimization

     Final energy   =   -2118.6272409410 Ry
Begin final coordinates

ATOMIC_POSITIONS (crystal)
Tc1      0.166666667   0.166666667   0.408540475    0   0   0
Tc1      0.666666667   0.166666667   0.408540475    0   0   0
Tc1      0.166666667   0.666666667   0.408540475    0   0   0
Tc1      0.666666667   0.666666667   0.408540475    0   0   0
Tc1      0.833333333   0.333333333   0.500000000    0   0   0
Tc1      0.333333333   0.333333333   0.500000000    0   0   0
Tc1      0.833333333   0.833333333   0.500000000    0   0   0
Tc1      0.333333333   0.833333333   0.500000000    0   0   0
Tc1      0.000196298   0.002840421   0.588510560
Tc1      0.497339286  -0.000279024   0.588425511
Tc1      0.002915216   0.497147875   0.588544353
Tc1      0.500138096   0.499784163   0.584669154
C1       0.168107825   0.166429338   0.661234434
H1       0.383191013   0.055414978   0.678883840
H1       1.064771966   0.381329187   0.678953162
H1       0.057616698   1.062998331   0.679317827
End final coordinates



     Writing output data file calc.save
 
     init_run     :      4.63s CPU      5.67s WALL (       1 calls)
     electrons    :   4214.47s CPU   5766.59s WALL (      25 calls)
     update_pot   :     43.20s CPU     52.34s WALL (      24 calls)
     forces       :    129.54s CPU    134.32s WALL (      25 calls)
     stress       :    354.79s CPU    380.80s WALL (      25 calls)

     Called by init_run:
     wfcinit      :      1.98s CPU      2.51s WALL (       1 calls)
     potinit      :      0.96s CPU      1.30s WALL (       1 calls)

     Called by electrons:
     c_bands      :   2499.47s CPU   3442.94s WALL (     414 calls)
     sum_band     :    611.74s CPU    802.00s WALL (     414 calls)
     v_of_rho     :    393.34s CPU    670.47s WALL (     439 calls)
     newd         :    362.92s CPU    399.79s WALL (     439 calls)
     mix_rho      :      7.75s CPU      9.91s WALL (     414 calls)
     vdW_energy   :    130.21s CPU    142.02s WALL (    1339 calls)
     vdW_ffts     :    145.10s CPU    214.49s WALL (    2728 calls)
     vdW_v        :     77.07s CPU     92.27s WALL (    1339 calls)

     Called by c_bands:
     init_us_2    :     13.71s CPU     15.27s WALL (    6153 calls)
     cegterg      :   1977.95s CPU   2400.28s WALL (    2898 calls)

     Called by *egterg:
     h_psi        :    912.56s CPU   1252.77s WALL (   15335 calls)
     s_psi        :    123.79s CPU    128.75s WALL (   15335 calls)
     g_psi        :     11.32s CPU     11.62s WALL (   12430 calls)
     cdiaghg      :    505.93s CPU    518.92s WALL (   15160 calls)

     Called by h_psi:
     add_vuspsi   :    129.33s CPU    134.45s WALL (   15335 calls)

     General routines
     calbec       :    171.32s CPU    182.24s WALL (   18583 calls)
     fft          :    219.36s CPU    329.42s WALL (   81573 calls)
     ffts         :      0.49s CPU      0.74s WALL (     853 calls)
     fftw         :    627.79s CPU   1018.11s WALL ( 1839340 calls)
     interpolate  :      2.96s CPU      5.21s WALL (     853 calls)
     davcio       :      0.00s CPU      0.14s WALL (       7 calls)
 
     Parallel routines
     fft_scatter  :    404.89s CPU    749.18s WALL ( 1921766 calls)
 
     PWSCF        :     1h19m CPU        1h46m WALL

 
   This run was terminated on:  16:38:49  23Apr2018            

=------------------------------------------------------------------------------=
   JOB DONE.
=------------------------------------------------------------------------------=
Job  /afs/slac/g/suncat/bin/suncat-tsmpirun -x LD_LIBRARY_PATH -wdir /scratch/qe23727_ErZIl pw.x -npool 3 -in pw.inp

TID   HOST_NAME   COMMAND_LINE            STATUS            TERMINATION_TIME
===== ========== ================  =======================  ===================
00000 suncat2065 pw.x -npool 3 -i  Done                     04/23/2018 16:38:49
00001 suncat2065 pw.x -npool 3 -i  Done                     04/23/2018 16:38:49
00002 suncat2065 pw.x -npool 3 -i  Done                     04/23/2018 16:38:49
00003 suncat2065 pw.x -npool 3 -i  Done                     04/23/2018 16:38:49
00004 suncat2066 pw.x -npool 3 -i  Done                     04/23/2018 16:38:49
00005 suncat2066 pw.x -npool 3 -i  Done                     04/23/2018 16:38:49
00006 suncat2066 pw.x -npool 3 -i  Done                     04/23/2018 16:38:49
00007 suncat2066 pw.x -npool 3 -i  Done                     04/23/2018 16:38:49
00008 suncat2066 pw.x -npool 3 -i  Done                     04/23/2018 16:38:49
00009 suncat2066 pw.x -npool 3 -i  Done                     04/23/2018 16:38:49
00010 suncat2066 pw.x -npool 3 -i  Done                     04/23/2018 16:38:49
00011 suncat2066 pw.x -npool 3 -i  Done                     04/23/2018 16:38:49
00012 suncat2066 pw.x -npool 3 -i  Done                     04/23/2018 16:38:49
00013 suncat2066 pw.x -npool 3 -i  Done                     04/23/2018 16:38:49
00014 suncat2066 pw.x -npool 3 -i  Done                     04/23/2018 16:38:49
00015 suncat2066 pw.x -npool 3 -i  Done                     04/23/2018 16:38:49
00016 suncat2066 pw.x -npool 3 -i  Done                     04/23/2018 16:38:49
00017 suncat2066 pw.x -npool 3 -i  Done                     04/23/2018 16:38:49
00018 suncat2066 pw.x -npool 3 -i  Done                     04/23/2018 16:38:49
00019 suncat2066 pw.x -npool 3 -i  Done                     04/23/2018 16:38:49
00020 suncat2002 pw.x -npool 3 -i  Done                     04/23/2018 16:38:49
00021 suncat2002 pw.x -npool 3 -i  Done                     04/23/2018 16:38:49
00022 suncat2002 pw.x -npool 3 -i  Done                     04/23/2018 16:38:49
00023 suncat2002 pw.x -npool 3 -i  Done                     04/23/2018 16:38:49
00024 suncat2002 pw.x -npool 3 -i  Done                     04/23/2018 16:38:49
00025 suncat2002 pw.x -npool 3 -i  Done                     04/23/2018 16:38:49
00026 suncat2002 pw.x -npool 3 -i  Done                     04/23/2018 16:38:49
00027 suncat2002 pw.x -npool 3 -i  Done                     04/23/2018 16:38:49
00028 suncat2002 pw.x -npool 3 -i  Done                     04/23/2018 16:38:49
00029 suncat2002 pw.x -npool 3 -i  Done                     04/23/2018 16:38:49
00030 suncat2002 pw.x -npool 3 -i  Done                     04/23/2018 16:38:49
00031 suncat2002 pw.x -npool 3 -i  Done                     04/23/2018 16:38:49
00032 suncat2002 pw.x -npool 3 -i  Done                     04/23/2018 16:38:49
00033 suncat2002 pw.x -npool 3 -i  Done                     04/23/2018 16:38:49
00034 suncat2002 pw.x -npool 3 -i  Done                     04/23/2018 16:38:49
00035 suncat2002 pw.x -npool 3 -i  Done                     04/23/2018 16:38:49
