  python dir          : /nfs/slac/g/suncatfs/sw/espv20/lib/python2.7/site-packages/espresso
  espresso dir        : /nfs/slac/g/suncatfs/sw/espv18/espresso-dynpy-beef/bin
  pseudo dir          : /afs/slac.stanford.edu/u/if/mamunm/psp/gbrv1.5pbe
  ase-espresso py git : ffa2778-git



     Program PWSCF v.5.1rc2 (svn rev. 11289) starts on 17Jan2018 at  1:40:50 

     This program is part of the open-source Quantum ESPRESSO suite
     for quantum simulation of materials; please cite
         "P. Giannozzi et al., J. Phys.:Condens. Matter 21 395502 (2009);
          URL http://www.quantum-espresso.org", 
     in publications or presentations arising from this work. More details at
     http://www.quantum-espresso.org/quote

     Parallel version (MPI), running on    32 processors
     R & G space division:  proc/nbgrp/npool/nimage =      32
     Reading input from pw.inp
     Message from routine read_cards :
     DEPRECATED: no units specified in CELL_PARAMETERS card

     Current dimensions of program PWSCF are:
     Max number of different atomic species (ntypx) = 10
     Max number of k-points (npk) =  40000
     Max angular momentum in pseudopotentials (lmaxx) =  3
     Presently stress not available with electric field


     **************************************************************************
     Initializing libbeef V0.1.1 with the BEEF-vdW functional.
     Citation: Wellendorff et al., PRB 85, 235149 (2012).
     **************************************************************************


     IMPORTANT: XC functional enforced from input :
     Exchange-correlation      = BEEF-VDW ( 1  4 27 13 2)
     Any further DFT definition will be discarded
     Please, verify this is what you really want


     Subspace diagonalization in iterative solution of the eigenvalue problem:
     a serial algorithm will be used

 
     Parallelization info
     --------------------
     sticks:   dense  smooth     PW     G-vecs:    dense   smooth      PW
     Min          94      37     10                17854     4501     698
     Max          95      38     11                17874     4540     717
     Sum        3013    1201    349               571737   144541   22801
 


     bravais-lattice index     =            0
     lattice parameter (alat)  =       1.8897  a.u.
     unit-cell volume          =    4806.0858 (a.u.)^3
     number of atoms/cell      =           13
     number of atomic types    =            2
     number of electrons       =       145.00
     number of Kohn-Sham states=           82
     kinetic-energy cutoff     =      36.7493  Ry
     charge density cutoff     =     367.4932  Ry
     convergence threshold     =      1.0E-05
     mixing beta               =       0.3000
     number of iterations used =           10  plain     mixing
     Exchange-correlation      = BEEF-VDW ( 1  4 27 13 2)
     nstep                     =           50


     celldm(1)=   1.889726  celldm(2)=   0.000000  celldm(3)=   0.000000
     celldm(4)=   0.000000  celldm(5)=   0.000000  celldm(6)=   0.000000

     crystal axes: (cart. coord. in units of alat)
               a(1) = (   5.768903   0.000000   0.000000 )  
               a(2) = (   2.884451   4.996016   0.000000 )  
               a(3) = (   0.000000   0.000000  24.710289 )  

     reciprocal axes: (cart. coord. in units 2 pi/alat)
               b(1) = (  0.173343 -0.100080  0.000000 )  
               b(2) = (  0.000000  0.200159  0.000000 )  
               b(3) = (  0.000000  0.000000  0.040469 )  


     PseudoPot. # 1 for Ti read from file:
     /afs/slac.stanford.edu/u/if/mamunm/psp/gbrv1.5pbe/Ti.UPF
     MD5 check sum: 88a00a6731bd790ddea75d31a80cb452
     Pseudo is Ultrasoft + core correction, Zval = 12.0
     Generated by new atomic code, or converted to UPF format
     Using radial grid of  851 points,  6 beta functions with: 
                l(1) =   0
                l(2) =   0
                l(3) =   1
                l(4) =   1
                l(5) =   2
                l(6) =   2
     Q(r) pseudized with  6 coefficients,  rinner =    1.000   1.000   1.000
                                                       1.000   1.000

     PseudoPot. # 2 for H  read from file:
     /afs/slac.stanford.edu/u/if/mamunm/psp/gbrv1.5pbe/H.UPF
     MD5 check sum: 761ae9a214b05c3daf00ab9f6b793d6f
     Pseudo is Ultrasoft, Zval =  1.0
     Generated by new atomic code, or converted to UPF format
     Using radial grid of  615 points,  2 beta functions with: 
                l(1) =   0
                l(2) =   0
     Q(r) pseudized with  8 coefficients,  rinner =    0.700

     vdW kernel table read from file vdW_kernel_table
     MD5 check sum: 095c7af220d748ca6e76c0b4c6cfb241

     atomic species   valence    mass     pseudopotential
        Ti1           12.00    47.86700     Ti( 1.00)
        H1             1.00     1.00800     H ( 1.00)

     No symmetry found



   Cartesian axes

     site n.     atom                  positions (alat units)
         1           Ti1 tau(   1) = (   1.4422257   0.8326694  10.0000000  )
         2           Ti1 tau(   2) = (   4.3266771   0.8326694  10.0000000  )
         3           Ti1 tau(   3) = (   2.8844514   3.3306776  10.0000000  )
         4           Ti1 tau(   4) = (   5.7689029   3.3306776  10.0000000  )
         5           Ti1 tau(   5) = (   5.7689029   1.6653388  12.3551447  )
         6           Ti1 tau(   6) = (   2.8844514   1.6653388  12.3551447  )
         7           Ti1 tau(   7) = (   7.2111286   4.1633470  12.3551447  )
         8           Ti1 tau(   8) = (   4.3266771   4.1633470  12.3551447  )
         9           Ti1 tau(   9) = (   0.0000000   0.0000000  14.7102895  )
        10           Ti1 tau(  10) = (   2.8844514   0.0000000  14.7102895  )
        11           Ti1 tau(  11) = (   1.4422257   2.4980082  14.7102895  )
        12           Ti1 tau(  12) = (   4.3266771   2.4980082  14.7102895  )
        13           H1  tau(  13) = (   2.8844514   1.6653388  16.6202895  )

     number of k points=    20  Fermi-Dirac smearing, width (Ry)=  0.0110
                       cart. coord. in units 2pi/alat
        k(    1) = (   0.0000000   0.0000000   0.0000000), wk =   0.0555556
        k(    2) = (   0.0000000   0.0333599   0.0000000), wk =   0.1111111
        k(    3) = (   0.0000000   0.0667198   0.0000000), wk =   0.1111111
        k(    4) = (   0.0000000  -0.1000797   0.0000000), wk =   0.0555556
        k(    5) = (   0.0288905  -0.0166800   0.0000000), wk =   0.1111111
        k(    6) = (   0.0288905   0.0166800   0.0000000), wk =   0.1111111
        k(    7) = (   0.0288905   0.0500399   0.0000000), wk =   0.1111111
        k(    8) = (   0.0288905  -0.1167597   0.0000000), wk =   0.1111111
        k(    9) = (   0.0288905  -0.0833998   0.0000000), wk =   0.1111111
        k(   10) = (   0.0288905  -0.0500399   0.0000000), wk =   0.1111111
        k(   11) = (   0.0577811  -0.0333599   0.0000000), wk =   0.1111111
        k(   12) = (   0.0577811  -0.0000000   0.0000000), wk =   0.1111111
        k(   13) = (   0.0577811   0.0333599   0.0000000), wk =   0.1111111
        k(   14) = (   0.0577811  -0.1334396   0.0000000), wk =   0.1111111
        k(   15) = (   0.0577811  -0.1000797   0.0000000), wk =   0.1111111
        k(   16) = (   0.0577811  -0.0667198   0.0000000), wk =   0.1111111
        k(   17) = (  -0.0866716   0.0500399   0.0000000), wk =   0.0555556
        k(   18) = (  -0.0866716   0.0833998   0.0000000), wk =   0.1111111
        k(   19) = (  -0.0866716   0.1167597   0.0000000), wk =   0.1111111
        k(   20) = (  -0.0866716  -0.0500399   0.0000000), wk =   0.0555556

     Dense  grid:   571737 G-vectors     FFT dimensions: (  72,  72, 288)

     Smooth grid:   144541 G-vectors     FFT dimensions: (  45,  45, 192)

     Largest allocated arrays     est. size (Mb)     dimensions
        Kohn-Sham Wavefunctions         0.71 Mb     (     570,   82)
        NL pseudopotentials             1.90 Mb     (     570,  218)
        Each V/rho on FFT grid          0.71 Mb     (   46656)
        Each G-vector array             0.14 Mb     (   17863)
        G-vector shells                 0.06 Mb     (    8292)
     Largest temporary arrays     est. size (Mb)     dimensions
        Auxiliary wavefunctions         2.85 Mb     (     570,  328)
        Each subspace H/S matrix        1.64 Mb     (     328,  328)
        Each <psi_i|beta_j> matrix      0.27 Mb     (     218,   82)
        Arrays for rho mixing           7.12 Mb     (   46656,   10)

     Check: negative/imaginary core charge=   -0.000006    0.000000

     Initial potential from superposition of free atoms
     Check: negative starting charge=   -0.012749

     starting charge  132.99946, renormalised to  145.00000

     negative rho (up, down):  1.390E-02 0.000E+00


     ************************************************************************
     *
     * You are using vdW-DF for exchange-correlation in this calculation.
     * Please cite the following three references that made this development
     * possible:
     *
     *   M. Dion, H. Rydberg, E. Schroder, D. C. Langreth, and
     *   B. I. Lundqvist, Phys. Rev. Lett. 92, 246401 (2004).
     *
     *   T. Thonhauser, V. R. Cooper, S. Li, A. Puzder, P. Hyldgaard, and
     *   D. C. Langreth, Phys. Rev. B 76, 125112 (2007).
     *
     *   G. Roman-Perez and J. M. Soler, Phys. Rev. Lett. 103, 096102 (2009).
     *
     *
     * If you are using vdW-DF2, please also cite:
     *
     *   K. Lee, E. D. Murray, L. Kong, B. I. Lundqvist, and
     *   D. C. Langreth, Phys. Rev. B 82, 081101(R) (2010).
     *
     *
     * If you are calculating the stress with vdW-DF, please also cite:
     *
     *   R. Sabatini, E. Kucukbenli, B. Kolb, T. Thonhauser, and
     *   S. de Gironcoli, J. Phys.: Condens. Matter 24, 424209 (2012).
     *
     ************************************************************************

     Carrying out vdW-DF run using the following parameters:

     Nqs =      20    Nr_points =    1024   r_max =   100.000
     q_mesh =
               0.00001000     0.04494208     0.09755937     0.15916263
               0.23128650     0.31572767     0.41458969     0.53033537
               0.66584808     0.82450364     1.01025438     1.22772762
               1.48234092     1.78043706     2.12944203     2.53805004
               3.01644009     3.57652955     4.23227104     5.00000000

     Gradients computed in reciprocal space

     ************************************************************************


 
     Adding external electric field

     Computed dipole along edir(3) : 
        Dipole               -0.7272 Ry au,         -1.8483 Debye
        Dipole field         -0.0019 Ry au
 
        Potential amp.        0.1731 Ry
        Total length         45.5283 bohr
 
     Starting wfc are  121 randomized atomic wfcs

     total cpu time spent up to now is       16.8 secs

     per-process dynamical memory:    44.5 Mb

     Self-consistent Calculation

     iteration #  1     ecut=    36.75 Ry     beta=0.30
     Davidson diagonalization with overlap
     ethr =  1.00E-02,  avg # of iterations =  5.8

     negative rho (up, down):  1.409E-02 0.000E+00
 
     Adding external electric field

     Computed dipole along edir(3) : 
        Dipole               12.6353 Ry au,         32.1158 Debye
        Dipole field          0.0330 Ry au
 
        Potential amp.       -3.0083 Ry
        Total length         45.5283 bohr
 

     total cpu time spent up to now is       59.9 secs

     total energy              =   -1429.13515389 Ry
     Harris-Foulkes estimate   =   -1442.02542354 Ry
     estimated scf accuracy    <      27.40171062 Ry

     iteration #  2     ecut=    36.75 Ry     beta=0.30
     Davidson diagonalization with overlap
     ethr =  1.00E-02,  avg # of iterations = 11.2

     negative rho (up, down):  1.419E-02 0.000E+00
 
     Adding external electric field

     Computed dipole along edir(3) : 
        Dipole               -0.2655 Ry au,         -0.6750 Debye
        Dipole field         -0.0007 Ry au
 
        Potential amp.        0.0632 Ry
        Total length         45.5283 bohr
 

     total cpu time spent up to now is      115.3 secs

     total energy              =   -1431.40434582 Ry
     Harris-Foulkes estimate   =   -1498.17630406 Ry
     estimated scf accuracy    <     816.28530260 Ry

     iteration #  3     ecut=    36.75 Ry     beta=0.30
     Davidson diagonalization with overlap
     ethr =  1.00E-02,  avg # of iterations =  5.0

     negative rho (up, down):  1.357E-02 0.000E+00
 
     Adding external electric field

     Computed dipole along edir(3) : 
        Dipole               -0.8538 Ry au,         -2.1702 Debye
        Dipole field         -0.0022 Ry au
 
        Potential amp.        0.2033 Ry
        Total length         45.5283 bohr
 

     total cpu time spent up to now is      155.6 secs

     total energy              =   -1438.07794036 Ry
     Harris-Foulkes estimate   =   -1442.52714750 Ry
     estimated scf accuracy    <     117.44576326 Ry

     iteration #  4     ecut=    36.75 Ry     beta=0.30
     Davidson diagonalization with overlap
     ethr =  1.00E-02,  avg # of iterations =  4.3

     negative rho (up, down):  1.292E-02 0.000E+00
 
     Adding external electric field

     Computed dipole along edir(3) : 
        Dipole               -0.9441 Ry au,         -2.3997 Debye
        Dipole field         -0.0025 Ry au
 
        Potential amp.        0.2248 Ry
        Total length         45.5283 bohr
 

     total cpu time spent up to now is      186.3 secs

     total energy              =   -1438.99436832 Ry
     Harris-Foulkes estimate   =   -1439.87548832 Ry
     estimated scf accuracy    <       5.49751403 Ry

     iteration #  5     ecut=    36.75 Ry     beta=0.30
     Davidson diagonalization with overlap
     ethr =  3.79E-03,  avg # of iterations =  7.5

     negative rho (up, down):  1.049E-02 0.000E+00
 
     Adding external electric field

     Computed dipole along edir(3) : 
        Dipole               -0.6457 Ry au,         -1.6413 Debye
        Dipole field         -0.0017 Ry au
 
        Potential amp.        0.1537 Ry
        Total length         45.5283 bohr
 

     total cpu time spent up to now is      226.1 secs

     total energy              =   -1438.00008910 Ry
     Harris-Foulkes estimate   =   -1440.68401015 Ry
     estimated scf accuracy    <      78.43129983 Ry

     iteration #  6     ecut=    36.75 Ry     beta=0.30
     Davidson diagonalization with overlap
     ethr =  3.79E-03,  avg # of iterations =  7.8

     negative rho (up, down):  9.999E-03 0.000E+00
 
     Adding external electric field

     Computed dipole along edir(3) : 
        Dipole               -0.7218 Ry au,         -1.8347 Debye
        Dipole field         -0.0019 Ry au
 
        Potential amp.        0.1719 Ry
        Total length         45.5283 bohr
 

     total cpu time spent up to now is      264.8 secs

     total energy              =   -1439.74704523 Ry
     Harris-Foulkes estimate   =   -1440.15904351 Ry
     estimated scf accuracy    <      38.64065923 Ry

     iteration #  7     ecut=    36.75 Ry     beta=0.30
     Davidson diagonalization with overlap
     ethr =  3.79E-03,  avg # of iterations =  1.0

     negative rho (up, down):  9.831E-03 0.000E+00
 
     Adding external electric field

     Computed dipole along edir(3) : 
        Dipole               -0.7503 Ry au,         -1.9070 Debye
        Dipole field         -0.0020 Ry au
 
        Potential amp.        0.1786 Ry
        Total length         45.5283 bohr
 

     total cpu time spent up to now is      289.9 secs

     total energy              =   -1439.70147419 Ry
     Harris-Foulkes estimate   =   -1439.82558634 Ry
     estimated scf accuracy    <      16.21019996 Ry

     iteration #  8     ecut=    36.75 Ry     beta=0.30
     Davidson diagonalization with overlap
     ethr =  3.79E-03,  avg # of iterations =  1.0

     negative rho (up, down):  9.422E-03 0.000E+00
 
     Adding external electric field

     Computed dipole along edir(3) : 
        Dipole               -0.6837 Ry au,         -1.7378 Debye
        Dipole field         -0.0018 Ry au
 
        Potential amp.        0.1628 Ry
        Total length         45.5283 bohr
 

     total cpu time spent up to now is      314.6 secs

     total energy              =   -1439.64825328 Ry
     Harris-Foulkes estimate   =   -1439.72880825 Ry
     estimated scf accuracy    <       7.86580524 Ry

     iteration #  9     ecut=    36.75 Ry     beta=0.30
     Davidson diagonalization with overlap
     ethr =  3.79E-03,  avg # of iterations =  1.0

     negative rho (up, down):  9.145E-03 0.000E+00
 
     Adding external electric field

     Computed dipole along edir(3) : 
        Dipole               -0.5741 Ry au,         -1.4593 Debye
        Dipole field         -0.0015 Ry au
 
        Potential amp.        0.1367 Ry
        Total length         45.5283 bohr
 

     total cpu time spent up to now is      339.1 secs

     total energy              =   -1439.65112986 Ry
     Harris-Foulkes estimate   =   -1439.67500261 Ry
     estimated scf accuracy    <       3.27270606 Ry

     iteration # 10     ecut=    36.75 Ry     beta=0.30
     Davidson diagonalization with overlap
     ethr =  2.26E-03,  avg # of iterations =  1.0

     negative rho (up, down):  8.711E-03 0.000E+00
 
     Adding external electric field

     Computed dipole along edir(3) : 
        Dipole               -0.4554 Ry au,         -1.1575 Debye
        Dipole field         -0.0012 Ry au
 
        Potential amp.        0.1084 Ry
        Total length         45.5283 bohr
 

     total cpu time spent up to now is      364.4 secs

     total energy              =   -1439.65065081 Ry
     Harris-Foulkes estimate   =   -1439.66879705 Ry
     estimated scf accuracy    <       1.29192637 Ry

     iteration # 11     ecut=    36.75 Ry     beta=0.30
     Davidson diagonalization with overlap
     ethr =  8.91E-04,  avg # of iterations =  6.0

     negative rho (up, down):  8.675E-03 0.000E+00
 
     Adding external electric field

     Computed dipole along edir(3) : 
        Dipole               -0.4302 Ry au,         -1.0934 Debye
        Dipole field         -0.0011 Ry au
 
        Potential amp.        0.1024 Ry
        Total length         45.5283 bohr
 

     total cpu time spent up to now is      395.3 secs

     total energy              =   -1439.70632442 Ry
     Harris-Foulkes estimate   =   -1439.71125719 Ry
     estimated scf accuracy    <       0.38534898 Ry

     iteration # 12     ecut=    36.75 Ry     beta=0.30
     Davidson diagonalization with overlap
     ethr =  2.66E-04,  avg # of iterations =  5.7

     negative rho (up, down):  8.651E-03 0.000E+00
 
     Adding external electric field

     Computed dipole along edir(3) : 
        Dipole               -0.4022 Ry au,         -1.0223 Debye
        Dipole field         -0.0011 Ry au
 
        Potential amp.        0.0958 Ry
        Total length         45.5283 bohr
 

     total cpu time spent up to now is      426.4 secs

     total energy              =   -1439.73953884 Ry
     Harris-Foulkes estimate   =   -1439.73198965 Ry
     estimated scf accuracy    <       0.94166001 Ry

     iteration # 13     ecut=    36.75 Ry     beta=0.30
     Davidson diagonalization with overlap
     ethr =  2.66E-04,  avg # of iterations =  1.1

     negative rho (up, down):  8.606E-03 0.000E+00
 
     Adding external electric field

     Computed dipole along edir(3) : 
        Dipole               -0.3992 Ry au,         -1.0147 Debye
        Dipole field         -0.0010 Ry au
 
        Potential amp.        0.0950 Ry
        Total length         45.5283 bohr
 

     total cpu time spent up to now is      451.1 secs

     total energy              =   -1439.74747309 Ry
     Harris-Foulkes estimate   =   -1439.74160015 Ry
     estimated scf accuracy    <       1.46036949 Ry

     iteration # 14     ecut=    36.75 Ry     beta=0.30
     Davidson diagonalization with overlap
     ethr =  2.66E-04,  avg # of iterations =  1.0

     negative rho (up, down):  8.622E-03 0.000E+00
 
     Adding external electric field

     Computed dipole along edir(3) : 
        Dipole               -0.3979 Ry au,         -1.0114 Debye
        Dipole field         -0.0010 Ry au
 
        Potential amp.        0.0947 Ry
        Total length         45.5283 bohr
 

     total cpu time spent up to now is      475.5 secs

     total energy              =   -1439.75590645 Ry
     Harris-Foulkes estimate   =   -1439.74958778 Ry
     estimated scf accuracy    <       2.41750519 Ry

     iteration # 15     ecut=    36.75 Ry     beta=0.30
     Davidson diagonalization with overlap
     ethr =  2.66E-04,  avg # of iterations =  1.0

     negative rho (up, down):  8.617E-03 0.000E+00
 
     Adding external electric field

     Computed dipole along edir(3) : 
        Dipole               -0.3768 Ry au,         -0.9577 Debye
        Dipole field         -0.0010 Ry au
 
        Potential amp.        0.0897 Ry
        Total length         45.5283 bohr
 

     total cpu time spent up to now is      499.9 secs

     total energy              =   -1439.74230638 Ry
     Harris-Foulkes estimate   =   -1439.75697687 Ry
     estimated scf accuracy    <       2.92175926 Ry

     iteration # 16     ecut=    36.75 Ry     beta=0.30
     Davidson diagonalization with overlap
     ethr =  2.66E-04,  avg # of iterations =  1.0

     negative rho (up, down):  8.569E-03 0.000E+00
 
     Adding external electric field

     Computed dipole along edir(3) : 
        Dipole               -0.3534 Ry au,         -0.8983 Debye
        Dipole field         -0.0009 Ry au
 
        Potential amp.        0.0841 Ry
        Total length         45.5283 bohr
 

     total cpu time spent up to now is      524.4 secs

     total energy              =   -1439.72115074 Ry
     Harris-Foulkes estimate   =   -1439.74402703 Ry
     estimated scf accuracy    <       2.08290988 Ry

     iteration # 17     ecut=    36.75 Ry     beta=0.30
     Davidson diagonalization with overlap
     ethr =  2.66E-04,  avg # of iterations =  1.0

     negative rho (up, down):  8.568E-03 0.000E+00
 
     Adding external electric field

     Computed dipole along edir(3) : 
        Dipole               -0.3312 Ry au,         -0.8419 Debye
        Dipole field         -0.0009 Ry au
 
        Potential amp.        0.0789 Ry
        Total length         45.5283 bohr
 

     total cpu time spent up to now is      548.8 secs

     total energy              =   -1439.70447878 Ry
     Harris-Foulkes estimate   =   -1439.72597107 Ry
     estimated scf accuracy    <       0.83481874 Ry

     iteration # 18     ecut=    36.75 Ry     beta=0.30
     Davidson diagonalization with overlap
     ethr =  2.66E-04,  avg # of iterations =  1.8

     negative rho (up, down):  8.501E-03 0.000E+00
 
     Adding external electric field

     Computed dipole along edir(3) : 
        Dipole               -0.3001 Ry au,         -0.7629 Debye
        Dipole field         -0.0008 Ry au
 
        Potential amp.        0.0715 Ry
        Total length         45.5283 bohr
 

     total cpu time spent up to now is      574.0 secs

     total energy              =   -1439.71608095 Ry
     Harris-Foulkes estimate   =   -1439.71655403 Ry
     estimated scf accuracy    <       0.00498639 Ry

     iteration # 19     ecut=    36.75 Ry     beta=0.30
     Davidson diagonalization with overlap
     ethr =  3.44E-06,  avg # of iterations =  9.2

     negative rho (up, down):  8.466E-03 0.000E+00
 
     Adding external electric field

     Computed dipole along edir(3) : 
        Dipole               -0.2918 Ry au,         -0.7417 Debye
        Dipole field         -0.0008 Ry au
 
        Potential amp.        0.0695 Ry
        Total length         45.5283 bohr
 

     total cpu time spent up to now is      625.6 secs

     total energy              =   -1439.72390453 Ry
     Harris-Foulkes estimate   =   -1439.72866507 Ry
     estimated scf accuracy    <       0.39084483 Ry

     iteration # 20     ecut=    36.75 Ry     beta=0.30
     Davidson diagonalization with overlap
     ethr =  3.44E-06,  avg # of iterations =  5.5

     negative rho (up, down):  8.324E-03 0.000E+00
 
     Adding external electric field

     Computed dipole along edir(3) : 
        Dipole               -0.2418 Ry au,         -0.6145 Debye
        Dipole field         -0.0006 Ry au
 
        Potential amp.        0.0576 Ry
        Total length         45.5283 bohr
 

     total cpu time spent up to now is      657.7 secs

     total energy              =   -1439.71965955 Ry
     Harris-Foulkes estimate   =   -1439.72461265 Ry
     estimated scf accuracy    <       0.21070993 Ry

     iteration # 21     ecut=    36.75 Ry     beta=0.30
     Davidson diagonalization with overlap
     ethr =  3.44E-06,  avg # of iterations =  7.4

     negative rho (up, down):  8.178E-03 0.000E+00
 
     Adding external electric field

     Computed dipole along edir(3) : 
        Dipole               -0.1964 Ry au,         -0.4991 Debye
        Dipole field         -0.0005 Ry au
 
        Potential amp.        0.0467 Ry
        Total length         45.5283 bohr
 

     total cpu time spent up to now is      698.5 secs

     total energy              =   -1439.71846476 Ry
     Harris-Foulkes estimate   =   -1439.72149988 Ry
     estimated scf accuracy    <       0.06172363 Ry

     iteration # 22     ecut=    36.75 Ry     beta=0.30
     Davidson diagonalization with overlap
     ethr =  3.44E-06,  avg # of iterations =  8.6

     negative rho (up, down):  8.121E-03 0.000E+00
 
     Adding external electric field

     Computed dipole along edir(3) : 
        Dipole               -0.1749 Ry au,         -0.4446 Debye
        Dipole field         -0.0005 Ry au
 
        Potential amp.        0.0416 Ry
        Total length         45.5283 bohr
 

     total cpu time spent up to now is      742.3 secs

     total energy              =   -1439.72109949 Ry
     Harris-Foulkes estimate   =   -1439.72137475 Ry
     estimated scf accuracy    <       0.02840026 Ry

     iteration # 23     ecut=    36.75 Ry     beta=0.30
     Davidson diagonalization with overlap
     ethr =  3.44E-06,  avg # of iterations =  1.0

     negative rho (up, down):  8.101E-03 0.000E+00
 
     Adding external electric field

     Computed dipole along edir(3) : 
        Dipole               -0.1536 Ry au,         -0.3904 Debye
        Dipole field         -0.0004 Ry au
 
        Potential amp.        0.0366 Ry
        Total length         45.5283 bohr
 

     total cpu time spent up to now is      766.8 secs

     total energy              =   -1439.72068663 Ry
     Harris-Foulkes estimate   =   -1439.72118448 Ry
     estimated scf accuracy    <       0.02272281 Ry

     iteration # 24     ecut=    36.75 Ry     beta=0.30
     Davidson diagonalization with overlap
     ethr =  3.44E-06,  avg # of iterations =  2.7

     negative rho (up, down):  8.124E-03 0.000E+00
 
     Adding external electric field

     Computed dipole along edir(3) : 
        Dipole               -0.1433 Ry au,         -0.3642 Debye
        Dipole field         -0.0004 Ry au
 
        Potential amp.        0.0341 Ry
        Total length         45.5283 bohr
 

     total cpu time spent up to now is      792.5 secs

     total energy              =   -1439.72066562 Ry
     Harris-Foulkes estimate   =   -1439.72084644 Ry
     estimated scf accuracy    <       0.00883709 Ry

     iteration # 25     ecut=    36.75 Ry     beta=0.30
     Davidson diagonalization with overlap
     ethr =  3.44E-06,  avg # of iterations =  1.0

     negative rho (up, down):  8.129E-03 0.000E+00
 
     Adding external electric field

     Computed dipole along edir(3) : 
        Dipole               -0.1427 Ry au,         -0.3626 Debye
        Dipole field         -0.0004 Ry au
 
        Potential amp.        0.0340 Ry
        Total length         45.5283 bohr
 

     total cpu time spent up to now is      817.3 secs

     total energy              =   -1439.72038400 Ry
     Harris-Foulkes estimate   =   -1439.72072966 Ry
     estimated scf accuracy    <       0.00499246 Ry

     iteration # 26     ecut=    36.75 Ry     beta=0.30
     Davidson diagonalization with overlap
     ethr =  3.44E-06,  avg # of iterations =  5.5

     negative rho (up, down):  8.132E-03 0.000E+00
 
     Adding external electric field

     Computed dipole along edir(3) : 
        Dipole               -0.1446 Ry au,         -0.3676 Debye
        Dipole field         -0.0004 Ry au
 
        Potential amp.        0.0344 Ry
        Total length         45.5283 bohr
 

     total cpu time spent up to now is      848.4 secs

     total energy              =   -1439.72068812 Ry
     Harris-Foulkes estimate   =   -1439.72070479 Ry
     estimated scf accuracy    <       0.00029068 Ry

     iteration # 27     ecut=    36.75 Ry     beta=0.30
     Davidson diagonalization with overlap
     ethr =  2.00E-07,  avg # of iterations =  9.7

     negative rho (up, down):  8.167E-03 0.000E+00
 
     Adding external electric field

     Computed dipole along edir(3) : 
        Dipole               -0.1424 Ry au,         -0.3620 Debye
        Dipole field         -0.0004 Ry au
 
        Potential amp.        0.0339 Ry
        Total length         45.5283 bohr
 

     total cpu time spent up to now is      891.6 secs

     total energy              =   -1439.72070172 Ry
     Harris-Foulkes estimate   =   -1439.72075714 Ry
     estimated scf accuracy    <       0.00084956 Ry

     iteration # 28     ecut=    36.75 Ry     beta=0.30
     Davidson diagonalization with overlap
     ethr =  2.00E-07,  avg # of iterations =  4.3

     negative rho (up, down):  8.218E-03 0.000E+00
 
     Adding external electric field

     Computed dipole along edir(3) : 
        Dipole               -0.1380 Ry au,         -0.3508 Debye
        Dipole field         -0.0004 Ry au
 
        Potential amp.        0.0329 Ry
        Total length         45.5283 bohr
 

     total cpu time spent up to now is      920.2 secs

     total energy              =   -1439.72072248 Ry
     Harris-Foulkes estimate   =   -1439.72072736 Ry
     estimated scf accuracy    <       0.00007595 Ry

     iteration # 29     ecut=    36.75 Ry     beta=0.30
     Davidson diagonalization with overlap
     ethr =  5.24E-08,  avg # of iterations =  6.2

     negative rho (up, down):  8.365E-03 0.000E+00
 
     Adding external electric field

     Computed dipole along edir(3) : 
        Dipole               -0.1320 Ry au,         -0.3356 Debye
        Dipole field         -0.0003 Ry au
 
        Potential amp.        0.0314 Ry
        Total length         45.5283 bohr
 

     total cpu time spent up to now is      959.5 secs

     total energy              =   -1439.72073468 Ry
     Harris-Foulkes estimate   =   -1439.72074285 Ry
     estimated scf accuracy    <       0.00013679 Ry

     iteration # 30     ecut=    36.75 Ry     beta=0.30
     Davidson diagonalization with overlap
     ethr =  5.24E-08,  avg # of iterations =  1.6

     negative rho (up, down):  8.441E-03 0.000E+00
 
     Adding external electric field

     Computed dipole along edir(3) : 
        Dipole               -0.1309 Ry au,         -0.3328 Debye
        Dipole field         -0.0003 Ry au
 
        Potential amp.        0.0312 Ry
        Total length         45.5283 bohr
 

     total cpu time spent up to now is      985.1 secs

     total energy              =   -1439.72073727 Ry
     Harris-Foulkes estimate   =   -1439.72073859 Ry
     estimated scf accuracy    <       0.00004339 Ry

     iteration # 31     ecut=    36.75 Ry     beta=0.30
     Davidson diagonalization with overlap
     ethr =  2.99E-08,  avg # of iterations =  6.2

     negative rho (up, down):  8.484E-03 0.000E+00
 
     Adding external electric field

     Computed dipole along edir(3) : 
        Dipole               -0.1295 Ry au,         -0.3291 Debye
        Dipole field         -0.0003 Ry au
 
        Potential amp.        0.0308 Ry
        Total length         45.5283 bohr
 

     total cpu time spent up to now is     1019.9 secs

     total energy              =   -1439.72073937 Ry
     Harris-Foulkes estimate   =   -1439.72074244 Ry
     estimated scf accuracy    <       0.00006628 Ry

     iteration # 32     ecut=    36.75 Ry     beta=0.30
     Davidson diagonalization with overlap
     ethr =  2.99E-08,  avg # of iterations =  1.0

     negative rho (up, down):  8.461E-03 0.000E+00
 
     Adding external electric field

     Computed dipole along edir(3) : 
        Dipole               -0.1303 Ry au,         -0.3312 Debye
        Dipole field         -0.0003 Ry au
 
        Potential amp.        0.0310 Ry
        Total length         45.5283 bohr
 

     total cpu time spent up to now is     1044.7 secs

     total energy              =   -1439.72073998 Ry
     Harris-Foulkes estimate   =   -1439.72073954 Ry
     estimated scf accuracy    <       0.00002894 Ry

     iteration # 33     ecut=    36.75 Ry     beta=0.30
     Davidson diagonalization with overlap
     ethr =  2.00E-08,  avg # of iterations =  1.0

     negative rho (up, down):  8.466E-03 0.000E+00
 
     Adding external electric field

     Computed dipole along edir(3) : 
        Dipole               -0.1303 Ry au,         -0.3312 Debye
        Dipole field         -0.0003 Ry au
 
        Potential amp.        0.0310 Ry
        Total length         45.5283 bohr
 

     total cpu time spent up to now is     1069.3 secs

     total energy              =   -1439.72073951 Ry
     Harris-Foulkes estimate   =   -1439.72074019 Ry
     estimated scf accuracy    <       0.00003997 Ry

     iteration # 34     ecut=    36.75 Ry     beta=0.30
     Davidson diagonalization with overlap
     ethr =  2.00E-08,  avg # of iterations =  1.0

     negative rho (up, down):  8.460E-03 0.000E+00
 
     Adding external electric field

     Computed dipole along edir(3) : 
        Dipole               -0.1306 Ry au,         -0.3320 Debye
        Dipole field         -0.0003 Ry au
 
        Potential amp.        0.0311 Ry
        Total length         45.5283 bohr
 

     total cpu time spent up to now is     1094.0 secs

     total energy              =   -1439.72073877 Ry
     Harris-Foulkes estimate   =   -1439.72073956 Ry
     estimated scf accuracy    <       0.00002583 Ry

     iteration # 35     ecut=    36.75 Ry     beta=0.30
     Davidson diagonalization with overlap
     ethr =  1.78E-08,  avg # of iterations =  1.6

     negative rho (up, down):  8.471E-03 0.000E+00

     negative rho (up, down):  8.471E-03 0.000E+00

     negative rho (up, down):  8.471E-03 0.000E+00

     negative rho (up, down):  8.471E-03 0.000E+00

     negative rho (up, down):  8.471E-03 0.000E+00

     negative rho (up, down):  8.471E-03 0.000E+00

     negative rho (up, down):  8.471E-03 0.000E+00

     negative rho (up, down):  8.471E-03 0.000E+00

     negative rho (up, down):  8.471E-03 0.000E+00

     negative rho (up, down):  8.471E-03 0.000E+00

     negative rho (up, down):  8.471E-03 0.000E+00

     negative rho (up, down):  8.471E-03 0.000E+00

     negative rho (up, down):  8.471E-03 0.000E+00

     negative rho (up, down):  8.471E-03 0.000E+00

     negative rho (up, down):  8.471E-03 0.000E+00

     negative rho (up, down):  8.471E-03 0.000E+00

     negative rho (up, down):  8.471E-03 0.000E+00

     negative rho (up, down):  8.471E-03 0.000E+00

     negative rho (up, down):  8.471E-03 0.000E+00

     negative rho (up, down):  8.471E-03 0.000E+00

     negative rho (up, down):  8.471E-03 0.000E+00

     negative rho (up, down):  8.471E-03 0.000E+00

     negative rho (up, down):  8.471E-03 0.000E+00

     negative rho (up, down):  8.471E-03 0.000E+00

     negative rho (up, down):  8.471E-03 0.000E+00

     negative rho (up, down):  8.471E-03 0.000E+00

     negative rho (up, down):  8.471E-03 0.000E+00

     negative rho (up, down):  8.471E-03 0.000E+00

     negative rho (up, down):  8.471E-03 0.000E+00

     negative rho (up, down):  8.471E-03 0.000E+00

     negative rho (up, down):  8.471E-03 0.000E+00

     negative rho (up, down):  8.471E-03 0.000E+00

     negative rho (up, down):  8.471E-03 0.000E+00

     negative rho (up, down):  8.471E-03 0.000E+00

     negative rho (up, down):  8.471E-03 0.000E+00
 
     Adding external electric field

     Computed dipole along edir(3) : 
        Dipole               -0.1225 Ry au,         -0.3114 Debye
        Dipole field         -0.0003 Ry au
 
        Potential amp.        0.0292 Ry
        Total length         45.5283 bohr
 

     total cpu time spent up to now is     1174.6 secs

     End of self-consistent calculation

          k = 0.0000 0.0000 0.0000 ( 18103 PWs)   bands (ev):

   -56.4602 -56.4147 -56.3766 -56.3635 -56.3632 -56.3243 -56.3233 -56.3219
   -56.2204 -56.1459 -56.1406 -56.1403 -32.9184 -32.9090 -32.9088 -32.8617
   -32.8589 -32.8572 -32.8568 -32.7935 -32.7851 -32.7849 -32.6995 -32.6313
   -32.6167 -32.6161 -32.5144 -32.5142 -32.5140 -32.4890 -32.4888 -32.4677
   -32.4446 -32.4440 -32.4427 -32.3531 -32.3530 -32.3399 -32.3294 -32.3291
   -32.3168 -32.3168 -32.3146 -32.2461 -32.2460 -32.2458 -32.1325 -32.1325
    -4.9218  -3.7290  -2.5394  -1.8939  -1.7388  -1.7387  -1.6477  -1.6035
    -1.6034  -1.4637  -1.1933  -1.1932  -1.0594  -0.9472  -0.9472  -0.9355
    -0.3106  -0.3105  -0.2131   0.4974   0.7376   0.7923   0.7924   0.9381
     1.1018   1.1316   1.1364   1.1366   1.3653   1.3656   1.5263   1.5474
     1.5485   1.5663

          k = 0.0000 0.0334 0.0000 ( 18134 PWs)   bands (ev):

   -56.4542 -56.4087 -56.3792 -56.3670 -56.3633 -56.3296 -56.3233 -56.3229
   -56.2152 -56.1489 -56.1427 -56.1405 -32.8966 -32.8893 -32.8775 -32.8488
   -32.8400 -32.8377 -32.8239 -32.7798 -32.7710 -32.7678 -32.6963 -32.6397
   -32.6274 -32.6212 -32.5120 -32.5063 -32.5062 -32.5018 -32.4994 -32.4700
   -32.4679 -32.4661 -32.4355 -32.3954 -32.3622 -32.3617 -32.3347 -32.3259
   -32.3245 -32.3242 -32.3006 -32.2649 -32.2647 -32.2385 -32.1667 -32.1401
    -4.7251  -3.5511  -2.4032  -1.8853  -1.8013  -1.6519  -1.6516  -1.5584
    -1.5042  -1.3901  -1.0575  -1.0241  -0.9235  -0.8563  -0.8471  -0.8324
    -0.2676  -0.2618  -0.1738   0.4907   0.6572   0.7509   0.7984   0.8200
     0.9915   1.0039   1.0365   1.0782   1.2395   1.3350   1.4275   1.4419
     1.4658   1.4822

          k = 0.0000 0.0667 0.0000 ( 18080 PWs)   bands (ev):

   -56.4380 -56.3928 -56.3915 -56.3705 -56.3633 -56.3464 -56.3233 -56.3230
   -56.2010 -56.1621 -56.1436 -56.1405 -32.8474 -32.8413 -32.8191 -32.7961
   -32.7915 -32.7904 -32.7513 -32.7396 -32.7394 -32.7240 -32.6890 -32.6602
   -32.6444 -32.6362 -32.5602 -32.5455 -32.5244 -32.5224 -32.4983 -32.4804
   -32.4798 -32.4618 -32.4583 -32.4488 -32.4126 -32.3852 -32.3491 -32.3300
   -32.3268 -32.3142 -32.3083 -32.3023 -32.2985 -32.2566 -32.2179 -32.1610
    -4.1675  -3.0833  -2.4822  -2.1348  -1.7105  -1.4603  -1.4536  -1.3976
    -1.2392  -1.1872  -0.8502  -0.6085  -0.6004  -0.5798  -0.5749  -0.5169
    -0.1565  -0.1423  -0.0432   0.2620   0.4550   0.5104   0.5184   0.5256
     0.6746   0.7685   0.7723   0.9195   0.9898   1.0333   1.0632   1.1073
     1.1183   1.1270

          k = 0.0000-0.1001 0.0000 ( 18044 PWs)   bands (ev):

   -56.4204 -56.4092 -56.3713 -56.3694 -56.3691 -56.3633 -56.3234 -56.3231
   -56.1834 -56.1796 -56.1438 -56.1405 -32.8138 -32.8088 -32.7894 -32.7751
   -32.7612 -32.7600 -32.7247 -32.7172 -32.6940 -32.6861 -32.6621 -32.6520
   -32.6320 -32.6175 -32.5932 -32.5918 -32.5890 -32.5755 -32.5573 -32.5542
   -32.4613 -32.4605 -32.4191 -32.4152 -32.3816 -32.3803 -32.3715 -32.3684
   -32.3503 -32.3477 -32.3193 -32.3083 -32.3048 -32.3025 -32.1916 -32.1874
    -3.4040  -3.3103  -2.6323  -2.1767  -1.7246  -1.3284  -1.3272  -1.0913
    -1.0645  -1.0511  -0.8837  -0.3368  -0.3299  -0.3230  -0.3161  -0.2136
    -0.1627   0.1347   0.1423   0.1532   0.1709   0.1769   0.2789   0.4113
     0.4149   0.4164   0.5710   0.5917   0.6226   0.6764   0.8470   0.8661
     1.0944   1.2041

          k = 0.0289-0.0167 0.0000 ( 18134 PWs)   bands (ev):

   -56.4542 -56.4087 -56.3793 -56.3667 -56.3635 -56.3296 -56.3236 -56.3226
   -56.2152 -56.1488 -56.1429 -56.1403 -32.8967 -32.8892 -32.8776 -32.8488
   -32.8400 -32.8376 -32.8239 -32.7798 -32.7712 -32.7677 -32.6963 -32.6398
   -32.6269 -32.6215 -32.5119 -32.5065 -32.5060 -32.5017 -32.4995 -32.4700
   -32.4676 -32.4663 -32.4355 -32.3954 -32.3622 -32.3617 -32.3347 -32.3258
   -32.3245 -32.3243 -32.3006 -32.2651 -32.2646 -32.2385 -32.1667 -32.1401
    -4.7251  -3.5511  -2.4032  -1.8853  -1.8013  -1.6519  -1.6516  -1.5584
    -1.5042  -1.3901  -1.0575  -1.0240  -0.9235  -0.8563  -0.8471  -0.8324
    -0.2675  -0.2618  -0.1738   0.4907   0.6572   0.7509   0.7984   0.8200
     0.9916   1.0038   1.0365   1.0782   1.2395   1.3350   1.4276   1.4418
     1.4658   1.4822

          k = 0.0289 0.0167 0.0000 ( 18134 PWs)   bands (ev):

   -56.4542 -56.4087 -56.3792 -56.3667 -56.3635 -56.3294 -56.3242 -56.3221
   -56.2152 -56.1489 -56.1425 -56.1406 -32.8967 -32.8892 -32.8776 -32.8488
   -32.8403 -32.8373 -32.8239 -32.7798 -32.7712 -32.7677 -32.6963 -32.6399
   -32.6266 -32.6217 -32.5118 -32.5066 -32.5060 -32.5017 -32.4996 -32.4701
   -32.4673 -32.4665 -32.4355 -32.3954 -32.3622 -32.3617 -32.3347 -32.3258
   -32.3246 -32.3241 -32.3006 -32.2649 -32.2647 -32.2385 -32.1667 -32.1402
    -4.7251  -3.5511  -2.4032  -1.8853  -1.8013  -1.6519  -1.6515  -1.5584
    -1.5042  -1.3901  -1.0575  -1.0240  -0.9235  -0.8563  -0.8471  -0.8324
    -0.2674  -0.2619  -0.1738   0.4907   0.6572   0.7508   0.7985   0.8200
     0.9916   1.0037   1.0364   1.0782   1.2395   1.3350   1.4275   1.4419
     1.4657   1.4822

          k = 0.0289 0.0500 0.0000 ( 18091 PWs)   bands (ev):

   -56.4431 -56.3974 -56.3849 -56.3750 -56.3608 -56.3353 -56.3343 -56.3178
   -56.2055 -56.1543 -56.1501 -56.1373 -32.8667 -32.8382 -32.8304 -32.8267
   -32.8142 -32.7790 -32.7769 -32.7579 -32.7469 -32.7427 -32.6910 -32.6535
   -32.6472 -32.6267 -32.5686 -32.5359 -32.4953 -32.4919 -32.4878 -32.4827
   -32.4718 -32.4638 -32.4463 -32.4460 -32.4279 -32.3800 -32.3449 -32.3294
   -32.3239 -32.3202 -32.3144 -32.2974 -32.2490 -32.2477 -32.2260 -32.1567
    -4.3469  -3.2239  -2.2179  -1.9953  -1.9946  -1.6458  -1.5436  -1.4147
    -1.2913  -1.1264  -0.8388  -0.7780  -0.7095  -0.6860  -0.6484  -0.6257
    -0.1809  -0.1757  -0.1044   0.4092   0.4603   0.5640   0.5686   0.6975
     0.7518   0.8393   0.8712   0.9918   1.0405   1.0955   1.1506   1.1931
     1.2075   1.3008

          k = 0.0289-0.1168 0.0000 ( 18031 PWs)   bands (ev):

   -56.4245 -56.3996 -56.3817 -56.3777 -56.3582 -56.3548 -56.3379 -56.3147
   -56.1888 -56.1692 -56.1545 -56.1348 -32.8151 -32.7960 -32.7885 -32.7693
   -32.7654 -32.7303 -32.7258 -32.7167 -32.7101 -32.6858 -32.6752 -32.6651
   -32.6576 -32.6525 -32.6229 -32.6072 -32.5741 -32.5381 -32.5159 -32.4899
   -32.4696 -32.4544 -32.4392 -32.4292 -32.4138 -32.4031 -32.3835 -32.3808
   -32.3270 -32.3207 -32.3170 -32.3061 -32.2993 -32.2737 -32.2199 -32.1863
    -3.6561  -2.8477  -2.6458  -2.0828  -1.9852  -1.6458  -1.3305  -1.1054
    -0.9908  -0.8168  -0.7179  -0.4627  -0.4055  -0.3584  -0.3541  -0.2883
    -0.0917   0.0110   0.0715   0.0953   0.2473   0.2850   0.3039   0.3286
     0.3489   0.4812   0.6206   0.6527   0.7265   0.7769   0.8033   0.8270
     0.8894   1.1366

          k = 0.0289-0.0834 0.0000 ( 18031 PWs)   bands (ev):

   -56.4245 -56.3996 -56.3817 -56.3777 -56.3583 -56.3548 -56.3378 -56.3147
   -56.1889 -56.1691 -56.1545 -56.1348 -32.8151 -32.7960 -32.7885 -32.7694
   -32.7654 -32.7303 -32.7258 -32.7167 -32.7101 -32.6858 -32.6752 -32.6650
   -32.6576 -32.6525 -32.6229 -32.6072 -32.5741 -32.5381 -32.5159 -32.4899
   -32.4696 -32.4544 -32.4392 -32.4292 -32.4138 -32.4031 -32.3835 -32.3808
   -32.3271 -32.3208 -32.3169 -32.3062 -32.2993 -32.2737 -32.2199 -32.1862
    -3.6561  -2.8477  -2.6458  -2.0828  -1.9852  -1.6458  -1.3304  -1.1054
    -0.9908  -0.8168  -0.7179  -0.4627  -0.4055  -0.3584  -0.3541  -0.2883
    -0.0917   0.0110   0.0715   0.0953   0.2473   0.2850   0.3039   0.3286
     0.3489   0.4812   0.6206   0.6528   0.7264   0.7769   0.8033   0.8270
     0.8895   1.1366

          k = 0.0289-0.0500 0.0000 ( 18091 PWs)   bands (ev):

   -56.4431 -56.3974 -56.3850 -56.3750 -56.3608 -56.3359 -56.3337 -56.3178
   -56.2055 -56.1541 -56.1504 -56.1373 -32.8667 -32.8382 -32.8304 -32.8267
   -32.8142 -32.7791 -32.7768 -32.7579 -32.7468 -32.7427 -32.6910 -32.6533
   -32.6475 -32.6267 -32.5686 -32.5359 -32.4953 -32.4918 -32.4878 -32.4827
   -32.4718 -32.4638 -32.4463 -32.4461 -32.4279 -32.3800 -32.3449 -32.3295
   -32.3240 -32.3199 -32.3145 -32.2974 -32.2491 -32.2477 -32.2260 -32.1567
    -4.3469  -3.2239  -2.2179  -1.9953  -1.9946  -1.6458  -1.5436  -1.4147
    -1.2913  -1.1264  -0.8388  -0.7780  -0.7095  -0.6860  -0.6484  -0.6257
    -0.1809  -0.1757  -0.1044   0.4092   0.4603   0.5639   0.5686   0.6975
     0.7519   0.8392   0.8712   0.9918   1.0405   1.0955   1.1506   1.1931
     1.2075   1.3008

          k = 0.0578-0.0334 0.0000 ( 18080 PWs)   bands (ev):

   -56.4380 -56.3928 -56.3916 -56.3701 -56.3635 -56.3464 -56.3237 -56.3227
   -56.2011 -56.1621 -56.1439 -56.1403 -32.8475 -32.8412 -32.8191 -32.7961
   -32.7916 -32.7902 -32.7513 -32.7397 -32.7394 -32.7239 -32.6890 -32.6603
   -32.6441 -32.6364 -32.5600 -32.5457 -32.5241 -32.5227 -32.4983 -32.4806
   -32.4796 -32.4618 -32.4583 -32.4488 -32.4126 -32.3852 -32.3491 -32.3300
   -32.3267 -32.3143 -32.3085 -32.3022 -32.2985 -32.2567 -32.2179 -32.1610
    -4.1675  -3.0833  -2.4822  -2.1348  -1.7105  -1.4603  -1.4536  -1.3976
    -1.2392  -1.1872  -0.8502  -0.6085  -0.6003  -0.5797  -0.5749  -0.5169
    -0.1564  -0.1423  -0.0432   0.2620   0.4550   0.5103   0.5184   0.5256
     0.6746   0.7686   0.7723   0.9195   0.9898   1.0333   1.0632   1.1073
     1.1182   1.1270

          k = 0.0578-0.0000 0.0000 ( 18091 PWs)   bands (ev):

   -56.4431 -56.3974 -56.3851 -56.3748 -56.3609 -56.3349 -56.3347 -56.3177
   -56.2055 -56.1541 -56.1503 -56.1373 -32.8667 -32.8381 -32.8305 -32.8267
   -32.8142 -32.7790 -32.7770 -32.7579 -32.7471 -32.7425 -32.6910 -32.6537
   -32.6469 -32.6268 -32.5686 -32.5359 -32.4953 -32.4920 -32.4877 -32.4827
   -32.4717 -32.4639 -32.4465 -32.4458 -32.4279 -32.3800 -32.3449 -32.3295
   -32.3239 -32.3200 -32.3145 -32.2974 -32.2491 -32.2477 -32.2260 -32.1567
    -4.3469  -3.2239  -2.2179  -1.9953  -1.9946  -1.6458  -1.5436  -1.4147
    -1.2913  -1.1264  -0.8388  -0.7780  -0.7095  -0.6860  -0.6484  -0.6257
    -0.1809  -0.1757  -0.1044   0.4092   0.4603   0.5639   0.5686   0.6975
     0.7518   0.8393   0.8712   0.9918   1.0405   1.0955   1.1506   1.1931
     1.2075   1.3008

          k = 0.0578 0.0334 0.0000 ( 18080 PWs)   bands (ev):

   -56.4380 -56.3928 -56.3916 -56.3702 -56.3635 -56.3463 -56.3243 -56.3221
   -56.2010 -56.1621 -56.1435 -56.1406 -32.8475 -32.8411 -32.8191 -32.7963
   -32.7918 -32.7899 -32.7513 -32.7397 -32.7394 -32.7239 -32.6889 -32.6604
   -32.6437 -32.6367 -32.5600 -32.5458 -32.5238 -32.5230 -32.4983 -32.4807
   -32.4795 -32.4618 -32.4584 -32.4488 -32.4126 -32.3852 -32.3490 -32.3300
   -32.3269 -32.3142 -32.3083 -32.3024 -32.2985 -32.2566 -32.2178 -32.1610
    -4.1675  -3.0833  -2.4822  -2.1348  -1.7105  -1.4604  -1.4536  -1.3977
    -1.2391  -1.1873  -0.8502  -0.6086  -0.6003  -0.5798  -0.5748  -0.5170
    -0.1563  -0.1424  -0.0432   0.2620   0.4550   0.5103   0.5184   0.5255
     0.6745   0.7686   0.7724   0.9195   0.9898   1.0334   1.0631   1.1073
     1.1182   1.1271

          k = 0.0578-0.1334 0.0000 ( 18031 PWs)   bands (ev):

   -56.4245 -56.3997 -56.3816 -56.3777 -56.3583 -56.3547 -56.3379 -56.3147
   -56.1888 -56.1692 -56.1545 -56.1348 -32.8151 -32.7960 -32.7885 -32.7695
   -32.7653 -32.7303 -32.7256 -32.7169 -32.7100 -32.6858 -32.6751 -32.6648
   -32.6579 -32.6525 -32.6229 -32.6072 -32.5741 -32.5381 -32.5159 -32.4899
   -32.4696 -32.4544 -32.4392 -32.4292 -32.4138 -32.4032 -32.3835 -32.3807
   -32.3270 -32.3208 -32.3170 -32.3061 -32.2993 -32.2737 -32.2199 -32.1863
    -3.6561  -2.8477  -2.6458  -2.0828  -1.9852  -1.6458  -1.3304  -1.1053
    -0.9908  -0.8168  -0.7179  -0.4627  -0.4055  -0.3584  -0.3541  -0.2883
    -0.0917   0.0109   0.0716   0.0953   0.2473   0.2851   0.3039   0.3286
     0.3488   0.4813   0.6206   0.6527   0.7265   0.7769   0.8033   0.8270
     0.8895   1.1366

          k = 0.0578-0.1001 0.0000 ( 18066 PWs)   bands (ev):

   -56.4129 -56.3981 -56.3977 -56.3590 -56.3580 -56.3566 -56.3554 -56.3116
   -56.1755 -56.1700 -56.1696 -56.1323 -32.7773 -32.7699 -32.7578 -32.7572
   -32.7370 -32.7161 -32.6996 -32.6991 -32.6949 -32.6888 -32.6655 -32.6632
   -32.6627 -32.6471 -32.6420 -32.6302 -32.6298 -32.6291 -32.4729 -32.4624
   -32.4621 -32.4442 -32.4384 -32.4366 -32.4355 -32.4321 -32.3836 -32.3812
   -32.3811 -32.3291 -32.3103 -32.3034 -32.3024 -32.2316 -32.2314 -32.2263
    -3.0107  -2.8515  -2.8359  -2.4083  -1.7819  -1.7635  -1.4646  -0.6552
    -0.6503  -0.6478  -0.6421  -0.5640  -0.4933  -0.1129  -0.1076  -0.0735
    -0.0644  -0.0426   0.0254   0.0300   0.0346   0.0420   0.0447   0.3289
     0.4202   0.4236   0.4307   0.4830   0.5758   0.5855   0.7066   0.7099
     0.7135   0.8808

          k = 0.0578-0.0667 0.0000 ( 18031 PWs)   bands (ev):

   -56.4244 -56.3997 -56.3816 -56.3777 -56.3583 -56.3548 -56.3378 -56.3147
   -56.1889 -56.1691 -56.1546 -56.1348 -32.8151 -32.7960 -32.7885 -32.7695
   -32.7654 -32.7303 -32.7257 -32.7169 -32.7100 -32.6858 -32.6752 -32.6649
   -32.6578 -32.6525 -32.6229 -32.6072 -32.5741 -32.5381 -32.5159 -32.4899
   -32.4696 -32.4544 -32.4392 -32.4292 -32.4138 -32.4031 -32.3835 -32.3808
   -32.3271 -32.3208 -32.3169 -32.3062 -32.2992 -32.2737 -32.2199 -32.1862
    -3.6562  -2.8477  -2.6458  -2.0828  -1.9852  -1.6458  -1.3304  -1.1053
    -0.9908  -0.8168  -0.7179  -0.4627  -0.4055  -0.3584  -0.3541  -0.2883
    -0.0916   0.0110   0.0716   0.0953   0.2473   0.2850   0.3039   0.3286
     0.3489   0.4813   0.6206   0.6528   0.7264   0.7769   0.8033   0.8270
     0.8895   1.1366

          k =-0.0867 0.0500 0.0000 ( 18044 PWs)   bands (ev):

   -56.4203 -56.4094 -56.3711 -56.3697 -56.3687 -56.3635 -56.3237 -56.3227
   -56.1836 -56.1794 -56.1440 -56.1403 -32.8140 -32.8086 -32.7893 -32.7752
   -32.7614 -32.7598 -32.7245 -32.7174 -32.6940 -32.6861 -32.6619 -32.6523
   -32.6318 -32.6177 -32.5932 -32.5919 -32.5888 -32.5758 -32.5569 -32.5546
   -32.4615 -32.4602 -32.4193 -32.4150 -32.3819 -32.3800 -32.3717 -32.3682
   -32.3501 -32.3480 -32.3193 -32.3082 -32.3050 -32.3024 -32.1917 -32.1872
    -3.4040  -3.3102  -2.6323  -2.1767  -1.7246  -1.3284  -1.3272  -1.0913
    -1.0645  -1.0510  -0.8837  -0.3368  -0.3299  -0.3229  -0.3161  -0.2136
    -0.1627   0.1346   0.1424   0.1532   0.1709   0.1769   0.2789   0.4113
     0.4149   0.4164   0.5711   0.5917   0.6225   0.6764   0.8470   0.8661
     1.0944   1.2040

          k =-0.0867 0.0834 0.0000 ( 18031 PWs)   bands (ev):

   -56.4244 -56.3998 -56.3815 -56.3777 -56.3583 -56.3548 -56.3379 -56.3147
   -56.1889 -56.1691 -56.1546 -56.1348 -32.8151 -32.7960 -32.7885 -32.7694
   -32.7655 -32.7303 -32.7257 -32.7169 -32.7100 -32.6858 -32.6752 -32.6650
   -32.6577 -32.6524 -32.6229 -32.6072 -32.5741 -32.5381 -32.5159 -32.4899
   -32.4696 -32.4544 -32.4392 -32.4292 -32.4138 -32.4031 -32.3835 -32.3808
   -32.3271 -32.3207 -32.3169 -32.3062 -32.2992 -32.2737 -32.2199 -32.1862
    -3.6562  -2.8477  -2.6458  -2.0828  -1.9852  -1.6458  -1.3305  -1.1053
    -0.9908  -0.8168  -0.7179  -0.4627  -0.4055  -0.3584  -0.3541  -0.2883
    -0.0917   0.0110   0.0716   0.0953   0.2473   0.2850   0.3039   0.3286
     0.3489   0.4813   0.6206   0.6527   0.7265   0.7769   0.8033   0.8270
     0.8894   1.1366

          k =-0.0867 0.1168 0.0000 ( 18031 PWs)   bands (ev):

   -56.4244 -56.3998 -56.3815 -56.3777 -56.3583 -56.3547 -56.3379 -56.3147
   -56.1889 -56.1691 -56.1545 -56.1348 -32.8151 -32.7960 -32.7885 -32.7695
   -32.7654 -32.7303 -32.7256 -32.7169 -32.7100 -32.6858 -32.6751 -32.6648
   -32.6578 -32.6525 -32.6229 -32.6072 -32.5741 -32.5381 -32.5159 -32.4899
   -32.4696 -32.4544 -32.4392 -32.4292 -32.4138 -32.4032 -32.3835 -32.3807
   -32.3270 -32.3208 -32.3169 -32.3062 -32.2992 -32.2737 -32.2199 -32.1863
    -3.6562  -2.8477  -2.6458  -2.0828  -1.9852  -1.6458  -1.3304  -1.1053
    -0.9908  -0.8168  -0.7179  -0.4627  -0.4055  -0.3584  -0.3541  -0.2883
    -0.0917   0.0109   0.0716   0.0953   0.2473   0.2850   0.3039   0.3286
     0.3488   0.4813   0.6206   0.6527   0.7265   0.7768   0.8034   0.8270
     0.8894   1.1366

          k =-0.0867-0.0500 0.0000 ( 18044 PWs)   bands (ev):

   -56.4203 -56.4094 -56.3712 -56.3701 -56.3682 -56.3635 -56.3243 -56.3222
   -56.1834 -56.1797 -56.1437 -56.1406 -32.8140 -32.8086 -32.7894 -32.7752
   -32.7618 -32.7594 -32.7245 -32.7174 -32.6941 -32.6861 -32.6617 -32.6525
   -32.6317 -32.6178 -32.5934 -32.5917 -32.5886 -32.5758 -32.5565 -32.5550
   -32.4615 -32.4603 -32.4193 -32.4151 -32.3824 -32.3795 -32.3715 -32.3684
   -32.3503 -32.3477 -32.3192 -32.3084 -32.3048 -32.3025 -32.1915 -32.1874
    -3.4040  -3.3103  -2.6323  -2.1767  -1.7246  -1.3284  -1.3272  -1.0913
    -1.0644  -1.0511  -0.8837  -0.3368  -0.3300  -0.3229  -0.3162  -0.2136
    -0.1627   0.1345   0.1426   0.1533   0.1709   0.1770   0.2788   0.4114
     0.4148   0.4164   0.5713   0.5916   0.6226   0.6763   0.8469   0.8662
     1.0945   1.2039

     the Fermi energy is     0.5873 ev

!    total energy              =   -1439.72073304 Ry
     Harris-Foulkes estimate   =   -1439.72074454 Ry
     estimated scf accuracy    <       0.00000661 Ry

     The total energy is the sum of the following terms:

     one-electron contribution =  -10887.93676543 Ry
     hartree contribution      =    5428.48752590 Ry
     xc contribution           =    -225.47525586 Ry
     ewald contribution        =    4245.33640117 Ry
     electric field correction =       0.00003925 Ry
     smearing contrib. (-TS)   =      -0.13267807 Ry

     convergence has been achieved in  35 iterations
 
 BEEF-vdW xc energy contributions
           1 :   -193.813202542149     
           2 :    173.166688222324     
           3 :   -139.318999471168     
           4 :    103.084871851066     
           5 :   -73.3408645161670     
           6 :    53.5585325378422     
           7 :   -41.7986040553922     
           8 :    33.4635609043213     
           9 :   -24.6801311368925     
          10 :    14.2528537767112     
          11 :   -3.46215411813847     
          12 :   -5.59750004675311     
          13 :    11.7314039762745     
          14 :   -15.3165993970433     
          15 :    17.7179285024484     
          16 :   -20.1020378472243     
          17 :    22.5872679565742     
          18 :   -24.3034435381239     
          19 :    24.2034840010687     
          20 :   -21.9439053748004     
          21 :    18.1636953623323     
          22 :   -14.0158475930699     
          23 :    10.3735260057197     
          24 :   -7.33495480032863     
          25 :    4.35305904780620     
          26 :  -0.822966076642302     
          27 :   -3.35760799650197     
          28 :    7.65993199610273     
          29 :   -11.2793774167270     
          30 :    13.6670172114260     
          31 :   -20.5722410565993     
          32 :   -14.6451364958399     

     Forces acting on atoms (Ry/au):


     negative rho (up, down):  8.471E-03 0.000E+00
     atom    1 type  1   force =     0.00025987    0.00015631    0.00973053
     atom    2 type  1   force =    -0.00026617    0.00016646    0.00972127
     atom    3 type  1   force =     0.00001668   -0.00031424    0.00975970
     atom    4 type  1   force =    -0.00000525   -0.00001328    0.00964975
     atom    5 type  1   force =    -0.00000486    0.00165252   -0.00266177
     atom    6 type  1   force =     0.00000827   -0.00001553    0.00054547
     atom    7 type  1   force =    -0.00145224   -0.00080674   -0.00264239
     atom    8 type  1   force =     0.00143409   -0.00082686   -0.00265944
     atom    9 type  1   force =     0.00001495    0.00001555   -0.01187400
     atom   10 type  1   force =    -0.00001408    0.01364386    0.01644140
     atom   11 type  1   force =     0.01180477   -0.00683493    0.01646777
     atom   12 type  1   force =    -0.01179852   -0.00681863    0.01645116
     atom   13 type  2   force =     0.00000249   -0.00000449   -0.06892945

     Total force =     0.081669     Total SCF correction =     0.009967
     SCF correction compared to forces is large: reduce conv_thr to get better values


     entering subroutine stress ...


     negative rho (up, down):  8.471E-03 0.000E+00
          total   stress  (Ry/bohr**3)                   (kbar)     P=  -10.02
  -0.00004026  -0.00000001   0.00000000         -5.92     -0.00      0.00
  -0.00000001  -0.00004028   0.00000000         -0.00     -5.93      0.00
   0.00000000   0.00000000  -0.00012384          0.00      0.00    -18.22

 !ASE

     Writing output data file calc.save
 
     init_run     :     11.28s CPU     16.38s WALL (       1 calls)
     electrons    :    821.84s CPU   1158.05s WALL (       1 calls)
     forces       :      3.36s CPU      4.01s WALL (       1 calls)
     stress       :      8.53s CPU      9.78s WALL (       1 calls)

     Called by init_run:
     wfcinit      :      8.38s CPU     12.55s WALL (       1 calls)
     potinit      :      1.33s CPU      1.90s WALL (       1 calls)

     Called by electrons:
     c_bands      :    623.29s CPU    870.92s WALL (      35 calls)
     sum_band     :    105.30s CPU    154.94s WALL (      35 calls)
     v_of_rho     :     39.93s CPU     59.06s WALL (      36 calls)
     newd         :     15.04s CPU     15.85s WALL (      36 calls)
     mix_rho      :      1.71s CPU      2.53s WALL (      35 calls)
     vdW_energy   :      3.61s CPU      3.99s WALL (      72 calls)
     vdW_ffts     :     48.38s CPU     75.02s WALL (     146 calls)
     vdW_v        :      9.08s CPU     12.97s WALL (      72 calls)

     Called by c_bands:
     init_us_2    :      1.61s CPU      1.64s WALL (    1460 calls)
     cegterg      :    609.50s CPU    855.44s WALL (     700 calls)

     Called by *egterg:
     h_psi        :    422.13s CPU    649.12s WALL (    3470 calls)
     s_psi        :     16.18s CPU     16.20s WALL (    3470 calls)
     g_psi        :      0.96s CPU      0.97s WALL (    2750 calls)
     cdiaghg      :    101.60s CPU    104.83s WALL (    3450 calls)

     Called by h_psi:
     add_vuspsi   :     16.52s CPU     16.64s WALL (    3470 calls)

     General routines
     calbec       :     35.26s CPU     42.56s WALL (    4210 calls)
     fft          :     74.89s CPU    115.82s WALL (    4479 calls)
     ffts         :      0.30s CPU      0.50s WALL (      71 calls)
     fftw         :    435.47s CPU    701.11s WALL (  340640 calls)
     interpolate  :      1.44s CPU      2.28s WALL (      71 calls)
     davcio       :      0.00s CPU      0.02s WALL (      20 calls)
 
     Parallel routines
     fft_scatter  :    453.19s CPU    757.14s WALL (  345190 calls)
 
     PWSCF        : 14m 5.74s CPU    19m49.63s WALL

 
   This run was terminated on:   2: 0:39  17Jan2018            

=------------------------------------------------------------------------------=
   JOB DONE.
=------------------------------------------------------------------------------=
Job  /afs/slac/g/suncat/bin/suncat-tsmpirun -x LD_LIBRARY_PATH -wdir /scratch/qe842487_hbvit pw.x -in pw.inp

TID   HOST_NAME   COMMAND_LINE            STATUS            TERMINATION_TIME
===== ========== ================  =======================  ===================
00000 suncat0267 pw.x -in pw.inp   Done                     01/17/2018 02:00:39
00001 suncat0267 pw.x -in pw.inp   Done                     01/17/2018 02:00:39
00002 suncat0267 pw.x -in pw.inp   Done                     01/17/2018 02:00:39
00003 suncat0267 pw.x -in pw.inp   Done                     01/17/2018 02:00:39
00004 suncat0267 pw.x -in pw.inp   Done                     01/17/2018 02:00:39
00005 suncat0267 pw.x -in pw.inp   Done                     01/17/2018 02:00:39
00006 suncat0267 pw.x -in pw.inp   Done                     01/17/2018 02:00:39
00007 suncat0267 pw.x -in pw.inp   Done                     01/17/2018 02:00:39
00008 suncat0220 pw.x -in pw.inp   Done                     01/17/2018 02:00:39
00009 suncat0220 pw.x -in pw.inp   Done                     01/17/2018 02:00:39
00010 suncat0220 pw.x -in pw.inp   Done                     01/17/2018 02:00:39
00011 suncat0220 pw.x -in pw.inp   Done                     01/17/2018 02:00:39
00012 suncat0220 pw.x -in pw.inp   Done                     01/17/2018 02:00:39
00013 suncat0220 pw.x -in pw.inp   Done                     01/17/2018 02:00:39
00014 suncat0220 pw.x -in pw.inp   Done                     01/17/2018 02:00:39
00015 suncat0220 pw.x -in pw.inp   Done                     01/17/2018 02:00:39
00016 suncat0209 pw.x -in pw.inp   Done                     01/17/2018 02:00:39
00017 suncat0209 pw.x -in pw.inp   Done                     01/17/2018 02:00:39
00018 suncat0209 pw.x -in pw.inp   Done                     01/17/2018 02:00:39
00019 suncat0209 pw.x -in pw.inp   Done                     01/17/2018 02:00:39
00020 suncat0209 pw.x -in pw.inp   Done                     01/17/2018 02:00:39
00021 suncat0209 pw.x -in pw.inp   Done                     01/17/2018 02:00:39
00022 suncat0209 pw.x -in pw.inp   Done                     01/17/2018 02:00:39
00023 suncat0209 pw.x -in pw.inp   Done                     01/17/2018 02:00:39
00024 suncat0205 pw.x -in pw.inp   Done                     01/17/2018 02:00:39
00025 suncat0205 pw.x -in pw.inp   Done                     01/17/2018 02:00:39
00026 suncat0205 pw.x -in pw.inp   Done                     01/17/2018 02:00:39
00027 suncat0205 pw.x -in pw.inp   Done                     01/17/2018 02:00:39
00028 suncat0205 pw.x -in pw.inp   Done                     01/17/2018 02:00:39
00029 suncat0205 pw.x -in pw.inp   Done                     01/17/2018 02:00:39
00030 suncat0205 pw.x -in pw.inp   Done                     01/17/2018 02:00:39
00031 suncat0205 pw.x -in pw.inp   Done                     01/17/2018 02:00:39

     Program PWSCF v.5.1rc2 (svn rev. 11289) starts on 17Jan2018 at  2: 0:45 

     This program is part of the open-source Quantum ESPRESSO suite
     for quantum simulation of materials; please cite
         "P. Giannozzi et al., J. Phys.:Condens. Matter 21 395502 (2009);
          URL http://www.quantum-espresso.org", 
     in publications or presentations arising from this work. More details at
     http://www.quantum-espresso.org/quote

     Parallel version (MPI), running on    32 processors
     R & G space division:  proc/nbgrp/npool/nimage =      32
     Reading input from pw.inp
     Message from routine read_cards :
     DEPRECATED: no units specified in CELL_PARAMETERS card

     Current dimensions of program PWSCF are:
     Max number of different atomic species (ntypx) = 10
     Max number of k-points (npk) =  40000
     Max angular momentum in pseudopotentials (lmaxx) =  3
     Presently stress not available with electric field


     **************************************************************************
     Initializing libbeef V0.1.1 with the BEEF-vdW functional.
     Citation: Wellendorff et al., PRB 85, 235149 (2012).
     **************************************************************************


     IMPORTANT: XC functional enforced from input :
     Exchange-correlation      = BEEF-VDW ( 1  4 27 13 2)
     Any further DFT definition will be discarded
     Please, verify this is what you really want


     Subspace diagonalization in iterative solution of the eigenvalue problem:
     a serial algorithm will be used

 
     Parallelization info
     --------------------
     sticks:   dense  smooth     PW     G-vecs:    dense   smooth      PW
     Min          94      37     10                17854     4501     698
     Max          95      38     11                17874     4540     717
     Sum        3013    1201    349               571737   144541   22801
 


     bravais-lattice index     =            0
     lattice parameter (alat)  =       1.8897  a.u.
     unit-cell volume          =    4806.0858 (a.u.)^3
     number of atoms/cell      =           13
     number of atomic types    =            2
     number of electrons       =       145.00
     number of Kohn-Sham states=           82
     kinetic-energy cutoff     =      36.7493  Ry
     charge density cutoff     =     367.4932  Ry
     convergence threshold     =      1.0E-05
     mixing beta               =       0.3000
     number of iterations used =           10  plain     mixing
     Exchange-correlation      = BEEF-VDW ( 1  4 27 13 2)
     nstep                     =           50


     celldm(1)=   1.889726  celldm(2)=   0.000000  celldm(3)=   0.000000
     celldm(4)=   0.000000  celldm(5)=   0.000000  celldm(6)=   0.000000

     crystal axes: (cart. coord. in units of alat)
               a(1) = (   5.768903   0.000000   0.000000 )  
               a(2) = (   2.884451   4.996016   0.000000 )  
               a(3) = (   0.000000   0.000000  24.710289 )  

     reciprocal axes: (cart. coord. in units 2 pi/alat)
               b(1) = (  0.173343 -0.100080  0.000000 )  
               b(2) = (  0.000000  0.200159  0.000000 )  
               b(3) = (  0.000000  0.000000  0.040469 )  


     PseudoPot. # 1 for Ti read from file:
     /afs/slac.stanford.edu/u/if/mamunm/psp/gbrv1.5pbe/Ti.UPF
     MD5 check sum: 88a00a6731bd790ddea75d31a80cb452
     Pseudo is Ultrasoft + core correction, Zval = 12.0
     Generated by new atomic code, or converted to UPF format
     Using radial grid of  851 points,  6 beta functions with: 
                l(1) =   0
                l(2) =   0
                l(3) =   1
                l(4) =   1
                l(5) =   2
                l(6) =   2
     Q(r) pseudized with  6 coefficients,  rinner =    1.000   1.000   1.000
                                                       1.000   1.000

     PseudoPot. # 2 for H  read from file:
     /afs/slac.stanford.edu/u/if/mamunm/psp/gbrv1.5pbe/H.UPF
     MD5 check sum: 761ae9a214b05c3daf00ab9f6b793d6f
     Pseudo is Ultrasoft, Zval =  1.0
     Generated by new atomic code, or converted to UPF format
     Using radial grid of  615 points,  2 beta functions with: 
                l(1) =   0
                l(2) =   0
     Q(r) pseudized with  8 coefficients,  rinner =    0.700

     vdW kernel table read from file vdW_kernel_table
     MD5 check sum: 095c7af220d748ca6e76c0b4c6cfb241

     atomic species   valence    mass     pseudopotential
        Ti1           12.00    47.86700     Ti( 1.00)
        H1             1.00     1.00800     H ( 1.00)

     No symmetry found



   Cartesian axes

     site n.     atom                  positions (alat units)
         1           Ti1 tau(   1) = (   1.4422257   0.8326694  10.0000000  )
         2           Ti1 tau(   2) = (   4.3266771   0.8326694  10.0000000  )
         3           Ti1 tau(   3) = (   2.8844514   3.3306776  10.0000000  )
         4           Ti1 tau(   4) = (   5.7689029   3.3306776  10.0000000  )
         5           Ti1 tau(   5) = (   5.7689029   1.6653388  12.3551447  )
         6           Ti1 tau(   6) = (   2.8844514   1.6653388  12.3551447  )
         7           Ti1 tau(   7) = (   7.2111286   4.1633470  12.3551447  )
         8           Ti1 tau(   8) = (   4.3266771   4.1633470  12.3551447  )
         9           Ti1 tau(   9) = (   0.0000384   0.0000400  14.6797602  )
        10           Ti1 tau(  10) = (   2.8844152   0.0350798  14.7525620  )
        11           Ti1 tau(  11) = (   1.4725770   2.4804349  14.7526298  )
        12           Ti1 tau(  12) = (   4.2963419   2.4804768  14.7525871  )
        13           H1  tau(  13) = (   2.8844578   1.6653273  16.4430647  )

     number of k points=    20  Fermi-Dirac smearing, width (Ry)=  0.0110
                       cart. coord. in units 2pi/alat
        k(    1) = (   0.0000000   0.0000000   0.0000000), wk =   0.0555556
        k(    2) = (   0.0000000   0.0333599   0.0000000), wk =   0.1111111
        k(    3) = (   0.0000000   0.0667198   0.0000000), wk =   0.1111111
        k(    4) = (   0.0000000  -0.1000797   0.0000000), wk =   0.0555556
        k(    5) = (   0.0288905  -0.0166800   0.0000000), wk =   0.1111111
        k(    6) = (   0.0288905   0.0166800   0.0000000), wk =   0.1111111
        k(    7) = (   0.0288905   0.0500399   0.0000000), wk =   0.1111111
        k(    8) = (   0.0288905  -0.1167597   0.0000000), wk =   0.1111111
        k(    9) = (   0.0288905  -0.0833998   0.0000000), wk =   0.1111111
        k(   10) = (   0.0288905  -0.0500399   0.0000000), wk =   0.1111111
        k(   11) = (   0.0577811  -0.0333599   0.0000000), wk =   0.1111111
        k(   12) = (   0.0577811  -0.0000000   0.0000000), wk =   0.1111111
        k(   13) = (   0.0577811   0.0333599   0.0000000), wk =   0.1111111
        k(   14) = (   0.0577811  -0.1334396   0.0000000), wk =   0.1111111
        k(   15) = (   0.0577811  -0.1000797   0.0000000), wk =   0.1111111
        k(   16) = (   0.0577811  -0.0667198   0.0000000), wk =   0.1111111
        k(   17) = (  -0.0866716   0.0500399   0.0000000), wk =   0.0555556
        k(   18) = (  -0.0866716   0.0833998   0.0000000), wk =   0.1111111
        k(   19) = (  -0.0866716   0.1167597   0.0000000), wk =   0.1111111
        k(   20) = (  -0.0866716  -0.0500399   0.0000000), wk =   0.0555556

     Dense  grid:   571737 G-vectors     FFT dimensions: (  72,  72, 288)

     Smooth grid:   144541 G-vectors     FFT dimensions: (  45,  45, 192)

     Largest allocated arrays     est. size (Mb)     dimensions
        Kohn-Sham Wavefunctions         0.71 Mb     (     570,   82)
        NL pseudopotentials             1.90 Mb     (     570,  218)
        Each V/rho on FFT grid          0.71 Mb     (   46656)
        Each G-vector array             0.14 Mb     (   17863)
        G-vector shells                 0.06 Mb     (    8292)
     Largest temporary arrays     est. size (Mb)     dimensions
        Auxiliary wavefunctions         2.85 Mb     (     570,  328)
        Each subspace H/S matrix        1.64 Mb     (     328,  328)
        Each <psi_i|beta_j> matrix      0.27 Mb     (     218,   82)
        Arrays for rho mixing           7.12 Mb     (   46656,   10)

     Check: negative/imaginary core charge=   -0.000006    0.000000

     Initial potential from superposition of free atoms
     Check: negative starting charge=   -0.013829

     starting charge  132.99946, renormalised to  145.00000

     negative rho (up, down):  1.508E-02 0.000E+00


     ************************************************************************
     *
     * You are using vdW-DF for exchange-correlation in this calculation.
     * Please cite the following three references that made this development
     * possible:
     *
     *   M. Dion, H. Rydberg, E. Schroder, D. C. Langreth, and
     *   B. I. Lundqvist, Phys. Rev. Lett. 92, 246401 (2004).
     *
     *   T. Thonhauser, V. R. Cooper, S. Li, A. Puzder, P. Hyldgaard, and
     *   D. C. Langreth, Phys. Rev. B 76, 125112 (2007).
     *
     *   G. Roman-Perez and J. M. Soler, Phys. Rev. Lett. 103, 096102 (2009).
     *
     *
     * If you are using vdW-DF2, please also cite:
     *
     *   K. Lee, E. D. Murray, L. Kong, B. I. Lundqvist, and
     *   D. C. Langreth, Phys. Rev. B 82, 081101(R) (2010).
     *
     *
     * If you are calculating the stress with vdW-DF, please also cite:
     *
     *   R. Sabatini, E. Kucukbenli, B. Kolb, T. Thonhauser, and
     *   S. de Gironcoli, J. Phys.: Condens. Matter 24, 424209 (2012).
     *
     ************************************************************************

     Carrying out vdW-DF run using the following parameters:

     Nqs =      20    Nr_points =    1024   r_max =   100.000
     q_mesh =
               0.00001000     0.04494208     0.09755937     0.15916263
               0.23128650     0.31572767     0.41458969     0.53033537
               0.66584808     0.82450364     1.01025438     1.22772762
               1.48234092     1.78043706     2.12944203     2.53805004
               3.01644009     3.57652955     4.23227104     5.00000000

     Gradients computed in reciprocal space

     ************************************************************************


 
     Adding external electric field

     Computed dipole along edir(3) : 
        Dipole               -0.6956 Ry au,         -1.7680 Debye
        Dipole field         -0.0018 Ry au
 
        Potential amp.        0.1656 Ry
        Total length         45.5283 bohr
 
     Starting wfc are  121 randomized atomic wfcs

     total cpu time spent up to now is       16.0 secs

     per-process dynamical memory:    45.3 Mb

     Self-consistent Calculation

     iteration #  1     ecut=    36.75 Ry     beta=0.30
     Davidson diagonalization with overlap
     ethr =  1.00E-02,  avg # of iterations =  6.1

     negative rho (up, down):  1.588E-02 0.000E+00
 
     Adding external electric field

     Computed dipole along edir(3) : 
        Dipole               12.9253 Ry au,         32.8528 Debye
        Dipole field          0.0338 Ry au
 
        Potential amp.       -3.0773 Ry
        Total length         45.5283 bohr
 

     total cpu time spent up to now is       60.0 secs

     total energy              =   -1428.88565357 Ry
     Harris-Foulkes estimate   =   -1442.03626998 Ry
     estimated scf accuracy    <      27.94403741 Ry

     iteration #  2     ecut=    36.75 Ry     beta=0.30
     Davidson diagonalization with overlap
     ethr =  1.00E-02,  avg # of iterations = 11.8

     negative rho (up, down):  1.536E-02 0.000E+00
 
     Adding external electric field

     Computed dipole along edir(3) : 
        Dipole               -0.3619 Ry au,         -0.9198 Debye
        Dipole field         -0.0009 Ry au
 
        Potential amp.        0.0862 Ry
        Total length         45.5283 bohr
 

     total cpu time spent up to now is      115.9 secs

     total energy              =   -1430.80185516 Ry
     Harris-Foulkes estimate   =   -1499.52595287 Ry
     estimated scf accuracy    <     848.30663033 Ry

     iteration #  3     ecut=    36.75 Ry     beta=0.30
     Davidson diagonalization with overlap
     ethr =  1.00E-02,  avg # of iterations =  5.0

     negative rho (up, down):  1.467E-02 0.000E+00
 
     Adding external electric field

     Computed dipole along edir(3) : 
        Dipole               -0.8874 Ry au,         -2.2556 Debye
        Dipole field         -0.0023 Ry au
 
        Potential amp.        0.2113 Ry
        Total length         45.5283 bohr
 

     total cpu time spent up to now is      156.8 secs

     total energy              =   -1437.99914013 Ry
     Harris-Foulkes estimate   =   -1442.84900810 Ry
     estimated scf accuracy    <     127.24225465 Ry

     iteration #  4     ecut=    36.75 Ry     beta=0.30
     Davidson diagonalization with overlap
     ethr =  1.00E-02,  avg # of iterations =  4.3

     negative rho (up, down):  1.379E-02 0.000E+00
 
     Adding external electric field

     Computed dipole along edir(3) : 
        Dipole               -0.8308 Ry au,         -2.1116 Debye
        Dipole field         -0.0022 Ry au
 
        Potential amp.        0.1978 Ry
        Total length         45.5283 bohr
 

     total cpu time spent up to now is      188.4 secs

     total energy              =   -1439.01681276 Ry
     Harris-Foulkes estimate   =   -1439.92047166 Ry
     estimated scf accuracy    <       5.47164081 Ry

     iteration #  5     ecut=    36.75 Ry     beta=0.30
     Davidson diagonalization with overlap
     ethr =  3.77E-03,  avg # of iterations =  7.6

     negative rho (up, down):  1.128E-02 0.000E+00
 
     Adding external electric field

     Computed dipole along edir(3) : 
        Dipole               -0.7566 Ry au,         -1.9230 Debye
        Dipole field         -0.0020 Ry au
 
        Potential amp.        0.1801 Ry
        Total length         45.5283 bohr
 

     total cpu time spent up to now is      227.7 secs

     total energy              =   -1438.13223088 Ry
     Harris-Foulkes estimate   =   -1440.72288847 Ry
     estimated scf accuracy    <      78.56352007 Ry

     iteration #  6     ecut=    36.75 Ry     beta=0.30
     Davidson diagonalization with overlap
     ethr =  3.77E-03,  avg # of iterations =  7.2

     negative rho (up, down):  1.075E-02 0.000E+00
 
     Adding external electric field

     Computed dipole along edir(3) : 
        Dipole               -0.8296 Ry au,         -2.1087 Debye
        Dipole field         -0.0022 Ry au
 
        Potential amp.        0.1975 Ry
        Total length         45.5283 bohr
 

     total cpu time spent up to now is      265.6 secs

     total energy              =   -1439.81024863 Ry
     Harris-Foulkes estimate   =   -1440.11878221 Ry
     estimated scf accuracy    <      32.73176093 Ry

     iteration #  7     ecut=    36.75 Ry     beta=0.30
     Davidson diagonalization with overlap
     ethr =  3.77E-03,  avg # of iterations =  1.0

     negative rho (up, down):  1.044E-02 0.000E+00
 
     Adding external electric field

     Computed dipole along edir(3) : 
        Dipole               -0.8186 Ry au,         -2.0807 Debye
        Dipole field         -0.0021 Ry au
 
        Potential amp.        0.1949 Ry
        Total length         45.5283 bohr
 

     total cpu time spent up to now is      290.3 secs

     total energy              =   -1439.68095747 Ry
     Harris-Foulkes estimate   =   -1439.87022044 Ry
     estimated scf accuracy    <      16.33946090 Ry

     iteration #  8     ecut=    36.75 Ry     beta=0.30
     Davidson diagonalization with overlap
     ethr =  3.77E-03,  avg # of iterations =  1.0

     negative rho (up, down):  1.013E-02 0.000E+00
 
     Adding external electric field

     Computed dipole along edir(3) : 
        Dipole               -0.6283 Ry au,         -1.5970 Debye
        Dipole field         -0.0016 Ry au
 
        Potential amp.        0.1496 Ry
        Total length         45.5283 bohr
 

     total cpu time spent up to now is      314.7 secs

     total energy              =   -1439.72808829 Ry
     Harris-Foulkes estimate   =   -1439.73518787 Ry
     estimated scf accuracy    <       4.00975756 Ry

     iteration #  9     ecut=    36.75 Ry     beta=0.30
     Davidson diagonalization with overlap
     ethr =  2.77E-03,  avg # of iterations =  1.0

     negative rho (up, down):  9.528E-03 0.000E+00
 
     Adding external electric field

     Computed dipole along edir(3) : 
        Dipole               -0.4754 Ry au,         -1.2083 Debye
        Dipole field         -0.0012 Ry au
 
        Potential amp.        0.1132 Ry
        Total length         45.5283 bohr
 

     total cpu time spent up to now is      339.0 secs

     total energy              =   -1439.68354857 Ry
     Harris-Foulkes estimate   =   -1439.74068733 Ry
     estimated scf accuracy    <       4.16434997 Ry

     iteration # 10     ecut=    36.75 Ry     beta=0.30
     Davidson diagonalization with overlap
     ethr =  2.77E-03,  avg # of iterations =  1.0

     negative rho (up, down):  9.142E-03 0.000E+00
 
     Adding external electric field

     Computed dipole along edir(3) : 
        Dipole               -0.3643 Ry au,         -0.9259 Debye
        Dipole field         -0.0010 Ry au
 
        Potential amp.        0.0867 Ry
        Total length         45.5283 bohr
 

     total cpu time spent up to now is      364.0 secs

     total energy              =   -1439.70539984 Ry
     Harris-Foulkes estimate   =   -1439.71123481 Ry
[...]
    -1.1398  -0.9649  -0.6767  -0.6071  -0.5590  -0.5247  -0.4862  -0.3641
    -0.0164  -0.0037   0.0906   0.5667   0.6435   0.7217   0.7635   0.8578
     0.8685   0.9937   1.0648   1.1990   1.2362   1.2426   1.3235   1.4075
     1.4372   1.5051

          k = 0.0289-0.1168 0.0000 ( 18031 PWs)   bands (ev):

   -56.2049 -56.1985 -56.1786 -56.1708 -56.1615 -56.1517 -56.1384 -56.1071
   -55.9692 -55.9501 -55.9361 -55.9171 -32.6312 -32.6043 -32.5917 -32.5798
   -32.5713 -32.5391 -32.5226 -32.5207 -32.5120 -32.4936 -32.4808 -32.4710
   -32.4646 -32.4551 -32.4249 -32.4089 -32.3665 -32.3449 -32.3039 -32.2941
   -32.2528 -32.2429 -32.2301 -32.2147 -32.2020 -32.1931 -32.1829 -32.1601
   -32.1042 -32.0997 -32.0945 -32.0840 -32.0690 -32.0524 -32.0017 -31.9681
    -4.3212  -3.2985  -2.5558  -2.0318  -1.8483  -1.5154  -1.1680  -0.9382
    -0.8613  -0.6727  -0.5297  -0.3259  -0.2625  -0.2035  -0.1946  -0.0846
     0.0745   0.1630   0.2209   0.2603   0.4233   0.4596   0.4706   0.5016
     0.5313   0.6315   0.7583   0.8325   0.9045   0.9481   1.0023   1.0242
     1.0788   1.3167

          k = 0.0289-0.0834 0.0000 ( 18031 PWs)   bands (ev):

   -56.2050 -56.1986 -56.1786 -56.1705 -56.1615 -56.1519 -56.1384 -56.1071
   -55.9692 -55.9500 -55.9361 -55.9171 -32.6313 -32.6042 -32.5917 -32.5798
   -32.5713 -32.5392 -32.5226 -32.5209 -32.5119 -32.4936 -32.4808 -32.4709
   -32.4646 -32.4551 -32.4249 -32.4087 -32.3666 -32.3451 -32.3039 -32.2941
   -32.2528 -32.2429 -32.2301 -32.2148 -32.2020 -32.1931 -32.1829 -32.1600
   -32.1042 -32.0998 -32.0945 -32.0840 -32.0690 -32.0524 -32.0017 -31.9681
    -4.3212  -3.2985  -2.5558  -2.0318  -1.8484  -1.5155  -1.1680  -0.9382
    -0.8613  -0.6727  -0.5297  -0.3259  -0.2625  -0.2035  -0.1946  -0.0846
     0.0745   0.1630   0.2209   0.2603   0.4233   0.4596   0.4707   0.5015
     0.5313   0.6314   0.7584   0.8326   0.9044   0.9482   1.0023   1.0242
     1.0789   1.3167

          k = 0.0289-0.0500 0.0000 ( 18091 PWs)   bands (ev):

   -56.2241 -56.2149 -56.1595 -56.1584 -56.1572 -56.1494 -56.1415 -56.1061
   -55.9854 -55.9344 -55.9329 -55.9197 -32.6769 -32.6507 -32.6340 -32.6318
   -32.6224 -32.5893 -32.5819 -32.5570 -32.5534 -32.5484 -32.4954 -32.4557
   -32.4502 -32.4278 -32.3562 -32.3486 -32.2880 -32.2822 -32.2730 -32.2679
   -32.2624 -32.2583 -32.2454 -32.2378 -32.2264 -32.1680 -32.1551 -32.1043
   -32.1014 -32.0972 -32.0937 -32.0676 -32.0324 -32.0269 -32.0069 -31.9391
    -4.6350  -3.7896  -2.4718  -1.8401  -1.8366  -1.5143  -1.3981  -1.2882
    -1.1398  -0.9649  -0.6767  -0.6071  -0.5590  -0.5246  -0.4862  -0.3641
    -0.0164  -0.0038   0.0906   0.5667   0.6435   0.7217   0.7635   0.8578
     0.8685   0.9936   1.0649   1.1990   1.2361   1.2427   1.3236   1.4075
     1.4372   1.5051

          k = 0.0578-0.0334 0.0000 ( 18080 PWs)   bands (ev):

   -56.2188 -56.2103 -56.1703 -56.1638 -56.1479 -56.1468 -56.1466 -56.1069
   -55.9810 -55.9432 -55.9244 -55.9238 -32.6631 -32.6416 -32.6277 -32.6101
   -32.5982 -32.5939 -32.5492 -32.5458 -32.5438 -32.5320 -32.4942 -32.4646
   -32.4443 -32.4416 -32.3438 -32.3404 -32.3371 -32.3325 -32.2887 -32.2727
   -32.2666 -32.2495 -32.2390 -32.2298 -32.2197 -32.1740 -32.1576 -32.1059
   -32.1034 -32.0927 -32.0869 -32.0829 -32.0677 -32.0367 -31.9995 -31.9432
    -4.5300  -3.6722  -2.4106  -2.2301  -1.5425  -1.3211  -1.3110  -1.2712
    -1.0946  -1.0169  -0.6609  -0.4725  -0.4539  -0.4257  -0.4042  -0.2707
     0.0090   0.0352   0.1289   0.4345   0.6174   0.6682   0.6862   0.7136
     0.8047   0.9282   0.9307   1.0967   1.1693   1.2004   1.2415   1.3158
     1.3462   1.3480

          k = 0.0578-0.0000 0.0000 ( 18091 PWs)   bands (ev):

   -56.2241 -56.2148 -56.1601 -56.1580 -56.1577 -56.1488 -56.1415 -56.1062
   -55.9854 -55.9345 -55.9328 -55.9197 -32.6768 -32.6507 -32.6340 -32.6318
   -32.6225 -32.5894 -32.5818 -32.5571 -32.5533 -32.5485 -32.4954 -32.4556
   -32.4502 -32.4278 -32.3562 -32.3487 -32.2880 -32.2822 -32.2730 -32.2679
   -32.2623 -32.2582 -32.2453 -32.2378 -32.2265 -32.1680 -32.1551 -32.1043
   -32.1014 -32.0973 -32.0936 -32.0676 -32.0323 -32.0270 -32.0069 -31.9391
    -4.6350  -3.7896  -2.4718  -1.8401  -1.8366  -1.5143  -1.3981  -1.2882
    -1.1398  -0.9649  -0.6767  -0.6071  -0.5590  -0.5246  -0.4862  -0.3641
    -0.0164  -0.0037   0.0906   0.5667   0.6435   0.7217   0.7635   0.8578
     0.8685   0.9937   1.0648   1.1990   1.2362   1.2427   1.3235   1.4075
     1.4372   1.5051

          k = 0.0578 0.0334 0.0000 ( 18080 PWs)   bands (ev):

   -56.2188 -56.2103 -56.1703 -56.1643 -56.1475 -56.1468 -56.1463 -56.1070
   -55.9810 -55.9432 -55.9243 -55.9239 -32.6629 -32.6418 -32.6277 -32.6100
   -32.5981 -32.5941 -32.5493 -32.5456 -32.5439 -32.5320 -32.4942 -32.4647
   -32.4441 -32.4417 -32.3437 -32.3405 -32.3368 -32.3328 -32.2887 -32.2726
   -32.2666 -32.2496 -32.2389 -32.2298 -32.2195 -32.1740 -32.1578 -32.1058
   -32.1034 -32.0927 -32.0869 -32.0829 -32.0677 -32.0367 -31.9995 -31.9432
    -4.5300  -3.6723  -2.4107  -2.2301  -1.5425  -1.3211  -1.3111  -1.2711
    -1.0946  -1.0169  -0.6608  -0.4724  -0.4540  -0.4257  -0.4042  -0.2707
     0.0089   0.0353   0.1290   0.4345   0.6174   0.6682   0.6861   0.7136
     0.8046   0.9282   0.9308   1.0967   1.1693   1.2004   1.2415   1.3158
     1.3462   1.3481

          k = 0.0578-0.1334 0.0000 ( 18031 PWs)   bands (ev):

   -56.2049 -56.1985 -56.1787 -56.1712 -56.1615 -56.1513 -56.1384 -56.1072
   -55.9692 -55.9501 -55.9361 -55.9171 -32.6311 -32.6043 -32.5916 -32.5800
   -32.5712 -32.5392 -32.5228 -32.5208 -32.5119 -32.4937 -32.4809 -32.4710
   -32.4646 -32.4550 -32.4250 -32.4087 -32.3666 -32.3450 -32.3039 -32.2941
   -32.2527 -32.2429 -32.2300 -32.2148 -32.2019 -32.1931 -32.1831 -32.1601
   -32.1042 -32.0997 -32.0946 -32.0839 -32.0691 -32.0523 -32.0017 -31.9681
    -4.3212  -3.2985  -2.5558  -2.0318  -1.8484  -1.5155  -1.1680  -0.9382
    -0.8613  -0.6727  -0.5297  -0.3259  -0.2625  -0.2035  -0.1946  -0.0846
     0.0745   0.1630   0.2209   0.2604   0.4233   0.4596   0.4707   0.5015
     0.5313   0.6314   0.7584   0.8325   0.9045   0.9481   1.0023   1.0243
     1.0788   1.3167

          k = 0.0578-0.1001 0.0000 ( 18066 PWs)   bands (ev):

   -56.1949 -56.1822 -56.1815 -56.1806 -56.1732 -56.1575 -56.1353 -56.1066
   -55.9548 -55.9531 -55.9500 -55.9146 -32.6064 -32.5669 -32.5666 -32.5633
   -32.5312 -32.5254 -32.5160 -32.5019 -32.4968 -32.4957 -32.4682 -32.4547
   -32.4531 -32.4530 -32.4493 -32.4470 -32.4456 -32.4157 -32.2551 -32.2548
   -32.2517 -32.2505 -32.2436 -32.2357 -32.2202 -32.2109 -32.1690 -32.1572
   -32.1546 -32.1065 -32.0895 -32.0799 -32.0700 -32.0153 -32.0135 -32.0051
    -4.2244  -2.6885  -2.6671  -2.5480  -1.5986  -1.5852  -1.3636  -0.5949
    -0.4843  -0.4684  -0.4488  -0.4286  -0.2913   0.0193   0.0542   0.0795
     0.0928   0.1115   0.1374   0.1979   0.2139   0.2359   0.2451   0.4589
     0.5460   0.6066   0.6480   0.6629   0.7308   0.8163   0.8805   0.8871
     0.8880   1.0626

          k = 0.0578-0.0667 0.0000 ( 18031 PWs)   bands (ev):

   -56.2050 -56.1986 -56.1786 -56.1705 -56.1615 -56.1519 -56.1384 -56.1071
   -55.9692 -55.9501 -55.9361 -55.9171 -32.6314 -32.6042 -32.5916 -32.5799
   -32.5712 -32.5392 -32.5225 -32.5209 -32.5119 -32.4936 -32.4808 -32.4710
   -32.4646 -32.4551 -32.4250 -32.4087 -32.3666 -32.3451 -32.3039 -32.2940
   -32.2529 -32.2429 -32.2300 -32.2147 -32.2020 -32.1931 -32.1829 -32.1600
   -32.1042 -32.0998 -32.0946 -32.0840 -32.0690 -32.0523 -32.0017 -31.9681
    -4.3212  -3.2985  -2.5558  -2.0318  -1.8484  -1.5155  -1.1680  -0.9382
    -0.8613  -0.6727  -0.5297  -0.3259  -0.2625  -0.2035  -0.1946  -0.0846
     0.0745   0.1630   0.2209   0.2604   0.4233   0.4596   0.4707   0.5016
     0.5312   0.6314   0.7584   0.8326   0.9045   0.9481   1.0023   1.0242
     1.0789   1.3167

          k =-0.0867 0.0500 0.0000 ( 18044 PWs)   bands (ev):

   -56.2017 -56.1932 -56.1917 -56.1757 -56.1479 -56.1468 -56.1466 -56.1080
   -55.9638 -55.9605 -55.9244 -55.9238 -32.6341 -32.6071 -32.5943 -32.5844
   -32.5727 -32.5659 -32.5216 -32.5200 -32.4979 -32.4970 -32.4662 -32.4610
   -32.4408 -32.4176 -32.4130 -32.3808 -32.3788 -32.3700 -32.3669 -32.3449
   -32.2511 -32.2267 -32.2089 -32.2058 -32.1981 -32.1791 -32.1527 -32.1456
   -32.1283 -32.1265 -32.0931 -32.0904 -32.0823 -32.0672 -31.9753 -31.9675
    -4.3060  -3.1444  -2.9711  -1.9960  -1.6925  -1.1811  -1.1760  -0.9295
    -0.9258  -0.8719  -0.7021  -0.2047  -0.1937  -0.1665  -0.1641  -0.0511
     0.0297   0.2583   0.2851   0.3045   0.3484   0.3542   0.4611   0.5637
     0.5929   0.6115   0.7584   0.7638   0.8101   0.8585   1.0190   1.0752
     1.2371   1.4149

          k =-0.0867 0.0834 0.0000 ( 18031 PWs)   bands (ev):

   -56.2049 -56.1985 -56.1786 -56.1707 -56.1615 -56.1517 -56.1384 -56.1071
   -55.9692 -55.9501 -55.9361 -55.9171 -32.6313 -32.6042 -32.5917 -32.5799
   -32.5713 -32.5392 -32.5224 -32.5208 -32.5120 -32.4937 -32.4808 -32.4709
   -32.4647 -32.4551 -32.4249 -32.4089 -32.3665 -32.3450 -32.3039 -32.2941
   -32.2528 -32.2429 -32.2301 -32.2147 -32.2020 -32.1932 -32.1829 -32.1601
   -32.1042 -32.0997 -32.0946 -32.0840 -32.0690 -32.0524 -32.0017 -31.9681
    -4.3212  -3.2985  -2.5558  -2.0318  -1.8483  -1.5154  -1.1680  -0.9382
    -0.8613  -0.6727  -0.5297  -0.3258  -0.2625  -0.2035  -0.1946  -0.0846
     0.0745   0.1630   0.2209   0.2604   0.4234   0.4596   0.4707   0.5016
     0.5313   0.6315   0.7583   0.8325   0.9046   0.9480   1.0023   1.0243
     1.0788   1.3167

          k =-0.0867 0.1168 0.0000 ( 18031 PWs)   bands (ev):

   -56.2049 -56.1985 -56.1787 -56.1712 -56.1615 -56.1513 -56.1384 -56.1072
   -55.9692 -55.9501 -55.9361 -55.9171 -32.6311 -32.6042 -32.5916 -32.5800
   -32.5712 -32.5392 -32.5227 -32.5208 -32.5119 -32.4937 -32.4809 -32.4709
   -32.4647 -32.4551 -32.4249 -32.4087 -32.3666 -32.3450 -32.3039 -32.2941
   -32.2527 -32.2429 -32.2300 -32.2148 -32.2019 -32.1931 -32.1831 -32.1600
   -32.1042 -32.0997 -32.0946 -32.0839 -32.0690 -32.0523 -32.0017 -31.9681
    -4.3212  -3.2985  -2.5558  -2.0318  -1.8483  -1.5155  -1.1680  -0.9382
    -0.8613  -0.6727  -0.5297  -0.3259  -0.2625  -0.2035  -0.1946  -0.0846
     0.0745   0.1630   0.2209   0.2604   0.4233   0.4596   0.4707   0.5015
     0.5313   0.6314   0.7584   0.8325   0.9046   0.9481   1.0023   1.0244
     1.0788   1.3167

          k =-0.0867-0.0500 0.0000 ( 18044 PWs)   bands (ev):

   -56.2014 -56.1932 -56.1917 -56.1765 -56.1475 -56.1469 -56.1463 -56.1081
   -55.9637 -55.9605 -55.9243 -55.9239 -32.6337 -32.6073 -32.5942 -32.5845
   -32.5724 -32.5662 -32.5220 -32.5198 -32.4976 -32.4972 -32.4662 -32.4608
   -32.4409 -32.4175 -32.4132 -32.3805 -32.3789 -32.3702 -32.3666 -32.3452
   -32.2509 -32.2269 -32.2087 -32.2058 -32.1979 -32.1794 -32.1527 -32.1456
   -32.1284 -32.1263 -32.0931 -32.0904 -32.0822 -32.0672 -31.9752 -31.9677
    -4.3059  -3.1445  -2.9711  -1.9960  -1.6924  -1.1810  -1.1760  -0.9295
    -0.9259  -0.8720  -0.7020  -0.2047  -0.1938  -0.1664  -0.1641  -0.0510
     0.0296   0.2585   0.2852   0.3044   0.3483   0.3542   0.4611   0.5637
     0.5928   0.6116   0.7583   0.7639   0.8101   0.8586   1.0190   1.0753
     1.2370   1.4505

     the Fermi energy is     0.7584 ev

!    total energy              =   -1439.79114989 Ry
     Harris-Foulkes estimate   =   -1439.79115211 Ry
     estimated scf accuracy    <       0.00000420 Ry

     The total energy is the sum of the following terms:

     one-electron contribution =  -11027.09652982 Ry
     hartree contribution      =    5499.00528776 Ry
     xc contribution           =    -225.69954122 Ry
     ewald contribution        =    4314.12982676 Ry
     electric field correction =       0.00000229 Ry
     smearing contrib. (-TS)   =      -0.13019564 Ry

     convergence has been achieved in  24 iterations
 
 BEEF-vdW xc energy contributions
           1 :   -194.039734437493     
           2 :    173.458515907062     
           3 :   -139.650887643165     
           4 :    103.352510721996     
           5 :   -73.4519157217659     
           6 :    53.5095985773298     
           7 :   -41.6771979277502     
           8 :    33.3793860264722     
           9 :   -24.6878797924770     
          10 :    14.3267615435757     
          11 :   -3.53430897475653     
          12 :   -5.57473691681150     
          13 :    11.7495907594891     
          14 :   -15.3246433170017     
          15 :    17.6678718948581     
          16 :   -19.9901936348782     
          17 :    22.4598036703838     
          18 :   -24.2236851314063     
          19 :    24.2053073855251     
          20 :   -22.0062027918642     
          21 :    18.2257660630407     
          22 :   -14.0216004217152     
          23 :    10.3099443739193     
          24 :   -7.23665785505898     
          25 :    4.27247165806560     
          26 :  -0.791661455583153     
          27 :   -3.34777578946904     
          28 :    7.64437668866444     
          29 :   -11.2888593330468     
          30 :    13.7012140250000     
          31 :   -20.5900198993801     
          32 :   -14.6737841601321     

     Forces acting on atoms (Ry/au):


     negative rho (up, down):  9.112E-03 0.000E+00
     atom    1 type  1   force =    -0.00011572   -0.00006491    0.00794394
     atom    2 type  1   force =     0.00011353   -0.00007065    0.00788884
     atom    3 type  1   force =    -0.00001671    0.00013154    0.00793886
     atom    4 type  1   force =     0.00001860   -0.00000211    0.00697546
     atom    5 type  1   force =     0.00000824    0.00678301   -0.00747592
     atom    6 type  1   force =    -0.00001681    0.00000100   -0.00950714
     atom    7 type  1   force =    -0.00587243   -0.00339988   -0.00746763
     atom    8 type  1   force =     0.00586272   -0.00337242   -0.00748557
     atom    9 type  1   force =    -0.00000320    0.00000175    0.00138061
     atom   10 type  1   force =     0.00000483   -0.00008142    0.00003599
     atom   11 type  1   force =    -0.00006694    0.00004276    0.00003029
     atom   12 type  1   force =     0.00007200    0.00003371   -0.00001411
     atom   13 type  2   force =     0.00001189   -0.00000239   -0.00024360

     Total force =     0.025198     Total SCF correction =     0.008095
     SCF correction compared to forces is large: reduce conv_thr to get better values


     entering subroutine stress ...


     negative rho (up, down):  9.112E-03 0.000E+00
          total   stress  (Ry/bohr**3)                   (kbar)     P=   -2.83
  -0.00001157   0.00000001   0.00000002         -1.70      0.00      0.00
   0.00000001  -0.00001161   0.00000001          0.00     -1.71      0.00
   0.00000002   0.00000001  -0.00003454          0.00      0.00     -5.08

 !ASE

     Writing output data file calc.save
 
     init_run     :     11.12s CPU     15.87s WALL (       1 calls)
     electrons    :    594.08s CPU    846.02s WALL (       1 calls)
     forces       :      3.44s CPU      4.21s WALL (       1 calls)
     stress       :      8.30s CPU      9.91s WALL (       1 calls)

     Called by init_run:
     wfcinit      :      8.33s CPU     12.25s WALL (       1 calls)
     potinit      :      1.34s CPU      1.85s WALL (       1 calls)

     Called by electrons:
     c_bands      :    442.84s CPU    622.81s WALL (      24 calls)
     sum_band     :     75.51s CPU    113.21s WALL (      24 calls)
     v_of_rho     :     28.86s CPU     43.46s WALL (      25 calls)
     newd         :     10.52s CPU     11.34s WALL (      25 calls)
     mix_rho      :      1.14s CPU      1.75s WALL (      24 calls)
     vdW_energy   :      3.06s CPU      3.41s WALL (      61 calls)
     vdW_ffts     :     41.23s CPU     65.02s WALL (     124 calls)
     vdW_v        :      7.84s CPU     11.29s WALL (      61 calls)

     Called by c_bands:
     init_us_2    :      1.10s CPU      1.14s WALL (    1020 calls)
     cegterg      :    433.55s CPU    612.26s WALL (     480 calls)

     Called by *egterg:
     h_psi        :    299.45s CPU    463.20s WALL (    2513 calls)
     s_psi        :     11.41s CPU     11.44s WALL (    2513 calls)
     g_psi        :      0.67s CPU      0.67s WALL (    2013 calls)
     cdiaghg      :     74.84s CPU     79.24s WALL (    2493 calls)

     Called by h_psi:
     add_vuspsi   :     11.75s CPU     11.85s WALL (    2513 calls)

     General routines
     calbec       :     26.78s CPU     33.60s WALL (    3033 calls)
     fft          :     62.72s CPU     98.97s WALL (    3753 calls)
     ffts         :      0.21s CPU      0.35s WALL (      49 calls)
     fftw         :    308.97s CPU    500.56s WALL (  235692 calls)
     interpolate  :      1.07s CPU      1.67s WALL (      49 calls)
     davcio       :      0.00s CPU      0.02s WALL (      20 calls)
 
     Parallel routines
     fft_scatter  :    332.46s CPU    557.60s WALL (  239494 calls)
 
     PWSCF        : 10m18.15s CPU    14m37.81s WALL

 
   This run was terminated on:   4: 7:36  17Jan2018            

=------------------------------------------------------------------------------=
   JOB DONE.
=------------------------------------------------------------------------------=
Job  /afs/slac/g/suncat/bin/suncat-tsmpirun -x LD_LIBRARY_PATH -wdir /scratch/qe842487_hbvit pw.x -in pw.inp

TID   HOST_NAME   COMMAND_LINE            STATUS            TERMINATION_TIME
===== ========== ================  =======================  ===================
00000 suncat0267 pw.x -in pw.inp   Done                     01/17/2018 04:07:36
00001 suncat0267 pw.x -in pw.inp   Done                     01/17/2018 04:07:36
00002 suncat0267 pw.x -in pw.inp   Done                     01/17/2018 04:07:36
00003 suncat0267 pw.x -in pw.inp   Done                     01/17/2018 04:07:36
00004 suncat0267 pw.x -in pw.inp   Done                     01/17/2018 04:07:36
00005 suncat0267 pw.x -in pw.inp   Done                     01/17/2018 04:07:36
00006 suncat0267 pw.x -in pw.inp   Done                     01/17/2018 04:07:36
00007 suncat0267 pw.x -in pw.inp   Done                     01/17/2018 04:07:36
00008 suncat0220 pw.x -in pw.inp   Done                     01/17/2018 04:07:36
00009 suncat0220 pw.x -in pw.inp   Done                     01/17/2018 04:07:36
00010 suncat0220 pw.x -in pw.inp   Done                     01/17/2018 04:07:36
00011 suncat0220 pw.x -in pw.inp   Done                     01/17/2018 04:07:36
00012 suncat0220 pw.x -in pw.inp   Done                     01/17/2018 04:07:36
00013 suncat0220 pw.x -in pw.inp   Done                     01/17/2018 04:07:36
00014 suncat0220 pw.x -in pw.inp   Done                     01/17/2018 04:07:36
00015 suncat0220 pw.x -in pw.inp   Done                     01/17/2018 04:07:36
00016 suncat0209 pw.x -in pw.inp   Done                     01/17/2018 04:07:36
00017 suncat0209 pw.x -in pw.inp   Done                     01/17/2018 04:07:36
00018 suncat0209 pw.x -in pw.inp   Done                     01/17/2018 04:07:36
00019 suncat0209 pw.x -in pw.inp   Done                     01/17/2018 04:07:36
00020 suncat0209 pw.x -in pw.inp   Done                     01/17/2018 04:07:36
00021 suncat0209 pw.x -in pw.inp   Done                     01/17/2018 04:07:36
00022 suncat0209 pw.x -in pw.inp   Done                     01/17/2018 04:07:36
00023 suncat0209 pw.x -in pw.inp   Done                     01/17/2018 04:07:36
00024 suncat0205 pw.x -in pw.inp   Done                     01/17/2018 04:07:36
00025 suncat0205 pw.x -in pw.inp   Done                     01/17/2018 04:07:36
00026 suncat0205 pw.x -in pw.inp   Done                     01/17/2018 04:07:36
00027 suncat0205 pw.x -in pw.inp   Done                     01/17/2018 04:07:36
00028 suncat0205 pw.x -in pw.inp   Done                     01/17/2018 04:07:36
00029 suncat0205 pw.x -in pw.inp   Done                     01/17/2018 04:07:36
00030 suncat0205 pw.x -in pw.inp   Done                     01/17/2018 04:07:36
00031 suncat0205 pw.x -in pw.inp   Done                     01/17/2018 04:07:36
