  python dir          : /u/if/mamunm/src/espresso
  espresso dir        : /nfs/slac/g/suncatfs/sw/espv18/espresso-dynpy-beef/bin
  pseudo dir          : /u/if/mamunm/psp/gbrv1.5pbe
  ase-espresso py git : GITVERSION



     Program PWSCF v.5.1rc2 (svn rev. 11289) starts on  3May2018 at 14:34:25 

     This program is part of the open-source Quantum ESPRESSO suite
     for quantum simulation of materials; please cite
         "P. Giannozzi et al., J. Phys.:Condens. Matter 21 395502 (2009);
          URL http://www.quantum-espresso.org", 
     in publications or presentations arising from this work. More details at
     http://www.quantum-espresso.org/quote

     Parallel version (MPI), running on    32 processors
     K-points division:     npool     =       4
     R & G space division:  proc/nbgrp/npool/nimage =       8
     Reading input from pw.inp
     Message from routine read_cards :
     DEPRECATED: no units specified in CELL_PARAMETERS card

     Current dimensions of program PWSCF are:
     Max number of different atomic species (ntypx) = 10
     Max number of k-points (npk) =  40000
     Max angular momentum in pseudopotentials (lmaxx) =  3
     Presently stress not available with electric field


     **************************************************************************
     Initializing libbeef V0.1.1 with the BEEF-vdW functional.
     Citation: Wellendorff et al., PRB 85, 235149 (2012).
     **************************************************************************


     IMPORTANT: XC functional enforced from input :
     Exchange-correlation      = BEEF-VDW ( 1  4 27 13 2)
     Any further DFT definition will be discarded
     Please, verify this is what you really want


     Subspace diagonalization in iterative solution of the eigenvalue problem:
     a serial algorithm will be used

 
     Parallelization info
     --------------------
     sticks:   dense  smooth     PW     G-vecs:    dense   smooth      PW
     Min         459     185     53                89541    22651    3500
     Max         460     186     56                89564    22694    3507
     Sum        3679    1483    433               716469   181389   28035
 


     bravais-lattice index     =            0
     lattice parameter (alat)  =       1.8897  a.u.
     unit-cell volume          =    6024.3322 (a.u.)^3
     number of atoms/cell      =           13
     number of atomic types    =            2
     number of electrons       =       149.00
     number of Kohn-Sham states=           84
     kinetic-energy cutoff     =      36.7493  Ry
     charge density cutoff     =     367.4932  Ry
     convergence threshold     =      1.0E-05
     mixing beta               =       0.3000
     number of iterations used =           10  plain     mixing
     Exchange-correlation      = BEEF-VDW ( 1  4 27 13 2)
     nstep                     =           50


     celldm(1)=   1.889726  celldm(2)=   0.000000  celldm(3)=   0.000000
     celldm(4)=   0.000000  celldm(5)=   0.000000  celldm(6)=   0.000000

     crystal axes: (cart. coord. in units of alat)
               a(1) = (   6.393197   0.000000   0.000000 )  
               a(2) = (   3.196599   5.536671   0.000000 )  
               a(3) = (   0.000000   0.000000  25.220024 )  

     reciprocal axes: (cart. coord. in units 2 pi/alat)
               b(1) = (  0.156416 -0.090307  0.000000 )  
               b(2) = (  0.000000  0.180614  0.000000 )  
               b(3) = (  0.000000  0.000000  0.039651 )  


     PseudoPot. # 1 for Hf read from file:
     /u/if/mamunm/psp/gbrv1.5pbe/Hf.UPF
     MD5 check sum: 8ee9378dfe14276e333edf04c5e4aa26
     Pseudo is Ultrasoft + core correction, Zval = 12.0
     Generated by new atomic code, or converted to UPF format
     Using radial grid of  921 points,  8 beta functions with: 
                l(1) =   0
                l(2) =   0
                l(3) =   0
                l(4) =   1
                l(5) =   1
                l(6) =   2
                l(7) =   2
                l(8) =   3
     Q(r) pseudized with  6 coefficients,  rinner =    1.200   1.200   1.200
                                                       1.200   1.200   1.200
                                                       1.200

     PseudoPot. # 2 for N  read from file:
     /u/if/mamunm/psp/gbrv1.5pbe/N.UPF
     MD5 check sum: 95339753478d7afb44899504a8723017
     Pseudo is Ultrasoft + core correction, Zval =  5.0
     Generated by new atomic code, or converted to UPF format
     Using radial grid of  729 points,  4 beta functions with: 
                l(1) =   0
                l(2) =   0
                l(3) =   1
                l(4) =   1
     Q(r) pseudized with  8 coefficients,  rinner =    0.900   0.900   0.900


     vdW kernel table read from file vdW_kernel_table
     MD5 check sum: 095c7af220d748ca6e76c0b4c6cfb241

     atomic species   valence    mass     pseudopotential
        Hf1           12.00   178.49000     Hf( 1.00)
        N1             5.00    14.00700     N ( 1.00)

     No symmetry found



   Cartesian axes

     site n.     atom                  positions (alat units)
         1           Hf1 tau(   1) = (   1.5982993   0.9227785  10.0000000  )
         2           Hf1 tau(   2) = (   4.7948978   0.9227785  10.0000000  )
         3           Hf1 tau(   3) = (   3.1965986   3.6911141  10.0000000  )
         4           Hf1 tau(   4) = (   6.3931971   3.6911141  10.0000000  )
         5           Hf1 tau(   5) = (   6.3931971   1.8455570  12.6100118  )
         6           Hf1 tau(   6) = (   3.1965986   1.8455570  12.6100118  )
         7           Hf1 tau(   7) = (   7.9914964   4.6138926  12.6100118  )
         8           Hf1 tau(   8) = (   4.7948978   4.6138926  12.6100118  )
         9           Hf1 tau(   9) = (   0.0000000   0.0000000  15.2200236  )
        10           Hf1 tau(  10) = (   3.1965986   0.0000000  15.2200236  )
        11           Hf1 tau(  11) = (   1.5982993   2.7683356  15.2200236  )
        12           Hf1 tau(  12) = (   4.7948978   2.7683356  15.2200236  )
        13           N1  tau(  13) = (   1.5982993   0.9227785  16.8190236  )

     number of k points=    20  Fermi-Dirac smearing, width (Ry)=  0.0110
                       cart. coord. in units 2pi/alat
        k(    1) = (   0.0000000   0.0000000   0.0000000), wk =   0.0555556
        k(    2) = (   0.0000000   0.0301023   0.0000000), wk =   0.1111111
        k(    3) = (   0.0000000   0.0602046   0.0000000), wk =   0.1111111
        k(    4) = (   0.0000000  -0.0903070   0.0000000), wk =   0.0555556
        k(    5) = (   0.0260694  -0.0150512   0.0000000), wk =   0.1111111
        k(    6) = (   0.0260694   0.0150512   0.0000000), wk =   0.1111111
        k(    7) = (   0.0260694   0.0451535   0.0000000), wk =   0.1111111
        k(    8) = (   0.0260694  -0.1053581   0.0000000), wk =   0.1111111
        k(    9) = (   0.0260694  -0.0752558   0.0000000), wk =   0.1111111
        k(   10) = (   0.0260694  -0.0451535   0.0000000), wk =   0.1111111
        k(   11) = (   0.0521388  -0.0301023   0.0000000), wk =   0.1111111
        k(   12) = (   0.0521388   0.0000000   0.0000000), wk =   0.1111111
        k(   13) = (   0.0521388   0.0301023   0.0000000), wk =   0.1111111
        k(   14) = (   0.0521388  -0.1204093   0.0000000), wk =   0.1111111
        k(   15) = (   0.0521388  -0.0903070   0.0000000), wk =   0.1111111
        k(   16) = (   0.0521388  -0.0602046   0.0000000), wk =   0.1111111
        k(   17) = (  -0.0782081   0.0451535   0.0000000), wk =   0.0555556
        k(   18) = (  -0.0782081   0.0752558   0.0000000), wk =   0.1111111
        k(   19) = (  -0.0782081   0.1053581   0.0000000), wk =   0.1111111
        k(   20) = (  -0.0782081  -0.0451535   0.0000000), wk =   0.0555556

     Dense  grid:   716469 G-vectors     FFT dimensions: (  75,  75, 300)

     Smooth grid:   181389 G-vectors     FFT dimensions: (  48,  48, 192)

     Largest allocated arrays     est. size (Mb)     dimensions
        Kohn-Sham Wavefunctions         3.69 Mb     (    2881,   84)
        NL pseudopotentials            14.07 Mb     (    2881,  320)
        Each V/rho on FFT grid          3.26 Mb     (  213750)
        Each G-vector array             0.68 Mb     (   89541)
        G-vector shells                 0.18 Mb     (   23330)
     Largest temporary arrays     est. size (Mb)     dimensions
        Auxiliary wavefunctions        14.77 Mb     (    2881,  336)
        Each subspace H/S matrix        1.72 Mb     (     336,  336)
        Each <psi_i|beta_j> matrix      0.41 Mb     (     320,   84)
        Arrays for rho mixing          32.62 Mb     (  213750,   10)

     Check: negative/imaginary core charge=   -0.000003    0.000000

     Initial potential from superposition of free atoms
     Check: negative starting charge=   -1.301381

     starting charge  124.99997, renormalised to  149.00000

     negative rho (up, down):  1.551E+00 0.000E+00


     ************************************************************************
     *
     * You are using vdW-DF for exchange-correlation in this calculation.
     * Please cite the following three references that made this development
     * possible:
     *
     *   M. Dion, H. Rydberg, E. Schroder, D. C. Langreth, and
     *   B. I. Lundqvist, Phys. Rev. Lett. 92, 246401 (2004).
     *
     *   T. Thonhauser, V. R. Cooper, S. Li, A. Puzder, P. Hyldgaard, and
     *   D. C. Langreth, Phys. Rev. B 76, 125112 (2007).
     *
     *   G. Roman-Perez and J. M. Soler, Phys. Rev. Lett. 103, 096102 (2009).
     *
     *
     * If you are using vdW-DF2, please also cite:
     *
     *   K. Lee, E. D. Murray, L. Kong, B. I. Lundqvist, and
     *   D. C. Langreth, Phys. Rev. B 82, 081101(R) (2010).
     *
     *
     * If you are calculating the stress with vdW-DF, please also cite:
     *
     *   R. Sabatini, E. Kucukbenli, B. Kolb, T. Thonhauser, and
     *   S. de Gironcoli, J. Phys.: Condens. Matter 24, 424209 (2012).
     *
     ************************************************************************

     Carrying out vdW-DF run using the following parameters:

     Nqs =      20    Nr_points =    1024   r_max =   100.000
     q_mesh =
               0.00001000     0.04494208     0.09755937     0.15916263
               0.23128650     0.31572767     0.41458969     0.53033537
               0.66584808     0.82450364     1.01025438     1.22772762
               1.48234092     1.78043706     2.12944203     2.53805004
               3.01644009     3.57652955     4.23227104     5.00000000

     Gradients computed in reciprocal space

     ************************************************************************


 
     Adding external electric field

     Computed dipole along edir(3) : 
        Dipole               -7.6357 Ry au,        -19.4079 Debye
        Dipole field         -0.0159 Ry au
 
        Potential amp.        1.4802 Ry
        Total length         46.4675 bohr
 
     Starting wfc are  160 randomized atomic wfcs

     total cpu time spent up to now is       20.7 secs

     per-process dynamical memory:   106.6 Mb

     Self-consistent Calculation

     iteration #  1     ecut=    36.75 Ry     beta=0.30
     Davidson diagonalization with overlap
     ethr =  1.00E-02,  avg # of iterations =  9.3

     negative rho (up, down):  1.437E+00 0.000E+00
 
     Adding external electric field

     Computed dipole along edir(3) : 
        Dipole              153.5428 Ry au,        390.2668 Debye
        Dipole field          0.3203 Ry au
 
        Potential amp.      -29.7652 Ry
        Total length         46.4675 bohr
 

     total cpu time spent up to now is       63.1 secs

     total energy              =   -1318.01980256 Ry
     Harris-Foulkes estimate   =   -1933.34988746 Ry
     estimated scf accuracy    <    1324.81532621 Ry

     iteration #  2     ecut=    36.75 Ry     beta=0.30
     Davidson diagonalization with overlap
     c_bands:  4 eigenvalues not converged
     c_bands:  4 eigenvalues not converged
     ethr =  1.00E-02,  avg # of iterations = 20.9

     negative rho (up, down):  1.382E+00 0.000E+00
 
     Adding external electric field

     Computed dipole along edir(3) : 
        Dipole               49.7971 Ry au,        126.5717 Debye
        Dipole field          0.1039 Ry au
 
        Potential amp.       -9.6535 Ry
        Total length         46.4675 bohr
 

     total cpu time spent up to now is      159.7 secs

     total energy              =   -1467.60971441 Ry
     Harris-Foulkes estimate   =   -2994.58404787 Ry
     estimated scf accuracy    <   14033.77300318 Ry

     iteration #  3     ecut=    36.75 Ry     beta=0.30
     Davidson diagonalization with overlap
     ethr =  1.00E-02,  avg # of iterations = 16.4

     negative rho (up, down):  1.331E+00 0.000E+00
 
     Adding external electric field

     Computed dipole along edir(3) : 
        Dipole               42.4331 Ry au,        107.8541 Debye
        Dipole field          0.0885 Ry au
 
        Potential amp.       -8.2259 Ry
        Total length         46.4675 bohr
 

     total cpu time spent up to now is      230.2 secs

     total energy              =   -1885.68352251 Ry
     Harris-Foulkes estimate   =   -2225.30620418 Ry
     estimated scf accuracy    <    2081.78729896 Ry

     iteration #  4     ecut=    36.75 Ry     beta=0.30
     Davidson diagonalization with overlap
     ethr =  1.00E-02,  avg # of iterations = 12.0

     negative rho (up, down):  1.331E+00 0.000E+00
 
     Adding external electric field

     Computed dipole along edir(3) : 
        Dipole               34.3383 Ry au,         87.2793 Debye
        Dipole field          0.0716 Ry au
 
        Potential amp.       -6.6567 Ry
        Total length         46.4675 bohr
 

     total cpu time spent up to now is      287.0 secs

     total energy              =   -1968.91633934 Ry
     Harris-Foulkes estimate   =   -2012.68769890 Ry
     estimated scf accuracy    <     178.58020498 Ry

     iteration #  5     ecut=    36.75 Ry     beta=0.30
     Davidson diagonalization with overlap
     ethr =  1.00E-02,  avg # of iterations =  9.5

     negative rho (up, down):  1.354E+00 0.000E+00
 
     Adding external electric field

     Computed dipole along edir(3) : 
        Dipole               30.7423 Ry au,         78.1392 Debye
        Dipole field          0.0641 Ry au
 
        Potential amp.       -5.9596 Ry
        Total length         46.4675 bohr
 

     total cpu time spent up to now is      330.3 secs

     total energy              =   -1955.71774840 Ry
     Harris-Foulkes estimate   =   -1992.39639251 Ry
     estimated scf accuracy    <     432.06925497 Ry

     iteration #  6     ecut=    36.75 Ry     beta=0.30
     Davidson diagonalization with overlap
     ethr =  1.00E-02,  avg # of iterations =  7.5

     negative rho (up, down):  1.361E+00 0.000E+00
 
     Adding external electric field

     Computed dipole along edir(3) : 
        Dipole               26.8981 Ry au,         68.3681 Debye
        Dipole field          0.0561 Ry au
 
        Potential amp.       -5.2144 Ry
        Total length         46.4675 bohr
 

     total cpu time spent up to now is      369.5 secs

     total energy              =   -1961.37629383 Ry
     Harris-Foulkes estimate   =   -1970.04530431 Ry
     estimated scf accuracy    <      68.34339925 Ry

     iteration #  7     ecut=    36.75 Ry     beta=0.30
     Davidson diagonalization with overlap
     ethr =  1.00E-02,  avg # of iterations =  2.5

     negative rho (up, down):  1.371E+00 0.000E+00
 
     Adding external electric field

     Computed dipole along edir(3) : 
        Dipole               23.0917 Ry au,         58.6932 Debye
        Dipole field          0.0482 Ry au
 
        Potential amp.       -4.4765 Ry
        Total length         46.4675 bohr
 

     total cpu time spent up to now is      401.1 secs

     total energy              =   -1956.95741426 Ry
     Harris-Foulkes estimate   =   -1963.29155229 Ry
     estimated scf accuracy    <      37.83472722 Ry

     iteration #  8     ecut=    36.75 Ry     beta=0.30
     Davidson diagonalization with overlap
     ethr =  1.00E-02,  avg # of iterations =  1.1

     negative rho (up, down):  1.406E+00 0.000E+00
 
     Adding external electric field

     Computed dipole along edir(3) : 
        Dipole               10.8828 Ry au,         27.6613 Debye
        Dipole field          0.0227 Ry au
 
        Potential amp.       -2.1097 Ry
        Total length         46.4675 bohr
 

     total cpu time spent up to now is      431.9 secs

     total energy              =   -1945.37450998 Ry
     Harris-Foulkes estimate   =   -1958.15214226 Ry
     estimated scf accuracy    <      27.44305894 Ry

     iteration #  9     ecut=    36.75 Ry     beta=0.30
     Davidson diagonalization with overlap
     ethr =  1.00E-02,  avg # of iterations =  5.3

     negative rho (up, down):  1.391E+00 0.000E+00
 
     Adding external electric field

     Computed dipole along edir(3) : 
        Dipole               12.3842 Ry au,         31.4775 Debye
        Dipole field          0.0258 Ry au
 
        Potential amp.       -2.4008 Ry
        Total length         46.4675 bohr
 

     total cpu time spent up to now is      469.2 secs

     total energy              =   -1948.99582644 Ry
     Harris-Foulkes estimate   =   -1951.54581468 Ry
     estimated scf accuracy    <     146.95667890 Ry

     iteration # 10     ecut=    36.75 Ry     beta=0.30
     Davidson diagonalization with overlap
     ethr =  1.00E-02,  avg # of iterations =  2.0

     negative rho (up, down):  1.390E+00 0.000E+00
 
     Adding external electric field

     Computed dipole along edir(3) : 
        Dipole               12.1071 Ry au,         30.7732 Debye
        Dipole field          0.0253 Ry au
 
        Potential amp.       -2.3470 Ry
        Total length         46.4675 bohr
 

     total cpu time spent up to now is      500.4 secs

     total energy              =   -1949.33106824 Ry
     Harris-Foulkes estimate   =   -1949.84400923 Ry
     estimated scf accuracy    <      50.38101643 Ry

     iteration # 11     ecut=    36.75 Ry     beta=0.30
     Davidson diagonalization with overlap
     ethr =  1.00E-02,  avg # of iterations =  1.0

     negative rho (up, down):  1.497E+00 0.000E+00
 
     Adding external electric field

     Computed dipole along edir(3) : 
        Dipole                5.3958 Ry au,         13.7148 Debye
        Dipole field          0.0113 Ry au
 
        Potential amp.       -1.0460 Ry
        Total length         46.4675 bohr
 

     total cpu time spent up to now is      531.2 secs

     total energy              =   -1947.19505559 Ry
     Harris-Foulkes estimate   =   -1949.64742103 Ry
     estimated scf accuracy    <      36.88674456 Ry

     iteration # 12     ecut=    36.75 Ry     beta=0.30
     Davidson diagonalization with overlap
     ethr =  1.00E-02,  avg # of iterations =  3.2

     negative rho (up, down):  1.782E+00 0.000E+00
 
     Adding external electric field

     Computed dipole along edir(3) : 
        Dipole               -0.0912 Ry au,         -0.2319 Debye
        Dipole field         -0.0002 Ry au
 
        Potential amp.        0.0177 Ry
        Total length         46.4675 bohr
 

     total cpu time spent up to now is      564.5 secs

     total energy              =   -1953.70458917 Ry
     Harris-Foulkes estimate   =   -1949.63606382 Ry
     estimated scf accuracy    <      94.23473160 Ry

     iteration # 13     ecut=    36.75 Ry     beta=0.30
     Davidson diagonalization with overlap
     ethr =  1.00E-02,  avg # of iterations =  9.8

     negative rho (up, down):  1.380E+00 0.000E+00
 
     Adding external electric field

     Computed dipole along edir(3) : 
        Dipole                9.6477 Ry au,         24.5220 Debye
        Dipole field          0.0201 Ry au
 
        Potential amp.       -1.8703 Ry
        Total length         46.4675 bohr
 

     total cpu time spent up to now is      605.1 secs

     total energy              =   -1901.48399407 Ry
     Harris-Foulkes estimate   =   -1959.97417655 Ry
     estimated scf accuracy    <     774.59625922 Ry

     iteration # 14     ecut=    36.75 Ry     beta=0.30
     Davidson diagonalization with overlap
     ethr =  1.00E-02,  avg # of iterations =  8.4

     negative rho (up, down):  1.382E+00 0.000E+00
 
     Adding external electric field

     Computed dipole along edir(3) : 
        Dipole                7.1415 Ry au,         18.1520 Debye
        Dipole field          0.0149 Ry au
 
        Potential amp.       -1.3844 Ry
        Total length         46.4675 bohr
 

     total cpu time spent up to now is      646.6 secs

     total energy              =   -1947.82430513 Ry
     Harris-Foulkes estimate   =   -1949.37103227 Ry
     estimated scf accuracy    <      11.16821375 Ry

     iteration # 15     ecut=    36.75 Ry     beta=0.30
     Davidson diagonalization with overlap
     ethr =  7.50E-03,  avg # of iterations =  1.6

     negative rho (up, down):  1.380E+00 0.000E+00
 
     Adding external electric field

     Computed dipole along edir(3) : 
        Dipole                5.9850 Ry au,         15.2123 Debye
        Dipole field          0.0125 Ry au
 
        Potential amp.       -1.1602 Ry
        Total length         46.4675 bohr
 

     total cpu time spent up to now is      679.6 secs

     total energy              =   -1948.10395182 Ry
     Harris-Foulkes estimate   =   -1948.13247465 Ry
     estimated scf accuracy    <       5.62347371 Ry

     iteration # 16     ecut=    36.75 Ry     beta=0.30
     Davidson diagonalization with overlap
     ethr =  3.77E-03,  avg # of iterations =  6.2

     negative rho (up, down):  1.381E+00 0.000E+00
 
     Adding external electric field

     Computed dipole along edir(3) : 
        Dipole                5.4061 Ry au,         13.7408 Debye
        Dipole field          0.0113 Ry au
 
        Potential amp.       -1.0480 Ry
        Total length         46.4675 bohr
 

     total cpu time spent up to now is      713.6 secs

     total energy              =   -1948.08065985 Ry
     Harris-Foulkes estimate   =   -1948.47781376 Ry
     estimated scf accuracy    <      13.56631826 Ry

     iteration # 17     ecut=    36.75 Ry     beta=0.30
     Davidson diagonalization with overlap
     ethr =  3.77E-03,  avg # of iterations =  1.9

     negative rho (up, down):  1.381E+00 0.000E+00
 
     Adding external electric field

     Computed dipole along edir(3) : 
        Dipole                4.9925 Ry au,         12.6896 Debye
        Dipole field          0.0104 Ry au
 
        Potential amp.       -0.9678 Ry
        Total length         46.4675 bohr
 

     total cpu time spent up to now is      747.3 secs

     total energy              =   -1947.92091789 Ry
     Harris-Foulkes estimate   =   -1948.17008119 Ry
     estimated scf accuracy    <       8.87292588 Ry

     iteration # 18     ecut=    36.75 Ry     beta=0.30
     Davidson diagonalization with overlap
     ethr =  3.77E-03,  avg # of iterations =  1.4

     negative rho (up, down):  1.382E+00 0.000E+00
 
     Adding external electric field

     Computed dipole along edir(3) : 
        Dipole                4.2847 Ry au,         10.8906 Debye
        Dipole field          0.0089 Ry au
 
        Potential amp.       -0.8306 Ry
        Total length         46.4675 bohr
 

     total cpu time spent up to now is      784.3 secs

     total energy              =   -1947.71921071 Ry
     Harris-Foulkes estimate   =   -1947.98160665 Ry
     estimated scf accuracy    <       5.46388105 Ry

     iteration # 19     ecut=    36.75 Ry     beta=0.30
     Davidson diagonalization with overlap
     ethr =  3.67E-03,  avg # of iterations =  1.2

     negative rho (up, down):  1.381E+00 0.000E+00
 
     Adding external electric field

     Computed dipole along edir(3) : 
        Dipole                3.6896 Ry au,          9.3779 Debye
        Dipole field          0.0077 Ry au
 
        Potential amp.       -0.7152 Ry
        Total length         46.4675 bohr
 

     total cpu time spent up to now is      821.3 secs

     total energy              =   -1947.66820117 Ry
     Harris-Foulkes estimate   =   -1947.76577425 Ry
     estimated scf accuracy    <       2.11677291 Ry

     iteration # 20     ecut=    36.75 Ry     beta=0.30
     Davidson diagonalization with overlap
     ethr =  1.42E-03,  avg # of iterations =  1.5

     negative rho (up, down):  1.381E+00 0.000E+00
 
     Adding external electric field

     Computed dipole along edir(3) : 
        Dipole                3.4060 Ry au,          8.6573 Debye
        Dipole field          0.0071 Ry au
 
        Potential amp.       -0.6603 Ry
        Total length         46.4675 bohr
 

     total cpu time spent up to now is      858.7 secs

     total energy              =   -1947.67546456 Ry
     Harris-Foulkes estimate   =   -1947.68610421 Ry
     estimated scf accuracy    <       1.67011659 Ry

     iteration # 21     ecut=    36.75 Ry     beta=0.30
     Davidson diagonalization with overlap
     ethr =  1.12E-03,  avg # of iterations =  1.6

     negative rho (up, down):  1.381E+00 0.000E+00
 
     Adding external electric field

     Computed dipole along edir(3) : 
        Dipole                3.2254 Ry au,          8.1981 Debye
        Dipole field          0.0067 Ry au
 
        Potential amp.       -0.6253 Ry
        Total length         46.4675 bohr
 

     total cpu time spent up to now is      895.8 secs

     total energy              =   -1947.65382747 Ry
     Harris-Foulkes estimate   =   -1947.70292739 Ry
     estimated scf accuracy    <       1.70134212 Ry

     iteration # 22     ecut=    36.75 Ry     beta=0.30
     Davidson diagonalization with overlap
     ethr =  1.12E-03,  avg # of iterations =  1.5

     negative rho (up, down):  1.381E+00 0.000E+00
 
     Adding external electric field

     Computed dipole along edir(3) : 
        Dipole                3.0474 Ry au,          7.7457 Debye
        Dipole field          0.0064 Ry au
 
        Potential amp.       -0.5908 Ry
        Total length         46.4675 bohr
 

     total cpu time spent up to now is      933.0 secs

     total energy              =   -1947.60570446 Ry
     Harris-Foulkes estimate   =   -1947.66281939 Ry
     estimated scf accuracy    <       1.67812676 Ry

     iteration # 23     ecut=    36.75 Ry     beta=0.30
     Davidson diagonalization with overlap
     ethr =  1.12E-03,  avg # of iterations =  1.0

     negative rho (up, down):  1.381E+00 0.000E+00
 
     Adding external electric field

     Computed dipole along edir(3) : 
        Dipole                3.4499 Ry au,          8.7687 Debye
        Dipole field          0.0072 Ry au
 
        Potential amp.       -0.6688 Ry
        Total length         46.4675 bohr
 

     total cpu time spent up to now is      969.7 secs

     total energy              =   -1947.69677438 Ry
     Harris-Foulkes estimate   =   -1947.60411486 Ry
     estimated scf accuracy    <       1.56593889 Ry

     iteration # 24     ecut=    36.75 Ry     beta=0.30
     Davidson diagonalization with overlap
     ethr =  1.05E-03,  avg # of iterations =  1.3

     negative rho (up, down):  1.447E+00 0.000E+00
 
     Adding external electric field

     Computed dipole along edir(3) : 
        Dipole               -2.7768 Ry au,         -7.0579 Debye
        Dipole field         -0.0058 Ry au
 
        Potential amp.        0.5383 Ry
        Total length         46.4675 bohr
 

     total cpu time spent up to now is     1006.8 secs

     total energy              =   -1946.69172606 Ry
     Harris-Foulkes estimate   =   -1947.71948497 Ry
     estimated scf accuracy    <       2.31320644 Ry

     iteration # 25     ecut=    36.75 Ry     beta=0.30
     Davidson diagonalization with overlap
     ethr =  1.05E-03,  avg # of iterations =  5.4

     negative rho (up, down):  1.385E+00 0.000E+00
 
     Adding external electric field

     Computed dipole along edir(3) : 
        Dipole                0.0813 Ry au,          0.2066 Debye
        Dipole field          0.0002 Ry au
 
        Potential amp.       -0.0158 Ry
        Total length         46.4675 bohr
 

     total cpu time spent up to now is     1048.4 secs

     total energy              =   -1946.67023029 Ry
     Harris-Foulkes estimate   =   -1947.35174351 Ry
     estimated scf accuracy    <      16.73260017 Ry

     iteration # 26     ecut=    36.75 Ry     beta=0.30
     Davidson diagonalization with overlap
     ethr =  1.05E-03,  avg # of iterations =  3.8

     negative rho (up, down):  1.379E+00 0.000E+00
 
     Adding external electric field

     Computed dipole along edir(3) : 
        Dipole               -0.6045 Ry au,         -1.5364 Debye
        Dipole field         -0.0013 Ry au
 
        Potential amp.        0.1172 Ry
        Total length         46.4675 bohr
 

     total cpu time spent up to now is     1087.9 secs

     total energy              =   -1946.89390107 Ry
     Harris-Foulkes estimate   =   -1947.11189253 Ry
     estimated scf accuracy    <       1.82103508 Ry

     iteration # 27     ecut=    36.75 Ry     beta=0.30
     Davidson diagonalization with overlap
     ethr =  1.05E-03,  avg # of iterations =  4.0

     negative rho (up, down):  1.398E+00 0.000E+00
 
     Adding external electric field

     Computed dipole along edir(3) : 
        Dipole               -1.1326 Ry au,         -2.8787 Debye
        Dipole field         -0.0024 Ry au
 
        Potential amp.        0.2196 Ry
        Total length         46.4675 bohr
 

     total cpu time spent up to now is     1126.6 secs

     total energy              =   -1946.94462723 Ry
     Harris-Foulkes estimate   =   -1946.98550948 Ry
     estimated scf accuracy    <       0.22852745 Ry

     iteration # 28     ecut=    36.75 Ry     beta=0.30
     Davidson diagonalization with overlap
     ethr =  1.53E-04,  avg # of iterations =  5.1

     negative rho (up, down):  1.401E+00 0.000E+00
 
     Adding external electric field

     Computed dipole along edir(3) : 
        Dipole               -0.8867 Ry au,         -2.2538 Debye
        Dipole field         -0.0018 Ry au
 
        Potential amp.        0.1719 Ry
        Total length         46.4675 bohr
 

     total cpu time spent up to now is     1168.7 secs

     total energy              =   -1946.96394199 Ry
     Harris-Foulkes estimate   =   -1946.98748338 Ry
     estimated scf accuracy    <       0.17661205 Ry

     iteration # 29     ecut=    36.75 Ry     beta=0.30
     Davidson diagonalization with overlap
     ethr =  1.19E-04,  avg # of iterations =  2.9

     negative rho (up, down):  1.387E+00 0.000E+00
 
     Adding external electric field

     Computed dipole along edir(3) : 
        Dipole               -0.4601 Ry au,         -1.1694 Debye
        Dipole field         -0.0010 Ry au
 
        Potential amp.        0.0892 Ry
        Total length         46.4675 bohr
 

     total cpu time spent up to now is     1206.7 secs

     total energy              =   -1946.96927168 Ry
     Harris-Foulkes estimate   =   -1946.97705829 Ry
     estimated scf accuracy    <       0.05745820 Ry

     iteration # 30     ecut=    36.75 Ry     beta=0.30
     Davidson diagonalization with overlap
     ethr =  3.86E-05,  avg # of iterations =  3.6

     negative rho (up, down):  1.384E+00 0.000E+00
 
     Adding external electric field

     Computed dipole along edir(3) : 
        Dipole               -0.4380 Ry au,         -1.1132 Debye
        Dipole field         -0.0009 Ry au
 
        Potential amp.        0.0849 Ry
        Total length         46.4675 bohr
 

     total cpu time spent up to now is     1245.8 secs

     total energy              =   -1946.97352680 Ry
     Harris-Foulkes estimate   =   -1946.97504141 Ry
     estimated scf accuracy    <       0.01003654 Ry

     iteration # 31     ecut=    36.75 Ry     beta=0.30
     Davidson diagonalization with overlap
     ethr =  6.74E-06,  avg # of iterations =  4.8

     negative rho (up, down):  1.383E+00 0.000E+00
 
     Adding external electric field

     Computed dipole along edir(3) : 
        Dipole               -0.4220 Ry au,         -1.0726 Debye
        Dipole field         -0.0009 Ry au
 
        Potential amp.        0.0818 Ry
        Total length         46.4675 bohr
 

     total cpu time spent up to now is     1286.2 secs

     total energy              =   -1946.97383394 Ry
     Harris-Foulkes estimate   =   -1946.97464935 Ry
     estimated scf accuracy    <       0.00960021 Ry

     iteration # 32     ecut=    36.75 Ry     beta=0.30
     Davidson diagonalization with overlap
     ethr =  6.44E-06,  avg # of iterations =  1.7

     negative rho (up, down):  1.381E+00 0.000E+00
 
     Adding external electric field

     Computed dipole along edir(3) : 
        Dipole               -0.3694 Ry au,         -0.9389 Debye
        Dipole field         -0.0008 Ry au
 
        Potential amp.        0.0716 Ry
        Total length         46.4675 bohr
 

     total cpu time spent up to now is     1326.5 secs

     total energy              =   -1946.97413694 Ry
     Harris-Foulkes estimate   =   -1946.97431487 Ry
     estimated scf accuracy    <       0.00114076 Ry

     iteration # 33     ecut=    36.75 Ry     beta=0.30
     Davidson diagonalization with overlap
     ethr =  7.66E-07,  avg # of iterations =  5.5

     negative rho (up, down):  1.381E+00 0.000E+00
 
     Adding external electric field

     Computed dipole along edir(3) : 
        Dipole               -0.3586 Ry au,         -0.9115 Debye
        Dipole field         -0.0007 Ry au
 
        Potential amp.        0.0695 Ry
        Total length         46.4675 bohr
 

     total cpu time spent up to now is     1376.7 secs

     total energy              =   -1946.97430084 Ry
     Harris-Foulkes estimate   =   -1946.97441687 Ry
     estimated scf accuracy    <       0.00097726 Ry

     iteration # 34     ecut=    36.75 Ry     beta=0.30
     Davidson diagonalization with overlap
     ethr =  6.56E-07,  avg # of iterations =  1.9

     negative rho (up, down):  1.381E+00 0.000E+00
 
     Adding external electric field

     Computed dipole along edir(3) : 
        Dipole               -0.3504 Ry au,         -0.8906 Debye
        Dipole field         -0.0007 Ry au
 
        Potential amp.        0.0679 Ry
        Total length         46.4675 bohr
 

     total cpu time spent up to now is     1421.3 secs

     total energy              =   -1946.97427342 Ry
     Harris-Foulkes estimate   =   -1946.97434039 Ry
     estimated scf accuracy    <       0.00083248 Ry

     iteration # 35     ecut=    36.75 Ry     beta=0.30
     Davidson diagonalization with overlap
     ethr =  5.59E-07,  avg # of iterations =  3.1

     negative rho (up, down):  1.381E+00 0.000E+00
 
     Adding external electric field

     Computed dipole along edir(3) : 
        Dipole               -0.3537 Ry au,         -0.8991 Debye
        Dipole field         -0.0007 Ry au
 
        Potential amp.        0.0686 Ry
        Total length         46.4675 bohr
 

     total cpu time spent up to now is     1467.0 secs

     total energy              =   -1946.97431298 Ry
     Harris-Foulkes estimate   =   -1946.97430946 Ry
     estimated scf accuracy    <       0.00001558 Ry

     iteration # 36     ecut=    36.75 Ry     beta=0.30
     Davidson diagonalization with overlap
     ethr =  1.05E-08,  avg # of iterations =  6.7

     negative rho (up, down):  1.381E+00 0.000E+00
 
     Adding external electric field

     Computed dipole along edir(3) : 
        Dipole               -0.3537 Ry au,         -0.8989 Debye
        Dipole field         -0.0007 Ry au
 
        Potential amp.        0.0686 Ry
        Total length         46.4675 bohr
 

     total cpu time spent up to now is     1519.6 secs

     total energy              =   -1946.97431993 Ry
     Harris-Foulkes estimate   =   -1946.97432200 Ry
     estimated scf accuracy    <       0.00002236 Ry

     iteration # 37     ecut=    36.75 Ry     beta=0.30
     Davidson diagonalization with overlap
     ethr =  1.05E-08,  avg # of iterations =  2.0

     negative rho (up, down):  1.381E+00 0.000E+00

     negative rho (up, down):  1.381E+00 0.000E+00

     negative rho (up, down):  1.381E+00 0.000E+00

     negative rho (up, down):  1.381E+00 0.000E+00

     negative rho (up, down):  1.381E+00 0.000E+00

     negative rho (up, down):  1.381E+00 0.000E+00

     negative rho (up, down):  1.381E+00 0.000E+00

     negative rho (up, down):  1.381E+00 0.000E+00

     negative rho (up, down):  1.381E+00 0.000E+00

     negative rho (up, down):  1.381E+00 0.000E+00

     negative rho (up, down):  1.381E+00 0.000E+00

     negative rho (up, down):  1.381E+00 0.000E+00

     negative rho (up, down):  1.381E+00 0.000E+00

     negative rho (up, down):  1.381E+00 0.000E+00

     negative rho (up, down):  1.381E+00 0.000E+00

     negative rho (up, down):  1.381E+00 0.000E+00

     negative rho (up, down):  1.381E+00 0.000E+00

     negative rho (up, down):  1.381E+00 0.000E+00

     negative rho (up, down):  1.381E+00 0.000E+00

     negative rho (up, down):  1.381E+00 0.000E+00

     negative rho (up, down):  1.381E+00 0.000E+00

     negative rho (up, down):  1.381E+00 0.000E+00

     negative rho (up, down):  1.381E+00 0.000E+00

     negative rho (up, down):  1.381E+00 0.000E+00

     negative rho (up, down):  1.381E+00 0.000E+00

     negative rho (up, down):  1.381E+00 0.000E+00

     negative rho (up, down):  1.381E+00 0.000E+00

     negative rho (up, down):  1.381E+00 0.000E+00

     negative rho (up, down):  1.381E+00 0.000E+00

     negative rho (up, down):  1.381E+00 0.000E+00

     negative rho (up, down):  1.381E+00 0.000E+00

     negative rho (up, down):  1.381E+00 0.000E+00

     negative rho (up, down):  1.381E+00 0.000E+00

     negative rho (up, down):  1.381E+00 0.000E+00

     negative rho (up, down):  1.381E+00 0.000E+00
 
     Adding external electric field

     Computed dipole along edir(3) : 
        Dipole               -0.3408 Ry au,         -0.8663 Debye
        Dipole field         -0.0007 Ry au
 
        Potential amp.        0.0661 Ry
        Total length         46.4675 bohr
 

     total cpu time spent up to now is     1628.5 secs

     End of self-consistent calculation

          k = 0.0000 0.0000 0.0000 ( 22729 PWs)   bands (ev):

   -61.7146 -61.5974 -61.5643 -61.5640 -61.5609 -61.4869 -61.4624 -61.4619
   -61.1583 -61.1301 -61.1296 -61.0898 -30.3699 -30.3697 -30.3557 -30.3469
   -30.3378 -30.3376 -30.2477 -30.2161 -30.1618 -30.1615 -30.1438 -30.0616
   -30.0445 -30.0442 -29.9352 -29.9352 -29.9351 -29.9168 -29.9166 -29.8701
   -29.8660 -29.8360 -29.8358 -29.8071 -29.8071 -29.6920 -29.6917 -29.6206
   -29.6110 -29.6106 -29.5555 -29.5206 -29.5107 -29.5104 -29.3906 -29.3906
   -11.0160  -5.4009  -4.0311  -2.7955  -2.0510  -2.0509  -1.9632  -1.8049
    -1.8048  -1.7411  -1.4553  -1.4553  -1.4135  -0.7318  -0.6766  -0.6766
    -0.2708  -0.2707  -0.0760   0.3515   0.3516   0.7950   1.0601   1.3263
     1.4740   1.5177   1.5178   1.5739   1.6117   1.6118   1.8768   2.1690
     2.1691   2.2912   2.3456   2.3868

          k = 0.0000 0.0301 0.0000 ( 22708 PWs)   bands (ev):

   -61.7144 -61.5951 -61.5660 -61.5642 -61.5613 -61.4855 -61.4636 -61.4622
   -61.1564 -61.1314 -61.1299 -61.0902 -30.3536 -30.3519 -30.3414 -30.3250
   -30.3193 -30.3070 -30.2373 -30.1995 -30.1579 -30.1557 -30.1416 -30.0569
   -30.0504 -30.0458 -29.9561 -29.9560 -29.9388 -29.9268 -29.9176 -29.8755
   -29.8533 -29.8454 -29.8246 -29.8218 -29.8156 -29.7259 -29.6974 -29.6161
   -29.6100 -29.6090 -29.5517 -29.5375 -29.5296 -29.5054 -29.4254 -29.3985
   -11.0099  -5.2049  -3.8425  -2.5931  -2.2722  -1.9532  -1.9257  -1.8429
    -1.7038  -1.6450  -1.2804  -1.2546  -1.2012  -0.6289  -0.5685  -0.5540
    -0.2562  -0.2180  -0.0358   0.3152   0.3302   0.7361   1.0429   1.1705
     1.2996   1.3521   1.3789   1.5536   1.6474   1.6748   1.8049   1.9594
     1.9749   2.0370   2.1322   2.2230

          k = 0.0000 0.0602 0.0000 ( 22648 PWs)   bands (ev):

   -61.7141 -61.5889 -61.5718 -61.5642 -61.5617 -61.4820 -61.4674 -61.4622
   -61.1512 -61.1356 -61.1299 -61.0911 -30.3438 -30.3169 -30.2829 -30.2743
   -30.2607 -30.2189 -30.2140 -30.1611 -30.1558 -30.1433 -30.1373 -30.0660
   -30.0517 -30.0431 -30.0069 -30.0044 -29.9876 -29.9462 -29.9379 -29.9033
   -29.8781 -29.8390 -29.8231 -29.8108 -29.7943 -29.7513 -29.7078 -29.6112
   -29.6077 -29.6066 -29.5843 -29.5760 -29.5453 -29.5178 -29.4844 -29.4203
   -10.9978  -4.6498  -3.3290  -2.9512  -2.1223  -1.9849  -1.7493  -1.7168
    -1.4039  -1.3086  -1.1093  -0.8252  -0.6856  -0.3518  -0.2951  -0.2218
    -0.2075  -0.0927   0.0522   0.2960   0.3718   0.5917   0.7389   0.9466
     0.9797   0.9871   1.0412   1.2217   1.3274   1.3328   1.4634   1.6159
     1.6199   1.7052   1.8028   1.9979

          k = 0.0000-0.0903 0.0000 ( 22668 PWs)   bands (ev):

   -61.7139 -61.5813 -61.5793 -61.5642 -61.5617 -61.4793 -61.4703 -61.4622
   -61.1468 -61.1397 -61.1299 -61.0915 -30.3399 -30.2954 -30.2495 -30.2433
   -30.2049 -30.1879 -30.1716 -30.1522 -30.1364 -30.1332 -30.0928 -30.0872
   -30.0692 -30.0642 -30.0586 -30.0383 -30.0293 -29.9690 -29.9553 -29.8885
   -29.8755 -29.8722 -29.8690 -29.7890 -29.7725 -29.7104 -29.6516 -29.6450
   -29.6216 -29.6109 -29.6078 -29.6016 -29.5910 -29.5430 -29.4626 -29.4424
   -10.9918  -3.8699  -3.8067  -2.7231  -2.5291  -1.6373  -1.6233  -1.4168
    -1.2929  -1.1699  -1.0482  -0.6621  -0.3965  -0.3242  -0.0528   0.0175
     0.0862   0.1376   0.2089   0.2477   0.4929   0.5026   0.5962   0.6602
     0.6663   0.7216   0.9210   0.9591   1.0062   1.0178   1.0874   1.2294
     1.2971   1.4775   1.6152   1.9581

          k = 0.0261-0.0151 0.0000 ( 22708 PWs)   bands (ev):

   -61.7144 -61.5951 -61.5661 -61.5640 -61.5614 -61.4855 -61.4639 -61.4619
   -61.1564 -61.1313 -61.1300 -61.0902 -30.3537 -30.3519 -30.3413 -30.3250
   -30.3195 -30.3069 -30.2373 -30.1994 -30.1581 -30.1555 -30.1416 -30.0568
   -30.0506 -30.0455 -29.9561 -29.9560 -29.9387 -29.9268 -29.9175 -29.8757
   -29.8533 -29.8454 -29.8245 -29.8218 -29.8156 -29.7261 -29.6971 -29.6161
   -29.6099 -29.6091 -29.5517 -29.5376 -29.5295 -29.5055 -29.4254 -29.3985
   -11.0099  -5.2049  -3.8425  -2.5931  -2.2722  -1.9532  -1.9257  -1.8428
    -1.7039  -1.6449  -1.2804  -1.2547  -1.2012  -0.6289  -0.5685  -0.5540
    -0.2561  -0.2180  -0.0358   0.3151   0.3302   0.7361   1.0429   1.1705
     1.2996   1.3521   1.3790   1.5536   1.6474   1.6748   1.8049   1.9594
     1.9749   2.0370   2.1322   2.2230

          k = 0.0261 0.0151 0.0000 ( 22708 PWs)   bands (ev):

   -61.7144 -61.5951 -61.5659 -61.5642 -61.5613 -61.4855 -61.4635 -61.4623
   -61.1563 -61.1317 -61.1296 -61.0902 -30.3536 -30.3519 -30.3415 -30.3250
   -30.3193 -30.3070 -30.2373 -30.1995 -30.1579 -30.1557 -30.1416 -30.0569
   -30.0503 -30.0459 -29.9561 -29.9560 -29.9389 -29.9268 -29.9176 -29.8755
   -29.8532 -29.8454 -29.8247 -29.8217 -29.8156 -29.7258 -29.6974 -29.6161
   -29.6102 -29.6088 -29.5517 -29.5374 -29.5297 -29.5053 -29.4254 -29.3986
   -11.0099  -5.2049  -3.8425  -2.5931  -2.2722  -1.9532  -1.9257  -1.8429
    -1.7038  -1.6450  -1.2804  -1.2547  -1.2012  -0.6289  -0.5684  -0.5540
    -0.2561  -0.2180  -0.0358   0.3152   0.3302   0.7361   1.0429   1.1705
     1.2996   1.3521   1.3789   1.5536   1.6474   1.6748   1.8049   1.9594
     1.9748   2.0370   2.1322   2.2231

          k = 0.0261 0.0452 0.0000 ( 22675 PWs)   bands (ev):

   -61.7142 -61.5909 -61.5683 -61.5669 -61.5606 -61.4831 -61.4662 -61.4623
   -61.1528 -61.1343 -61.1300 -61.0908 -30.3458 -30.3244 -30.2975 -30.2916
   -30.2660 -30.2592 -30.2215 -30.1697 -30.1539 -30.1502 -30.1370 -30.0637
   -30.0486 -30.0441 -30.0187 -29.9863 -29.9377 -29.9372 -29.9132 -29.9100
   -29.8948 -29.8338 -29.8254 -29.8013 -29.7954 -29.7689 -29.7085 -29.6119
   -29.6081 -29.6067 -29.5933 -29.5472 -29.5190 -29.5137 -29.4862 -29.4158
   -11.0008  -4.8282  -3.4870  -2.4545  -2.4194  -2.2030  -1.8031  -1.7854
    -1.4363  -1.3020  -1.0542  -0.9814  -0.8625  -0.4425  -0.3692  -0.3229
    -0.2484  -0.1137   0.0302   0.2842   0.3283   0.6494   0.9161   0.9614
     1.0625   1.0650   1.1222   1.3197   1.4434   1.5224   1.5533   1.6828
     1.7344   1.8308   1.8935   1.9933

          k = 0.0261-0.1054 0.0000 ( 22643 PWs)   bands (ev):

   -61.7139 -61.5836 -61.5749 -61.5685 -61.5596 -61.4792 -61.4704 -61.4621
   -61.1472 -61.1387 -61.1305 -61.0914 -30.3400 -30.2844 -30.2500 -30.2250
   -30.2138 -30.1960 -30.1755 -30.1504 -30.1463 -30.1351 -30.1268 -30.0997
   -30.0840 -30.0517 -30.0428 -30.0268 -29.9991 -29.9669 -29.9439 -29.9050
   -29.8888 -29.8666 -29.8548 -29.7878 -29.7604 -29.7212 -29.7022 -29.6592
   -29.6094 -29.6056 -29.6048 -29.5923 -29.5460 -29.5377 -29.4858 -29.4458
   -10.9918  -4.1363  -3.2656  -2.8629  -2.4712  -2.1787  -1.6345  -1.5199
    -1.0769  -0.9535  -0.8696  -0.6544  -0.4385  -0.2913  -0.1499  -0.0561
    -0.0008   0.0225   0.1627   0.3685   0.4263   0.4987   0.5352   0.6585
     0.7409   0.7787   0.8507   0.9274   1.0426   1.1210   1.1692   1.2668
     1.3405   1.4096   1.6165   1.6799

          k = 0.0261-0.0753 0.0000 ( 22643 PWs)   bands (ev):

   -61.7139 -61.5836 -61.5750 -61.5685 -61.5596 -61.4791 -61.4706 -61.4620
   -61.1473 -61.1385 -61.1306 -61.0914 -30.3400 -30.2844 -30.2500 -30.2251
   -30.2138 -30.1960 -30.1755 -30.1505 -30.1462 -30.1350 -30.1268 -30.0997
   -30.0840 -30.0517 -30.0427 -30.0267 -29.9988 -29.9669 -29.9444 -29.9050
   -29.8889 -29.8666 -29.8547 -29.7879 -29.7604 -29.7212 -29.7022 -29.6590
   -29.6094 -29.6053 -29.6051 -29.5925 -29.5460 -29.5377 -29.4858 -29.4457
   -10.9918  -4.1363  -3.2656  -2.8629  -2.4712  -2.1787  -1.6345  -1.5198
    -1.0769  -0.9535  -0.8696  -0.6544  -0.4385  -0.2913  -0.1499  -0.0561
    -0.0008   0.0225   0.1627   0.3685   0.4263   0.4987   0.5352   0.6585
     0.7410   0.7787   0.8507   0.9273   1.0427   1.1210   1.1691   1.2668
     1.3405   1.4096   1.6165   1.6800

          k = 0.0261-0.0452 0.0000 ( 22675 PWs)   bands (ev):

   -61.7142 -61.5909 -61.5686 -61.5666 -61.5606 -61.4830 -61.4666 -61.4619
   -61.1528 -61.1339 -61.1304 -61.0908 -30.3458 -30.3246 -30.2975 -30.2915
   -30.2661 -30.2591 -30.2215 -30.1697 -30.1541 -30.1500 -30.1371 -30.0640
   -30.0485 -30.0439 -30.0187 -29.9859 -29.9377 -29.9372 -29.9132 -29.9102
   -29.8950 -29.8338 -29.8256 -29.8014 -29.7951 -29.7692 -29.7082 -29.6119
   -29.6078 -29.6070 -29.5932 -29.5472 -29.5190 -29.5139 -29.4861 -29.4158
   -11.0008  -4.8282  -3.4870  -2.4546  -2.4194  -2.2030  -1.8031  -1.7854
    -1.4363  -1.3020  -1.0542  -0.9814  -0.8625  -0.4425  -0.3692  -0.3229
    -0.2484  -0.1137   0.0302   0.2841   0.3283   0.6494   0.9161   0.9614
     1.0625   1.0649   1.1223   1.3196   1.4433   1.5225   1.5533   1.6828
     1.7344   1.8308   1.8935   1.9933

          k = 0.0521-0.0301 0.0000 ( 22648 PWs)   bands (ev):

   -61.7141 -61.5889 -61.5719 -61.5640 -61.5618 -61.4819 -61.4678 -61.4619
   -61.1513 -61.1355 -61.1301 -61.0911 -30.3438 -30.3171 -30.2827 -30.2744
   -30.2606 -30.2189 -30.2140 -30.1611 -30.1557 -30.1432 -30.1374 -30.0664
   -30.0515 -30.0429 -30.0070 -30.0043 -29.9876 -29.9462 -29.9377 -29.9033
   -29.8785 -29.8390 -29.8233 -29.8110 -29.7941 -29.7513 -29.7076 -29.6111
   -29.6076 -29.6068 -29.5843 -29.5759 -29.5453 -29.5178 -29.4844 -29.4203
   -10.9978  -4.6498  -3.3290  -2.9512  -2.1224  -1.9849  -1.7493  -1.7168
    -1.4039  -1.3086  -1.1093  -0.8252  -0.6856  -0.3518  -0.2951  -0.2218
    -0.2075  -0.0927   0.0522   0.2959   0.3719   0.5917   0.7389   0.9466
     0.9797   0.9870   1.0412   1.2217   1.3273   1.3328   1.4635   1.6159
     1.6199   1.7052   1.8028   1.9979

          k = 0.0521 0.0000 0.0000 ( 22675 PWs)   bands (ev):

   -61.7142 -61.5909 -61.5685 -61.5666 -61.5606 -61.4830 -61.4665 -61.4620
   -61.1528 -61.1342 -61.1301 -61.0908 -30.3458 -30.3245 -30.2974 -30.2916
   -30.2661 -30.2591 -30.2215 -30.1697 -30.1541 -30.1500 -30.1370 -30.0640
   -30.0485 -30.0440 -30.0187 -29.9860 -29.9377 -29.9372 -29.9132 -29.9101
   -29.8950 -29.8338 -29.8255 -29.8013 -29.7953 -29.7691 -29.7083 -29.6120
   -29.6081 -29.6068 -29.5932 -29.5472 -29.5190 -29.5138 -29.4862 -29.4158
   -11.0008  -4.8282  -3.4870  -2.4546  -2.4194  -2.2030  -1.8031  -1.7854
    -1.4363  -1.3020  -1.0542  -0.9814  -0.8625  -0.4425  -0.3692  -0.3229
    -0.2484  -0.1137   0.0302   0.2841   0.3283   0.6494   0.9161   0.9614
     1.0625   1.0649   1.1222   1.3197   1.4434   1.5225   1.5533   1.6828
     1.7344   1.8308   1.8935   1.9932

          k = 0.0521 0.0301 0.0000 ( 22648 PWs)   bands (ev):

   -61.7141 -61.5889 -61.5718 -61.5643 -61.5616 -61.4821 -61.4672 -61.4623
   -61.1512 -61.1360 -61.1296 -61.0911 -30.3438 -30.3169 -30.2829 -30.2742
   -30.2607 -30.2189 -30.2140 -30.1611 -30.1558 -30.1434 -30.1373 -30.0659
   -30.0518 -30.0431 -30.0068 -30.0044 -29.9876 -29.9462 -29.9380 -29.9033
   -29.8780 -29.8390 -29.8229 -29.8107 -29.7944 -29.7513 -29.7079 -29.6113
   -29.6078 -29.6064 -29.5841 -29.5763 -29.5453 -29.5177 -29.4843 -29.4203
   -10.9978  -4.6498  -3.3290  -2.9512  -2.1223  -1.9849  -1.7492  -1.7168
    -1.4039  -1.3086  -1.1093  -0.8252  -0.6856  -0.3518  -0.2951  -0.2218
    -0.2074  -0.0927   0.0522   0.2960   0.3718   0.5917   0.7389   0.9466
     0.9797   0.9871   1.0412   1.2217   1.3274   1.3329   1.4634   1.6159
     1.6199   1.7052   1.8028   1.9978

          k = 0.0521-0.1204 0.0000 ( 22643 PWs)   bands (ev):

   -61.7139 -61.5836 -61.5749 -61.5685 -61.5596 -61.4793 -61.4703 -61.4621
   -61.1471 -61.1390 -61.1303 -61.0914 -30.3400 -30.2843 -30.2500 -30.2251
   -30.2138 -30.1960 -30.1755 -30.1504 -30.1463 -30.1351 -30.1268 -30.0997
   -30.0840 -30.0518 -30.0428 -30.0268 -29.9990 -29.9669 -29.9441 -29.9050
   -29.8886 -29.8666 -29.8547 -29.7877 -29.7605 -29.7213 -29.7022 -29.6592
   -29.6095 -29.6055 -29.6048 -29.5924 -29.5460 -29.5377 -29.4857 -29.4458
   -10.9918  -4.1363  -3.2656  -2.8629  -2.4712  -2.1787  -1.6345  -1.5199
    -1.0769  -0.9535  -0.8696  -0.6544  -0.4385  -0.2913  -0.1499  -0.0561
    -0.0008   0.0225   0.1627   0.3685   0.4263   0.4987   0.5352   0.6585
     0.7409   0.7787   0.8507   0.9273   1.0427   1.1210   1.1692   1.2668
     1.3405   1.4096   1.6165   1.6799

          k = 0.0521-0.0903 0.0000 ( 22614 PWs)   bands (ev):

   -61.7138 -61.5772 -61.5769 -61.5740 -61.5586 -61.4752 -61.4747 -61.4619
   -61.1428 -61.1422 -61.1312 -61.0916 -30.3382 -30.2374 -30.2319 -30.1901
   -30.1809 -30.1770 -30.1761 -30.1747 -30.1277 -30.1225 -30.1217 -30.1201
   -30.1022 -30.0945 -30.0561 -30.0402 -29.9947 -29.9812 -29.9161 -29.9147
   -29.9136 -29.8763 -29.8674 -29.7626 -29.7362 -29.7298 -29.6824 -29.6718
   -29.6629 -29.6084 -29.6049 -29.6040 -29.5428 -29.5039 -29.4876 -29.4870
   -10.9888  -3.3878  -3.3731  -3.3178  -2.2790  -2.2558  -2.0622  -1.0431
    -0.9198  -0.8340  -0.5314  -0.4647  -0.2971  -0.2965  -0.2799  -0.1641
     0.1445   0.1887   0.2919   0.3073   0.4059   0.4510   0.4911   0.5159
     0.5443   0.6099   0.6543   0.9223   0.9582   0.9769   1.0589   1.1365
     1.2289   1.2624   1.4204   1.4365

          k = 0.0521-0.0602 0.0000 ( 22643 PWs)   bands (ev):

   -61.7139 -61.5835 -61.5750 -61.5684 -61.5597 -61.4790 -61.4710 -61.4618
   -61.1473 -61.1384 -61.1307 -61.0914 -30.3400 -30.2845 -30.2500 -30.2250
   -30.2138 -30.1960 -30.1755 -30.1505 -30.1461 -30.1350 -30.1268 -30.0997
   -30.0843 -30.0515 -30.0427 -30.0267 -29.9988 -29.9669 -29.9441 -29.9050
   -29.8892 -29.8666 -29.8550 -29.7879 -29.7604 -29.7211 -29.7021 -29.6590
   -29.6094 -29.6054 -29.6050 -29.5924 -29.5460 -29.5377 -29.4859 -29.4457
   -10.9918  -4.1363  -3.2656  -2.8629  -2.4712  -2.1787  -1.6345  -1.5198
    -1.0769  -0.9535  -0.8696  -0.6544  -0.4385  -0.2913  -0.1499  -0.0561
    -0.0008   0.0225   0.1627   0.3685   0.4263   0.4986   0.5352   0.6584
     0.7410   0.7787   0.8507   0.9273   1.0427   1.1210   1.1692   1.2668
     1.3405   1.4096   1.6165   1.6800

          k =-0.0782 0.0452 0.0000 ( 22668 PWs)   bands (ev):

   -61.7139 -61.5811 -61.5796 -61.5640 -61.5619 -61.4790 -61.4709 -61.4619
   -61.1469 -61.1395 -61.1301 -61.0915 -30.3399 -30.2956 -30.2493 -30.2435
   -30.2049 -30.1878 -30.1717 -30.1520 -30.1362 -30.1333 -30.0929 -30.0872
   -30.0694 -30.0639 -30.0584 -30.0385 -30.0291 -29.9688 -29.9550 -29.8891
   -29.8758 -29.8720 -29.8692 -29.7891 -29.7724 -29.7101 -29.6516 -29.6448
   -29.6218 -29.6107 -29.6079 -29.6017 -29.5909 -29.5430 -29.4627 -29.4423
   -10.9918  -3.8699  -3.8067  -2.7231  -2.5291  -1.6373  -1.6233  -1.4168
    -1.2929  -1.1698  -1.0483  -0.6621  -0.3965  -0.3242  -0.0528   0.0175
     0.0862   0.1376   0.2089   0.2477   0.4931   0.5026   0.5962   0.6601
     0.6663   0.7216   0.9210   0.9592   1.0062   1.0178   1.0874   1.2295
     1.2970   1.4775   1.6152   1.9590

          k =-0.0782 0.0753 0.0000 ( 22643 PWs)   bands (ev):

   -61.7139 -61.5835 -61.5750 -61.5684 -61.5597 -61.4790 -61.4709 -61.4619
   -61.1473 -61.1385 -61.1306 -61.0914 -30.3400 -30.2845 -30.2500 -30.2250
   -30.2138 -30.1960 -30.1755 -30.1505 -30.1462 -30.1350 -30.1268 -30.0997
   -30.0843 -30.0515 -30.0427 -30.0267 -29.9989 -29.9669 -29.9440 -29.9050
   -29.8891 -29.8666 -29.8550 -29.7879 -29.7604 -29.7211 -29.7021 -29.6592
   -29.6094 -29.6056 -29.6048 -29.5923 -29.5460 -29.5377 -29.4859 -29.4457
   -10.9918  -4.1363  -3.2656  -2.8629  -2.4712  -2.1787  -1.6345  -1.5198
    -1.0769  -0.9535  -0.8696  -0.6544  -0.4385  -0.2912  -0.1499  -0.0561
    -0.0008   0.0225   0.1627   0.3685   0.4263   0.4986   0.5352   0.6584
     0.7410   0.7787   0.8507   0.9273   1.0426   1.1210   1.1692   1.2668
     1.3405   1.4096   1.6165   1.6799

          k =-0.0782 0.1054 0.0000 ( 22643 PWs)   bands (ev):

   -61.7139 -61.5836 -61.5749 -61.5685 -61.5596 -61.4792 -61.4705 -61.4621
   -61.1471 -61.1390 -61.1303 -61.0914 -30.3400 -30.2843 -30.2500 -30.2251
   -30.2138 -30.1960 -30.1755 -30.1505 -30.1462 -30.1351 -30.1268 -30.0997
   -30.0840 -30.0518 -30.0428 -30.0267 -29.9988 -29.9669 -29.9444 -29.9050
   -29.8887 -29.8666 -29.8547 -29.7878 -29.7605 -29.7214 -29.7022 -29.6591
   -29.6095 -29.6054 -29.6049 -29.5924 -29.5460 -29.5377 -29.4857 -29.4458
   -10.9918  -4.1363  -3.2656  -2.8629  -2.4712  -2.1787  -1.6345  -1.5198
    -1.0769  -0.9535  -0.8696  -0.6544  -0.4385  -0.2913  -0.1499  -0.0561
    -0.0008   0.0225   0.1627   0.3685   0.4263   0.4987   0.5353   0.6585
     0.7409   0.7787   0.8507   0.9273   1.0427   1.1210   1.1692   1.2668
     1.3405   1.4096   1.6165   1.6799

          k =-0.0782-0.0452 0.0000 ( 22668 PWs)   bands (ev):

   -61.7139 -61.5814 -61.5793 -61.5643 -61.5617 -61.4794 -61.4700 -61.4623
   -61.1465 -61.1403 -61.1296 -61.0915 -30.3399 -30.2954 -30.2495 -30.2432
   -30.2049 -30.1879 -30.1716 -30.1523 -30.1364 -30.1331 -30.0928 -30.0872
   -30.0691 -30.0642 -30.0587 -30.0383 -30.0294 -29.9691 -29.9554 -29.8883
   -29.8753 -29.8722 -29.8689 -29.7887 -29.7728 -29.7106 -29.6513 -29.6455
   -29.6214 -29.6112 -29.6076 -29.6014 -29.5911 -29.5430 -29.4623 -29.4427
   -10.9918  -3.8699  -3.8067  -2.7231  -2.5291  -1.6373  -1.6233  -1.4168
    -1.2928  -1.1699  -1.0482  -0.6621  -0.3965  -0.3242  -0.0527   0.0175
     0.0863   0.1375   0.2090   0.2477   0.4930   0.5026   0.5962   0.6602
     0.6664   0.7216   0.9210   0.9591   1.0062   1.0178   1.0874   1.2294
     1.2971   1.4776   1.6152   1.9581

     the Fermi energy is     1.0387 ev

!    total energy              =   -1946.97431332 Ry
     Harris-Foulkes estimate   =   -1946.97433931 Ry
     estimated scf accuracy    <       0.00000914 Ry

     The total energy is the sum of the following terms:

     one-electron contribution =   -8554.32138366 Ry
     hartree contribution      =    4260.74205664 Ry
     xc contribution           =    -933.02844765 Ry
     ewald contribution        =    3279.74524967 Ry
     electric field correction =       0.00024232 Ry
     smearing contrib. (-TS)   =      -0.11203064 Ry

     convergence has been achieved in  37 iterations
 
 BEEF-vdW xc energy contributions
           1 :   -843.521947595620     
           2 :    783.831541318391     
           3 :   -678.112510742096     
           4 :    548.283202679145     
           5 :   -416.962115385150     
           6 :    301.118208619632     
           7 :   -209.336542035204     
           8 :    142.769826362063     
           9 :   -98.1886019376429     
          10 :    70.9404814732439     
          11 :   -56.5030685471661     
          12 :    50.5860879477136     
          13 :   -48.7395375831537     
          14 :    46.4311600406671     
          15 :   -39.9442773087731     
          16 :    27.6059708724390     
          17 :   -10.5051859508660     
          18 :   -7.91734292385649     
          19 :    23.3235728377870     
          20 :   -32.2897009930493     
          21 :    33.5767967731040     
          22 :   -28.3269692535491     
          23 :    19.2611000340330     
          24 :   -9.46933182927614     
          25 :    1.44716830361426     
          26 :    3.28115039011163     
          27 :   -4.07256530044265     
          28 :   0.964544365182178     
          29 :    5.36504139980298     
          30 :   -13.5140815069608     
          31 :   -60.7486261602680     
          32 :   -43.6592029669797     

     Forces acting on atoms (Ry/au):


     negative rho (up, down):  1.381E+00 0.000E+00
     atom    1 type  1   force =     0.00002863    0.00000011    0.02342429
     atom    2 type  1   force =    -0.00004178    0.00152532    0.02570375
     atom    3 type  1   force =     0.00130951   -0.00077434    0.02581498
     atom    4 type  1   force =    -0.00130758   -0.00073549    0.02567595
     atom    5 type  1   force =    -0.00319029    0.00188638   -0.00464958
     atom    6 type  1   force =     0.00319771    0.00185421   -0.00461654
     atom    7 type  1   force =    -0.00002554   -0.00003788   -0.01670588
     atom    8 type  1   force =     0.00001324   -0.00372127   -0.00464089
     atom    9 type  1   force =     0.04998614    0.02885433    0.05500972
     atom   10 type  1   force =    -0.04999817    0.02886329    0.05492286
     atom   11 type  1   force =     0.00000717   -0.05773617    0.05494252
     atom   12 type  1   force =     0.00000946    0.00002205   -0.03084819
     atom   13 type  2   force =     0.00001150   -0.00000054   -0.20403298

     Total force =     0.248274     Total SCF correction =     0.005458


     entering subroutine stress ...


     negative rho (up, down):  1.381E+00 0.000E+00
          total   stress  (Ry/bohr**3)                   (kbar)     P=  -30.57
  -0.00017891  -0.00000001   0.00000002        -26.32     -0.00      0.00
  -0.00000001  -0.00017891   0.00000001         -0.00    -26.32      0.00
   0.00000002   0.00000001  -0.00026564          0.00      0.00    -39.08


     BFGS Geometry Optimization

     number of scf cycles    =   1
     number of bfgs steps    =   0

     energy   new            =   -1946.9743133171 Ry

     new trust radius        =       0.2040329812 bohr
     new conv_thr            =       0.0000099958 Ry


ATOMIC_POSITIONS (crystal)
Hf1      0.166666667   0.166666667   0.396510335    0   0   0
Hf1      0.666666667   0.166666667   0.396510335    0   0   0
Hf1      0.166666667   0.666666667   0.396510335    0   0   0
Hf1      0.666666667   0.666666667   0.396510335    0   0   0
Hf1      0.833333333   0.333333333   0.500000000    0   0   0
Hf1      0.333333333   0.333333333   0.500000000    0   0   0
Hf1      0.833333333   0.833333333   0.500000000    0   0   0
Hf1      0.333333333   0.833333333   0.500000000    0   0   0
Hf1      0.002758547   0.002757804   0.604643902
Hf1      0.494482225   0.002758661   0.604642080
Hf1      0.002759712   0.494481763   0.604642492
Hf1      0.499999729   0.500002107   0.602842395
N1       0.166667645   0.166666615   0.662610561



     Writing output data file calc.save
     Check: negative starting charge=   -1.301381
     NEW-OLD atomic charge density approx. for the potential

     Check: negative/imaginary core charge=   -0.000003    0.000000
     Check: negative starting charge=   -1.299070

     negative rho (up, down):  1.377E+00 0.000E+00
 
     Adding external electric field

     Computed dipole along edir(3) : 
        Dipole               -0.0728 Ry au,         -0.1850 Debye
        Dipole field         -0.0002 Ry au
 
        Potential amp.        0.0141 Ry
        Total length         46.4675 bohr
 

     total cpu time spent up to now is     1847.9 secs

     per-process dynamical memory:   116.0 Mb

     Self-consistent Calculation

     iteration #  1     ecut=    36.75 Ry     beta=0.30
     Davidson diagonalization with overlap
     c_bands:  1 eigenvalues not converged
     c_bands:  1 eigenvalues not converged
     ethr =  1.00E-06,  avg # of iterations = 16.6

     negative rho (up, down):  1.377E+00 0.000E+00
 
     Adding external electric field

     Computed dipole along edir(3) : 
        Dipole               -5.6712 Ry au,        -14.4147 Debye
        Dipole field         -0.0118 Ry au
 
        Potential amp.        1.0994 Ry
        Total length         46.4675 bohr
 

     total cpu time spent up to now is     1916.5 secs

     total energy              =   -1945.73797014 Ry
     Harris-Foulkes estimate   =   -1947.01064282 Ry
     estimated scf accuracy    <       2.66286429 Ry

     iteration #  2     ecut=    36.75 Ry     beta=0.30
     Davidson diagonalization with overlap
     ethr =  1.79E-03,  avg # of iterations =  9.6

     negative rho (up, down):  1.377E+00 0.000E+00
 
     Adding external electric field

     Computed dipole along edir(3) : 
        Dipole               -0.4261 Ry au,         -1.0830 Debye
        Dipole field         -0.0009 Ry au
 
        Potential amp.        0.0826 Ry
        Total length         46.4675 bohr
 

     total cpu time spent up to now is     1966.4 secs

     total energy              =   -1940.14723565 Ry
     Harris-Foulkes estimate   =   -1959.73500690 Ry
     estimated scf accuracy    <     533.75578946 Ry

     iteration #  3     ecut=    36.75 Ry     beta=0.30
     Davidson diagonalization with overlap
     ethr =  1.79E-03,  avg # of iterations =  7.2

     negative rho (up, down):  1.377E+00 0.000E+00
 
     Adding external electric field

     Computed dipole along edir(3) : 
        Dipole               -0.2645 Ry au,         -0.6722 Debye
        Dipole field         -0.0006 Ry au
 
        Potential amp.        0.0513 Ry
        Total length         46.4675 bohr
 

     total cpu time spent up to now is     2014.3 secs

     total energy              =   -1946.75643185 Ry
     Harris-Foulkes estimate   =   -1947.40298094 Ry
     estimated scf accuracy    <       8.31598872 Ry

     iteration #  4     ecut=    36.75 Ry     beta=0.30
     Davidson diagonalization with overlap
     ethr =  1.79E-03,  avg # of iterations =  3.1

     negative rho (up, down):  1.377E+00 0.000E+00
 
     Adding external electric field

     Computed dipole along edir(3) : 
        Dipole               -0.2260 Ry au,         -0.5743 Debye
        Dipole field         -0.0005 Ry au
 
        Potential amp.        0.0438 Ry
        Total length         46.4675 bohr
 

     total cpu time spent up to now is     2053.2 secs

     total energy              =   -1947.01214272 Ry
     Harris-Foulkes estimate   =   -1947.03505415 Ry
     estimated scf accuracy    <       0.97259894 Ry

     iteration #  5     ecut=    36.75 Ry     beta=0.30
     Davidson diagonalization with overlap
     ethr =  6.53E-04,  avg # of iterations =  2.8

     negative rho (up, down):  1.378E+00 0.000E+00
 
     Adding external electric field

     Computed dipole along edir(3) : 
        Dipole               -0.2002 Ry au,         -0.5088 Debye
        Dipole field         -0.0004 Ry au
 
        Potential amp.        0.0388 Ry
        Total length         46.4675 bohr
 

     total cpu time spent up to now is     2091.0 secs

     total energy              =   -1947.02231317 Ry
     Harris-Foulkes estimate   =   -1947.02710336 Ry
     estimated scf accuracy    <       0.13288083 Ry

     iteration #  6     ecut=    36.75 Ry     beta=0.30
     Davidson diagonalization with overlap
     ethr =  8.92E-05,  avg # of iterations =  6.2

     negative rho (up, down):  1.378E+00 0.000E+00
 
     Adding external electric field

     Computed dipole along edir(3) : 
        Dipole               -0.2089 Ry au,         -0.5311 Debye
        Dipole field         -0.0004 Ry au
 
        Potential amp.        0.0405 Ry
        Total length         46.4675 bohr
 

     total cpu time spent up to now is     2132.8 secs

     total energy              =   -1947.03358465 Ry
     Harris-Foulkes estimate   =   -1947.03432216 Ry
     estimated scf accuracy    <       0.01027950 Ry

     iteration #  7     ecut=    36.75 Ry     beta=0.30
     Davidson diagonalization with overlap
     ethr =  6.90E-06,  avg # of iterations =  5.5

     negative rho (up, down):  1.378E+00 0.000E+00
 
     Adding external electric field

     Computed dipole along edir(3) : 
        Dipole               -0.2396 Ry au,         -0.6090 Debye
        Dipole field         -0.0005 Ry au
 
        Potential amp.        0.0464 Ry
        Total length         46.4675 bohr
 

     total cpu time spent up to now is     2172.2 secs

     total energy              =   -1947.03293370 Ry
     Harris-Foulkes estimate   =   -1947.03431136 Ry
     estimated scf accuracy    <       0.01874348 Ry

     iteration #  8     ecut=    36.75 Ry     beta=0.30
     Davidson diagonalization with overlap
     ethr =  6.90E-06,  avg # of iterations =  4.0

     negative rho (up, down):  1.378E+00 0.000E+00
 
     Adding external electric field

     Computed dipole along edir(3) : 
        Dipole               -0.2512 Ry au,         -0.6385 Debye
        Dipole field         -0.0005 Ry au
 
        Potential amp.        0.0487 Ry
        Total length         46.4675 bohr
 

     total cpu time spent up to now is     2211.2 secs

     total energy              =   -1947.03379296 Ry
     Harris-Foulkes estimate   =   -1947.03396523 Ry
     estimated scf accuracy    <       0.00515661 Ry

     iteration #  9     ecut=    36.75 Ry     beta=0.30
     Davidson diagonalization with overlap
     ethr =  3.46E-06,  avg # of iterations =  1.2

     negative rho (up, down):  1.378E+00 0.000E+00
 
     Adding external electric field

     Computed dipole along edir(3) : 
        Dipole               -0.2630 Ry au,         -0.6684 Debye
        Dipole field         -0.0005 Ry au
 
        Potential amp.        0.0510 Ry
        Total length         46.4675 bohr
 

     total cpu time spent up to now is     2248.3 secs

     total energy              =   -1947.03381910 Ry
     Harris-Foulkes estimate   =   -1947.03386807 Ry
     estimated scf accuracy    <       0.00123167 Ry

     iteration # 10     ecut=    36.75 Ry     beta=0.30
     Davidson diagonalization with overlap
     ethr =  8.27E-07,  avg # of iterations =  3.5

     negative rho (up, down):  1.378E+00 0.000E+00
 
     Adding external electric field

     Computed dipole along edir(3) : 
        Dipole               -0.2678 Ry au,         -0.6808 Debye
        Dipole field         -0.0006 Ry au
 
        Potential amp.        0.0519 Ry
        Total length         46.4675 bohr
 

     total cpu time spent up to now is     2287.4 secs

     total energy              =   -1947.03388534 Ry
     Harris-Foulkes estimate   =   -1947.03389920 Ry
     estimated scf accuracy    <       0.00041174 Ry

     iteration # 11     ecut=    36.75 Ry     beta=0.30
     Davidson diagonalization with overlap
     ethr =  2.76E-07,  avg # of iterations =  1.9

     negative rho (up, down):  1.379E+00 0.000E+00
 
     Adding external electric field

     Computed dipole along edir(3) : 
        Dipole               -0.2698 Ry au,         -0.6857 Debye
        Dipole field         -0.0006 Ry au
 
        Potential amp.        0.0523 Ry
        Total length         46.4675 bohr
 

     total cpu time spent up to now is     2324.9 secs

     total energy              =   -1947.03387741 Ry
     Harris-Foulkes estimate   =   -1947.03389463 Ry
     estimated scf accuracy    <       0.00020951 Ry

     iteration # 12     ecut=    36.75 Ry     beta=0.30
     Davidson diagonalization with overlap
     ethr =  1.41E-07,  avg # of iterations =  3.8

     negative rho (up, down):  1.379E+00 0.000E+00
 
     Adding external electric field

     Computed dipole along edir(3) : 
        Dipole               -0.2710 Ry au,         -0.6887 Debye
        Dipole field         -0.0006 Ry au
 
        Potential amp.        0.0525 Ry
        Total length         46.4675 bohr
 

     total cpu time spent up to now is     2363.8 secs

     total energy              =   -1947.03389078 Ry
     Harris-Foulkes estimate   =   -1947.03389139 Ry
     estimated scf accuracy    <       0.00001280 Ry

     iteration # 13     ecut=    36.75 Ry     beta=0.30
     Davidson diagonalization with overlap
     ethr =  8.59E-09,  avg # of iterations =  5.8

     negative rho (up, down):  1.379E+00 0.000E+00

     negative rho (up, down):  1.379E+00 0.000E+00

     negative rho (up, down):  1.379E+00 0.000E+00

     negative rho (up, down):  1.379E+00 0.000E+00

     negative rho (up, down):  1.379E+00 0.000E+00

     negative rho (up, down):  1.379E+00 0.000E+00

     negative rho (up, down):  1.379E+00 0.000E+00

     negative rho (up, down):  1.379E+00 0.000E+00

     negative rho (up, down):  1.379E+00 0.000E+00

     negative rho (up, down):  1.379E+00 0.000E+00

     negative rho (up, down):  1.379E+00 0.000E+00

     negative rho (up, down):  1.379E+00 0.000E+00

     negative rho (up, down):  1.379E+00 0.000E+00

     negative rho (up, down):  1.379E+00 0.000E+00

     negative rho (up, down):  1.379E+00 0.000E+00

     negative rho (up, down):  1.379E+00 0.000E+00

     negative rho (up, down):  1.379E+00 0.000E+00

     negative rho (up, down):  1.379E+00 0.000E+00

     negative rho (up, down):  1.379E+00 0.000E+00

     negative rho (up, down):  1.379E+00 0.000E+00

     negative rho (up, down):  1.379E+00 0.000E+00

     negative rho (up, down):  1.379E+00 0.000E+00

     negative rho (up, down):  1.379E+00 0.000E+00

     negative rho (up, down):  1.379E+00 0.000E+00

     negative rho (up, down):  1.379E+00 0.000E+00

     negative rho (up, down):  1.379E+00 0.000E+00

     negative rho (up, down):  1.379E+00 0.000E+00

     negative rho (up, down):  1.379E+00 0.000E+00

     negative rho (up, down):  1.379E+00 0.000E+00

     negative rho (up, down):  1.379E+00 0.000E+00

     negative rho (up, down):  1.379E+00 0.000E+00

     negative rho (up, down):  1.379E+00 0.000E+00

     negative rho (up, down):  1.379E+00 0.000E+00

     negative rho (up, down):  1.379E+00 0.000E+00

     negative rho (up, down):  1.379E+00 0.000E+00
 
     Adding external electric field

     Computed dipole along edir(3) : 
        Dipole               -0.2857 Ry au,         -0.7263 Debye
        Dipole field         -0.0006 Ry au
 
        Potential amp.        0.0554 Ry
        Total length         46.4675 bohr
 

     total cpu time spent up to now is     2471.8 secs

     End of self-consistent calculation

          k = 0.0000 0.0000 0.0000 ( 22729 PWs)   bands (ev):

   -61.5959 -61.5203 -61.4877 -61.4876 -61.4817 -61.3982 -61.3729 -61.3729
   -61.0864 -61.0553 -61.0553 -61.0443 -30.2773 -30.2773 -30.2713 -30.2510
   -30.2510 -30.2459 -30.1657 -30.1421 -30.0845 -30.0845 -30.0622 -29.9813
   -29.9597 -29.9597 -29.8576 -29.8576 -29.8575 -29.8230 -29.8230 -29.7911
   -29.7772 -29.7690 -29.7690 -29.7296 -29.7295 -29.6051 -29.6051 -29.5438
   -29.5347 -29.5347 -29.5140 -29.4468 -29.4445 -29.4445 -29.3237 -29.3237
   -11.3008  -5.3074  -3.9341  -2.7161  -2.0433  -2.0432  -1.8992  -1.7750
    -1.7750  -1.6838  -1.4222  -1.4222  -1.4064  -0.6828  -0.5995  -0.5994
    -0.3281  -0.3281  -0.0254   0.4015   0.4015   0.8479   1.1324   1.4131
     1.5506   1.5969   1.5969   1.6110   1.6712   1.6712   1.9560   2.2297
     2.2297   2.3754   2.4234   2.4234

          k = 0.0000 0.0301 0.0000 ( 22708 PWs)   bands (ev):

   -61.5957 -61.5180 -61.4894 -61.4877 -61.4823 -61.3969 -61.3744 -61.3729
   -61.0841 -61.0569 -61.0553 -61.0449 -30.2595 -30.2539 -30.2442 -30.2395
   -30.2337 -30.2214 -30.1554 -30.1256 -30.0810 -30.0787 -30.0602 -29.9767
   -29.9653 -29.9607 -29.8786 -29.8785 -29.8492 -29.8439 -29.8249 -29.7860
   -29.7748 -29.7679 -29.7580 -29.7557 -29.7380 -29.6409 -29.6107 -29.5391
   -29.5342 -29.5332 -29.5087 -29.4655 -29.4638 -29.4372 -29.3588 -29.3317
   -11.2932  -5.1125  -3.7490  -2.5178  -2.2216  -1.9434  -1.9075  -1.7910
    -1.6866  -1.6066  -1.2653  -1.2330  -1.1889  -0.5821  -0.4979  -0.4744
    -0.3085  -0.2655   0.0140   0.3748   0.3906   0.7970   1.1137   1.2490
     1.3642   1.4299   1.4603   1.6177   1.7118   1.7416   1.8962   2.0280
     2.0424   2.1139   2.1933   2.3356

          k = 0.0000 0.0602 0.0000 ( 22648 PWs)   bands (ev):

   -61.5953 -61.5118 -61.4949 -61.4877 -61.4829 -61.3937 -61.3780 -61.3729
   -61.0783 -61.0619 -61.0553 -61.0458 -30.2304 -30.2183 -30.2047 -30.1916
   -30.1643 -30.1380 -30.1339 -30.0846 -30.0778 -30.0669 -30.0566 -29.9791
   -29.9662 -29.9621 -29.9289 -29.9264 -29.8979 -29.8690 -29.8503 -29.8257
   -29.7833 -29.7615 -29.7433 -29.7308 -29.7296 -29.6820 -29.6222 -29.5343
   -29.5326 -29.5310 -29.5116 -29.5112 -29.4998 -29.4531 -29.4151 -29.3541
   -11.2781  -4.5608  -3.2494  -2.8766  -2.0951  -1.9202  -1.7337  -1.6584
    -1.4317  -1.2927  -1.1047  -0.8427  -0.7304  -0.3778  -0.2614  -0.1513
    -0.1379  -0.0766   0.1129   0.3662   0.4473   0.6786   0.8106   1.0258
     1.0438   1.0713   1.1271   1.3044   1.4038   1.4129   1.5413   1.6685
     1.6761   1.8111   1.8930   2.0642

          k = 0.0000-0.0903 0.0000 ( 22668 PWs)   bands (ev):

   -61.5952 -61.5048 -61.5018 -61.4877 -61.4831 -61.3913 -61.3806 -61.3729
   -61.0721 -61.0677 -61.0553 -61.0461 -30.2248 -30.1938 -30.1725 -30.1623
   -30.1209 -30.1092 -30.0780 -30.0677 -30.0603 -30.0493 -30.0136 -30.0080
   -29.9881 -29.9813 -29.9737 -29.9589 -29.9483 -29.8960 -29.8698 -29.8005
   -29.7958 -29.7920 -29.7772 -29.7122 -29.7085 -29.6269 -29.5775 -29.5747
   -29.5466 -29.5459 -29.5320 -29.5267 -29.5261 -29.4985 -29.3869 -29.3825
   -11.2706  -3.7917  -3.7204  -2.6771  -2.4503  -1.6204  -1.5896  -1.3700
    -1.2508  -1.2468  -1.0293  -0.6832  -0.5358  -0.4241   0.0328   0.0928
     0.1638   0.2196   0.2876   0.3372   0.5742   0.5891   0.6869   0.7309
     0.7472   0.8082   0.9974   1.0442   1.0865   1.1059   1.1390   1.2804
     1.3846   1.5777   1.7438   2.0334

          k = 0.0261-0.0151 0.0000 ( 22708 PWs)   bands (ev):

   -61.5957 -61.5180 -61.4894 -61.4876 -61.4823 -61.3969 -61.3744 -61.3729
   -61.0841 -61.0569 -61.0553 -61.0449 -30.2595 -30.2539 -30.2442 -30.2395
   -30.2337 -30.2214 -30.1554 -30.1256 -30.0810 -30.0787 -30.0602 -29.9767
   -29.9653 -29.9607 -29.8786 -29.8785 -29.8491 -29.8439 -29.8249 -29.7860
   -29.7748 -29.7679 -29.7580 -29.7557 -29.7380 -29.6409 -29.6106 -29.5391
   -29.5342 -29.5332 -29.5087 -29.4655 -29.4638 -29.4372 -29.3588 -29.3317
   -11.2932  -5.1125  -3.7490  -2.5178  -2.2216  -1.9434  -1.9075  -1.7910
    -1.6867  -1.6065  -1.2653  -1.2330  -1.1889  -0.5821  -0.4979  -0.4744
    -0.3085  -0.2655   0.0140   0.3748   0.3906   0.7970   1.1137   1.2490
     1.3642   1.4299   1.4603   1.6177   1.7118   1.7416   1.8962   2.0280
     2.0424   2.1139   2.1933   2.3360

          k = 0.0261 0.0151 0.0000 ( 22708 PWs)   bands (ev):

   -61.5957 -61.5180 -61.4894 -61.4877 -61.4823 -61.3969 -61.3744 -61.3729
   -61.0841 -61.0570 -61.0553 -61.0449 -30.2595 -30.2539 -30.2442 -30.2395
   -30.2337 -30.2214 -30.1554 -30.1256 -30.0810 -30.0787 -30.0602 -29.9767
   -29.9653 -29.9607 -29.8786 -29.8785 -29.8492 -29.8439 -29.8249 -29.7860
   -29.7748 -29.7679 -29.7580 -29.7557 -29.7380 -29.6409 -29.6107 -29.5391
   -29.5342 -29.5331 -29.5087 -29.4654 -29.4638 -29.4372 -29.3588 -29.3317
   -11.2932  -5.1125  -3.7490  -2.5178  -2.2216  -1.9434  -1.9075  -1.7910
    -1.6867  -1.6065  -1.2653  -1.2330  -1.1889  -0.5821  -0.4979  -0.4744
    -0.3085  -0.2655   0.0140   0.3748   0.3906   0.7969   1.1137   1.2490
     1.3642   1.4299   1.4603   1.6177   1.7118   1.7416   1.8962   2.0280
     2.0424   2.1139   2.1934   2.3351

          k = 0.0261 0.0452 0.0000 ( 22675 PWs)   bands (ev):

   -61.5954 -61.5138 -61.4919 -61.4894 -61.4822 -61.3946 -61.3771 -61.3729
   -61.0801 -61.0596 -61.0562 -61.0454 -30.2332 -30.2313 -30.2118 -30.1987
   -30.1877 -30.1721 -30.1409 -30.0943 -30.0776 -30.0726 -30.0568 -29.9767
   -29.9658 -29.9633 -29.9403 -29.8930 -29.8603 -29.8596 -29.8357 -29.8219
   -29.8003 -29.7562 -29.7507 -29.7290 -29.7264 -29.6909 -29.6224 -29.5350
   -29.5328 -29.5312 -29.5240 -29.5032 -29.4475 -29.4466 -29.4215 -29.3491
   -11.2819  -4.7380  -3.4014  -2.4067  -2.3445  -2.1331  -1.7931  -1.7841
    -1.4449  -1.2622  -1.0683  -0.9647  -0.8784  -0.4029  -0.3496  -0.2445
    -0.2397  -0.1277   0.0827   0.3601   0.3977   0.7252   0.9881   1.0286
     1.1312   1.1517   1.2086   1.4010   1.5070   1.6043   1.6383   1.7528
     1.7886   1.9216   1.9826   2.0794

          k = 0.0261-0.1054 0.0000 ( 22643 PWs)   bands (ev):

   -61.5952 -61.5066 -61.4979 -61.4911 -61.4816 -61.3912 -61.3809 -61.3728
   -61.0734 -61.0649 -61.0575 -61.0455 -30.2250 -30.1852 -30.1684 -30.1410
   -30.1255 -30.1133 -30.0917 -30.0727 -30.0680 -30.0574 -30.0467 -30.0218
   -29.9973 -29.9662 -29.9569 -29.9465 -29.9205 -29.8893 -29.8609 -29.8275
   -29.7944 -29.7890 -29.7668 -29.7161 -29.6887 -29.6444 -29.6280 -29.5901
   -29.5328 -29.5301 -29.5294 -29.5240 -29.4997 -29.4737 -29.4164 -29.3802
   -11.2706  -4.0513  -3.1906  -2.7948  -2.4059  -2.1320  -1.6334  -1.4809
    -1.1595  -0.9567  -0.8630  -0.6797  -0.4910  -0.3548  -0.0899   0.0160
     0.0814   0.0936   0.2419   0.4415   0.5077   0.5737   0.6085   0.7341
     0.8177   0.8541   0.9394   1.0167   1.1108   1.2147   1.2527   1.3466
     1.4143   1.5206   1.7218   1.7588

          k = 0.0261-0.0753 0.0000 ( 22643 PWs)   bands (ev):

   -61.5952 -61.5066 -61.4980 -61.4911 -61.4816 -61.3912 -61.3809 -61.3728
   -61.0734 -61.0649 -61.0575 -61.0455 -30.2250 -30.1852 -30.1684 -30.1410
   -30.1255 -30.1133 -30.0917 -30.0727 -30.0680 -30.0574 -30.0467 -30.0218
   -29.9973 -29.9662 -29.9569 -29.9465 -29.9205 -29.8893 -29.8609 -29.8275
   -29.7944 -29.7890 -29.7668 -29.7161 -29.6887 -29.6444 -29.6280 -29.5901
   -29.5328 -29.5301 -29.5294 -29.5240 -29.4997 -29.4737 -29.4164 -29.3802
   -11.2706  -4.0513  -3.1906  -2.7948  -2.4059  -2.1320  -1.6334  -1.4809
    -1.1595  -0.9567  -0.8630  -0.6797  -0.4910  -0.3548  -0.0899   0.0160
     0.0814   0.0936   0.2419   0.4415   0.5077   0.5737   0.6085   0.7341
     0.8177   0.8541   0.9394   1.0167   1.1107   1.2147   1.2527   1.3466
     1.4143   1.5206   1.7218   1.7588

          k = 0.0261-0.0452 0.0000 ( 22675 PWs)   bands (ev):

   -61.5954 -61.5138 -61.4920 -61.4893 -61.4822 -61.3946 -61.3771 -61.3729
   -61.0801 -61.0595 -61.0563 -61.0454 -30.2332 -30.2313 -30.2118 -30.1986
   -30.1877 -30.1721 -30.1409 -30.0943 -30.0776 -30.0725 -30.0568 -29.9767
   -29.9658 -29.9633 -29.9403 -29.8930 -29.8603 -29.8596 -29.8357 -29.8219
   -29.8003 -29.7562 -29.7507 -29.7290 -29.7264 -29.6909 -29.6224 -29.5350
   -29.5327 -29.5312 -29.5240 -29.5032 -29.4475 -29.4466 -29.4215 -29.3491
   -11.2819  -4.7380  -3.4014  -2.4067  -2.3445  -2.1331  -1.7931  -1.7841
    -1.4449  -1.2622  -1.0683  -0.9647  -0.8785  -0.4029  -0.3496  -0.2444
    -0.2397  -0.1277   0.0827   0.3600   0.3977   0.7252   0.9881   1.0286
[...]
   -29.8547 -29.8535 -29.8341 -29.8068 -29.7770 -29.7556 -29.7334 -29.7210
   -29.6774 -29.6734 -29.6232 -29.6126 -29.5983 -29.5884 -29.5714 -29.5618
   -29.4847 -29.4292 -29.3912 -29.3755 -29.3585 -29.3307 -29.2846 -29.2602
   -29.2270 -29.2184 -29.1984 -29.1932 -29.1792 -29.1572 -29.1185 -29.0696
   -12.2343  -3.9039  -3.2217  -2.7797  -2.5318  -2.2639  -2.0201  -1.8179
    -1.4198  -1.0134  -0.8338  -0.6235  -0.3557  -0.2939   0.1032   0.1795
     0.2564   0.3250   0.4655   0.5931   0.6699   0.8017   0.8199   0.9479
     1.0380   1.0772   1.1319   1.2202   1.3249   1.4466   1.5011   1.5697
     1.6886   1.8263   1.9779   2.0262

          k = 0.0261-0.0452 0.0000 ( 22675 PWs)   bands (ev):

   -61.2974 -61.2750 -61.2732 -61.2675 -61.0804 -60.9340 -60.9149 -60.9105
   -60.8102 -60.7451 -60.7304 -60.7263 -30.0062 -29.9722 -29.9706 -29.9300
   -29.8597 -29.8573 -29.8445 -29.8054 -29.7787 -29.7742 -29.7580 -29.7269
   -29.6522 -29.6457 -29.6390 -29.6123 -29.6070 -29.6046 -29.5389 -29.4962
   -29.4323 -29.4197 -29.3971 -29.3931 -29.3727 -29.3456 -29.2454 -29.2298
   -29.2220 -29.2015 -29.1975 -29.1805 -29.1494 -29.1450 -29.1064 -29.0429
   -12.2645  -4.5289  -3.2537  -2.7511  -2.5965  -2.2089  -2.0299  -1.8827
    -1.6816  -1.1208  -1.0433  -0.9936  -0.7580  -0.2834  -0.2311  -0.0769
    -0.0381  -0.0011   0.3654   0.5469   0.5600   0.8419   1.1735   1.2766
     1.3268   1.3665   1.4062   1.5750   1.7352   1.8140   1.9049   1.9656
     2.0632   2.1681   2.2226   2.3961

          k = 0.0521-0.0301 0.0000 ( 22648 PWs)   bands (ev):

   -61.2954 -61.2784 -61.2704 -61.2689 -61.0803 -60.9330 -60.9160 -60.9105
   -60.8099 -60.7445 -60.7312 -60.7264 -29.9844 -29.9841 -29.9265 -29.9224
   -29.8659 -29.8471 -29.8456 -29.7890 -29.7812 -29.7734 -29.7219 -29.7141
   -29.7108 -29.6602 -29.6290 -29.6082 -29.6061 -29.6004 -29.5443 -29.5022
   -29.4654 -29.4031 -29.4001 -29.3843 -29.3670 -29.3608 -29.2437 -29.2378
   -29.2179 -29.2016 -29.1954 -29.1949 -29.1823 -29.1358 -29.1162 -29.0459
   -12.2544  -4.3629  -3.2243  -2.7937  -2.5170  -2.3260  -2.0871  -1.6389
    -1.3610  -1.3006  -1.1429  -0.7826  -0.6871  -0.3359  -0.0491  -0.0163
     0.0575   0.1013   0.3710   0.5618   0.6183   0.8258   1.0348   1.1919
     1.2440   1.2910   1.3376   1.5079   1.5497   1.6665   1.8060   1.8866
     1.9278   2.0746   2.1801   2.3290

          k = 0.0521 0.0000 0.0000 ( 22675 PWs)   bands (ev):

   -61.2974 -61.2750 -61.2732 -61.2675 -61.0804 -60.9339 -60.9151 -60.9102
   -60.8102 -60.7451 -60.7305 -60.7262 -30.0062 -29.9722 -29.9706 -29.9300
   -29.8597 -29.8573 -29.8445 -29.8054 -29.7787 -29.7742 -29.7580 -29.7269
   -29.6522 -29.6457 -29.6391 -29.6123 -29.6070 -29.6046 -29.5389 -29.4960
   -29.4323 -29.4198 -29.3972 -29.3931 -29.3727 -29.3456 -29.2453 -29.2298
   -29.2220 -29.2014 -29.1975 -29.1805 -29.1494 -29.1451 -29.1064 -29.0429
   -12.2645  -4.5289  -3.2536  -2.7512  -2.5963  -2.2091  -2.0299  -1.8828
    -1.6816  -1.1207  -1.0433  -0.9936  -0.7580  -0.2832  -0.2311  -0.0769
    -0.0379  -0.0013   0.3652   0.5469   0.5600   0.8418   1.1735   1.2767
     1.3268   1.3664   1.4062   1.5750   1.7352   1.8140   1.9052   1.9655
     2.0631   2.1678   2.2225   2.3962

          k = 0.0521 0.0301 0.0000 ( 22648 PWs)   bands (ev):

   -61.2954 -61.2784 -61.2703 -61.2689 -61.0803 -60.9329 -60.9163 -60.9102
   -60.8099 -60.7445 -60.7313 -60.7263 -29.9844 -29.9841 -29.9265 -29.9224
   -29.8659 -29.8470 -29.8456 -29.7891 -29.7811 -29.7733 -29.7219 -29.7141
   -29.7108 -29.6602 -29.6290 -29.6082 -29.6063 -29.6003 -29.5443 -29.5022
   -29.4653 -29.4030 -29.4002 -29.3843 -29.3673 -29.3608 -29.2435 -29.2378
   -29.2179 -29.2016 -29.1952 -29.1949 -29.1823 -29.1358 -29.1163 -29.0459
   -12.2545  -4.3629  -3.2242  -2.7937  -2.5169  -2.3261  -2.0871  -1.6389
    -1.3611  -1.3006  -1.1429  -0.7827  -0.6871  -0.3357  -0.0491  -0.0163
     0.0578   0.1012   0.3709   0.5617   0.6183   0.8259   1.0349   1.1919
     1.2440   1.2910   1.3375   1.5079   1.5497   1.6663   1.8058   1.8867
     1.9276   2.0748   2.1801   2.3289

          k = 0.0521-0.1204 0.0000 ( 22643 PWs)   bands (ev):

   -61.2901 -61.2815 -61.2751 -61.2664 -61.0800 -60.9301 -60.9195 -60.9101
   -60.8093 -60.7423 -60.7344 -60.7260 -29.9561 -29.9236 -29.9041 -29.8853
   -29.8547 -29.8535 -29.8341 -29.8068 -29.7770 -29.7557 -29.7334 -29.7209
   -29.6774 -29.6734 -29.6232 -29.6127 -29.5984 -29.5883 -29.5714 -29.5617
   -29.4847 -29.4293 -29.3912 -29.3757 -29.3585 -29.3307 -29.2845 -29.2601
   -29.2270 -29.2184 -29.1983 -29.1932 -29.1792 -29.1572 -29.1186 -29.0696
   -12.2343  -3.9038  -3.2216  -2.7798  -2.5318  -2.2638  -2.0202  -1.8180
    -1.4198  -1.0134  -0.8337  -0.6235  -0.3556  -0.2938   0.1032   0.1795
     0.2565   0.3250   0.4653   0.5930   0.6699   0.8019   0.8200   0.9479
     1.0380   1.0770   1.1319   1.2201   1.3249   1.4465   1.5009   1.5697
     1.6883   1.8265   1.9779   2.0262

          k = 0.0521-0.0903 0.0000 ( 22614 PWs)   bands (ev):

   -61.2843 -61.2817 -61.2817 -61.2653 -61.0798 -60.9277 -60.9222 -60.9100
   -60.8090 -60.7388 -60.7385 -60.7257 -29.8978 -29.8865 -29.8844 -29.8822
   -29.8803 -29.8316 -29.8298 -29.8278 -29.8226 -29.7724 -29.7095 -29.6921
   -29.6834 -29.6273 -29.6260 -29.6189 -29.6001 -29.5916 -29.5898 -29.5663
   -29.5513 -29.4034 -29.3864 -29.3739 -29.3722 -29.2995 -29.2918 -29.2854
   -29.2619 -29.2260 -29.1957 -29.1900 -29.1786 -29.1327 -29.1268 -29.1001
   -12.2242  -3.4715  -3.1503  -3.0170  -2.4964  -2.4166  -2.0502  -1.6794
    -1.3130  -1.2689  -0.3531  -0.2851  -0.2051  -0.1660  -0.0012   0.0153
     0.3748   0.4420   0.5414   0.6095   0.6345   0.7425   0.7691   0.8639
     0.8810   0.8891   0.9396   1.2277   1.2935   1.3338   1.4351   1.4905
     1.5247   1.6389   1.7410   1.8597

          k = 0.0521-0.0602 0.0000 ( 22643 PWs)   bands (ev):

   -61.2901 -61.2815 -61.2751 -61.2664 -61.0800 -60.9303 -60.9191 -60.9103
   -60.8093 -60.7424 -60.7343 -60.7261 -29.9561 -29.9236 -29.9041 -29.8853
   -29.8547 -29.8535 -29.8341 -29.8068 -29.7770 -29.7556 -29.7334 -29.7210
   -29.6774 -29.6734 -29.6232 -29.6126 -29.5983 -29.5884 -29.5714 -29.5618
   -29.4847 -29.4292 -29.3912 -29.3755 -29.3585 -29.3307 -29.2846 -29.2602
   -29.2270 -29.2184 -29.1984 -29.1932 -29.1792 -29.1572 -29.1185 -29.0696
   -12.2343  -3.9039  -3.2217  -2.7797  -2.5318  -2.2639  -2.0201  -1.8179
    -1.4198  -1.0134  -0.8338  -0.6235  -0.3557  -0.2939   0.1032   0.1795
     0.2564   0.3250   0.4655   0.5931   0.6699   0.8017   0.8199   0.9479
     1.0380   1.0772   1.1319   1.2202   1.3249   1.4466   1.5011   1.5697
     1.6886   1.8263   1.9779   2.0262

          k =-0.0782 0.0452 0.0000 ( 22668 PWs)   bands (ev):

   -61.2878 -61.2860 -61.2704 -61.2689 -61.0800 -60.9305 -60.9188 -60.9105
   -60.8093 -60.7428 -60.7336 -60.7264 -29.9525 -29.9519 -29.8966 -29.8930
   -29.8418 -29.8401 -29.8029 -29.7874 -29.7719 -29.7696 -29.7459 -29.7401
   -29.7333 -29.6597 -29.6112 -29.5939 -29.5896 -29.5766 -29.5762 -29.5564
   -29.4926 -29.4654 -29.3911 -29.3603 -29.3569 -29.3147 -29.2600 -29.2553
   -29.2429 -29.2238 -29.2155 -29.1971 -29.1906 -29.1692 -29.1008 -29.0621
   -12.2343  -3.7532  -3.5094  -2.8544  -2.4276  -2.2693  -1.9668  -1.6137
    -1.2310  -1.1641  -0.9059  -0.6051  -0.5014  -0.4915   0.2053   0.2684
     0.3300   0.4815   0.5215   0.5274   0.7329   0.7743   0.8924   0.9676
     0.9847   0.9962   1.1596   1.1783   1.2867   1.3869   1.3932   1.5611
     1.6407   1.8872   2.0070   2.2742

          k =-0.0782 0.0753 0.0000 ( 22643 PWs)   bands (ev):

   -61.2901 -61.2815 -61.2751 -61.2664 -61.0800 -60.9302 -60.9193 -60.9102
   -60.8093 -60.7424 -60.7343 -60.7260 -29.9561 -29.9236 -29.9041 -29.8853
   -29.8547 -29.8535 -29.8341 -29.8068 -29.7770 -29.7557 -29.7334 -29.7210
   -29.6774 -29.6734 -29.6232 -29.6126 -29.5984 -29.5883 -29.5714 -29.5616
   -29.4849 -29.4291 -29.3912 -29.3755 -29.3585 -29.3306 -29.2845 -29.2602
   -29.2270 -29.2184 -29.1983 -29.1932 -29.1792 -29.1572 -29.1185 -29.0696
   -12.2343  -3.9039  -3.2217  -2.7797  -2.5319  -2.2638  -2.0203  -1.8179
    -1.4198  -1.0135  -0.8336  -0.6235  -0.3556  -0.2940   0.1032   0.1795
     0.2566   0.3249   0.4655   0.5930   0.6700   0.8017   0.8198   0.9479
     1.0381   1.0771   1.1319   1.2202   1.3248   1.4465   1.5010   1.5697
     1.6886   1.8264   1.9779   2.0262

          k =-0.0782 0.1054 0.0000 ( 22643 PWs)   bands (ev):

   -61.2901 -61.2815 -61.2751 -61.2664 -61.0800 -60.9301 -60.9195 -60.9101
   -60.8093 -60.7423 -60.7344 -60.7260 -29.9561 -29.9236 -29.9041 -29.8853
   -29.8547 -29.8535 -29.8341 -29.8068 -29.7770 -29.7557 -29.7334 -29.7209
   -29.6774 -29.6734 -29.6232 -29.6127 -29.5984 -29.5883 -29.5714 -29.5617
   -29.4847 -29.4293 -29.3912 -29.3757 -29.3585 -29.3307 -29.2845 -29.2601
   -29.2270 -29.2184 -29.1983 -29.1932 -29.1792 -29.1572 -29.1186 -29.0696
   -12.2343  -3.9038  -3.2216  -2.7798  -2.5318  -2.2638  -2.0202  -1.8180
    -1.4198  -1.0134  -0.8337  -0.6235  -0.3556  -0.2938   0.1032   0.1795
     0.2565   0.3250   0.4653   0.5930   0.6699   0.8019   0.8200   0.9479
     1.0380   1.0770   1.1319   1.2201   1.3249   1.4465   1.5009   1.5697
     1.6883   1.8265   1.9779   2.0262

          k =-0.0782-0.0452 0.0000 ( 22668 PWs)   bands (ev):

   -61.2878 -61.2860 -61.2704 -61.2689 -61.0800 -60.9302 -60.9193 -60.9102
   -60.8093 -60.7427 -60.7337 -60.7263 -29.9525 -29.9519 -29.8966 -29.8930
   -29.8418 -29.8401 -29.8029 -29.7874 -29.7718 -29.7697 -29.7459 -29.7402
   -29.7332 -29.6597 -29.6115 -29.5938 -29.5895 -29.5766 -29.5762 -29.5563
   -29.4924 -29.4656 -29.3911 -29.3604 -29.3573 -29.3147 -29.2599 -29.2551
   -29.2429 -29.2237 -29.2155 -29.1970 -29.1906 -29.1693 -29.1009 -29.0620
   -12.2343  -3.7530  -3.5095  -2.8544  -2.4275  -2.2693  -1.9669  -1.6136
    -1.2310  -1.1642  -0.9059  -0.6050  -0.5013  -0.4913   0.2053   0.2684
     0.3300   0.4816   0.5213   0.5275   0.7329   0.7744   0.8926   0.9677
     0.9846   0.9963   1.1597   1.1781   1.2865   1.3867   1.3931   1.5608
     1.6402   1.8877   2.0070   2.2742

     the Fermi energy is     1.3346 ev

!    total energy              =   -1947.16397147 Ry
     Harris-Foulkes estimate   =   -1947.16397149 Ry
     estimated scf accuracy    <       0.00000009 Ry

     The total energy is the sum of the following terms:

     one-electron contribution =   -8785.23192857 Ry
     hartree contribution      =    4377.90144175 Ry
     xc contribution           =    -933.65216327 Ry
     ewald contribution        =    3393.92452568 Ry
     electric field correction =       0.00000223 Ry
     smearing contrib. (-TS)   =      -0.10584929 Ry

     convergence has been achieved in   9 iterations
 
 BEEF-vdW xc energy contributions
           1 :   -844.150222951566     
           2 :    784.624193984353     
           3 :   -679.049893841660     
           4 :    549.155864717312     
           5 :   -417.519479313179     
           6 :    301.227864740075     
           7 :   -209.048549380996     
           8 :    142.267075930750     
           9 :   -97.6774278050658     
          10 :    70.5555524110083     
          11 :   -56.2728542175545     
          12 :    50.4590179679163     
          13 :   -48.6419608316260     
          14 :    46.3222903977746     
          15 :   -39.8390122056539     
          16 :    27.5537203602915     
          17 :   -10.5402314784180     
          18 :   -7.81661378140302     
          19 :    23.2350178804409     
          20 :   -32.3031946996773     
          21 :    33.7348844974138     
          22 :   -28.5943500382493     
          23 :    19.5461613873082     
          24 :   -9.68193888606152     
          25 :    1.55009964991643     
          26 :    3.26336790259609     
          27 :   -4.08942513887655     
          28 :   0.986078436564298     
          29 :    5.33016643183510     
          30 :   -13.4409986747510     
          31 :   -60.7882259326982     
          32 :   -43.7263324134144     

     Forces acting on atoms (Ry/au):


     negative rho (up, down):  1.376E+00 0.000E+00
     atom    1 type  1   force =     0.00002210    0.00001275    0.01926412
     atom    2 type  1   force =     0.00001654   -0.00003456    0.02388900
     atom    3 type  1   force =    -0.00002166    0.00003160    0.02388900
     atom    4 type  1   force =     0.00005053    0.00002917    0.02386814
     atom    5 type  1   force =    -0.00263672    0.00152655   -0.02173627
     atom    6 type  1   force =     0.00267690    0.00154542   -0.02169591
     atom    7 type  1   force =     0.00000727    0.00000420   -0.02554328
     atom    8 type  1   force =     0.00000378   -0.00304694   -0.02173621
     atom    9 type  1   force =     0.00018542    0.00010744    0.00020228
     atom   10 type  1   force =    -0.00021948    0.00010080    0.00023538
     atom   11 type  1   force =    -0.00002268   -0.00024057    0.00023578
     atom   12 type  1   force =    -0.00001362   -0.00000787   -0.00025511
     atom   13 type  2   force =    -0.00004836   -0.00002801   -0.00061694

     Total force =     0.000874     Total SCF correction =     0.000294
     SCF correction compared to forces is large: reduce conv_thr to get better values


     entering subroutine stress ...


     negative rho (up, down):  1.376E+00 0.000E+00
          total   stress  (Ry/bohr**3)                   (kbar)     P=  -14.09
  -0.00009344   0.00000004   0.00000004        -13.74      0.01      0.01
   0.00000004  -0.00009348   0.00000002          0.01    -13.75      0.00
   0.00000004   0.00000002  -0.00010034          0.01      0.00    -14.76


     bfgs converged in  17 scf cycles and  16 bfgs steps
     (criteria: energy <  1.0E+00, force <  1.9E-03)

     End of BFGS Geometry Optimization

     Final energy   =   -1947.1639714729 Ry
Begin final coordinates

ATOMIC_POSITIONS (crystal)
Hf1      0.166666667   0.166666667   0.396510335    0   0   0
Hf1      0.666666667   0.166666667   0.396510335    0   0   0
Hf1      0.166666667   0.666666667   0.396510335    0   0   0
Hf1      0.666666667   0.666666667   0.396510335    0   0   0
Hf1      0.833333333   0.333333333   0.500000000    0   0   0
Hf1      0.333333333   0.333333333   0.500000000    0   0   0
Hf1      0.833333333   0.833333333   0.500000000    0   0   0
Hf1      0.333333333   0.833333333   0.500000000    0   0   0
Hf1      0.001728888   0.001728193   0.602042751
Hf1      0.496416842   0.001712153   0.602038741
Hf1      0.001712606   0.496416496   0.602038648
Hf1      0.499990493   0.499990133   0.594266867
N1       0.166640958   0.166640766   0.637228898
End final coordinates



     Writing output data file calc.save
 
     init_run     :     19.93s CPU     20.35s WALL (       1 calls)
     electrons    :  11380.60s CPU  12337.28s WALL (      17 calls)
     update_pot   :     58.57s CPU     62.19s WALL (      16 calls)
     forces       :    627.14s CPU    685.09s WALL (      17 calls)
     stress       :   1911.62s CPU   2086.67s WALL (      17 calls)

     Called by init_run:
     wfcinit      :      6.65s CPU      6.76s WALL (       1 calls)
     potinit      :      2.24s CPU      2.35s WALL (       1 calls)

     Called by electrons:
     c_bands      :   3470.72s CPU   3659.30s WALL (     270 calls)
     sum_band     :   2901.79s CPU   3163.29s WALL (     270 calls)
     v_of_rho     :    599.91s CPU    673.69s WALL (     287 calls)
     newd         :   2974.26s CPU   3034.75s WALL (     287 calls)
     mix_rho      :     21.12s CPU     21.58s WALL (     270 calls)
     vdW_energy   :    233.09s CPU    256.81s WALL (     899 calls)
     vdW_ffts     :    588.55s CPU    608.86s WALL (    1832 calls)
     vdW_v        :    245.67s CPU    252.37s WALL (     899 calls)

     Called by c_bands:
     init_us_2    :     29.76s CPU     29.90s WALL (    2875 calls)
     cegterg      :   3005.01s CPU   3080.84s WALL (    1352 calls)

     Called by *egterg:
     h_psi        :   2008.72s CPU   2057.84s WALL (    7602 calls)
     s_psi        :    240.79s CPU    241.25s WALL (    7602 calls)
     g_psi        :     11.16s CPU     11.21s WALL (    6245 calls)
     cdiaghg      :    228.66s CPU    230.15s WALL (    7517 calls)

     Called by h_psi:
     add_vuspsi   :    244.57s CPU    245.05s WALL (    7602 calls)

     General routines
     calbec       :    367.97s CPU    375.14s WALL (    9122 calls)
     fft          :    962.06s CPU   1041.30s WALL (   54709 calls)
     ffts         :      1.25s CPU      1.33s WALL (     557 calls)
     fftw         :   1120.87s CPU   1169.75s WALL (  715762 calls)
     interpolate  :     12.40s CPU     12.69s WALL (     557 calls)
     davcio       :      0.00s CPU      0.03s WALL (       5 calls)
 
     Parallel routines
     fft_scatter  :   1257.05s CPU   1376.52s WALL (  771028 calls)
 
     PWSCF        :     3h56m CPU        4h16m WALL

 
   This run was terminated on:  18:50:41   3May2018            

=------------------------------------------------------------------------------=
   JOB DONE.
=------------------------------------------------------------------------------=
Job  /afs/slac/g/suncat/bin/suncat-tsmpirun -x LD_LIBRARY_PATH -wdir /scratch/qe776251_TTtj8 pw.x -npool 4 -in pw.inp

TID   HOST_NAME   COMMAND_LINE            STATUS            TERMINATION_TIME
===== ========== ================  =======================  ===================
00000 suncat0079 pw.x -npool 4 -i  Done                     05/03/2018 18:50:41
00001 suncat0079 pw.x -npool 4 -i  Done                     05/03/2018 18:50:41
00002 suncat0079 pw.x -npool 4 -i  Done                     05/03/2018 18:50:41
00003 suncat0079 pw.x -npool 4 -i  Done                     05/03/2018 18:50:41
00004 suncat0079 pw.x -npool 4 -i  Done                     05/03/2018 18:50:41
00005 suncat0079 pw.x -npool 4 -i  Done                     05/03/2018 18:50:41
00006 suncat0079 pw.x -npool 4 -i  Done                     05/03/2018 18:50:41
00007 suncat0079 pw.x -npool 4 -i  Done                     05/03/2018 18:50:41
00008 suncat0075 pw.x -npool 4 -i  Done                     05/03/2018 18:50:41
00009 suncat0075 pw.x -npool 4 -i  Done                     05/03/2018 18:50:41
00010 suncat0075 pw.x -npool 4 -i  Done                     05/03/2018 18:50:41
00011 suncat0075 pw.x -npool 4 -i  Done                     05/03/2018 18:50:41
00012 suncat0075 pw.x -npool 4 -i  Done                     05/03/2018 18:50:41
00013 suncat0075 pw.x -npool 4 -i  Done                     05/03/2018 18:50:41
00014 suncat0075 pw.x -npool 4 -i  Done                     05/03/2018 18:50:41
00015 suncat0075 pw.x -npool 4 -i  Done                     05/03/2018 18:50:41
00016 suncat0178 pw.x -npool 4 -i  Done                     05/03/2018 18:50:41
00017 suncat0178 pw.x -npool 4 -i  Done                     05/03/2018 18:50:41
00018 suncat0178 pw.x -npool 4 -i  Done                     05/03/2018 18:50:41
00019 suncat0178 pw.x -npool 4 -i  Done                     05/03/2018 18:50:41
00020 suncat0178 pw.x -npool 4 -i  Done                     05/03/2018 18:50:41
00021 suncat0178 pw.x -npool 4 -i  Done                     05/03/2018 18:50:41
00022 suncat0178 pw.x -npool 4 -i  Done                     05/03/2018 18:50:41
00023 suncat0178 pw.x -npool 4 -i  Done                     05/03/2018 18:50:41
00024 suncat0154 pw.x -npool 4 -i  Done                     05/03/2018 18:50:41
00025 suncat0154 pw.x -npool 4 -i  Done                     05/03/2018 18:50:41
00026 suncat0154 pw.x -npool 4 -i  Done                     05/03/2018 18:50:41
00027 suncat0154 pw.x -npool 4 -i  Done                     05/03/2018 18:50:41
00028 suncat0154 pw.x -npool 4 -i  Done                     05/03/2018 18:50:41
00029 suncat0154 pw.x -npool 4 -i  Done                     05/03/2018 18:50:41
00030 suncat0154 pw.x -npool 4 -i  Done                     05/03/2018 18:50:41
00031 suncat0154 pw.x -npool 4 -i  Done                     05/03/2018 18:50:41
