  python dir    : /nfs/slac/g/suncatfs/mamunm/src/decaf-espresso/decaf
espresso dir  : /nfs/slac/g/suncatfs/sw/espv18/espresso-dynpy-beef/bin/pw.x
executable    : pam -g /afs/slac/g/suncat/bin/suncat-tsmpirun -x LD_LIBRARY_PATH -wdir /tmp/qe_673693ow4079kg_scratch pw.x -npool 4 -in pw.pwi

     Program PWSCF v.5.1rc2 (svn rev. 11289) starts on 11Jan2019 at 22:46:19 

     This program is part of the open-source Quantum ESPRESSO suite
     for quantum simulation of materials; please cite
         "P. Giannozzi et al., J. Phys.:Condens. Matter 21 395502 (2009);
          URL http://www.quantum-espresso.org", 
     in publications or presentations arising from this work. More details at
     http://www.quantum-espresso.org/quote

     Parallel version (MPI), running on    32 processors
     K-points division:     npool     =       4
     R & G space division:  proc/nbgrp/npool/nimage =       8
     Reading input from pw.pwi
Warning: card &CELL ignored
Warning: card / ignored

     Current dimensions of program PWSCF are:
     Max number of different atomic species (ntypx) = 10
     Max number of k-points (npk) =  40000
     Max angular momentum in pseudopotentials (lmaxx) =  3

     **************************************************************************
     Initializing libbeef V0.1.1 with the BEEF-vdW functional.
     Citation: Wellendorff et al., PRB 85, 235149 (2012).
     **************************************************************************


     IMPORTANT: XC functional enforced from input :
     Exchange-correlation      = BEEF-VDW ( 1  4 27 13 2)
     Any further DFT definition will be discarded
     Please, verify this is what you really want


     Subspace diagonalization in iterative solution of the eigenvalue problem:
     a serial algorithm will be used

 
     Parallelization info
     --------------------
     sticks:   dense  smooth     PW     G-vecs:    dense   smooth      PW
     Min         504     203     57                98952    25029    3812
     Max         505     204     59                98973    25048    3817
     Sum        4033    1627    463               791681   200291   30513
 


     bravais-lattice index     =            0
     lattice parameter (alat)  =      12.6383  a.u.
     unit-cell volume          =    6655.4372 (a.u.)^3
     number of atoms/cell      =           13
     number of atomic types    =            2
     number of electrons       =       160.00
     number of Kohn-Sham states=           90
     kinetic-energy cutoff     =      36.7493  Ry
     charge density cutoff     =     367.4933  Ry
     convergence threshold     =      1.0E-04
     mixing beta               =       0.2000
     number of iterations used =            8  plain     mixing
     Exchange-correlation      = BEEF-VDW ( 1  4 27 13 2)
     nstep                     =           50


     celldm(1)=  12.638304  celldm(2)=   0.000000  celldm(3)=   0.000000
     celldm(4)=   0.000000  celldm(5)=   0.000000  celldm(6)=   0.000000

     crystal axes: (cart. coord. in units of alat)
               a(1) = (   1.000000   0.000000   0.000000 )  
               a(2) = (   0.500000   0.866025   0.000000 )  
               a(3) = (   0.000000   0.000000   3.806971 )  

     reciprocal axes: (cart. coord. in units 2 pi/alat)
               b(1) = (  1.000000 -0.577350  0.000000 )  
               b(2) = (  0.000000  1.154701  0.000000 )  
               b(3) = (  0.000000  0.000000  0.262676 )  


     PseudoPot. # 1 for Tl read from file:
     /u/if/jboes/code/decaf-espresso/gbrv15pbe/Tl.UPF
     MD5 check sum: b76cf1f7e72655a2b2c53cf6385d7059
     Pseudo is Ultrasoft + core correction, Zval = 13.0
     Generated by new atomic code, or converted to UPF format
     Using radial grid of  899 points,  6 beta functions with: 
                l(1) =   0
                l(2) =   0
                l(3) =   1
                l(4) =   1
                l(5) =   2
                l(6) =   2
     Q(r) pseudized with  6 coefficients,  rinner =    1.100   1.100   1.100
                                                       1.100   1.100

     PseudoPot. # 2 for C  read from file:
     /u/if/jboes/code/decaf-espresso/gbrv15pbe/C.UPF
     MD5 check sum: d1aef80898a10debaa0f26306b886e00
     Pseudo is Ultrasoft + core correction, Zval =  4.0
     Generated by new atomic code, or converted to UPF format
     Using radial grid of  721 points,  4 beta functions with: 
                l(1) =   0
                l(2) =   0
                l(3) =   1
                l(4) =   1
     Q(r) pseudized with  8 coefficients,  rinner =    1.100   1.100   1.100


     vdW kernel table read from file vdW_kernel_table
     MD5 check sum: 095c7af220d748ca6e76c0b4c6cfb241

     atomic species   valence    mass     pseudopotential
        Tl            13.00   204.38000     Tl( 1.00)
        C              4.00    12.01100     C ( 1.00)

     No symmetry found



   Cartesian axes

     site n.     atom                  positions (alat units)
         1           Tl  tau(   1) = (   0.2500000   0.1443376   1.4952371  )
         2           Tl  tau(   2) = (   0.7500000   0.1443376   1.4952371  )
         3           Tl  tau(   3) = (   0.5000000   0.5773503   1.4952371  )
         4           Tl  tau(   4) = (   1.0000000   0.5773503   1.4952371  )
         5           Tl  tau(   5) = (   1.0000000   0.2886751   1.9034854  )
         6           Tl  tau(   6) = (   0.5000000   0.2886751   1.9034854  )
         7           Tl  tau(   7) = (   1.2500000   0.7216878   1.9034854  )
         8           Tl  tau(   8) = (   0.7500000   0.7216878   1.9034854  )
         9           Tl  tau(   9) = (  -0.0120705  -0.0069645   2.3785343  )
        10           Tl  tau(  10) = (   0.5120654  -0.0069700   2.3785375  )
        11           Tl  tau(  11) = (   0.2500006   0.4469426   2.3785122  )
        12           Tl  tau(  12) = (   0.7499981   0.4330112   2.3820449  )
        13           C   tau(  13) = (   0.2499977   0.1443394   2.5368958  )

     number of k points=    20  Fermi-Dirac smearing, width (Ry)=  0.0110
                       cart. coord. in units 2pi/alat
        k(    1) = (   0.0000000   0.0000000   0.0000000), wk =   0.0555556
        k(    2) = (   0.0000000   0.1924501   0.0000000), wk =   0.1111111
        k(    3) = (   0.0000000   0.3849002   0.0000000), wk =   0.1111111
        k(    4) = (   0.0000000  -0.5773503   0.0000000), wk =   0.0555556
        k(    5) = (   0.1666667  -0.0962250   0.0000000), wk =   0.1111111
        k(    6) = (   0.1666667   0.0962250   0.0000000), wk =   0.1111111
        k(    7) = (   0.1666667   0.2886751   0.0000000), wk =   0.1111111
        k(    8) = (   0.1666667  -0.6735753   0.0000000), wk =   0.1111111
        k(    9) = (   0.1666667  -0.4811252   0.0000000), wk =   0.1111111
        k(   10) = (   0.1666667  -0.2886751   0.0000000), wk =   0.1111111
        k(   11) = (   0.3333333  -0.1924501   0.0000000), wk =   0.1111111
        k(   12) = (   0.3333333  -0.0000000   0.0000000), wk =   0.1111111
        k(   13) = (   0.3333333   0.1924501   0.0000000), wk =   0.1111111
        k(   14) = (   0.3333333  -0.7698004   0.0000000), wk =   0.1111111
        k(   15) = (   0.3333333  -0.5773503   0.0000000), wk =   0.1111111
        k(   16) = (   0.3333333  -0.3849002   0.0000000), wk =   0.1111111
        k(   17) = (  -0.5000000   0.2886751   0.0000000), wk =   0.0555556
        k(   18) = (  -0.5000000   0.4811252   0.0000000), wk =   0.1111111
        k(   19) = (  -0.5000000   0.6735753   0.0000000), wk =   0.1111111
        k(   20) = (  -0.5000000  -0.2886751   0.0000000), wk =   0.0555556

     Dense  grid:   791681 G-vectors     FFT dimensions: (  80,  80, 300)

     Smooth grid:   200291 G-vectors     FFT dimensions: (  50,  50, 192)

     Largest allocated arrays     est. size (Mb)     dimensions
        Kohn-Sham Wavefunctions         4.42 Mb     (    3219,   90)
        NL pseudopotentials            11.00 Mb     (    3219,  224)
        Each V/rho on FFT grid          3.71 Mb     (  243200)
        Each G-vector array             0.75 Mb     (   98956)
        G-vector shells                 0.18 Mb     (   24180)
     Largest temporary arrays     est. size (Mb)     dimensions
        Auxiliary wavefunctions        17.68 Mb     (    3219,  360)
        Each subspace H/S matrix        1.98 Mb     (     360,  360)
        Each <psi_i|beta_j> matrix      0.31 Mb     (     224,   90)
        Arrays for rho mixing          29.69 Mb     (  243200,    8)

     Check: negative/imaginary core charge=   -0.000001    0.000000

     Initial potential from superposition of free atoms
     Check: negative starting charge=   -0.603963

     starting charge  159.94157, renormalised to  160.00000

     negative rho (up, down):  6.042E-01 0.000E+00


     ************************************************************************
     *
     * You are using vdW-DF for exchange-correlation in this calculation.
     * Please cite the following three references that made this development
     * possible:
     *
     *   M. Dion, H. Rydberg, E. Schroder, D. C. Langreth, and
     *   B. I. Lundqvist, Phys. Rev. Lett. 92, 246401 (2004).
     *
     *   T. Thonhauser, V. R. Cooper, S. Li, A. Puzder, P. Hyldgaard, and
     *   D. C. Langreth, Phys. Rev. B 76, 125112 (2007).
     *
     *   G. Roman-Perez and J. M. Soler, Phys. Rev. Lett. 103, 096102 (2009).
     *
     *
     * If you are using vdW-DF2, please also cite:
     *
     *   K. Lee, E. D. Murray, L. Kong, B. I. Lundqvist, and
     *   D. C. Langreth, Phys. Rev. B 82, 081101(R) (2010).
     *
     *
     * If you are calculating the stress with vdW-DF, please also cite:
     *
     *   R. Sabatini, E. Kucukbenli, B. Kolb, T. Thonhauser, and
     *   S. de Gironcoli, J. Phys.: Condens. Matter 24, 424209 (2012).
     *
     ************************************************************************

     Carrying out vdW-DF run using the following parameters:

     Nqs =      20    Nr_points =    1024   r_max =   100.000
     q_mesh =
               0.00001000     0.04494208     0.09755937     0.15916263
               0.23128650     0.31572767     0.41458969     0.53033537
               0.66584808     0.82450364     1.01025438     1.22772762
               1.48234092     1.78043706     2.12944203     2.53805004
               3.01644009     3.57652955     4.23227104     5.00000000

     Gradients computed in reciprocal space

     ************************************************************************


 
     Adding external electric field

     Computed dipole along edir(3) : 
        Dipole               -0.0110 Ry au,         -0.0279 Debye
        Dipole field         -0.0000 Ry au
 
        Potential amp.        0.0018 Ry
        Total length         43.3023 bohr
 
     Starting wfc are  112 randomized atomic wfcs

     total cpu time spent up to now is       14.9 secs

     per-process dynamical memory:   108.5 Mb

     Self-consistent Calculation

     iteration #  1     ecut=    36.75 Ry     beta=0.20
     Davidson diagonalization with overlap
     ethr =  1.00E-02,  avg # of iterations =  2.0

     negative rho (up, down):  6.097E-01 0.000E+00
 
     Adding external electric field

     Computed dipole along edir(3) : 
        Dipole               -3.1390 Ry au,         -7.9786 Debye
        Dipole field         -0.0059 Ry au
 
        Potential amp.        0.5133 Ry
        Total length         43.3023 bohr
 

     total cpu time spent up to now is       38.1 secs

     total energy              =   -1771.85646276 Ry
     Harris-Foulkes estimate   =   -1772.95206561 Ry
     estimated scf accuracy    <       3.34700584 Ry

     iteration #  2     ecut=    36.75 Ry     beta=0.20
     Davidson diagonalization with overlap
     ethr =  2.09E-03,  avg # of iterations =  6.7

     negative rho (up, down):  6.094E-01 0.000E+00
 
     Adding external electric field

     Computed dipole along edir(3) : 
        Dipole                0.1129 Ry au,          0.2871 Debye
        Dipole field          0.0002 Ry au
 
        Potential amp.       -0.0185 Ry
        Total length         43.3023 bohr
 

     total cpu time spent up to now is       65.7 secs

     total energy              =   -1771.32009756 Ry
     Harris-Foulkes estimate   =   -1774.60150340 Ry
     estimated scf accuracy    <      43.83882989 Ry

     iteration #  3     ecut=    36.75 Ry     beta=0.20
     Davidson diagonalization with overlap
     ethr =  2.09E-03,  avg # of iterations =  6.9

     negative rho (up, down):  6.113E-01 0.000E+00
 
     Adding external electric field

     Computed dipole along edir(3) : 
        Dipole               -0.2849 Ry au,         -0.7243 Debye
        Dipole field         -0.0005 Ry au
 
        Potential amp.        0.0466 Ry
        Total length         43.3023 bohr
 

     total cpu time spent up to now is       95.4 secs

     total energy              =   -1772.74022170 Ry
     Harris-Foulkes estimate   =   -1772.86702614 Ry
     estimated scf accuracy    <       1.02871002 Ry

     iteration #  4     ecut=    36.75 Ry     beta=0.20
     Davidson diagonalization with overlap
     ethr =  6.43E-04,  avg # of iterations =  3.0

     negative rho (up, down):  6.151E-01 0.000E+00
 
     Adding external electric field

     Computed dipole along edir(3) : 
        Dipole               -0.3055 Ry au,         -0.7766 Debye
        Dipole field         -0.0006 Ry au
 
        Potential amp.        0.0500 Ry
        Total length         43.3023 bohr
 

     total cpu time spent up to now is      120.2 secs

     total energy              =   -1772.80107303 Ry
     Harris-Foulkes estimate   =   -1772.80540929 Ry
     estimated scf accuracy    <       0.03264882 Ry

     iteration #  5     ecut=    36.75 Ry     beta=0.20
     Davidson diagonalization with overlap
     ethr =  2.04E-05,  avg # of iterations =  6.5

     negative rho (up, down):  6.209E-01 0.000E+00
 
     Adding external electric field

     Computed dipole along edir(3) : 
        Dipole               -0.2651 Ry au,         -0.6738 Debye
        Dipole field         -0.0005 Ry au
 
        Potential amp.        0.0433 Ry
        Total length         43.3023 bohr
 

     total cpu time spent up to now is      149.8 secs

     total energy              =   -1772.80616711 Ry
     Harris-Foulkes estimate   =   -1772.81020830 Ry
     estimated scf accuracy    <       0.01839594 Ry

     iteration #  6     ecut=    36.75 Ry     beta=0.20
     Davidson diagonalization with overlap
     ethr =  1.15E-05,  avg # of iterations =  3.5

     negative rho (up, down):  6.271E-01 0.000E+00
 
     Adding external electric field

     Computed dipole along edir(3) : 
        Dipole               -0.2884 Ry au,         -0.7330 Debye
        Dipole field         -0.0005 Ry au
 
        Potential amp.        0.0472 Ry
        Total length         43.3023 bohr
 

     total cpu time spent up to now is      175.6 secs

     total energy              =   -1772.80685873 Ry
     Harris-Foulkes estimate   =   -1772.80955217 Ry
     estimated scf accuracy    <       0.01535313 Ry

     iteration #  7     ecut=    36.75 Ry     beta=0.20
     Davidson diagonalization with overlap
     ethr =  9.60E-06,  avg # of iterations =  3.8

     negative rho (up, down):  6.295E-01 0.000E+00
 
     Adding external electric field

     Computed dipole along edir(3) : 
        Dipole               -0.3127 Ry au,         -0.7947 Debye
        Dipole field         -0.0006 Ry au
 
        Potential amp.        0.0511 Ry
        Total length         43.3023 bohr
 

     total cpu time spent up to now is      201.5 secs

     total energy              =   -1772.80821492 Ry
     Harris-Foulkes estimate   =   -1772.80827701 Ry
     estimated scf accuracy    <       0.00283063 Ry

     iteration #  8     ecut=    36.75 Ry     beta=0.20
     Davidson diagonalization with overlap
     ethr =  1.77E-06,  avg # of iterations =  6.4

     negative rho (up, down):  6.317E-01 0.000E+00
 
     Adding external electric field

     Computed dipole along edir(3) : 
        Dipole               -0.2967 Ry au,         -0.7542 Debye
        Dipole field         -0.0006 Ry au
 
        Potential amp.        0.0485 Ry
        Total length         43.3023 bohr
 

     total cpu time spent up to now is      228.7 secs

     total energy              =   -1772.80842136 Ry
     Harris-Foulkes estimate   =   -1772.80848099 Ry
     estimated scf accuracy    <       0.00079175 Ry

     iteration #  9     ecut=    36.75 Ry     beta=0.20
     Davidson diagonalization with overlap
     ethr =  4.95E-07,  avg # of iterations =  3.1

     negative rho (up, down):  6.319E-01 0.000E+00
 
     Adding external electric field

     Computed dipole along edir(3) : 
        Dipole               -0.3036 Ry au,         -0.7716 Debye
        Dipole field         -0.0006 Ry au
 
        Potential amp.        0.0496 Ry
        Total length         43.3023 bohr
 

     total cpu time spent up to now is      254.5 secs

     total energy              =   -1772.80851236 Ry
     Harris-Foulkes estimate   =   -1772.80855428 Ry
     estimated scf accuracy    <       0.00065249 Ry

     iteration # 10     ecut=    36.75 Ry     beta=0.20
     Davidson diagonalization with overlap
     ethr =  4.08E-07,  avg # of iterations =  1.1

     negative rho (up, down):  6.322E-01 0.000E+00
 
     Adding external electric field

     Computed dipole along edir(3) : 
        Dipole               -0.2747 Ry au,         -0.6982 Debye
        Dipole field         -0.0005 Ry au
 
        Potential amp.        0.0449 Ry
        Total length         43.3023 bohr
 

     total cpu time spent up to now is      278.2 secs

     End of self-consistent calculation

          k = 0.0000 0.0000 0.0000 ( 24957 PWs)   bands (ev):

   -11.8866 -11.3811 -11.3811 -11.3788 -11.2877 -11.2877 -11.2585 -11.2477
   -11.2395 -11.2395 -11.2276 -11.2276 -11.2209 -11.2097 -11.1190 -11.0583
   -11.0581 -11.0580 -11.0521 -11.0521 -11.0285 -11.0285 -11.0096 -11.0096
   -10.9841 -10.9750 -10.9750 -10.9257 -10.9257 -10.9216 -10.7564 -10.7564
   -10.7515 -10.7515 -10.7122 -10.6592 -10.6485 -10.6485 -10.6396 -10.6199
   -10.6199 -10.5872 -10.5872 -10.5782 -10.5746 -10.5746 -10.5583 -10.5583
   -10.5463 -10.5085 -10.5085 -10.4662 -10.4645 -10.4645 -10.4371 -10.4371
   -10.4306 -10.3890 -10.3890 -10.2792  -9.0452  -8.5872  -6.5888  -5.4430
    -4.2479  -4.2479  -4.2320  -4.0644  -4.0643  -3.7027  -3.2604  -3.2603
    -2.9735  -1.4509  -1.4509  -1.3661  -0.9616  -0.5127  -0.5127  -0.2324
    -0.2324  -0.2080  -0.0643   1.8779   1.8799   1.8800   3.2706   3.5833
     3.7610   3.7611

          k = 0.0000 0.1925 0.0000 ( 25013 PWs)   bands (ev):

   -11.8413 -11.3628 -11.3378 -11.3365 -11.2662 -11.2464 -11.2307 -11.2299
   -11.2146 -11.2141 -11.2002 -11.1931 -11.1891 -11.1766 -11.1035 -11.0541
   -11.0529 -11.0462 -11.0423 -11.0371 -11.0356 -11.0133 -10.9950 -10.9900
   -10.9804 -10.9620 -10.9408 -10.9320 -10.9316 -10.9163 -10.7771 -10.7722
   -10.7602 -10.7520 -10.7285 -10.6745 -10.6719 -10.6583 -10.6546 -10.6398
   -10.6234 -10.6123 -10.6054 -10.5947 -10.5911 -10.5896 -10.5802 -10.5652
   -10.5605 -10.5366 -10.5285 -10.5013 -10.4990 -10.4975 -10.4725 -10.4680
   -10.4623 -10.4447 -10.4091 -10.3149  -8.9427  -8.4827  -6.5536  -5.5977
    -5.2143  -4.5848  -4.5530  -4.2827  -4.1123  -3.6012  -3.2762  -3.1385
    -2.9004  -1.1676  -1.1486  -0.8982  -0.7267  -0.3776  -0.2124  -0.0361
     0.3055   0.3631   0.8914   1.6296   1.8959   2.1800   2.9155   3.3491
     3.6097   3.7905

          k = 0.0000 0.3849 0.0000 ( 25069 PWs)   bands (ev):

   -11.7358 -11.3152 -11.2339 -11.2317 -11.2269 -11.2049 -11.1863 -11.1693
   -11.1642 -11.1407 -11.1202 -11.1089 -11.1049 -11.0928 -11.0744 -11.0636
   -11.0471 -11.0281 -11.0191 -11.0119 -11.0059 -10.9989 -10.9684 -10.9460
   -10.9448 -10.9163 -10.9036 -10.8980 -10.8939 -10.8482 -10.8343 -10.8260
   -10.7779 -10.7668 -10.7605 -10.7497 -10.7327 -10.7171 -10.6990 -10.6864
   -10.6732 -10.6672 -10.6642 -10.6447 -10.6438 -10.6313 -10.6276 -10.6172
   -10.6127 -10.5979 -10.5799 -10.5755 -10.5631 -10.5631 -10.5532 -10.5502
   -10.4846 -10.4844 -10.4702 -10.3738  -8.6978  -8.1510  -6.6951  -6.3637
    -5.6118  -5.0385  -4.9412  -4.6984  -4.3295  -4.1504  -3.2869  -3.1035
    -2.7395  -0.6840  -0.3372  -0.3000  -0.0541   0.4407   0.7143   1.0061
     1.1013   1.2946   1.4012   1.9749   2.1718   2.3734   2.9286   3.1130
     3.2257   3.7558

          k = 0.0000-0.5774 0.0000 ( 25090 PWs)   bands (ev):

   -11.6711 -11.2599 -11.2468 -11.2178 -11.1550 -11.1505 -11.1407 -11.1404
   -11.1319 -11.1272 -11.0873 -11.0842 -11.0637 -11.0424 -11.0277 -11.0251
   -11.0188 -11.0076 -10.9988 -10.9823 -10.9685 -10.9507 -10.9464 -10.9352
   -10.9260 -10.9081 -10.8881 -10.8772 -10.8747 -10.8428 -10.8293 -10.8216
   -10.8114 -10.7867 -10.7774 -10.7685 -10.7649 -10.7475 -10.7384 -10.7361
   -10.7320 -10.7088 -10.7076 -10.7035 -10.6962 -10.6943 -10.6814 -10.6680
   -10.6595 -10.6381 -10.6350 -10.6061 -10.5884 -10.5801 -10.5666 -10.5576
   -10.5248 -10.4862 -10.4852 -10.3891  -8.5493  -7.5883  -7.4535  -6.5840
    -5.5329  -5.0717  -5.0407  -5.0027  -4.6070  -4.4281  -3.2584  -3.1335
    -2.5810  -0.6815   0.2891   0.4303   0.5625   0.7871   1.0385   1.1057
     1.1845   1.3855   1.8930   2.2530   2.4086   2.5243   2.9044   3.4278
     3.6055   3.6643

          k = 0.1667-0.0962 0.0000 ( 25013 PWs)   bands (ev):

   -11.8413 -11.3628 -11.3378 -11.3365 -11.2662 -11.2464 -11.2307 -11.2299
   -11.2146 -11.2141 -11.2002 -11.1931 -11.1891 -11.1766 -11.1035 -11.0541
   -11.0529 -11.0462 -11.0423 -11.0371 -11.0356 -11.0133 -10.9950 -10.9900
   -10.9804 -10.9620 -10.9408 -10.9320 -10.9317 -10.9163 -10.7771 -10.7722
   -10.7602 -10.7520 -10.7285 -10.6746 -10.6719 -10.6584 -10.6546 -10.6398
   -10.6234 -10.6123 -10.6054 -10.5947 -10.5911 -10.5896 -10.5802 -10.5652
   -10.5605 -10.5366 -10.5286 -10.5013 -10.4990 -10.4975 -10.4725 -10.4679
   -10.4624 -10.4447 -10.4091 -10.3149  -8.9427  -8.4827  -6.5536  -5.5977
    -5.2143  -4.5848  -4.5530  -4.2827  -4.1123  -3.6012  -3.2762  -3.1385
    -2.9004  -1.1676  -1.1485  -0.8982  -0.7267  -0.3776  -0.2124  -0.0360
     0.3055   0.3631   0.8914   1.6296   1.8959   2.1800   2.9155   3.3491
     3.6097   3.7905

          k = 0.1667 0.0962 0.0000 ( 25013 PWs)   bands (ev):

   -11.8413 -11.3628 -11.3378 -11.3365 -11.2663 -11.2464 -11.2307 -11.2299
   -11.2146 -11.2141 -11.2002 -11.1930 -11.1891 -11.1766 -11.1035 -11.0541
   -11.0529 -11.0462 -11.0423 -11.0371 -11.0356 -11.0133 -10.9950 -10.9900
   -10.9804 -10.9620 -10.9408 -10.9320 -10.9317 -10.9163 -10.7771 -10.7722
   -10.7602 -10.7520 -10.7285 -10.6746 -10.6719 -10.6584 -10.6546 -10.6398
   -10.6234 -10.6123 -10.6054 -10.5947 -10.5911 -10.5896 -10.5802 -10.5652
   -10.5605 -10.5366 -10.5286 -10.5013 -10.4990 -10.4975 -10.4725 -10.4679
   -10.4624 -10.4447 -10.4091 -10.3149  -8.9427  -8.4827  -6.5536  -5.5977
    -5.2142  -4.5848  -4.5530  -4.2828  -4.1123  -3.6012  -3.2763  -3.1385
    -2.9003  -1.1676  -1.1485  -0.8982  -0.7267  -0.3776  -0.2124  -0.0360
     0.3055   0.3631   0.8914   1.6296   1.8959   2.1800   2.9155   3.3491
     3.6097   3.7906

          k = 0.1667 0.2887 0.0000 ( 25022 PWs)   bands (ev):

   -11.7641 -11.3056 -11.3043 -11.2449 -11.2222 -11.2005 -11.1922 -11.1856
   -11.1822 -11.1785 -11.1403 -11.1354 -11.1278 -11.1054 -11.0922 -11.0489
   -11.0427 -11.0336 -11.0299 -11.0281 -11.0243 -11.0081 -10.9978 -10.9630
   -10.9322 -10.9301 -10.9198 -10.9152 -10.9093 -10.8737 -10.8107 -10.8035
   -10.7853 -10.7589 -10.7502 -10.7334 -10.7131 -10.6953 -10.6755 -10.6720
   -10.6610 -10.6484 -10.6439 -10.6337 -10.6295 -10.6210 -10.6006 -10.5970
   -10.5882 -10.5794 -10.5682 -10.5498 -10.5451 -10.5397 -10.5280 -10.5188
   -10.5052 -10.5010 -10.4353 -10.3727  -8.7662  -8.2646  -6.5488  -5.8581
    -5.8037  -5.5207  -4.9936  -4.0700  -3.9440  -3.7428  -3.6293  -3.2310
    -2.8716  -0.9462  -0.4837  -0.4038   0.0597   0.2293   0.3130   0.4721
     0.8510   1.1374   1.3570   2.0598   2.2259   2.4244   2.6120   2.7877
     3.3322   3.7902

          k = 0.1667-0.6736 0.0000 ( 25036 PWs)   bands (ev):

   -11.6685 -11.2508 -11.2002 -11.1954 -11.1857 -11.1679 -11.1379 -11.1275
   -11.1236 -11.1036 -11.0932 -11.0867 -11.0748 -11.0574 -11.0503 -11.0350
   -11.0274 -11.0119 -11.0053 -10.9935 -10.9832 -10.9673 -10.9486 -10.9270
   -10.9177 -10.8964 -10.8883 -10.8859 -10.8754 -10.8730 -10.8530 -10.8417
   -10.8163 -10.8065 -10.7840 -10.7672 -10.7580 -10.7536 -10.7385 -10.7330
   -10.7264 -10.7105 -10.6941 -10.6829 -10.6757 -10.6670 -10.6549 -10.6474
   -10.6357 -10.6215 -10.6073 -10.5998 -10.5908 -10.5749 -10.5677 -10.5654
   -10.5261 -10.5099 -10.4969 -10.4179  -8.5578  -7.7806  -6.9857  -6.4781
    -6.1238  -5.5971  -5.2408  -4.6256  -4.0151  -3.9283  -3.6663  -2.9449
    -2.7424  -0.6840  -0.1314   0.1749   0.5810   0.7282   1.0208   1.2546
     1.4789   1.6596   1.9176   2.1588   2.3400   2.4930   2.7568   3.1057
     3.2538   3.5352

          k = 0.1667-0.4811 0.0000 ( 25036 PWs)   bands (ev):

   -11.6685 -11.2508 -11.2002 -11.1954 -11.1857 -11.1680 -11.1379 -11.1275
   -11.1236 -11.1036 -11.0932 -11.0867 -11.0748 -11.0574 -11.0503 -11.0350
   -11.0274 -11.0119 -11.0053 -10.9935 -10.9832 -10.9673 -10.9486 -10.9270
   -10.9177 -10.8964 -10.8883 -10.8859 -10.8754 -10.8730 -10.8530 -10.8417
   -10.8163 -10.8065 -10.7841 -10.7672 -10.7580 -10.7536 -10.7385 -10.7330
   -10.7264 -10.7105 -10.6941 -10.6829 -10.6757 -10.6670 -10.6549 -10.6474
   -10.6357 -10.6215 -10.6074 -10.5998 -10.5908 -10.5749 -10.5677 -10.5654
   -10.5261 -10.5099 -10.4969 -10.4179  -8.5578  -7.7806  -6.9857  -6.4781
    -6.1238  -5.5971  -5.2408  -4.6256  -4.0151  -3.9283  -3.6663  -2.9449
    -2.7424  -0.6840  -0.1314   0.1749   0.5810   0.7282   1.0208   1.2546
     1.4789   1.6596   1.9176   2.1588   2.3400   2.4930   2.7568   3.1057
     3.2538   3.5352

          k = 0.1667-0.2887 0.0000 ( 25022 PWs)   bands (ev):

   -11.7641 -11.3056 -11.3043 -11.2449 -11.2222 -11.2005 -11.1922 -11.1855
   -11.1822 -11.1785 -11.1404 -11.1354 -11.1278 -11.1054 -11.0922 -11.0489
   -11.0427 -11.0336 -11.0299 -11.0281 -11.0243 -11.0081 -10.9978 -10.9630
   -10.9322 -10.9301 -10.9198 -10.9152 -10.9093 -10.8737 -10.8106 -10.8035
   -10.7853 -10.7589 -10.7502 -10.7334 -10.7131 -10.6953 -10.6755 -10.6720
   -10.6610 -10.6484 -10.6439 -10.6337 -10.6295 -10.6210 -10.6006 -10.5970
   -10.5882 -10.5794 -10.5682 -10.5498 -10.5451 -10.5397 -10.5280 -10.5188
   -10.5052 -10.5010 -10.4352 -10.3727  -8.7662  -8.2646  -6.5488  -5.8581
    -5.8037  -5.5207  -4.9936  -4.0700  -3.9440  -3.7428  -3.6293  -3.2310
    -2.8716  -0.9462  -0.4837  -0.4038   0.0597   0.2293   0.3130   0.4721
     0.8510   1.1374   1.3570   2.0598   2.2259   2.4244   2.6120   2.7877
     3.3322   3.7903

          k = 0.3333-0.1925 0.0000 ( 25069 PWs)   bands (ev):

   -11.7358 -11.3152 -11.2339 -11.2317 -11.2269 -11.2049 -11.1863 -11.1693
   -11.1642 -11.1407 -11.1202 -11.1089 -11.1049 -11.0928 -11.0744 -11.0636
   -11.0471 -11.0281 -11.0191 -11.0119 -11.0059 -10.9989 -10.9684 -10.9460
   -10.9448 -10.9163 -10.9036 -10.8980 -10.8939 -10.8482 -10.8343 -10.8260
   -10.7779 -10.7668 -10.7605 -10.7497 -10.7327 -10.7172 -10.6990 -10.6864
   -10.6732 -10.6672 -10.6642 -10.6447 -10.6438 -10.6313 -10.6276 -10.6172
   -10.6127 -10.5979 -10.5799 -10.5755 -10.5631 -10.5631 -10.5532 -10.5502
   -10.4846 -10.4844 -10.4702 -10.3738  -8.6978  -8.1510  -6.6951  -6.3637
    -5.6118  -5.0384  -4.9412  -4.6984  -4.3295  -4.1504  -3.2869  -3.1035
    -2.7395  -0.6841  -0.3372  -0.3000  -0.0541   0.4407   0.7143   1.0061
     1.1013   1.2946   1.4012   1.9749   2.1717   2.3734   2.9286   3.1130
     3.2257   3.7558

          k = 0.3333-0.0000 0.0000 ( 25022 PWs)   bands (ev):

   -11.7641 -11.3056 -11.3043 -11.2449 -11.2222 -11.2005 -11.1922 -11.1855
   -11.1822 -11.1785 -11.1403 -11.1354 -11.1278 -11.1054 -11.0922 -11.0489
   -11.0427 -11.0336 -11.0299 -11.0281 -11.0243 -11.0081 -10.9978 -10.9630
   -10.9322 -10.9301 -10.9198 -10.9152 -10.9093 -10.8737 -10.8107 -10.8035
   -10.7853 -10.7589 -10.7501 -10.7334 -10.7131 -10.6953 -10.6755 -10.6720
   -10.6610 -10.6484 -10.6439 -10.6337 -10.6295 -10.6211 -10.6006 -10.5970
   -10.5882 -10.5794 -10.5682 -10.5498 -10.5451 -10.5397 -10.5280 -10.5188
   -10.5052 -10.5010 -10.4352 -10.3727  -8.7662  -8.2646  -6.5488  -5.8581
    -5.8037  -5.5207  -4.9936  -4.0700  -3.9440  -3.7428  -3.6293  -3.2310
    -2.8716  -0.9462  -0.4837  -0.4038   0.0597   0.2293   0.3130   0.4721
     0.8511   1.1374   1.3570   2.0597   2.2258   2.4244   2.6120   2.7877
     3.3322   3.7902

          k = 0.3333 0.1925 0.0000 ( 25069 PWs)   bands (ev):

   -11.7358 -11.3152 -11.2339 -11.2317 -11.2269 -11.2049 -11.1863 -11.1693
   -11.1642 -11.1407 -11.1202 -11.1089 -11.1049 -11.0928 -11.0744 -11.0636
   -11.0471 -11.0281 -11.0191 -11.0119 -11.0059 -10.9989 -10.9684 -10.9460
   -10.9448 -10.9163 -10.9036 -10.8980 -10.8939 -10.8482 -10.8343 -10.8260
   -10.7779 -10.7668 -10.7605 -10.7497 -10.7327 -10.7172 -10.6990 -10.6864
   -10.6732 -10.6672 -10.6642 -10.6447 -10.6437 -10.6313 -10.6276 -10.6172
   -10.6127 -10.5979 -10.5799 -10.5755 -10.5631 -10.5631 -10.5532 -10.5502
   -10.4846 -10.4844 -10.4702 -10.3738  -8.6978  -8.1510  -6.6951  -6.3637
    -5.6118  -5.0384  -4.9412  -4.6984  -4.3295  -4.1504  -3.2869  -3.1035
    -2.7395  -0.6841  -0.3372  -0.3000  -0.0541   0.4407   0.7143   1.0061
     1.1013   1.2946   1.4012   1.9749   2.1717   2.3734   2.9286   3.1130
     3.2257   3.7557

          k = 0.3333-0.7698 0.0000 ( 25036 PWs)   bands (ev):

   -11.6685 -11.2508 -11.2002 -11.1954 -11.1858 -11.1679 -11.1379 -11.1275
   -11.1236 -11.1036 -11.0932 -11.0867 -11.0748 -11.0574 -11.0503 -11.0350
   -11.0274 -11.0119 -11.0053 -10.9935 -10.9832 -10.9673 -10.9486 -10.9270
   -10.9177 -10.8965 -10.8883 -10.8859 -10.8754 -10.8730 -10.8530 -10.8417
   -10.8163 -10.8065 -10.7840 -10.7672 -10.7580 -10.7536 -10.7385 -10.7330
   -10.7264 -10.7105 -10.6941 -10.6829 -10.6757 -10.6670 -10.6549 -10.6474
   -10.6357 -10.6216 -10.6074 -10.5998 -10.5908 -10.5749 -10.5677 -10.5654
   -10.5261 -10.5099 -10.4969 -10.4179  -8.5578  -7.7805  -6.9857  -6.4781
    -6.1238  -5.5971  -5.2408  -4.6257  -4.0151  -3.9283  -3.6663  -2.9449
    -2.7424  -0.6840  -0.1314   0.1750   0.5811   0.7282   1.0208   1.2545
     1.4789   1.6596   1.9176   2.1587   2.3400   2.4930   2.7568   3.1057
     3.2538   3.5352

          k = 0.3333-0.5774 0.0000 ( 25044 PWs)   bands (ev):

   -11.6270 -11.1751 -11.1701 -11.1606 -11.1507 -11.1478 -11.1207 -11.1163
   -11.1155 -11.0975 -11.0904 -11.0767 -11.0654 -11.0474 -11.0408 -11.0357
   -10.9989 -10.9942 -10.9800 -10.9795 -10.9633 -10.9608 -10.9348 -10.9199
   -10.9090 -10.9085 -10.8887 -10.8876 -10.8861 -10.8583 -10.8513 -10.8500
   -10.8411 -10.8355 -10.8266 -10.8181 -10.8152 -10.8007 -10.7705 -10.7636
   -10.7317 -10.7214 -10.6762 -10.6737 -10.6704 -10.6624 -10.6599 -10.6495
   -10.6275 -10.6126 -10.6065 -10.6064 -10.6001 -10.5887 -10.5758 -10.5741
   -10.5679 -10.5528 -10.4925 -10.4834  -8.4882  -7.1642  -7.1311  -7.0121
    -6.2485  -6.1009  -4.9385  -4.6657  -4.6256  -3.3902  -3.1525  -3.0855
    -2.9512  -0.7244   0.2653   0.3040   0.5431   0.7091   1.0907   1.3057
     1.3112   1.5214   2.3839   2.3923   2.8950   2.9413   2.9456   3.2140
     3.5942   3.6165

          k = 0.3333-0.3849 0.0000 ( 25036 PWs)   bands (ev):

   -11.6685 -11.2508 -11.2002 -11.1954 -11.1858 -11.1679 -11.1379 -11.1275
   -11.1236 -11.1036 -11.0932 -11.0867 -11.0748 -11.0574 -11.0503 -11.0350
   -11.0274 -11.0119 -11.0053 -10.9935 -10.9832 -10.9673 -10.9486 -10.9270
   -10.9177 -10.8964 -10.8883 -10.8859 -10.8753 -10.8730 -10.8530 -10.8417
   -10.8163 -10.8065 -10.7840 -10.7672 -10.7580 -10.7536 -10.7385 -10.7329
   -10.7264 -10.7105 -10.6941 -10.6829 -10.6757 -10.6670 -10.6549 -10.6474
   -10.6357 -10.6216 -10.6074 -10.5998 -10.5908 -10.5749 -10.5677 -10.5654
   -10.5261 -10.5099 -10.4969 -10.4178  -8.5578  -7.7806  -6.9857  -6.4781
    -6.1238  -5.5971  -5.2408  -4.6257  -4.0151  -3.9283  -3.6663  -2.9449
    -2.7424  -0.6840  -0.1314   0.1750   0.5811   0.7282   1.0208   1.2545
     1.4789   1.6596   1.9176   2.1587   2.3400   2.4930   2.7568   3.1057
     3.2538   3.5352

          k =-0.5000 0.2887 0.0000 ( 25090 PWs)   bands (ev):

   -11.6710 -11.2599 -11.2468 -11.2178 -11.1550 -11.1505 -11.1407 -11.1404
   -11.1319 -11.1272 -11.0873 -11.0842 -11.0637 -11.0425 -11.0277 -11.0251
   -11.0188 -11.0076 -10.9988 -10.9823 -10.9685 -10.9507 -10.9463 -10.9352
   -10.9260 -10.9082 -10.8881 -10.8772 -10.8747 -10.8428 -10.8293 -10.8216
   -10.8114 -10.7867 -10.7773 -10.7685 -10.7649 -10.7475 -10.7384 -10.7361
   -10.7320 -10.7088 -10.7076 -10.7034 -10.6962 -10.6943 -10.6814 -10.6680
   -10.6596 -10.6381 -10.6351 -10.6062 -10.5884 -10.5801 -10.5666 -10.5576
   -10.5248 -10.4862 -10.4852 -10.3890  -8.5493  -7.5883  -7.4535  -6.5841
    -5.5329  -5.0717  -5.0407  -5.0027  -4.6070  -4.4280  -3.2584  -3.1335
    -2.5810  -0.6816   0.2892   0.4303   0.5625   0.7871   1.0385   1.1057
     1.1845   1.3855   1.8930   2.2530   2.4086   2.5242   2.9044   3.4278
     3.6055   3.6643

          k =-0.5000 0.4811 0.0000 ( 25036 PWs)   bands (ev):

   -11.6685 -11.2508 -11.2002 -11.1954 -11.1858 -11.1680 -11.1379 -11.1275
   -11.1236 -11.1037 -11.0932 -11.0867 -11.0748 -11.0574 -11.0503 -11.0350
   -11.0274 -11.0120 -11.0053 -10.9935 -10.9832 -10.9673 -10.9486 -10.9270
   -10.9177 -10.8965 -10.8883 -10.8859 -10.8754 -10.8730 -10.8530 -10.8417
   -10.8163 -10.8065 -10.7840 -10.7672 -10.7580 -10.7536 -10.7385 -10.7329
   -10.7264 -10.7105 -10.6941 -10.6829 -10.6757 -10.6670 -10.6549 -10.6474
   -10.6357 -10.6216 -10.6074 -10.5998 -10.5908 -10.5749 -10.5677 -10.5654
   -10.5261 -10.5099 -10.4969 -10.4178  -8.5578  -7.7806  -6.9857  -6.4781
    -6.1238  -5.5971  -5.2408  -4.6256  -4.0151  -3.9283  -3.6663  -2.9449
    -2.7424  -0.6840  -0.1313   0.1749   0.5811   0.7282   1.0207   1.2546
     1.4789   1.6596   1.9176   2.1588   2.3400   2.4929   2.7568   3.1057
     3.2538   3.5352

          k =-0.5000 0.6736 0.0000 ( 25036 PWs)   bands (ev):

   -11.6685 -11.2508 -11.2002 -11.1954 -11.1858 -11.1680 -11.1379 -11.1275
   -11.1236 -11.1037 -11.0932 -11.0867 -11.0748 -11.0574 -11.0503 -11.0350
   -11.0274 -11.0119 -11.0053 -10.9935 -10.9832 -10.9673 -10.9486 -10.9270
   -10.9177 -10.8965 -10.8883 -10.8859 -10.8754 -10.8730 -10.8530 -10.8416
   -10.8163 -10.8065 -10.7840 -10.7672 -10.7580 -10.7536 -10.7385 -10.7329
   -10.7264 -10.7105 -10.6941 -10.6829 -10.6757 -10.6670 -10.6549 -10.6474
   -10.6357 -10.6216 -10.6074 -10.5998 -10.5908 -10.5749 -10.5677 -10.5654
   -10.5261 -10.5099 -10.4969 -10.4179  -8.5578  -7.7805  -6.9857  -6.4781
    -6.1238  -5.5971  -5.2408  -4.6256  -4.0151  -3.9283  -3.6663  -2.9449
    -2.7424  -0.6840  -0.1313   0.1749   0.5811   0.7282   1.0207   1.2546
     1.4789   1.6596   1.9176   2.1588   2.3400   2.4929   2.7568   3.1057
     3.2538   3.5352

          k =-0.5000-0.2887 0.0000 ( 25090 PWs)   bands (ev):

   -11.6710 -11.2599 -11.2468 -11.2178 -11.1550 -11.1505 -11.1407 -11.1404
   -11.1319 -11.1272 -11.0873 -11.0842 -11.0637 -11.0425 -11.0277 -11.0251
   -11.0188 -11.0076 -10.9988 -10.9823 -10.9685 -10.9507 -10.9463 -10.9352
   -10.9260 -10.9082 -10.8881 -10.8772 -10.8747 -10.8428 -10.8293 -10.8216
   -10.8113 -10.7867 -10.7773 -10.7685 -10.7650 -10.7475 -10.7384 -10.7361
   -10.7320 -10.7088 -10.7076 -10.7034 -10.6962 -10.6943 -10.6814 -10.6680
   -10.6596 -10.6381 -10.6350 -10.6062 -10.5884 -10.5801 -10.5666 -10.5576
   -10.5248 -10.4862 -10.4852 -10.3890  -8.5493  -7.5883  -7.4535  -6.5841
    -5.5329  -5.0717  -5.0407  -5.0027  -4.6070  -4.4280  -3.2584  -3.1335
    -2.5810  -0.6816   0.2892   0.4303   0.5625   0.7871   1.0384   1.1057
     1.1845   1.3855   1.8930   2.2530   2.4086   2.5242   2.9044   3.4278
     3.6055   3.6643

     the Fermi energy is     1.0044 ev

!    total energy              =   -1772.80851609 Ry
     Harris-Foulkes estimate   =   -1772.80858588 Ry
     estimated scf accuracy    <       0.00005398 Ry

     The total energy is the sum of the following terms:

     one-electron contribution =   -8338.04692848 Ry
     hartree contribution      =    4252.77257681 Ry
     xc contribution           =    -771.83727089 Ry
     ewald contribution        =    3084.34469054 Ry
     electric field correction =       0.00014247 Ry
     smearing contrib. (-TS)   =      -0.04172655 Ry

     convergence has been achieved in  10 iterations

     Forces acting on atoms (Ry/au):


     negative rho (up, down):  6.322E-01 0.000E+00
     atom    1 type  1   force =    -0.00001851    0.00000164   -0.03071074
     atom    2 type  1   force =     0.00000630    0.00040740   -0.03265162
     atom    3 type  1   force =     0.00034166   -0.00016431   -0.03262730
     atom    4 type  1   force =    -0.00035404   -0.00021280   -0.03266019
     atom    5 type  1   force =     0.00043113   -0.00023058    0.02513689
     atom    6 type  1   force =    -0.00040926   -0.00021559    0.02513774
     atom    7 type  1   force =     0.00003646   -0.00001281    0.02374515
     atom    8 type  1   force =    -0.00004434    0.00045408    0.02513896
     atom    9 type  1   force =    -0.00017065   -0.00009720    0.00769723
     atom   10 type  1   force =     0.00020429   -0.00010384    0.00767772
     atom   11 type  1   force =     0.00002573    0.00022202    0.00769880
     atom   12 type  1   force =    -0.00005620   -0.00004509    0.00803769
     atom   13 type  2   force =     0.00000743   -0.00000292   -0.00162033

     Total force =     0.015647     Total SCF correction =     0.031917
     SCF correction compared to forces is large: reduce conv_thr to get better values

     BFGS Geometry Optimization

     number of scf cycles    =   1
     number of bfgs steps    =   0

     energy   new            =   -1772.8085160888 Ry

     new trust radius        =       0.0080380147 bohr
     new conv_thr            =       0.0001000000 Ry


ATOMIC_POSITIONS (angstrom)
Tl       1.671975640   0.965315586  10.000000000    0   0   0
Tl       5.015926920   0.965315586  10.000000000    0   0   0
Tl       3.343951280   3.861262344  10.000000000    0   0   0
Tl       6.687902560   3.861262344  10.000000000    0   0   0
Tl       6.687902560   1.930631172  12.730324787    0   0   0
Tl       3.343951280   1.930631172  12.730324787    0   0   0
Tl       8.359878201   4.826577929  12.730324787    0   0   0
Tl       5.015926920   4.826577929  12.730324787    0   0   0
Tl      -0.080816824  -0.046629634  15.911479146
Tl       3.424751507  -0.046669908  15.911489624
Tl       1.671993324   2.989225723  15.911331721
Tl       5.015884338   2.895912877  15.935137646
C        1.671964208   0.965326430  16.965654241



     Writing output data file calc.save
     Check: negative starting charge=   -0.603963
     NEW-OLD atomic charge density approx. for the potential

     Check: negative/imaginary core charge=   -0.000001    0.000000
     Check: negative starting charge=   -0.604014

     negative rho (up, down):  6.324E-01 0.000E+00
 
     Adding external electric field

     Computed dipole along edir(3) : 
        Dipole               -0.2745 Ry au,         -0.6978 Debye
        Dipole field         -0.0005 Ry au
 
        Potential amp.        0.0449 Ry
        Total length         43.3023 bohr
 

     total cpu time spent up to now is      308.5 secs

     per-process dynamical memory:   101.7 Mb

     Self-consistent Calculation

     iteration #  1     ecut=    36.75 Ry     beta=0.20
     Davidson diagonalization with overlap
     ethr =  1.00E-06,  avg # of iterations =  4.3

     negative rho (up, down):  6.325E-01 0.000E+00
 
     Adding external electric field

     Computed dipole along edir(3) : 
        Dipole               -0.5685 Ry au,         -1.4450 Debye
        Dipole field         -0.0011 Ry au
 
        Potential amp.        0.0930 Ry
        Total length         43.3023 bohr
 

     total cpu time spent up to now is      344.1 secs

     total energy              =   -1772.80287312 Ry
     Harris-Foulkes estimate   =   -1772.80869606 Ry
     estimated scf accuracy    <       0.01793322 Ry

     iteration #  2     ecut=    36.75 Ry     beta=0.20
     Davidson diagonalization with overlap
     ethr =  1.12E-05,  avg # of iterations =  5.8

     negative rho (up, down):  6.325E-01 0.000E+00
 
     Adding external electric field

     Computed dipole along edir(3) : 
        Dipole               -0.2877 Ry au,         -0.7313 Debye
        Dipole field         -0.0005 Ry au
 
        Potential amp.        0.0470 Ry
        Total length         43.3023 bohr
 

     total cpu time spent up to now is      372.0 secs

     total energy              =   -1772.78992727 Ry
     Harris-Foulkes estimate   =   -1772.82725263 Ry
     estimated scf accuracy    <       0.70847585 Ry

     iteration #  3     ecut=    36.75 Ry     beta=0.20
     Davidson diagonalization with overlap
     ethr =  1.12E-05,  avg # of iterations =  6.5

     negative rho (up, down):  6.325E-01 0.000E+00
 
     Adding external electric field

     Computed dipole along edir(3) : 
        Dipole               -0.3014 Ry au,         -0.7661 Debye
        Dipole field         -0.0006 Ry au
 
        Potential amp.        0.0493 Ry
        Total length         43.3023 bohr
 

     total cpu time spent up to now is      399.8 secs

     total energy              =   -1772.80842895 Ry
     Harris-Foulkes estimate   =   -1772.80861585 Ry
     estimated scf accuracy    <       0.00140814 Ry

     iteration #  4     ecut=    36.75 Ry     beta=0.20
     Davidson diagonalization with overlap
     ethr =  8.80E-07,  avg # of iterations =  3.5

     negative rho (up, down):  6.326E-01 0.000E+00
 
     Adding external electric field

     Computed dipole along edir(3) : 
        Dipole               -0.3267 Ry au,         -0.8303 Debye
        Dipole field         -0.0006 Ry au
 
        Potential amp.        0.0534 Ry
        Total length         43.3023 bohr
 

     total cpu time spent up to now is      425.5 secs

     End of self-consistent calculation

          k = 0.0000 0.0000 0.0000 ( 24957 PWs)   bands (ev):

   -11.8980 -11.3808 -11.3808 -11.3786 -11.2912 -11.2912 -11.2577 -11.2482
   -11.2396 -11.2396 -11.2263 -11.2263 -11.2204 -11.2109 -11.1177 -11.0587
   -11.0587 -11.0569 -11.0528 -11.0528 -11.0287 -11.0287 -11.0095 -11.0095
   -10.9846 -10.9784 -10.9784 -10.9243 -10.9243 -10.9205 -10.7572 -10.7572
   -10.7507 -10.7507 -10.7129 -10.6581 -10.6469 -10.6469 -10.6384 -10.6189
   -10.6189 -10.5869 -10.5869 -10.5779 -10.5741 -10.5741 -10.5585 -10.5585
   -10.5451 -10.5087 -10.5087 -10.4662 -10.4645 -10.4645 -10.4370 -10.4370
   -10.4311 -10.3912 -10.3912 -10.2807  -9.0451  -8.5898  -6.5873  -5.4472
    -4.2481  -4.2481  -4.2305  -4.0678  -4.0677  -3.7013  -3.2617  -3.2617
    -2.9758  -1.4509  -1.4509  -1.3672  -0.9626  -0.5179  -0.5178  -0.2336
    -0.2336  -0.2109  -0.0664   1.8789   1.8801   1.8801   3.2750   3.5851
     3.7607   3.7608

          k = 0.0000 0.1925 0.0000 ( 25013 PWs)   bands (ev):

   -11.8527 -11.3625 -11.3375 -11.3362 -11.2696 -11.2500 -11.2305 -11.2292
   -11.2140 -11.2136 -11.2002 -11.1928 -11.1883 -11.1779 -11.1022 -11.0549
   -11.0523 -11.0455 -11.0430 -11.0382 -11.0360 -11.0132 -10.9951 -10.9927
   -10.9802 -10.9627 -10.9438 -10.9309 -10.9307 -10.9150 -10.7771 -10.7722
   -10.7596 -10.7525 -10.7290 -10.6732 -10.6704 -10.6570 -10.6536 -10.6389
   -10.6225 -10.6120 -10.6051 -10.5946 -10.5908 -10.5893 -10.5800 -10.5643
   -10.5605 -10.5369 -10.5289 -10.5013 -10.4990 -10.4976 -10.4725 -10.4678
   -10.4627 -10.4466 -10.4109 -10.3165  -8.9433  -8.4848  -6.5523  -5.6017
    -5.2135  -4.5843  -4.5520  -4.2851  -4.1173  -3.6009  -3.2776  -3.1393
    -2.9025  -1.1695  -1.1485  -0.8988  -0.7270  -0.3814  -0.2153  -0.0389
     0.3036   0.3613   0.8899   1.6284   1.8959   2.1804   2.9152   3.3509
     3.6092   3.7968

          k = 0.0000 0.3849 0.0000 ( 25069 PWs)   bands (ev):

   -11.7473 -11.3149 -11.2356 -11.2309 -11.2279 -11.2041 -11.1865 -11.1686
   -11.1635 -11.1445 -11.1215 -11.1081 -11.1041 -11.0931 -11.0739 -11.0632
   -11.0488 -11.0278 -11.0186 -11.0139 -11.0064 -11.0003 -10.9684 -10.9455
   -10.9440 -10.9157 -10.9042 -10.8973 -10.8935 -10.8510 -10.8340 -10.8268
   -10.7778 -10.7664 -10.7601 -10.7487 -10.7326 -10.7171 -10.6983 -10.6859
   -10.6726 -10.6668 -10.6639 -10.6445 -10.6430 -10.6314 -10.6272 -10.6173
   -10.6125 -10.5979 -10.5798 -10.5753 -10.5638 -10.5630 -10.5529 -10.5509
   -10.4847 -10.4838 -10.4714 -10.3751  -8.7008  -8.1514  -6.6942  -6.3635
    -5.6148  -5.0377  -4.9403  -4.6987  -4.3349  -4.1533  -3.2853  -3.1049
    -2.7401  -0.6901  -0.3367  -0.3004  -0.0553   0.4366   0.7110   1.0063
     1.1022   1.2932   1.3990   1.9743   2.1708   2.3723   2.9284   3.1122
     3.2255   3.7559

          k = 0.0000-0.5774 0.0000 ( 25090 PWs)   bands (ev):

   -11.6826 -11.2595 -11.2466 -11.2211 -11.1535 -11.1491 -11.1396 -11.1394
   -11.1315 -11.1274 -11.0872 -11.0839 -11.0683 -11.0426 -11.0283 -11.0277
   -11.0189 -11.0075 -11.0002 -10.9819 -10.9697 -10.9506 -10.9459 -10.9349
   -10.9274 -10.9094 -10.8866 -10.8773 -10.8738 -10.8421 -10.8282 -10.8212
   -10.8116 -10.7880 -10.7771 -10.7684 -10.7651 -10.7471 -10.7384 -10.7356
   -10.7322 -10.7080 -10.7077 -10.7038 -10.6966 -10.6936 -10.6810 -10.6680
   -10.6596 -10.6385 -10.6359 -10.6056 -10.5877 -10.5798 -10.5662 -10.5579
   -10.5256 -10.4856 -10.4849 -10.3901  -8.5541  -7.5861  -7.4531  -6.5862
    -5.5311  -5.0708  -5.0409  -5.0046  -4.6105  -4.4334  -3.2569  -3.1351
    -2.5788  -0.6893   0.2861   0.4300   0.5626   0.7871   1.0313   1.1062
     1.1820   1.3858   1.8922   2.2533   2.4080   2.5229   2.9060   3.4293
     3.6062   3.6653

          k = 0.1667-0.0962 0.0000 ( 25013 PWs)   bands (ev):

   -11.8527 -11.3625 -11.3375 -11.3362 -11.2696 -11.2500 -11.2305 -11.2292
   -11.2140 -11.2136 -11.2002 -11.1928 -11.1883 -11.1779 -11.1022 -11.0549
   -11.0523 -11.0455 -11.0430 -11.0382 -11.0360 -11.0132 -10.9951 -10.9927
   -10.9802 -10.9627 -10.9438 -10.9309 -10.9307 -10.9150 -10.7771 -10.7722
   -10.7596 -10.7525 -10.7290 -10.6732 -10.6704 -10.6570 -10.6536 -10.6389
   -10.6225 -10.6120 -10.6051 -10.5946 -10.5908 -10.5893 -10.5800 -10.5643
   -10.5605 -10.5368 -10.5289 -10.5013 -10.4990 -10.4976 -10.4725 -10.4678
   -10.4627 -10.4466 -10.4109 -10.3165  -8.9433  -8.4848  -6.5523  -5.6017
    -5.2135  -4.5843  -4.5520  -4.2851  -4.1173  -3.6009  -3.2776  -3.1393
    -2.9025  -1.1695  -1.1485  -0.8988  -0.7270  -0.3815  -0.2153  -0.0389
     0.3036   0.3613   0.8899   1.6284   1.8959   2.1804   2.9152   3.3509
     3.6092   3.7968

          k = 0.1667 0.0962 0.0000 ( 25013 PWs)   bands (ev):

   -11.8527 -11.3625 -11.3375 -11.3362 -11.2696 -11.2500 -11.2305 -11.2292
   -11.2140 -11.2136 -11.2002 -11.1928 -11.1883 -11.1779 -11.1022 -11.0549
   -11.0523 -11.0455 -11.0430 -11.0382 -11.0360 -11.0132 -10.9951 -10.9927
   -10.9802 -10.9627 -10.9438 -10.9309 -10.9308 -10.9150 -10.7771 -10.7722
   -10.7596 -10.7525 -10.7290 -10.6732 -10.6704 -10.6570 -10.6536 -10.6389
   -10.6225 -10.6120 -10.6051 -10.5946 -10.5908 -10.5893 -10.5800 -10.5643
   -10.5605 -10.5368 -10.5289 -10.5013 -10.4990 -10.4976 -10.4725 -10.4678
   -10.4627 -10.4466 -10.4109 -10.3165  -8.9433  -8.4848  -6.5523  -5.6018
    -5.2135  -4.5843  -4.5519  -4.2851  -4.1173  -3.6009  -3.2776  -3.1393
    -2.9025  -1.1695  -1.1485  -0.8988  -0.7270  -0.3815  -0.2153  -0.0389
     0.3036   0.3613   0.8899   1.6284   1.8959   2.1803   2.9152   3.3509
     3.6091   3.7967

          k = 0.1667 0.2887 0.0000 ( 25022 PWs)   bands (ev):

   -11.7755 -11.3052 -11.3039 -11.2442 -11.2256 -11.2023 -11.1911 -11.1850
   -11.1823 -11.1793 -11.1405 -11.1349 -11.1290 -11.1053 -11.0915 -11.0493
   -11.0434 -11.0331 -11.0295 -11.0283 -11.0243 -11.0098 -11.0002 -10.9627
   -10.9318 -10.9300 -10.9195 -10.9144 -10.9085 -10.8766 -10.8116 -10.8028
   -10.7846 -10.7590 -10.7503 -10.7328 -10.7122 -10.6948 -10.6748 -10.6718
   -10.6601 -10.6480 -10.6433 -10.6332 -10.6289 -10.6204 -10.6008 -10.5970
   -10.5884 -10.5798 -10.5682 -10.5500 -10.5450 -10.5401 -10.5276 -10.5191
   -10.5050 -10.5009 -10.4366 -10.3742  -8.7685  -8.2656  -6.5483  -5.8563
    -5.8035  -5.5245  -4.9967  -4.0709  -3.9428  -3.7450  -3.6314  -3.2314
    -2.8733  -0.9479  -0.4854  -0.4065   0.0579   0.2290   0.3121   0.4696
     0.8464   1.1376   1.3577   2.0582   2.2251   2.4224   2.6112   2.7877
     3.3325   3.7914

          k = 0.1667-0.6736 0.0000 ( 25036 PWs)   bands (ev):

   -11.6800 -11.2503 -11.2012 -11.1956 -11.1868 -11.1666 -11.1379 -11.1273
   -11.1229 -11.1057 -11.0931 -11.0873 -11.0738 -11.0572 -11.0503 -11.0362
   -11.0290 -11.0123 -11.0071 -10.9942 -10.9840 -10.9685 -10.9490 -10.9273
   -10.9165 -10.8962 -10.8886 -10.8855 -10.8753 -10.8726 -10.8531 -10.8417
   -10.8165 -10.8062 -10.7836 -10.7669 -10.7577 -10.7535 -10.7383 -10.7331
   -10.7259 -10.7116 -10.6944 -10.6827 -10.6751 -10.6667 -10.6548 -10.6470
   -10.6360 -10.6213 -10.6073 -10.5995 -10.5908 -10.5745 -10.5674 -10.5652
   -10.5256 -10.5097 -10.4979 -10.4191  -8.5624  -7.7796  -6.9842  -6.4796
    -6.1227  -5.5985  -5.2440  -4.6272  -4.0159  -3.9288  -3.6696  -2.9434
    -2.7414  -0.6917  -0.1320   0.1730   0.5783   0.7265   1.0193   1.2528
     1.4790   1.6582   1.9170   2.1585   2.3399   2.4931   2.7564   3.1051
     3.2539   3.5330

          k = 0.1667-0.4811 0.0000 ( 25036 PWs)   bands (ev):

   -11.6800 -11.2503 -11.2012 -11.1956 -11.1868 -11.1666 -11.1379 -11.1273
   -11.1229 -11.1056 -11.0931 -11.0873 -11.0738 -11.0572 -11.0503 -11.0362
   -11.0290 -11.0123 -11.0071 -10.9942 -10.9840 -10.9685 -10.9490 -10.9273
   -10.9165 -10.8961 -10.8886 -10.8855 -10.8753 -10.8726 -10.8531 -10.8417
   -10.8165 -10.8062 -10.7836 -10.7669 -10.7577 -10.7535 -10.7383 -10.7331
   -10.7259 -10.7116 -10.6944 -10.6827 -10.6751 -10.6667 -10.6548 -10.6470
   -10.6360 -10.6213 -10.6073 -10.5995 -10.5908 -10.5745 -10.5674 -10.5652
   -10.5256 -10.5097 -10.4979 -10.4191  -8.5624  -7.7796  -6.9842  -6.4796
    -6.1227  -5.5985  -5.2440  -4.6272  -4.0159  -3.9288  -3.6696  -2.9434
    -2.7414  -0.6917  -0.1320   0.1730   0.5783   0.7265   1.0193   1.2529
     1.4790   1.6582   1.9170   2.1585   2.3399   2.4932   2.7564   3.1051
     3.2538   3.5330

          k = 0.1667-0.2887 0.0000 ( 25022 PWs)   bands (ev):

   -11.7755 -11.3052 -11.3039 -11.2442 -11.2256 -11.2023 -11.1911 -11.1850
   -11.1822 -11.1793 -11.1405 -11.1349 -11.1290 -11.1053 -11.0915 -11.0493
   -11.0434 -11.0331 -11.0295 -11.0283 -11.0243 -11.0098 -11.0002 -10.9627
   -10.9318 -10.9300 -10.9195 -10.9144 -10.9085 -10.8766 -10.8115 -10.8028
   -10.7846 -10.7590 -10.7503 -10.7328 -10.7122 -10.6948 -10.6748 -10.6718
   -10.6601 -10.6480 -10.6433 -10.6332 -10.6289 -10.6204 -10.6008 -10.5970
   -10.5884 -10.5798 -10.5682 -10.5500 -10.5450 -10.5401 -10.5276 -10.5191
   -10.5050 -10.5009 -10.4366 -10.3742  -8.7685  -8.2656  -6.5483  -5.8563
    -5.8035  -5.5245  -4.9968  -4.0709  -3.9428  -3.7450  -3.6315  -3.2314
    -2.8732  -0.9479  -0.4854  -0.4064   0.0579   0.2290   0.3121   0.4696
     0.8463   1.1376   1.3576   2.0582   2.2251   2.4224   2.6112   2.7877
     3.3325   3.7913

          k = 0.3333-0.1925 0.0000 ( 25069 PWs)   bands (ev):

   -11.7472 -11.3149 -11.2356 -11.2309 -11.2279 -11.2041 -11.1865 -11.1686
   -11.1635 -11.1445 -11.1215 -11.1081 -11.1041 -11.0931 -11.0739 -11.0632
   -11.0488 -11.0278 -11.0186 -11.0139 -11.0064 -11.0003 -10.9684 -10.9455
   -10.9440 -10.9157 -10.9042 -10.8973 -10.8935 -10.8511 -10.8340 -10.8268
   -10.7777 -10.7664 -10.7601 -10.7487 -10.7326 -10.7171 -10.6983 -10.6859
   -10.6726 -10.6668 -10.6639 -10.6445 -10.6430 -10.6314 -10.6271 -10.6173
   -10.6125 -10.5979 -10.5798 -10.5753 -10.5638 -10.5630 -10.5529 -10.5509
   -10.4847 -10.4838 -10.4714 -10.3751  -8.7008  -8.1514  -6.6942  -6.3636
    -5.6148  -5.0377  -4.9403  -4.6987  -4.3348  -4.1533  -3.2853  -3.1049
    -2.7401  -0.6901  -0.3367  -0.3004  -0.0553   0.4366   0.7110   1.0063
     1.1022   1.2932   1.3990   1.9742   2.1707   2.3723   2.9284   3.1122
     3.2254   3.7559

          k = 0.3333-0.0000 0.0000 ( 25022 PWs)   bands (ev):

   -11.7755 -11.3052 -11.3039 -11.2442 -11.2256 -11.2024 -11.1911 -11.1850
   -11.1823 -11.1793 -11.1405 -11.1349 -11.1290 -11.1053 -11.0915 -11.0493
   -11.0434 -11.0331 -11.0295 -11.0283 -11.0243 -11.0098 -11.0002 -10.9627
   -10.9318 -10.9300 -10.9195 -10.9144 -10.9085 -10.8766 -10.8116 -10.8028
   -10.7846 -10.7590 -10.7503 -10.7328 -10.7122 -10.6948 -10.6748 -10.6718
   -10.6601 -10.6480 -10.6433 -10.6332 -10.6289 -10.6204 -10.6008 -10.5970
   -10.5884 -10.5798 -10.5682 -10.5500 -10.5450 -10.5401 -10.5276 -10.5191
   -10.5050 -10.5009 -10.4366 -10.3742  -8.7685  -8.2656  -6.5484  -5.8563
    -5.8035  -5.5245  -4.9967  -4.0710  -3.9428  -3.7449  -3.6315  -3.2314
    -2.8732  -0.9479  -0.4854  -0.4065   0.0578   0.2290   0.3121   0.4696
     0.8464   1.1376   1.3576   2.0582   2.2250   2.4225   2.6112   2.7877
     3.3325   3.7913

          k = 0.3333 0.1925 0.0000 ( 25069 PWs)   bands (ev):

   -11.7472 -11.3149 -11.2356 -11.2309 -11.2279 -11.2041 -11.1865 -11.1686
   -11.1635 -11.1445 -11.1215 -11.1081 -11.1041 -11.0931 -11.0739 -11.0632
   -11.0489 -11.0278 -11.0186 -11.0139 -11.0064 -11.0003 -10.9684 -10.9455
   -10.9440 -10.9157 -10.9042 -10.8973 -10.8935 -10.8510 -10.8340 -10.8268
   -10.7777 -10.7664 -10.7601 -10.7487 -10.7326 -10.7171 -10.6983 -10.6859
   -10.6726 -10.6668 -10.6639 -10.6445 -10.6430 -10.6314 -10.6271 -10.6173
   -10.6125 -10.5979 -10.5798 -10.5753 -10.5638 -10.5630 -10.5529 -10.5509
   -10.4847 -10.4838 -10.4714 -10.3751  -8.7007  -8.1514  -6.6943  -6.3636
    -5.6148  -5.0377  -4.9403  -4.6987  -4.3348  -4.1533  -3.2853  -3.1049
    -2.7401  -0.6901  -0.3367  -0.3004  -0.0553   0.4366   0.7110   1.0063
     1.1022   1.2932   1.3990   1.9742   2.1708   2.3723   2.9284   3.1122
     3.2254   3.7559

          k = 0.3333-0.7698 0.0000 ( 25036 PWs)   bands (ev):

   -11.6800 -11.2503 -11.2012 -11.1956 -11.1868 -11.1666 -11.1379 -11.1273
   -11.1229 -11.1057 -11.0931 -11.0873 -11.0738 -11.0572 -11.0503 -11.0362
   -11.0290 -11.0123 -11.0071 -10.9942 -10.9840 -10.9685 -10.9490 -10.9273
   -10.9165 -10.8962 -10.8886 -10.8855 -10.8753 -10.8726 -10.8531 -10.8417
   -10.8165 -10.8062 -10.7836 -10.7669 -10.7577 -10.7535 -10.7383 -10.7331
   -10.7259 -10.7115 -10.6944 -10.6827 -10.6751 -10.6667 -10.6548 -10.6470
   -10.6360 -10.6213 -10.6073 -10.5995 -10.5908 -10.5745 -10.5674 -10.5652
   -10.5256 -10.5097 -10.4979 -10.4191  -8.5624  -7.7796  -6.9843  -6.4796
    -6.1227  -5.5985  -5.2439  -4.6272  -4.0159  -3.9288  -3.6696  -2.9434
    -2.7414  -0.6917  -0.1320   0.1731   0.5783   0.7265   1.0193   1.2528
     1.4791   1.6582   1.9170   2.1585   2.3398   2.4931   2.7564   3.1051
     3.2538   3.5330

          k = 0.3333-0.5774 0.0000 ( 25044 PWs)   bands (ev):

   -11.6387 -11.1753 -11.1690 -11.1598 -11.1538 -11.1466 -11.1203 -11.1162
   -11.1154 -11.0965 -11.0894 -11.0792 -11.0669 -11.0467 -11.0421 -11.0359
   -11.0008 -10.9953 -10.9811 -10.9801 -10.9645 -10.9617 -10.9366 -10.9189
   -10.9086 -10.9083 -10.8877 -10.8867 -10.8853 -10.8581 -10.8518 -10.8500
   -10.8412 -10.8358 -10.8256 -10.8179 -10.8151 -10.8003 -10.7704 -10.7643
   -10.7322 -10.7207 -10.6783 -10.6725 -10.6700 -10.6624 -10.6593 -10.6489
   -10.6278 -10.6119 -10.6061 -10.6059 -10.5992 -10.5885 -10.5753 -10.5738
   -10.5677 -10.5530 -10.4934 -10.4850  -8.4935  -7.1621  -7.1290  -7.0120
    -6.2512  -6.1030  -4.9379  -4.6680  -4.6286  -3.3960  -3.1507  -3.0851
    -2.9465  -0.7342   0.2663   0.2976   0.5433   0.7090   1.0910   1.3036
     1.3089   1.5204   2.3829   2.3929   2.8970   2.9395   2.9432   3.2136
     3.5936   3.6152

          k = 0.3333-0.3849 0.0000 ( 25036 PWs)   bands (ev):

   -11.6800 -11.2503 -11.2012 -11.1956 -11.1868 -11.1666 -11.1379 -11.1273
   -11.1229 -11.1056 -11.0931 -11.0873 -11.0738 -11.0572 -11.0503 -11.0362
   -11.0290 -11.0123 -11.0071 -10.9942 -10.9840 -10.9685 -10.9490 -10.9273
   -10.9165 -10.8962 -10.8886 -10.8855 -10.8753 -10.8726 -10.8531 -10.8417
   -10.8165 -10.8062 -10.7836 -10.7669 -10.7577 -10.7535 -10.7383 -10.7331
   -10.7259 -10.7115 -10.6944 -10.6827 -10.6751 -10.6667 -10.6548 -10.6470
   -10.6360 -10.6213 -10.6073 -10.5995 -10.5908 -10.5745 -10.5674 -10.5652
   -10.5256 -10.5097 -10.4979 -10.4191  -8.5624  -7.7796  -6.9842  -6.4796
    -6.1227  -5.5985  -5.2439  -4.6272  -4.0159  -3.9288  -3.6696  -2.9434
    -2.7414  -0.6917  -0.1320   0.1730   0.5783   0.7265   1.0193   1.2528
     1.4791   1.6583   1.9170   2.1585   2.3399   2.4932   2.7564   3.1051
     3.2538   3.5330

          k =-0.5000 0.2887 0.0000 ( 25090 PWs)   bands (ev):

   -11.6825 -11.2595 -11.2467 -11.2211 -11.1535 -11.1491 -11.1396 -11.1394
   -11.1315 -11.1274 -11.0872 -11.0839 -11.0683 -11.0426 -11.0283 -11.0277
   -11.0189 -11.0075 -11.0002 -10.9819 -10.9697 -10.9506 -10.9459 -10.9349
   -10.9274 -10.9095 -10.8866 -10.8773 -10.8738 -10.8421 -10.8282 -10.8212
   -10.8116 -10.7880 -10.7771 -10.7684 -10.7651 -10.7471 -10.7384 -10.7356
   -10.7321 -10.7080 -10.7077 -10.7038 -10.6966 -10.6936 -10.6810 -10.6680
   -10.6596 -10.6385 -10.6360 -10.6057 -10.5877 -10.5798 -10.5662 -10.5580
   -10.5256 -10.4856 -10.4849 -10.3901  -8.5541  -7.5861  -7.4531  -6.5863
    -5.5311  -5.0708  -5.0409  -5.0047  -4.6105  -4.4334  -3.2569  -3.1351
    -2.5788  -0.6894   0.2862   0.4300   0.5626   0.7871   1.0313   1.1062
     1.1820   1.3858   1.8922   2.2533   2.4081   2.5228   2.9060   3.4292
     3.6062   3.6654

          k =-0.5000 0.4811 0.0000 ( 25036 PWs)   bands (ev):

   -11.6800 -11.2503 -11.2012 -11.1956 -11.1868 -11.1666 -11.1379 -11.1273
   -11.1229 -11.1057 -11.0931 -11.0873 -11.0738 -11.0572 -11.0503 -11.0362
   -11.0290 -11.0123 -11.0071 -10.9942 -10.9840 -10.9685 -10.9490 -10.9273
   -10.9165 -10.8962 -10.8886 -10.8855 -10.8753 -10.8726 -10.8531 -10.8417
   -10.8165 -10.8062 -10.7836 -10.7669 -10.7577 -10.7535 -10.7383 -10.7331
   -10.7259 -10.7116 -10.6944 -10.6827 -10.6751 -10.6667 -10.6548 -10.6470
   -10.6360 -10.6213 -10.6073 -10.5995 -10.5908 -10.5745 -10.5674 -10.5652
   -10.5256 -10.5096 -10.4979 -10.4191  -8.5624  -7.7796  -6.9842  -6.4796
    -6.1227  -5.5985  -5.2440  -4.6272  -4.0159  -3.9288  -3.6696  -2.9434
    -2.7414  -0.6917  -0.1320   0.1730   0.5783   0.7265   1.0193   1.2528
     1.4790   1.6582   1.9170   2.1585   2.3399   2.4931   2.7564   3.1051
     3.2538   3.5330

          k =-0.5000 0.6736 0.0000 ( 25036 PWs)   bands (ev):

   -11.6800 -11.2503 -11.2012 -11.1956 -11.1868 -11.1666 -11.1379 -11.1273
   -11.1229 -11.1057 -11.0931 -11.0874 -11.0738 -11.0572 -11.0503 -11.0362
   -11.0290 -11.0123 -11.0071 -10.9942 -10.9840 -10.9685 -10.9490 -10.9273
   -10.9165 -10.8962 -10.8886 -10.8855 -10.8753 -10.8726 -10.8531 -10.8417
   -10.8165 -10.8062 -10.7836 -10.7669 -10.7577 -10.7535 -10.7383 -10.7331
   -10.7259 -10.7116 -10.6944 -10.6827 -10.6751 -10.6667 -10.6548 -10.6470
   -10.6360 -10.6213 -10.6073 -10.5995 -10.5908 -10.5745 -10.5674 -10.5652
   -10.5256 -10.5097 -10.4979 -10.4191  -8.5624  -7.7796  -6.9843  -6.4797
    -6.1227  -5.5984  -5.2440  -4.6272  -4.0159  -3.9288  -3.6696  -2.9434
    -2.7414  -0.6917  -0.1320   0.1730   0.5783   0.7265   1.0193   1.2528
     1.4790   1.6582   1.9170   2.1585   2.3399   2.4931   2.7564   3.1051
     3.2539   3.5330

          k =-0.5000-0.2887 0.0000 ( 25090 PWs)   bands (ev):

   -11.6825 -11.2595 -11.2467 -11.2211 -11.1535 -11.1491 -11.1396 -11.1394
   -11.1315 -11.1274 -11.0872 -11.0839 -11.0683 -11.0426 -11.0283 -11.0277
   -11.0189 -11.0075 -11.0002 -10.9819 -10.9697 -10.9506 -10.9459 -10.9349
   -10.9274 -10.9095 -10.8866 -10.8773 -10.8738 -10.8421 -10.8282 -10.8212
   -10.8116 -10.7879 -10.7771 -10.7684 -10.7651 -10.7471 -10.7384 -10.7356
   -10.7321 -10.7080 -10.7077 -10.7038 -10.6966 -10.6936 -10.6810 -10.6680
   -10.6596 -10.6385 -10.6359 -10.6056 -10.5877 -10.5798 -10.5662 -10.5580
   -10.5256 -10.4856 -10.4849 -10.3901  -8.5541  -7.5861  -7.4531  -6.5863
    -5.5311  -5.0708  -5.0409  -5.0047  -4.6104  -4.4334  -3.2569  -3.1351
    -2.5788  -0.6894   0.2862   0.4300   0.5626   0.7871   1.0313   1.1062
     1.1819   1.3858   1.8922   2.2533   2.4080   2.5228   2.9061   3.4292
     3.6062   3.6654

     the Fermi energy is     1.0030 ev

!    total energy              =   -1772.80853695 Ry
     Harris-Foulkes estimate   =   -1772.80851767 Ry
     estimated scf accuracy    <       0.00000925 Ry

     The total energy is the sum of the following terms:

     one-electron contribution =   -8333.32702640 Ry
     hartree contribution      =    4250.35679968 Ry
     xc contribution           =    -771.83872107 Ry
     ewald contribution        =    3082.04186814 Ry
     electric field correction =       0.00020147 Ry
     smearing contrib. (-TS)   =      -0.04165878 Ry

     convergence has been achieved in   4 iterations

     Forces acting on atoms (Ry/au):


     negative rho (up, down):  6.326E-01 0.000E+00
     atom    1 type  1   force =     0.00001232    0.00000545   -0.02033580
     atom    2 type  1   force =     0.00000144    0.00110713   -0.02239539
     atom    3 type  1   force =     0.00096771   -0.00057307   -0.02240092
     atom    4 type  1   force =    -0.00094815   -0.00054935   -0.02240318
     atom    5 type  1   force =    -0.00117567    0.00067597    0.02028548
     atom    6 type  1   force =     0.00115732    0.00067107    0.02027214
     atom    7 type  1   force =    -0.00002177    0.00000619    0.02164135
     atom    8 type  1   force =     0.00001713   -0.00135116    0.02025741
     atom    9 type  1   force =     0.00095600    0.00053807    0.00137753
     atom   10 type  1   force =    -0.00097212    0.00054079    0.00139131
     atom   11 type  1   force =    -0.00002221   -0.00109600    0.00140385
     atom   12 type  1   force =     0.00002771    0.00002069   -0.00114069
     atom   13 type  2   force =     0.00000032    0.00000424    0.00204692

     Total force =     0.003865     Total SCF correction =     0.003357
     SCF correction compared to forces is large: reduce conv_thr to get better values

     number of scf cycles    =   2
     number of bfgs steps    =   1

     energy   old            =   -1772.8085160888 Ry
     energy   new            =   -1772.8085369526 Ry

     CASE: energy  _new < energy  _old

     new trust radius        =       0.0023352463 bohr
     new conv_thr            =       0.0000010000 Ry


ATOMIC_POSITIONS (angstrom)
Tl       1.671975640   0.965315586  10.000000000    0   0   0
Tl       5.015926920   0.965315586  10.000000000    0   0   0
Tl       3.343951280   3.861262344  10.000000000    0   0   0
Tl       6.687902560   3.861262344  10.000000000    0   0   0
Tl       6.687902560   1.930631172  12.730324787    0   0   0
Tl       3.343951280   1.930631172  12.730324787    0   0   0
Tl       8.359878201   4.826577930  12.730324787    0   0   0
Tl       5.015926920   4.826577930  12.730324787    0   0   0
Tl      -0.080274475  -0.046324420  15.912532395
Tl       3.424201060  -0.046363360  15.912550110
Tl       1.671981468   2.988604848  15.912400119
Tl       5.015898307   2.895923196  15.934758544
C        1.671964645   0.965328761  16.966772548



     Writing output data file calc.save
     Check: negative starting charge=   -0.604014
     NEW-OLD atomic charge density approx. for the potential

     Check: negative/imaginary core charge=   -0.000001    0.000000
     Check: negative starting charge=   -0.604065

     negative rho (up, down):  6.326E-01 0.000E+00
 
     Adding external electric field

     Computed dipole along edir(3) : 
        Dipole               -0.3266 Ry au,         -0.8302 Debye
        Dipole field         -0.0006 Ry au
 
        Potential amp.        0.0534 Ry
        Total length         43.3023 bohr
 

     total cpu time spent up to now is      456.8 secs

     per-process dynamical memory:   101.7 Mb

     Self-consistent Calculation

     iteration #  1     ecut=    36.75 Ry     beta=0.20
     Davidson diagonalization with overlap
     ethr =  1.00E-06,  avg # of iterations =  3.6

     negative rho (up, down):  6.326E-01 0.000E+00
 
     Adding external electric field

     Computed dipole along edir(3) : 
        Dipole               -0.1518 Ry au,         -0.3857 Debye
        Dipole field         -0.0003 Ry au
 
        Potential amp.        0.0248 Ry
        Total length         43.3023 bohr
 

     total cpu time spent up to now is      487.7 secs

     total energy              =   -1772.80701053 Ry
     Harris-Foulkes estimate   =   -1772.80885921 Ry
     estimated scf accuracy    <       0.00475538 Ry

     iteration #  2     ecut=    36.75 Ry     beta=0.20
     Davidson diagonalization with overlap
     ethr =  2.97E-06,  avg # of iterations =  7.5

     negative rho (up, down):  6.326E-01 0.000E+00
 
     Adding external electric field

     Computed dipole along edir(3) : 
        Dipole               -0.3006 Ry au,         -0.7642 Debye
        Dipole field         -0.0006 Ry au
 
        Potential amp.        0.0492 Ry
        Total length         43.3023 bohr
 

     total cpu time spent up to now is      516.9 secs

     total energy              =   -1772.80364256 Ry
     Harris-Foulkes estimate   =   -1772.81347414 Ry
     estimated scf accuracy    <       0.18917903 Ry

     iteration #  3     ecut=    36.75 Ry     beta=0.20
     Davidson diagonalization with overlap
     ethr =  2.97E-06,  avg # of iterations =  7.5

     negative rho (up, down):  6.326E-01 0.000E+00
 
     Adding external electric field

     Computed dipole along edir(3) : 
        Dipole               -0.3025 Ry au,         -0.7689 Debye
        Dipole field         -0.0006 Ry au
 
        Potential amp.        0.0495 Ry
        Total length         43.3023 bohr
 

     total cpu time spent up to now is      546.4 secs

     total energy              =   -1772.80853551 Ry
     Harris-Foulkes estimate   =   -1772.80855676 Ry
     estimated scf accuracy    <       0.00013141 Ry

     iteration #  4     ecut=    36.75 Ry     beta=0.20
     Davidson diagonalization with overlap
     ethr =  8.21E-08,  avg # of iterations =  4.2

     negative rho (up, down):  6.326E-01 0.000E+00
 
     Adding external electric field

     Computed dipole along edir(3) : 
        Dipole               -0.3028 Ry au,         -0.7697 Debye
        Dipole field         -0.0006 Ry au
 
        Potential amp.        0.0495 Ry
        Total length         43.3023 bohr
 

     total cpu time spent up to now is      573.5 secs

     total energy              =   -1772.80855517 Ry
     Harris-Foulkes estimate   =   -1772.80855538 Ry
     estimated scf accuracy    <       0.00000139 Ry

     iteration #  5     ecut=    36.75 Ry     beta=0.20
     Davidson diagonalization with overlap
     ethr =  8.66E-10,  avg # of iterations =  4.8

     negative rho (up, down):  6.326E-01 0.000E+00
 
     Adding external electric field

     Computed dipole along edir(3) : 
        Dipole               -0.2935 Ry au,         -0.7460 Debye
        Dipole field         -0.0006 Ry au
 
        Potential amp.        0.0480 Ry
        Total length         43.3023 bohr
 

     total cpu time spent up to now is      610.1 secs

     End of self-consistent calculation

          k = 0.0000 0.0000 0.0000 ( 24957 PWs)   bands (ev):

   -11.8954 -11.3778 -11.3778 -11.3757 -11.2867 -11.2867 -11.2549 -11.2448
   -11.2364 -11.2364 -11.2235 -11.2235 -11.2172 -11.2070 -11.1147 -11.0546
   -11.0546 -11.0541 -11.0496 -11.0496 -11.0264 -11.0264 -11.0057 -11.0057
   -10.9805 -10.9742 -10.9742 -10.9216 -10.9216 -10.9177 -10.7535 -10.7535
   -10.7480 -10.7480 -10.7090 -10.6549 -10.6446 -10.6446 -10.6355 -10.6160
   -10.6159 -10.5837 -10.5837 -10.5747 -10.5705 -10.5705 -10.5552 -10.5552
   -10.5424 -10.5052 -10.5052 -10.4640 -10.4621 -10.4621 -10.4334 -10.4334
   -10.4268 -10.3873 -10.3873 -10.2773  -9.0415  -8.5871  -6.5833  -5.4424
    -4.2448  -4.2448  -4.2272  -4.0648  -4.0648  -3.6970  -3.2588  -3.2587
    -2.9716  -1.4471  -1.4471  -1.3636  -0.9594  -0.5149  -0.5148  -0.2303
    -0.2303  -0.2083  -0.0638   1.8807   1.8826   1.8826   3.2773   3.5873
     3.7626   3.7626

          k = 0.0000 0.1925 0.0000 ( 25013 PWs)   bands (ev):

   -11.8503 -11.3595 -11.3345 -11.3333 -11.2651 -11.2454 -11.2273 -11.2264
   -11.2108 -11.2107 -11.1969 -11.1897 -11.1853 -11.1739 -11.0993 -11.0510
   -11.0490 -11.0422 -11.0395 -11.0346 -11.0333 -11.0095 -10.9929 -10.9886
   -10.9763 -10.9587 -10.9397 -10.9281 -10.9279 -10.9123 -10.7738 -10.7690
   -10.7567 -10.7490 -10.7252 -10.6704 -10.6680 -10.6543 -10.6507 -10.6360
   -10.6196 -10.6088 -10.6018 -10.5914 -10.5872 -10.5861 -10.5766 -10.5615
   -10.5573 -10.5335 -10.5254 -10.4988 -10.4963 -10.4950 -10.4687 -10.4644
   -10.4586 -10.4428 -10.4071 -10.3130  -8.9397  -8.4822  -6.5480  -5.5974
    -5.2104  -4.5809  -4.5485  -4.2815  -4.1145  -3.5971  -3.2744  -3.1362
    -2.8988  -1.1659  -1.1449  -0.8955  -0.7237  -0.3782  -0.2128  -0.0359
     0.3068   0.3647   0.8930   1.6311   1.8984   2.1825   2.9178   3.3529
     3.6112   3.7968

          k = 0.0000 0.3849 0.0000 ( 25069 PWs)   bands (ev):

   -11.7451 -11.3120 -11.2316 -11.2280 -11.2245 -11.2014 -11.1832 -11.1657
   -11.1606 -11.1398 -11.1176 -11.1051 -11.1012 -11.0894 -11.0708 -11.0603
   -11.0447 -11.0245 -11.0154 -11.0097 -11.0030 -10.9967 -10.9652 -10.9425
   -10.9411 -10.9131 -10.9002 -10.8944 -10.8903 -10.8467 -10.8308 -10.8233
   -10.7741 -10.7634 -10.7571 -10.7459 -10.7293 -10.7140 -10.6954 -10.6827
   -10.6695 -10.6637 -10.6607 -10.6415 -10.6399 -10.6283 -10.6240 -10.6139
   -10.6094 -10.5946 -10.5767 -10.5722 -10.5604 -10.5599 -10.5497 -10.5476
   -10.4812 -10.4809 -10.4679 -10.3717  -8.6972  -8.1487  -6.6898  -6.3602
    -5.6114  -5.0335  -4.9369  -4.6954  -4.3321  -4.1498  -3.2821  -3.1018
    -2.7366  -0.6865  -0.3332  -0.2974  -0.0522   0.4398   0.7141   1.0093
     1.1053   1.2965   1.4019   1.9770   2.1737   2.3753   2.9304   3.1149
     3.2283   3.7586

          k = 0.0000-0.5774 0.0000 ( 25090 PWs)   bands (ev):

   -11.6807 -11.2565 -11.2437 -11.2167 -11.1506 -11.1467 -11.1370 -11.1363
   -11.1286 -11.1240 -11.0840 -11.0808 -11.0633 -11.0391 -11.0245 -11.0233
   -11.0155 -11.0040 -10.9963 -10.9789 -10.9657 -10.9482 -10.9438 -10.9312
   -10.9235 -10.9057 -10.8840 -10.8734 -10.8710 -10.8391 -10.8252 -10.8182
   -10.8083 -10.7835 -10.7735 -10.7656 -10.7623 -10.7439 -10.7349 -10.7325
   -10.7290 -10.7048 -10.7048 -10.7007 -10.6930 -10.6905 -10.6779 -10.6648
   -10.6560 -10.6352 -10.6325 -10.6025 -10.5849 -10.5768 -10.5630 -10.5548
   -10.5224 -10.4826 -10.4815 -10.3867  -8.5507  -7.5827  -7.4503  -6.5818
    -5.5270  -5.0674  -5.0374  -5.0017  -4.6067  -4.4307  -3.2539  -3.1320
    -2.5754  -0.6858   0.2901   0.4335   0.5651   0.7901   1.0348   1.1098
     1.1845   1.3886   1.8953   2.2553   2.4111   2.5256   2.9077   3.4328
     3.6091   3.6680

          k = 0.1667-0.0962 0.0000 ( 25013 PWs)   bands (ev):

   -11.8503 -11.3595 -11.3345 -11.3333 -11.2651 -11.2454 -11.2273 -11.2264
   -11.2108 -11.2107 -11.1969 -11.1897 -11.1853 -11.1739 -11.0993 -11.0510
   -11.0490 -11.0422 -11.0396 -11.0346 -11.0333 -11.0095 -10.9929 -10.9886
   -10.9763 -10.9587 -10.9397 -10.9281 -10.9279 -10.9123 -10.7738 -10.7690
   -10.7567 -10.7490 -10.7252 -10.6704 -10.6680 -10.6543 -10.6507 -10.6360
   -10.6196 -10.6088 -10.6018 -10.5914 -10.5872 -10.5861 -10.5766 -10.5615
   -10.5573 -10.5335 -10.5254 -10.4988 -10.4963 -10.4950 -10.4687 -10.4644
   -10.4586 -10.4428 -10.4071 -10.3130  -8.9397  -8.4822  -6.5480  -5.5974
    -5.2104  -4.5809  -4.5485  -4.2815  -4.1145  -3.5971  -3.2744  -3.1362
    -2.8988  -1.1659  -1.1449  -0.8955  -0.7237  -0.3782  -0.2128  -0.0359
     0.3068   0.3647   0.8930   1.6311   1.8984   2.1825   2.9179   3.3529
     3.6112   3.7967

          k = 0.1667 0.0962 0.0000 ( 25013 PWs)   bands (ev):

   -11.8503 -11.3595 -11.3345 -11.3333 -11.2651 -11.2454 -11.2273 -11.2264
   -11.2108 -11.2107 -11.1969 -11.1897 -11.1853 -11.1739 -11.0993 -11.0510
   -11.0490 -11.0422 -11.0396 -11.0346 -11.0333 -11.0095 -10.9929 -10.9886
   -10.9763 -10.9587 -10.9397 -10.9281 -10.9279 -10.9123 -10.7738 -10.7690
   -10.7567 -10.7490 -10.7252 -10.6704 -10.6680 -10.6543 -10.6507 -10.6360
   -10.6196 -10.6088 -10.6018 -10.5914 -10.5872 -10.5861 -10.5766 -10.5615
   -10.5573 -10.5335 -10.5254 -10.4988 -10.4963 -10.4950 -10.4687 -10.4644
   -10.4586 -10.4428 -10.4071 -10.3130  -8.9397  -8.4822  -6.5480  -5.5974
    -5.2104  -4.5809  -4.5485  -4.2815  -4.1145  -3.5971  -3.2744  -3.1362
    -2.8988  -1.1659  -1.1449  -0.8955  -0.7237  -0.3782  -0.2128  -0.0359
     0.3068   0.3647   0.8930   1.6311   1.8984   2.1825   2.9179   3.3529
     3.6112   3.7967

          k = 0.1667 0.2887 0.0000 ( 25022 PWs)   bands (ev):

   -11.7733 -11.3022 -11.3010 -11.2412 -11.2210 -11.1983 -11.1885 -11.1820
   -11.1790 -11.1758 -11.1371 -11.1318 -11.1252 -11.1020 -11.0887 -11.0456
   -11.0400 -11.0298 -11.0264 -11.0248 -11.0209 -11.0058 -10.9963 -10.9595
   -10.9295 -10.9264 -10.9161 -10.9113 -10.9056 -10.8723 -10.8077 -10.8001
   -10.7815 -10.7556 -10.7467 -10.7299 -10.7093 -10.6917 -10.6716 -10.6687
   -10.6571 -10.6447 -10.6404 -10.6301 -10.6257 -10.6174 -10.5976 -10.5939
   -10.5852 -10.5762 -10.5649 -10.5472 -10.5423 -10.5367 -10.5241 -10.5159
   -10.5016 -10.4975 -10.4329 -10.3709  -8.7649  -8.2629  -6.5436  -5.8529
    -5.8002  -5.5212  -4.9929  -4.0673  -3.9395  -3.7420  -3.6283  -3.2280
    -2.8698  -0.9442  -0.4822  -0.4035   0.0611   0.2321   0.3153   0.4726
     0.8498   1.1409   1.3604   2.0609   2.2274   2.4257   2.6137   2.7902
     3.3351   3.7935

          k = 0.1667-0.6736 0.0000 ( 25036 PWs)   bands (ev):

   -11.6782 -11.2474 -11.1974 -11.1924 -11.1834 -11.1638 -11.1347 -11.1242
   -11.1200 -11.1015 -11.0899 -11.0839 -11.0709 -11.0538 -11.0469 -11.0323
   -11.0249 -11.0087 -11.0032 -10.9906 -10.9805 -10.9648 -10.9462 -10.9239
   -10.9138 -10.8929 -10.8852 -10.8825 -10.8717 -10.8693 -10.8496 -10.8383
   -10.8130 -10.8034 -10.7803 -10.7637 -10.7543 -10.7503 -10.7350 -10.7299
   -10.7230 -10.7083 -10.6911 -10.6795 -10.6719 -10.6635 -10.6518 -10.6441
   -10.6328 -10.6180 -10.6039 -10.5964 -10.5876 -10.5714 -10.5645 -10.5621
   -10.5224 -10.5064 -10.4946 -10.4157  -8.5590  -7.7766  -6.9807  -6.4752
    -6.1193  -5.5947  -5.2406  -4.6240  -4.0121  -3.9258  -3.6668  -2.9402
    -2.7381  -0.6878  -0.1285   0.1762   0.5817   0.7293   1.0222   1.2563
     1.4820   1.6611   1.9200   2.1612   2.3427   2.4953   2.7592   3.1083
     3.2560   3.5359

          k = 0.1667-0.4811 0.0000 ( 25036 PWs)   bands (ev):

   -11.6782 -11.2474 -11.1974 -11.1924 -11.1834 -11.1638 -11.1347 -11.1242
   -11.1200 -11.1015 -11.0899 -11.0839 -11.0709 -11.0538 -11.0469 -11.0323
   -11.0249 -11.0087 -11.0032 -10.9906 -10.9805 -10.9648 -10.9462 -10.9239
   -10.9138 -10.8929 -10.8852 -10.8825 -10.8717 -10.8693 -10.8496 -10.8383
   -10.8130 -10.8034 -10.7803 -10.7637 -10.7543 -10.7503 -10.7350 -10.7299
   -10.7230 -10.7083 -10.6911 -10.6795 -10.6719 -10.6635 -10.6518 -10.6441
   -10.6328 -10.6180 -10.6039 -10.5964 -10.5876 -10.5714 -10.5645 -10.5621
   -10.5224 -10.5064 -10.4946 -10.4157  -8.5590  -7.7766  -6.9807  -6.4752
    -6.1193  -5.5947  -5.2406  -4.6240  -4.0121  -3.9258  -3.6668  -2.9402
    -2.7381  -0.6878  -0.1285   0.1762   0.5817   0.7293   1.0222   1.2563
     1.4820   1.6611   1.9200   2.1612   2.3427   2.4952   2.7592   3.1083
     3.2560   3.5359

          k = 0.1667-0.2887 0.0000 ( 25022 PWs)   bands (ev):

   -11.7733 -11.3022 -11.3010 -11.2412 -11.2210 -11.1983 -11.1885 -11.1820
   -11.1790 -11.1758 -11.1371 -11.1318 -11.1252 -11.1020 -11.0887 -11.0456
   -11.0400 -11.0298 -11.0264 -11.0248 -11.0209 -11.0058 -10.9963 -10.9595
   -10.9295 -10.9264 -10.9161 -10.9113 -10.9056 -10.8723 -10.8077 -10.8001
   -10.7815 -10.7556 -10.7467 -10.7299 -10.7093 -10.6917 -10.6716 -10.6687
   -10.6571 -10.6447 -10.6404 -10.6301 -10.6257 -10.6174 -10.5976 -10.5939
   -10.5852 -10.5762 -10.5649 -10.5472 -10.5423 -10.5367 -10.5241 -10.5159
   -10.5016 -10.4975 -10.4329 -10.3709  -8.7649  -8.2629  -6.5436  -5.8529
    -5.8002  -5.5212  -4.9929  -4.0673  -3.9395  -3.7420  -3.6283  -3.2280
    -2.8698  -0.9442  -0.4822  -0.4035   0.0611   0.2321   0.3153   0.4726
     0.8498   1.1409   1.3604   2.0609   2.2274   2.4257   2.6137   2.7902
     3.3351   3.7935

          k = 0.3333-0.1925 0.0000 ( 25069 PWs)   bands (ev):

   -11.7451 -11.3120 -11.2316 -11.2280 -11.2245 -11.2014 -11.1832 -11.1657
   -11.1606 -11.1398 -11.1176 -11.1051 -11.1012 -11.0894 -11.0708 -11.0603
   -11.0447 -11.0245 -11.0154 -11.0097 -11.0030 -10.9967 -10.9652 -10.9425
   -10.9411 -10.9131 -10.9002 -10.8944 -10.8903 -10.8467 -10.8308 -10.8233
   -10.7741 -10.7634 -10.7571 -10.7459 -10.7293 -10.7140 -10.6954 -10.6827
   -10.6694 -10.6637 -10.6607 -10.6415 -10.6399 -10.6283 -10.6240 -10.6139
   -10.6094 -10.5946 -10.5767 -10.5722 -10.5604 -10.5599 -10.5497 -10.5476
   -10.4812 -10.4809 -10.4679 -10.3717  -8.6972  -8.1487  -6.6898  -6.3602
    -5.6114  -5.0335  -4.9370  -4.6954  -4.3321  -4.1498  -3.2821  -3.1018
    -2.7366  -0.6866  -0.3332  -0.2973  -0.0522   0.4398   0.7141   1.0093
     1.1053   1.2965   1.4019   1.9770   2.1737   2.3753   2.9304   3.1150
     3.2283   3.7586

          k = 0.3333-0.0000 0.0000 ( 25022 PWs)   bands (ev):

   -11.7733 -11.3022 -11.3010 -11.2412 -11.2210 -11.1983 -11.1885 -11.1820
   -11.1790 -11.1758 -11.1371 -11.1318 -11.1252 -11.1020 -11.0887 -11.0456
   -11.0400 -11.0298 -11.0264 -11.0248 -11.0209 -11.0058 -10.9963 -10.9595
   -10.9295 -10.9264 -10.9161 -10.9113 -10.9056 -10.8723 -10.8077 -10.8001
   -10.7815 -10.7556 -10.7467 -10.7299 -10.7093 -10.6917 -10.6716 -10.6687
   -10.6571 -10.6447 -10.6404 -10.6301 -10.6257 -10.6174 -10.5976 -10.5939
   -10.5852 -10.5762 -10.5649 -10.5472 -10.5423 -10.5367 -10.5241 -10.5159
   -10.5016 -10.4975 -10.4329 -10.3709  -8.7649  -8.2629  -6.5436  -5.8529
    -5.8002  -5.5212  -4.9929  -4.0674  -3.9395  -3.7420  -3.6283  -3.2280
    -2.8697  -0.9442  -0.4822  -0.4035   0.0611   0.2321   0.3153   0.4726
     0.8498   1.1409   1.3603   2.0609   2.2274   2.4258   2.6138   2.7902
     3.3351   3.7935

          k = 0.3333 0.1925 0.0000 ( 25069 PWs)   bands (ev):

   -11.7451 -11.3120 -11.2316 -11.2280 -11.2245 -11.2014 -11.1832 -11.1657
   -11.1606 -11.1398 -11.1176 -11.1051 -11.1012 -11.0894 -11.0708 -11.0603
   -11.0447 -11.0245 -11.0154 -11.0097 -11.0030 -10.9967 -10.9652 -10.9425
   -10.9411 -10.9131 -10.9002 -10.8944 -10.8903 -10.8467 -10.8308 -10.8233
   -10.7741 -10.7634 -10.7571 -10.7459 -10.7293 -10.7140 -10.6954 -10.6827
   -10.6694 -10.6637 -10.6607 -10.6415 -10.6399 -10.6283 -10.6240 -10.6139
   -10.6094 -10.5946 -10.5767 -10.5722 -10.5604 -10.5599 -10.5497 -10.5476
   -10.4812 -10.4809 -10.4679 -10.3716  -8.6972  -8.1487  -6.6898  -6.3602
    -5.6114  -5.0335  -4.9370  -4.6954  -4.3321  -4.1498  -3.2821  -3.1018
    -2.7366  -0.6866  -0.3332  -0.2974  -0.0522   0.4398   0.7141   1.0093
     1.1053   1.2965   1.4019   1.9770   2.1737   2.3753   2.9304   3.1150
     3.2283   3.7586

          k = 0.3333-0.7698 0.0000 ( 25036 PWs)   bands (ev):

   -11.6782 -11.2474 -11.1974 -11.1924 -11.1834 -11.1638 -11.1347 -11.1242
   -11.1200 -11.1015 -11.0899 -11.0839 -11.0709 -11.0538 -11.0469 -11.0323
   -11.0249 -11.0087 -11.0032 -10.9906 -10.9805 -10.9648 -10.9462 -10.9239
   -10.9138 -10.8929 -10.8852 -10.8825 -10.8717 -10.8693 -10.8496 -10.8383
   -10.8130 -10.8034 -10.7803 -10.7637 -10.7543 -10.7503 -10.7350 -10.7299
   -10.7230 -10.7083 -10.6911 -10.6795 -10.6719 -10.6635 -10.6518 -10.6441
   -10.6328 -10.6180 -10.6039 -10.5964 -10.5876 -10.5714 -10.5645 -10.5621
[...]
     3.3343   3.7928

          k = 0.1667-0.6736 0.0000 ( 25036 PWs)   bands (ev):

   -11.6777 -11.2483 -11.1983 -11.1933 -11.1842 -11.1646 -11.1356 -11.1251
   -11.1208 -11.1024 -11.0908 -11.0848 -11.0717 -11.0547 -11.0478 -11.0332
   -11.0258 -11.0096 -11.0042 -10.9915 -10.9813 -10.9657 -10.9468 -10.9248
   -10.9146 -10.8938 -10.8861 -10.8834 -10.8727 -10.8703 -10.8506 -10.8392
   -10.8139 -10.8042 -10.7812 -10.7646 -10.7553 -10.7512 -10.7359 -10.7307
   -10.7238 -10.7091 -10.6920 -10.6804 -10.6727 -10.6644 -10.6525 -10.6449
   -10.6335 -10.6188 -10.6049 -10.5973 -10.5884 -10.5724 -10.5653 -10.5630
   -10.5234 -10.5074 -10.4954 -10.4165  -8.5595  -7.7776  -6.9819  -6.4766
    -6.1204  -5.5959  -5.2414  -4.6248  -4.0131  -3.9267  -3.6675  -2.9411
    -2.7391  -0.6887  -0.1295   0.1753   0.5809   0.7287   1.0213   1.2554
     1.4811   1.6603   1.9191   2.1603   2.3419   2.4948   2.7585   3.1073
     3.2553   3.5353

          k = 0.1667-0.4811 0.0000 ( 25036 PWs)   bands (ev):

   -11.6777 -11.2483 -11.1983 -11.1933 -11.1842 -11.1646 -11.1356 -11.1251
   -11.1208 -11.1024 -11.0908 -11.0848 -11.0717 -11.0547 -11.0478 -11.0332
   -11.0258 -11.0096 -11.0042 -10.9915 -10.9813 -10.9657 -10.9468 -10.9248
   -10.9146 -10.8938 -10.8861 -10.8834 -10.8727 -10.8703 -10.8506 -10.8392
   -10.8139 -10.8042 -10.7812 -10.7646 -10.7553 -10.7512 -10.7359 -10.7307
   -10.7238 -10.7091 -10.6920 -10.6804 -10.6727 -10.6644 -10.6525 -10.6449
   -10.6335 -10.6188 -10.6049 -10.5973 -10.5884 -10.5724 -10.5653 -10.5630
   -10.5234 -10.5074 -10.4954 -10.4165  -8.5595  -7.7776  -6.9819  -6.4766
    -6.1204  -5.5959  -5.2414  -4.6248  -4.0131  -3.9267  -3.6675  -2.9411
    -2.7391  -0.6887  -0.1295   0.1753   0.5809   0.7287   1.0213   1.2554
     1.4811   1.6603   1.9191   2.1603   2.3419   2.4948   2.7585   3.1073
     3.2553   3.5354

          k = 0.1667-0.2887 0.0000 ( 25022 PWs)   bands (ev):

   -11.7730 -11.3031 -11.3019 -11.2421 -11.2219 -11.1992 -11.1892 -11.1829
   -11.1799 -11.1767 -11.1381 -11.1327 -11.1260 -11.1029 -11.0895 -11.0465
   -11.0409 -11.0307 -11.0273 -11.0258 -11.0219 -11.0066 -10.9973 -10.9604
   -10.9301 -10.9274 -10.9171 -10.9123 -10.9065 -10.8733 -10.8086 -10.8009
   -10.7824 -10.7563 -10.7475 -10.7307 -10.7101 -10.6926 -10.6724 -10.6695
   -10.6580 -10.6456 -10.6413 -10.6310 -10.6266 -10.6183 -10.5984 -10.5948
   -10.5860 -10.5770 -10.5658 -10.5480 -10.5431 -10.5377 -10.5252 -10.5168
   -10.5026 -10.4985 -10.4338 -10.3716  -8.7656  -8.2636  -6.5452  -5.8540
    -5.8011  -5.5221  -4.9940  -4.0682  -3.9405  -3.7428  -3.6291  -3.2290
    -2.8706  -0.9450  -0.4831  -0.4045   0.0603   0.2312   0.3143   0.4717
     0.8488   1.1401   1.3596   2.0603   2.2269   2.4246   2.6129   2.7896
     3.3343   3.7928

          k = 0.3333-0.1925 0.0000 ( 25069 PWs)   bands (ev):

   -11.7448 -11.3128 -11.2324 -11.2288 -11.2254 -11.2022 -11.1842 -11.1666
   -11.1615 -11.1406 -11.1185 -11.1060 -11.1021 -11.0903 -11.0717 -11.0612
   -11.0456 -11.0255 -11.0163 -11.0106 -11.0038 -10.9975 -10.9661 -10.9433
   -10.9419 -10.9138 -10.9013 -10.8953 -10.8913 -10.8478 -10.8317 -10.8242
   -10.7749 -10.7642 -10.7579 -10.7467 -10.7301 -10.7149 -10.6962 -10.6835
   -10.6704 -10.6645 -10.6617 -10.6424 -10.6408 -10.6291 -10.6249 -10.6149
   -10.6101 -10.5954 -10.5777 -10.5732 -10.5613 -10.5608 -10.5507 -10.5484
   -10.4822 -10.4818 -10.4688 -10.3725  -8.6979  -8.1495  -6.6912  -6.3612
    -5.6123  -5.0349  -4.9379  -4.6964  -4.3326  -4.1507  -3.2831  -3.1026
    -2.7375  -0.6874  -0.3342  -0.2983  -0.0531   0.4390   0.7134   1.0084
     1.1042   1.2958   1.4010   1.9762   2.1735   2.3741   2.9296   3.1143
     3.2275   3.7578

          k = 0.3333-0.0000 0.0000 ( 25022 PWs)   bands (ev):

   -11.7730 -11.3031 -11.3019 -11.2421 -11.2219 -11.1992 -11.1892 -11.1829
   -11.1799 -11.1767 -11.1381 -11.1327 -11.1260 -11.1029 -11.0895 -11.0465
   -11.0409 -11.0307 -11.0273 -11.0258 -11.0219 -11.0066 -10.9973 -10.9604
   -10.9301 -10.9274 -10.9171 -10.9123 -10.9065 -10.8733 -10.8086 -10.8009
   -10.7824 -10.7563 -10.7475 -10.7307 -10.7101 -10.6926 -10.6724 -10.6695
   -10.6580 -10.6456 -10.6413 -10.6310 -10.6266 -10.6183 -10.5984 -10.5948
   -10.5860 -10.5770 -10.5658 -10.5480 -10.5431 -10.5377 -10.5252 -10.5168
   -10.5026 -10.4985 -10.4338 -10.3716  -8.7656  -8.2636  -6.5452  -5.8540
    -5.8011  -5.5221  -4.9939  -4.0682  -3.9405  -3.7428  -3.6291  -3.2290
    -2.8706  -0.9450  -0.4831  -0.4045   0.0603   0.2313   0.3143   0.4717
     0.8488   1.1401   1.3596   2.0603   2.2269   2.4247   2.6129   2.7895
     3.3343   3.7928

          k = 0.3333 0.1925 0.0000 ( 25069 PWs)   bands (ev):

   -11.7448 -11.3128 -11.2324 -11.2288 -11.2254 -11.2022 -11.1842 -11.1666
   -11.1615 -11.1406 -11.1185 -11.1060 -11.1021 -11.0903 -11.0717 -11.0612
   -11.0456 -11.0255 -11.0163 -11.0106 -11.0038 -10.9975 -10.9661 -10.9433
   -10.9419 -10.9138 -10.9013 -10.8953 -10.8913 -10.8478 -10.8317 -10.8242
   -10.7749 -10.7642 -10.7579 -10.7467 -10.7301 -10.7149 -10.6962 -10.6835
   -10.6704 -10.6645 -10.6617 -10.6424 -10.6408 -10.6291 -10.6249 -10.6149
   -10.6101 -10.5954 -10.5777 -10.5732 -10.5613 -10.5608 -10.5507 -10.5484
   -10.4822 -10.4818 -10.4688 -10.3725  -8.6979  -8.1495  -6.6912  -6.3612
    -5.6123  -5.0349  -4.9379  -4.6964  -4.3326  -4.1507  -3.2831  -3.1026
    -2.7375  -0.6874  -0.3342  -0.2983  -0.0531   0.4390   0.7134   1.0084
     1.1042   1.2958   1.4010   1.9762   2.1735   2.3741   2.9295   3.1143
     3.2275   3.7579

          k = 0.3333-0.7698 0.0000 ( 25036 PWs)   bands (ev):

   -11.6777 -11.2483 -11.1983 -11.1933 -11.1842 -11.1646 -11.1356 -11.1251
   -11.1208 -11.1024 -11.0908 -11.0848 -11.0717 -11.0547 -11.0478 -11.0332
   -11.0258 -11.0096 -11.0042 -10.9915 -10.9813 -10.9657 -10.9468 -10.9248
   -10.9146 -10.8938 -10.8861 -10.8834 -10.8727 -10.8703 -10.8506 -10.8392
   -10.8139 -10.8042 -10.7812 -10.7646 -10.7552 -10.7512 -10.7359 -10.7307
   -10.7238 -10.7091 -10.6920 -10.6804 -10.6727 -10.6644 -10.6525 -10.6449
   -10.6335 -10.6188 -10.6049 -10.5973 -10.5884 -10.5724 -10.5653 -10.5630
   -10.5234 -10.5074 -10.4954 -10.4165  -8.5595  -7.7776  -6.9819  -6.4766
    -6.1204  -5.5959  -5.2414  -4.6248  -4.0131  -3.9267  -3.6675  -2.9411
    -2.7391  -0.6887  -0.1295   0.1754   0.5810   0.7287   1.0214   1.2553
     1.4811   1.6603   1.9191   2.1602   2.3419   2.4948   2.7585   3.1073
     3.2553   3.5353

          k = 0.3333-0.5774 0.0000 ( 25044 PWs)   bands (ev):

   -11.6365 -11.1728 -11.1670 -11.1578 -11.1504 -11.1446 -11.1183 -11.1142
   -11.1132 -11.0946 -11.0869 -11.0756 -11.0635 -11.0445 -11.0394 -11.0333
   -10.9976 -10.9925 -10.9782 -10.9777 -10.9615 -10.9591 -10.9336 -10.9170
   -10.9065 -10.9062 -10.8858 -10.8844 -10.8831 -10.8559 -10.8488 -10.8478
   -10.8383 -10.8337 -10.8237 -10.8157 -10.8127 -10.7983 -10.7677 -10.7615
   -10.7295 -10.7186 -10.6757 -10.6706 -10.6674 -10.6600 -10.6575 -10.6469
   -10.6250 -10.6096 -10.6038 -10.6037 -10.5973 -10.5863 -10.5731 -10.5717
   -10.5653 -10.5506 -10.4908 -10.4825  -8.4906  -7.1594  -7.1271  -7.0098
    -6.2478  -6.1006  -4.9353  -4.6659  -4.6261  -3.3933  -3.1480  -3.0836
    -2.9444  -0.7308   0.2688   0.3012   0.5454   0.7110   1.0926   1.3061
     1.3107   1.5224   2.3849   2.3934   2.8993   2.9425   2.9451   3.2157
     3.5951   3.6170

          k = 0.3333-0.3849 0.0000 ( 25036 PWs)   bands (ev):

   -11.6777 -11.2483 -11.1983 -11.1933 -11.1842 -11.1646 -11.1356 -11.1251
   -11.1208 -11.1024 -11.0908 -11.0848 -11.0717 -11.0547 -11.0478 -11.0332
   -11.0258 -11.0096 -11.0042 -10.9915 -10.9813 -10.9657 -10.9468 -10.9248
   -10.9146 -10.8938 -10.8861 -10.8834 -10.8727 -10.8703 -10.8506 -10.8392
   -10.8139 -10.8042 -10.7812 -10.7646 -10.7553 -10.7512 -10.7359 -10.7307
   -10.7238 -10.7091 -10.6920 -10.6804 -10.6727 -10.6644 -10.6525 -10.6449
   -10.6335 -10.6188 -10.6049 -10.5973 -10.5884 -10.5724 -10.5653 -10.5630
   -10.5234 -10.5074 -10.4954 -10.4165  -8.5595  -7.7776  -6.9819  -6.4766
    -6.1204  -5.5959  -5.2414  -4.6248  -4.0131  -3.9267  -3.6675  -2.9411
    -2.7391  -0.6887  -0.1295   0.1753   0.5810   0.7287   1.0214   1.2553
     1.4811   1.6603   1.9191   2.1602   2.3419   2.4947   2.7585   3.1073
     3.2553   3.5353

          k =-0.5000 0.2887 0.0000 ( 25090 PWs)   bands (ev):

   -11.6802 -11.2574 -11.2445 -11.2175 -11.1515 -11.1474 -11.1378 -11.1372
   -11.1295 -11.1250 -11.0849 -11.0817 -11.0642 -11.0400 -11.0254 -11.0241
   -11.0165 -11.0049 -10.9972 -10.9797 -10.9666 -10.9489 -10.9443 -10.9323
   -10.9245 -10.9067 -10.8848 -10.8745 -10.8719 -10.8400 -10.8261 -10.8191
   -10.8093 -10.7847 -10.7744 -10.7664 -10.7631 -10.7448 -10.7359 -10.7335
   -10.7298 -10.7056 -10.7056 -10.7016 -10.6941 -10.6914 -10.6788 -10.6657
   -10.6568 -10.6359 -10.6333 -10.6034 -10.5858 -10.5777 -10.5640 -10.5556
   -10.5231 -10.4835 -10.4826 -10.3875  -8.5512  -7.5838  -7.4511  -6.5832
    -5.5285  -5.0683  -5.0385  -5.0024  -4.6076  -4.4312  -3.2547  -3.1328
    -2.5764  -0.6868   0.2894   0.4324   0.5643   0.7892   1.0341   1.1087
     1.1838   1.3878   1.8946   2.2550   2.4102   2.5245   2.9072   3.4314
     3.6089   3.6674

          k =-0.5000 0.4811 0.0000 ( 25036 PWs)   bands (ev):

   -11.6777 -11.2483 -11.1983 -11.1933 -11.1842 -11.1646 -11.1356 -11.1251
   -11.1208 -11.1024 -11.0908 -11.0848 -11.0717 -11.0547 -11.0478 -11.0332
   -11.0258 -11.0096 -11.0042 -10.9915 -10.9813 -10.9657 -10.9468 -10.9248
   -10.9146 -10.8938 -10.8861 -10.8834 -10.8727 -10.8703 -10.8506 -10.8392
   -10.8139 -10.8042 -10.7812 -10.7646 -10.7552 -10.7512 -10.7359 -10.7307
   -10.7238 -10.7091 -10.6920 -10.6804 -10.6727 -10.6644 -10.6525 -10.6449
   -10.6335 -10.6188 -10.6049 -10.5973 -10.5884 -10.5724 -10.5653 -10.5630
   -10.5234 -10.5074 -10.4954 -10.4165  -8.5595  -7.7776  -6.9819  -6.4766
    -6.1204  -5.5959  -5.2414  -4.6248  -4.0131  -3.9267  -3.6675  -2.9411
    -2.7390  -0.6887  -0.1295   0.1753   0.5810   0.7286   1.0213   1.2553
     1.4811   1.6603   1.9191   2.1603   2.3419   2.4947   2.7585   3.1073
     3.2553   3.5353

          k =-0.5000 0.6736 0.0000 ( 25036 PWs)   bands (ev):

   -11.6777 -11.2483 -11.1983 -11.1933 -11.1842 -11.1646 -11.1356 -11.1251
   -11.1208 -11.1024 -11.0908 -11.0848 -11.0717 -11.0547 -11.0478 -11.0332
   -11.0258 -11.0096 -11.0042 -10.9915 -10.9813 -10.9657 -10.9468 -10.9248
   -10.9146 -10.8938 -10.8861 -10.8834 -10.8727 -10.8703 -10.8506 -10.8392
   -10.8139 -10.8042 -10.7812 -10.7646 -10.7552 -10.7512 -10.7359 -10.7307
   -10.7238 -10.7091 -10.6920 -10.6804 -10.6727 -10.6644 -10.6525 -10.6449
   -10.6335 -10.6188 -10.6049 -10.5973 -10.5884 -10.5724 -10.5653 -10.5630
   -10.5234 -10.5074 -10.4954 -10.4165  -8.5595  -7.7776  -6.9819  -6.4766
    -6.1204  -5.5959  -5.2414  -4.6248  -4.0131  -3.9267  -3.6675  -2.9411
    -2.7391  -0.6887  -0.1295   0.1753   0.5810   0.7286   1.0213   1.2554
     1.4811   1.6603   1.9191   2.1603   2.3419   2.4947   2.7585   3.1073
     3.2553   3.5354

          k =-0.5000-0.2887 0.0000 ( 25090 PWs)   bands (ev):

   -11.6802 -11.2574 -11.2445 -11.2175 -11.1515 -11.1474 -11.1378 -11.1372
   -11.1295 -11.1250 -11.0849 -11.0817 -11.0642 -11.0400 -11.0254 -11.0241
   -11.0165 -11.0049 -10.9972 -10.9797 -10.9666 -10.9489 -10.9443 -10.9323
   -10.9245 -10.9067 -10.8848 -10.8745 -10.8719 -10.8400 -10.8261 -10.8191
   -10.8093 -10.7847 -10.7744 -10.7664 -10.7631 -10.7448 -10.7359 -10.7335
   -10.7298 -10.7056 -10.7056 -10.7016 -10.6941 -10.6914 -10.6788 -10.6657
   -10.6568 -10.6359 -10.6333 -10.6034 -10.5858 -10.5777 -10.5640 -10.5555
   -10.5231 -10.4835 -10.4826 -10.3875  -8.5512  -7.5838  -7.4511  -6.5832
    -5.5284  -5.0683  -5.0385  -5.0024  -4.6076  -4.4312  -3.2547  -3.1328
    -2.5764  -0.6868   0.2894   0.4324   0.5643   0.7892   1.0341   1.1087
     1.1838   1.3878   1.8946   2.2550   2.4102   2.5245   2.9072   3.4314
     3.6088   3.6673

     the Fermi energy is     1.0052 ev

!    total energy              =   -1772.80856102 Ry
     Harris-Foulkes estimate   =   -1772.80855859 Ry
     estimated scf accuracy    <       0.00000012 Ry

     The total energy is the sum of the following terms:

     one-electron contribution =   -8332.51355539 Ry
     hartree contribution      =    4249.89557386 Ry
     xc contribution           =    -771.83843257 Ry
     ewald contribution        =    3081.68934163 Ry
     electric field correction =       0.00017485 Ry
     smearing contrib. (-TS)   =      -0.04166341 Ry

     convergence has been achieved in   4 iterations

     Forces acting on atoms (Ry/au):


     negative rho (up, down):  6.327E-01 0.000E+00
     atom    1 type  1   force =     0.00000062   -0.00000042   -0.02077807
     atom    2 type  1   force =     0.00000042    0.00088554   -0.02282137
     atom    3 type  1   force =     0.00076982   -0.00044509   -0.02281940
     atom    4 type  1   force =    -0.00076816   -0.00044372   -0.02282096
     atom    5 type  1   force =    -0.00079585    0.00045386    0.02254003
     atom    6 type  1   force =     0.00079610    0.00045905    0.02254257
     atom    7 type  1   force =     0.00000007    0.00000355    0.02379153
     atom    8 type  1   force =    -0.00000085   -0.00091715    0.02253552
     atom    9 type  1   force =    -0.00028395   -0.00016155   -0.00038742
     atom   10 type  1   force =     0.00027883   -0.00015947   -0.00038382
     atom   11 type  1   force =     0.00000045    0.00032077   -0.00038558
     atom   12 type  1   force =     0.00000107    0.00000162   -0.00157807
     atom   13 type  2   force =     0.00000143    0.00000302    0.00056505

     Total force =     0.001889     Total SCF correction =     0.001232
     SCF correction compared to forces is large: reduce conv_thr to get better values

     bfgs converged in   4 scf cycles and   3 bfgs steps
     (criteria: energy <  1.0E+12, force <  1.9E-03)

     End of BFGS Geometry Optimization

     Final energy   =   -1772.8085610222 Ry
Begin final coordinates

ATOMIC_POSITIONS (angstrom)
Tl       1.671975640   0.965315586  10.000000000    0   0   0
Tl       5.015926920   0.965315586  10.000000000    0   0   0
Tl       3.343951280   3.861262344  10.000000000    0   0   0
Tl       6.687902560   3.861262344  10.000000000    0   0   0
Tl       6.687902560   1.930631172  12.730324787    0   0   0
Tl       3.343951280   1.930631172  12.730324787    0   0   0
Tl       8.359878201   4.826577930  12.730324787    0   0   0
Tl       5.015926920   4.826577930  12.730324787    0   0   0
Tl      -0.080559459  -0.046492280  15.912559936
Tl       3.424486078  -0.046530370  15.912576417
Tl       1.671979704   2.988936358  15.912427416
Tl       5.015900336   2.895924909  15.933826101
C        1.671965293   0.965329854  16.966964569
End final coordinates



     Writing output data file calc.save
 
     init_run     :     14.09s CPU     14.47s WALL (       1 calls)
     electrons    :    610.38s CPU    644.58s WALL (       4 calls)
     update_pot   :     11.60s CPU     12.05s WALL (       3 calls)
     forces       :     75.19s CPU     79.15s WALL (       4 calls)

     Called by init_run:
     wfcinit      :      4.60s CPU      4.69s WALL (       1 calls)
     potinit      :      2.50s CPU      2.63s WALL (       1 calls)

     Called by electrons:
     c_bands      :    283.30s CPU    295.31s WALL (      23 calls)
     sum_band     :    141.48s CPU    149.99s WALL (      23 calls)
     v_of_rho     :     54.20s CPU     57.86s WALL (      27 calls)
     newd         :    139.34s CPU    140.55s WALL (      27 calls)
     mix_rho      :      1.59s CPU      1.61s WALL (      23 calls)
     vdW_energy   :      9.01s CPU     10.01s WALL (      31 calls)
     vdW_ffts     :     22.26s CPU     22.87s WALL (      62 calls)
     vdW_v        :      8.30s CPU      8.78s WALL (      31 calls)

     Called by c_bands:
     init_us_2    :      1.69s CPU      1.71s WALL (     255 calls)
     cegterg      :    263.34s CPU    270.43s WALL (     115 calls)

     Called by *egterg:
     h_psi        :    176.67s CPU    181.19s WALL (     704 calls)
     s_psi        :     16.16s CPU     16.23s WALL (     704 calls)
     g_psi        :      1.05s CPU      1.05s WALL (     584 calls)
     cdiaghg      :     23.26s CPU     23.44s WALL (     684 calls)

     Called by h_psi:
     add_vuspsi   :     16.53s CPU     16.60s WALL (     704 calls)

     General routines
     calbec       :     25.27s CPU     25.75s WALL (     839 calls)
     fft          :     37.58s CPU     39.96s WALL (    2013 calls)
     ffts         :      0.13s CPU      0.14s WALL (      50 calls)
     fftw         :    108.26s CPU    112.84s WALL (   63896 calls)
     interpolate  :      1.18s CPU      1.23s WALL (      50 calls)
     davcio       :      0.00s CPU      0.07s WALL (       5 calls)
 
     Parallel routines
     fft_scatter  :     80.51s CPU     86.57s WALL (   65959 calls)
 
     PWSCF        : 12m 8.96s CPU    12m49.76s WALL

 
   This run was terminated on:  22:59: 9  11Jan2019            

=------------------------------------------------------------------------------=
   JOB DONE.
=------------------------------------------------------------------------------=
Job  /afs/slac/g/suncat/bin/suncat-tsmpirun -x LD_LIBRARY_PATH -wdir /tmp/qe_673693ow4079kg_scratch pw.x -npool 4 -in pw.pwi

TID   HOST_NAME   COMMAND_LINE            STATUS            TERMINATION_TIME
===== ========== ================  =======================  ===================
00000 suncat0001 pw.x -npool 4 -i  Done                     01/11/2019 22:59:09
00001 suncat0001 pw.x -npool 4 -i  Done                     01/11/2019 22:59:09
00002 suncat0001 pw.x -npool 4 -i  Done                     01/11/2019 22:59:09
00003 suncat0001 pw.x -npool 4 -i  Done                     01/11/2019 22:59:09
00004 suncat0001 pw.x -npool 4 -i  Done                     01/11/2019 22:59:09
00005 suncat0001 pw.x -npool 4 -i  Done                     01/11/2019 22:59:09
00006 suncat0001 pw.x -npool 4 -i  Done                     01/11/2019 22:59:09
00007 suncat0001 pw.x -npool 4 -i  Done                     01/11/2019 22:59:09
00008 suncat0242 pw.x -npool 4 -i  Done                     01/11/2019 22:59:09
00009 suncat0242 pw.x -npool 4 -i  Done                     01/11/2019 22:59:09
00010 suncat0242 pw.x -npool 4 -i  Done                     01/11/2019 22:59:09
00011 suncat0242 pw.x -npool 4 -i  Done                     01/11/2019 22:59:09
00012 suncat0242 pw.x -npool 4 -i  Done                     01/11/2019 22:59:09
00013 suncat0242 pw.x -npool 4 -i  Done                     01/11/2019 22:59:09
00014 suncat0242 pw.x -npool 4 -i  Done                     01/11/2019 22:59:09
00015 suncat0242 pw.x -npool 4 -i  Done                     01/11/2019 22:59:09
00016 suncat0241 pw.x -npool 4 -i  Done                     01/11/2019 22:59:09
00017 suncat0241 pw.x -npool 4 -i  Done                     01/11/2019 22:59:09
00018 suncat0241 pw.x -npool 4 -i  Done                     01/11/2019 22:59:09
00019 suncat0241 pw.x -npool 4 -i  Done                     01/11/2019 22:59:09
00020 suncat0241 pw.x -npool 4 -i  Done                     01/11/2019 22:59:09
00021 suncat0241 pw.x -npool 4 -i  Done                     01/11/2019 22:59:09
00022 suncat0241 pw.x -npool 4 -i  Done                     01/11/2019 22:59:09
00023 suncat0241 pw.x -npool 4 -i  Done                     01/11/2019 22:59:09
00024 suncat0238 pw.x -npool 4 -i  Done                     01/11/2019 22:59:09
00025 suncat0238 pw.x -npool 4 -i  Done                     01/11/2019 22:59:09
00026 suncat0238 pw.x -npool 4 -i  Done                     01/11/2019 22:59:09
00027 suncat0238 pw.x -npool 4 -i  Done                     01/11/2019 22:59:09
00028 suncat0238 pw.x -npool 4 -i  Done                     01/11/2019 22:59:09
00029 suncat0238 pw.x -npool 4 -i  Done                     01/11/2019 22:59:09
00030 suncat0238 pw.x -npool 4 -i  Done                     01/11/2019 22:59:09
00031 suncat0238 pw.x -npool 4 -i  Done                     01/11/2019 22:59:09
