  python dir          : /nfs/slac/g/suncatfs/sw/espv20/lib/python2.7/site-packages/espresso
  espresso dir        : /nfs/slac/g/suncatfs/sw/espv18/espresso-dynpy-beef/bin
  pseudo dir          : /afs/slac.stanford.edu/u/if/mamunm/psp/gbrv1.5pbe
  ase-espresso py git : ffa2778-git



     Program PWSCF v.5.1rc2 (svn rev. 11289) starts on 19Jan2018 at 11: 3:35 

     This program is part of the open-source Quantum ESPRESSO suite
     for quantum simulation of materials; please cite
         "P. Giannozzi et al., J. Phys.:Condens. Matter 21 395502 (2009);
          URL http://www.quantum-espresso.org", 
     in publications or presentations arising from this work. More details at
     http://www.quantum-espresso.org/quote

     Parallel version (MPI), running on    32 processors
     R & G space division:  proc/nbgrp/npool/nimage =      32
     Reading input from pw.inp
     Message from routine read_cards :
     DEPRECATED: no units specified in CELL_PARAMETERS card

     Current dimensions of program PWSCF are:
     Max number of different atomic species (ntypx) = 10
     Max number of k-points (npk) =  40000
     Max angular momentum in pseudopotentials (lmaxx) =  3
     Presently stress not available with electric field


     **************************************************************************
     Initializing libbeef V0.1.1 with the BEEF-vdW functional.
     Citation: Wellendorff et al., PRB 85, 235149 (2012).
     **************************************************************************


     IMPORTANT: XC functional enforced from input :
     Exchange-correlation      = BEEF-VDW ( 1  4 27 13 2)
     Any further DFT definition will be discarded
     Please, verify this is what you really want


     Subspace diagonalization in iterative solution of the eigenvalue problem:
     a serial algorithm will be used

 
     Parallelization info
     --------------------
     sticks:   dense  smooth     PW     G-vecs:    dense   smooth      PW
     Min          89      35     10                16921     4265     672
     Max          90      36     12                16938     4304     683
     Sum        2869    1147    337               541807   137189   21637
 


     bravais-lattice index     =            0
     lattice parameter (alat)  =       1.8897  a.u.
     unit-cell volume          =    4552.2840 (a.u.)^3
     number of atoms/cell      =           13
     number of atomic types    =            2
     number of electrons       =       172.00
     number of Kohn-Sham states=           96
     kinetic-energy cutoff     =      36.7493  Ry
     charge density cutoff     =     367.4932  Ry
     convergence threshold     =      1.0E-05
     mixing beta               =       0.3000
     number of iterations used =           10  plain     mixing
     Exchange-correlation      = BEEF-VDW ( 1  4 27 13 2)
     nstep                     =           50


     celldm(1)=   1.889726  celldm(2)=   0.000000  celldm(3)=   0.000000
     celldm(4)=   0.000000  celldm(5)=   0.000000  celldm(6)=   0.000000

     crystal axes: (cart. coord. in units of alat)
               a(1) = (   5.627661   0.000000   0.000000 )  
               a(2) = (   2.813831   4.873698   0.000000 )  
               a(3) = (   0.000000   0.000000  24.594966 )  

     reciprocal axes: (cart. coord. in units 2 pi/alat)
               b(1) = (  0.177694 -0.102592  0.000000 )  
               b(2) = (  0.000000  0.205183  0.000000 )  
               b(3) = (  0.000000  0.000000  0.040659 )  


     PseudoPot. # 1 for Mo read from file:
     /afs/slac.stanford.edu/u/if/mamunm/psp/gbrv1.5pbe/Mo.UPF
     MD5 check sum: 30c4dcd161f5d35cd49bb5239c51a633
     Pseudo is Ultrasoft + core correction, Zval = 14.0
     Generated by new atomic code, or converted to UPF format
     Using radial grid of  889 points,  6 beta functions with: 
                l(1) =   0
                l(2) =   0
                l(3) =   1
                l(4) =   1
                l(5) =   2
                l(6) =   2
     Q(r) pseudized with  6 coefficients,  rinner =    1.000   1.000   1.000
                                                       1.000   1.000

     PseudoPot. # 2 for C  read from file:
     /afs/slac.stanford.edu/u/if/mamunm/psp/gbrv1.5pbe/C.UPF
     MD5 check sum: d1aef80898a10debaa0f26306b886e00
     Pseudo is Ultrasoft + core correction, Zval =  4.0
     Generated by new atomic code, or converted to UPF format
     Using radial grid of  721 points,  4 beta functions with: 
                l(1) =   0
                l(2) =   0
                l(3) =   1
                l(4) =   1
     Q(r) pseudized with  8 coefficients,  rinner =    1.100   1.100   1.100


     vdW kernel table read from file vdW_kernel_table
     MD5 check sum: 095c7af220d748ca6e76c0b4c6cfb241

     atomic species   valence    mass     pseudopotential
        Mo1           14.00    95.95000     Mo( 1.00)
        C1             4.00    12.01100     C ( 1.00)

     No symmetry found



   Cartesian axes

     site n.     atom                  positions (alat units)
         1           Mo1 tau(   1) = (   1.4069153   0.8122829  10.0000000  )
         2           Mo1 tau(   2) = (   4.2207459   0.8122829  10.0000000  )
         3           Mo1 tau(   3) = (   2.8138306   3.2491317  10.0000000  )
         4           Mo1 tau(   4) = (   5.6276612   3.2491317  10.0000000  )
         5           Mo1 tau(   5) = (   5.6276612   1.6245658  12.2974831  )
         6           Mo1 tau(   6) = (   2.8138306   1.6245658  12.2974831  )
         7           Mo1 tau(   7) = (   7.0345765   4.0614146  12.2974831  )
         8           Mo1 tau(   8) = (   4.2207459   4.0614146  12.2974831  )
         9           Mo1 tau(   9) = (   0.0000000   0.0000000  14.5949661  )
        10           Mo1 tau(  10) = (   2.8138306   0.0000000  14.5949661  )
        11           Mo1 tau(  11) = (   1.4069153   2.4368488  14.5949661  )
        12           Mo1 tau(  12) = (   4.2207459   2.4368488  14.5949661  )
        13           C1  tau(  13) = (   1.4069153   0.0000000  16.8949661  )

     number of k points=    20  Fermi-Dirac smearing, width (Ry)=  0.0110
                       cart. coord. in units 2pi/alat
        k(    1) = (   0.0000000   0.0000000   0.0000000), wk =   0.0555556
        k(    2) = (   0.0000000   0.0341972   0.0000000), wk =   0.1111111
        k(    3) = (   0.0000000   0.0683943   0.0000000), wk =   0.1111111
        k(    4) = (   0.0000000  -0.1025915   0.0000000), wk =   0.0555556
        k(    5) = (   0.0296156  -0.0170986   0.0000000), wk =   0.1111111
        k(    6) = (   0.0296156   0.0170986   0.0000000), wk =   0.1111111
        k(    7) = (   0.0296156   0.0512958   0.0000000), wk =   0.1111111
        k(    8) = (   0.0296156  -0.1196901   0.0000000), wk =   0.1111111
        k(    9) = (   0.0296156  -0.0854929   0.0000000), wk =   0.1111111
        k(   10) = (   0.0296156  -0.0512958   0.0000000), wk =   0.1111111
        k(   11) = (   0.0592312  -0.0341972   0.0000000), wk =   0.1111111
        k(   12) = (   0.0592312   0.0000000   0.0000000), wk =   0.1111111
        k(   13) = (   0.0592312   0.0341972   0.0000000), wk =   0.1111111
        k(   14) = (   0.0592312  -0.1367887   0.0000000), wk =   0.1111111
        k(   15) = (   0.0592312  -0.1025915   0.0000000), wk =   0.1111111
        k(   16) = (   0.0592312  -0.0683943   0.0000000), wk =   0.1111111
        k(   17) = (  -0.0888469   0.0512958   0.0000000), wk =   0.0555556
        k(   18) = (  -0.0888469   0.0854929   0.0000000), wk =   0.1111111
        k(   19) = (  -0.0888469   0.1196901   0.0000000), wk =   0.1111111
        k(   20) = (  -0.0888469  -0.0512958   0.0000000), wk =   0.0555556

     Dense  grid:   541807 G-vectors     FFT dimensions: (  72,  72, 288)

     Smooth grid:   137189 G-vectors     FFT dimensions: (  45,  45, 180)

     Largest allocated arrays     est. size (Mb)     dimensions
        Kohn-Sham Wavefunctions         0.83 Mb     (     564,   96)
        NL pseudopotentials             1.93 Mb     (     564,  224)
        Each V/rho on FFT grid          0.71 Mb     (   46656)
        Each G-vector array             0.13 Mb     (   16923)
        G-vector shells                 0.06 Mb     (    7559)
     Largest temporary arrays     est. size (Mb)     dimensions
        Auxiliary wavefunctions         3.30 Mb     (     564,  384)
        Each subspace H/S matrix        2.25 Mb     (     384,  384)
        Each <psi_i|beta_j> matrix      0.33 Mb     (     224,   96)
        Arrays for rho mixing           7.12 Mb     (   46656,   10)

     Initial potential from superposition of free atoms
     Check: negative starting charge=   -0.004667

     starting charge  171.98720, renormalised to  172.00000

     negative rho (up, down):  4.667E-03 0.000E+00


     ************************************************************************
     *
     * You are using vdW-DF for exchange-correlation in this calculation.
     * Please cite the following three references that made this development
     * possible:
     *
     *   M. Dion, H. Rydberg, E. Schroder, D. C. Langreth, and
     *   B. I. Lundqvist, Phys. Rev. Lett. 92, 246401 (2004).
     *
     *   T. Thonhauser, V. R. Cooper, S. Li, A. Puzder, P. Hyldgaard, and
     *   D. C. Langreth, Phys. Rev. B 76, 125112 (2007).
     *
     *   G. Roman-Perez and J. M. Soler, Phys. Rev. Lett. 103, 096102 (2009).
     *
     *
     * If you are using vdW-DF2, please also cite:
     *
     *   K. Lee, E. D. Murray, L. Kong, B. I. Lundqvist, and
     *   D. C. Langreth, Phys. Rev. B 82, 081101(R) (2010).
     *
     *
     * If you are calculating the stress with vdW-DF, please also cite:
     *
     *   R. Sabatini, E. Kucukbenli, B. Kolb, T. Thonhauser, and
     *   S. de Gironcoli, J. Phys.: Condens. Matter 24, 424209 (2012).
     *
     ************************************************************************

     Carrying out vdW-DF run using the following parameters:

     Nqs =      20    Nr_points =    1024   r_max =   100.000
     q_mesh =
               0.00001000     0.04494208     0.09755937     0.15916263
               0.23128650     0.31572767     0.41458969     0.53033537
               0.66584808     0.82450364     1.01025438     1.22772762
               1.48234092     1.78043706     2.12944203     2.53805004
               3.01644009     3.57652955     4.23227104     5.00000000

     Gradients computed in reciprocal space

     ************************************************************************


 
     Adding external electric field

     Computed dipole along edir(3) : 
        Dipole               -0.0022 Ry au,         -0.0057 Debye
        Dipole field         -0.0000 Ry au
 
        Potential amp.        0.0006 Ry
        Total length         45.3158 bohr
 
     Starting wfc are  160 randomized atomic wfcs

     total cpu time spent up to now is       22.9 secs

     per-process dynamical memory:    48.9 Mb

     Self-consistent Calculation

     iteration #  1     ecut=    36.75 Ry     beta=0.30
     Davidson diagonalization with overlap
     ethr =  1.00E-02,  avg # of iterations =  2.0

     negative rho (up, down):  4.613E-03 0.000E+00
 
     Adding external electric field

     Computed dipole along edir(3) : 
        Dipole                3.8887 Ry au,          9.8842 Debye
        Dipole field          0.0107 Ry au
 
        Potential amp.       -0.9729 Ry
        Total length         45.3158 bohr
 

     total cpu time spent up to now is       59.4 secs

     total energy              =   -1685.25916139 Ry
     Harris-Foulkes estimate   =   -1691.16161619 Ry
     estimated scf accuracy    <      12.14439000 Ry

     iteration #  2     ecut=    36.75 Ry     beta=0.30
     Davidson diagonalization with overlap
     ethr =  7.06E-03,  avg # of iterations = 11.1

     negative rho (up, down):  1.991E-03 0.000E+00
 
     Adding external electric field

     Computed dipole along edir(3) : 
        Dipole               -4.6943 Ry au,        -11.9318 Debye
        Dipole field         -0.0130 Ry au
 
        Potential amp.        1.1745 Ry
        Total length         45.3158 bohr
 

     total cpu time spent up to now is      140.1 secs

     total energy              =   -1653.14531151 Ry
     Harris-Foulkes estimate   =   -1716.77857168 Ry
     estimated scf accuracy    <    2406.14783548 Ry

     iteration #  3     ecut=    36.75 Ry     beta=0.30
     Davidson diagonalization with overlap
     ethr =  7.06E-03,  avg # of iterations =  9.6
 
     Adding external electric field

     Computed dipole along edir(3) : 
        Dipole               -1.8464 Ry au,         -4.6930 Debye
        Dipole field         -0.0051 Ry au
 
        Potential amp.        0.4619 Ry
        Total length         45.3158 bohr
 

     total cpu time spent up to now is      211.7 secs

     total energy              =   -1678.13476140 Ry
     Harris-Foulkes estimate   =   -1701.77020608 Ry
     estimated scf accuracy    <     540.22166577 Ry

     iteration #  4     ecut=    36.75 Ry     beta=0.30
     Davidson diagonalization with overlap
     ethr =  7.06E-03,  avg # of iterations =  6.1
 
     Adding external electric field

     Computed dipole along edir(3) : 
        Dipole               -0.3694 Ry au,         -0.9389 Debye
        Dipole field         -0.0010 Ry au
 
        Potential amp.        0.0924 Ry
        Total length         45.3158 bohr
 

     total cpu time spent up to now is      265.0 secs

     total energy              =   -1689.41790040 Ry
     Harris-Foulkes estimate   =   -1691.71200067 Ry
     estimated scf accuracy    <      75.99481187 Ry

     iteration #  5     ecut=    36.75 Ry     beta=0.30
     Davidson diagonalization with overlap
     ethr =  7.06E-03,  avg # of iterations =  3.0
 
     Adding external electric field

     Computed dipole along edir(3) : 
        Dipole               -0.8299 Ry au,         -2.1094 Debye
        Dipole field         -0.0023 Ry au
 
        Potential amp.        0.2076 Ry
        Total length         45.3158 bohr
 

     total cpu time spent up to now is      300.1 secs

     total energy              =   -1690.39219862 Ry
     Harris-Foulkes estimate   =   -1690.51877878 Ry
     estimated scf accuracy    <       0.91670733 Ry

     iteration #  6     ecut=    36.75 Ry     beta=0.30
     Davidson diagonalization with overlap
     ethr =  5.33E-04,  avg # of iterations =  6.7
 
     Adding external electric field

     Computed dipole along edir(3) : 
        Dipole               -0.9972 Ry au,         -2.5345 Debye
        Dipole field         -0.0028 Ry au
 
        Potential amp.        0.2495 Ry
        Total length         45.3158 bohr
 

     total cpu time spent up to now is      348.4 secs

     total energy              =   -1690.48426694 Ry
     Harris-Foulkes estimate   =   -1690.55178316 Ry
     estimated scf accuracy    <       0.82143510 Ry

     iteration #  7     ecut=    36.75 Ry     beta=0.30
     Davidson diagonalization with overlap
     ethr =  4.78E-04,  avg # of iterations =  3.1
 
     Adding external electric field

     Computed dipole along edir(3) : 
        Dipole               -1.0051 Ry au,         -2.5546 Debye
        Dipole field         -0.0028 Ry au
 
        Potential amp.        0.2515 Ry
        Total length         45.3158 bohr
 

     total cpu time spent up to now is      383.9 secs

     total energy              =   -1690.48952670 Ry
     Harris-Foulkes estimate   =   -1690.54174416 Ry
     estimated scf accuracy    <       0.62023284 Ry

     iteration #  8     ecut=    36.75 Ry     beta=0.30
     Davidson diagonalization with overlap
     ethr =  3.61E-04,  avg # of iterations =  1.4
 
     Adding external electric field

     Computed dipole along edir(3) : 
        Dipole               -1.3278 Ry au,         -3.3748 Debye
        Dipole field         -0.0037 Ry au
 
        Potential amp.        0.3322 Ry
        Total length         45.3158 bohr
 

     total cpu time spent up to now is      416.9 secs

     total energy              =   -1690.49059243 Ry
     Harris-Foulkes estimate   =   -1690.51215614 Ry
     estimated scf accuracy    <       0.12292937 Ry

     iteration #  9     ecut=    36.75 Ry     beta=0.30
     Davidson diagonalization with overlap
     ethr =  7.15E-05,  avg # of iterations =  5.1

     negative rho (up, down):  7.557E-08 0.000E+00
 
     Adding external electric field

     Computed dipole along edir(3) : 
        Dipole               -1.3677 Ry au,         -3.4764 Debye
        Dipole field         -0.0038 Ry au
 
        Potential amp.        0.3422 Ry
        Total length         45.3158 bohr
 

     total cpu time spent up to now is      463.1 secs

     total energy              =   -1690.49126808 Ry
     Harris-Foulkes estimate   =   -1690.51425527 Ry
     estimated scf accuracy    <       0.35263031 Ry

     iteration # 10     ecut=    36.75 Ry     beta=0.30
     Davidson diagonalization with overlap
     ethr =  7.15E-05,  avg # of iterations =  1.4

     negative rho (up, down):  7.171E-07 0.000E+00
 
     Adding external electric field

     Computed dipole along edir(3) : 
        Dipole               -1.3868 Ry au,         -3.5249 Debye
        Dipole field         -0.0038 Ry au
 
        Potential amp.        0.3470 Ry
        Total length         45.3158 bohr
 

     total cpu time spent up to now is      495.9 secs

     total energy              =   -1690.48046981 Ry
     Harris-Foulkes estimate   =   -1690.49499219 Ry
     estimated scf accuracy    <       0.17152218 Ry

     iteration # 11     ecut=    36.75 Ry     beta=0.30
     Davidson diagonalization with overlap
     ethr =  7.15E-05,  avg # of iterations =  3.1

     negative rho (up, down):  2.477E-05 0.000E+00
 
     Adding external electric field

     Computed dipole along edir(3) : 
        Dipole               -1.3950 Ry au,         -3.5458 Debye
        Dipole field         -0.0039 Ry au
 
        Potential amp.        0.3490 Ry
        Total length         45.3158 bohr
 

     total cpu time spent up to now is      531.6 secs

     total energy              =   -1690.48033610 Ry
     Harris-Foulkes estimate   =   -1690.48578868 Ry
     estimated scf accuracy    <       0.04212716 Ry

     iteration # 12     ecut=    36.75 Ry     beta=0.30
     Davidson diagonalization with overlap
     ethr =  2.45E-05,  avg # of iterations =  4.2

     negative rho (up, down):  5.239E-04 0.000E+00
 
     Adding external electric field

     Computed dipole along edir(3) : 
        Dipole               -1.3672 Ry au,         -3.4751 Debye
        Dipole field         -0.0038 Ry au
 
        Potential amp.        0.3421 Ry
        Total length         45.3158 bohr
 

     total cpu time spent up to now is      569.6 secs

     total energy              =   -1690.47960197 Ry
     Harris-Foulkes estimate   =   -1690.48251673 Ry
     estimated scf accuracy    <       0.02063632 Ry

     iteration # 13     ecut=    36.75 Ry     beta=0.30
     Davidson diagonalization with overlap
     ethr =  1.20E-05,  avg # of iterations =  2.8

     negative rho (up, down):  3.323E-02 0.000E+00
 
     Adding external electric field

     Computed dipole along edir(3) : 
        Dipole               -1.0410 Ry au,         -2.6460 Debye
        Dipole field         -0.0029 Ry au
 
        Potential amp.        0.2604 Ry
        Total length         45.3158 bohr
 

     total cpu time spent up to now is      604.9 secs

     total energy              =   -1690.47344251 Ry
     Harris-Foulkes estimate   =   -1690.48227681 Ry
     estimated scf accuracy    <       0.01552302 Ry

     iteration # 14     ecut=    36.75 Ry     beta=0.30
     Davidson diagonalization with overlap
     ethr =  9.03E-06,  avg # of iterations =  3.9

     negative rho (up, down):  1.427E-02 0.000E+00
 
     Adding external electric field

     Computed dipole along edir(3) : 
        Dipole               -0.6760 Ry au,         -1.7182 Debye
        Dipole field         -0.0019 Ry au
 
        Potential amp.        0.1691 Ry
        Total length         45.3158 bohr
 

     total cpu time spent up to now is      645.5 secs

     total energy              =   -1690.47177027 Ry
     Harris-Foulkes estimate   =   -1690.47735120 Ry
     estimated scf accuracy    <       0.00934146 Ry

     iteration # 15     ecut=    36.75 Ry     beta=0.30
     Davidson diagonalization with overlap
     ethr =  5.43E-06,  avg # of iterations =  4.0

     negative rho (up, down):  1.075E-02 0.000E+00
 
     Adding external electric field

     Computed dipole along edir(3) : 
        Dipole               -0.5766 Ry au,         -1.4656 Debye
        Dipole field         -0.0016 Ry au
 
        Potential amp.        0.1443 Ry
        Total length         45.3158 bohr
 

     total cpu time spent up to now is      686.2 secs

     total energy              =   -1690.47195175 Ry
     Harris-Foulkes estimate   =   -1690.47363853 Ry
     estimated scf accuracy    <       0.00851036 Ry

     iteration # 16     ecut=    36.75 Ry     beta=0.30
     Davidson diagonalization with overlap
     ethr =  4.95E-06,  avg # of iterations =  2.2

     negative rho (up, down):  8.426E-03 0.000E+00
 
     Adding external electric field

     Computed dipole along edir(3) : 
        Dipole               -0.4859 Ry au,         -1.2349 Debye
        Dipole field         -0.0013 Ry au
 
        Potential amp.        0.1216 Ry
        Total length         45.3158 bohr
 

     total cpu time spent up to now is      719.9 secs

     total energy              =   -1690.47217961 Ry
     Harris-Foulkes estimate   =   -1690.47270557 Ry
     estimated scf accuracy    <       0.00137281 Ry

     iteration # 17     ecut=    36.75 Ry     beta=0.30
     Davidson diagonalization with overlap
     ethr =  7.98E-07,  avg # of iterations =  5.0

     negative rho (up, down):  7.039E-03 0.000E+00
 
     Adding external electric field

     Computed dipole along edir(3) : 
        Dipole               -0.4625 Ry au,         -1.1755 Debye
        Dipole field         -0.0013 Ry au
 
        Potential amp.        0.1157 Ry
        Total length         45.3158 bohr
 

     total cpu time spent up to now is      768.4 secs

     total energy              =   -1690.47227497 Ry
     Harris-Foulkes estimate   =   -1690.47258757 Ry
     estimated scf accuracy    <       0.00158386 Ry

     iteration # 18     ecut=    36.75 Ry     beta=0.30
     Davidson diagonalization with overlap
     ethr =  7.98E-07,  avg # of iterations =  3.5

     negative rho (up, down):  7.327E-03 0.000E+00
 
     Adding external electric field

     Computed dipole along edir(3) : 
        Dipole               -0.4281 Ry au,         -1.0882 Debye
        Dipole field         -0.0012 Ry au
 
        Potential amp.        0.1071 Ry
        Total length         45.3158 bohr
 

     total cpu time spent up to now is      804.2 secs

     total energy              =   -1690.47219806 Ry
     Harris-Foulkes estimate   =   -1690.47249595 Ry
     estimated scf accuracy    <       0.00307667 Ry

     iteration # 19     ecut=    36.75 Ry     beta=0.30
     Davidson diagonalization with overlap
     ethr =  7.98E-07,  avg # of iterations =  4.2

     negative rho (up, down):  7.087E-03 0.000E+00
 
     Adding external electric field

     Computed dipole along edir(3) : 
        Dipole               -0.4293 Ry au,         -1.0912 Debye
        Dipole field         -0.0012 Ry au
 
        Potential amp.        0.1074 Ry
        Total length         45.3158 bohr
 

     total cpu time spent up to now is      844.6 secs

     total energy              =   -1690.47206738 Ry
     Harris-Foulkes estimate   =   -1690.47261563 Ry
     estimated scf accuracy    <       0.02261688 Ry

     iteration # 20     ecut=    36.75 Ry     beta=0.30
     Davidson diagonalization with overlap
     ethr =  7.98E-07,  avg # of iterations =  4.5

     negative rho (up, down):  6.272E-03 0.000E+00
 
     Adding external electric field

     Computed dipole along edir(3) : 
        Dipole               -0.4098 Ry au,         -1.0417 Debye
        Dipole field         -0.0011 Ry au
 
        Potential amp.        0.1025 Ry
        Total length         45.3158 bohr
 

     total cpu time spent up to now is      883.1 secs

     total energy              =   -1690.47227959 Ry
     Harris-Foulkes estimate   =   -1690.47240638 Ry
     estimated scf accuracy    <       0.00056761 Ry

     iteration # 21     ecut=    36.75 Ry     beta=0.30
     Davidson diagonalization with overlap
     ethr =  3.30E-07,  avg # of iterations =  3.5

     negative rho (up, down):  6.241E-03 0.000E+00
 
     Adding external electric field

     Computed dipole along edir(3) : 
        Dipole               -0.4030 Ry au,         -1.0243 Debye
        Dipole field         -0.0011 Ry au
 
        Potential amp.        0.1008 Ry
        Total length         45.3158 bohr
 

     total cpu time spent up to now is      919.4 secs

     total energy              =   -1690.47229247 Ry
     Harris-Foulkes estimate   =   -1690.47233405 Ry
     estimated scf accuracy    <       0.00011347 Ry

     iteration # 22     ecut=    36.75 Ry     beta=0.30
     Davidson diagonalization with overlap
     ethr =  6.60E-08,  avg # of iterations =  4.0

     negative rho (up, down):  5.246E-03 0.000E+00
 
     Adding external electric field

     Computed dipole along edir(3) : 
        Dipole               -0.3849 Ry au,         -0.9784 Debye
        Dipole field         -0.0011 Ry au
 
        Potential amp.        0.0963 Ry
        Total length         45.3158 bohr
 

     total cpu time spent up to now is      963.6 secs

     total energy              =   -1690.47229695 Ry
     Harris-Foulkes estimate   =   -1690.47235670 Ry
     estimated scf accuracy    <       0.00013252 Ry

     iteration # 23     ecut=    36.75 Ry     beta=0.30
     Davidson diagonalization with overlap
     ethr =  6.60E-08,  avg # of iterations =  1.3

     negative rho (up, down):  4.938E-03 0.000E+00
 
     Adding external electric field

     Computed dipole along edir(3) : 
        Dipole               -0.3804 Ry au,         -0.9668 Debye
        Dipole field         -0.0010 Ry au
 
        Potential amp.        0.0952 Ry
        Total length         45.3158 bohr
 

     total cpu time spent up to now is      996.7 secs

     total energy              =   -1690.47229876 Ry
     Harris-Foulkes estimate   =   -1690.47231144 Ry
     estimated scf accuracy    <       0.00002863 Ry

     iteration # 24     ecut=    36.75 Ry     beta=0.30
     Davidson diagonalization with overlap
     ethr =  1.66E-08,  avg # of iterations =  4.1

     negative rho (up, down):  4.793E-03 0.000E+00
 
     Adding external electric field

     Computed dipole along edir(3) : 
        Dipole               -0.3790 Ry au,         -0.9633 Debye
        Dipole field         -0.0010 Ry au
 
        Potential amp.        0.0948 Ry
        Total length         45.3158 bohr
 

     total cpu time spent up to now is     1040.4 secs

     total energy              =   -1690.47230186 Ry
     Harris-Foulkes estimate   =   -1690.47230574 Ry
     estimated scf accuracy    <       0.00001378 Ry

     iteration # 25     ecut=    36.75 Ry     beta=0.30
     Davidson diagonalization with overlap
     ethr =  8.01E-09,  avg # of iterations =  1.9

     negative rho (up, down):  4.666E-03 0.000E+00

     negative rho (up, down):  4.666E-03 0.000E+00

     negative rho (up, down):  4.666E-03 0.000E+00

     negative rho (up, down):  4.666E-03 0.000E+00

     negative rho (up, down):  4.666E-03 0.000E+00

     negative rho (up, down):  4.666E-03 0.000E+00

     negative rho (up, down):  4.666E-03 0.000E+00

     negative rho (up, down):  4.666E-03 0.000E+00

     negative rho (up, down):  4.666E-03 0.000E+00

     negative rho (up, down):  4.666E-03 0.000E+00

     negative rho (up, down):  4.666E-03 0.000E+00

     negative rho (up, down):  4.666E-03 0.000E+00

     negative rho (up, down):  4.666E-03 0.000E+00

     negative rho (up, down):  4.666E-03 0.000E+00

     negative rho (up, down):  4.666E-03 0.000E+00

     negative rho (up, down):  4.666E-03 0.000E+00

     negative rho (up, down):  4.666E-03 0.000E+00

     negative rho (up, down):  4.666E-03 0.000E+00

     negative rho (up, down):  4.666E-03 0.000E+00

     negative rho (up, down):  4.666E-03 0.000E+00

     negative rho (up, down):  4.666E-03 0.000E+00

     negative rho (up, down):  4.666E-03 0.000E+00

     negative rho (up, down):  4.666E-03 0.000E+00

     negative rho (up, down):  4.666E-03 0.000E+00

     negative rho (up, down):  4.666E-03 0.000E+00

     negative rho (up, down):  4.666E-03 0.000E+00

     negative rho (up, down):  4.666E-03 0.000E+00

     negative rho (up, down):  4.666E-03 0.000E+00

     negative rho (up, down):  4.666E-03 0.000E+00

     negative rho (up, down):  4.666E-03 0.000E+00

     negative rho (up, down):  4.666E-03 0.000E+00

     negative rho (up, down):  4.666E-03 0.000E+00

     negative rho (up, down):  4.666E-03 0.000E+00

     negative rho (up, down):  4.666E-03 0.000E+00

     negative rho (up, down):  4.666E-03 0.000E+00
 
     Adding external electric field

     Computed dipole along edir(3) : 
        Dipole               -0.3780 Ry au,         -0.9608 Debye
        Dipole field         -0.0010 Ry au
 
        Potential amp.        0.0946 Ry
        Total length         45.3158 bohr
 

     total cpu time spent up to now is     1137.2 secs

     End of self-consistent calculation

          k = 0.0000 0.0000 0.0000 ( 17111 PWs)   bands (ev):

   -59.1023 -59.0138 -58.9245 -58.9149 -58.9095 -58.9022 -58.8506 -58.8474
   -58.8440 -58.8110 -58.8089 -58.8039 -33.6235 -33.6200 -33.6185 -33.5423
   -33.5380 -33.5318 -33.5298 -33.4408 -33.4366 -33.4360 -33.1142 -32.9944
   -32.9704 -32.9554 -32.9220 -32.9206 -32.9133 -32.8094 -32.8050 -32.8023
   -32.6897 -32.6875 -32.6864 -32.6840 -32.6828 -32.6816 -32.5977 -32.5794
   -32.5766 -32.5758 -32.5291 -32.5265 -32.4540 -32.4524 -32.3802 -32.3785
    -6.3818  -3.9709  -2.6279  -2.5354  -2.5323  -2.5303  -2.4873  -2.0953
    -2.0797  -2.0775  -1.8763  -1.8729  -1.8634  -1.6300  -1.6208  -1.6201
    -0.4755  -0.4488  -0.4221   0.5151   0.5499   0.5577   0.7464   0.9016
     1.2435   1.2436   1.3621   1.4947   1.5174   1.5836   1.6246   1.6470
     1.6797   1.7120   1.7416   1.8795   1.9470   2.2353   2.4945   2.5436
     3.0638   3.1738   3.2423   3.2557   3.2773   3.3952   3.7762   3.7801

          k = 0.0000 0.0342 0.0000 ( 17130 PWs)   bands (ev):

   -59.0902 -59.0034 -58.9317 -58.9109 -58.9096 -58.9046 -58.8604 -58.8507
   -58.8436 -58.8140 -58.8109 -58.8041 -33.5862 -33.5819 -33.5585 -33.5199
   -33.5027 -33.4991 -33.4853 -33.4051 -33.4010 -33.3753 -33.1127 -33.0314
   -33.0134 -32.9897 -32.9077 -32.9016 -32.8893 -32.8320 -32.8308 -32.7867
   -32.7545 -32.7506 -32.6706 -32.6671 -32.6592 -32.6586 -32.6322 -32.6129
   -32.6118 -32.5850 -32.5645 -32.5462 -32.5035 -32.4681 -32.4430 -32.3931
    -6.3695  -3.7331  -2.4121  -2.3826  -2.3293  -2.3253  -2.2501  -2.0169
    -1.9033  -1.8855  -1.7466  -1.7202  -1.7131  -1.4933  -1.3726  -1.3632
    -0.4065  -0.3805  -0.3709   0.5350   0.5879   0.6418   0.6452   0.8804
     0.9956   1.1298   1.2685   1.4563   1.4596   1.5218   1.6007   1.6041
     1.6558   1.6726   1.7296   1.8790   1.9283   2.1267   2.2354   2.3512
     2.6638   2.7364   2.9779   3.1906   3.2679   3.3130   3.4438   3.6354

          k = 0.0000 0.0684 0.0000 ( 17142 PWs)   bands (ev):

   -59.0568 -58.9753 -58.9629 -58.9136 -58.9098 -58.8929 -58.8846 -58.8508
   -58.8439 -58.8304 -58.8107 -58.8045 -33.4947 -33.4891 -33.4615 -33.4290
   -33.4242 -33.3962 -33.3827 -33.3199 -33.3158 -33.2076 -33.1209 -33.0810
   -33.0754 -33.0666 -32.9041 -32.8966 -32.8730 -32.8627 -32.8616 -32.8431
   -32.8384 -32.7957 -32.7383 -32.7264 -32.7207 -32.7190 -32.6385 -32.6366
   -32.6339 -32.6275 -32.6266 -32.5995 -32.5462 -32.5276 -32.5109 -32.4286
    -6.3463  -3.1036  -2.1618  -1.8798  -1.8486  -1.8477  -1.8143  -1.6247
    -1.4387  -1.4264  -1.3835  -1.2577  -1.2476  -1.1467  -0.7249  -0.7167
    -0.3060  -0.2823  -0.1004   0.0346   0.3598   0.5582   0.6023   0.6919
     0.7678   0.9319   0.9880   1.1484   1.2235   1.2867   1.3750   1.3851
     1.5609   1.7206   1.7654   1.8100   1.9145   2.0054   2.0527   2.1165
     2.1230   2.2987   2.3980   2.4461   2.5561   2.7157   2.9530   3.1606

          k = 0.0000-0.1026 0.0000 ( 17160 PWs)   bands (ev):

   -59.0145 -59.0061 -58.9386 -58.9324 -58.9117 -58.9099 -58.8600 -58.8549
   -58.8509 -58.8430 -58.8106 -58.8046 -33.4236 -33.4140 -33.3974 -33.3936
   -33.3904 -33.3817 -33.2556 -33.2501 -33.2069 -33.1946 -33.1399 -33.1345
   -33.0114 -33.0073 -32.9483 -32.9403 -32.9321 -32.9309 -32.8974 -32.8784
   -32.8212 -32.8192 -32.8084 -32.8060 -32.8057 -32.7950 -32.6706 -32.6692
   -32.6374 -32.6347 -32.5927 -32.5815 -32.5712 -32.5677 -32.4784 -32.4773
    -6.3354  -2.4049  -2.3924  -1.6283  -1.6110  -1.4876  -1.4823  -1.2604
    -1.2566  -1.1064  -1.0799  -0.7557  -0.7239  -0.6293  -0.6109  -0.4633
    -0.4556   0.0061   0.0567   0.1319   0.1746   0.2210   0.2224   0.5645
     0.6911   0.8114   0.9091   0.9426   1.1130   1.1444   1.2026   1.2589
     1.2766   1.3482   1.3776   1.4245   1.5323   1.6428   1.6595   1.8855
     2.0915   2.1510   2.4658   2.5095   2.7929   2.8591   2.8623   2.9735

          k = 0.0296-0.0171 0.0000 ( 17130 PWs)   bands (ev):

   -59.0902 -59.0035 -58.9304 -58.9153 -58.9080 -58.9030 -58.8610 -58.8477
   -58.8462 -58.8149 -58.8088 -58.8051 -33.5859 -33.5831 -33.5576 -33.5199
   -33.5043 -33.4985 -33.4847 -33.4040 -33.4016 -33.3755 -33.1125 -33.0364
   -33.0009 -32.9966 -32.9074 -32.9047 -32.8871 -32.8323 -32.8286 -32.7884
   -32.7533 -32.7513 -32.6722 -32.6670 -32.6588 -32.6581 -32.6310 -32.6143
   -32.6113 -32.5845 -32.5638 -32.5479 -32.5021 -32.4693 -32.4443 -32.3918
    -6.3675  -3.7337  -2.4094  -2.3802  -2.3329  -2.3271  -2.2497  -2.0272
    -1.8947  -1.8851  -1.7414  -1.7229  -1.7155  -1.4965  -1.3695  -1.3642
    -0.4299  -0.3919  -0.3309   0.5348   0.5734   0.6428   0.6564   0.8752
     0.9982   1.1619   1.2671   1.4219   1.4506   1.4798   1.5581   1.6223
     1.6734   1.7057   1.7732   1.8554   1.9283   2.0990   2.2255   2.3998
     2.6710   2.7774   2.9353   3.1585   3.2450   3.2762   3.4994   3.5987

          k = 0.0296 0.0171 0.0000 ( 17130 PWs)   bands (ev):

   -59.0902 -59.0035 -58.9303 -58.9154 -58.9080 -58.9030 -58.8610 -58.8477
   -58.8462 -58.8149 -58.8088 -58.8051 -33.5859 -33.5831 -33.5576 -33.5199
   -33.5044 -33.4984 -33.4847 -33.4040 -33.4016 -33.3755 -33.1125 -33.0364
   -33.0010 -32.9965 -32.9074 -32.9047 -32.8871 -32.8323 -32.8286 -32.7884
   -32.7533 -32.7513 -32.6722 -32.6670 -32.6588 -32.6581 -32.6310 -32.6143
   -32.6113 -32.5845 -32.5638 -32.5479 -32.5021 -32.4693 -32.4443 -32.3918
    -6.3675  -3.7337  -2.4094  -2.3802  -2.3329  -2.3271  -2.2497  -2.0272
    -1.8947  -1.8851  -1.7414  -1.7229  -1.7155  -1.4965  -1.3695  -1.3642
    -0.4299  -0.3919  -0.3309   0.5347   0.5734   0.6428   0.6564   0.8752
     0.9982   1.1619   1.2671   1.4219   1.4506   1.4798   1.5581   1.6223
     1.6734   1.7057   1.7732   1.8554   1.9283   2.0990   2.2255   2.3998
     2.6710   2.7774   2.9353   3.1585   3.2450   3.2762   3.4995   3.5987

          k = 0.0296 0.0513 0.0000 ( 17106 PWs)   bands (ev):

   -59.0675 -58.9842 -58.9445 -58.9306 -58.9001 -58.8919 -58.8732 -58.8679
   -58.8356 -58.8209 -58.8159 -58.8034 -33.5373 -33.4803 -33.4728 -33.4710
   -33.4526 -33.4233 -33.4217 -33.3596 -33.2933 -33.2909 -33.1158 -33.0740
   -33.0671 -33.0428 -32.9382 -32.8820 -32.8772 -32.8696 -32.8560 -32.7975
   -32.7941 -32.7341 -32.7230 -32.7174 -32.7122 -32.6822 -32.6612 -32.6348
   -32.6323 -32.6010 -32.5829 -32.5811 -32.5755 -32.5271 -32.4899 -32.4259
    -6.3500  -3.2938  -2.0987  -2.0944  -1.9673  -1.9419  -1.8216  -1.8001
    -1.7872  -1.4864  -1.4822  -1.4403  -1.3486  -1.1226  -1.1177  -0.8371
    -0.3581  -0.2617  -0.2297   0.2046   0.5589   0.6148   0.6648   0.7050
     0.7736   0.8066   1.1312   1.1713   1.2715   1.3830   1.4624   1.5252
     1.6156   1.6688   1.7820   1.8858   1.9068   1.9843   2.0398   2.1827
     2.3557   2.3861   2.5287   2.6835   2.8297   2.8621   3.0475   3.1074

          k = 0.0296-0.1197 0.0000 ( 17122 PWs)   bands (ev):

   -59.0278 -58.9806 -58.9511 -58.9410 -58.9088 -58.8928 -58.8766 -58.8673
   -58.8405 -58.8281 -58.8202 -58.8021 -33.4398 -33.4133 -33.3802 -33.3767
   -33.3633 -33.3608 -33.2894 -33.2728 -33.2061 -33.1633 -33.1522 -33.1136
   -33.1066 -33.0484 -33.0349 -32.9668 -32.9240 -32.8691 -32.8523 -32.8476
   -32.8464 -32.8178 -32.7994 -32.7635 -32.7537 -32.7234 -32.6857 -32.6765
   -32.6506 -32.6413 -32.5953 -32.5918 -32.5773 -32.5492 -32.5332 -32.4783
    -6.3335  -2.5773  -2.0196  -1.5837  -1.5660  -1.5162  -1.4395  -1.4279
    -1.1374  -1.0745  -1.0488  -0.9729  -0.7073  -0.6968  -0.6588  -0.4698
    -0.2660  -0.0942  -0.0699  -0.0129   0.1742   0.2699   0.3745   0.4209
     0.5306   0.7389   0.7823   0.9177   0.9903   1.0417   1.0883   1.1511
     1.3069   1.3881   1.4096   1.4500   1.6667   1.7764   1.8371   1.9701
     2.0294   2.1525   2.2733   2.5589   2.6955   2.8263   2.9289   2.9546

          k = 0.0296-0.0855 0.0000 ( 17122 PWs)   bands (ev):

   -59.0278 -58.9806 -58.9511 -58.9410 -58.9088 -58.8928 -58.8766 -58.8673
   -58.8405 -58.8281 -58.8202 -58.8021 -33.4398 -33.4133 -33.3802 -33.3767
   -33.3633 -33.3608 -33.2894 -33.2728 -33.2061 -33.1633 -33.1522 -33.1136
   -33.1066 -33.0484 -33.0349 -32.9668 -32.9239 -32.8691 -32.8523 -32.8477
   -32.8463 -32.8178 -32.7994 -32.7635 -32.7537 -32.7234 -32.6857 -32.6765
   -32.6506 -32.6413 -32.5953 -32.5917 -32.5773 -32.5492 -32.5332 -32.4783
    -6.3335  -2.5773  -2.0196  -1.5837  -1.5660  -1.5162  -1.4395  -1.4279
    -1.1374  -1.0745  -1.0488  -0.9729  -0.7073  -0.6968  -0.6588  -0.4698
    -0.2660  -0.0942  -0.0699  -0.0129   0.1742   0.2699   0.3745   0.4209
     0.5306   0.7389   0.7823   0.9177   0.9903   1.0417   1.0883   1.1511
     1.3069   1.3881   1.4096   1.4500   1.6667   1.7764   1.8371   1.9701
     2.0294   2.1525   2.2733   2.5589   2.6955   2.8263   2.9289   2.9546

          k = 0.0296-0.0513 0.0000 ( 17106 PWs)   bands (ev):

   -59.0675 -58.9842 -58.9445 -58.9305 -58.9001 -58.8919 -58.8732 -58.8679
   -58.8357 -58.8208 -58.8159 -58.8034 -33.5373 -33.4803 -33.4727 -33.4710
   -33.4526 -33.4233 -33.4217 -33.3596 -33.2933 -33.2909 -33.1158 -33.0741
   -33.0671 -33.0428 -32.9382 -32.8820 -32.8772 -32.8696 -32.8560 -32.7975
   -32.7941 -32.7341 -32.7230 -32.7174 -32.7122 -32.6822 -32.6612 -32.6348
   -32.6323 -32.6010 -32.5829 -32.5811 -32.5755 -32.5271 -32.4899 -32.4259
    -6.3500  -3.2938  -2.0987  -2.0944  -1.9673  -1.9419  -1.8216  -1.8001
    -1.7872  -1.4864  -1.4822  -1.4403  -1.3486  -1.1226  -1.1177  -0.8371
    -0.3581  -0.2617  -0.2297   0.2046   0.5589   0.6148   0.6648   0.7050
     0.7736   0.8066   1.1312   1.1713   1.2715   1.3830   1.4624   1.5252
     1.6156   1.6687   1.7820   1.8858   1.9068   1.9843   2.0398   2.1827
     2.3557   2.3861   2.5286   2.6835   2.8297   2.8621   3.0476   3.1074

          k = 0.0592-0.0342 0.0000 ( 17142 PWs)   bands (ev):

   -59.0569 -58.9761 -58.9610 -58.9189 -58.9051 -58.8924 -58.8856 -58.8481
   -58.8469 -58.8304 -58.8089 -58.8058 -33.4941 -33.4907 -33.4612 -33.4306
   -33.4241 -33.3951 -33.3836 -33.3186 -33.3166 -33.2066 -33.1214 -33.0843
   -33.0708 -33.0666 -32.9030 -32.8938 -32.8728 -32.8658 -32.8576 -32.8431
   -32.8413 -32.7927 -32.7402 -32.7278 -32.7202 -32.7190 -32.6389 -32.6368
   -32.6344 -32.6300 -32.6256 -32.6002 -32.5462 -32.5273 -32.5117 -32.4274
    -6.3405  -3.1064  -2.1623  -1.8875  -1.8521  -1.8473  -1.8152  -1.6231
    -1.4358  -1.4267  -1.3828  -1.2536  -1.2499  -1.1457  -0.7291  -0.7153
    -0.3208  -0.2796  -0.0699   0.0259   0.3672   0.5636   0.6240   0.7084
     0.7647   0.9182   0.9663   1.1343   1.2337   1.2595   1.3443   1.4092
     1.5770   1.6246   1.7437   1.8665   1.8914   2.0011   2.0268   2.0562
     2.2283   2.3334   2.4043   2.5040   2.5543   2.7305   2.8137   3.1458

          k = 0.0592 0.0000 0.0000 ( 17106 PWs)   bands (ev):

   -59.0675 -58.9843 -58.9415 -58.9341 -58.8987 -58.8924 -58.8732 -58.8680
   -58.8358 -58.8211 -58.8152 -58.8036 -33.5380 -33.4805 -33.4730 -33.4698
   -33.4538 -33.4242 -33.4211 -33.3590 -33.2938 -33.2903 -33.1154 -33.0794
   -33.0608 -33.0437 -32.9356 -32.8833 -32.8792 -32.8646 -32.8581 -32.7970
   -32.7960 -32.7301 -32.7256 -32.7164 -32.7131 -32.6826 -32.6609 -32.6376
   -32.6306 -32.6017 -32.5816 -32.5807 -32.5773 -32.5278 -32.4907 -32.4246
    -6.3462  -3.2954  -2.0977  -2.0931  -1.9703  -1.9413  -1.8195  -1.8019
    -1.7951  -1.4869  -1.4761  -1.4379  -1.3502  -1.1328  -1.1133  -0.8381
    -0.3767  -0.2311  -0.2281   0.1959   0.5612   0.5943   0.6985   0.7212
     0.7850   0.8105   1.0713   1.1586   1.3093   1.3826   1.4648   1.5125
     1.6332   1.6622   1.7389   1.8376   1.9043   2.0099   2.0612   2.1480
     2.3795   2.4285   2.5163   2.6789   2.7468   2.8516   3.0022   3.1639

          k = 0.0592 0.0342 0.0000 ( 17142 PWs)   bands (ev):

   -59.0569 -58.9761 -58.9609 -58.9189 -58.9050 -58.8924 -58.8856 -58.8481
   -58.8469 -58.8304 -58.8089 -58.8058 -33.4940 -33.4907 -33.4612 -33.4306
   -33.4241 -33.3951 -33.3836 -33.3185 -33.3166 -33.2066 -33.1214 -33.0842
   -33.0708 -33.0666 -32.9030 -32.8938 -32.8729 -32.8657 -32.8576 -32.8431
   -32.8413 -32.7927 -32.7402 -32.7278 -32.7202 -32.7190 -32.6389 -32.6368
   -32.6344 -32.6300 -32.6256 -32.6001 -32.5462 -32.5273 -32.5116 -32.4274
    -6.3405  -3.1064  -2.1623  -1.8875  -1.8521  -1.8473  -1.8152  -1.6232
    -1.4358  -1.4267  -1.3828  -1.2536  -1.2499  -1.1457  -0.7291  -0.7153
    -0.3208  -0.2796  -0.0699   0.0259   0.3672   0.5636   0.6240   0.7084
     0.7647   0.9182   0.9663   1.1343   1.2337   1.2595   1.3443   1.4091
     1.5770   1.6246   1.7437   1.8665   1.8914   2.0011   2.0268   2.0562
     2.2283   2.3334   2.4043   2.5040   2.5543   2.7305   2.8137   3.1458

          k = 0.0592-0.1368 0.0000 ( 17122 PWs)   bands (ev):

   -59.0280 -58.9803 -58.9493 -58.9436 -58.9080 -58.8931 -58.8769 -58.8669
   -58.8409 -58.8283 -58.8196 -58.8023 -33.4397 -33.4131 -33.3831 -33.3762
   -33.3638 -33.3601 -33.2899 -33.2722 -33.2071 -33.1632 -33.1530 -33.1108
   -33.1045 -33.0501 -33.0336 -32.9673 -32.9221 -32.8667 -32.8574 -32.8502
   -32.8421 -32.8143 -32.7997 -32.7645 -32.7542 -32.7259 -32.6862 -32.6763
   -32.6516 -32.6414 -32.5948 -32.5926 -32.5771 -32.5504 -32.5322 -32.4775
    -6.3296  -2.5800  -2.0242  -1.5847  -1.5702  -1.5164  -1.4368  -1.4277
    -1.1365  -1.0787  -1.0465  -0.9708  -0.7039  -0.6926  -0.6585  -0.4699
    -0.2663  -0.0997  -0.0635  -0.0124   0.1707   0.2950   0.3557   0.4734
     0.5120   0.6914   0.8271   0.9285   0.9680   1.0074   1.0931   1.1611
     1.2759   1.3527   1.4083   1.4483   1.6586   1.7804   1.8318   1.9225
     2.1020   2.2143   2.2777   2.5064   2.7010   2.8291   2.9107   2.9158

          k = 0.0592-0.1026 0.0000 ( 17100 PWs)   bands (ev):

   -58.9970 -58.9825 -58.9792 -58.9194 -58.9131 -58.9091 -58.8860 -58.8483
   -58.8437 -58.8394 -58.8178 -58.8021 -33.3679 -33.3571 -33.3519 -33.3314
   -33.3242 -33.3204 -33.2474 -33.2380 -33.2353 -33.1492 -33.1406 -33.0875
   -33.0783 -33.0768 -33.0738 -33.0138 -33.0123 -33.0080 -32.8610 -32.8489
   -32.8401 -32.8350 -32.8007 -32.7296 -32.7201 -32.7186 -32.7001 -32.6446
   -32.6433 -32.6384 -32.6234 -32.6213 -32.6169 -32.5466 -32.5441 -32.5404
    -6.3244  -1.9139  -1.9071  -1.8987  -1.1969  -1.1868  -1.1737  -1.1102
    -1.0890  -0.8359  -0.6632  -0.6546  -0.6539  -0.5646  -0.5601  -0.5358
    -0.0940  -0.0612   0.0049   0.0856   0.0915   0.1402   0.2194   0.2386
     0.3973   0.4132   0.4478   0.5035   0.5596   0.5802   0.8615   1.0013
     1.0388   1.1870   1.2083   1.4820   1.6350   1.6886   1.8370   1.9598
     1.9887   2.0798   2.2781   2.3312   2.6371   2.6876   2.9232   3.1475

          k = 0.0592-0.0684 0.0000 ( 17122 PWs)   bands (ev):

   -59.0280 -58.9803 -58.9493 -58.9435 -58.9080 -58.8931 -58.8769 -58.8669
   -58.8409 -58.8284 -58.8196 -58.8023 -33.4397 -33.4131 -33.3830 -33.3762
   -33.3638 -33.3601 -33.2899 -33.2722 -33.2071 -33.1632 -33.1530 -33.1108
   -33.1045 -33.0501 -33.0336 -32.9673 -32.9221 -32.8667 -32.8574 -32.8502
   -32.8421 -32.8143 -32.7997 -32.7645 -32.7543 -32.7259 -32.6862 -32.6763
   -32.6516 -32.6414 -32.5948 -32.5925 -32.5771 -32.5504 -32.5322 -32.4775
    -6.3296  -2.5800  -2.0242  -1.5847  -1.5702  -1.5164  -1.4368  -1.4277
    -1.1364  -1.0787  -1.0465  -0.9708  -0.7039  -0.6926  -0.6585  -0.4699
    -0.2663  -0.0997  -0.0635  -0.0124   0.1708   0.2950   0.3557   0.4734
     0.5120   0.6914   0.8271   0.9285   0.9680   1.0074   1.0931   1.1611
     1.2759   1.3527   1.4083   1.4483   1.6586   1.7804   1.8318   1.9225
     2.1020   2.2143   2.2777   2.5064   2.7010   2.8291   2.9107   2.9158

          k =-0.0888 0.0513 0.0000 ( 17160 PWs)   bands (ev):

   -59.0161 -59.0042 -58.9382 -58.9316 -58.9180 -58.9047 -58.8606 -58.8561
   -58.8474 -58.8454 -58.8089 -58.8059 -33.4204 -33.4182 -33.3977 -33.3916
   -33.3899 -33.3862 -33.2532 -33.2523 -33.2056 -33.1975 -33.1391 -33.1328
   -33.0094 -33.0022 -32.9466 -32.9451 -32.9328 -32.9226 -32.8903 -32.8875
   -32.8232 -32.8209 -32.8087 -32.8081 -32.8023 -32.7967 -32.6753 -32.6681
   -32.6367 -32.6350 -32.5877 -32.5856 -32.5744 -32.5670 -32.4799 -32.4737
    -6.3277  -2.4151  -2.3939  -1.6334  -1.6106  -1.4870  -1.4822  -1.2676
    -1.2549  -1.1076  -1.0793  -0.7414  -0.7277  -0.6235  -0.6101  -0.4630
    -0.4555   0.0220   0.0525   0.1301   0.1987   0.2146   0.2215   0.6275
     0.6734   0.7786   0.8970   1.0107   1.0611   1.1416   1.1522   1.2513
     1.2700   1.2938   1.3762   1.4314   1.4769   1.6078   1.6531   1.9940
     2.0896   2.1026   2.4585   2.6079   2.8384   2.8543   2.8611   2.8984

          k =-0.0888 0.0855 0.0000 ( 17122 PWs)   bands (ev):

   -59.0281 -58.9799 -58.9508 -58.9421 -58.9087 -58.8924 -58.8765 -58.8679
   -58.8402 -58.8286 -58.8196 -58.8023 -33.4403 -33.4126 -33.3821 -33.3774
   -33.3648 -33.3596 -33.2896 -33.2723 -33.2066 -33.1653 -33.1501 -33.1124
   -33.1054 -33.0490 -33.0314 -32.9675 -32.9206 -32.8679 -32.8566 -32.8475
   -32.8457 -32.8147 -32.8002 -32.7643 -32.7547 -32.7248 -32.6864 -32.6761
   -32.6516 -32.6434 -32.5968 -32.5897 -32.5772 -32.5508 -32.5322 -32.4770
    -6.3278  -2.5817  -2.0234  -1.5864  -1.5687  -1.5189  -1.4363  -1.4281
    -1.1352  -1.0749  -1.0506  -0.9685  -0.7085  -0.6924  -0.6610  -0.4732
    -0.2694  -0.0956  -0.0597  -0.0096   0.1825   0.2856   0.3683   0.4678
     0.5200   0.7061   0.8401   0.8778   0.9842   1.0151   1.1057   1.1445
     1.3195   1.3588   1.4051   1.4443   1.5248   1.7581   1.8688   1.9130
     2.0990   2.2252   2.3090   2.5316   2.6743   2.7879   2.9023   2.9588

          k =-0.0888 0.1197 0.0000 ( 17122 PWs)   bands (ev):

   -59.0281 -58.9799 -58.9508 -58.9421 -58.9087 -58.8925 -58.8765 -58.8679
   -58.8402 -58.8286 -58.8196 -58.8023 -33.4403 -33.4126 -33.3821 -33.3773
   -33.3648 -33.3596 -33.2896 -33.2723 -33.2066 -33.1653 -33.1501 -33.1124
   -33.1054 -33.0490 -33.0314 -32.9675 -32.9206 -32.8679 -32.8566 -32.8475
   -32.8457 -32.8147 -32.8002 -32.7643 -32.7547 -32.7248 -32.6864 -32.6761
   -32.6516 -32.6434 -32.5968 -32.5897 -32.5772 -32.5508 -32.5322 -32.4770
    -6.3278  -2.5817  -2.0234  -1.5864  -1.5687  -1.5189  -1.4362  -1.4281
    -1.1352  -1.0749  -1.0506  -0.9685  -0.7085  -0.6924  -0.6610  -0.4732
    -0.2694  -0.0956  -0.0597  -0.0096   0.1825   0.2856   0.3683   0.4678
     0.5200   0.7061   0.8401   0.8778   0.9842   1.0151   1.1057   1.1445
     1.3195   1.3588   1.4051   1.4443   1.5248   1.7581   1.8687   1.9130
     2.0990   2.2252   2.3090   2.5316   2.6743   2.7879   2.9023   2.9588

          k =-0.0888-0.0513 0.0000 ( 17160 PWs)   bands (ev):

   -59.0161 -59.0042 -58.9382 -58.9316 -58.9181 -58.9046 -58.8605 -58.8562
   -58.8474 -58.8454 -58.8089 -58.8059 -33.4204 -33.4182 -33.3977 -33.3916
   -33.3899 -33.3861 -33.2531 -33.2524 -33.2056 -33.1975 -33.1391 -33.1328
   -33.0095 -33.0021 -32.9466 -32.9451 -32.9329 -32.9226 -32.8903 -32.8875
   -32.8231 -32.8209 -32.8087 -32.8081 -32.8023 -32.7967 -32.6754 -32.6681
   -32.6367 -32.6351 -32.5877 -32.5856 -32.5745 -32.5670 -32.4799 -32.4737
    -6.3277  -2.4151  -2.3939  -1.6334  -1.6106  -1.4870  -1.4822  -1.2676
    -1.2549  -1.1076  -1.0793  -0.7413  -0.7277  -0.6235  -0.6101  -0.4631
    -0.4555   0.0220   0.0525   0.1301   0.1987   0.2146   0.2215   0.6275
     0.6734   0.7786   0.8970   1.0107   1.0612   1.1416   1.1522   1.2513
     1.2700   1.2938   1.3762   1.4314   1.4769   1.6078   1.6531   1.9939
     2.0896   2.1026   2.4585   2.6079   2.8384   2.8543   2.8611   2.8984

     the Fermi energy is     1.9599 ev

!    total energy              =   -1690.47229769 Ry
     Harris-Foulkes estimate   =   -1690.47230460 Ry
     estimated scf accuracy    <       0.00000567 Ry

     The total energy is the sum of the following terms:

     one-electron contribution =  -15346.43623639 Ry
     hartree contribution      =    7667.22429157 Ry
     xc contribution           =    -243.29404613 Ry
     ewald contribution        =    6232.14047923 Ry
     electric field correction =       0.00039446 Ry
     smearing contrib. (-TS)   =      -0.10718041 Ry

     convergence has been achieved in  25 iterations
 
 BEEF-vdW xc energy contributions
           1 :   -208.863958991922     
           2 :    190.697813043686     
           3 :   -159.645156867729     
           4 :    123.965476848328     
           5 :   -91.8512619164953     
           6 :    68.8509851568516     
           7 :   -56.6185220513881     
           8 :    53.1960773724451     
           9 :   -54.5108600409220     
          10 :    56.3041010011660     
          11 :   -55.7054693930347     
          12 :    51.9142722430152     
          13 :   -45.9261856409578     
          14 :    39.6093965615910     
          15 :   -34.6420304536560     
          16 :    31.7537756776318     
          17 :   -30.5397775915598     
          18 :    29.8323580229106     
          19 :   -28.3871249689385     
          20 :    25.5128453154482     
          21 :   -21.3575099671463     
          22 :    16.7505842290108     
          23 :   -12.7295486036845     
          24 :    10.0080355006278     
          25 :   -8.65361577743397     
          26 :    8.10684162147129     
          27 :   -7.50417627372707     
          28 :    6.11950926124058     
          29 :   -3.70411640410833     
          30 :   0.567630556743666     
          31 :   -23.9088834394729     
          32 :   -18.3185146476139     

     Forces acting on atoms (Ry/au):


     negative rho (up, down):  4.666E-03 0.000E+00
     atom    1 type  1   force =    -0.00000012    0.00008200   -0.00412163
     atom    2 type  1   force =     0.00000063    0.00140303   -0.00487610
     atom    3 type  1   force =    -0.00013322   -0.00056148   -0.00249523
     atom    4 type  1   force =     0.00013240   -0.00056395   -0.00248982
     atom    5 type  1   force =     0.00055753    0.00074391   -0.00043020
     atom    6 type  1   force =    -0.00055805    0.00074837   -0.00042782
     atom    7 type  1   force =     0.00000034   -0.00275555   -0.00521649
     atom    8 type  1   force =    -0.00000128    0.00121270   -0.00099883
     atom    9 type  1   force =     0.00916516   -0.00008812    0.07426999
     atom   10 type  1   force =    -0.00916280   -0.00008594    0.07426796
     atom   11 type  1   force =     0.00000097    0.00505044    0.01516734
     atom   12 type  1   force =    -0.00000190   -0.00277266    0.00998145
     atom   13 type  2   force =     0.00000035   -0.00241275   -0.15263062

     Total force =     0.186975     Total SCF correction =     0.012515


     entering subroutine stress ...


     negative rho (up, down):  4.666E-03 0.000E+00
          total   stress  (Ry/bohr**3)                   (kbar)     P=  -27.82
  -0.00023264   0.00000000  -0.00000000        -34.22      0.00     -0.00
   0.00000000  -0.00021067  -0.00000290          0.00    -30.99     -0.43
  -0.00000000  -0.00000290  -0.00012408         -0.00     -0.43    -18.25

 !ASE

     Writing output data file calc.save
 
     init_run     :     12.65s CPU     22.53s WALL (       1 calls)
     electrons    :    656.82s CPU   1114.47s WALL (       1 calls)
     forces       :      3.69s CPU      4.79s WALL (       1 calls)
     stress       :      9.81s CPU     11.74s WALL (       1 calls)

     Called by init_run:
     wfcinit      :     10.25s CPU     18.80s WALL (       1 calls)
     potinit      :      1.21s CPU      2.26s WALL (       1 calls)

     Called by electrons:
     c_bands      :    508.48s CPU    846.60s WALL (      25 calls)
     sum_band     :     78.74s CPU    142.54s WALL (      25 calls)
     v_of_rho     :     25.41s CPU     49.15s WALL (      26 calls)
     newd         :     11.91s CPU     12.54s WALL (      26 calls)
     mix_rho      :      1.04s CPU      1.95s WALL (      25 calls)
     vdW_energy   :      3.53s CPU      3.92s WALL (      62 calls)
     vdW_ffts     :     34.28s CPU     73.41s WALL (     126 calls)
     vdW_v        :      7.20s CPU     13.18s WALL (      62 calls)

     Called by c_bands:
     init_us_2    :      1.57s CPU      1.65s WALL (    1060 calls)
     cegterg      :    498.16s CPU    834.74s WALL (     500 calls)

     Called by *egterg:
     h_psi        :    324.98s CPU    643.72s WALL (    2551 calls)
     s_psi        :     15.10s CPU     15.33s WALL (    2551 calls)
     g_psi        :      0.86s CPU      0.87s WALL (    2031 calls)
     cdiaghg      :    100.23s CPU    104.43s WALL (    2531 calls)

     Called by h_psi:
     add_vuspsi   :     15.59s CPU     15.67s WALL (    2551 calls)

     General routines
     calbec       :     28.03s CPU     35.77s WALL (    3091 calls)
     fft          :     52.09s CPU    111.64s WALL (    3819 calls)
     ffts         :      0.20s CPU      0.41s WALL (      51 calls)
     fftw         :    320.45s CPU    689.69s WALL (  291020 calls)
     interpolate  :      0.88s CPU      1.86s WALL (      51 calls)
     davcio       :      0.01s CPU      0.08s WALL (      20 calls)
 
     Parallel routines
     fft_scatter  :    318.56s CPU    742.49s WALL (  294890 calls)
 
     PWSCF        : 11m23.68s CPU    19m14.84s WALL

 
   This run was terminated on:  11:22:50  19Jan2018            

=------------------------------------------------------------------------------=
   JOB DONE.
=------------------------------------------------------------------------------=
Job  /afs/slac/g/suncat/bin/suncat-tsmpirun -x LD_LIBRARY_PATH -wdir /scratch/qe891410_tSUPa pw.x -in pw.inp

TID   HOST_NAME   COMMAND_LINE            STATUS            TERMINATION_TIME
===== ========== ================  =======================  ===================
00000 suncat1009 pw.x -in pw.inp   Done                     01/19/2018 11:22:50
00001 suncat1009 pw.x -in pw.inp   Done                     01/19/2018 11:22:50
00002 suncat1009 pw.x -in pw.inp   Done                     01/19/2018 11:22:50
00003 suncat1009 pw.x -in pw.inp   Done                     01/19/2018 11:22:50
00004 suncat1009 pw.x -in pw.inp   Done                     01/19/2018 11:22:50
00005 suncat1009 pw.x -in pw.inp   Done                     01/19/2018 11:22:50
00006 suncat1009 pw.x -in pw.inp   Done                     01/19/2018 11:22:50
00007 suncat1009 pw.x -in pw.inp   Done                     01/19/2018 11:22:50
00008 suncat1059 pw.x -in pw.inp   Done                     01/19/2018 11:22:50
00009 suncat1059 pw.x -in pw.inp   Done                     01/19/2018 11:22:50
00010 suncat1059 pw.x -in pw.inp   Done                     01/19/2018 11:22:50
00011 suncat1059 pw.x -in pw.inp   Done                     01/19/2018 11:22:50
00012 suncat1059 pw.x -in pw.inp   Done                     01/19/2018 11:22:50
00013 suncat1059 pw.x -in pw.inp   Done                     01/19/2018 11:22:50
00014 suncat1059 pw.x -in pw.inp   Done                     01/19/2018 11:22:50
00015 suncat1059 pw.x -in pw.inp   Done                     01/19/2018 11:22:50
00016 suncat1059 pw.x -in pw.inp   Done                     01/19/2018 11:22:50
00017 suncat1059 pw.x -in pw.inp   Done                     01/19/2018 11:22:50
00018 suncat1059 pw.x -in pw.inp   Done                     01/19/2018 11:22:50
00019 suncat1059 pw.x -in pw.inp   Done                     01/19/2018 11:22:50
00020 suncat1056 pw.x -in pw.inp   Done                     01/19/2018 11:22:50
00021 suncat1056 pw.x -in pw.inp   Done                     01/19/2018 11:22:50
00022 suncat1056 pw.x -in pw.inp   Done                     01/19/2018 11:22:50
00023 suncat1056 pw.x -in pw.inp   Done                     01/19/2018 11:22:50
00024 suncat1056 pw.x -in pw.inp   Done                     01/19/2018 11:22:50
00025 suncat1056 pw.x -in pw.inp   Done                     01/19/2018 11:22:50
00026 suncat1056 pw.x -in pw.inp   Done                     01/19/2018 11:22:50
00027 suncat1056 pw.x -in pw.inp   Done                     01/19/2018 11:22:50
00028 suncat1056 pw.x -in pw.inp   Done                     01/19/2018 11:22:50
00029 suncat1056 pw.x -in pw.inp   Done                     01/19/2018 11:22:50
00030 suncat1056 pw.x -in pw.inp   Done                     01/19/2018 11:22:50
00031 suncat1056 pw.x -in pw.inp   Done                     01/19/2018 11:22:50

     Program PWSCF v.5.1rc2 (svn rev. 11289) starts on 19Jan2018 at 11:22:58 

     This program is part of the open-source Quantum ESPRESSO suite
     for quantum simulation of materials; please cite
         "P. Giannozzi et al., J. Phys.:Condens. Matter 21 395502 (2009);
          URL http://www.quantum-espresso.org", 
     in publications or presentations arising from this work. More details at
     http://www.quantum-espresso.org/quote

     Parallel version (MPI), running on    32 processors
     R & G space division:  proc/nbgrp/npool/nimage =      32
     Reading input from pw.inp
     Message from routine read_cards :
     DEPRECATED: no units specified in CELL_PARAMETERS card

     Current dimensions of program PWSCF are:
     Max number of different atomic species (ntypx) = 10
     Max number of k-points (npk) =  40000
     Max angular momentum in pseudopotentials (lmaxx) =  3
     Presently stress not available with electric field


     **************************************************************************
     Initializing libbeef V0.1.1 with the BEEF-vdW functional.
     Citation: Wellendorff et al., PRB 85, 235149 (2012).
     **************************************************************************


     IMPORTANT: XC functional enforced from input :
     Exchange-correlation      = BEEF-VDW ( 1  4 27 13 2)
     Any further DFT definition will be discarded
     Please, verify this is what you really want


     Subspace diagonalization in iterative solution of the eigenvalue problem:
     a serial algorithm will be used

 
     Parallelization info
     --------------------
     sticks:   dense  smooth     PW     G-vecs:    dense   smooth      PW
     Min          89      35     10                16921     4265     672
     Max          90      36     12                16938     4304     683
     Sum        2869    1147    337               541807   137189   21637
 


     bravais-lattice index     =            0
     lattice parameter (alat)  =       1.8897  a.u.
     unit-cell volume          =    4552.2840 (a.u.)^3
     number of atoms/cell      =           13
     number of atomic types    =            2
     number of electrons       =       172.00
     number of Kohn-Sham states=           96
     kinetic-energy cutoff     =      36.7493  Ry
     charge density cutoff     =     367.4932  Ry
     convergence threshold     =      1.0E-05
     mixing beta               =       0.3000
     number of iterations used =           10  plain     mixing
     Exchange-correlation      = BEEF-VDW ( 1  4 27 13 2)
     nstep                     =           50


     celldm(1)=   1.889726  celldm(2)=   0.000000  celldm(3)=   0.000000
     celldm(4)=   0.000000  celldm(5)=   0.000000  celldm(6)=   0.000000

     crystal axes: (cart. coord. in units of alat)
               a(1) = (   5.627661   0.000000   0.000000 )  
               a(2) = (   2.813831   4.873698   0.000000 )  
               a(3) = (   0.000000   0.000000  24.594966 )  

     reciprocal axes: (cart. coord. in units 2 pi/alat)
               b(1) = (  0.177694 -0.102592  0.000000 )  
               b(2) = (  0.000000  0.205183  0.000000 )  
               b(3) = (  0.000000  0.000000  0.040659 )  


     PseudoPot. # 1 for Mo read from file:
     /afs/slac.stanford.edu/u/if/mamunm/psp/gbrv1.5pbe/Mo.UPF
     MD5 check sum: 30c4dcd161f5d35cd49bb5239c51a633
     Pseudo is Ultrasoft + core correction, Zval = 14.0
     Generated by new atomic code, or converted to UPF format
     Using radial grid of  889 points,  6 beta functions with: 
                l(1) =   0
                l(2) =   0
                l(3) =   1
                l(4) =   1
                l(5) =   2
                l(6) =   2
     Q(r) pseudized with  6 coefficients,  rinner =    1.000   1.000   1.000
                                                       1.000   1.000

     PseudoPot. # 2 for C  read from file:
     /afs/slac.stanford.edu/u/if/mamunm/psp/gbrv1.5pbe/C.UPF
     MD5 check sum: d1aef80898a10debaa0f26306b886e00
     Pseudo is Ultrasoft + core correction, Zval =  4.0
     Generated by new atomic code, or converted to UPF format
     Using radial grid of  721 points,  4 beta functions with: 
                l(1) =   0
                l(2) =   0
                l(3) =   1
                l(4) =   1
     Q(r) pseudized with  8 coefficients,  rinner =    1.100   1.100   1.100


     vdW kernel table read from file vdW_kernel_table
     MD5 check sum: 095c7af220d748ca6e76c0b4c6cfb241

     atomic species   valence    mass     pseudopotential
        Mo1           14.00    95.95000     Mo( 1.00)
        C1             4.00    12.01100     C ( 1.00)

     No symmetry found



   Cartesian axes

     site n.     atom                  positions (alat units)
         1           Mo1 tau(   1) = (   1.4069153   0.8122829  10.0000000  )
         2           Mo1 tau(   2) = (   4.2207459   0.8122829  10.0000000  )
         3           Mo1 tau(   3) = (   2.8138306   3.2491317  10.0000000  )
         4           Mo1 tau(   4) = (   5.6276612   3.2491317  10.0000000  )
         5           Mo1 tau(   5) = (   5.6276612   1.6245658  12.2974831  )
         6           Mo1 tau(   6) = (   2.8138306   1.6245658  12.2974831  )
         7           Mo1 tau(   7) = (   7.0345765   4.0614146  12.2974831  )
         8           Mo1 tau(   8) = (   4.2207459   4.0614146  12.2974831  )
         9           Mo1 tau(   9) = (   2.8373952   4.8734710  14.7859219  )
        10           Mo1 tau(  10) = (   5.6041027   4.8734766  14.7859167  )
        11           Mo1 tau(  11) = (   7.0345790   2.4498340  14.6339629  )
        12           Mo1 tau(  12) = (   4.2207410   2.4297200  14.6206294  )
        13           C1  tau(  13) = (   4.2207468   4.8674941  16.5025370  )

     number of k points=    20  Fermi-Dirac smearing, width (Ry)=  0.0110
                       cart. coord. in units 2pi/alat
        k(    1) = (   0.0000000   0.0000000   0.0000000), wk =   0.0555556
        k(    2) = (   0.0000000   0.0341972   0.0000000), wk =   0.1111111
        k(    3) = (   0.0000000   0.0683943   0.0000000), wk =   0.1111111
        k(    4) = (   0.0000000  -0.1025915   0.0000000), wk =   0.0555556
        k(    5) = (   0.0296156  -0.0170986   0.0000000), wk =   0.1111111
        k(    6) = (   0.0296156   0.0170986   0.0000000), wk =   0.1111111
        k(    7) = (   0.0296156   0.0512958   0.0000000), wk =   0.1111111
        k(    8) = (   0.0296156  -0.1196901   0.0000000), wk =   0.1111111
        k(    9) = (   0.0296156  -0.0854929   0.0000000), wk =   0.1111111
        k(   10) = (   0.0296156  -0.0512958   0.0000000), wk =   0.1111111
        k(   11) = (   0.0592312  -0.0341972   0.0000000), wk =   0.1111111
        k(   12) = (   0.0592312   0.0000000   0.0000000), wk =   0.1111111
        k(   13) = (   0.0592312   0.0341972   0.0000000), wk =   0.1111111
        k(   14) = (   0.0592312  -0.1367887   0.0000000), wk =   0.1111111
        k(   15) = (   0.0592312  -0.1025915   0.0000000), wk =   0.1111111
        k(   16) = (   0.0592312  -0.0683943   0.0000000), wk =   0.1111111
        k(   17) = (  -0.0888469   0.0512958   0.0000000), wk =   0.0555556
        k(   18) = (  -0.0888469   0.0854929   0.0000000), wk =   0.1111111
        k(   19) = (  -0.0888469   0.1196901   0.0000000), wk =   0.1111111
        k(   20) = (  -0.0888469  -0.0512958   0.0000000), wk =   0.0555556

     Dense  grid:   541807 G-vectors     FFT dimensions: (  72,  72, 288)

     Smooth grid:   137189 G-vectors     FFT dimensions: (  45,  45, 180)

     Largest allocated arrays     est. size (Mb)     dimensions
        Kohn-Sham Wavefunctions         0.83 Mb     (     564,   96)
        NL pseudopotentials             1.93 Mb     (     564,  224)
        Each V/rho on FFT grid          0.71 Mb     (   46656)
        Each G-vector array             0.13 Mb     (   16923)
        G-vector shells                 0.06 Mb     (    7559)
     Largest temporary arrays     est. size (Mb)     dimensions
        Auxiliary wavefunctions         3.30 Mb     (     564,  384)
        Each subspace H/S matrix        2.25 Mb     (     384,  384)
        Each <psi_i|beta_j> matrix      0.33 Mb     (     224,   96)
        Arrays for rho mixing           7.12 Mb     (   46656,   10)

     Initial potential from superposition of free atoms
     Check: negative starting charge=   -0.004848

     starting charge  171.98720, renormalised to  172.00000

     negative rho (up, down):  4.849E-03 0.000E+00


     ************************************************************************
     *
     * You are using vdW-DF for exchange-correlation in this calculation.
     * Please cite the following three references that made this development
     * possible:
     *
     *   M. Dion, H. Rydberg, E. Schroder, D. C. Langreth, and
     *   B. I. Lundqvist, Phys. Rev. Lett. 92, 246401 (2004).
     *
     *   T. Thonhauser, V. R. Cooper, S. Li, A. Puzder, P. Hyldgaard, and
     *   D. C. Langreth, Phys. Rev. B 76, 125112 (2007).
     *
     *   G. Roman-Perez and J. M. Soler, Phys. Rev. Lett. 103, 096102 (2009).
     *
     *
     * If you are using vdW-DF2, please also cite:
     *
     *   K. Lee, E. D. Murray, L. Kong, B. I. Lundqvist, and
     *   D. C. Langreth, Phys. Rev. B 82, 081101(R) (2010).
     *
     *
     * If you are calculating the stress with vdW-DF, please also cite:
     *
     *   R. Sabatini, E. Kucukbenli, B. Kolb, T. Thonhauser, and
     *   S. de Gironcoli, J. Phys.: Condens. Matter 24, 424209 (2012).
     *
     ************************************************************************

     Carrying out vdW-DF run using the following parameters:

     Nqs =      20    Nr_points =    1024   r_max =   100.000
     q_mesh =
               0.00001000     0.04494208     0.09755937     0.15916263
               0.23128650     0.31572767     0.41458969     0.53033537
               0.66584808     0.82450364     1.01025438     1.22772762
               1.48234092     1.78043706     2.12944203     2.53805004
               3.01644009     3.57652955     4.23227104     5.00000000

     Gradients computed in reciprocal space

     ************************************************************************


 
     Adding external electric field

     Computed dipole along edir(3) : 
        Dipole               -0.0020 Ry au,         -0.0051 Debye
        Dipole field         -0.0000 Ry au
 
        Potential amp.        0.0005 Ry
        Total length         45.3158 bohr
 
     Starting wfc are  160 randomized atomic wfcs

     total cpu time spent up to now is       22.9 secs

     per-process dynamical memory:    49.5 Mb

     Self-consistent Calculation

     iteration #  1     ecut=    36.75 Ry     beta=0.30
     Davidson diagonalization with overlap
     ethr =  1.00E-02,  avg # of iterations =  2.0

     negative rho (up, down):  4.764E-03 0.000E+00
 
     Adding external electric field

     Computed dipole along edir(3) : 
        Dipole               -0.1443 Ry au,         -0.3668 Debye
        Dipole field         -0.0004 Ry au
 
        Potential amp.        0.0361 Ry
        Total length         45.3158 bohr
 

     total cpu time spent up to now is       59.1 secs

     total energy              =   -1688.49033399 Ry
     Harris-Foulkes estimate   =   -1691.16046588 Ry
     estimated scf accuracy    <       5.57903520 Ry

     iteration #  2     ecut=    36.75 Ry     beta=0.30
     Davidson diagonalization with overlap
     ethr =  3.24E-03,  avg # of iterations =  5.6

     negative rho (up, down):  5.173E-03 0.000E+00
 
     Adding external electric field

     Computed dipole along edir(3) : 
        Dipole               -1.1911 Ry au,         -3.0276 Debye
        Dipole field         -0.0033 Ry au
 
        Potential amp.        0.2980 Ry
        Total length         45.3158 bohr
 

     total cpu time spent up to now is      113.8 secs

     total energy              =   -1686.00663337 Ry
     Harris-Foulkes estimate   =   -1696.51976745 Ry
     estimated scf accuracy    <     103.24327125 Ry

     iteration #  3     ecut=    36.75 Ry     beta=0.30
     Davidson diagonalization with overlap
     ethr =  3.24E-03,  avg # of iterations =  5.0

     negative rho (up, down):  5.034E-03 0.000E+00
 
     Adding external electric field

     Computed dipole along edir(3) : 
        Dipole               -0.2192 Ry au,         -0.5573 Debye
        Dipole field         -0.0006 Ry au
 
        Potential amp.        0.0549 Ry
        Total length         45.3158 bohr
 

     total cpu time spent up to now is      170.2 secs

     total energy              =   -1689.75897508 Ry
     Harris-Foulkes estimate   =   -1691.32430589 Ry
     estimated scf accuracy    <      62.59611511 Ry

     iteration #  4     ecut=    36.75 Ry     beta=0.30
     Davidson diagonalization with overlap
     ethr =  3.24E-03,  avg # of iterations =  4.0

     negative rho (up, down):  4.867E-03 0.000E+00
 
     Adding external electric field

     Computed dipole along edir(3) : 
        Dipole               -0.3161 Ry au,         -0.8035 Debye
        Dipole field         -0.0009 Ry au
 
        Potential amp.        0.0791 Ry
        Total length         45.3158 bohr
 

     total cpu time spent up to now is      208.6 secs

     total energy              =   -1690.59631773 Ry
     Harris-Foulkes estimate   =   -1690.68438613 Ry
     estimated scf accuracy    <       1.79612929 Ry

     iteration #  5     ecut=    36.75 Ry     beta=0.30
     Davidson diagonalization with overlap
     ethr =  1.04E-03,  avg # of iterations =  2.9

     negative rho (up, down):  4.852E-03 0.000E+00
 
     Adding external electric field

     Computed dipole along edir(3) : 
        Dipole               -0.3324 Ry au,         -0.8450 Debye
        Dipole field         -0.0009 Ry au
 
        Potential amp.        0.0832 Ry
        Total length         45.3158 bohr
 

     total cpu time spent up to now is      244.0 secs

     total energy              =   -1690.63820943 Ry
     Harris-Foulkes estimate   =   -1690.65866097 Ry
     estimated scf accuracy    <       0.21668789 Ry

     iteration #  6     ecut=    36.75 Ry     beta=0.30
     Davidson diagonalization with overlap
     ethr =  1.26E-04,  avg # of iterations =  7.3

     negative rho (up, down):  4.887E-03 0.000E+00
 
     Adding external electric field

     Computed dipole along edir(3) : 
        Dipole               -0.3554 Ry au,         -0.9034 Debye
        Dipole field         -0.0010 Ry au
 
        Potential amp.        0.0889 Ry
        Total length         45.3158 bohr
 

     total cpu time spent up to now is      290.6 secs

     total energy              =   -1690.65057985 Ry
     Harris-Foulkes estimate   =   -1690.65978370 Ry
     estimated scf accuracy    <       0.12744630 Ry

     iteration #  7     ecut=    36.75 Ry     beta=0.30
     Davidson diagonalization with overlap
     ethr =  7.41E-05,  avg # of iterations =  2.5

     negative rho (up, down):  4.894E-03 0.000E+00
 
     Adding external electric field

     Computed dipole along edir(3) : 
        Dipole               -0.3761 Ry au,         -0.9559 Debye
        Dipole field         -0.0010 Ry au
 
        Potential amp.        0.0941 Ry
        Total length         45.3158 bohr
 

     total cpu time spent up to now is      324.9 secs

     total energy              =   -1690.65579412 Ry
     Harris-Foulkes estimate   =   -1690.65759990 Ry
     estimated scf accuracy    <       0.02418745 Ry

     iteration #  8     ecut=    36.75 Ry     beta=0.30
     Davidson diagonalization with overlap
     ethr =  1.41E-05,  avg # of iterations =  6.5

     negative rho (up, down):  4.896E-03 0.000E+00
 
     Adding external electric field

     Computed dipole along edir(3) : 
        Dipole               -0.3496 Ry au,         -0.8887 Debye
        Dipole field         -0.0010 Ry au
 
        Potential amp.        0.0875 Ry
        Total length         45.3158 bohr
 

     total cpu time spent up to now is      371.1 secs

     total energy              =   -1690.65720369 Ry
     Harris-Foulkes estimate   =   -1690.65872057 Ry
     estimated scf accuracy    <       0.02174765 Ry

     iteration #  9     ecut=    36.75 Ry     beta=0.30
     Davidson diagonalization with overlap
     ethr =  1.26E-05,  avg # of iterations =  1.9

     negative rho (up, down):  4.902E-03 0.000E+00
 
     Adding external electric field

     Computed dipole along edir(3) : 
        Dipole               -0.3593 Ry au,         -0.9133 Debye
        Dipole field         -0.0010 Ry au
 
        Potential amp.        0.0899 Ry
        Total length         45.3158 bohr
 

     total cpu time spent up to now is      404.6 secs

     total energy              =   -1690.65804434 Ry
     Harris-Foulkes estimate   =   -1690.65818276 Ry
     estimated scf accuracy    <       0.00184440 Ry

     iteration # 10     ecut=    36.75 Ry     beta=0.30
     Davidson diagonalization with overlap
     ethr =  1.07E-06,  avg # of iterations =  5.3

     negative rho (up, down):  4.906E-03 0.000E+00
 
     Adding external electric field

     Computed dipole along edir(3) : 
        Dipole               -0.3637 Ry au,         -0.9245 Debye
        Dipole field         -0.0010 Ry au
 
        Potential amp.        0.0910 Ry
        Total length         45.3158 bohr
 

     total cpu time spent up to now is      454.1 secs

     total energy              =   -1690.65835557 Ry
     Harris-Foulkes estimate   =   -1690.65850865 Ry
     estimated scf accuracy    <       0.00243167 Ry

     iteration # 11     ecut=    36.75 Ry     beta=0.30
     Davidson diagonalization with overlap
     ethr =  1.07E-06,  avg # of iterations =  2.5

     negative rho (up, down):  4.905E-03 0.000E+00
 
     Adding external electric field

     Computed dipole along edir(3) : 
        Dipole               -0.3693 Ry au,         -0.9387 Debye
        Dipole field         -0.0010 Ry au
 
        Potential amp.        0.0924 Ry
        Total length         45.3158 bohr
 

     total cpu time spent up to now is      488.5 secs

     total energy              =   -1690.65842185 Ry
     Harris-Foulkes estimate   =   -1690.65846144 Ry
     estimated scf accuracy    <       0.00046005 Ry

     iteration # 12     ecut=    36.75 Ry     beta=0.30
     Davidson diagonalization with overlap
     ethr =  2.67E-07,  avg # of iterations =  4.3

     negative rho (up, down):  4.902E-03 0.000E+00
 
     Adding external electric field

     Computed dipole along edir(3) : 
        Dipole               -0.3667 Ry au,         -0.9322 Debye
        Dipole field         -0.0010 Ry au
 
        Potential amp.        0.0918 Ry
        Total length         45.3158 bohr
 

     total cpu time spent up to now is      535.4 secs

     total energy              =   -1690.65849362 Ry
     Harris-Foulkes estimate   =   -1690.65855726 Ry
     estimated scf accuracy    <       0.00062682 Ry

     iteration # 13     ecut=    36.75 Ry     beta=0.30
     Davidson diagonalization with overlap
     ethr =  2.67E-07,  avg # of iterations =  1.0

     negative rho (up, down):  4.900E-03 0.000E+00
 
     Adding external electric field

     Computed dipole along edir(3) : 
        Dipole               -0.3657 Ry au,         -0.9295 Debye
        Dipole field         -0.0010 Ry au
 
        Potential amp.        0.0915 Ry
        Total length         45.3158 bohr
 

     total cpu time spent up to now is      568.1 secs

     total energy              =   -1690.65848942 Ry
     Harris-Foulkes estimate   =   -1690.65851545 Ry
     estimated scf accuracy    <       0.00021502 Ry

     iteration # 14     ecut=    36.75 Ry     beta=0.30
     Davidson diagonalization with overlap
     ethr =  1.25E-07,  avg # of iterations =  3.9

     negative rho (up, down):  4.899E-03 0.000E+00
 
     Adding external electric field

     Computed dipole along edir(3) : 
        Dipole               -0.3668 Ry au,         -0.9324 Debye
        Dipole field         -0.0010 Ry au
 
        Potential amp.        0.0918 Ry
        Total length         45.3158 bohr
 

     total cpu time spent up to now is      609.3 secs

     total energy              =   -1690.65850571 Ry
     Harris-Foulkes estimate   =   -1690.65851054 Ry
     estimated scf accuracy    <       0.00004195 Ry

     iteration # 15     ecut=    36.75 Ry     beta=0.30
     Davidson diagonalization with overlap
     ethr =  2.44E-08,  avg # of iterations =  4.3

     negative rho (up, down):  4.898E-03 0.000E+00
 
     Adding external electric field

     Computed dipole along edir(3) : 
        Dipole               -0.3658 Ry au,         -0.9296 Debye
        Dipole field         -0.0010 Ry au
 
        Potential amp.        0.0915 Ry
        Total length         45.3158 bohr
 

     total cpu time spent up to now is      656.8 secs

     total energy              =   -1690.65850696 Ry
     Harris-Foulkes estimate   =   -1690.65852074 Ry
     estimated scf accuracy    <       0.00026873 Ry

     iteration # 16     ecut=    36.75 Ry     beta=0.30
     Davidson diagonalization with overlap
     ethr =  2.44E-08,  avg # of iterations =  3.9

     negative rho (up, down):  4.898E-03 0.000E+00
 
     Adding external electric field

     Computed dipole along edir(3) : 
        Dipole               -0.3655 Ry au,         -0.9290 Debye
        Dipole field         -0.0010 Ry au
 
        Potential amp.        0.0914 Ry
        Total length         45.3158 bohr
 

     total cpu time spent up to now is      693.4 secs

     total energy              =   -1690.65851049 Ry
     Harris-Foulkes estimate   =   -1690.65851231 Ry
     estimated scf accuracy    <       0.00001502 Ry

     iteration # 17     ecut=    36.75 Ry     beta=0.30
     Davidson diagonalization with overlap
     ethr =  8.73E-09,  avg # of iterations =  3.9

     negative rho (up, down):  4.896E-03 0.000E+00

     negative rho (up, down):  4.896E-03 0.000E+00

     negative rho (up, down):  4.896E-03 0.000E+00

     negative rho (up, down):  4.896E-03 0.000E+00

     negative rho (up, down):  4.896E-03 0.000E+00

     negative rho (up, down):  4.896E-03 0.000E+00

[...]
   -32.4324 -32.4128 -32.3869 -32.3637 -32.3376 -32.3022 -32.2479 -32.2058
    -7.6504  -2.4282  -2.0314  -1.6911  -1.4386  -1.4073  -1.2942  -1.2578
    -1.1148  -1.0271  -0.8933  -0.8113  -0.6872  -0.6201  -0.4848  -0.4336
    -0.3255  -0.2177  -0.0177   0.0827   0.2664   0.3883   0.4928   0.5937
     0.6545   0.7348   0.7696   0.9984   1.0644   1.1744   1.2571   1.3191
     1.4033   1.4719   1.5498   1.6214   1.8161   1.8964   2.0480   2.2320
     2.3389   2.5305   2.6182   2.8397   2.9781   3.0664   3.1474   3.2820

          k = 0.0296-0.0513 0.0000 ( 17106 PWs)   bands (ev):

   -58.8487 -58.7620 -58.7278 -58.7031 -58.6794 -58.6643 -58.6505 -58.6312
   -58.6041 -58.5938 -58.5736 -58.5644 -33.4060 -33.3347 -33.2912 -33.2633
   -33.2227 -33.2052 -33.1880 -33.1389 -33.0783 -33.0535 -32.9061 -32.8680
   -32.8369 -32.8139 -32.7564 -32.6710 -32.6620 -32.6499 -32.6183 -32.5988
   -32.5627 -32.5397 -32.5252 -32.5096 -32.4996 -32.4578 -32.4326 -32.4196
   -32.3939 -32.3706 -32.3592 -32.3534 -32.3200 -32.2964 -32.2015 -32.1848
    -7.7530  -3.0290  -2.1195  -1.9208  -1.8657  -1.8129  -1.7310  -1.6353
    -1.5363  -1.5012  -1.3795  -1.2260  -1.1211  -1.0186  -0.9815  -0.7285
    -0.5501  -0.4690   0.0544   0.2618   0.3366   0.4805   0.6418   0.8222
     0.9708   1.0264   1.0993   1.1949   1.3294   1.4517   1.6151   1.6666
     1.7720   1.8613   1.9655   2.1020   2.1676   2.2684   2.3731   2.4879
     2.6826   2.7490   2.8240   2.8709   2.9759   3.1832   3.2829   3.5251

          k = 0.0592-0.0342 0.0000 ( 17142 PWs)   bands (ev):

   -58.8394 -58.7613 -58.7358 -58.6953 -58.6802 -58.6610 -58.6519 -58.6338
   -58.6104 -58.5914 -58.5781 -58.5646 -33.4042 -33.2924 -33.2897 -33.2332
   -33.2027 -33.1812 -33.1585 -33.1074 -33.0732 -32.9941 -32.8922 -32.8633
   -32.8373 -32.8121 -32.7336 -32.6918 -32.6721 -32.6678 -32.6306 -32.6129
   -32.5956 -32.5794 -32.5373 -32.5076 -32.4988 -32.4876 -32.4467 -32.4352
   -32.4181 -32.4018 -32.3845 -32.3585 -32.3164 -32.3028 -32.2202 -32.1713
    -7.7212  -2.8582  -2.1488  -1.8911  -1.6690  -1.6193  -1.6022  -1.5380
    -1.4751  -1.3494  -1.2928  -1.0752  -1.0134  -0.9783  -0.7668  -0.6393
    -0.4894  -0.4095   0.0472   0.2305   0.3223   0.4337   0.5147   0.8112
     0.9414   0.9795   1.1167   1.1497   1.3331   1.3967   1.5183   1.5551
     1.6279   1.7873   1.9279   2.1137   2.1637   2.2893   2.3426   2.4464
     2.4667   2.5462   2.6121   2.7039   2.9191   3.1092   3.2393   3.4845

          k = 0.0592 0.0000 0.0000 ( 17106 PWs)   bands (ev):

   -58.8500 -58.7626 -58.7291 -58.7000 -58.6855 -58.6530 -58.6473 -58.6324
   -58.6111 -58.5898 -58.5770 -58.5648 -33.4290 -33.3259 -33.2819 -33.2589
   -33.2547 -33.2037 -33.1867 -33.1359 -33.0756 -33.0569 -32.8814 -32.8613
   -32.8305 -32.8036 -32.7115 -32.6922 -32.6791 -32.6665 -32.6245 -32.5885
   -32.5693 -32.5311 -32.5101 -32.5005 -32.4890 -32.4647 -32.4491 -32.4140
   -32.3997 -32.3807 -32.3658 -32.3593 -32.3447 -32.2785 -32.2204 -32.1647
    -7.7548  -3.0284  -2.1020  -1.9291  -1.8538  -1.7903  -1.6881  -1.6492
    -1.5869  -1.4922  -1.4260  -1.2995  -1.1136  -1.0276  -0.9637  -0.7459
    -0.5430  -0.4637   0.0167   0.2520   0.3585   0.5195   0.6539   0.8213
     0.8886   0.9709   1.1231   1.1962   1.3946   1.5109   1.6303   1.7030
     1.8383   1.9583   2.0203   2.1073   2.1475   2.2438   2.3346   2.4308
     2.6762   2.7835   2.8113   2.8598   2.9121   3.3021   3.3168   3.4167

          k = 0.0592 0.0342 0.0000 ( 17142 PWs)   bands (ev):

   -58.8394 -58.7613 -58.7358 -58.6953 -58.6802 -58.6610 -58.6520 -58.6338
   -58.6104 -58.5914 -58.5781 -58.5646 -33.4042 -33.2924 -33.2897 -33.2332
   -33.2027 -33.1812 -33.1585 -33.1074 -33.0732 -32.9941 -32.8922 -32.8633
   -32.8373 -32.8121 -32.7336 -32.6918 -32.6721 -32.6678 -32.6306 -32.6129
   -32.5956 -32.5794 -32.5373 -32.5076 -32.4988 -32.4877 -32.4467 -32.4352
   -32.4181 -32.4018 -32.3845 -32.3585 -32.3164 -32.3028 -32.2202 -32.1713
    -7.7212  -2.8582  -2.1488  -1.8911  -1.6690  -1.6193  -1.6022  -1.5380
    -1.4751  -1.3494  -1.2928  -1.0752  -1.0134  -0.9783  -0.7668  -0.6393
    -0.4894  -0.4095   0.0472   0.2304   0.3223   0.4337   0.5147   0.8112
     0.9415   0.9795   1.1167   1.1497   1.3331   1.3967   1.5183   1.5551
     1.6279   1.7873   1.9279   2.1137   2.1637   2.2893   2.3426   2.4464
     2.4667   2.5462   2.6121   2.7038   2.9191   3.1092   3.2393   3.4845

          k = 0.0592-0.1368 0.0000 ( 17122 PWs)   bands (ev):

   -58.8109 -58.7686 -58.7304 -58.7064 -58.6847 -58.6583 -58.6525 -58.6404
   -58.6098 -58.6029 -58.5747 -58.5647 -33.3506 -33.2405 -33.2042 -33.1711
   -33.1500 -33.1270 -33.0737 -33.0479 -32.9830 -32.9530 -32.9266 -32.9031
   -32.8593 -32.8254 -32.8088 -32.7414 -32.7242 -32.6681 -32.6568 -32.6371
   -32.6182 -32.5990 -32.5730 -32.5341 -32.5220 -32.5108 -32.4762 -32.4600
   -32.4386 -32.4146 -32.3908 -32.3598 -32.3494 -32.3130 -32.2532 -32.1924
    -7.6523  -2.4244  -2.0271  -1.6671  -1.4584  -1.3988  -1.3005  -1.2483
    -1.1200  -1.0557  -0.9271  -0.8322  -0.7044  -0.6508  -0.4986  -0.4627
    -0.3244  -0.1767  -0.0128   0.0907   0.2580   0.3253   0.4460   0.6342
     0.7336   0.7922   0.8332   0.9905   1.0734   1.1504   1.2553   1.2990
     1.4019   1.4814   1.5532   1.6384   1.8268   1.9309   2.0509   2.2394
     2.3190   2.5271   2.6131   2.8417   3.0020   3.0737   3.1793   3.2677

          k = 0.0592-0.1026 0.0000 ( 17100 PWs)   bands (ev):

   -58.7840 -58.7749 -58.7438 -58.7043 -58.6890 -58.6637 -58.6503 -58.6318
   -58.6169 -58.6093 -58.5715 -58.5653 -33.3180 -33.1840 -33.1543 -33.1174
   -33.1104 -33.0778 -33.0466 -33.0147 -32.9824 -32.9613 -32.9440 -32.8812
   -32.8724 -32.8422 -32.8331 -32.7783 -32.7735 -32.7682 -32.6688 -32.6521
   -32.6331 -32.5873 -32.5681 -32.5314 -32.5189 -32.4992 -32.4751 -32.4578
   -32.4457 -32.4143 -32.3920 -32.3852 -32.3517 -32.3225 -32.3186 -32.1975
    -7.6169  -2.1596  -1.6757  -1.6636  -1.4255  -1.1964  -1.0727  -1.0161
    -0.9759  -0.8955  -0.8553  -0.6181  -0.5074  -0.3868  -0.3451  -0.3095
    -0.2497  -0.0357   0.0619   0.1227   0.1987   0.2213   0.3675   0.4421
     0.5551   0.5897   0.6262   0.6395   0.7771   0.8247   0.8969   0.9636
     1.3837   1.4205   1.4452   1.4585   1.5579   1.8196   1.9891   2.1698
     2.2605   2.4779   2.6197   2.7198   2.8459   3.0166   3.3497   3.4769

          k = 0.0592-0.0684 0.0000 ( 17122 PWs)   bands (ev):

   -58.8109 -58.7686 -58.7304 -58.7064 -58.6847 -58.6583 -58.6525 -58.6404
   -58.6098 -58.6029 -58.5748 -58.5646 -33.3506 -33.2405 -33.2042 -33.1711
   -33.1500 -33.1270 -33.0737 -33.0478 -32.9830 -32.9530 -32.9267 -32.9031
   -32.8593 -32.8254 -32.8088 -32.7414 -32.7242 -32.6681 -32.6567 -32.6371
   -32.6182 -32.5990 -32.5730 -32.5341 -32.5220 -32.5108 -32.4762 -32.4600
   -32.4386 -32.4146 -32.3908 -32.3598 -32.3494 -32.3130 -32.2532 -32.1924
    -7.6523  -2.4244  -2.0271  -1.6671  -1.4583  -1.3988  -1.3005  -1.2483
    -1.1200  -1.0557  -0.9271  -0.8322  -0.7045  -0.6508  -0.4986  -0.4627
    -0.3244  -0.1767  -0.0128   0.0907   0.2580   0.3253   0.4460   0.6342
     0.7336   0.7923   0.8332   0.9905   1.0734   1.1504   1.2553   1.2990
     1.4019   1.4814   1.5532   1.6384   1.8268   1.9309   2.0509   2.2394
     2.3190   2.5271   2.6131   2.8417   3.0020   3.0737   3.1793   3.2677

          k =-0.0888 0.0513 0.0000 ( 17160 PWs)   bands (ev):

   -58.8025 -58.7865 -58.7264 -58.6931 -58.6855 -58.6680 -58.6525 -58.6285
   -58.6225 -58.5952 -58.5784 -58.5650 -33.3635 -33.2286 -33.2218 -33.1980
   -33.1609 -33.1471 -33.0635 -33.0083 -32.9958 -32.9476 -32.9095 -32.8632
   -32.8314 -32.8027 -32.7357 -32.7204 -32.7115 -32.7020 -32.6947 -32.6666
   -32.6214 -32.5968 -32.5950 -32.5829 -32.5673 -32.5263 -32.4822 -32.4545
   -32.4429 -32.4064 -32.3914 -32.3649 -32.3462 -32.2636 -32.2593 -32.1827
    -7.6538  -2.4011  -2.1439  -1.7766  -1.4842  -1.3656  -1.2561  -1.2031
    -1.0874  -1.0233  -0.9665  -0.9205  -0.6677  -0.5765  -0.4730  -0.4454
    -0.3135  -0.2850  -0.0925   0.1213   0.3280   0.4017   0.4463   0.5434
     0.8120   0.8751   1.0019   1.0630   1.1417   1.2047   1.3548   1.4057
     1.4220   1.5182   1.5817   1.6487   1.7377   1.8284   1.9815   2.1734
     2.3155   2.5460   2.7542   2.8237   3.0268   3.1027   3.2635   3.3802

          k =-0.0888 0.0855 0.0000 ( 17122 PWs)   bands (ev):

   -58.8126 -58.7681 -58.7294 -58.7072 -58.6824 -58.6641 -58.6511 -58.6269
   -58.6213 -58.6006 -58.5756 -58.5650 -33.3655 -33.2337 -33.1935 -33.1788
   -33.1574 -33.1291 -33.0816 -33.0521 -32.9837 -32.9435 -32.9164 -32.8927
   -32.8526 -32.8169 -32.8033 -32.7570 -32.7172 -32.6630 -32.6515 -32.6418
   -32.6173 -32.5876 -32.5714 -32.5580 -32.5206 -32.5144 -32.4789 -32.4590
   -32.4334 -32.4254 -32.3841 -32.3729 -32.3436 -32.3077 -32.2670 -32.1840
    -7.6532  -2.4255  -2.0137  -1.6689  -1.4515  -1.3662  -1.3068  -1.2067
    -1.1469  -1.0829  -1.0001  -0.8723  -0.7059  -0.6141  -0.5122  -0.4618
    -0.3453  -0.2024  -0.0055   0.1158   0.2119   0.3272   0.5113   0.6655
     0.6858   0.7776   0.8212   0.9862   1.0583   1.1957   1.2769   1.3054
     1.4113   1.5157   1.5891   1.7383   1.8525   1.9316   2.0110   2.2275
     2.2810   2.5106   2.6293   2.8562   2.9853   3.0640   3.1700   3.2320

          k =-0.0888 0.1197 0.0000 ( 17122 PWs)   bands (ev):

   -58.8126 -58.7681 -58.7293 -58.7072 -58.6824 -58.6641 -58.6511 -58.6269
   -58.6213 -58.6006 -58.5756 -58.5650 -33.3655 -33.2337 -33.1935 -33.1789
   -33.1574 -33.1291 -33.0816 -33.0521 -32.9837 -32.9435 -32.9164 -32.8927
   -32.8526 -32.8170 -32.8033 -32.7570 -32.7172 -32.6630 -32.6515 -32.6418
   -32.6173 -32.5876 -32.5714 -32.5580 -32.5206 -32.5144 -32.4789 -32.4590
   -32.4334 -32.4254 -32.3840 -32.3729 -32.3436 -32.3077 -32.2670 -32.1840
    -7.6532  -2.4255  -2.0137  -1.6689  -1.4515  -1.3662  -1.3068  -1.2067
    -1.1469  -1.0829  -1.0001  -0.8723  -0.7059  -0.6141  -0.5122  -0.4618
    -0.3453  -0.2024  -0.0055   0.1158   0.2119   0.3272   0.5113   0.6655
     0.6858   0.7776   0.8212   0.9862   1.0583   1.1957   1.2769   1.3054
     1.4113   1.5157   1.5891   1.7383   1.8525   1.9316   2.0110   2.2275
     2.2810   2.5106   2.6292   2.8562   2.9853   3.0640   3.1700   3.2320

          k =-0.0888-0.0513 0.0000 ( 17160 PWs)   bands (ev):

   -58.8025 -58.7865 -58.7264 -58.6932 -58.6855 -58.6680 -58.6525 -58.6285
   -58.6226 -58.5952 -58.5783 -58.5651 -33.3635 -33.2286 -33.2218 -33.1980
   -33.1610 -33.1471 -33.0635 -33.0083 -32.9958 -32.9476 -32.9095 -32.8632
   -32.8315 -32.8027 -32.7357 -32.7204 -32.7115 -32.7020 -32.6947 -32.6667
   -32.6214 -32.5967 -32.5950 -32.5829 -32.5673 -32.5263 -32.4822 -32.4545
   -32.4429 -32.4064 -32.3914 -32.3649 -32.3462 -32.2636 -32.2593 -32.1827
    -7.6538  -2.4011  -2.1439  -1.7766  -1.4841  -1.3656  -1.2561  -1.2031
    -1.0874  -1.0233  -0.9665  -0.9205  -0.6677  -0.5765  -0.4730  -0.4454
    -0.3135  -0.2850  -0.0925   0.1213   0.3280   0.4017   0.4463   0.5434
     0.8120   0.8751   1.0019   1.0630   1.1417   1.2047   1.3548   1.4057
     1.4220   1.5182   1.5817   1.6487   1.7377   1.8284   1.9815   2.1734
     2.3155   2.5460   2.7542   2.8238   3.0268   3.1027   3.2635   3.3803

     the Fermi energy is     2.2222 ev

!    total energy              =   -1690.81834445 Ry
     Harris-Foulkes estimate   =   -1690.81834838 Ry
     estimated scf accuracy    <       0.00000226 Ry

     The total energy is the sum of the following terms:

     one-electron contribution =  -15533.05450550 Ry
     hartree contribution      =    7761.64109447 Ry
     xc contribution           =    -243.92253103 Ry
     ewald contribution        =    6324.60842744 Ry
     electric field correction =       0.00008179 Ry
     smearing contrib. (-TS)   =      -0.09091163 Ry

     convergence has been achieved in  19 iterations
 
 BEEF-vdW xc energy contributions
           1 :   -209.490902813480     
           2 :    191.496515743628     
           3 :   -160.646460315675     
           4 :    125.052395866051     
           5 :   -92.8393013310645     
           6 :    69.5673128144173     
           7 :   -56.9578757625096     
           8 :    53.1495332409434     
           9 :   -54.1615974862966     
          10 :    55.7935458458032     
          11 :   -55.1829337596585     
          12 :    51.4891959508456     
          13 :   -45.6423672649206     
          14 :    39.4474779467449     
          15 :   -34.5429525909055     
          16 :    31.6542893390059     
          17 :   -30.4063027836285     
          18 :    29.6769718619984     
          19 :   -28.2597222368021     
          20 :    25.4786118045050     
          21 :   -21.4710601988893     
          22 :    17.0333746430046     
          23 :   -13.1558063594680     
          24 :    10.5059862876590     
          25 :   -9.12597237769950     
          26 :    8.46704219471229     
          27 :   -7.71377939423229     
          28 :    6.20707722179486     
          29 :   -3.75223708886716     
          30 :   0.671457004235663     
          31 :   -23.9527763875121     
          32 :   -18.4040661186316     

     Forces acting on atoms (Ry/au):


     negative rho (up, down):  5.045E-03 0.000E+00
     atom    1 type  1   force =     0.00000165    0.00317517   -0.00402302
     atom    2 type  1   force =     0.00000002   -0.00003692   -0.00120063
     atom    3 type  1   force =    -0.00111904   -0.00432071   -0.00568861
     atom    4 type  1   force =     0.00111776   -0.00432007   -0.00568615
     atom    5 type  1   force =    -0.01181758   -0.00406378   -0.01088328
     atom    6 type  1   force =     0.01181724   -0.00406450   -0.01088438
     atom    7 type  1   force =     0.00000209    0.01525754   -0.01567612
     atom    8 type  1   force =    -0.00000215   -0.00280986    0.05516863
     atom    9 type  1   force =     0.00017164    0.00114582   -0.00098840
     atom   10 type  1   force =    -0.00017159    0.00114854   -0.00098827
     atom   11 type  1   force =     0.00000232    0.00147987    0.00039459
     atom   12 type  1   force =    -0.00000287   -0.00107512    0.00084574
     atom   13 type  2   force =     0.00000052   -0.00151598   -0.00039009

     Total force =     0.064983     Total SCF correction =     0.007955
     SCF correction compared to forces is large: reduce conv_thr to get better values


     entering subroutine stress ...


     negative rho (up, down):  5.045E-03 0.000E+00
          total   stress  (Ry/bohr**3)                   (kbar)     P=   -8.85
  -0.00010442   0.00000000   0.00000000        -15.36      0.00      0.00
   0.00000000  -0.00008763   0.00000553          0.00    -12.89      0.81
   0.00000000   0.00000553   0.00001165          0.00      0.81      1.71

 !ASE

     Writing output data file calc.save
 
     init_run     :     12.72s CPU     22.56s WALL (       1 calls)
     electrons    :    510.50s CPU    847.39s WALL (       1 calls)
     forces       :      3.72s CPU      4.96s WALL (       1 calls)
     stress       :      9.88s CPU     12.02s WALL (       1 calls)

     Called by init_run:
     wfcinit      :     10.40s CPU     18.82s WALL (       1 calls)
     potinit      :      1.17s CPU      2.25s WALL (       1 calls)

     Called by electrons:
     c_bands      :    389.02s CPU    630.63s WALL (      19 calls)
     sum_band     :     61.21s CPU    107.40s WALL (      19 calls)
     v_of_rho     :     19.54s CPU     37.56s WALL (      20 calls)
     newd         :      9.11s CPU      9.57s WALL (      20 calls)
     mix_rho      :      0.72s CPU      1.43s WALL (      19 calls)
     vdW_energy   :      3.18s CPU      3.54s WALL (      56 calls)
     vdW_ffts     :     31.16s CPU     66.25s WALL (     114 calls)
     vdW_v        :      6.40s CPU     11.56s WALL (      56 calls)

     Called by c_bands:
     init_us_2    :      1.21s CPU      1.22s WALL (     820 calls)
     cegterg      :    381.21s CPU    621.49s WALL (     380 calls)

     Called by *egterg:
     h_psi        :    247.59s CPU    475.90s WALL (    1873 calls)
     s_psi        :     11.21s CPU     11.34s WALL (    1873 calls)
     g_psi        :      0.63s CPU      0.63s WALL (    1473 calls)
     cdiaghg      :     82.85s CPU     85.49s WALL (    1853 calls)

     Called by h_psi:
     add_vuspsi   :     11.52s CPU     11.54s WALL (    1873 calls)

     General routines
     calbec       :     21.46s CPU     27.78s WALL (    2293 calls)
     fft          :     46.87s CPU     99.69s WALL (    3423 calls)
     ffts         :      0.13s CPU      0.32s WALL (      39 calls)
     fftw         :    246.74s CPU    513.00s WALL (  217388 calls)
     interpolate  :      0.67s CPU      1.41s WALL (      39 calls)
     davcio       :      0.00s CPU      0.04s WALL (      20 calls)
 
     Parallel routines
     fft_scatter  :    253.39s CPU    571.25s WALL (  220850 calls)
 
     PWSCF        :  8m57.42s CPU    14m48.18s WALL

 
   This run was terminated on:  17:21:16  19Jan2018            

=------------------------------------------------------------------------------=
   JOB DONE.
=------------------------------------------------------------------------------=
Job  /afs/slac/g/suncat/bin/suncat-tsmpirun -x LD_LIBRARY_PATH -wdir /scratch/qe891410_tSUPa pw.x -in pw.inp

TID   HOST_NAME   COMMAND_LINE            STATUS            TERMINATION_TIME
===== ========== ================  =======================  ===================
00000 suncat1009 pw.x -in pw.inp   Done                     01/19/2018 17:21:16
00001 suncat1009 pw.x -in pw.inp   Done                     01/19/2018 17:21:16
00002 suncat1009 pw.x -in pw.inp   Done                     01/19/2018 17:21:16
00003 suncat1009 pw.x -in pw.inp   Done                     01/19/2018 17:21:16
00004 suncat1009 pw.x -in pw.inp   Done                     01/19/2018 17:21:16
00005 suncat1009 pw.x -in pw.inp   Done                     01/19/2018 17:21:16
00006 suncat1009 pw.x -in pw.inp   Done                     01/19/2018 17:21:16
00007 suncat1009 pw.x -in pw.inp   Done                     01/19/2018 17:21:16
00008 suncat1059 pw.x -in pw.inp   Done                     01/19/2018 17:21:16
00009 suncat1059 pw.x -in pw.inp   Done                     01/19/2018 17:21:16
00010 suncat1059 pw.x -in pw.inp   Done                     01/19/2018 17:21:16
00011 suncat1059 pw.x -in pw.inp   Done                     01/19/2018 17:21:16
00012 suncat1059 pw.x -in pw.inp   Done                     01/19/2018 17:21:16
00013 suncat1059 pw.x -in pw.inp   Done                     01/19/2018 17:21:16
00014 suncat1059 pw.x -in pw.inp   Done                     01/19/2018 17:21:16
00015 suncat1059 pw.x -in pw.inp   Done                     01/19/2018 17:21:16
00016 suncat1059 pw.x -in pw.inp   Done                     01/19/2018 17:21:16
00017 suncat1059 pw.x -in pw.inp   Done                     01/19/2018 17:21:16
00018 suncat1059 pw.x -in pw.inp   Done                     01/19/2018 17:21:16
00019 suncat1059 pw.x -in pw.inp   Done                     01/19/2018 17:21:16
00020 suncat1056 pw.x -in pw.inp   Done                     01/19/2018 17:21:16
00021 suncat1056 pw.x -in pw.inp   Done                     01/19/2018 17:21:16
00022 suncat1056 pw.x -in pw.inp   Done                     01/19/2018 17:21:16
00023 suncat1056 pw.x -in pw.inp   Done                     01/19/2018 17:21:16
00024 suncat1056 pw.x -in pw.inp   Done                     01/19/2018 17:21:16
00025 suncat1056 pw.x -in pw.inp   Done                     01/19/2018 17:21:16
00026 suncat1056 pw.x -in pw.inp   Done                     01/19/2018 17:21:16
00027 suncat1056 pw.x -in pw.inp   Done                     01/19/2018 17:21:16
00028 suncat1056 pw.x -in pw.inp   Done                     01/19/2018 17:21:16
00029 suncat1056 pw.x -in pw.inp   Done                     01/19/2018 17:21:16
00030 suncat1056 pw.x -in pw.inp   Done                     01/19/2018 17:21:16
00031 suncat1056 pw.x -in pw.inp   Done                     01/19/2018 17:21:16
