  python dir          : /u/if/mamunm/src/espresso
  espresso dir        : /nfs/slac/g/suncatfs/sw/espv18/espresso-dynpy-beef/bin
  pseudo dir          : /u/if/mamunm/psp/gbrv1.5pbe
  ase-espresso py git : GITVERSION



     Program PWSCF v.5.1rc2 (svn rev. 11289) starts on 23Apr2018 at 14: 3:21 

     This program is part of the open-source Quantum ESPRESSO suite
     for quantum simulation of materials; please cite
         "P. Giannozzi et al., J. Phys.:Condens. Matter 21 395502 (2009);
          URL http://www.quantum-espresso.org", 
     in publications or presentations arising from this work. More details at
     http://www.quantum-espresso.org/quote

     Parallel version (MPI), running on    36 processors
     K-points division:     npool     =       3
     R & G space division:  proc/nbgrp/npool/nimage =      12
     Reading input from pw.inp
     Message from routine read_cards :
     DEPRECATED: no units specified in CELL_PARAMETERS card

     Current dimensions of program PWSCF are:
     Max number of different atomic species (ntypx) = 10
     Max number of k-points (npk) =  40000
     Max angular momentum in pseudopotentials (lmaxx) =  3
     Presently stress not available with electric field


     **************************************************************************
     Initializing libbeef V0.1.1 with the BEEF-vdW functional.
     Citation: Wellendorff et al., PRB 85, 235149 (2012).
     **************************************************************************


     IMPORTANT: XC functional enforced from input :
     Exchange-correlation      = BEEF-VDW ( 1  4 27 13 2)
     Any further DFT definition will be discarded
     Please, verify this is what you really want


     Subspace diagonalization in iterative solution of the eigenvalue problem:
     a serial algorithm will be used

 
     Parallelization info
     --------------------
     sticks:   dense  smooth     PW     G-vecs:    dense   smooth      PW
     Min         226      89     26                42660    10745    1708
     Max         227      90     27                42689    10802    1729
     Sum        2713    1069    313               511963   129143   20533
 


     bravais-lattice index     =            0
     lattice parameter (alat)  =       1.8897  a.u.
     unit-cell volume          =    4301.6107 (a.u.)^3
     number of atoms/cell      =           14
     number of atomic types    =            3
     number of electrons       =       187.00
     number of Kohn-Sham states=          103
     kinetic-energy cutoff     =      36.7493  Ry
     charge density cutoff     =     367.4932  Ry
     convergence threshold     =      1.0E-05
     mixing beta               =       0.3000
     number of iterations used =           10  plain     mixing
     Exchange-correlation      = BEEF-VDW ( 1  4 27 13 2)
     nstep                     =           50


     celldm(1)=   1.889726  celldm(2)=   0.000000  celldm(3)=   0.000000
     celldm(4)=   0.000000  celldm(5)=   0.000000  celldm(6)=   0.000000

     crystal axes: (cart. coord. in units of alat)
               a(1) = (   5.483647   0.000000   0.000000 )  
               a(2) = (   2.741823   4.748977   0.000000 )  
               a(3) = (   0.000000   0.000000  24.477379 )  

     reciprocal axes: (cart. coord. in units 2 pi/alat)
               b(1) = (  0.182360 -0.105286  0.000000 )  
               b(2) = (  0.000000  0.210572  0.000000 )  
               b(3) = (  0.000000  0.000000  0.040854 )  


     PseudoPot. # 1 for Tc read from file:
     /u/if/mamunm/psp/gbrv1.5pbe/Tc.UPF
     MD5 check sum: 9eb49e5b028550b2339a02317eb7b844
     Pseudo is Ultrasoft + core correction, Zval = 15.0
     Generated by new atomic code, or converted to UPF format
     Using radial grid of  965 points,  6 beta functions with: 
                l(1) =   0
                l(2) =   0
                l(3) =   1
                l(4) =   1
                l(5) =   2
                l(6) =   2
     Q(r) pseudized with  8 coefficients,  rinner =    1.300   1.300   1.300
                                                       1.300   1.300

     PseudoPot. # 2 for S  read from file:
     /u/if/mamunm/psp/gbrv1.5pbe/S.UPF
     MD5 check sum: 88d86576ff6df21479756cfb9bdac1df
     Pseudo is Ultrasoft + core correction, Zval =  6.0
     Generated by new atomic code, or converted to UPF format
     Using radial grid of  907 points,  6 beta functions with: 
                l(1) =   0
                l(2) =   0
                l(3) =   1
                l(4) =   1
                l(5) =   2
                l(6) =   2
     Q(r) pseudized with  8 coefficients,  rinner =    1.300   1.300   1.300
                                                       1.300   1.300

     PseudoPot. # 3 for H  read from file:
     /u/if/mamunm/psp/gbrv1.5pbe/H.UPF
     MD5 check sum: 761ae9a214b05c3daf00ab9f6b793d6f
     Pseudo is Ultrasoft, Zval =  1.0
     Generated by new atomic code, or converted to UPF format
     Using radial grid of  615 points,  2 beta functions with: 
                l(1) =   0
                l(2) =   0
     Q(r) pseudized with  8 coefficients,  rinner =    0.700

     vdW kernel table read from file vdW_kernel_table
     MD5 check sum: 095c7af220d748ca6e76c0b4c6cfb241

     atomic species   valence    mass     pseudopotential
        Tc1           15.00    97.90721     Tc( 1.00)
        S1             6.00    32.06000     S ( 1.00)
        H1             1.00     1.00800     H ( 1.00)

     No symmetry found



   Cartesian axes

     site n.     atom                  positions (alat units)
         1           Tc1 tau(   1) = (   1.3709117   0.7914962  10.0000000  )
         2           Tc1 tau(   2) = (   4.1127351   0.7914962  10.0000000  )
         3           Tc1 tau(   3) = (   2.7418234   3.1659850  10.0000000  )
         4           Tc1 tau(   4) = (   5.4836469   3.1659850  10.0000000  )
         5           Tc1 tau(   5) = (   5.4836469   1.5829925  12.2386895  )
         6           Tc1 tau(   6) = (   2.7418234   1.5829925  12.2386895  )
         7           Tc1 tau(   7) = (   6.8545586   3.9574812  12.2386895  )
         8           Tc1 tau(   8) = (   4.1127351   3.9574812  12.2386895  )
         9           Tc1 tau(   9) = (   0.0000000   0.0000000  14.4773789  )
        10           Tc1 tau(  10) = (   2.7418234   0.0000000  14.4773789  )
        11           Tc1 tau(  11) = (   1.3709117   2.3744887  14.4773789  )
        12           Tc1 tau(  12) = (   4.1127351   2.3744887  14.4773789  )
        13           S1  tau(  13) = (   2.7418234   1.5829925  16.1153789  )
        14           H1  tau(  14) = (   2.7418234   1.5829925  17.3653789  )

     number of k points=    20  Fermi-Dirac smearing, width (Ry)=  0.0110
                       cart. coord. in units 2pi/alat
        k(    1) = (   0.0000000   0.0000000   0.0000000), wk =   0.0555556
        k(    2) = (   0.0000000   0.0350953   0.0000000), wk =   0.1111111
        k(    3) = (   0.0000000   0.0701905   0.0000000), wk =   0.1111111
        k(    4) = (   0.0000000  -0.1052858   0.0000000), wk =   0.0555556
        k(    5) = (   0.0303934  -0.0175476   0.0000000), wk =   0.1111111
        k(    6) = (   0.0303934   0.0175476   0.0000000), wk =   0.1111111
        k(    7) = (   0.0303934   0.0526429   0.0000000), wk =   0.1111111
        k(    8) = (   0.0303934  -0.1228335   0.0000000), wk =   0.1111111
        k(    9) = (   0.0303934  -0.0877382   0.0000000), wk =   0.1111111
        k(   10) = (   0.0303934  -0.0526429   0.0000000), wk =   0.1111111
        k(   11) = (   0.0607868  -0.0350953   0.0000000), wk =   0.1111111
        k(   12) = (   0.0607868   0.0000000   0.0000000), wk =   0.1111111
        k(   13) = (   0.0607868   0.0350953   0.0000000), wk =   0.1111111
        k(   14) = (   0.0607868  -0.1403811   0.0000000), wk =   0.1111111
        k(   15) = (   0.0607868  -0.1052858   0.0000000), wk =   0.1111111
        k(   16) = (   0.0607868  -0.0701905   0.0000000), wk =   0.1111111
        k(   17) = (  -0.0911802   0.0526429   0.0000000), wk =   0.0555556
        k(   18) = (  -0.0911802   0.0877382   0.0000000), wk =   0.1111111
        k(   19) = (  -0.0911802   0.1228335   0.0000000), wk =   0.1111111
        k(   20) = (  -0.0911802  -0.0526429   0.0000000), wk =   0.0555556

     Dense  grid:   511963 G-vectors     FFT dimensions: (  64,  64, 288)

     Smooth grid:   129143 G-vectors     FFT dimensions: (  40,  40, 180)

     Largest allocated arrays     est. size (Mb)     dimensions
        Kohn-Sham Wavefunctions         2.20 Mb     (    1398,  103)
        NL pseudopotentials             5.03 Mb     (    1398,  236)
        Each V/rho on FFT grid          1.50 Mb     (   98304)
        Each G-vector array             0.33 Mb     (   42662)
        G-vector shells                 0.11 Mb     (   14814)
     Largest temporary arrays     est. size (Mb)     dimensions
        Auxiliary wavefunctions         8.79 Mb     (    1398,  412)
        Each subspace H/S matrix        2.59 Mb     (     412,  412)
        Each <psi_i|beta_j> matrix      0.37 Mb     (     236,  103)
        Arrays for rho mixing          15.00 Mb     (   98304,   10)

     Check: negative/imaginary core charge=   -0.000022    0.000000

     Initial potential from superposition of free atoms
     Check: negative starting charge=   -1.504578

     starting charge  174.99962, renormalised to  187.00000

     negative rho (up, down):  1.608E+00 0.000E+00


     ************************************************************************
     *
     * You are using vdW-DF for exchange-correlation in this calculation.
     * Please cite the following three references that made this development
     * possible:
     *
     *   M. Dion, H. Rydberg, E. Schroder, D. C. Langreth, and
     *   B. I. Lundqvist, Phys. Rev. Lett. 92, 246401 (2004).
     *
     *   T. Thonhauser, V. R. Cooper, S. Li, A. Puzder, P. Hyldgaard, and
     *   D. C. Langreth, Phys. Rev. B 76, 125112 (2007).
     *
     *   G. Roman-Perez and J. M. Soler, Phys. Rev. Lett. 103, 096102 (2009).
     *
     *
     * If you are using vdW-DF2, please also cite:
     *
     *   K. Lee, E. D. Murray, L. Kong, B. I. Lundqvist, and
     *   D. C. Langreth, Phys. Rev. B 82, 081101(R) (2010).
     *
     *
     * If you are calculating the stress with vdW-DF, please also cite:
     *
     *   R. Sabatini, E. Kucukbenli, B. Kolb, T. Thonhauser, and
     *   S. de Gironcoli, J. Phys.: Condens. Matter 24, 424209 (2012).
     *
     ************************************************************************

     Carrying out vdW-DF run using the following parameters:

     Nqs =      20    Nr_points =    1024   r_max =   100.000
     q_mesh =
               0.00001000     0.04494208     0.09755937     0.15916263
               0.23128650     0.31572767     0.41458969     0.53033537
               0.66584808     0.82450364     1.01025438     1.22772762
               1.48234092     1.78043706     2.12944203     2.53805004
               3.01644009     3.57652955     4.23227104     5.00000000

     Gradients computed in reciprocal space

     ************************************************************************


 
     Adding external electric field

     Computed dipole along edir(3) : 
        Dipole               -3.6781 Ry au,         -9.3489 Debye
        Dipole field         -0.0107 Ry au
 
        Potential amp.        0.9692 Ry
        Total length         45.0992 bohr
 
     Starting wfc are  161 randomized atomic wfcs

     total cpu time spent up to now is        8.1 secs

     Self-consistent Calculation

     iteration #  1     ecut=    36.75 Ry     beta=0.30
     Davidson diagonalization with overlap
     ethr =  1.00E-02,  avg # of iterations =  7.8

     negative rho (up, down):  1.599E+00 0.000E+00
 
     Adding external electric field

     Computed dipole along edir(3) : 
        Dipole               76.5770 Ry au,        194.6393 Debye
        Dipole field          0.2237 Ry au
 
        Potential amp.      -20.1779 Ry
        Total length         45.0992 bohr
 

     total cpu time spent up to now is       23.5 secs

     total energy              =   -1833.99967872 Ry
     Harris-Foulkes estimate   =   -2123.04019249 Ry
     estimated scf accuracy    <     607.09916263 Ry

     iteration #  2     ecut=    36.75 Ry     beta=0.30
     Davidson diagonalization with overlap
     c_bands:  1 eigenvalues not converged
     ethr =  1.00E-02,  avg # of iterations = 17.9

     negative rho (up, down):  1.565E+00 0.000E+00
 
     Adding external electric field

     Computed dipole along edir(3) : 
        Dipole               11.3946 Ry au,         28.9621 Debye
        Dipole field          0.0333 Ry au
 
        Potential amp.       -3.0024 Ry
        Total length         45.0992 bohr
 

     total cpu time spent up to now is       70.6 secs

     total energy              =   -1714.55950233 Ry
     Harris-Foulkes estimate   =   -3258.97649659 Ry
     estimated scf accuracy    <   24883.07127458 Ry

     iteration #  3     ecut=    36.75 Ry     beta=0.30
     Davidson diagonalization with overlap
     ethr =  1.00E-02,  avg # of iterations = 17.3

     negative rho (up, down):  1.559E+00 0.000E+00
 
     Adding external electric field

     Computed dipole along edir(3) : 
        Dipole               12.9689 Ry au,         32.9637 Debye
        Dipole field          0.0379 Ry au
 
        Potential amp.       -3.4173 Ry
        Total length         45.0992 bohr
 

     total cpu time spent up to now is      106.1 secs

     total energy              =   -2049.62590825 Ry
     Harris-Foulkes estimate   =   -2394.71683736 Ry
     estimated scf accuracy    <    4132.90060043 Ry

     iteration #  4     ecut=    36.75 Ry     beta=0.30
     Davidson diagonalization with overlap
     ethr =  1.00E-02,  avg # of iterations =  8.0

     negative rho (up, down):  1.570E+00 0.000E+00
 
     Adding external electric field

     Computed dipole along edir(3) : 
        Dipole                8.5160 Ry au,         21.6456 Debye
        Dipole field          0.0249 Ry au
 
        Potential amp.       -2.2440 Ry
        Total length         45.0992 bohr
 

     total cpu time spent up to now is      127.3 secs

     total energy              =   -2127.13558631 Ry
     Harris-Foulkes estimate   =   -2159.39386734 Ry
     estimated scf accuracy    <     507.06092172 Ry

     iteration #  5     ecut=    36.75 Ry     beta=0.30
     Davidson diagonalization with overlap
     ethr =  1.00E-02,  avg # of iterations =  6.3

     negative rho (up, down):  1.579E+00 0.000E+00
 
     Adding external electric field

     Computed dipole along edir(3) : 
        Dipole                7.7409 Ry au,         19.6755 Debye
        Dipole field          0.0226 Ry au
 
        Potential amp.       -2.0397 Ry
        Total length         45.0992 bohr
 

     total cpu time spent up to now is      142.7 secs

     total energy              =   -2127.28309061 Ry
     Harris-Foulkes estimate   =   -2138.81396090 Ry
     estimated scf accuracy    <     132.79111235 Ry

     iteration #  6     ecut=    36.75 Ry     beta=0.30
     Davidson diagonalization with overlap
     ethr =  1.00E-02,  avg # of iterations =  5.5

     negative rho (up, down):  1.576E+00 0.000E+00
 
     Adding external electric field

     Computed dipole along edir(3) : 
        Dipole                7.2588 Ry au,         18.4500 Debye
        Dipole field          0.0212 Ry au
 
        Potential amp.       -1.9127 Ry
        Total length         45.0992 bohr
 

     total cpu time spent up to now is      154.7 secs

     total energy              =   -2131.25787273 Ry
     Harris-Foulkes estimate   =   -2132.50774893 Ry
     estimated scf accuracy    <      27.98507224 Ry

     iteration #  7     ecut=    36.75 Ry     beta=0.30
     Davidson diagonalization with overlap
     ethr =  1.00E-02,  avg # of iterations =  1.0

     negative rho (up, down):  1.579E+00 0.000E+00
 
     Adding external electric field

     Computed dipole along edir(3) : 
        Dipole                6.7707 Ry au,         17.2095 Debye
        Dipole field          0.0198 Ry au
 
        Potential amp.       -1.7841 Ry
        Total length         45.0992 bohr
 

     total cpu time spent up to now is      164.3 secs

     total energy              =   -2131.30439828 Ry
     Harris-Foulkes estimate   =   -2131.71421285 Ry
     estimated scf accuracy    <       6.19606846 Ry

     iteration #  8     ecut=    36.75 Ry     beta=0.30
     Davidson diagonalization with overlap
     ethr =  3.31E-03,  avg # of iterations =  3.2

     negative rho (up, down):  1.586E+00 0.000E+00
 
     Adding external electric field

     Computed dipole along edir(3) : 
        Dipole                3.8042 Ry au,          9.6692 Debye
        Dipole field          0.0111 Ry au
 
        Potential amp.       -1.0024 Ry
        Total length         45.0992 bohr
 

     total cpu time spent up to now is      175.1 secs

     total energy              =   -2129.65255713 Ry
     Harris-Foulkes estimate   =   -2131.54918011 Ry
     estimated scf accuracy    <       7.75101513 Ry

     iteration #  9     ecut=    36.75 Ry     beta=0.30
     Davidson diagonalization with overlap
     ethr =  3.31E-03,  avg # of iterations =  3.6

     negative rho (up, down):  1.589E+00 0.000E+00
 
     Adding external electric field

     Computed dipole along edir(3) : 
        Dipole                2.6364 Ry au,          6.7010 Debye
        Dipole field          0.0077 Ry au
 
        Potential amp.       -0.6947 Ry
        Total length         45.0992 bohr
 

     total cpu time spent up to now is      186.1 secs

     total energy              =   -2129.49654487 Ry
     Harris-Foulkes estimate   =   -2130.07492863 Ry
     estimated scf accuracy    <       5.21122797 Ry

     iteration # 10     ecut=    36.75 Ry     beta=0.30
     Davidson diagonalization with overlap
     ethr =  2.79E-03,  avg # of iterations =  1.1

     negative rho (up, down):  1.592E+00 0.000E+00
 
     Adding external electric field

     Computed dipole along edir(3) : 
        Dipole                1.8410 Ry au,          4.6793 Debye
        Dipole field          0.0054 Ry au
 
        Potential amp.       -0.4851 Ry
        Total length         45.0992 bohr
 

     total cpu time spent up to now is      195.7 secs

     total energy              =   -2129.31666508 Ry
     Harris-Foulkes estimate   =   -2129.62054810 Ry
     estimated scf accuracy    <       2.11243682 Ry

     iteration # 11     ecut=    36.75 Ry     beta=0.30
     Davidson diagonalization with overlap
     ethr =  1.13E-03,  avg # of iterations =  4.2

     negative rho (up, down):  1.592E+00 0.000E+00
 
     Adding external electric field

     Computed dipole along edir(3) : 
        Dipole                1.7597 Ry au,          4.4727 Debye
        Dipole field          0.0051 Ry au
 
        Potential amp.       -0.4637 Ry
        Total length         45.0992 bohr
 

     total cpu time spent up to now is      206.4 secs

     total energy              =   -2129.36306337 Ry
     Harris-Foulkes estimate   =   -2129.42367125 Ry
     estimated scf accuracy    <       3.78752403 Ry

     iteration # 12     ecut=    36.75 Ry     beta=0.30
     Davidson diagonalization with overlap
     ethr =  1.13E-03,  avg # of iterations =  1.0

     negative rho (up, down):  1.588E+00 0.000E+00
 
     Adding external electric field

     Computed dipole along edir(3) : 
        Dipole                0.6013 Ry au,          1.5284 Debye
        Dipole field          0.0018 Ry au
 
        Potential amp.       -0.1584 Ry
        Total length         45.0992 bohr
 

     total cpu time spent up to now is      215.7 secs

     total energy              =   -2128.69550593 Ry
     Harris-Foulkes estimate   =   -2129.38399841 Ry
     estimated scf accuracy    <       3.32054420 Ry

     iteration # 13     ecut=    36.75 Ry     beta=0.30
     Davidson diagonalization with overlap
     ethr =  1.13E-03,  avg # of iterations =  6.0

     negative rho (up, down):  1.597E+00 0.000E+00
 
     Adding external electric field

     Computed dipole along edir(3) : 
        Dipole               -1.2879 Ry au,         -3.2735 Debye
        Dipole field         -0.0038 Ry au
 
        Potential amp.        0.3394 Ry
        Total length         45.0992 bohr
 

     total cpu time spent up to now is      229.4 secs

     total energy              =   -2127.20668512 Ry
     Harris-Foulkes estimate   =   -2129.90769470 Ry
     estimated scf accuracy    <      54.20662457 Ry

     iteration # 14     ecut=    36.75 Ry     beta=0.30
     Davidson diagonalization with overlap
     ethr =  1.13E-03,  avg # of iterations =  6.2

     negative rho (up, down):  1.595E+00 0.000E+00
 
     Adding external electric field

     Computed dipole along edir(3) : 
        Dipole               -0.6081 Ry au,         -1.5457 Debye
        Dipole field         -0.0018 Ry au
 
        Potential amp.        0.1602 Ry
        Total length         45.0992 bohr
 

     total cpu time spent up to now is      244.5 secs

     total energy              =   -2129.17726184 Ry
     Harris-Foulkes estimate   =   -2129.61834884 Ry
     estimated scf accuracy    <      30.57842197 Ry

     iteration # 15     ecut=    36.75 Ry     beta=0.30
     Davidson diagonalization with overlap
     ethr =  1.13E-03,  avg # of iterations =  3.7

     negative rho (up, down):  1.589E+00 0.000E+00
 
     Adding external electric field

     Computed dipole along edir(3) : 
        Dipole                0.6311 Ry au,          1.6041 Debye
        Dipole field          0.0018 Ry au
 
        Potential amp.       -0.1663 Ry
        Total length         45.0992 bohr
 

     total cpu time spent up to now is      255.2 secs

     total energy              =   -2128.72087227 Ry
     Harris-Foulkes estimate   =   -2129.27877782 Ry
     estimated scf accuracy    <      13.34008578 Ry

     iteration # 16     ecut=    36.75 Ry     beta=0.30
     Davidson diagonalization with overlap
     ethr =  1.13E-03,  avg # of iterations =  5.2

     negative rho (up, down):  1.591E+00 0.000E+00
 
     Adding external electric field

     Computed dipole along edir(3) : 
        Dipole                0.0876 Ry au,          0.2227 Debye
        Dipole field          0.0003 Ry au
 
        Potential amp.       -0.0231 Ry
        Total length         45.0992 bohr
 

     total cpu time spent up to now is      267.2 secs

     total energy              =   -2129.01232711 Ry
     Harris-Foulkes estimate   =   -2129.07956213 Ry
     estimated scf accuracy    <       0.29817896 Ry

     iteration # 17     ecut=    36.75 Ry     beta=0.30
     Davidson diagonalization with overlap
     ethr =  1.59E-04,  avg # of iterations =  6.8

     negative rho (up, down):  1.593E+00 0.000E+00
 
     Adding external electric field

     Computed dipole along edir(3) : 
        Dipole                0.0028 Ry au,          0.0071 Debye
        Dipole field          0.0000 Ry au
 
        Potential amp.       -0.0007 Ry
        Total length         45.0992 bohr
 

     total cpu time spent up to now is      280.4 secs

     total energy              =   -2129.03975232 Ry
     Harris-Foulkes estimate   =   -2129.04468288 Ry
     estimated scf accuracy    <       0.05126132 Ry

     iteration # 18     ecut=    36.75 Ry     beta=0.30
     Davidson diagonalization with overlap
     ethr =  2.74E-05,  avg # of iterations =  5.0

     negative rho (up, down):  1.594E+00 0.000E+00
 
     Adding external electric field

     Computed dipole along edir(3) : 
        Dipole                0.0179 Ry au,          0.0455 Debye
        Dipole field          0.0001 Ry au
 
        Potential amp.       -0.0047 Ry
        Total length         45.0992 bohr
 

     total cpu time spent up to now is      292.3 secs

     total energy              =   -2129.04324620 Ry
     Harris-Foulkes estimate   =   -2129.04450031 Ry
     estimated scf accuracy    <       0.01737897 Ry

     iteration # 19     ecut=    36.75 Ry     beta=0.30
     Davidson diagonalization with overlap
     ethr =  9.29E-06,  avg # of iterations =  3.5

     negative rho (up, down):  1.603E+00 0.000E+00
 
     Adding external electric field

     Computed dipole along edir(3) : 
        Dipole                0.1255 Ry au,          0.3190 Debye
        Dipole field          0.0004 Ry au
 
        Potential amp.       -0.0331 Ry
        Total length         45.0992 bohr
 

     total cpu time spent up to now is      303.7 secs

     total energy              =   -2129.04316677 Ry
     Harris-Foulkes estimate   =   -2129.04461338 Ry
     estimated scf accuracy    <       0.01147428 Ry

     iteration # 20     ecut=    36.75 Ry     beta=0.30
     Davidson diagonalization with overlap
     ethr =  6.14E-06,  avg # of iterations =  2.6

     negative rho (up, down):  1.606E+00 0.000E+00
 
     Adding external electric field

     Computed dipole along edir(3) : 
        Dipole                0.1821 Ry au,          0.4628 Debye
        Dipole field          0.0005 Ry au
 
        Potential amp.       -0.0480 Ry
        Total length         45.0992 bohr
 

     total cpu time spent up to now is      314.2 secs

     total energy              =   -2129.04342032 Ry
     Harris-Foulkes estimate   =   -2129.04364006 Ry
     estimated scf accuracy    <       0.00519826 Ry

     iteration # 21     ecut=    36.75 Ry     beta=0.30
     Davidson diagonalization with overlap
     ethr =  2.78E-06,  avg # of iterations =  4.5

     negative rho (up, down):  1.603E+00 0.000E+00
 
     Adding external electric field

     Computed dipole along edir(3) : 
        Dipole                0.2205 Ry au,          0.5604 Debye
        Dipole field          0.0006 Ry au
 
        Potential amp.       -0.0581 Ry
        Total length         45.0992 bohr
 

     total cpu time spent up to now is      325.1 secs

     total energy              =   -2129.04300751 Ry
     Harris-Foulkes estimate   =   -2129.04361290 Ry
     estimated scf accuracy    <       0.00432501 Ry

     iteration # 22     ecut=    36.75 Ry     beta=0.30
     Davidson diagonalization with overlap
     ethr =  2.31E-06,  avg # of iterations =  3.6

     negative rho (up, down):  1.604E+00 0.000E+00
 
     Adding external electric field

     Computed dipole along edir(3) : 
        Dipole                0.2182 Ry au,          0.5545 Debye
        Dipole field          0.0006 Ry au
 
        Potential amp.       -0.0575 Ry
        Total length         45.0992 bohr
 

     total cpu time spent up to now is      335.9 secs

     total energy              =   -2129.04322194 Ry
     Harris-Foulkes estimate   =   -2129.04317643 Ry
     estimated scf accuracy    <       0.00185351 Ry

     iteration # 23     ecut=    36.75 Ry     beta=0.30
     Davidson diagonalization with overlap
     c_bands:  1 eigenvalues not converged
     ethr =  9.91E-07,  avg # of iterations =  4.3

     negative rho (up, down):  1.603E+00 0.000E+00
 
     Adding external electric field

     Computed dipole along edir(3) : 
        Dipole                0.2371 Ry au,          0.6025 Debye
        Dipole field          0.0007 Ry au
 
        Potential amp.       -0.0625 Ry
        Total length         45.0992 bohr
 

     total cpu time spent up to now is      346.9 secs

     total energy              =   -2129.04311950 Ry
     Harris-Foulkes estimate   =   -2129.04326191 Ry
     estimated scf accuracy    <       0.00219746 Ry

     iteration # 24     ecut=    36.75 Ry     beta=0.30
     Davidson diagonalization with overlap
     ethr =  9.91E-07,  avg # of iterations =  1.0

     negative rho (up, down):  1.599E+00 0.000E+00
 
     Adding external electric field

     Computed dipole along edir(3) : 
        Dipole                0.2697 Ry au,          0.6854 Debye
        Dipole field          0.0008 Ry au
 
        Potential amp.       -0.0711 Ry
        Total length         45.0992 bohr
 

     total cpu time spent up to now is      356.9 secs

     total energy              =   -2129.04285203 Ry
     Harris-Foulkes estimate   =   -2129.04309758 Ry
     estimated scf accuracy    <       0.00121726 Ry

     iteration # 25     ecut=    36.75 Ry     beta=0.30
     Davidson diagonalization with overlap
     ethr =  6.51E-07,  avg # of iterations =  2.3

     negative rho (up, down):  1.592E+00 0.000E+00
 
     Adding external electric field

     Computed dipole along edir(3) : 
        Dipole                0.3690 Ry au,          0.9380 Debye
        Dipole field          0.0011 Ry au
 
        Potential amp.       -0.0972 Ry
        Total length         45.0992 bohr
 

     total cpu time spent up to now is      367.8 secs

     total energy              =   -2129.04254723 Ry
     Harris-Foulkes estimate   =   -2129.04269232 Ry
     estimated scf accuracy    <       0.00062820 Ry

     iteration # 26     ecut=    36.75 Ry     beta=0.30
     Davidson diagonalization with overlap
     ethr =  3.36E-07,  avg # of iterations =  5.6

     negative rho (up, down):  1.591E+00 0.000E+00
 
     Adding external electric field

     Computed dipole along edir(3) : 
        Dipole                0.3765 Ry au,          0.9570 Debye
        Dipole field          0.0011 Ry au
 
        Potential amp.       -0.0992 Ry
        Total length         45.0992 bohr
 

     total cpu time spent up to now is      380.9 secs

     total energy              =   -2129.04262496 Ry
     Harris-Foulkes estimate   =   -2129.04264142 Ry
     estimated scf accuracy    <       0.00051503 Ry

     iteration # 27     ecut=    36.75 Ry     beta=0.30
     Davidson diagonalization with overlap
     ethr =  2.75E-07,  avg # of iterations =  1.3

     negative rho (up, down):  1.590E+00 0.000E+00
 
     Adding external electric field

     Computed dipole along edir(3) : 
        Dipole                0.3816 Ry au,          0.9700 Debye
        Dipole field          0.0011 Ry au
 
        Potential amp.       -0.1006 Ry
        Total length         45.0992 bohr
 

     total cpu time spent up to now is      390.6 secs

     total energy              =   -2129.04262635 Ry
     Harris-Foulkes estimate   =   -2129.04263147 Ry
     estimated scf accuracy    <       0.00009350 Ry

     iteration # 28     ecut=    36.75 Ry     beta=0.30
     Davidson diagonalization with overlap
     ethr =  5.00E-08,  avg # of iterations =  5.5

     negative rho (up, down):  1.590E+00 0.000E+00
 
     Adding external electric field

     Computed dipole along edir(3) : 
        Dipole                0.3772 Ry au,          0.9586 Debye
        Dipole field          0.0011 Ry au
 
        Potential amp.       -0.0994 Ry
        Total length         45.0992 bohr
 

     total cpu time spent up to now is      404.1 secs

     total energy              =   -2129.04263220 Ry
     Harris-Foulkes estimate   =   -2129.04265923 Ry
     estimated scf accuracy    <       0.00034222 Ry

     iteration # 29     ecut=    36.75 Ry     beta=0.30
     Davidson diagonalization with overlap
     ethr =  5.00E-08,  avg # of iterations =  4.5

     negative rho (up, down):  1.590E+00 0.000E+00
 
     Adding external electric field

     Computed dipole along edir(3) : 
        Dipole                0.3802 Ry au,          0.9663 Debye
        Dipole field          0.0011 Ry au
 
        Potential amp.       -0.1002 Ry
        Total length         45.0992 bohr
 

     total cpu time spent up to now is      415.7 secs

     total energy              =   -2129.04263992 Ry
     Harris-Foulkes estimate   =   -2129.04263461 Ry
     estimated scf accuracy    <       0.00001027 Ry

     iteration # 30     ecut=    36.75 Ry     beta=0.30
     Davidson diagonalization with overlap
     ethr =  5.49E-09,  avg # of iterations =  4.8

     negative rho (up, down):  1.590E+00 0.000E+00
 
     Adding external electric field

     Computed dipole along edir(3) : 
        Dipole                0.3833 Ry au,          0.9742 Debye
        Dipole field          0.0011 Ry au
 
        Potential amp.       -0.1010 Ry
        Total length         45.0992 bohr
 

     total cpu time spent up to now is      428.4 secs

     total energy              =   -2129.04264130 Ry
     Harris-Foulkes estimate   =   -2129.04263531 Ry
     estimated scf accuracy    <       0.00001311 Ry

     iteration # 31     ecut=    36.75 Ry     beta=0.30
     Davidson diagonalization with overlap
     ethr =  5.49E-09,  avg # of iterations =  1.1

     negative rho (up, down):  1.590E+00 0.000E+00

     negative rho (up, down):  1.590E+00 0.000E+00

     negative rho (up, down):  1.590E+00 0.000E+00

     negative rho (up, down):  1.590E+00 0.000E+00

     negative rho (up, down):  1.590E+00 0.000E+00

     negative rho (up, down):  1.590E+00 0.000E+00

     negative rho (up, down):  1.590E+00 0.000E+00

     negative rho (up, down):  1.590E+00 0.000E+00

     negative rho (up, down):  1.590E+00 0.000E+00

     negative rho (up, down):  1.590E+00 0.000E+00

     negative rho (up, down):  1.590E+00 0.000E+00

     negative rho (up, down):  1.590E+00 0.000E+00

     negative rho (up, down):  1.590E+00 0.000E+00

     negative rho (up, down):  1.590E+00 0.000E+00

     negative rho (up, down):  1.590E+00 0.000E+00

     negative rho (up, down):  1.590E+00 0.000E+00

     negative rho (up, down):  1.590E+00 0.000E+00

     negative rho (up, down):  1.590E+00 0.000E+00

     negative rho (up, down):  1.590E+00 0.000E+00

     negative rho (up, down):  1.590E+00 0.000E+00

     negative rho (up, down):  1.590E+00 0.000E+00

     negative rho (up, down):  1.590E+00 0.000E+00

     negative rho (up, down):  1.590E+00 0.000E+00

     negative rho (up, down):  1.590E+00 0.000E+00

     negative rho (up, down):  1.590E+00 0.000E+00

     negative rho (up, down):  1.590E+00 0.000E+00

     negative rho (up, down):  1.590E+00 0.000E+00

     negative rho (up, down):  1.590E+00 0.000E+00

     negative rho (up, down):  1.590E+00 0.000E+00

     negative rho (up, down):  1.590E+00 0.000E+00

     negative rho (up, down):  1.590E+00 0.000E+00

     negative rho (up, down):  1.590E+00 0.000E+00

     negative rho (up, down):  1.590E+00 0.000E+00

     negative rho (up, down):  1.590E+00 0.000E+00

     negative rho (up, down):  1.590E+00 0.000E+00
 
     Adding external electric field

     Computed dipole along edir(3) : 
        Dipole                0.3870 Ry au,          0.9837 Debye
        Dipole field          0.0011 Ry au
 
        Potential amp.       -0.1020 Ry
        Total length         45.0992 bohr
 

     total cpu time spent up to now is      465.7 secs

     End of self-consistent calculation

          k = 0.0000 0.0000 0.0000 ( 16073 PWs)   bands (ev):

   -63.9844 -63.8466 -63.8313 -63.8163 -63.8159 -63.7558 -63.7391 -63.7389
   -63.6636 -63.6409 -63.6398 -63.6240 -36.4607 -36.4210 -36.4209 -36.3775
   -36.2977 -36.2829 -36.2828 -36.1771 -36.1457 -36.1453 -35.8698 -35.8165
   -35.8164 -35.7842 -35.7528 -35.7525 -35.6914 -35.6909 -35.6906 -35.6904
   -35.5760 -35.5755 -35.5427 -35.5113 -35.5111 -35.5057 -35.4800 -35.4535
   -35.4535 -35.4236 -35.4179 -35.4174 -35.3059 -35.3059 -35.2252 -35.2252
   -12.2186  -5.6273  -3.1153  -2.3468  -2.3468  -1.9247  -1.9246  -1.9219
    -1.8236  -1.6224  -1.4328  -1.4165  -1.4165  -1.3255  -1.0932  -1.0930
    -0.8593  -0.7168  -0.7167   0.3542   0.3544   0.5095   0.9596   1.1146
     1.1146   1.3087   1.6052   1.6052   1.7171   1.8447   1.8447   1.9793
     2.0189   2.0191   2.1095   2.1095   2.5058   2.8536   2.8539   3.2034
     3.5052   3.5053   3.5657   3.7356   3.7358   3.9672   3.9673   3.9948
     4.3800   4.3801   4.6458   5.0665   5.2133   5.2135   5.2940

          k = 0.0000 0.0351 0.0000 ( 16137 PWs)   bands (ev):

   -63.9740 -63.8393 -63.8370 -63.8215 -63.8160 -63.7480 -63.7443 -63.7389
   -63.6656 -63.6468 -63.6398 -63.6261 -36.4232 -36.3890 -36.3737 -36.3425
   -36.2749 -36.2539 -36.2485 -36.1449 -36.1149 -36.0975 -35.8786 -35.8466
   -35.8396 -35.7991 -35.7638 -35.7474 -35.7114 -35.7090 -35.6727 -35.6619
   -35.5905 -35.5882 -35.5465 -35.5272 -35.5181 -35.5052 -35.4983 -35.4901
   -35.4691 -35.4529 -35.4484 -35.4067 -35.3574 -35.3185 -35.2825 -35.2384
   -12.2120  -5.5761  -2.9000  -2.3205  -2.2501  -1.7886  -1.7178  -1.7080
    -1.5892  -1.4227  -1.2964  -1.2676  -1.2608  -1.1965  -0.9540  -0.9099
    -0.6879  -0.6170  -0.5786   0.3886   0.4123   0.5151   0.9742   1.1759
     1.1911   1.2648   1.4017   1.4501   1.7679   1.7905   1.8315   1.9011
     2.0052   2.0300   2.0743   2.3085   2.3588   2.6179   2.6547   2.8742
     3.3036   3.3098   3.3899   3.5203   3.5656   3.6971   3.8259   3.8268
     4.1659   4.3496   4.4519   4.5435   4.6373   4.9053   5.0124

          k = 0.0000 0.0702 0.0000 ( 16149 PWs)   bands (ev):

   -63.9456 -63.8644 -63.8259 -63.8172 -63.8161 -63.7603 -63.7388 -63.7265
   -63.6705 -63.6655 -63.6398 -63.6281 -36.3352 -36.3098 -36.2869 -36.2332
   -36.2049 -36.1857 -36.1795 -36.0773 -36.0415 -35.9802 -35.9076 -35.9014
   -35.8748 -35.8564 -35.7643 -35.7574 -35.7206 -35.7144 -35.6616 -35.6474
   -35.6331 -35.6307 -35.6225 -35.5728 -35.5610 -35.5533 -35.5232 -35.5083
   -35.5067 -35.4969 -35.4805 -35.4636 -35.4072 -35.3730 -35.3500 -35.2743
   -12.1990  -5.4724  -2.5064  -2.1023  -2.0585  -1.4862  -1.2375  -1.2308
    -1.1181  -1.0362  -0.8888  -0.8188  -0.7864  -0.7804  -0.6089  -0.6052
    -0.3909  -0.0864  -0.0784   0.4454   0.4582   0.5670   0.6427   0.9024
     1.1887   1.2519   1.2878   1.3390   1.4997   1.5583   1.7189   1.8586
     1.9257   1.9679   2.2005   2.2274   2.3220   2.3858   2.3957   2.6689
     2.7238   2.7503   2.8964   2.9594   2.9925   3.1592   3.2872   3.3360
     3.5787   3.6336   3.6708   4.1687   4.3006   4.3082   4.4159

          k = 0.0000-0.1053 0.0000 ( 16164 PWs)   bands (ev):

   -63.9128 -63.8977 -63.8259 -63.8162 -63.7980 -63.7778 -63.7388 -63.7006
   -63.6931 -63.6702 -63.6398 -63.6285 -36.2646 -36.2547 -36.2450 -36.1962
   -36.1781 -36.1429 -36.0558 -36.0142 -35.9986 -35.9924 -35.9646 -35.9498
   -35.8892 -35.7793 -35.7638 -35.7363 -35.7121 -35.7056 -35.7032 -35.6868
   -35.6789 -35.6492 -35.6425 -35.6320 -35.6063 -35.6027 -35.5836 -35.5703
   -35.5233 -35.5055 -35.4734 -35.4659 -35.4393 -35.3789 -35.3263 -35.3193
   -12.1925  -5.4199  -2.4392  -1.9647  -1.6310  -1.4596  -0.9694  -0.9432
    -0.8964  -0.8338  -0.6302  -0.5490  -0.4265  -0.2961  -0.2086  -0.1688
    -0.0837   0.0118   0.1169   0.1310   0.5582   0.6690   0.7376   0.7612
     0.8457   1.0666   1.2061   1.2991   1.5937   1.5996   1.7375   1.7624
     1.7687   1.8446   1.9318   1.9887   2.0019   2.0453   2.1987   2.2135
     2.3131   2.4237   2.4696   2.7566   3.1411   3.1548   3.1881   3.2821
     3.4600   3.5344   3.5893   3.7699   3.7828   3.8453   3.9530

          k = 0.0304-0.0175 0.0000 ( 16137 PWs)   bands (ev):

   -63.9740 -63.8394 -63.8370 -63.8212 -63.8162 -63.7480 -63.7442 -63.7391
   -63.6656 -63.6462 -63.6406 -63.6259 -36.4233 -36.3890 -36.3738 -36.3424
   -36.2750 -36.2539 -36.2485 -36.1450 -36.1145 -36.0977 -35.8785 -35.8466
   -35.8398 -35.7990 -35.7637 -35.7477 -35.7116 -35.7087 -35.6728 -35.6618
   -35.5903 -35.5886 -35.5463 -35.5274 -35.5181 -35.5052 -35.4984 -35.4901
   -35.4691 -35.4533 -35.4479 -35.4068 -35.3574 -35.3185 -35.2825 -35.2384
   -12.2120  -5.5761  -2.9000  -2.3205  -2.2501  -1.7887  -1.7177  -1.7080
    -1.5892  -1.4227  -1.2964  -1.2676  -1.2609  -1.1965  -0.9542  -0.9097
    -0.6879  -0.6170  -0.5786   0.3888   0.4122   0.5150   0.9742   1.1759
     1.1911   1.2648   1.4017   1.4501   1.7678   1.7906   1.8314   1.9012
     2.0052   2.0300   2.0743   2.3085   2.3588   2.6178   2.6549   2.8742
     3.3035   3.3097   3.3899   3.5201   3.5658   3.6970   3.8259   3.8268
     4.1660   4.3496   4.4519   4.5435   4.6373   4.9054   5.0126

          k = 0.0304 0.0175 0.0000 ( 16137 PWs)   bands (ev):

   -63.9740 -63.8394 -63.8370 -63.8211 -63.8163 -63.7480 -63.7442 -63.7390
   -63.6656 -63.6463 -63.6405 -63.6259 -36.4233 -36.3889 -36.3738 -36.3424
   -36.2750 -36.2539 -36.2485 -36.1450 -36.1146 -36.0977 -35.8786 -35.8466
   -35.8397 -35.7990 -35.7637 -35.7477 -35.7116 -35.7087 -35.6728 -35.6619
   -35.5903 -35.5886 -35.5463 -35.5274 -35.5181 -35.5052 -35.4983 -35.4901
   -35.4691 -35.4532 -35.4480 -35.4068 -35.3574 -35.3185 -35.2825 -35.2384
   -12.2120  -5.5761  -2.9000  -2.3205  -2.2501  -1.7887  -1.7177  -1.7080
    -1.5892  -1.4227  -1.2964  -1.2676  -1.2608  -1.1965  -0.9541  -0.9097
    -0.6879  -0.6170  -0.5786   0.3888   0.4122   0.5150   0.9742   1.1759
     1.1911   1.2648   1.4017   1.4501   1.7678   1.7906   1.8314   1.9011
     2.0052   2.0300   2.0743   2.3085   2.3588   2.6178   2.6549   2.8742
     3.3035   3.3097   3.3899   3.5202   3.5658   3.6970   3.8259   3.8268
     4.1660   4.3496   4.4519   4.5435   4.6373   4.9054   5.0125

          k = 0.0304 0.0526 0.0000 ( 16202 PWs)   bands (ev):

   -63.9546 -63.8490 -63.8377 -63.8238 -63.8100 -63.7534 -63.7407 -63.7332
   -63.6684 -63.6555 -63.6471 -63.6249 -36.3641 -36.3281 -36.2894 -36.2786
   -36.2326 -36.2020 -36.1977 -36.0991 -36.0464 -36.0228 -35.9074 -35.8833
   -35.8657 -35.8504 -35.7827 -35.7331 -35.7261 -35.6912 -35.6782 -35.6523
   -35.6395 -35.5889 -35.5846 -35.5626 -35.5522 -35.5362 -35.5306 -35.5096
   -35.4929 -35.4837 -35.4415 -35.4240 -35.4205 -35.3725 -35.3438 -35.2674
   -12.2022  -5.4984  -2.5715  -2.1943  -2.1292  -1.4769  -1.4495  -1.3397
    -1.1798  -1.1152  -1.0386  -1.0138  -0.9671  -0.8925  -0.7043  -0.6565
    -0.4247  -0.3728  -0.1979   0.4334   0.4851   0.5200   0.8019   1.0321
     1.1506   1.2420   1.2694   1.3420   1.4667   1.7445   1.8165   1.8400
     1.9150   2.0959   2.1544   2.1840   2.2827   2.3325   2.5873   2.7304
     2.8203   2.8708   3.0234   3.1676   3.3046   3.3624   3.4290   3.4809
     3.5191   3.7121   3.8778   4.2434   4.3849   4.4781   4.5978

          k = 0.0304-0.1228 0.0000 ( 16203 PWs)   bands (ev):

   -63.9213 -63.8788 -63.8474 -63.8055 -63.8008 -63.7706 -63.7434 -63.7081
   -63.6786 -63.6693 -63.6536 -63.6220 -36.2743 -36.2478 -36.2075 -36.1914
   -36.1669 -36.1438 -36.1149 -36.0460 -36.0223 -35.9545 -35.9475 -35.9161
   -35.8814 -35.8375 -35.8063 -35.7590 -35.7473 -35.6985 -35.6814 -35.6751
   -35.6567 -35.6482 -35.6251 -35.6143 -35.6014 -35.5887 -35.5599 -35.5404
   -35.5218 -35.5068 -35.4696 -35.4528 -35.4458 -35.3883 -35.3734 -35.3178
   -12.1924  -5.4192  -2.3944  -2.0269  -1.6765  -1.2469  -0.9463  -0.9277
    -0.8445  -0.7627  -0.6594  -0.5393  -0.4803  -0.4241  -0.3156  -0.1770
    -0.0573   0.0188   0.1635   0.2744   0.4680   0.5466   0.6178   0.8570
     0.9048   1.0461   1.1070   1.1892   1.4284   1.5073   1.5509   1.6301
     1.7070   1.7768   1.8594   1.8826   2.0208   2.1426   2.2462   2.3634
     2.4251   2.4711   2.6062   2.6715   2.9627   3.1863   3.2282   3.3111
     3.3637   3.6244   3.6902   3.7780   3.9530   4.0230   4.2405

          k = 0.0304-0.0877 0.0000 ( 16203 PWs)   bands (ev):

   -63.9213 -63.8788 -63.8475 -63.8055 -63.8008 -63.7705 -63.7434 -63.7081
   -63.6786 -63.6693 -63.6536 -63.6220 -36.2743 -36.2478 -36.2075 -36.1914
   -36.1669 -36.1438 -36.1149 -36.0460 -36.0223 -35.9545 -35.9475 -35.9161
   -35.8814 -35.8374 -35.8063 -35.7590 -35.7473 -35.6986 -35.6815 -35.6750
   -35.6567 -35.6482 -35.6251 -35.6143 -35.6014 -35.5887 -35.5599 -35.5404
   -35.5218 -35.5069 -35.4696 -35.4528 -35.4457 -35.3883 -35.3734 -35.3178
   -12.1924  -5.4192  -2.3944  -2.0269  -1.6765  -1.2469  -0.9463  -0.9277
    -0.8445  -0.7627  -0.6594  -0.5393  -0.4803  -0.4241  -0.3156  -0.1770
    -0.0573   0.0188   0.1635   0.2744   0.4680   0.5466   0.6178   0.8570
     0.9048   1.0460   1.1070   1.1892   1.4284   1.5073   1.5509   1.6301
     1.7070   1.7768   1.8594   1.8826   2.0208   2.1426   2.2462   2.3634
     2.4251   2.4711   2.6062   2.6715   2.9627   3.1863   3.2283   3.3111
     3.3637   3.6244   3.6902   3.7780   3.9530   4.0230   4.2405

          k = 0.0304-0.0526 0.0000 ( 16202 PWs)   bands (ev):

   -63.9546 -63.8489 -63.8378 -63.8238 -63.8099 -63.7533 -63.7408 -63.7332
   -63.6684 -63.6554 -63.6473 -63.6248 -36.3641 -36.3282 -36.2894 -36.2786
   -36.2326 -36.2020 -36.1976 -36.0992 -36.0463 -36.0228 -35.9074 -35.8833
   -35.8657 -35.8504 -35.7827 -35.7331 -35.7261 -35.6912 -35.6782 -35.6522
   -35.6395 -35.5890 -35.5846 -35.5626 -35.5523 -35.5362 -35.5306 -35.5096
   -35.4929 -35.4837 -35.4415 -35.4240 -35.4205 -35.3725 -35.3438 -35.2674
   -12.2022  -5.4984  -2.5715  -2.1943  -2.1292  -1.4769  -1.4495  -1.3397
    -1.1798  -1.1152  -1.0386  -1.0138  -0.9671  -0.8925  -0.7044  -0.6565
    -0.4247  -0.3728  -0.1979   0.4334   0.4851   0.5200   0.8019   1.0321
     1.1506   1.2420   1.2695   1.3419   1.4667   1.7444   1.8165   1.8400
     1.9150   2.0959   2.1544   2.1840   2.2827   2.3326   2.5873   2.7304
     2.8202   2.8708   3.0234   3.1677   3.3047   3.3623   3.4290   3.4809
     3.5191   3.7121   3.8778   4.2435   4.3849   4.4781   4.5977

          k = 0.0608-0.0351 0.0000 ( 16149 PWs)   bands (ev):

   -63.9456 -63.8645 -63.8257 -63.8171 -63.8163 -63.7601 -63.7390 -63.7265
   -63.6703 -63.6652 -63.6406 -63.6275 -36.3353 -36.3097 -36.2870 -36.2331
   -36.2050 -36.1856 -36.1795 -36.0776 -36.0411 -35.9802 -35.9077 -35.9013
   -35.8749 -35.8563 -35.7642 -35.7576 -35.7204 -35.7146 -35.6615 -35.6477
   -35.6329 -35.6308 -35.6224 -35.5725 -35.5613 -35.5530 -35.5235 -35.5085
   -35.5066 -35.4965 -35.4805 -35.4637 -35.4073 -35.3730 -35.3499 -35.2742
   -12.1990  -5.4724  -2.5063  -2.1023  -2.0585  -1.4862  -1.2374  -1.2309
    -1.1180  -1.0363  -0.8889  -0.8188  -0.7864  -0.7804  -0.6088  -0.6053
    -0.3910  -0.0863  -0.0786   0.4453   0.4583   0.5670   0.6426   0.9024
     1.1888   1.2519   1.2878   1.3391   1.4997   1.5581   1.7189   1.8587
     1.9257   1.9680   2.2005   2.2274   2.3220   2.3858   2.3957   2.6689
     2.7237   2.7504   2.8964   2.9597   2.9924   3.1591   3.2873   3.3357
     3.5787   3.6335   3.6708   4.1687   4.3006   4.3081   4.4159

          k = 0.0608 0.0000 0.0000 ( 16202 PWs)   bands (ev):

   -63.9546 -63.8491 -63.8376 -63.8238 -63.8100 -63.7532 -63.7409 -63.7333
   -63.6684 -63.6546 -63.6482 -63.6246 -36.3641 -36.3282 -36.2894 -36.2786
   -36.2326 -36.2020 -36.1976 -36.0993 -36.0461 -36.0229 -35.9072 -35.8834
   -35.8657 -35.8504 -35.7827 -35.7331 -35.7262 -35.6911 -35.6782 -35.6521
   -35.6394 -35.5895 -35.5848 -35.5624 -35.5522 -35.5361 -35.5305 -35.5096
   -35.4929 -35.4838 -35.4416 -35.4237 -35.4207 -35.3725 -35.3437 -35.2674
   -12.2022  -5.4984  -2.5715  -2.1943  -2.1292  -1.4769  -1.4495  -1.3397
    -1.1798  -1.1152  -1.0385  -1.0138  -0.9671  -0.8925  -0.7044  -0.6565
    -0.4248  -0.3728  -0.1979   0.4335   0.4851   0.5199   0.8019   1.0321
     1.1505   1.2421   1.2694   1.3420   1.4667   1.7444   1.8164   1.8401
     1.9150   2.0959   2.1543   2.1840   2.2827   2.3326   2.5873   2.7303
     2.8202   2.8708   3.0233   3.1678   3.3048   3.3621   3.4290   3.4808
     3.5191   3.7121   3.8778   4.2435   4.3849   4.4781   4.5977

          k = 0.0608 0.0351 0.0000 ( 16149 PWs)   bands (ev):

   -63.9456 -63.8645 -63.8256 -63.8171 -63.8164 -63.7602 -63.7389 -63.7265
   -63.6703 -63.6653 -63.6405 -63.6276 -36.3353 -36.3096 -36.2870 -36.2331
   -36.2050 -36.1857 -36.1795 -36.0776 -36.0412 -35.9803 -35.9077 -35.9013
   -35.8749 -35.8563 -35.7642 -35.7576 -35.7204 -35.7146 -35.6615 -35.6476
   -35.6330 -35.6308 -35.6224 -35.5725 -35.5613 -35.5531 -35.5235 -35.5085
   -35.5066 -35.4965 -35.4805 -35.4637 -35.4072 -35.3730 -35.3500 -35.2743
   -12.1990  -5.4724  -2.5064  -2.1023  -2.0585  -1.4862  -1.2373  -1.2309
    -1.1180  -1.0362  -0.8889  -0.8188  -0.7864  -0.7803  -0.6088  -0.6053
    -0.3910  -0.0863  -0.0785   0.4453   0.4583   0.5670   0.6427   0.9024
     1.1888   1.2519   1.2878   1.3391   1.4997   1.5581   1.7189   1.8587
     1.9257   1.9680   2.2005   2.2274   2.3220   2.3858   2.3957   2.6689
     2.7237   2.7504   2.8964   2.9596   2.9924   3.1591   3.2873   3.3358
     3.5787   3.6335   3.6708   4.1687   4.3006   4.3081   4.4159

          k = 0.0608-0.1404 0.0000 ( 16203 PWs)   bands (ev):

   -63.9213 -63.8789 -63.8473 -63.8055 -63.8008 -63.7705 -63.7435 -63.7082
   -63.6783 -63.6693 -63.6539 -63.6219 -36.2743 -36.2477 -36.2075 -36.1915
   -36.1669 -36.1438 -36.1149 -36.0461 -36.0224 -35.9544 -35.9474 -35.9160
   -35.8814 -35.8375 -35.8062 -35.7592 -35.7473 -35.6986 -35.6814 -35.6750
   -35.6566 -35.6483 -35.6250 -35.6144 -35.6014 -35.5887 -35.5600 -35.5404
   -35.5218 -35.5069 -35.4694 -35.4529 -35.4458 -35.3882 -35.3735 -35.3178
   -12.1924  -5.4192  -2.3944  -2.0269  -1.6765  -1.2469  -0.9463  -0.9277
    -0.8445  -0.7627  -0.6594  -0.5394  -0.4804  -0.4241  -0.3156  -0.1770
    -0.0573   0.0188   0.1635   0.2745   0.4680   0.5466   0.6178   0.8571
     0.9048   1.0460   1.1070   1.1892   1.4283   1.5073   1.5510   1.6301
     1.7070   1.7768   1.8594   1.8827   2.0207   2.1426   2.2462   2.3634
     2.4251   2.4711   2.6062   2.6715   2.9627   3.1864   3.2282   3.3110
     3.3637   3.6243   3.6902   3.7780   3.9529   4.0231   4.2405

          k = 0.0608-0.1053 0.0000 ( 16272 PWs)   bands (ev):

   -63.8976 -63.8801 -63.8758 -63.7997 -63.7852 -63.7801 -63.7495 -63.6868
   -63.6857 -63.6717 -63.6692 -63.6183 -36.2074 -36.1765 -36.1645 -36.1563
   -36.1544 -36.1506 -36.0743 -36.0719 -36.0604 -35.9644 -35.9412 -35.8616
   -35.8574 -35.8389 -35.8255 -35.7847 -35.7763 -35.7671 -35.7288 -35.6772
   -35.6700 -35.6388 -35.6120 -35.6005 -35.5995 -35.5968 -35.5965 -35.5280
   -35.5246 -35.5067 -35.4870 -35.4453 -35.4394 -35.3904 -35.3879 -35.3858
   -12.1892  -5.3920  -2.3162  -2.0599  -1.1428  -1.1387  -1.0052  -0.5308
    -0.5301  -0.5298  -0.4843  -0.3237  -0.2539  -0.2222  -0.1013  -0.0881
    -0.0310  -0.0159   0.0100   0.4440   0.4634   0.7176   0.7330   0.7744
     0.8616   0.8956   0.9017   1.0314   1.1145   1.1470   1.1506   1.3601
     1.3839   1.4556   1.8176   1.8436   1.8543   1.9336   2.1377   2.1561
     2.2758   2.4483   2.5030   2.5364   2.8780   3.0440   3.2590   3.4630
     3.5375   3.7413   3.8067   3.8462   3.9775   4.1444   4.3830

          k = 0.0608-0.0702 0.0000 ( 16203 PWs)   bands (ev):

   -63.9213 -63.8789 -63.8474 -63.8055 -63.8008 -63.7704 -63.7436 -63.7082
   -63.6782 -63.6693 -63.6540 -63.6219 -36.2743 -36.2478 -36.2075 -36.1914
   -36.1669 -36.1437 -36.1149 -36.0461 -36.0224 -35.9543 -35.9474 -35.9160
   -35.8814 -35.8375 -35.8063 -35.7592 -35.7473 -35.6986 -35.6814 -35.6750
   -35.6566 -35.6483 -35.6250 -35.6144 -35.6014 -35.5887 -35.5600 -35.5404
   -35.5218 -35.5069 -35.4694 -35.4529 -35.4458 -35.3882 -35.3736 -35.3177
   -12.1924  -5.4193  -2.3944  -2.0269  -1.6765  -1.2469  -0.9463  -0.9277
    -0.8445  -0.7627  -0.6594  -0.5394  -0.4804  -0.4241  -0.3156  -0.1770
    -0.0573   0.0188   0.1635   0.2745   0.4679   0.5466   0.6178   0.8571
     0.9048   1.0460   1.1070   1.1892   1.4283   1.5073   1.5510   1.6301
     1.7070   1.7768   1.8594   1.8827   2.0207   2.1426   2.2462   2.3634
     2.4251   2.4711   2.6062   2.6714   2.9627   3.1864   3.2282   3.3110
     3.3637   3.6243   3.6902   3.7780   3.9529   4.0231   4.2405

          k =-0.0912 0.0526 0.0000 ( 16164 PWs)   bands (ev):

   -63.9127 -63.8979 -63.8256 -63.8164 -63.7982 -63.7775 -63.7390 -63.7014
   -63.6920 -63.6702 -63.6406 -63.6279 -36.2647 -36.2546 -36.2451 -36.1962
   -36.1781 -36.1427 -36.0561 -36.0141 -35.9988 -35.9924 -35.9643 -35.9498
   -35.8889 -35.7794 -35.7640 -35.7366 -35.7121 -35.7058 -35.7027 -35.6871
   -35.6788 -35.6488 -35.6425 -35.6318 -35.6069 -35.6020 -35.5835 -35.5704
   -35.5237 -35.5051 -35.4733 -35.4659 -35.4395 -35.3787 -35.3271 -35.3186
   -12.1925  -5.4199  -2.4392  -1.9648  -1.6310  -1.4596  -0.9695  -0.9431
    -0.8964  -0.8340  -0.6300  -0.5490  -0.4266  -0.2961  -0.2087  -0.1688
    -0.0837   0.0119   0.1170   0.1310   0.5583   0.6690   0.7377   0.7614
     0.8454   1.0666   1.2061   1.2992   1.5936   1.5997   1.7374   1.7624
     1.7688   1.8447   1.9317   1.9888   2.0018   2.0452   2.1988   2.2134
     2.3132   2.4238   2.4695   2.7567   3.1412   3.1549   3.1880   3.2822
     3.4598   3.5344   3.5891   3.7701   3.7827   3.8455   3.9526

          k =-0.0912 0.0877 0.0000 ( 16203 PWs)   bands (ev):

   -63.9213 -63.8789 -63.8473 -63.8056 -63.8008 -63.7703 -63.7436 -63.7082
   -63.6780 -63.6693 -63.6542 -63.6218 -36.2743 -36.2478 -36.2075 -36.1914
   -36.1670 -36.1438 -36.1149 -36.0461 -36.0223 -35.9544 -35.9474 -35.9160
   -35.8814 -35.8375 -35.8063 -35.7590 -35.7474 -35.6986 -35.6814 -35.6750
   -35.6567 -35.6483 -35.6249 -35.6143 -35.6015 -35.5887 -35.5600 -35.5404
   -35.5217 -35.5068 -35.4696 -35.4529 -35.4458 -35.3882 -35.3736 -35.3177
   -12.1924  -5.4193  -2.3944  -2.0269  -1.6765  -1.2469  -0.9463  -0.9277
    -0.8445  -0.7626  -0.6594  -0.5394  -0.4804  -0.4241  -0.3156  -0.1770
    -0.0573   0.0188   0.1635   0.2745   0.4680   0.5466   0.6178   0.8571
     0.9048   1.0460   1.1070   1.1891   1.4284   1.5074   1.5510   1.6301
     1.7071   1.7767   1.8594   1.8827   2.0208   2.1426   2.2463   2.3634
     2.4250   2.4711   2.6062   2.6715   2.9627   3.1864   3.2282   3.3111
     3.3637   3.6243   3.6902   3.7779   3.9530   4.0231   4.2405

          k =-0.0912 0.1228 0.0000 ( 16203 PWs)   bands (ev):

   -63.9213 -63.8789 -63.8473 -63.8056 -63.8008 -63.7704 -63.7435 -63.7082
   -63.6781 -63.6693 -63.6541 -63.6218 -36.2743 -36.2478 -36.2075 -36.1914
   -36.1670 -36.1438 -36.1149 -36.0461 -36.0223 -35.9544 -35.9474 -35.9160
   -35.8814 -35.8374 -35.8063 -35.7589 -35.7474 -35.6986 -35.6814 -35.6750
   -35.6568 -35.6483 -35.6249 -35.6143 -35.6015 -35.5887 -35.5600 -35.5405
   -35.5217 -35.5068 -35.4696 -35.4529 -35.4458 -35.3882 -35.3735 -35.3178
   -12.1924  -5.4193  -2.3944  -2.0269  -1.6765  -1.2469  -0.9463  -0.9277
    -0.8445  -0.7626  -0.6594  -0.5394  -0.4803  -0.4241  -0.3156  -0.1770
    -0.0573   0.0188   0.1635   0.2745   0.4680   0.5466   0.6178   0.8571
     0.9048   1.0460   1.1070   1.1891   1.4284   1.5074   1.5510   1.6301
     1.7071   1.7767   1.8594   1.8827   2.0208   2.1426   2.2463   2.3634
     2.4250   2.4711   2.6062   2.6715   2.9627   3.1864   3.2282   3.3111
     3.3637   3.6244   3.6902   3.7779   3.9529   4.0230   4.2405

          k =-0.0912-0.0526 0.0000 ( 16164 PWs)   bands (ev):

   -63.9126 -63.8980 -63.8255 -63.8165 -63.7981 -63.7777 -63.7389 -63.7013
   -63.6921 -63.6702 -63.6405 -63.6280 -36.2647 -36.2545 -36.2452 -36.1962
   -36.1781 -36.1428 -36.0560 -36.0141 -35.9988 -35.9924 -35.9644 -35.9497
   -35.8891 -35.7794 -35.7640 -35.7365 -35.7121 -35.7058 -35.7028 -35.6870
   -35.6788 -35.6489 -35.6426 -35.6319 -35.6068 -35.6021 -35.5834 -35.5705
   -35.5237 -35.5051 -35.4733 -35.4659 -35.4394 -35.3788 -35.3270 -35.3187
   -12.1925  -5.4199  -2.4392  -1.9647  -1.6310  -1.4596  -0.9695  -0.9431
    -0.8963  -0.8340  -0.6301  -0.5490  -0.4266  -0.2961  -0.2087  -0.1688
    -0.0837   0.0119   0.1169   0.1310   0.5583   0.6690   0.7377   0.7614
     0.8455   1.0666   1.2061   1.2992   1.5936   1.5997   1.7374   1.7624
     1.7688   1.8447   1.9318   1.9888   2.0018   2.0453   2.1988   2.2134
     2.3132   2.4237   2.4695   2.7567   3.1412   3.1548   3.1880   3.2822
     3.4599   3.5344   3.5891   3.7700   3.7827   3.8454   3.9527

     the Fermi energy is     3.2797 ev

!    total energy              =   -2129.04264053 Ry
     Harris-Foulkes estimate   =   -2129.04263335 Ry
     estimated scf accuracy    <       0.00000182 Ry

     The total energy is the sum of the following terms:

     one-electron contribution =  -19159.52258140 Ry
     hartree contribution      =    9585.50562264 Ry
     xc contribution           =    -406.83898439 Ry
     ewald contribution        =    7851.90409818 Ry
     electric field correction =       0.00043757 Ry
     smearing contrib. (-TS)   =      -0.09123314 Ry

     convergence has been achieved in  31 iterations
 
 BEEF-vdW xc energy contributions
           1 :   -356.242770322320     
           2 :    327.350570229268     
           3 :   -276.001831370515     
           4 :    212.533244122022     
           5 :   -147.961154648998     
           6 :    90.9770683158740     
           7 :   -46.2438565005169     
           8 :    14.2292815893942     
           9 :    7.53832233766940     
          10 :   -22.5593978558789     
          11 :    33.5910101189334     
          12 :   -41.7136453494899     
          13 :    46.3891228539443     
          14 :   -46.3136343232940     
          15 :    40.5328531698061     
          16 :   -29.3118987886198     
          17 :    14.3870514900642     
          18 :    1.44254321780966     
          19 :   -15.1762631651487     
          20 :    24.5173645820194     
          21 :   -28.4654402895223     
          22 :    27.3820385671042     
          23 :   -22.5820544007271     
          24 :    15.6847588146088     
          25 :   -8.04253912603752     
          26 :   0.465629149736287     
          27 :    6.69893886559476     
          28 :   -13.2674502403484     
          29 :    18.9110217318088     
          30 :   -23.0251729596121     
          31 :   -34.0944278082102     
          32 :   -25.0121758091148     

     Forces acting on atoms (Ry/au):


     negative rho (up, down):  1.590E+00 0.000E+00
     atom    1 type  1   force =    -0.00130704   -0.00080274    0.03032375
     atom    2 type  1   force =     0.00131296   -0.00078665    0.03029672
     atom    3 type  1   force =     0.00001217    0.00154126    0.03032202
     atom    4 type  1   force =    -0.00001135    0.00003993    0.02612419
     atom    5 type  1   force =     0.00000320   -0.01176561   -0.01325306
     atom    6 type  1   force =    -0.00000165    0.00004075    0.01664399
     atom    7 type  1   force =     0.01024293    0.00585419   -0.01325207
     atom    8 type  1   force =    -0.01023978    0.00586044   -0.01326096
     atom    9 type  1   force =     0.00001542   -0.00004842   -0.04623113
     atom   10 type  1   force =    -0.00001545   -0.06272808   -0.03578617
     atom   11 type  1   force =    -0.05429950    0.03138583   -0.03576605
     atom   12 type  1   force =     0.05428616    0.03140576   -0.03578000
     atom   13 type  2   force =     0.00000076    0.00000559   -0.08267107
     atom   14 type  3   force =     0.00000118   -0.00000225    0.14228984

     Total force =     0.211802     Total SCF correction =     0.002114


     entering subroutine stress ...


     negative rho (up, down):  1.590E+00 0.000E+00
          total   stress  (Ry/bohr**3)                   (kbar)     P=  -17.54
  -0.00013081   0.00000000  -0.00000001        -19.24      0.00     -0.00
   0.00000000  -0.00013083   0.00000001          0.00    -19.25      0.00
  -0.00000001   0.00000001  -0.00009609         -0.00      0.00    -14.13


     BFGS Geometry Optimization

     number of scf cycles    =   1
     number of bfgs steps    =   0

     energy   new            =   -2129.0426405291 Ry

     new trust radius        =       0.1422898436 bohr
     new conv_thr            =       0.0000099958 Ry


ATOMIC_POSITIONS (crystal)
Tc1      0.166666667   0.166666667   0.408540475    0   0   0
Tc1      0.666666667   0.166666667   0.408540475    0   0   0
Tc1      0.166666667   0.666666667   0.408540475    0   0   0
Tc1      0.666666667   0.666666667   0.408540475    0   0   0
Tc1      0.833333333   0.333333333   0.500000000    0   0   0
Tc1      0.333333333   0.333333333   0.500000000    0   0   0
Tc1      0.833333333   0.833333333   0.500000000    0   0   0
Tc1      0.333333333   0.833333333   0.500000000    0   0   0
Tc1      0.000004185  -0.000005395   0.590460053
Tc1      0.503493395  -0.006989772   0.590685863
Tc1     -0.006988611   0.503497314   0.590686298
Tc1      0.503488899   0.503499535   0.590685996
S1       0.333333095   0.333333956   0.656591187
H1       0.333333572   0.333333083   0.712522183



     Writing output data file calc.save
     Check: negative starting charge=   -1.504578
     NEW-OLD atomic charge density approx. for the potential

     Check: negative/imaginary core charge=   -0.000022    0.000000
     Check: negative starting charge=   -1.501852

     negative rho (up, down):  1.586E+00 0.000E+00
 
     Adding external electric field

     Computed dipole along edir(3) : 
        Dipole                0.2335 Ry au,          0.5934 Debye
        Dipole field          0.0007 Ry au
 
        Potential amp.       -0.0615 Ry
        Total length         45.0992 bohr
 

     total cpu time spent up to now is      492.3 secs

     Self-consistent Calculation

     iteration #  1     ecut=    36.75 Ry     beta=0.30
     Davidson diagonalization with overlap
     ethr =  1.00E-06,  avg # of iterations = 13.9

     negative rho (up, down):  1.586E+00 0.000E+00
 
     Adding external electric field

     Computed dipole along edir(3) : 
        Dipole                2.9882 Ry au,          7.5953 Debye
        Dipole field          0.0087 Ry au
 
        Potential amp.       -0.7874 Ry
        Total length         45.0992 bohr
 

     total cpu time spent up to now is      519.8 secs

     total energy              =   -2128.56566419 Ry
     Harris-Foulkes estimate   =   -2129.06208445 Ry
     estimated scf accuracy    <       1.03530425 Ry

     iteration #  2     ecut=    36.75 Ry     beta=0.30
     Davidson diagonalization with overlap
     ethr =  5.54E-04,  avg # of iterations = 12.6

     negative rho (up, down):  1.586E+00 0.000E+00
 
     Adding external electric field

     Computed dipole along edir(3) : 
        Dipole               -0.1777 Ry au,         -0.4517 Debye
        Dipole field         -0.0005 Ry au
 
        Potential amp.        0.0468 Ry
        Total length         45.0992 bohr
 

     total cpu time spent up to now is      541.0 secs

     total energy              =   -2122.05176012 Ry
     Harris-Foulkes estimate   =   -2136.18824743 Ry
     estimated scf accuracy    <     659.80136215 Ry

     iteration #  3     ecut=    36.75 Ry     beta=0.30
     Davidson diagonalization with overlap
     ethr =  5.54E-04,  avg # of iterations =  7.3

     negative rho (up, down):  1.586E+00 0.000E+00
 
     Adding external electric field

     Computed dipole along edir(3) : 
        Dipole                0.0115 Ry au,          0.0294 Debye
        Dipole field          0.0000 Ry au
 
        Potential amp.       -0.0030 Ry
        Total length         45.0992 bohr
 

     total cpu time spent up to now is      558.7 secs

     total energy              =   -2129.01040041 Ry
     Harris-Foulkes estimate   =   -2129.12430085 Ry
     estimated scf accuracy    <       1.47533970 Ry

     iteration #  4     ecut=    36.75 Ry     beta=0.30
     Davidson diagonalization with overlap
     ethr =  5.54E-04,  avg # of iterations =  3.0

     negative rho (up, down):  1.586E+00 0.000E+00
 
     Adding external electric field

     Computed dipole along edir(3) : 
        Dipole                0.1124 Ry au,          0.2856 Debye
        Dipole field          0.0003 Ry au
 
        Potential amp.       -0.0296 Ry
        Total length         45.0992 bohr
 

     total cpu time spent up to now is      569.1 secs

     total energy              =   -2129.04983553 Ry
     Harris-Foulkes estimate   =   -2129.06371801 Ry
     estimated scf accuracy    <       0.31170910 Ry

     iteration #  5     ecut=    36.75 Ry     beta=0.30
     Davidson diagonalization with overlap
     ethr =  1.67E-04,  avg # of iterations =  4.7

     negative rho (up, down):  1.586E+00 0.000E+00
 
     Adding external electric field

     Computed dipole along edir(3) : 
        Dipole                0.1156 Ry au,          0.2939 Debye
        Dipole field          0.0003 Ry au
 
        Potential amp.       -0.0305 Ry
        Total length         45.0992 bohr
 

     total cpu time spent up to now is      580.2 secs

     total energy              =   -2129.06714079 Ry
     Harris-Foulkes estimate   =   -2129.06819045 Ry
     estimated scf accuracy    <       0.02790753 Ry

     iteration #  6     ecut=    36.75 Ry     beta=0.30
     Davidson diagonalization with overlap
     ethr =  1.49E-05,  avg # of iterations =  6.2

     negative rho (up, down):  1.586E+00 0.000E+00
 
     Adding external electric field

     Computed dipole along edir(3) : 
        Dipole                0.1288 Ry au,          0.3273 Debye
        Dipole field          0.0004 Ry au
 
        Potential amp.       -0.0339 Ry
        Total length         45.0992 bohr
 

     total cpu time spent up to now is      592.2 secs

     total energy              =   -2129.06882908 Ry
     Harris-Foulkes estimate   =   -2129.06920603 Ry
     estimated scf accuracy    <       0.00727385 Ry

     iteration #  7     ecut=    36.75 Ry     beta=0.30
     Davidson diagonalization with overlap
     ethr =  3.89E-06,  avg # of iterations =  1.9

     negative rho (up, down):  1.587E+00 0.000E+00
 
     Adding external electric field

     Computed dipole along edir(3) : 
        Dipole                0.1674 Ry au,          0.4256 Debye
        Dipole field          0.0005 Ry au
 
        Potential amp.       -0.0441 Ry
        Total length         45.0992 bohr
 

     total cpu time spent up to now is      601.8 secs

     total energy              =   -2129.06872683 Ry
     Harris-Foulkes estimate   =   -2129.06902999 Ry
     estimated scf accuracy    <       0.00532383 Ry

     iteration #  8     ecut=    36.75 Ry     beta=0.30
     Davidson diagonalization with overlap
     ethr =  2.85E-06,  avg # of iterations =  3.9

     negative rho (up, down):  1.587E+00 0.000E+00
 
     Adding external electric field

     Computed dipole along edir(3) : 
        Dipole                0.1897 Ry au,          0.4823 Debye
        Dipole field          0.0006 Ry au
 
        Potential amp.       -0.0500 Ry
        Total length         45.0992 bohr
 

     total cpu time spent up to now is      612.4 secs

     total energy              =   -2129.06894412 Ry
     Harris-Foulkes estimate   =   -2129.06905694 Ry
     estimated scf accuracy    <       0.00267362 Ry

     iteration #  9     ecut=    36.75 Ry     beta=0.30
     Davidson diagonalization with overlap
     ethr =  1.43E-06,  avg # of iterations =  2.5

     negative rho (up, down):  1.587E+00 0.000E+00
 
     Adding external electric field

     Computed dipole along edir(3) : 
        Dipole                0.2246 Ry au,          0.5709 Debye
        Dipole field          0.0007 Ry au
 
        Potential amp.       -0.0592 Ry
        Total length         45.0992 bohr
 

     total cpu time spent up to now is      622.3 secs

     total energy              =   -2129.06883426 Ry
     Harris-Foulkes estimate   =   -2129.06898552 Ry
     estimated scf accuracy    <       0.00229188 Ry

     iteration # 10     ecut=    36.75 Ry     beta=0.30
     Davidson diagonalization with overlap
     ethr =  1.23E-06,  avg # of iterations =  1.7

     negative rho (up, down):  1.587E+00 0.000E+00
 
     Adding external electric field

     Computed dipole along edir(3) : 
        Dipole                0.2493 Ry au,          0.6338 Debye
        Dipole field          0.0007 Ry au
 
        Potential amp.       -0.0657 Ry
        Total length         45.0992 bohr
 

     total cpu time spent up to now is      632.1 secs

     total energy              =   -2129.06874934 Ry
     Harris-Foulkes estimate   =   -2129.06883354 Ry
     estimated scf accuracy    <       0.00128265 Ry

     iteration # 11     ecut=    36.75 Ry     beta=0.30
     Davidson diagonalization with overlap
     ethr =  6.86E-07,  avg # of iterations =  2.2

     negative rho (up, down):  1.587E+00 0.000E+00
 
     Adding external electric field

     Computed dipole along edir(3) : 
        Dipole                0.2786 Ry au,          0.7080 Debye
        Dipole field          0.0008 Ry au
 
        Potential amp.       -0.0734 Ry
        Total length         45.0992 bohr
 

     total cpu time spent up to now is      643.2 secs

     total energy              =   -2129.06868255 Ry
     Harris-Foulkes estimate   =   -2129.06873180 Ry
     estimated scf accuracy    <       0.00056510 Ry

     iteration # 12     ecut=    36.75 Ry     beta=0.30
     Davidson diagonalization with overlap
     ethr =  3.02E-07,  avg # of iterations =  5.0

     negative rho (up, down):  1.587E+00 0.000E+00
 
     Adding external electric field

     Computed dipole along edir(3) : 
        Dipole                0.3158 Ry au,          0.8026 Debye
        Dipole field          0.0009 Ry au
 
        Potential amp.       -0.0832 Ry
        Total length         45.0992 bohr
 

     total cpu time spent up to now is      656.1 secs

     total energy              =   -2129.06866957 Ry
     Harris-Foulkes estimate   =   -2129.06866765 Ry
     estimated scf accuracy    <       0.00022579 Ry

     iteration # 13     ecut=    36.75 Ry     beta=0.30
     Davidson diagonalization with overlap
     ethr =  1.21E-07,  avg # of iterations =  4.2

     negative rho (up, down):  1.587E+00 0.000E+00
 
     Adding external electric field

     Computed dipole along edir(3) : 
        Dipole                0.3589 Ry au,          0.9122 Debye
        Dipole field          0.0010 Ry au
 
        Potential amp.       -0.0946 Ry
        Total length         45.0992 bohr
 

     total cpu time spent up to now is      669.3 secs

     total energy              =   -2129.06865210 Ry
     Harris-Foulkes estimate   =   -2129.06862134 Ry
     estimated scf accuracy    <       0.00032256 Ry

     iteration # 14     ecut=    36.75 Ry     beta=0.30
     Davidson diagonalization with overlap
     ethr =  1.21E-07,  avg # of iterations =  3.2

     negative rho (up, down):  1.587E+00 0.000E+00
 
     Adding external electric field

     Computed dipole along edir(3) : 
        Dipole                0.3628 Ry au,          0.9222 Debye
        Dipole field          0.0011 Ry au
 
        Potential amp.       -0.0956 Ry
        Total length         45.0992 bohr
 

     total cpu time spent up to now is      680.1 secs

     total energy              =   -2129.06865340 Ry
     Harris-Foulkes estimate   =   -2129.06865500 Ry
     estimated scf accuracy    <       0.00007375 Ry

     iteration # 15     ecut=    36.75 Ry     beta=0.30
     Davidson diagonalization with overlap
     ethr =  3.94E-08,  avg # of iterations =  5.0

     negative rho (up, down):  1.587E+00 0.000E+00
 
     Adding external electric field

     Computed dipole along edir(3) : 
        Dipole                0.3619 Ry au,          0.9199 Debye
        Dipole field          0.0011 Ry au
 
        Potential amp.       -0.0954 Ry
        Total length         45.0992 bohr
 

     total cpu time spent up to now is      692.4 secs

     total energy              =   -2129.06866301 Ry
     Harris-Foulkes estimate   =   -2129.06866655 Ry
     estimated scf accuracy    <       0.00002061 Ry

     iteration # 16     ecut=    36.75 Ry     beta=0.30
     Davidson diagonalization with overlap
     ethr =  1.10E-08,  avg # of iterations =  1.9

     negative rho (up, down):  1.587E+00 0.000E+00

     negative rho (up, down):  1.587E+00 0.000E+00

     negative rho (up, down):  1.587E+00 0.000E+00

     negative rho (up, down):  1.587E+00 0.000E+00

     negative rho (up, down):  1.587E+00 0.000E+00

     negative rho (up, down):  1.587E+00 0.000E+00

     negative rho (up, down):  1.587E+00 0.000E+00

     negative rho (up, down):  1.587E+00 0.000E+00

     negative rho (up, down):  1.587E+00 0.000E+00

     negative rho (up, down):  1.587E+00 0.000E+00

     negative rho (up, down):  1.587E+00 0.000E+00

     negative rho (up, down):  1.587E+00 0.000E+00

     negative rho (up, down):  1.587E+00 0.000E+00

     negative rho (up, down):  1.587E+00 0.000E+00

     negative rho (up, down):  1.587E+00 0.000E+00

     negative rho (up, down):  1.587E+00 0.000E+00

     negative rho (up, down):  1.587E+00 0.000E+00

     negative rho (up, down):  1.587E+00 0.000E+00

     negative rho (up, down):  1.587E+00 0.000E+00

     negative rho (up, down):  1.587E+00 0.000E+00

     negative rho (up, down):  1.587E+00 0.000E+00

     negative rho (up, down):  1.587E+00 0.000E+00

     negative rho (up, down):  1.587E+00 0.000E+00

     negative rho (up, down):  1.587E+00 0.000E+00

     negative rho (up, down):  1.587E+00 0.000E+00

     negative rho (up, down):  1.587E+00 0.000E+00

     negative rho (up, down):  1.587E+00 0.000E+00

     negative rho (up, down):  1.587E+00 0.000E+00

     negative rho (up, down):  1.587E+00 0.000E+00

     negative rho (up, down):  1.587E+00 0.000E+00

     negative rho (up, down):  1.587E+00 0.000E+00

     negative rho (up, down):  1.587E+00 0.000E+00

     negative rho (up, down):  1.587E+00 0.000E+00

     negative rho (up, down):  1.587E+00 0.000E+00

     negative rho (up, down):  1.587E+00 0.000E+00
 
     Adding external electric field

     Computed dipole along edir(3) : 
        Dipole                0.3714 Ry au,          0.9440 Debye
        Dipole field          0.0011 Ry au
 
        Potential amp.       -0.0979 Ry
        Total length         45.0992 bohr
 

     total cpu time spent up to now is      728.6 secs

     End of self-consistent calculation

          k = 0.0000 0.0000 0.0000 ( 16073 PWs)   bands (ev):

   -64.0199 -63.8759 -63.8616 -63.8531 -63.8517 -63.7893 -63.7682 -63.7680
   -63.6790 -63.6736 -63.6724 -63.6608 -36.5104 -36.4607 -36.4601 -36.4196
   -36.3340 -36.3274 -36.3270 -36.2090 -36.1770 -36.1765 -35.8952 -35.8459
   -35.8458 -35.8133 -35.7858 -35.7855 -35.7320 -35.7234 -35.7233 -35.7218
   -35.6070 -35.6069 -35.5730 -35.5374 -35.5373 -35.5318 -35.5040 -35.4896
   -35.4895 -35.4558 -35.4513 -35.4509 -35.3289 -35.3288 -35.2587 -35.2586
   -11.8465  -5.2159  -3.1522  -2.3745  -2.3744  -2.0039  -1.9828  -1.9826
    -1.8620  -1.6526  -1.4719  -1.4716  -1.4592  -1.3820  -1.1332  -1.1328
    -0.8589  -0.7355  -0.7355   0.3263   0.3265   0.4507   0.9748   1.0715
     1.0715   1.2852   1.5588   1.5588   1.6949   1.7848   1.7848   1.9025
     1.9674   1.9675   2.0774   2.0774   2.4604   2.7974   2.7976   3.1746
     3.4766   3.4767   3.5313   3.7199   3.7200   3.9497   3.9498   3.9543
     4.3552   4.3553   4.6105   5.0377   5.1684   5.1686   5.2889

          k = 0.0000 0.0351 0.0000 ( 16137 PWs)   bands (ev):

   -64.0094 -63.8712 -63.8670 -63.8551 -63.8531 -63.7815 -63.7732 -63.7681
   -63.6818 -63.6787 -63.6725 -63.6628 -36.4734 -36.4278 -36.4142 -36.3849
   -36.3101 -36.2996 -36.2934 -36.1766 -36.1456 -36.1283 -35.9027 -35.8784
   -35.8710 -35.8313 -35.7998 -35.7811 -35.7483 -35.7367 -35.7064 -35.6907
   -35.6248 -35.6178 -35.5759 -35.5585 -35.5459 -35.5354 -35.5228 -35.5170
   -35.5042 -35.4856 -35.4813 -35.4399 -35.3790 -35.3411 -35.3158 -35.2719
   -11.8377  -5.1553  -2.9376  -2.3500  -2.2713  -1.8508  -1.7863  -1.7736
    -1.6280  -1.4586  -1.3360  -1.3159  -1.3093  -1.2482  -0.9906  -0.9503
    -0.6967  -0.6399  -0.6059   0.3583   0.3776   0.4587   0.9577   1.1331
     1.1431   1.2390   1.3654   1.4268   1.6985   1.7438   1.7752   1.8627
     1.9460   1.9998   2.0170   2.2751   2.3211   2.5649   2.5904   2.8329
     3.2626   3.2777   3.3665   3.4873   3.5370   3.6661   3.8184   3.8189
     4.1276   4.3153   4.4326   4.4876   4.5925   4.8849   4.9845

          k = 0.0000 0.0702 0.0000 ( 16149 PWs)   bands (ev):

   -63.9805 -63.8991 -63.8592 -63.8532 -63.8460 -63.7885 -63.7681 -63.7599
   -63.7007 -63.6836 -63.6725 -63.6642 -36.3877 -36.3476 -36.3301 -36.2734
   -36.2403 -36.2349 -36.2231 -36.1087 -36.0707 -36.0060 -35.9441 -35.9376
   -35.9117 -35.8859 -35.7965 -35.7881 -35.7539 -35.7455 -35.6886 -35.6780
   -35.6673 -35.6642 -35.6480 -35.6051 -35.5933 -35.5809 -35.5588 -35.5410
   -35.5331 -35.5243 -35.5056 -35.4896 -35.4343 -35.4063 -35.3715 -35.3076
   -11.8200  -5.0311  -2.5474  -2.1365  -2.0619  -1.5409  -1.3073  -1.2849
    -1.1717  -1.0596  -0.9391  -0.8753  -0.8354  -0.8262  -0.6672  -0.6403
    -0.4101  -0.1277  -0.1120   0.3776   0.4218   0.5227   0.6064   0.8522
     1.1416   1.2161   1.2209   1.3025   1.4765   1.5102   1.6894   1.8234
     1.8702   1.9440   2.1526   2.1589   2.2522   2.3257   2.3455   2.6317
     2.6881   2.7244   2.8718   2.9214   2.9520   3.1326   3.2553   3.3020
     3.5767   3.5890   3.6732   4.1421   4.2478   4.2777   4.3978

          k = 0.0000-0.1053 0.0000 ( 16164 PWs)   bands (ev):

   -63.9441 -63.9362 -63.8588 -63.8533 -63.8291 -63.8041 -63.7681 -63.7331
   -63.7274 -63.6853 -63.6725 -63.6645 -36.3251 -36.2916 -36.2842 -36.2465
   -36.2010 -36.1949 -36.0886 -36.0490 -36.0399 -36.0193 -36.0043 -35.9838
   -35.9228 -35.8231 -35.7885 -35.7620 -35.7445 -35.7389 -35.7296 -35.7163
   -35.7011 -35.6767 -35.6744 -35.6587 -35.6386 -35.6352 -35.6185 -35.6078
   -35.5548 -35.5317 -35.4995 -35.4876 -35.4674 -35.3994 -35.3582 -35.3527
   -11.8113  -4.9674  -2.4845  -1.9564  -1.6693  -1.5004  -1.0359  -1.0041
    -0.9333  -0.8625  -0.7025  -0.6046  -0.4685  -0.3431  -0.2753  -0.2221
    -0.1179  -0.0191   0.0526   0.0876   0.5034   0.6074   0.7008   0.7115
     0.8135   0.9900   1.1664   1.2729   1.5191   1.5535   1.6667   1.7367
     1.7379   1.8278   1.8968   1.9468   1.9532   2.0168   2.1482   2.1871
     2.2836   2.3214   2.4454   2.7861   3.0862   3.0913   3.1426   3.2746
     3.4444   3.5097   3.5714   3.7117   3.7595   3.8327   3.9369

          k = 0.0304-0.0175 0.0000 ( 16137 PWs)   bands (ev):

   -64.0094 -63.8711 -63.8666 -63.8567 -63.8519 -63.7815 -63.7733 -63.7680
   -63.6816 -63.6782 -63.6735 -63.6625 -36.4733 -36.4285 -36.4135 -36.3850
   -36.3099 -36.2992 -36.2938 -36.1768 -36.1452 -36.1285 -35.9025 -35.8784
   -35.8710 -35.8318 -35.7999 -35.7805 -35.7482 -35.7367 -35.7065 -35.6907
   -35.6247 -35.6179 -35.5758 -35.5586 -35.5461 -35.5353 -35.5226 -35.5169
   -35.5043 -35.4859 -35.4810 -35.4400 -35.3791 -35.3410 -35.3158 -35.2718
   -11.8377  -5.1553  -2.9376  -2.3500  -2.2713  -1.8507  -1.7862  -1.7738
    -1.6280  -1.4586  -1.3358  -1.3162  -1.3091  -1.2483  -0.9908  -0.9500
    -0.6967  -0.6399  -0.6059   0.3585   0.3776   0.4587   0.9577   1.1331
     1.1431   1.2391   1.3653   1.4267   1.6986   1.7438   1.7753   1.8627
     1.9460   1.9998   2.0170   2.2751   2.3211   2.5648   2.5905   2.8329
     3.2624   3.2778   3.3663   3.4873   3.5373   3.6660   3.8183   3.8190
     4.1276   4.3155   4.4326   4.4876   4.5925   4.8848   4.9849

          k = 0.0304 0.0175 0.0000 ( 16137 PWs)   bands (ev):

   -64.0094 -63.8711 -63.8669 -63.8560 -63.8524 -63.7815 -63.7732 -63.7681
   -63.6817 -63.6785 -63.6728 -63.6627 -36.4733 -36.4282 -36.4138 -36.3850
   -36.3100 -36.2994 -36.2936 -36.1767 -36.1455 -36.1284 -35.9026 -35.8784
   -35.8710 -35.8316 -35.7998 -35.7808 -35.7482 -35.7367 -35.7064 -35.6907
   -35.6248 -35.6178 -35.5759 -35.5586 -35.5460 -35.5354 -35.5227 -35.5170
   -35.5042 -35.4857 -35.4812 -35.4399 -35.3790 -35.3410 -35.3158 -35.2718
   -11.8377  -5.1553  -2.9376  -2.3500  -2.2713  -1.8507  -1.7862  -1.7737
    -1.6280  -1.4586  -1.3359  -1.3160  -1.3092  -1.2483  -0.9907  -0.9502
    -0.6967  -0.6399  -0.6059   0.3584   0.3776   0.4587   0.9577   1.1331
     1.1431   1.2390   1.3654   1.4268   1.6986   1.7438   1.7753   1.8627
     1.9460   1.9998   2.0170   2.2751   2.3211   2.5649   2.5904   2.8329
     3.2625   3.2778   3.3664   3.4873   3.5371   3.6660   3.8183   3.8190
     4.1276   4.3154   4.4326   4.4876   4.5925   4.8848   4.9847

          k = 0.0304 0.0526 0.0000 ( 16202 PWs)   bands (ev):

   -63.9897 -63.8816 -63.8744 -63.8529 -63.8450 -63.7822 -63.7698 -63.7665
   -63.6897 -63.6822 -63.6810 -63.6604 -36.4139 -36.3698 -36.3301 -36.3204
   -36.2667 -36.2513 -36.2415 -36.1307 -36.0742 -36.0535 -35.9387 -35.9161
[...]
    -0.4017  -0.1566  -0.1326   0.2865   0.4044   0.5255   0.5626   0.7824
     1.0699   1.1801   1.2203   1.3405   1.4578   1.5066   1.7254   1.8175
     1.8635   1.9576   2.0066   2.1133   2.1931   2.2929   2.3096   2.6554
     2.6986   2.7466   2.8844   2.9362   2.9793   3.1283   3.2656   3.3020
     3.5367   3.6610   3.7079   4.1809   4.2567   4.2912   4.4231

          k = 0.0608 0.0000 0.0000 ( 16202 PWs)   bands (ev):

   -63.9965 -63.8829 -63.8789 -63.8478 -63.8414 -63.7663 -63.7575 -63.7472
   -63.6847 -63.6824 -63.6611 -63.6376 -36.4502 -36.4087 -36.3644 -36.3442
   -36.2933 -36.2890 -36.2601 -36.1280 -36.0665 -36.0437 -35.9420 -35.9092
   -35.8990 -35.8905 -35.7925 -35.7709 -35.7401 -35.7216 -35.7044 -35.6703
   -35.6581 -35.6223 -35.6112 -35.5743 -35.5671 -35.5545 -35.5408 -35.5133
   -35.4919 -35.4698 -35.4521 -35.4447 -35.4259 -35.3756 -35.3249 -35.2978
   -11.5854  -4.8389  -2.5669  -2.0579  -1.8713  -1.6216  -1.6037  -1.4767
    -1.2768  -1.1718  -1.1233  -1.0889  -1.0847  -0.9779  -0.7337  -0.7095
    -0.4547  -0.4230  -0.2434   0.3246   0.3900   0.4726   0.7117   0.9055
     1.0932   1.2091   1.2692   1.2990   1.3865   1.6807   1.7279   1.8300
     1.8617   2.0242   2.0593   2.0760   2.1791   2.2363   2.5053   2.7111
     2.7995   2.8413   2.9823   3.1441   3.2641   3.3366   3.3969   3.4545
     3.5566   3.6946   3.9196   4.1962   4.3233   4.4872   4.5783

          k = 0.0608 0.0351 0.0000 ( 16149 PWs)   bands (ev):

   -63.9871 -63.9027 -63.8596 -63.8576 -63.8365 -63.7651 -63.7567 -63.7462
   -63.6987 -63.6691 -63.6673 -63.6382 -36.4282 -36.3862 -36.3595 -36.3029
   -36.2775 -36.2635 -36.2394 -36.1085 -36.0622 -35.9959 -35.9450 -35.9428
   -35.9288 -35.8803 -35.7793 -35.7745 -35.7436 -35.7313 -35.6769 -35.6767
   -35.6667 -35.6488 -35.6260 -35.5948 -35.5821 -35.5680 -35.5588 -35.5350
   -35.4967 -35.4908 -35.4739 -35.4510 -35.4024 -35.3973 -35.3312 -35.3017
   -11.5814  -4.8055  -2.4465  -2.0314  -1.7698  -1.6138  -1.3897  -1.3501
    -1.2349  -1.0858  -0.9906  -0.9408  -0.8818  -0.8457  -0.7002  -0.6488
    -0.4017  -0.1566  -0.1326   0.2865   0.4044   0.5255   0.5626   0.7824
     1.0699   1.1801   1.2203   1.3405   1.4578   1.5066   1.7254   1.8175
     1.8635   1.9576   2.0066   2.1133   2.1931   2.2929   2.3096   2.6554
     2.6986   2.7466   2.8844   2.9362   2.9793   3.1283   3.2656   3.3020
     3.5367   3.6610   3.7079   4.1809   4.2567   4.2912   4.4231

          k = 0.0608-0.1404 0.0000 ( 16203 PWs)   bands (ev):

   -63.9611 -63.9183 -63.8865 -63.8418 -63.8264 -63.7698 -63.7492 -63.7391
   -63.7097 -63.6875 -63.6570 -63.6391 -36.3805 -36.3344 -36.2857 -36.2660
   -36.2384 -36.1942 -36.1771 -36.1026 -36.0407 -36.0020 -35.9869 -35.9497
   -35.9268 -35.8439 -35.8110 -35.7903 -35.7513 -35.7205 -35.7122 -35.6935
   -35.6714 -35.6628 -35.6485 -35.6377 -35.6193 -35.5984 -35.5788 -35.5687
   -35.5242 -35.4992 -35.4753 -35.4379 -35.4230 -35.4029 -35.3628 -35.3435
   -11.5732  -4.7361  -2.2419  -1.7477  -1.6745  -1.3369  -1.0741  -1.0355
    -0.9883  -0.8437  -0.7353  -0.6672  -0.5980  -0.5385  -0.3436  -0.2915
    -0.1385  -0.0695   0.0548   0.1841   0.3923   0.4682   0.5410   0.7278
     0.8450   0.9300   1.0035   1.1859   1.3456   1.3771   1.5018   1.5566
     1.6533   1.7527   1.8569   1.8896   1.9996   2.1000   2.2051   2.3174
     2.3893   2.4525   2.5089   2.6671   2.9059   3.1646   3.2347   3.2947
     3.3555   3.5833   3.6233   3.7768   3.9495   4.0431   4.2720

          k = 0.0608-0.1053 0.0000 ( 16272 PWs)   bands (ev):

   -63.9308 -63.9223 -63.9193 -63.8355 -63.8207 -63.7712 -63.7527 -63.7149
   -63.7143 -63.7116 -63.6529 -63.6394 -36.3507 -36.2805 -36.2447 -36.2275
   -36.2244 -36.1355 -36.1303 -36.1241 -36.1222 -36.0551 -35.9455 -35.8863
   -35.8802 -35.8760 -35.8228 -35.8141 -35.7957 -35.7824 -35.7338 -35.6976
   -35.6801 -35.6518 -35.6370 -35.6318 -35.6275 -35.6228 -35.6133 -35.5453
   -35.5058 -35.5042 -35.4686 -35.4383 -35.4301 -35.4056 -35.3958 -35.3921
   -11.5691  -4.7001  -2.1437  -1.7570  -1.2172  -1.1741  -1.1011  -0.6799
    -0.6507  -0.6068  -0.5465  -0.4404  -0.3999  -0.3090  -0.3026  -0.2574
    -0.1535  -0.0894  -0.0767   0.3529   0.3796   0.5185   0.6953   0.7390
     0.7807   0.8481   0.8812   0.9402   1.0673   1.0997   1.1026   1.2056
     1.3918   1.3934   1.7880   1.8217   1.8272   1.9519   2.0828   2.1212
     2.2702   2.4337   2.4731   2.5851   2.8990   2.9131   3.2467   3.4731
     3.5337   3.6038   3.7028   3.8145   4.0861   4.2481   4.2745

          k = 0.0608-0.0702 0.0000 ( 16203 PWs)   bands (ev):

   -63.9611 -63.9183 -63.8865 -63.8418 -63.8264 -63.7698 -63.7492 -63.7391
   -63.7097 -63.6876 -63.6570 -63.6391 -36.3805 -36.3344 -36.2857 -36.2660
   -36.2384 -36.1942 -36.1771 -36.1026 -36.0407 -36.0020 -35.9869 -35.9497
   -35.9268 -35.8439 -35.8110 -35.7902 -35.7513 -35.7205 -35.7122 -35.6935
   -35.6714 -35.6628 -35.6485 -35.6377 -35.6193 -35.5984 -35.5788 -35.5687
   -35.5242 -35.4992 -35.4753 -35.4379 -35.4230 -35.4029 -35.3628 -35.3435
   -11.5732  -4.7361  -2.2419  -1.7477  -1.6745  -1.3369  -1.0741  -1.0355
    -0.9883  -0.8437  -0.7353  -0.6672  -0.5980  -0.5385  -0.3436  -0.2915
    -0.1385  -0.0695   0.0548   0.1841   0.3923   0.4682   0.5410   0.7278
     0.8450   0.9300   1.0035   1.1859   1.3456   1.3771   1.5018   1.5566
     1.6533   1.7527   1.8569   1.8896   1.9996   2.1000   2.2051   2.3174
     2.3893   2.4525   2.5089   2.6671   2.9059   3.1646   3.2347   3.2947
     3.3555   3.5833   3.6233   3.7768   3.9495   4.0431   4.2720

          k =-0.0912 0.0526 0.0000 ( 16164 PWs)   bands (ev):

   -63.9495 -63.9412 -63.8596 -63.8577 -63.8253 -63.7732 -63.7461 -63.7293
   -63.7278 -63.6692 -63.6673 -63.6392 -36.3805 -36.3351 -36.3018 -36.2832
   -36.2445 -36.1997 -36.1006 -36.0780 -36.0557 -36.0212 -35.9970 -35.9914
   -35.9357 -35.7906 -35.7618 -35.7520 -35.7348 -35.7343 -35.7105 -35.6901
   -35.6875 -35.6687 -35.6593 -35.6355 -35.6335 -35.6290 -35.6197 -35.6062
   -35.5436 -35.4917 -35.4679 -35.4323 -35.4307 -35.3705 -35.3546 -35.3322
   -11.5732  -4.7373  -2.2882  -1.6842  -1.6283  -1.5087  -1.1476  -1.0739
    -0.9788  -0.8550  -0.7858  -0.6932  -0.4997  -0.3653  -0.3574  -0.2519
    -0.1455  -0.0515  -0.0239   0.0611   0.4347   0.5555   0.6190   0.7079
     0.7823   0.9245   1.1929   1.3234   1.4552   1.4554   1.5993   1.7947
     1.8062   1.8097   1.8871   1.9312   1.9720   2.0315   2.0764   2.1623
     2.2361   2.3605   2.4825   2.8943   3.0037   3.0532   3.0979   3.3526
     3.4498   3.5667   3.5837   3.6414   3.7896   3.8836   3.9327

          k =-0.0912 0.0877 0.0000 ( 16203 PWs)   bands (ev):

   -63.9611 -63.9183 -63.8865 -63.8418 -63.8264 -63.7698 -63.7492 -63.7391
   -63.7097 -63.6875 -63.6570 -63.6391 -36.3805 -36.3344 -36.2857 -36.2660
   -36.2384 -36.1942 -36.1771 -36.1026 -36.0407 -36.0020 -35.9869 -35.9497
   -35.9268 -35.8439 -35.8110 -35.7903 -35.7513 -35.7205 -35.7122 -35.6935
   -35.6714 -35.6628 -35.6485 -35.6377 -35.6193 -35.5984 -35.5788 -35.5687
   -35.5242 -35.4992 -35.4753 -35.4379 -35.4230 -35.4029 -35.3628 -35.3435
   -11.5732  -4.7361  -2.2419  -1.7477  -1.6745  -1.3369  -1.0741  -1.0355
    -0.9883  -0.8436  -0.7353  -0.6672  -0.5980  -0.5385  -0.3436  -0.2915
    -0.1385  -0.0695   0.0548   0.1841   0.3923   0.4682   0.5410   0.7278
     0.8450   0.9300   1.0035   1.1859   1.3456   1.3771   1.5018   1.5566
     1.6533   1.7527   1.8569   1.8896   1.9996   2.1000   2.2051   2.3174
     2.3893   2.4525   2.5089   2.6671   2.9059   3.1646   3.2346   3.2947
     3.3555   3.5833   3.6233   3.7768   3.9495   4.0431   4.2720

          k =-0.0912 0.1228 0.0000 ( 16203 PWs)   bands (ev):

   -63.9611 -63.9183 -63.8865 -63.8418 -63.8264 -63.7698 -63.7492 -63.7391
   -63.7097 -63.6875 -63.6570 -63.6391 -36.3805 -36.3344 -36.2857 -36.2660
   -36.2384 -36.1942 -36.1771 -36.1026 -36.0407 -36.0020 -35.9869 -35.9497
   -35.9268 -35.8439 -35.8110 -35.7903 -35.7513 -35.7205 -35.7122 -35.6935
   -35.6714 -35.6628 -35.6485 -35.6377 -35.6193 -35.5984 -35.5788 -35.5687
   -35.5242 -35.4992 -35.4753 -35.4379 -35.4230 -35.4029 -35.3628 -35.3435
   -11.5732  -4.7361  -2.2419  -1.7477  -1.6745  -1.3369  -1.0741  -1.0355
    -0.9883  -0.8436  -0.7353  -0.6672  -0.5979  -0.5385  -0.3436  -0.2915
    -0.1385  -0.0695   0.0548   0.1841   0.3923   0.4682   0.5410   0.7278
     0.8450   0.9300   1.0035   1.1859   1.3456   1.3771   1.5018   1.5566
     1.6533   1.7527   1.8569   1.8896   1.9996   2.1000   2.2051   2.3174
     2.3893   2.4525   2.5089   2.6671   2.9059   3.1646   3.2346   3.2947
     3.3555   3.5833   3.6233   3.7768   3.9495   4.0431   4.2720

          k =-0.0912-0.0526 0.0000 ( 16164 PWs)   bands (ev):

   -63.9495 -63.9412 -63.8596 -63.8577 -63.8253 -63.7732 -63.7461 -63.7292
   -63.7278 -63.6691 -63.6673 -63.6392 -36.3805 -36.3351 -36.3018 -36.2832
   -36.2446 -36.1997 -36.1006 -36.0780 -36.0557 -36.0212 -35.9970 -35.9913
   -35.9357 -35.7906 -35.7618 -35.7520 -35.7347 -35.7343 -35.7105 -35.6901
   -35.6875 -35.6687 -35.6593 -35.6355 -35.6336 -35.6290 -35.6198 -35.6062
   -35.5436 -35.4917 -35.4679 -35.4323 -35.4307 -35.3705 -35.3546 -35.3322
   -11.5732  -4.7373  -2.2882  -1.6842  -1.6283  -1.5087  -1.1476  -1.0739
    -0.9788  -0.8550  -0.7858  -0.6932  -0.4997  -0.3653  -0.3574  -0.2519
    -0.1455  -0.0515  -0.0239   0.0611   0.4347   0.5555   0.6190   0.7079
     0.7823   0.9245   1.1929   1.3234   1.4552   1.4554   1.5994   1.7947
     1.8062   1.8097   1.8871   1.9312   1.9720   2.0316   2.0764   2.1622
     2.2361   2.3605   2.4825   2.8943   3.0037   3.0532   3.0979   3.3526
     3.4498   3.5667   3.5837   3.6414   3.7896   3.8836   3.9327

     the Fermi energy is     3.2565 ev

!    total energy              =   -2129.08368213 Ry
     Harris-Foulkes estimate   =   -2129.08368437 Ry
     estimated scf accuracy    <       0.00000009 Ry

     The total energy is the sum of the following terms:

     one-electron contribution =  -19346.69990649 Ry
     hartree contribution      =    9678.91968875 Ry
     xc contribution           =    -406.89393648 Ry
     ewald contribution        =    7945.67939918 Ry
     electric field correction =       0.00041160 Ry
     smearing contrib. (-TS)   =      -0.08933869 Ry

     convergence has been achieved in   7 iterations
 
 BEEF-vdW xc energy contributions
           1 :   -356.305799829411     
           2 :    327.449412666365     
           3 :   -276.148313964887     
           4 :    212.699367508102     
           5 :   -148.084967594116     
           6 :    90.9903949896658     
           7 :   -46.1096979541407     
           8 :    13.9674271717845     
           9 :    7.85155757217012     
          10 :   -22.8188211259328     
          11 :    33.7065226103238     
          12 :   -41.6506151451366     
          13 :    46.1860417007738     
          14 :   -46.0658154151804     
          15 :    40.3485100877813     
          16 :   -29.2624369387368     
          17 :    14.4733194752269     
          18 :    1.29033450511088     
          19 :   -15.0628056310594     
          20 :    24.5298699851560     
          21 :   -28.6286226093421     
          22 :    27.6426190475827     
          23 :   -22.8321582025308     
          24 :    15.8128727543356     
          25 :   -7.98604261480961     
          26 :   0.241503070122064     
          27 :    7.00149169371690     
          28 :   -13.5273839496232     
          29 :    19.0285307899402     
          30 :   -22.9639608472647     
          31 :   -34.0985925732205     
          32 :   -25.0219062823544     

     Forces acting on atoms (Ry/au):


     negative rho (up, down):  1.586E+00 0.000E+00
     atom    1 type  1   force =     0.00112504    0.00064902    0.02055751
     atom    2 type  1   force =    -0.00112474    0.00064811    0.02055585
     atom    3 type  1   force =    -0.00000071   -0.00129752    0.02055609
     atom    4 type  1   force =     0.00000068    0.00000104    0.02050526
     atom    5 type  1   force =     0.00000088   -0.00530222   -0.02648695
     atom    6 type  1   force =    -0.00000188   -0.00000178   -0.00453225
     atom    7 type  1   force =     0.00459046    0.00264986   -0.02648796
     atom    8 type  1   force =    -0.00459139    0.00265063   -0.02648617
     atom    9 type  1   force =    -0.00000106   -0.00000301    0.00036596
     atom   10 type  1   force =     0.00000134    0.00007740   -0.00034343
     atom   11 type  1   force =     0.00007102   -0.00003630   -0.00034216
     atom   12 type  1   force =    -0.00007114   -0.00003837   -0.00033966
     atom   13 type  2   force =     0.00000112    0.00000297    0.00125928
     atom   14 type  3   force =     0.00000038    0.00000015    0.00121862

     Total force =     0.001891     Total SCF correction =     0.000457
     SCF correction compared to forces is large: reduce conv_thr to get better values


     entering subroutine stress ...


     negative rho (up, down):  1.586E+00 0.000E+00
          total   stress  (Ry/bohr**3)                   (kbar)     P=  -15.91
  -0.00011574  -0.00000000   0.00000000        -17.03     -0.00      0.00
  -0.00000000  -0.00011574   0.00000000         -0.00    -17.03      0.00
   0.00000000   0.00000000  -0.00009296          0.00      0.00    -13.68


     bfgs converged in   9 scf cycles and   8 bfgs steps
     (criteria: energy <  1.0E+00, force <  1.9E-03)

     End of BFGS Geometry Optimization

     Final energy   =   -2129.0836821331 Ry
Begin final coordinates

ATOMIC_POSITIONS (crystal)
Tc1      0.166666667   0.166666667   0.408540475    0   0   0
Tc1      0.666666667   0.166666667   0.408540475    0   0   0
Tc1      0.166666667   0.666666667   0.408540475    0   0   0
Tc1      0.666666667   0.666666667   0.408540475    0   0   0
Tc1      0.833333333   0.333333333   0.500000000    0   0   0
Tc1      0.333333333   0.333333333   0.500000000    0   0   0
Tc1      0.833333333   0.833333333   0.500000000    0   0   0
Tc1      0.333333333   0.833333333   0.500000000    0   0   0
Tc1     -0.000000107   0.000000318   0.585219056
Tc1      0.508387554  -0.016775004   0.589293033
Tc1     -0.016776702   0.508387418   0.589293397
Tc1      0.508389168   0.508387743   0.589293295
S1       0.333334368   0.333331946   0.658152696
H1       0.333333181   0.333333474   0.714314086
End final coordinates



     Writing output data file calc.save
 
     init_run     :      5.14s CPU      6.21s WALL (       1 calls)
     electrons    :   1725.40s CPU   2249.12s WALL (       9 calls)
     update_pot   :     15.82s CPU     18.59s WALL (       8 calls)
     forces       :     51.68s CPU     53.55s WALL (       9 calls)
     stress       :    143.17s CPU    149.13s WALL (       9 calls)

     Called by init_run:
     wfcinit      :      2.05s CPU      2.57s WALL (       1 calls)
     potinit      :      1.11s CPU      1.43s WALL (       1 calls)

     Called by electrons:
     c_bands      :   1023.29s CPU   1352.14s WALL (     157 calls)
     sum_band     :    252.78s CPU    306.56s WALL (     157 calls)
     v_of_rho     :    151.70s CPU    232.46s WALL (     165 calls)
     newd         :    160.80s CPU    180.65s WALL (     165 calls)
     mix_rho      :      3.08s CPU      3.76s WALL (     157 calls)
     vdW_energy   :     50.47s CPU     55.98s WALL (     489 calls)
     vdW_ffts     :     65.92s CPU     97.63s WALL (     996 calls)
     vdW_v        :     29.59s CPU     34.85s WALL (     489 calls)

     Called by c_bands:
     init_us_2    :      5.29s CPU      5.81s WALL (    2331 calls)
     cegterg      :    796.49s CPU    953.18s WALL (    1099 calls)

     Called by *egterg:
     h_psi        :    375.52s CPU    501.36s WALL (    5824 calls)
     s_psi        :     47.98s CPU     48.90s WALL (    5824 calls)
     g_psi        :      4.41s CPU      4.42s WALL (    4718 calls)
     cdiaghg      :    191.23s CPU    193.16s WALL (    5754 calls)

     Called by h_psi:
     add_vuspsi   :     48.44s CPU     49.32s WALL (    5824 calls)

     General routines
     calbec       :     68.63s CPU     72.37s WALL (    7049 calls)
     fft          :     95.36s CPU    141.28s WALL (   29829 calls)
     ffts         :      0.20s CPU      0.29s WALL (     322 calls)
     fftw         :    258.09s CPU    406.25s WALL (  707721 calls)
     interpolate  :      1.18s CPU      1.97s WALL (     322 calls)
     davcio       :      0.02s CPU      0.14s WALL (       7 calls)
 
     Parallel routines
     fft_scatter  :    183.96s CPU    319.08s WALL (  737872 calls)
 
     PWSCF        : 32m33.78s CPU    41m34.47s WALL

 
   This run was terminated on:  14:44:56  23Apr2018            

=------------------------------------------------------------------------------=
   JOB DONE.
=------------------------------------------------------------------------------=
Job  /afs/slac/g/suncat/bin/suncat-tsmpirun -x LD_LIBRARY_PATH -wdir /scratch/qe17387_KRsht pw.x -npool 3 -in pw.inp

TID   HOST_NAME   COMMAND_LINE            STATUS            TERMINATION_TIME
===== ========== ================  =======================  ===================
00000 suncat2006 pw.x -npool 3 -i  Done                     04/23/2018 14:44:56
00001 suncat2006 pw.x -npool 3 -i  Done                     04/23/2018 14:44:56
00002 suncat2006 pw.x -npool 3 -i  Done                     04/23/2018 14:44:56
00003 suncat2006 pw.x -npool 3 -i  Done                     04/23/2018 14:44:56
00004 suncat2058 pw.x -npool 3 -i  Done                     04/23/2018 14:44:56
00005 suncat2058 pw.x -npool 3 -i  Done                     04/23/2018 14:44:56
00006 suncat2058 pw.x -npool 3 -i  Done                     04/23/2018 14:44:56
00007 suncat2058 pw.x -npool 3 -i  Done                     04/23/2018 14:44:56
00008 suncat2058 pw.x -npool 3 -i  Done                     04/23/2018 14:44:56
00009 suncat2058 pw.x -npool 3 -i  Done                     04/23/2018 14:44:56
00010 suncat2058 pw.x -npool 3 -i  Done                     04/23/2018 14:44:56
00011 suncat2058 pw.x -npool 3 -i  Done                     04/23/2018 14:44:56
00012 suncat2058 pw.x -npool 3 -i  Done                     04/23/2018 14:44:56
00013 suncat2058 pw.x -npool 3 -i  Done                     04/23/2018 14:44:56
00014 suncat2058 pw.x -npool 3 -i  Done                     04/23/2018 14:44:56
00015 suncat2058 pw.x -npool 3 -i  Done                     04/23/2018 14:44:56
00016 suncat2058 pw.x -npool 3 -i  Done                     04/23/2018 14:44:56
00017 suncat2058 pw.x -npool 3 -i  Done                     04/23/2018 14:44:56
00018 suncat2058 pw.x -npool 3 -i  Done                     04/23/2018 14:44:56
00019 suncat2058 pw.x -npool 3 -i  Done                     04/23/2018 14:44:56
00020 suncat2050 pw.x -npool 3 -i  Done                     04/23/2018 14:44:56
00021 suncat2050 pw.x -npool 3 -i  Done                     04/23/2018 14:44:56
00022 suncat2050 pw.x -npool 3 -i  Done                     04/23/2018 14:44:56
00023 suncat2050 pw.x -npool 3 -i  Done                     04/23/2018 14:44:56
00024 suncat2050 pw.x -npool 3 -i  Done                     04/23/2018 14:44:56
00025 suncat2050 pw.x -npool 3 -i  Done                     04/23/2018 14:44:56
00026 suncat2050 pw.x -npool 3 -i  Done                     04/23/2018 14:44:56
00027 suncat2050 pw.x -npool 3 -i  Done                     04/23/2018 14:44:56
00028 suncat2050 pw.x -npool 3 -i  Done                     04/23/2018 14:44:56
00029 suncat2050 pw.x -npool 3 -i  Done                     04/23/2018 14:44:56
00030 suncat2050 pw.x -npool 3 -i  Done                     04/23/2018 14:44:56
00031 suncat2050 pw.x -npool 3 -i  Done                     04/23/2018 14:44:56
00032 suncat2050 pw.x -npool 3 -i  Done                     04/23/2018 14:44:56
00033 suncat2050 pw.x -npool 3 -i  Done                     04/23/2018 14:44:56
00034 suncat2050 pw.x -npool 3 -i  Done                     04/23/2018 14:44:56
00035 suncat2050 pw.x -npool 3 -i  Done                     04/23/2018 14:44:56
