  python dir          : /u/if/mamunm/src/espresso
  espresso dir        : /nfs/slac/g/suncatfs/sw/espv18/espresso-dynpy-beef/bin
  pseudo dir          : /u/if/mamunm/psp/gbrv1.5pbe
  ase-espresso py git : GITVERSION



     Program PWSCF v.5.1rc2 (svn rev. 11289) starts on  2May2018 at 15:49:12 

     This program is part of the open-source Quantum ESPRESSO suite
     for quantum simulation of materials; please cite
         "P. Giannozzi et al., J. Phys.:Condens. Matter 21 395502 (2009);
          URL http://www.quantum-espresso.org", 
     in publications or presentations arising from this work. More details at
     http://www.quantum-espresso.org/quote

     Parallel version (MPI), running on    32 processors
     K-points division:     npool     =       4
     R & G space division:  proc/nbgrp/npool/nimage =       8
     Reading input from pw.inp
     Message from routine read_cards :
     DEPRECATED: no units specified in CELL_PARAMETERS card

     Current dimensions of program PWSCF are:
     Max number of different atomic species (ntypx) = 10
     Max number of k-points (npk) =  40000
     Max angular momentum in pseudopotentials (lmaxx) =  3
     Presently stress not available with electric field


     **************************************************************************
     Initializing libbeef V0.1.1 with the BEEF-vdW functional.
     Citation: Wellendorff et al., PRB 85, 235149 (2012).
     **************************************************************************


     IMPORTANT: XC functional enforced from input :
     Exchange-correlation      = BEEF-VDW ( 1  4 27 13 2)
     Any further DFT definition will be discarded
     Please, verify this is what you really want


     Subspace diagonalization in iterative solution of the eigenvalue problem:
     a serial algorithm will be used

 
     Parallelization info
     --------------------
     sticks:   dense  smooth     PW     G-vecs:    dense   smooth      PW
     Min         469     188     53                90947    23011    3531
     Max         471     189     55                90959    23054    3542
     Sum        3757    1507    433               727599   184247   28311
 


     bravais-lattice index     =            0
     lattice parameter (alat)  =       1.8897  a.u.
     unit-cell volume          =    6116.8020 (a.u.)^3
     number of atoms/cell      =           13
     number of atomic types    =            2
     number of electrons       =       138.00
     number of Kohn-Sham states=           79
     kinetic-energy cutoff     =      36.7493  Ry
     charge density cutoff     =     367.4932  Ry
     convergence threshold     =      1.0E-05
     mixing beta               =       0.3000
     number of iterations used =           10  plain     mixing
     Exchange-correlation      = BEEF-VDW ( 1  4 27 13 2)
     nstep                     =           50


     celldm(1)=   1.889726  celldm(2)=   0.000000  celldm(3)=   0.000000
     celldm(4)=   0.000000  celldm(5)=   0.000000  celldm(6)=   0.000000

     crystal axes: (cart. coord. in units of alat)
               a(1) = (   6.437465   0.000000   0.000000 )  
               a(2) = (   3.218732   5.575008   0.000000 )  
               a(3) = (   0.000000   0.000000  25.256168 )  

     reciprocal axes: (cart. coord. in units 2 pi/alat)
               b(1) = (  0.155341 -0.089686  0.000000 )  
               b(2) = (  0.000000  0.179372  0.000000 )  
               b(3) = (  0.000000  0.000000  0.039594 )  


     PseudoPot. # 1 for Sc read from file:
     /u/if/mamunm/psp/gbrv1.5pbe/Sc.UPF
     MD5 check sum: db30a2753ba66ef00f23801d899b7e7f
     Pseudo is Ultrasoft + core correction, Zval = 11.0
     Generated by new atomic code, or converted to UPF format
     Using radial grid of  849 points,  6 beta functions with: 
                l(1) =   0
                l(2) =   0
                l(3) =   1
                l(4) =   1
                l(5) =   2
                l(6) =   2
     Q(r) pseudized with  6 coefficients,  rinner =    1.200   1.200   1.200
                                                       1.200   1.200

     PseudoPot. # 2 for S  read from file:
     /u/if/mamunm/psp/gbrv1.5pbe/S.UPF
     MD5 check sum: 88d86576ff6df21479756cfb9bdac1df
     Pseudo is Ultrasoft + core correction, Zval =  6.0
     Generated by new atomic code, or converted to UPF format
     Using radial grid of  907 points,  6 beta functions with: 
                l(1) =   0
                l(2) =   0
                l(3) =   1
                l(4) =   1
                l(5) =   2
                l(6) =   2
     Q(r) pseudized with  8 coefficients,  rinner =    1.300   1.300   1.300
                                                       1.300   1.300

     vdW kernel table read from file vdW_kernel_table
     MD5 check sum: 095c7af220d748ca6e76c0b4c6cfb241

     atomic species   valence    mass     pseudopotential
        Sc1           11.00    44.95591     Sc( 1.00)
        S1             6.00    32.06000     S ( 1.00)

     No symmetry found



   Cartesian axes

     site n.     atom                  positions (alat units)
         1           Sc1 tau(   1) = (   1.6093662   0.9291680  10.0000000  )
         2           Sc1 tau(   2) = (   4.8280986   0.9291680  10.0000000  )
         3           Sc1 tau(   3) = (   3.2187324   3.7166720  10.0000000  )
         4           Sc1 tau(   4) = (   6.4374648   3.7166720  10.0000000  )
         5           Sc1 tau(   5) = (   6.4374648   1.8583360  12.6280840  )
         6           Sc1 tau(   6) = (   3.2187324   1.8583360  12.6280840  )
         7           Sc1 tau(   7) = (   8.0468310   4.6458400  12.6280840  )
         8           Sc1 tau(   8) = (   4.8280986   4.6458400  12.6280840  )
         9           Sc1 tau(   9) = (   0.0000000   0.0000000  15.2561680  )
        10           Sc1 tau(  10) = (   3.2187324   0.0000000  15.2561680  )
        11           Sc1 tau(  11) = (   1.6093662   2.7875040  15.2561680  )
        12           Sc1 tau(  12) = (   4.8280986   2.7875040  15.2561680  )
        13           S1  tau(  13) = (   0.0000000   0.0000000  17.5936680  )

     number of k points=    20  Fermi-Dirac smearing, width (Ry)=  0.0110
                       cart. coord. in units 2pi/alat
        k(    1) = (   0.0000000   0.0000000   0.0000000), wk =   0.0555556
        k(    2) = (   0.0000000   0.0298953   0.0000000), wk =   0.1111111
        k(    3) = (   0.0000000   0.0597906   0.0000000), wk =   0.1111111
        k(    4) = (   0.0000000  -0.0896860   0.0000000), wk =   0.0555556
        k(    5) = (   0.0258901  -0.0149477   0.0000000), wk =   0.1111111
        k(    6) = (   0.0258901   0.0149477   0.0000000), wk =   0.1111111
        k(    7) = (   0.0258901   0.0448430   0.0000000), wk =   0.1111111
        k(    8) = (   0.0258901  -0.1046336   0.0000000), wk =   0.1111111
        k(    9) = (   0.0258901  -0.0747383   0.0000000), wk =   0.1111111
        k(   10) = (   0.0258901  -0.0448430   0.0000000), wk =   0.1111111
        k(   11) = (   0.0517802  -0.0298953   0.0000000), wk =   0.1111111
        k(   12) = (   0.0517802   0.0000000   0.0000000), wk =   0.1111111
        k(   13) = (   0.0517802   0.0298953   0.0000000), wk =   0.1111111
        k(   14) = (   0.0517802  -0.1195813   0.0000000), wk =   0.1111111
        k(   15) = (   0.0517802  -0.0896860   0.0000000), wk =   0.1111111
        k(   16) = (   0.0517802  -0.0597906   0.0000000), wk =   0.1111111
        k(   17) = (  -0.0776703   0.0448430   0.0000000), wk =   0.0555556
        k(   18) = (  -0.0776703   0.0747383   0.0000000), wk =   0.1111111
        k(   19) = (  -0.0776703   0.1046336   0.0000000), wk =   0.1111111
        k(   20) = (  -0.0776703  -0.0448430   0.0000000), wk =   0.0555556

     Dense  grid:   727599 G-vectors     FFT dimensions: (  75,  75, 300)

     Smooth grid:   184247 G-vectors     FFT dimensions: (  48,  48, 192)

     Largest allocated arrays     est. size (Mb)     dimensions
        Kohn-Sham Wavefunctions         3.51 Mb     (    2914,   79)
        NL pseudopotentials            10.40 Mb     (    2914,  234)
        Each V/rho on FFT grid          3.26 Mb     (  213750)
        Each G-vector array             0.69 Mb     (   90950)
        G-vector shells                 0.18 Mb     (   23259)
     Largest temporary arrays     est. size (Mb)     dimensions
        Auxiliary wavefunctions        14.05 Mb     (    2914,  316)
        Each subspace H/S matrix        1.52 Mb     (     316,  316)
        Each <psi_i|beta_j> matrix      0.28 Mb     (     234,   79)
        Arrays for rho mixing          32.62 Mb     (  213750,   10)

     Initial potential from superposition of free atoms
     Check: negative starting charge=   -0.000241

     starting charge  137.97114, renormalised to  138.00000

     negative rho (up, down):  2.409E-04 0.000E+00


     ************************************************************************
     *
     * You are using vdW-DF for exchange-correlation in this calculation.
     * Please cite the following three references that made this development
     * possible:
     *
     *   M. Dion, H. Rydberg, E. Schroder, D. C. Langreth, and
     *   B. I. Lundqvist, Phys. Rev. Lett. 92, 246401 (2004).
     *
     *   T. Thonhauser, V. R. Cooper, S. Li, A. Puzder, P. Hyldgaard, and
     *   D. C. Langreth, Phys. Rev. B 76, 125112 (2007).
     *
     *   G. Roman-Perez and J. M. Soler, Phys. Rev. Lett. 103, 096102 (2009).
     *
     *
     * If you are using vdW-DF2, please also cite:
     *
     *   K. Lee, E. D. Murray, L. Kong, B. I. Lundqvist, and
     *   D. C. Langreth, Phys. Rev. B 82, 081101(R) (2010).
     *
     *
     * If you are calculating the stress with vdW-DF, please also cite:
     *
     *   R. Sabatini, E. Kucukbenli, B. Kolb, T. Thonhauser, and
     *   S. de Gironcoli, J. Phys.: Condens. Matter 24, 424209 (2012).
     *
     ************************************************************************

     Carrying out vdW-DF run using the following parameters:

     Nqs =      20    Nr_points =    1024   r_max =   100.000
     q_mesh =
               0.00001000     0.04494208     0.09755937     0.15916263
               0.23128650     0.31572767     0.41458969     0.53033537
               0.66584808     0.82450364     1.01025438     1.22772762
               1.48234092     1.78043706     2.12944203     2.53805004
               3.01644009     3.57652955     4.23227104     5.00000000

     Gradients computed in reciprocal space

     ************************************************************************


 
     Adding external electric field

     Computed dipole along edir(3) : 
        Dipole               -0.0114 Ry au,         -0.0291 Debye
        Dipole field         -0.0000 Ry au
 
        Potential amp.        0.0022 Ry
        Total length         46.5341 bohr
 
     Starting wfc are  160 randomized atomic wfcs

     total cpu time spent up to now is       16.9 secs

     per-process dynamical memory:    95.6 Mb

     Self-consistent Calculation

     iteration #  1     ecut=    36.75 Ry     beta=0.30
     Davidson diagonalization with overlap
     ethr =  1.00E-02,  avg # of iterations =  2.0

     negative rho (up, down):  1.084E-04 0.000E+00
 
     Adding external electric field

     Computed dipole along edir(3) : 
        Dipole               -4.0650 Ry au,        -10.3323 Debye
        Dipole field         -0.0084 Ry au
 
        Potential amp.        0.7772 Ry
        Total length         46.5341 bohr
 

     total cpu time spent up to now is       37.4 secs

     total energy              =   -1159.79860629 Ry
     Harris-Foulkes estimate   =   -1162.61167472 Ry
     estimated scf accuracy    <       5.97816524 Ry

     iteration #  2     ecut=    36.75 Ry     beta=0.30
     Davidson diagonalization with overlap
     ethr =  4.33E-03,  avg # of iterations = 10.5

     negative rho (up, down):  2.726E-04 0.000E+00
 
     Adding external electric field

     Computed dipole along edir(3) : 
        Dipole                1.5980 Ry au,          4.0616 Debye
        Dipole field          0.0033 Ry au
 
        Potential amp.       -0.3055 Ry
        Total length         46.5341 bohr
 

     total cpu time spent up to now is       68.7 secs

     total energy              =   -1152.39414556 Ry
     Harris-Foulkes estimate   =   -1173.10246242 Ry
     estimated scf accuracy    <     516.48158111 Ry

     iteration #  3     ecut=    36.75 Ry     beta=0.30
     Davidson diagonalization with overlap
     ethr =  4.33E-03,  avg # of iterations =  9.8

     negative rho (up, down):  3.063E-04 0.000E+00
 
     Adding external electric field

     Computed dipole along edir(3) : 
        Dipole                0.1774 Ry au,          0.4509 Debye
        Dipole field          0.0004 Ry au
 
        Potential amp.       -0.0339 Ry
        Total length         46.5341 bohr
 

     total cpu time spent up to now is      100.7 secs

     total energy              =   -1158.62986733 Ry
     Harris-Foulkes estimate   =   -1167.43140173 Ry
     estimated scf accuracy    <     251.11173785 Ry

     iteration #  4     ecut=    36.75 Ry     beta=0.30
     Davidson diagonalization with overlap
     ethr =  4.33E-03,  avg # of iterations =  6.8

     negative rho (up, down):  2.579E-04 0.000E+00
 
     Adding external electric field

     Computed dipole along edir(3) : 
        Dipole               -0.0391 Ry au,         -0.0994 Debye
        Dipole field         -0.0001 Ry au
 
        Potential amp.        0.0075 Ry
        Total length         46.5341 bohr
 

     total cpu time spent up to now is      127.0 secs

     total energy              =   -1162.11610543 Ry
     Harris-Foulkes estimate   =   -1162.22989025 Ry
     estimated scf accuracy    <       1.08874318 Ry

     iteration #  5     ecut=    36.75 Ry     beta=0.30
     Davidson diagonalization with overlap
     ethr =  7.89E-04,  avg # of iterations =  9.1

     negative rho (up, down):  2.018E-04 0.000E+00
 
     Adding external electric field

     Computed dipole along edir(3) : 
        Dipole               -0.2278 Ry au,         -0.5790 Debye
        Dipole field         -0.0005 Ry au
 
        Potential amp.        0.0436 Ry
        Total length         46.5341 bohr
 

     total cpu time spent up to now is      154.6 secs

     total energy              =   -1162.19245621 Ry
     Harris-Foulkes estimate   =   -1162.23032090 Ry
     estimated scf accuracy    <       0.44101559 Ry

     iteration #  6     ecut=    36.75 Ry     beta=0.30
     Davidson diagonalization with overlap
     ethr =  3.20E-04,  avg # of iterations =  5.2

     negative rho (up, down):  1.885E-04 0.000E+00
 
     Adding external electric field

     Computed dipole along edir(3) : 
        Dipole               -0.4912 Ry au,         -1.2485 Debye
        Dipole field         -0.0010 Ry au
 
        Potential amp.        0.0939 Ry
        Total length         46.5341 bohr
 

     total cpu time spent up to now is      177.3 secs

     total energy              =   -1162.15685516 Ry
     Harris-Foulkes estimate   =   -1162.20536422 Ry
     estimated scf accuracy    <       0.20381890 Ry

     iteration #  7     ecut=    36.75 Ry     beta=0.30
     Davidson diagonalization with overlap
     ethr =  1.48E-04,  avg # of iterations =  7.2

     negative rho (up, down):  1.773E-04 0.000E+00
 
     Adding external electric field

     Computed dipole along edir(3) : 
        Dipole               -0.3687 Ry au,         -0.9372 Debye
        Dipole field         -0.0008 Ry au
 
        Potential amp.        0.0705 Ry
        Total length         46.5341 bohr
 

     total cpu time spent up to now is      202.7 secs

     total energy              =   -1162.17230560 Ry
     Harris-Foulkes estimate   =   -1162.18663620 Ry
     estimated scf accuracy    <       0.09965121 Ry

     iteration #  8     ecut=    36.75 Ry     beta=0.30
     Davidson diagonalization with overlap
     ethr =  7.22E-05,  avg # of iterations =  4.2

     negative rho (up, down):  1.575E-04 0.000E+00
 
     Adding external electric field

     Computed dipole along edir(3) : 
        Dipole               -0.4590 Ry au,         -1.1667 Debye
        Dipole field         -0.0009 Ry au
 
        Potential amp.        0.0878 Ry
        Total length         46.5341 bohr
 

     total cpu time spent up to now is      225.7 secs

     total energy              =   -1162.17410356 Ry
     Harris-Foulkes estimate   =   -1162.18196217 Ry
     estimated scf accuracy    <       0.10690581 Ry

     iteration #  9     ecut=    36.75 Ry     beta=0.30
     Davidson diagonalization with overlap
     ethr =  7.22E-05,  avg # of iterations =  2.1

     negative rho (up, down):  1.388E-04 0.000E+00
 
     Adding external electric field

     Computed dipole along edir(3) : 
        Dipole               -0.5646 Ry au,         -1.4350 Debye
        Dipole field         -0.0012 Ry au
 
        Potential amp.        0.1079 Ry
        Total length         46.5341 bohr
 

     total cpu time spent up to now is      247.2 secs

     total energy              =   -1162.17478674 Ry
     Harris-Foulkes estimate   =   -1162.17698126 Ry
     estimated scf accuracy    <       0.03467081 Ry

     iteration # 10     ecut=    36.75 Ry     beta=0.30
     Davidson diagonalization with overlap
     ethr =  2.51E-05,  avg # of iterations =  8.3

     negative rho (up, down):  1.165E-04 0.000E+00
 
     Adding external electric field

     Computed dipole along edir(3) : 
        Dipole               -0.5800 Ry au,         -1.4742 Debye
        Dipole field         -0.0012 Ry au
 
        Potential amp.        0.1109 Ry
        Total length         46.5341 bohr
 

     total cpu time spent up to now is      273.6 secs

     total energy              =   -1162.17705011 Ry
     Harris-Foulkes estimate   =   -1162.17766504 Ry
     estimated scf accuracy    <       0.00831370 Ry

     iteration # 11     ecut=    36.75 Ry     beta=0.30
     Davidson diagonalization with overlap
     ethr =  6.02E-06,  avg # of iterations =  9.7

     negative rho (up, down):  9.678E-05 0.000E+00
 
     Adding external electric field

     Computed dipole along edir(3) : 
        Dipole               -0.6212 Ry au,         -1.5789 Debye
        Dipole field         -0.0013 Ry au
 
        Potential amp.        0.1188 Ry
        Total length         46.5341 bohr
 

     total cpu time spent up to now is      299.1 secs

     total energy              =   -1162.17717067 Ry
     Harris-Foulkes estimate   =   -1162.17752610 Ry
     estimated scf accuracy    <       0.00265192 Ry

     iteration # 12     ecut=    36.75 Ry     beta=0.30
     Davidson diagonalization with overlap
     ethr =  1.92E-06,  avg # of iterations =  8.8

     negative rho (up, down):  9.258E-05 0.000E+00
 
     Adding external electric field

     Computed dipole along edir(3) : 
        Dipole               -0.6289 Ry au,         -1.5984 Debye
        Dipole field         -0.0013 Ry au
 
        Potential amp.        0.1202 Ry
        Total length         46.5341 bohr
 

     total cpu time spent up to now is      327.6 secs

     total energy              =   -1162.17747303 Ry
     Harris-Foulkes estimate   =   -1162.17795266 Ry
     estimated scf accuracy    <       0.00405131 Ry

     iteration # 13     ecut=    36.75 Ry     beta=0.30
     Davidson diagonalization with overlap
     ethr =  1.92E-06,  avg # of iterations =  7.0

     negative rho (up, down):  9.352E-05 0.000E+00
 
     Adding external electric field

     Computed dipole along edir(3) : 
        Dipole               -0.6312 Ry au,         -1.6044 Debye
        Dipole field         -0.0013 Ry au
 
        Potential amp.        0.1207 Ry
        Total length         46.5341 bohr
 

     total cpu time spent up to now is      352.1 secs

     total energy              =   -1162.17771059 Ry
     Harris-Foulkes estimate   =   -1162.17775171 Ry
     estimated scf accuracy    <       0.00056486 Ry

     iteration # 14     ecut=    36.75 Ry     beta=0.30
     Davidson diagonalization with overlap
     ethr =  4.09E-07,  avg # of iterations =  6.7

     negative rho (up, down):  9.685E-05 0.000E+00
 
     Adding external electric field

     Computed dipole along edir(3) : 
        Dipole               -0.6313 Ry au,         -1.6047 Debye
        Dipole field         -0.0013 Ry au
 
        Potential amp.        0.1207 Ry
        Total length         46.5341 bohr
 

     total cpu time spent up to now is      379.3 secs

     total energy              =   -1162.17781499 Ry
     Harris-Foulkes estimate   =   -1162.17784636 Ry
     estimated scf accuracy    <       0.00056428 Ry

     iteration # 15     ecut=    36.75 Ry     beta=0.30
     Davidson diagonalization with overlap
     ethr =  4.09E-07,  avg # of iterations =  1.6

     negative rho (up, down):  9.964E-05 0.000E+00
 
     Adding external electric field

     Computed dipole along edir(3) : 
        Dipole               -0.6353 Ry au,         -1.6148 Debye
        Dipole field         -0.0013 Ry au
 
        Potential amp.        0.1215 Ry
        Total length         46.5341 bohr
 

     total cpu time spent up to now is      400.4 secs

     total energy              =   -1162.17780000 Ry
     Harris-Foulkes estimate   =   -1162.17781918 Ry
     estimated scf accuracy    <       0.00042346 Ry

     iteration # 16     ecut=    36.75 Ry     beta=0.30
     Davidson diagonalization with overlap
     ethr =  3.07E-07,  avg # of iterations =  5.8

     negative rho (up, down):  1.027E-04 0.000E+00
 
     Adding external electric field

     Computed dipole along edir(3) : 
        Dipole               -0.6384 Ry au,         -1.6226 Debye
        Dipole field         -0.0013 Ry au
 
        Potential amp.        0.1221 Ry
        Total length         46.5341 bohr
 

     total cpu time spent up to now is      424.6 secs

     total energy              =   -1162.17783267 Ry
     Harris-Foulkes estimate   =   -1162.17782789 Ry
     estimated scf accuracy    <       0.00005970 Ry

     iteration # 17     ecut=    36.75 Ry     beta=0.30
     Davidson diagonalization with overlap
     ethr =  4.33E-08,  avg # of iterations =  7.4

     negative rho (up, down):  1.038E-04 0.000E+00
 
     Adding external electric field

     Computed dipole along edir(3) : 
        Dipole               -0.6400 Ry au,         -1.6266 Debye
        Dipole field         -0.0013 Ry au
 
        Potential amp.        0.1224 Ry
        Total length         46.5341 bohr
 

     total cpu time spent up to now is      450.8 secs

     total energy              =   -1162.17783160 Ry
     Harris-Foulkes estimate   =   -1162.17783310 Ry
     estimated scf accuracy    <       0.00005174 Ry

     iteration # 18     ecut=    36.75 Ry     beta=0.30
     Davidson diagonalization with overlap
     ethr =  3.75E-08,  avg # of iterations =  4.5

     negative rho (up, down):  1.029E-04 0.000E+00

     negative rho (up, down):  1.029E-04 0.000E+00

     negative rho (up, down):  1.029E-04 0.000E+00

     negative rho (up, down):  1.029E-04 0.000E+00

     negative rho (up, down):  1.029E-04 0.000E+00

     negative rho (up, down):  1.029E-04 0.000E+00

     negative rho (up, down):  1.029E-04 0.000E+00

     negative rho (up, down):  1.029E-04 0.000E+00

     negative rho (up, down):  1.029E-04 0.000E+00

     negative rho (up, down):  1.029E-04 0.000E+00

     negative rho (up, down):  1.029E-04 0.000E+00

     negative rho (up, down):  1.029E-04 0.000E+00

     negative rho (up, down):  1.029E-04 0.000E+00

     negative rho (up, down):  1.029E-04 0.000E+00

     negative rho (up, down):  1.029E-04 0.000E+00

     negative rho (up, down):  1.029E-04 0.000E+00

     negative rho (up, down):  1.029E-04 0.000E+00

     negative rho (up, down):  1.029E-04 0.000E+00

     negative rho (up, down):  1.029E-04 0.000E+00

     negative rho (up, down):  1.029E-04 0.000E+00

     negative rho (up, down):  1.029E-04 0.000E+00

     negative rho (up, down):  1.029E-04 0.000E+00

     negative rho (up, down):  1.029E-04 0.000E+00

     negative rho (up, down):  1.029E-04 0.000E+00

     negative rho (up, down):  1.029E-04 0.000E+00

     negative rho (up, down):  1.029E-04 0.000E+00

     negative rho (up, down):  1.029E-04 0.000E+00

     negative rho (up, down):  1.029E-04 0.000E+00

     negative rho (up, down):  1.029E-04 0.000E+00

     negative rho (up, down):  1.029E-04 0.000E+00

     negative rho (up, down):  1.029E-04 0.000E+00

     negative rho (up, down):  1.029E-04 0.000E+00

     negative rho (up, down):  1.029E-04 0.000E+00

     negative rho (up, down):  1.029E-04 0.000E+00

     negative rho (up, down):  1.029E-04 0.000E+00
 
     Adding external electric field

     Computed dipole along edir(3) : 
        Dipole               -0.6346 Ry au,         -1.6130 Debye
        Dipole field         -0.0013 Ry au
 
        Potential amp.        0.1213 Ry
        Total length         46.5341 bohr
 

     total cpu time spent up to now is      537.2 secs

     End of self-consistent calculation

          k = 0.0000 0.0000 0.0000 ( 23031 PWs)   bands (ev):

   -49.9683 -49.9338 -49.9336 -49.8775 -49.8340 -49.8320 -49.8281 -49.4335
   -49.3899 -49.3886 -49.3861 -49.1618 -28.6846 -28.6422 -28.6406 -28.6404
   -28.6044 -28.6042 -28.5888 -28.5881 -28.5871 -28.5553 -28.5016 -28.4997
   -28.4954 -28.4316 -28.3427 -28.3426 -28.3328 -28.3294 -28.3285 -28.2516
   -28.2516 -28.1798 -28.1533 -28.1526 -28.0098 -27.9780 -27.9778 -27.9767
   -27.9212 -27.9204 -27.9118 -27.8402 -27.8400 -27.7985 -27.7985 -27.6804
   -11.1109  -4.6610  -3.5652  -2.2727  -1.8069  -1.7288  -1.7288  -1.3819
    -1.3803  -1.3802  -1.2751  -1.2751  -1.2292  -1.0094  -1.0093  -0.8736
    -0.4845  -0.4844  -0.4689  -0.2286  -0.1150  -0.1148   0.1643   0.5623
     0.6801   0.6968   0.6970   0.7481   1.0659   1.1220   1.1221

          k = 0.0000 0.0299 0.0000 ( 23008 PWs)   bands (ev):

   -49.9662 -49.9356 -49.9337 -49.8745 -49.8357 -49.8327 -49.8288 -49.4305
   -49.3920 -49.3887 -49.3868 -49.1619 -28.6815 -28.6427 -28.6401 -28.6275
   -28.5942 -28.5920 -28.5764 -28.5753 -28.5667 -28.5516 -28.5034 -28.5001
   -28.4955 -28.4392 -28.3612 -28.3459 -28.3450 -28.3421 -28.3249 -28.2752
   -28.2569 -28.1660 -28.1417 -28.1355 -28.0073 -27.9809 -27.9774 -27.9769
   -27.9332 -27.9280 -27.9117 -27.8620 -27.8453 -27.8052 -27.8002 -27.6798
   -11.1098  -4.5047  -3.4212  -2.1549  -1.9274  -1.7578  -1.7342  -1.6391
    -1.4256  -1.3992  -1.3172  -1.2083  -1.1228  -0.8248  -0.8067  -0.7471
    -0.4366  -0.4163  -0.4114  -0.1727  -0.0722  -0.0488   0.1762   0.5138
     0.5654   0.6265   0.6285   0.6907   0.9867   1.0409   1.0676

          k = 0.0000 0.0598 0.0000 ( 22962 PWs)   bands (ev):

   -49.9609 -49.9409 -49.9337 -49.8662 -49.8433 -49.8330 -49.8292 -49.4223
   -49.3998 -49.3887 -49.3872 -49.1620 -28.6738 -28.6484 -28.6394 -28.6038
   -28.5600 -28.5569 -28.5467 -28.5449 -28.5412 -28.5145 -28.5046 -28.4998
   -28.4948 -28.4629 -28.4112 -28.3772 -28.3739 -28.3508 -28.3387 -28.3107
   -28.2714 -28.1350 -28.1132 -28.0841 -28.0016 -27.9890 -27.9789 -27.9771
   -27.9611 -27.9559 -27.9214 -27.8992 -27.8590 -27.8181 -27.8037 -27.6788
   -11.1074  -4.0552  -3.0199  -2.5796  -2.0243  -1.8849  -1.7547  -1.5559
    -1.4823  -1.4473  -1.3044  -1.0114  -0.9468  -0.6978  -0.4557  -0.4287
    -0.2731  -0.2547  -0.2419  -0.0434   0.0381   0.1139   0.1399   0.4150
     0.4151   0.4346   0.4634   0.4726   0.7533   0.7651   0.8454

          k = 0.0000-0.0897 0.0000 ( 23032 PWs)   bands (ev):

   -49.9566 -49.9452 -49.9337 -49.8563 -49.8531 -49.8331 -49.8293 -49.4118
   -49.4103 -49.3888 -49.3873 -49.1621 -28.6677 -28.6536 -28.6390 -28.5955
   -28.5326 -28.5310 -28.5270 -28.5253 -28.5231 -28.5051 -28.5007 -28.4944
   -28.4868 -28.4622 -28.4254 -28.4216 -28.3988 -28.3950 -28.3527 -28.2917
   -28.2904 -28.1154 -28.0934 -28.0226 -28.0035 -27.9914 -27.9874 -27.9865
   -27.9781 -27.9746 -27.9691 -27.8859 -27.8727 -27.8245 -27.8054 -27.6783
   -11.1062  -3.3795  -3.3686  -2.5120  -2.4236  -1.7683  -1.7608  -1.6911
    -1.4372  -1.3797  -1.0420  -0.9382  -0.8882  -0.8239  -0.1842  -0.1769
    -0.1501  -0.1180  -0.0628  -0.0408   0.1244   0.1448   0.1618   0.2241
     0.2568   0.3756   0.3913   0.5370   0.5439   0.5681   0.6613

          k = 0.0259-0.0149 0.0000 ( 23008 PWs)   bands (ev):

   -49.9662 -49.9358 -49.9336 -49.8745 -49.8361 -49.8321 -49.8291 -49.4305
   -49.3914 -49.3898 -49.3863 -49.1619 -28.6815 -28.6428 -28.6400 -28.6275
   -28.5941 -28.5922 -28.5758 -28.5758 -28.5667 -28.5516 -28.5038 -28.4994
   -28.4958 -28.4392 -28.3613 -28.3457 -28.3446 -28.3427 -28.3248 -28.2753
   -28.2569 -28.1662 -28.1411 -28.1359 -28.0073 -27.9803 -27.9781 -27.9768
   -27.9325 -27.9287 -27.9118 -27.8622 -27.8451 -27.8051 -27.8003 -27.6798
   -11.1098  -4.5047  -3.4212  -2.1549  -1.9274  -1.7578  -1.7343  -1.6391
    -1.4256  -1.3992  -1.3172  -1.2083  -1.1228  -0.8248  -0.8067  -0.7471
    -0.4366  -0.4162  -0.4115  -0.1727  -0.0723  -0.0487   0.1762   0.5139
     0.5654   0.6266   0.6284   0.6908   0.9867   1.0409   1.0675

          k = 0.0259 0.0149 0.0000 ( 23008 PWs)   bands (ev):

   -49.9662 -49.9357 -49.9337 -49.8745 -49.8353 -49.8334 -49.8285 -49.4305
   -49.3920 -49.3888 -49.3867 -49.1619 -28.6815 -28.6427 -28.6401 -28.6275
   -28.5942 -28.5919 -28.5767 -28.5750 -28.5667 -28.5516 -28.5030 -28.5008
   -28.4953 -28.4392 -28.3612 -28.3459 -28.3452 -28.3418 -28.3249 -28.2753
   -28.2569 -28.1660 -28.1416 -28.1356 -28.0073 -27.9808 -27.9774 -27.9770
   -27.9331 -27.9281 -27.9117 -27.8621 -27.8453 -27.8052 -27.8002 -27.6798
   -11.1098  -4.5047  -3.4212  -2.1549  -1.9274  -1.7578  -1.7342  -1.6391
    -1.4256  -1.3992  -1.3172  -1.2083  -1.1229  -0.8249  -0.8066  -0.7471
    -0.4366  -0.4163  -0.4114  -0.1728  -0.0721  -0.0488   0.1762   0.5138
     0.5654   0.6264   0.6286   0.6907   0.9867   1.0408   1.0676

          k = 0.0259 0.0448 0.0000 ( 23004 PWs)   bands (ev):

   -49.9625 -49.9393 -49.9338 -49.8688 -49.8379 -49.8373 -49.8278 -49.4249
   -49.3956 -49.3923 -49.3853 -49.1620 -28.6761 -28.6466 -28.6396 -28.6048
   -28.5812 -28.5635 -28.5588 -28.5446 -28.5383 -28.5366 -28.5057 -28.5045
   -28.4935 -28.4565 -28.3911 -28.3848 -28.3530 -28.3327 -28.3311 -28.3175
   -28.2681 -28.1437 -28.1153 -28.1065 -28.0032 -27.9876 -27.9793 -27.9755
   -27.9662 -27.9221 -27.9165 -27.9011 -27.8561 -27.8136 -27.8041 -27.6790
   -11.1080  -4.2014  -3.1473  -2.1565  -2.0682  -1.9792  -1.8089  -1.7816
    -1.4816  -1.3689  -1.2476  -1.0468  -0.9033  -0.6528  -0.6066  -0.5767
    -0.3245  -0.3168  -0.2758  -0.0786   0.0278   0.0569   0.1546   0.4286
     0.4401   0.4694   0.5276   0.5939   0.7702   0.8748   0.8915

          k = 0.0259-0.1046 0.0000 ( 23012 PWs)   bands (ev):

   -49.9566 -49.9450 -49.9338 -49.8592 -49.8473 -49.8388 -49.8267 -49.4152
   -49.4041 -49.3951 -49.3839 -49.1621 -28.6679 -28.6533 -28.6391 -28.5838
   -28.5513 -28.5328 -28.5288 -28.5203 -28.5127 -28.5065 -28.5021 -28.4951
   -28.4889 -28.4684 -28.4374 -28.4318 -28.3884 -28.3604 -28.3507 -28.3117
   -28.2883 -28.1123 -28.0821 -28.0509 -28.0184 -27.9957 -27.9877 -27.9803
   -27.9751 -27.9674 -27.9357 -27.9000 -27.8747 -27.8212 -27.8087 -27.6783
   -11.1062  -3.6325  -2.8832  -2.6630  -2.2359  -2.1257  -1.8297  -1.7506
    -1.5457  -1.2650  -1.0956  -0.8470  -0.6938  -0.6390  -0.3715  -0.3345
    -0.1441  -0.1138  -0.1012   0.0396   0.0953   0.1508   0.2162   0.2493
     0.3681   0.3987   0.4006   0.4314   0.5384   0.6070   0.6822

          k = 0.0259-0.0747 0.0000 ( 23012 PWs)   bands (ev):

   -49.9566 -49.9451 -49.9338 -49.8591 -49.8476 -49.8385 -49.8267 -49.4152
   -49.4039 -49.3952 -49.3838 -49.1621 -28.6679 -28.6533 -28.6391 -28.5838
   -28.5512 -28.5328 -28.5288 -28.5207 -28.5123 -28.5066 -28.5020 -28.4952
   -28.4891 -28.4684 -28.4374 -28.4319 -28.3883 -28.3604 -28.3507 -28.3117
   -28.2883 -28.1124 -28.0820 -28.0510 -28.0177 -27.9958 -27.9879 -27.9805
   -27.9750 -27.9676 -27.9357 -27.9000 -27.8747 -27.8212 -27.8087 -27.6783
   -11.1062  -3.6325  -2.8832  -2.6630  -2.2359  -2.1258  -1.8297  -1.7506
    -1.5457  -1.2650  -1.0957  -0.8470  -0.6937  -0.6390  -0.3715  -0.3345
    -0.1441  -0.1138  -0.1012   0.0396   0.0953   0.1508   0.2162   0.2493
     0.3683   0.3987   0.4003   0.4314   0.5382   0.6072   0.6823

          k = 0.0259-0.0448 0.0000 ( 23004 PWs)   bands (ev):

   -49.9624 -49.9394 -49.9337 -49.8688 -49.8396 -49.8353 -49.8281 -49.4249
   -49.3948 -49.3933 -49.3851 -49.1620 -28.6761 -28.6467 -28.6395 -28.6047
   -28.5811 -28.5637 -28.5588 -28.5445 -28.5378 -28.5372 -28.5073 -28.5026
   -28.4938 -28.4565 -28.3911 -28.3848 -28.3529 -28.3332 -28.3306 -28.3175
   -28.2681 -28.1439 -28.1147 -28.1068 -28.0032 -27.9870 -27.9801 -27.9755
   -27.9658 -27.9224 -27.9166 -27.9010 -27.8560 -27.8135 -27.8042 -27.6790
   -11.1080  -4.2014  -3.1473  -2.1565  -2.0681  -1.9792  -1.8090  -1.7816
    -1.4816  -1.3689  -1.2475  -1.0467  -0.9033  -0.6528  -0.6066  -0.5766
    -0.3246  -0.3167  -0.2759  -0.0785   0.0277   0.0569   0.1546   0.4286
     0.4401   0.4693   0.5276   0.5940   0.7701   0.8750   0.8913

          k = 0.0518-0.0299 0.0000 ( 22962 PWs)   bands (ev):

   -49.9608 -49.9411 -49.9336 -49.8662 -49.8436 -49.8321 -49.8299 -49.4223
   -49.3995 -49.3899 -49.3864 -49.1620 -28.6737 -28.6486 -28.6392 -28.6037
   -28.5602 -28.5569 -28.5459 -28.5457 -28.5412 -28.5147 -28.5047 -28.4990
   -28.4954 -28.4628 -28.4113 -28.3764 -28.3747 -28.3507 -28.3387 -28.3107
   -28.2714 -28.1356 -28.1125 -28.0841 -28.0016 -27.9884 -27.9798 -27.9769
   -27.9601 -27.9567 -27.9216 -27.8996 -27.8587 -27.8181 -27.8037 -27.6788
   -11.1074  -4.0552  -3.0199  -2.5796  -2.0243  -1.8850  -1.7547  -1.5559
    -1.4823  -1.4474  -1.3044  -1.0112  -0.9469  -0.6978  -0.4556  -0.4288
    -0.2731  -0.2546  -0.2418  -0.0434   0.0380   0.1139   0.1399   0.4148
     0.4152   0.4347   0.4634   0.4726   0.7533   0.7651   0.8453

          k = 0.0518 0.0000 0.0000 ( 23004 PWs)   bands (ev):

   -49.9624 -49.9394 -49.9337 -49.8688 -49.8391 -49.8360 -49.8280 -49.4249
   -49.3946 -49.3935 -49.3851 -49.1620 -28.6760 -28.6468 -28.6395 -28.6047
   -28.5811 -28.5637 -28.5588 -28.5446 -28.5379 -28.5370 -28.5068 -28.5033
   -28.4937 -28.4565 -28.3911 -28.3848 -28.3529 -28.3330 -28.3308 -28.3175
   -28.2681 -28.1440 -28.1146 -28.1068 -28.0032 -27.9868 -27.9802 -27.9755
   -27.9658 -27.9225 -27.9166 -27.9010 -27.8559 -27.8135 -27.8042 -27.6790
   -11.1080  -4.2014  -3.1473  -2.1565  -2.0682  -1.9792  -1.8089  -1.7816
    -1.4816  -1.3689  -1.2475  -1.0467  -0.9033  -0.6528  -0.6066  -0.5767
    -0.3246  -0.3167  -0.2759  -0.0785   0.0277   0.0569   0.1546   0.4286
     0.4401   0.4693   0.5276   0.5939   0.7701   0.8749   0.8913

          k = 0.0518 0.0299 0.0000 ( 22962 PWs)   bands (ev):

   -49.9609 -49.9409 -49.9337 -49.8662 -49.8430 -49.8337 -49.8288 -49.4223
   -49.3998 -49.3889 -49.3871 -49.1620 -28.6738 -28.6485 -28.6394 -28.6038
   -28.5600 -28.5569 -28.5471 -28.5446 -28.5412 -28.5143 -28.5045 -28.5004
   -28.4944 -28.4629 -28.4112 -28.3776 -28.3735 -28.3508 -28.3387 -28.3107
   -28.2714 -28.1351 -28.1131 -28.0841 -28.0016 -27.9890 -27.9790 -27.9770
   -27.9609 -27.9561 -27.9214 -27.8993 -27.8590 -27.8181 -27.8037 -27.6788
   -11.1074  -4.0552  -3.0199  -2.5796  -2.0243  -1.8849  -1.7547  -1.5559
    -1.4824  -1.4473  -1.3045  -1.0113  -0.9468  -0.6978  -0.4557  -0.4286
    -0.2731  -0.2547  -0.2419  -0.0434   0.0381   0.1139   0.1398   0.4149
     0.4153   0.4346   0.4634   0.4726   0.7533   0.7652   0.8454

          k = 0.0518-0.1196 0.0000 ( 23012 PWs)   bands (ev):

   -49.9566 -49.9451 -49.9338 -49.8592 -49.8470 -49.8391 -49.8266 -49.4152
   -49.4040 -49.3951 -49.3839 -49.1621 -28.6679 -28.6533 -28.6391 -28.5837
   -28.5513 -28.5328 -28.5288 -28.5200 -28.5127 -28.5065 -28.5022 -28.4950
   -28.4889 -28.4684 -28.4374 -28.4319 -28.3883 -28.3604 -28.3507 -28.3118
   -28.2883 -28.1124 -28.0820 -28.0508 -28.0184 -27.9957 -27.9876 -27.9803
   -27.9751 -27.9674 -27.9358 -27.9000 -27.8747 -27.8212 -27.8087 -27.6783
   -11.1062  -3.6325  -2.8832  -2.6630  -2.2359  -2.1257  -1.8297  -1.7506
    -1.5457  -1.2650  -1.0956  -0.8470  -0.6938  -0.6390  -0.3715  -0.3346
    -0.1441  -0.1138  -0.1011   0.0396   0.0953   0.1508   0.2162   0.2494
     0.3681   0.3987   0.4006   0.4314   0.5384   0.6070   0.6823

          k = 0.0518-0.0897 0.0000 ( 23028 PWs)   bands (ev):

   -49.9509 -49.9507 -49.9338 -49.8514 -49.8494 -49.8458 -49.8253 -49.4071
   -49.4058 -49.4030 -49.3823 -49.1621 -28.6605 -28.6602 -28.6390 -28.5506
   -28.5438 -28.5397 -28.5230 -28.5204 -28.5153 -28.4901 -28.4888 -28.4845
   -28.4663 -28.4646 -28.4509 -28.4480 -28.4469 -28.3704 -28.3187 -28.3180
   -28.3174 -28.0791 -28.0676 -28.0354 -28.0290 -28.0236 -27.9892 -27.9865
   -27.9845 -27.9739 -27.9152 -27.8997 -27.8989 -27.8176 -27.8165 -27.6780
   -11.1056  -2.9935  -2.9834  -2.9807  -2.1944  -2.1924  -2.1626  -1.6228
    -1.6206  -1.4261  -0.6752  -0.6597  -0.6594  -0.4862  -0.4729  -0.4502
    -0.0218  -0.0051   0.0271   0.0572   0.0654   0.2436   0.2608   0.2825
     0.2866   0.3195   0.3526   0.4251   0.5048   0.5175   0.5865

          k = 0.0518-0.0598 0.0000 ( 23012 PWs)   bands (ev):

   -49.9565 -49.9453 -49.9337 -49.8590 -49.8479 -49.8381 -49.8268 -49.4153
   -49.4035 -49.3955 -49.3837 -49.1621 -28.6678 -28.6535 -28.6390 -28.5836
   -28.5514 -28.5326 -28.5288 -28.5210 -28.5122 -28.5065 -28.5018 -28.4953
   -28.4890 -28.4684 -28.4375 -28.4319 -28.3884 -28.3603 -28.3507 -28.3117
   -28.2883 -28.1129 -28.0814 -28.0507 -28.0181 -27.9960 -27.9873 -27.9809
   -27.9752 -27.9673 -27.9358 -27.9004 -27.8743 -27.8212 -27.8088 -27.6783
   -11.1062  -3.6325  -2.8832  -2.6630  -2.2359  -2.1257  -1.8297  -1.7506
    -1.5457  -1.2650  -1.0957  -0.8469  -0.6938  -0.6390  -0.3716  -0.3345
    -0.1441  -0.1137  -0.1012   0.0397   0.0953   0.1508   0.2162   0.2493
     0.3681   0.3988   0.4003   0.4315   0.5382   0.6070   0.6823

          k =-0.0777 0.0448 0.0000 ( 23032 PWs)   bands (ev):

   -49.9564 -49.9454 -49.9336 -49.8551 -49.8545 -49.8321 -49.8301 -49.4127
   -49.4091 -49.3899 -49.3865 -49.1621 -28.6676 -28.6539 -28.6388 -28.5953
   -28.5332 -28.5300 -28.5271 -28.5254 -28.5239 -28.5049 -28.4999 -28.4951
   -28.4865 -28.4625 -28.4243 -28.4227 -28.3978 -28.3959 -28.3526 -28.2915
   -28.2906 -28.1164 -28.0923 -28.0213 -28.0041 -27.9922 -27.9875 -27.9866
   -27.9780 -27.9736 -27.9701 -27.8869 -27.8717 -27.8245 -27.8055 -27.6783
   -11.1062  -3.3794  -3.3687  -2.5120  -2.4235  -1.7683  -1.7608  -1.6911
    -1.4373  -1.3796  -1.0421  -0.9382  -0.8879  -0.8240  -0.1840  -0.1771
    -0.1503  -0.1180  -0.0627  -0.0408   0.1246   0.1448   0.1619   0.2237
     0.2569   0.3755   0.3914   0.5367   0.5438   0.5682   0.6617

          k =-0.0777 0.0747 0.0000 ( 23012 PWs)   bands (ev):

   -49.9565 -49.9453 -49.9337 -49.8590 -49.8478 -49.8383 -49.8268 -49.4153
   -49.4035 -49.3956 -49.3837 -49.1621 -28.6678 -28.6535 -28.6390 -28.5836
   -28.5514 -28.5327 -28.5288 -28.5208 -28.5123 -28.5065 -28.5019 -28.4953
   -28.4890 -28.4684 -28.4375 -28.4318 -28.3884 -28.3603 -28.3507 -28.3117
   -28.2883 -28.1129 -28.0814 -28.0507 -28.0180 -27.9960 -27.9873 -27.9809
   -27.9752 -27.9674 -27.9358 -27.9004 -27.8743 -27.8212 -27.8088 -27.6783
   -11.1062  -3.6325  -2.8832  -2.6630  -2.2359  -2.1257  -1.8297  -1.7506
    -1.5457  -1.2650  -1.0956  -0.8469  -0.6938  -0.6390  -0.3716  -0.3345
    -0.1441  -0.1137  -0.1012   0.0397   0.0953   0.1508   0.2162   0.2493
     0.3681   0.3988   0.4004   0.4315   0.5382   0.6070   0.6823

          k =-0.0777 0.1046 0.0000 ( 23012 PWs)   bands (ev):

   -49.9566 -49.9451 -49.9337 -49.8592 -49.8471 -49.8389 -49.8266 -49.4152
   -49.4038 -49.3953 -49.3838 -49.1621 -28.6679 -28.6534 -28.6391 -28.5838
   -28.5512 -28.5329 -28.5288 -28.5203 -28.5125 -28.5066 -28.5022 -28.4951
   -28.4890 -28.4684 -28.4374 -28.4319 -28.3883 -28.3604 -28.3507 -28.3118
   -28.2883 -28.1125 -28.0820 -28.0509 -28.0177 -27.9958 -27.9878 -27.9806
   -27.9750 -27.9676 -27.9357 -27.9000 -27.8746 -27.8212 -27.8087 -27.6783
   -11.1062  -3.6325  -2.8832  -2.6630  -2.2359  -2.1258  -1.8297  -1.7506
    -1.5457  -1.2650  -1.0957  -0.8470  -0.6937  -0.6390  -0.3715  -0.3346
    -0.1441  -0.1138  -0.1012   0.0396   0.0953   0.1508   0.2162   0.2493
     0.3683   0.3987   0.4004   0.4314   0.5383   0.6071   0.6823

          k =-0.0777-0.0448 0.0000 ( 23032 PWs)   bands (ev):

   -49.9565 -49.9452 -49.9337 -49.8568 -49.8524 -49.8337 -49.8289 -49.4119
   -49.4101 -49.3889 -49.3872 -49.1621 -28.6677 -28.6536 -28.6390 -28.5954
   -28.5325 -28.5314 -28.5274 -28.5248 -28.5227 -28.5051 -28.5012 -28.4940
   -28.4868 -28.4623 -28.4258 -28.4210 -28.3993 -28.3945 -28.3527 -28.2923
   -28.2899 -28.1155 -28.0932 -28.0224 -28.0036 -27.9915 -27.9873 -27.9866
   -27.9780 -27.9745 -27.9693 -27.8860 -27.8726 -27.8245 -27.8054 -27.6783
   -11.1062  -3.3795  -3.3687  -2.5120  -2.4236  -1.7683  -1.7608  -1.6911
    -1.4372  -1.3797  -1.0421  -0.9382  -0.8881  -0.8239  -0.1843  -0.1768
    -0.1502  -0.1180  -0.0628  -0.0407   0.1243   0.1449   0.1618   0.2242
     0.2567   0.3757   0.3912   0.5371   0.5438   0.5681   0.6614

     the Fermi energy is     0.0735 ev

!    total energy              =   -1162.17783286 Ry
     Harris-Foulkes estimate   =   -1162.17785069 Ry
     estimated scf accuracy    <       0.00000524 Ry

     The total energy is the sum of the following terms:

     one-electron contribution =   -7270.07815734 Ry
     hartree contribution      =    3617.69126513 Ry
     xc contribution           =    -175.15886460 Ry
     ewald contribution        =    2665.49449318 Ry
     electric field correction =       0.00082730 Ry
     smearing contrib. (-TS)   =      -0.12739654 Ry

     convergence has been achieved in  18 iterations
 
 BEEF-vdW xc energy contributions
           1 :   -148.413705492292     
           2 :    130.477751455650     
           3 :   -102.489176805011     
           4 :    75.1608661733718     
           5 :   -56.0283830715344     
           6 :    46.5066676934811     
           7 :   -43.1596560055345     
           8 :    41.3633501742828     
           9 :   -38.4413644475062     
          10 :    34.4690843899592     
          11 :   -30.9556891377118     
          12 :    28.9533047374278     
          13 :   -28.1384102225009     
          14 :    27.3331005299873     
          15 :   -25.7165989004714     
          16 :    23.5340350862021     
          17 :   -21.7316464141900     
          18 :    20.9841689637665     
          19 :   -21.0686227703534     
          20 :    21.1104506013750     
          21 :   -20.3911466707306     
          22 :    18.9468837628871     
          23 :   -17.4590712950685     
          24 :    16.6037703953538     
          25 :   -16.4757512083627     
          26 :    16.5748134999098     
          27 :   -16.3059334753031     
          28 :    15.5013892032597     
          29 :   -14.5070932523680     
          30 :    13.8086441924033     
          31 :   -17.5430490343757     
          32 :   -12.5290561089926     

     Forces acting on atoms (Ry/au):


     negative rho (up, down):  1.029E-04 0.000E+00
     atom    1 type  1   force =    -0.00041436   -0.00033211    0.00185786
     atom    2 type  1   force =     0.00041413   -0.00024844    0.00195795
     atom    3 type  1   force =     0.00007231    0.00053175    0.00190680
     atom    4 type  1   force =    -0.00007135    0.00005148    0.00250217
     atom    5 type  1   force =     0.00013162    0.00655643    0.00036452
     atom    6 type  1   force =    -0.00013425   -0.00001421    0.00819740
     atom    7 type  1   force =    -0.00569437   -0.00334392    0.00042985
     atom    8 type  1   force =     0.00569625   -0.00319655    0.00030523
     atom    9 type  1   force =     0.00008858   -0.00006618   -0.00324476
     atom   10 type  1   force =    -0.00008503   -0.00122162    0.00842904
     atom   11 type  1   force =    -0.00100605    0.00059488    0.00849945
     atom   12 type  1   force =     0.00100230    0.00068827    0.00845729
     atom   13 type  2   force =     0.00000021    0.00000023   -0.03966281

     Total force =     0.042460     Total SCF correction =     0.002143


     entering subroutine stress ...


     negative rho (up, down):  1.029E-04 0.000E+00
          total   stress  (Ry/bohr**3)                   (kbar)     P=   -0.47
   0.00002059  -0.00000000   0.00000000          3.03     -0.00      0.00
  -0.00000000   0.00002059  -0.00000000         -0.00      3.03     -0.00
   0.00000000  -0.00000000  -0.00005075          0.00     -0.00     -7.47


     BFGS Geometry Optimization

     number of scf cycles    =   1
     number of bfgs steps    =   0

     energy   new            =   -1162.1778328637 Ry

     new trust radius        =       0.0396628101 bohr
     new conv_thr            =       0.0000099958 Ry


ATOMIC_POSITIONS (crystal)
Sc1      0.166666667   0.166666667   0.395942884    0   0   0
Sc1      0.666666667   0.166666667   0.395942884    0   0   0
Sc1      0.166666667   0.666666667   0.395942884    0   0   0
Sc1      0.666666667   0.666666667   0.395942884    0   0   0
Sc1      0.833333333   0.333333333   0.500000000    0   0   0
Sc1      0.333333333   0.333333333   0.500000000    0   0   0
Sc1      0.833333333   0.833333333   0.500000000    0   0   0
Sc1      0.333333333   0.833333333   0.500000000    0   0   0
Sc1      0.000010423  -0.000006282   0.603989130
Sc1      0.500050989  -0.000115956   0.604233724
Sc1     -0.000110933   0.500056466   0.604235199
Sc1      0.500049726   0.500065331   0.604234316
S1       0.000000006   0.000000021   0.695777734



     Writing output data file calc.save
     Check: negative starting charge=   -0.000241
     NEW-OLD atomic charge density approx. for the potential
     Check: negative starting charge=   -0.000241

     negative rho (up, down):  1.023E-04 0.000E+00
 
     Adding external electric field

     Computed dipole along edir(3) : 
        Dipole               -0.6345 Ry au,         -1.6128 Debye
        Dipole field         -0.0013 Ry au
 
        Potential amp.        0.1213 Ry
        Total length         46.5341 bohr
 

     total cpu time spent up to now is      619.5 secs

     per-process dynamical memory:    96.0 Mb

     Self-consistent Calculation

     iteration #  1     ecut=    36.75 Ry     beta=0.30
     Davidson diagonalization with overlap
     ethr =  1.00E-06,  avg # of iterations =  5.0

     negative rho (up, down):  1.028E-04 0.000E+00
 
     Adding external electric field

     Computed dipole along edir(3) : 
        Dipole               -0.6610 Ry au,         -1.6800 Debye
        Dipole field         -0.0014 Ry au
 
        Potential amp.        0.1264 Ry
        Total length         46.5341 bohr
 

     total cpu time spent up to now is      648.5 secs

     total energy              =   -1162.17922587 Ry
     Harris-Foulkes estimate   =   -1162.17944677 Ry
     estimated scf accuracy    <       0.00064771 Ry

     iteration #  2     ecut=    36.75 Ry     beta=0.30
     Davidson diagonalization with overlap
     ethr =  4.69E-07,  avg # of iterations =  8.5

     negative rho (up, down):  1.044E-04 0.000E+00
 
     Adding external electric field

     Computed dipole along edir(3) : 
        Dipole               -0.6123 Ry au,         -1.5562 Debye
        Dipole field         -0.0013 Ry au
 
        Potential amp.        0.1171 Ry
        Total length         46.5341 bohr
 

     total cpu time spent up to now is      678.7 secs

     total energy              =   -1162.17782008 Ry
     Harris-Foulkes estimate   =   -1162.18084446 Ry
     estimated scf accuracy    <       0.11623110 Ry

     iteration #  3     ecut=    36.75 Ry     beta=0.30
     Davidson diagonalization with overlap
     ethr =  4.69E-07,  avg # of iterations =  8.4

     negative rho (up, down):  1.041E-04 0.000E+00
 
     Adding external electric field

     Computed dipole along edir(3) : 
        Dipole               -0.6249 Ry au,         -1.5883 Debye
        Dipole field         -0.0013 Ry au
 
        Potential amp.        0.1195 Ry
        Total length         46.5341 bohr
 

     total cpu time spent up to now is      708.4 secs

     total energy              =   -1162.17925184 Ry
     Harris-Foulkes estimate   =   -1162.17961143 Ry
     estimated scf accuracy    <       0.00972055 Ry

     iteration #  4     ecut=    36.75 Ry     beta=0.30
     Davidson diagonalization with overlap
     ethr =  4.69E-07,  avg # of iterations =  7.7

     negative rho (up, down):  1.041E-04 0.000E+00
 
     Adding external electric field

     Computed dipole along edir(3) : 
        Dipole               -0.6256 Ry au,         -1.5900 Debye
        Dipole field         -0.0013 Ry au
 
        Potential amp.        0.1196 Ry
        Total length         46.5341 bohr
 

     total cpu time spent up to now is      736.5 secs

     total energy              =   -1162.17943762 Ry
     Harris-Foulkes estimate   =   -1162.17945031 Ry
     estimated scf accuracy    <       0.00007051 Ry

     iteration #  5     ecut=    36.75 Ry     beta=0.30
     Davidson diagonalization with overlap
     ethr =  5.11E-08,  avg # of iterations =  6.7

     negative rho (up, down):  1.040E-04 0.000E+00
 
     Adding external electric field

     Computed dipole along edir(3) : 
        Dipole               -0.6237 Ry au,         -1.5852 Debye
        Dipole field         -0.0013 Ry au
 
        Potential amp.        0.1192 Ry
        Total length         46.5341 bohr
 

     total cpu time spent up to now is      766.6 secs

     total energy              =   -1162.17944334 Ry
     Harris-Foulkes estimate   =   -1162.17945798 Ry
     estimated scf accuracy    <       0.00005380 Ry

     iteration #  6     ecut=    36.75 Ry     beta=0.30
     Davidson diagonalization with overlap
     ethr =  3.90E-08,  avg # of iterations =  7.7

     negative rho (up, down):  1.040E-04 0.000E+00
 
     Adding external electric field

     Computed dipole along edir(3) : 
        Dipole               -0.6226 Ry au,         -1.5825 Debye
        Dipole field         -0.0013 Ry au
 
        Potential amp.        0.1190 Ry
        Total length         46.5341 bohr
 

     total cpu time spent up to now is      797.6 secs

     total energy              =   -1162.17944262 Ry
     Harris-Foulkes estimate   =   -1162.17945669 Ry
     estimated scf accuracy    <       0.00010095 Ry

     iteration #  7     ecut=    36.75 Ry     beta=0.30
     Davidson diagonalization with overlap
     ethr =  3.90E-08,  avg # of iterations =  5.2

     negative rho (up, down):  1.040E-04 0.000E+00

     negative rho (up, down):  1.040E-04 0.000E+00

     negative rho (up, down):  1.040E-04 0.000E+00

     negative rho (up, down):  1.040E-04 0.000E+00

     negative rho (up, down):  1.040E-04 0.000E+00

     negative rho (up, down):  1.040E-04 0.000E+00

     negative rho (up, down):  1.040E-04 0.000E+00

     negative rho (up, down):  1.040E-04 0.000E+00

     negative rho (up, down):  1.040E-04 0.000E+00

     negative rho (up, down):  1.040E-04 0.000E+00

     negative rho (up, down):  1.040E-04 0.000E+00

     negative rho (up, down):  1.040E-04 0.000E+00

     negative rho (up, down):  1.040E-04 0.000E+00

     negative rho (up, down):  1.040E-04 0.000E+00

     negative rho (up, down):  1.040E-04 0.000E+00

     negative rho (up, down):  1.040E-04 0.000E+00

     negative rho (up, down):  1.040E-04 0.000E+00

     negative rho (up, down):  1.040E-04 0.000E+00

     negative rho (up, down):  1.040E-04 0.000E+00

     negative rho (up, down):  1.040E-04 0.000E+00

     negative rho (up, down):  1.040E-04 0.000E+00

     negative rho (up, down):  1.040E-04 0.000E+00

     negative rho (up, down):  1.040E-04 0.000E+00

     negative rho (up, down):  1.040E-04 0.000E+00

     negative rho (up, down):  1.040E-04 0.000E+00

     negative rho (up, down):  1.040E-04 0.000E+00

     negative rho (up, down):  1.040E-04 0.000E+00

     negative rho (up, down):  1.040E-04 0.000E+00

     negative rho (up, down):  1.040E-04 0.000E+00

     negative rho (up, down):  1.040E-04 0.000E+00

     negative rho (up, down):  1.040E-04 0.000E+00

     negative rho (up, down):  1.040E-04 0.000E+00

     negative rho (up, down):  1.040E-04 0.000E+00

     negative rho (up, down):  1.040E-04 0.000E+00

     negative rho (up, down):  1.040E-04 0.000E+00
 
     Adding external electric field

     Computed dipole along edir(3) : 
        Dipole               -0.6180 Ry au,         -1.5709 Debye
        Dipole field         -0.0013 Ry au
 
        Potential amp.        0.1182 Ry
        Total length         46.5341 bohr
 

     total cpu time spent up to now is      888.6 secs

     End of self-consistent calculation

          k = 0.0000 0.0000 0.0000 ( 23031 PWs)   bands (ev):

   -49.9547 -49.9201 -49.9199 -49.8614 -49.8171 -49.8163 -49.8125 -49.4205
   -49.3768 -49.3764 -49.3723 -49.1183 -28.6711 -28.6273 -28.6271 -28.6270
   -28.5897 -28.5896 -28.5723 -28.5719 -28.5716 -28.5395 -28.4849 -28.4842
   -28.4800 -28.4183 -28.3278 -28.3277 -28.3164 -28.3130 -28.3126 -28.2354
   -28.2354 -28.1668 -28.1397 -28.1395 -27.9965 -27.9643 -27.9639 -27.9636
   -27.9074 -27.9072 -27.8990 -27.8265 -27.8264 -27.7586 -27.7586 -27.6478
   -11.1327  -4.6442  -3.5482  -2.2574  -1.8149  -1.7617  -1.7617  -1.3664
    -1.3663  -1.3653  -1.2601  -1.2601  -1.2141  -0.9922  -0.9921  -0.8577
    -0.4678  -0.4678  -0.4529  -0.2132  -0.0977  -0.0976   0.1819   0.5748
     0.6953   0.7134   0.7135   0.7619   1.0745   1.1363   1.1364

          k = 0.0000 0.0299 0.0000 ( 23008 PWs)   bands (ev):

   -49.9526 -49.9220 -49.9201 -49.8583 -49.8194 -49.8165 -49.8132 -49.4175
   -49.3790 -49.3766 -49.3729 -49.1184 -28.6681 -28.6293 -28.6269 -28.6124
   -28.5798 -28.5774 -28.5599 -28.5595 -28.5506 -28.5357 -28.4873 -28.4840
   -28.4801 -28.4258 -28.3463 -28.3310 -28.3286 -28.3262 -28.3086 -28.2591
   -28.2407 -28.1531 -28.1281 -28.1224 -27.9939 -27.9670 -27.9642 -27.9631
   -27.9194 -27.9152 -27.8986 -27.8486 -27.8316 -27.7649 -27.7603 -27.6472
   -11.1315  -4.4880  -3.4048  -2.1436  -1.9333  -1.7690  -1.7642  -1.6451
    -1.4102  -1.3849  -1.3024  -1.1920  -1.1086  -0.8082  -0.7902  -0.7307
    -0.4201  -0.3996  -0.3951  -0.1572  -0.0549  -0.0318   0.1934   0.5268
     0.5812   0.6428   0.6451   0.7050   0.9978   1.0565   1.0828

          k = 0.0000 0.0598 0.0000 ( 22962 PWs)   bands (ev):

   -49.9472 -49.9272 -49.9201 -49.8500 -49.8272 -49.8165 -49.8137 -49.4093
   -49.3868 -49.3766 -49.3733 -49.1186 -28.6604 -28.6351 -28.6261 -28.5892
   -28.5456 -28.5425 -28.5300 -28.5293 -28.5252 -28.4986 -28.4884 -28.4835
   -28.4794 -28.4494 -28.3963 -28.3606 -28.3581 -28.3360 -28.3225 -28.2944
   -28.2552 -28.1223 -28.0994 -28.0709 -27.9881 -27.9749 -27.9659 -27.9628
   -27.9474 -27.9434 -27.9081 -27.8861 -27.8453 -27.7775 -27.7637 -27.6462
   -11.1291  -4.0389  -3.0060  -2.5659  -2.0366  -1.8827  -1.7908  -1.5457
    -1.4794  -1.4309  -1.2957  -0.9949  -0.9312  -0.6825  -0.4382  -0.4120
    -0.2566  -0.2381  -0.2249  -0.0275   0.0557   0.1302   0.1560   0.4314
     0.4317   0.4493   0.4792   0.4874   0.7699   0.7810   0.8606

          k = 0.0000-0.0897 0.0000 ( 23032 PWs)   bands (ev):

   -49.9429 -49.9315 -49.9201 -49.8396 -49.8376 -49.8165 -49.8138 -49.3995
   -49.3966 -49.3767 -49.3734 -49.1186 -28.6544 -28.6402 -28.6257 -28.5812
   -28.5180 -28.5146 -28.5106 -28.5096 -28.5079 -28.4907 -28.4847 -28.4790
   -28.4728 -28.4472 -28.4086 -28.4059 -28.3821 -28.3793 -28.3380 -28.2749
   -28.2748 -28.1028 -28.0794 -28.0086 -27.9909 -27.9782 -27.9737 -27.9732
   -27.9639 -27.9604 -27.9565 -27.8731 -27.8586 -27.7838 -27.7655 -27.6458
   -11.1279  -3.3642  -3.3528  -2.5095  -2.4111  -1.8040  -1.7749  -1.6913
    -1.4215  -1.3644  -1.0291  -0.9266  -0.8714  -0.8082  -0.1662  -0.1602
    -0.1332  -0.1010  -0.0468  -0.0247   0.1405   0.1620   0.1782   0.2413
     0.2708   0.3917   0.4070   0.5533   0.5607   0.5848   0.6779

          k = 0.0259-0.0149 0.0000 ( 23008 PWs)   bands (ev):

   -49.9526 -49.9221 -49.9200 -49.8583 -49.8189 -49.8171 -49.8130 -49.4175
   -49.3791 -49.3764 -49.3730 -49.1184 -28.6681 -28.6294 -28.6268 -28.6124
   -28.5797 -28.5774 -28.5602 -28.5592 -28.5506 -28.5357 -28.4869 -28.4846
   -28.4799 -28.4258 -28.3464 -28.3309 -28.3288 -28.3259 -28.3087 -28.2591
   -28.2407 -28.1531 -28.1283 -28.1223 -27.9939 -27.9672 -27.9640 -27.9632
   -27.9196 -27.9150 -27.8986 -27.8486 -27.8316 -27.7649 -27.7603 -27.6472
   -11.1315  -4.4880  -3.4048  -2.1436  -1.9333  -1.7690  -1.7642  -1.6451
    -1.4101  -1.3849  -1.3024  -1.1920  -1.1086  -0.8082  -0.7901  -0.7307
    -0.4201  -0.3996  -0.3951  -0.1572  -0.0548  -0.0318   0.1934   0.5268
     0.5812   0.6427   0.6451   0.7050   0.9978   1.0565   1.0828

          k = 0.0259 0.0149 0.0000 ( 23008 PWs)   bands (ev):

   -49.9526 -49.9221 -49.9200 -49.8583 -49.8194 -49.8165 -49.8132 -49.4175
   -49.3789 -49.3767 -49.3729 -49.1184 -28.6681 -28.6295 -28.6267 -28.6124
   -28.5797 -28.5775 -28.5599 -28.5596 -28.5506 -28.5357 -28.4873 -28.4840
   -28.4802 -28.4258 -28.3464 -28.3309 -28.3286 -28.3262 -28.3086 -28.2591
   -28.2407 -28.1531 -28.1280 -28.1224 -27.9939 -27.9670 -27.9643 -27.9631
   -27.9194 -27.9152 -27.8986 -27.8486 -27.8316 -27.7649 -27.7603 -27.6472
   -11.1315  -4.4880  -3.4048  -2.1436  -1.9333  -1.7690  -1.7642  -1.6451
    -1.4102  -1.3849  -1.3024  -1.1920  -1.1086  -0.8081  -0.7902  -0.7307
    -0.4201  -0.3996  -0.3951  -0.1572  -0.0549  -0.0317   0.1934   0.5268
     0.5812   0.6428   0.6450   0.7050   0.9978   1.0565   1.0828

          k = 0.0259 0.0448 0.0000 ( 23004 PWs)   bands (ev):

   -49.9488 -49.9257 -49.9201 -49.8526 -49.8229 -49.8197 -49.8122 -49.4119
   -49.3821 -49.3801 -49.3719 -49.1185 -28.6626 -28.6334 -28.6263 -28.5898
   -28.5671 -28.5486 -28.5431 -28.5286 -28.5218 -28.5209 -28.4908 -28.4872
   -28.4781 -28.4430 -28.3764 -28.3686 -28.3381 -28.3168 -28.3146 -28.3013
   -28.2519 -28.1309 -28.1014 -28.0935 -27.9898 -27.9733 -27.9664 -27.9616
   -27.9527 -27.9090 -27.9036 -27.8875 -27.8423 -27.7732 -27.7641 -27.6465
   -11.1297  -4.1850  -3.1324  -2.1516  -2.0547  -1.9841  -1.8120  -1.8072
    -1.4874  -1.3565  -1.2359  -1.0302  -0.8869  -0.6354  -0.5903  -0.5603
    -0.3082  -0.2999  -0.2591  -0.0626   0.0450   0.0737   0.1710   0.4451
     0.4562   0.4838   0.5410   0.6105   0.7862   0.8896   0.9068

          k = 0.0259-0.1046 0.0000 ( 23012 PWs)   bands (ev):

   -49.9430 -49.9314 -49.9201 -49.8428 -49.8314 -49.8224 -49.8108 -49.4024
   -49.3908 -49.3823 -49.3706 -49.1186 -28.6545 -28.6400 -28.6258 -28.5694
   -28.5371 -28.5167 -28.5126 -28.5050 -28.4968 -28.4914 -28.4860 -28.4808
   -28.4737 -28.4522 -28.4229 -28.4157 -28.3722 -28.3456 -28.3345 -28.2955
   -28.2721 -28.0996 -28.0683 -28.0376 -28.0046 -27.9824 -27.9739 -27.9670
   -27.9611 -27.9543 -27.9225 -27.8869 -27.8609 -27.7807 -27.7686 -27.6458
   -11.1279  -3.6166  -2.8687  -2.6529  -2.2267  -2.1270  -1.8536  -1.7585
    -1.5467  -1.2532  -1.0872  -0.8300  -0.6789  -0.6219  -0.3539  -0.3181
    -0.1273  -0.0973  -0.0841   0.0555   0.1115   0.1680   0.2315   0.2657
     0.3844   0.4138   0.4161   0.4475   0.5548   0.6233   0.6982

          k = 0.0259-0.0747 0.0000 ( 23012 PWs)   bands (ev):

   -49.9430 -49.9314 -49.9202 -49.8429 -49.8313 -49.8225 -49.8108 -49.4023
   -49.3909 -49.3822 -49.3706 -49.1186 -28.6545 -28.6400 -28.6258 -28.5694
   -28.5372 -28.5167 -28.5126 -28.5049 -28.4969 -28.4914 -28.4860 -28.4807
   -28.4737 -28.4522 -28.4229 -28.4157 -28.3722 -28.3456 -28.3345 -28.2955
   -28.2721 -28.0996 -28.0684 -28.0376 -28.0048 -27.9824 -27.9738 -27.9669
   -27.9612 -27.9542 -27.9225 -27.8869 -27.8610 -27.7807 -27.7686 -27.6458
   -11.1279  -3.6166  -2.8687  -2.6529  -2.2267  -2.1270  -1.8536  -1.7585
    -1.5467  -1.2532  -1.0872  -0.8300  -0.6789  -0.6218  -0.3539  -0.3181
    -0.1273  -0.0973  -0.0841   0.0555   0.1115   0.1680   0.2315   0.2658
     0.3843   0.4138   0.4162   0.4475   0.5549   0.6232   0.6981

          k = 0.0259-0.0448 0.0000 ( 23004 PWs)   bands (ev):

   -49.9488 -49.9257 -49.9201 -49.8527 -49.8223 -49.8204 -49.8121 -49.4119
   -49.3825 -49.3797 -49.3720 -49.1185 -28.6626 -28.6333 -28.6263 -28.5898
   -28.5672 -28.5485 -28.5432 -28.5286 -28.5220 -28.5207 -28.4902 -28.4879
   -28.4779 -28.4430 -28.3764 -28.3686 -28.3381 -28.3167 -28.3147 -28.3013
   -28.2519 -28.1308 -28.1016 -28.0934 -27.9898 -27.9735 -27.9660 -27.9617
   -27.9529 -27.9089 -27.9036 -27.8876 -27.8424 -27.7732 -27.7641 -27.6465
   -11.1297  -4.1850  -3.1324  -2.1516  -2.0547  -1.9841  -1.8119  -1.8072
    -1.4874  -1.3565  -1.2359  -1.0302  -0.8869  -0.6354  -0.5903  -0.5603
    -0.3082  -0.3000  -0.2591  -0.0627   0.0451   0.0737   0.1710   0.4451
     0.4562   0.4838   0.5410   0.6105   0.7863   0.8896   0.9069

          k = 0.0518-0.0299 0.0000 ( 22962 PWs)   bands (ev):

   -49.9472 -49.9273 -49.9200 -49.8500 -49.8270 -49.8172 -49.8133 -49.4093
   -49.3869 -49.3764 -49.3735 -49.1186 -28.6604 -28.6352 -28.6260 -28.5891
   -28.5456 -28.5425 -28.5305 -28.5289 -28.5252 -28.4984 -28.4883 -28.4841
   -28.4791 -28.4494 -28.3964 -28.3610 -28.3577 -28.3360 -28.3225 -28.2945
   -28.2552 -28.1221 -28.0997 -28.0708 -27.9881 -27.9751 -27.9656 -27.9629
   -27.9476 -27.9432 -27.9080 -27.8860 -27.8454 -27.7775 -27.7637 -27.6462
   -11.1291  -4.0389  -3.0060  -2.5659  -2.0366  -1.8827  -1.7908  -1.5457
    -1.4794  -1.4309  -1.2958  -0.9949  -0.9311  -0.6825  -0.4382  -0.4119
    -0.2566  -0.2381  -0.2249  -0.0275   0.0557   0.1302   0.1560   0.4313
     0.4318   0.4493   0.4792   0.4874   0.7699   0.7810   0.8606

          k = 0.0518 0.0000 0.0000 ( 23004 PWs)   bands (ev):

   -49.9488 -49.9258 -49.9200 -49.8527 -49.8223 -49.8204 -49.8121 -49.4119
   -49.3824 -49.3798 -49.3719 -49.1185 -28.6626 -28.6335 -28.6262 -28.5897
   -28.5671 -28.5486 -28.5432 -28.5286 -28.5220 -28.5207 -28.4903 -28.4879
   -28.4780 -28.4430 -28.3764 -28.3686 -28.3380 -28.3166 -28.3147 -28.3013
   -28.2519 -28.1308 -28.1015 -28.0934 -27.9898 -27.9735 -27.9661 -27.9617
   -27.9528 -27.9089 -27.9036 -27.8876 -27.8424 -27.7732 -27.7641 -27.6465
   -11.1297  -4.1849  -3.1324  -2.1516  -2.0548  -1.9841  -1.8119  -1.8072
    -1.4874  -1.3565  -1.2359  -1.0302  -0.8869  -0.6354  -0.5903  -0.5603
    -0.3082  -0.2999  -0.2591  -0.0627   0.0450   0.0737   0.1710   0.4451
     0.4563   0.4838   0.5410   0.6105   0.7862   0.8896   0.9069

          k = 0.0518 0.0299 0.0000 ( 22962 PWs)   bands (ev):

   -49.9472 -49.9274 -49.9200 -49.8500 -49.8272 -49.8165 -49.8137 -49.4094
   -49.3867 -49.3767 -49.3733 -49.1186 -28.6603 -28.6353 -28.6260 -28.5891
   -28.5457 -28.5425 -28.5300 -28.5294 -28.5252 -28.4986 -28.4884 -28.4835
   -28.4795 -28.4493 -28.3965 -28.3606 -28.3581 -28.3359 -28.3225 -28.2945
   -28.2552 -28.1223 -28.0994 -28.0709 -27.9881 -27.9749 -27.9659 -27.9628
   -27.9473 -27.9434 -27.9081 -27.8861 -27.8453 -27.7775 -27.7638 -27.6462
   -11.1291  -4.0389  -3.0060  -2.5659  -2.0366  -1.8827  -1.7908  -1.5457
    -1.4794  -1.4309  -1.2957  -0.9949  -0.9312  -0.6825  -0.4381  -0.4120
    -0.2566  -0.2381  -0.2249  -0.0275   0.0557   0.1302   0.1560   0.4314
     0.4316   0.4493   0.4792   0.4874   0.7699   0.7810   0.8606

          k = 0.0518-0.1196 0.0000 ( 23012 PWs)   bands (ev):

   -49.9429 -49.9316 -49.9201 -49.8428 -49.8314 -49.8224 -49.8108 -49.4024
   -49.3908 -49.3823 -49.3706 -49.1186 -28.6545 -28.6401 -28.6258 -28.5693
   -28.5373 -28.5167 -28.5127 -28.5050 -28.4968 -28.4914 -28.4859 -28.4807
   -28.4737 -28.4522 -28.4230 -28.4157 -28.3722 -28.3455 -28.3345 -28.2955
   -28.2721 -28.0996 -28.0683 -28.0376 -28.0046 -27.9824 -27.9738 -27.9670
   -27.9611 -27.9543 -27.9225 -27.8869 -27.8609 -27.7807 -27.7686 -27.6458
   -11.1279  -3.6166  -2.8687  -2.6529  -2.2267  -2.1270  -1.8536  -1.7585
    -1.5467  -1.2532  -1.0872  -0.8300  -0.6789  -0.6219  -0.3539  -0.3181
    -0.1273  -0.0973  -0.0841   0.0555   0.1115   0.1680   0.2315   0.2657
     0.3844   0.4138   0.4161   0.4475   0.5548   0.6233   0.6982

          k = 0.0518-0.0897 0.0000 ( 23028 PWs)   bands (ev):

   -49.9373 -49.9371 -49.9202 -49.8344 -49.8336 -49.8301 -49.8093 -49.3941
   -49.3934 -49.3894 -49.3692 -49.1187 -28.6471 -28.6469 -28.6257 -28.5371
   -28.5293 -28.5253 -28.5066 -28.5046 -28.4998 -28.4739 -28.4730 -28.4682
   -28.4517 -28.4504 -28.4346 -28.4317 -28.4310 -28.3554 -28.3023 -28.3018
   -28.3013 -28.0659 -28.0545 -28.0217 -28.0154 -28.0107 -27.9757 -27.9728
   -27.9708 -27.9599 -27.9021 -27.8861 -27.8856 -27.7770 -27.7762 -27.6456
   -11.1273  -2.9789  -2.9681  -2.9659  -2.2002  -2.1978  -2.1552  -1.6331
    -1.6303  -1.4224  -0.6602  -0.6460  -0.6446  -0.4703  -0.4539  -0.4324
    -0.0057   0.0119   0.0436   0.0731   0.0833   0.2570   0.2771   0.2981
     0.3030   0.3353   0.3691   0.4415   0.5204   0.5334   0.6029

          k = 0.0518-0.0598 0.0000 ( 23012 PWs)   bands (ev):

   -49.9429 -49.9315 -49.9201 -49.8429 -49.8311 -49.8228 -49.8107 -49.4023
   -49.3910 -49.3822 -49.3707 -49.1186 -28.6545 -28.6401 -28.6258 -28.5693
   -28.5373 -28.5168 -28.5126 -28.5047 -28.4969 -28.4915 -28.4861 -28.4806
   -28.4737 -28.4522 -28.4230 -28.4157 -28.3722 -28.3455 -28.3345 -28.2955
   -28.2721 -28.0994 -28.0685 -28.0377 -28.0047 -27.9823 -27.9740 -27.9668
   -27.9611 -27.9543 -27.9225 -27.8868 -27.8611 -27.7807 -27.7686 -27.6458
   -11.1279  -3.6166  -2.8687  -2.6529  -2.2268  -2.1270  -1.8536  -1.7585
    -1.5467  -1.2532  -1.0872  -0.8300  -0.6789  -0.6219  -0.3538  -0.3181
    -0.1273  -0.0973  -0.0841   0.0555   0.1115   0.1680   0.2315   0.2658
     0.3844   0.4138   0.4162   0.4475   0.5549   0.6233   0.6981

          k =-0.0777 0.0448 0.0000 ( 23032 PWs)   bands (ev):

   -49.9428 -49.9316 -49.9200 -49.8402 -49.8368 -49.8172 -49.8134 -49.3993
   -49.3969 -49.3764 -49.3736 -49.1186 -28.6543 -28.6404 -28.6256 -28.5811
   -28.5180 -28.5151 -28.5107 -28.5093 -28.5075 -28.4907 -28.4852 -28.4786
   -28.4729 -28.4473 -28.4091 -28.4053 -28.3827 -28.3788 -28.3379 -28.2755
   -28.2742 -28.1026 -28.0796 -28.0089 -27.9907 -27.9780 -27.9735 -27.9735
   -27.9639 -27.9607 -27.9563 -27.8728 -27.8589 -27.7838 -27.7655 -27.6458
   -11.1279  -3.3642  -3.3529  -2.5095  -2.4112  -1.8041  -1.7748  -1.6913
    -1.4214  -1.3644  -1.0291  -0.9265  -0.8715  -0.8081  -0.1663  -0.1601
    -0.1332  -0.1010  -0.0469  -0.0246   0.1405   0.1620   0.1781   0.2415
     0.2707   0.3918   0.4070   0.5534   0.5607   0.5847   0.6778

          k =-0.0777 0.0747 0.0000 ( 23012 PWs)   bands (ev):

   -49.9429 -49.9315 -49.9201 -49.8429 -49.8311 -49.8228 -49.8107 -49.4023
   -49.3910 -49.3822 -49.3707 -49.1186 -28.6545 -28.6401 -28.6258 -28.5693
   -28.5371 -28.5168 -28.5126 -28.5047 -28.4969 -28.4915 -28.4861 -28.4807
   -28.4737 -28.4522 -28.4229 -28.4157 -28.3721 -28.3455 -28.3345 -28.2955
   -28.2721 -28.0994 -28.0685 -28.0377 -28.0047 -27.9823 -27.9740 -27.9668
   -27.9611 -27.9543 -27.9225 -27.8868 -27.8611 -27.7807 -27.7686 -27.6458
   -11.1279  -3.6166  -2.8687  -2.6529  -2.2267  -2.1270  -1.8536  -1.7585
    -1.5467  -1.2532  -1.0872  -0.8300  -0.6789  -0.6219  -0.3538  -0.3181
    -0.1273  -0.0973  -0.0841   0.0555   0.1115   0.1680   0.2315   0.2658
     0.3844   0.4138   0.4161   0.4475   0.5549   0.6233   0.6981

          k =-0.0777 0.1046 0.0000 ( 23012 PWs)   bands (ev):

   -49.9429 -49.9316 -49.9200 -49.8429 -49.8313 -49.8225 -49.8108 -49.4024
   -49.3908 -49.3823 -49.3706 -49.1186 -28.6544 -28.6402 -28.6257 -28.5693
   -28.5372 -28.5167 -28.5126 -28.5049 -28.4969 -28.4914 -28.4860 -28.4807
   -28.4737 -28.4522 -28.4230 -28.4156 -28.3722 -28.3455 -28.3345 -28.2955
   -28.2721 -28.0996 -28.0683 -28.0376 -28.0048 -27.9824 -27.9738 -27.9669
   -27.9612 -27.9542 -27.9225 -27.8869 -27.8609 -27.7807 -27.7686 -27.6458
   -11.1279  -3.6166  -2.8687  -2.6529  -2.2267  -2.1270  -1.8536  -1.7585
    -1.5467  -1.2532  -1.0872  -0.8300  -0.6789  -0.6218  -0.3539  -0.3181
    -0.1273  -0.0973  -0.0841   0.0555   0.1115   0.1680   0.2315   0.2658
     0.3843   0.4138   0.4162   0.4475   0.5549   0.6232   0.6981

          k =-0.0777-0.0448 0.0000 ( 23032 PWs)   bands (ev):

   -49.9428 -49.9318 -49.9200 -49.8395 -49.8376 -49.8165 -49.8139 -49.3996
   -49.3965 -49.3767 -49.3733 -49.1186 -28.6542 -28.6405 -28.6256 -28.5810
   -28.5182 -28.5146 -28.5106 -28.5096 -28.5080 -28.4906 -28.4847 -28.4790
   -28.4727 -28.4474 -28.4086 -28.4059 -28.3821 -28.3793 -28.3379 -28.2749
   -28.2748 -28.1029 -28.0793 -28.0085 -27.9909 -27.9783 -27.9738 -27.9731
   -27.9639 -27.9604 -27.9566 -27.8731 -27.8586 -27.7838 -27.7655 -27.6458
   -11.1279  -3.3642  -3.3528  -2.5095  -2.4111  -1.8041  -1.7749  -1.6913
    -1.4215  -1.3644  -1.0291  -0.9266  -0.8714  -0.8082  -0.1661  -0.1602
    -0.1332  -0.1010  -0.0468  -0.0246   0.1405   0.1620   0.1782   0.2413
     0.2708   0.3917   0.4070   0.5533   0.5607   0.5848   0.6779

     the Fermi energy is     0.0899 ev

!    total energy              =   -1162.17944569 Ry
     Harris-Foulkes estimate   =   -1162.17945925 Ry
     estimated scf accuracy    <       0.00000411 Ry

     The total energy is the sum of the following terms:

     one-electron contribution =   -7271.33584149 Ry
     hartree contribution      =    3618.40782734 Ry
     xc contribution           =    -175.16884346 Ry
     ewald contribution        =    2666.04416133 Ry
     electric field correction =       0.00078469 Ry
     smearing contrib. (-TS)   =      -0.12753410 Ry

     convergence has been achieved in   7 iterations
 
 BEEF-vdW xc energy contributions
           1 :   -148.423414509100     
           2 :    130.489343078790     
           3 :   -102.502640177943     
           4 :    75.1744087494757     
           5 :   -56.0396845057059     
           6 :    46.5141066088147     
           7 :   -43.1630774355488     
           8 :    41.3640029753655     
           9 :   -38.4412156329887     
          10 :    34.4698998575888     
          11 :   -30.9580965082948     
          12 :    28.9561718255532     
          13 :   -28.1391878427817     
          14 :    27.3293514329754     
          15 :   -25.7077721910267     
          16 :    23.5220376794763     
          17 :   -21.7196720381041     
          18 :    20.9747357664690     
          19 :   -21.0624317047512     
          20 :    21.1067904833168     
          21 :   -20.3892109097560     
          22 :    18.9467117075064     
          23 :   -17.4611836554624     
          24 :    16.6077934385955     
          25 :   -16.4795295557246     
          26 :    16.5752330209299     
          27 :   -16.3010887089831     
          28 :    15.4922393858079     
          29 :   -14.4971414100511     
          30 :    13.8019491198257     
          31 :   -17.5437244731814     
          32 :   -12.5301687512629     

     Forces acting on atoms (Ry/au):


     negative rho (up, down):  1.040E-04 0.000E+00
     atom    1 type  1   force =    -0.00041314   -0.00019872    0.00144977
     atom    2 type  1   force =     0.00041772   -0.00024386    0.00154354
     atom    3 type  1   force =    -0.00005095    0.00044745    0.00146426
     atom    4 type  1   force =     0.00004440   -0.00001780    0.00190437
     atom    5 type  1   force =    -0.00009625    0.00652409    0.00085174
     atom    6 type  1   force =     0.00008848   -0.00006190    0.00905460
     atom    7 type  1   force =    -0.00569721   -0.00317707    0.00085696
     atom    8 type  1   force =     0.00569823   -0.00327232    0.00090427
     atom    9 type  1   force =    -0.00005158    0.00002689   -0.01119977
     atom   10 type  1   force =     0.00005469   -0.00095642    0.00786871
     atom   11 type  1   force =    -0.00085515    0.00049901    0.00785872
     atom   12 type  1   force =     0.00085453    0.00043428    0.00786094
     atom   13 type  2   force =     0.00000623   -0.00000364   -0.03041811

     Total force =     0.035199     Total SCF correction =     0.000551


     entering subroutine stress ...


     negative rho (up, down):  1.040E-04 0.000E+00
          total   stress  (Ry/bohr**3)                   (kbar)     P=    0.57
   0.00002555   0.00000000   0.00000000          3.76      0.00      0.00
   0.00000000   0.00002554  -0.00000000          0.00      3.76     -0.00
   0.00000000  -0.00000000  -0.00003951          0.00     -0.00     -5.81


     number of scf cycles    =   2
     number of bfgs steps    =   1

     energy   old            =   -1162.1778328637 Ry
     energy   new            =   -1162.1794456891 Ry

     CASE: energy  _new < energy  _old


     WARNING: bfgs curvature condition failed, Theta= 0.998
     new trust radius        =       0.0594942151 bohr
     new conv_thr            =       0.0000001000 Ry


ATOMIC_POSITIONS (crystal)
Sc1      0.166666667   0.166666667   0.395942884    0   0   0
Sc1      0.666666667   0.166666667   0.395942884    0   0   0
Sc1      0.166666667   0.666666667   0.395942884    0   0   0
Sc1      0.666666667   0.666666667   0.395942884    0   0   0
Sc1      0.833333333   0.333333333   0.500000000    0   0   0
Sc1      0.333333333   0.333333333   0.500000000    0   0   0
Sc1      0.833333333   0.833333333   0.500000000    0   0   0
Sc1      0.333333333   0.833333333   0.500000000    0   0   0
Sc1      0.000005596  -0.000004543   0.603610710
Sc1      0.500143803  -0.000292699   0.604543202
Sc1     -0.000290816   0.500147316   0.604544859
Sc1      0.500141730   0.500149875   0.604543747
S1       0.000001046  -0.000000495   0.694531188



     Writing output data file calc.save
     Check: negative starting charge=   -0.000241
     NEW-OLD atomic charge density approx. for the potential
     Check: negative starting charge=   -0.000242

     negative rho (up, down):  1.038E-04 0.000E+00
 
     Adding external electric field

     Computed dipole along edir(3) : 
        Dipole               -0.6180 Ry au,         -1.5707 Debye
        Dipole field         -0.0013 Ry au
 
        Potential amp.        0.1182 Ry
        Total length         46.5341 bohr
 

     total cpu time spent up to now is      991.9 secs

     per-process dynamical memory:    96.0 Mb

     Self-consistent Calculation

     iteration #  1     ecut=    36.75 Ry     beta=0.30
     Davidson diagonalization with overlap
     ethr =  1.00E-06,  avg # of iterations =  5.3

     negative rho (up, down):  1.039E-04 0.000E+00
 
     Adding external electric field

     Computed dipole along edir(3) : 
        Dipole               -0.7177 Ry au,         -1.8243 Debye
        Dipole field         -0.0015 Ry au
 
        Potential amp.        0.1372 Ry
        Total length         46.5341 bohr
 

     total cpu time spent up to now is     1027.5 secs

     total energy              =   -1162.18053614 Ry
     Harris-Foulkes estimate   =   -1162.18140412 Ry
     estimated scf accuracy    <       0.00240085 Ry

     iteration #  2     ecut=    36.75 Ry     beta=0.30
     Davidson diagonalization with overlap
     ethr =  1.74E-06,  avg # of iterations =  8.8

     negative rho (up, down):  1.176E-04 0.000E+00
 
     Adding external electric field

     Computed dipole along edir(3) : 
        Dipole               -0.5858 Ry au,         -1.4889 Debye
        Dipole field         -0.0012 Ry au
 
        Potential amp.        0.1120 Ry
        Total length         46.5341 bohr
 

     total cpu time spent up to now is     1060.8 secs

     total energy              =   -1162.16778741 Ry
     Harris-Foulkes estimate   =   -1162.19469217 Ry
     estimated scf accuracy    <       1.33913508 Ry

     iteration #  3     ecut=    36.75 Ry     beta=0.30
     Davidson diagonalization with overlap
     ethr =  1.74E-06,  avg # of iterations =  9.3

     negative rho (up, down):  1.122E-04 0.000E+00
 
     Adding external electric field

     Computed dipole along edir(3) : 
        Dipole               -0.6012 Ry au,         -1.5282 Debye
        Dipole field         -0.0012 Ry au
 
        Potential amp.        0.1150 Ry
        Total length         46.5341 bohr
 

     total cpu time spent up to now is     1093.8 secs

     total energy              =   -1162.18110667 Ry
     Harris-Foulkes estimate   =   -1162.18165486 Ry
     estimated scf accuracy    <       0.00382593 Ry

     iteration #  4     ecut=    36.75 Ry     beta=0.30
     Davidson diagonalization with overlap
     ethr =  1.74E-06,  avg # of iterations =  6.0

     negative rho (up, down):  1.110E-04 0.000E+00
 
     Adding external electric field

     Computed dipole along edir(3) : 
        Dipole               -0.6009 Ry au,         -1.5272 Debye
        Dipole field         -0.0012 Ry au
 
        Potential amp.        0.1149 Ry
        Total length         46.5341 bohr
 

     total cpu time spent up to now is     1122.3 secs

     total energy              =   -1162.18145264 Ry
     Harris-Foulkes estimate   =   -1162.18126830 Ry
     estimated scf accuracy    <       0.00034602 Ry

     iteration #  5     ecut=    36.75 Ry     beta=0.30
     Davidson diagonalization with overlap
     ethr =  2.51E-07,  avg # of iterations =  6.3

     negative rho (up, down):  1.079E-04 0.000E+00
 
     Adding external electric field

     Computed dipole along edir(3) : 
        Dipole               -0.6006 Ry au,         -1.5265 Debye
        Dipole field         -0.0012 Ry au
 
        Potential amp.        0.1148 Ry
        Total length         46.5341 bohr
 

     total cpu time spent up to now is     1154.3 secs

     total energy              =   -1162.18151689 Ry
     Harris-Foulkes estimate   =   -1162.18154121 Ry
     estimated scf accuracy    <       0.00017378 Ry

     iteration #  6     ecut=    36.75 Ry     beta=0.30
     Davidson diagonalization with overlap
     ethr =  1.26E-07,  avg # of iterations =  3.8

     negative rho (up, down):  1.059E-04 0.000E+00
 
     Adding external electric field

     Computed dipole along edir(3) : 
        Dipole               -0.5983 Ry au,         -1.5208 Debye
        Dipole field         -0.0012 Ry au
 
        Potential amp.        0.1144 Ry
        Total length         46.5341 bohr
 

     total cpu time spent up to now is     1182.1 secs

     total energy              =   -1162.18152507 Ry
     Harris-Foulkes estimate   =   -1162.18153362 Ry
     estimated scf accuracy    <       0.00003119 Ry

     iteration #  7     ecut=    36.75 Ry     beta=0.30
     Davidson diagonalization with overlap
     ethr =  2.26E-08,  avg # of iterations =  6.6

     negative rho (up, down):  1.055E-04 0.000E+00
 
     Adding external electric field

     Computed dipole along edir(3) : 
        Dipole               -0.5968 Ry au,         -1.5170 Debye
        Dipole field         -0.0012 Ry au
 
        Potential amp.        0.1141 Ry
        Total length         46.5341 bohr
 

     total cpu time spent up to now is     1214.1 secs

     total energy              =   -1162.18152904 Ry
     Harris-Foulkes estimate   =   -1162.18153447 Ry
     estimated scf accuracy    <       0.00001441 Ry

     iteration #  8     ecut=    36.75 Ry     beta=0.30
     Davidson diagonalization with overlap
     ethr =  1.04E-08,  avg # of iterations =  5.7

     negative rho (up, down):  1.052E-04 0.000E+00
 
     Adding external electric field

     Computed dipole along edir(3) : 
        Dipole               -0.5962 Ry au,         -1.5155 Debye
        Dipole field         -0.0012 Ry au
 
        Potential amp.        0.1140 Ry
        Total length         46.5341 bohr
 

     total cpu time spent up to now is     1243.9 secs

     total energy              =   -1162.18153009 Ry
     Harris-Foulkes estimate   =   -1162.18153201 Ry
     estimated scf accuracy    <       0.00000457 Ry

     iteration #  9     ecut=    36.75 Ry     beta=0.30
[...]
   -27.7453 -27.7283 -27.6995 -27.6709 -27.6422 -27.4765 -27.4667 -27.4299
   -11.3497  -3.4121  -2.7192  -2.5801  -2.2543  -2.2011  -1.9043  -1.7289
    -1.4377  -1.0424  -0.9082  -0.6092  -0.4580  -0.4017  -0.1237  -0.1013
     0.0950   0.1208   0.1491   0.2813   0.3278   0.3861   0.4373   0.4930
     0.5802   0.6288   0.6492   0.6789   0.7780   0.8495   0.9216

          k = 0.0259-0.0747 0.0000 ( 23012 PWs)   bands (ev):

   -49.8011 -49.7893 -49.7783 -49.6233 -49.6112 -49.6023 -49.5907 -49.2404
   -49.1602 -49.1485 -49.1364 -48.8452 -28.5009 -28.4868 -28.4733 -28.4245
   -28.3969 -28.3498 -28.3401 -28.2970 -28.2934 -28.2818 -28.2754 -28.2658
   -28.2635 -28.2550 -28.2327 -28.1962 -28.1828 -28.1526 -28.1149 -28.0762
   -28.0519 -27.8948 -27.8773 -27.8450 -27.8214 -27.8004 -27.7618 -27.7494
   -27.7453 -27.7282 -27.6995 -27.6709 -27.6422 -27.4765 -27.4667 -27.4299
   -11.3497  -3.4121  -2.7192  -2.5801  -2.2543  -2.2011  -1.9043  -1.7289
    -1.4377  -1.0424  -0.9082  -0.6092  -0.4580  -0.4017  -0.1237  -0.1013
     0.0951   0.1208   0.1491   0.2813   0.3278   0.3861   0.4372   0.4930
     0.5801   0.6288   0.6492   0.6789   0.7780   0.8495   0.9217

          k = 0.0259-0.0448 0.0000 ( 23004 PWs)   bands (ev):

   -49.8067 -49.7838 -49.7782 -49.6329 -49.6034 -49.5992 -49.5920 -49.2419
   -49.1640 -49.1429 -49.1368 -48.8451 -28.5080 -28.4803 -28.4735 -28.4312
   -28.4300 -28.3997 -28.3258 -28.3129 -28.3094 -28.3043 -28.2998 -28.2705
   -28.2669 -28.2579 -28.2159 -28.1757 -28.1490 -28.0972 -28.0955 -28.0813
   -28.0319 -27.9228 -27.9071 -27.8971 -27.8226 -27.7718 -27.7588 -27.7455
   -27.7324 -27.6972 -27.6815 -27.6660 -27.6248 -27.4709 -27.4637 -27.4324
   -11.3521  -3.9674  -2.9608  -2.2576  -2.1591  -2.0067  -1.7917  -1.6860
    -1.3868  -1.1496  -1.0402  -0.8129  -0.6596  -0.3989  -0.3869  -0.3171
    -0.1079  -0.0657  -0.0238   0.1405   0.2739   0.2943   0.3941   0.6573
     0.6745   0.7012   0.7218   0.8350   1.0191   1.0861   1.1314

          k = 0.0518-0.0299 0.0000 ( 22962 PWs)   bands (ev):

   -49.8051 -49.7855 -49.7781 -49.6303 -49.6073 -49.5964 -49.5935 -49.2414
   -49.1632 -49.1439 -49.1370 -48.8451 -28.5060 -28.4821 -28.4734 -28.4390
   -28.4075 -28.3886 -28.3197 -28.3132 -28.3091 -28.3052 -28.2791 -28.2688
   -28.2623 -28.2597 -28.2338 -28.1746 -28.1404 -28.1395 -28.1026 -28.0750
   -28.0351 -27.9109 -27.9098 -27.8750 -27.8221 -27.7738 -27.7578 -27.7482
   -27.7354 -27.7139 -27.6873 -27.6692 -27.6270 -27.4741 -27.4633 -27.4316
   -11.3513  -3.8241  -2.8603  -2.4497  -2.1344  -2.1186  -1.8820  -1.3813
    -1.3083  -1.2043  -1.1046  -0.7725  -0.7113  -0.4647  -0.2060  -0.1803
    -0.0487  -0.0063  -0.0016   0.1829   0.2786   0.3497   0.3832   0.6226
     0.6537   0.6573   0.6925   0.7099   1.0028   1.0065   1.0863

          k = 0.0518 0.0000 0.0000 ( 23004 PWs)   bands (ev):

   -49.8067 -49.7839 -49.7782 -49.6329 -49.6034 -49.5992 -49.5920 -49.2419
   -49.1640 -49.1428 -49.1368 -48.8451 -28.5080 -28.4803 -28.4735 -28.4312
   -28.4300 -28.3997 -28.3258 -28.3129 -28.3094 -28.3043 -28.2998 -28.2705
   -28.2668 -28.2579 -28.2159 -28.1756 -28.1490 -28.0972 -28.0955 -28.0813
   -28.0319 -27.9228 -27.9071 -27.8971 -27.8226 -27.7718 -27.7588 -27.7455
   -27.7324 -27.6972 -27.6815 -27.6660 -27.6248 -27.4708 -27.4637 -27.4324
   -11.3521  -3.9674  -2.9608  -2.2576  -2.1591  -2.0067  -1.7917  -1.6860
    -1.3868  -1.1496  -1.0402  -0.8129  -0.6596  -0.3989  -0.3869  -0.3171
    -0.1079  -0.0657  -0.0238   0.1405   0.2738   0.2943   0.3941   0.6573
     0.6745   0.7012   0.7218   0.8350   1.0191   1.0861   1.1314

          k = 0.0518 0.0299 0.0000 ( 22962 PWs)   bands (ev):

   -49.8052 -49.7853 -49.7782 -49.6303 -49.6073 -49.5964 -49.5935 -49.2414
   -49.1631 -49.1441 -49.1369 -48.8451 -28.5061 -28.4819 -28.4735 -28.4392
   -28.4074 -28.3886 -28.3197 -28.3132 -28.3091 -28.3052 -28.2791 -28.2688
   -28.2623 -28.2598 -28.2336 -28.1747 -28.1404 -28.1395 -28.1026 -28.0750
   -28.0351 -27.9110 -27.9098 -27.8750 -27.8221 -27.7739 -27.7577 -27.7481
   -27.7354 -27.7138 -27.6874 -27.6693 -27.6269 -27.4742 -27.4633 -27.4316
   -11.3513  -3.8241  -2.8603  -2.4497  -2.1344  -2.1185  -1.8820  -1.3813
    -1.3083  -1.2043  -1.1047  -0.7725  -0.7113  -0.4647  -0.2060  -0.1803
    -0.0488  -0.0063  -0.0015   0.1829   0.2786   0.3497   0.3832   0.6227
     0.6537   0.6573   0.6925   0.7099   1.0028   1.0065   1.0864

          k = 0.0518-0.1196 0.0000 ( 23012 PWs)   bands (ev):

   -49.8011 -49.7893 -49.7783 -49.6233 -49.6113 -49.6023 -49.5907 -49.2404
   -49.1602 -49.1485 -49.1364 -48.8452 -28.5009 -28.4867 -28.4733 -28.4244
   -28.3970 -28.3498 -28.3399 -28.2970 -28.2934 -28.2818 -28.2754 -28.2658
   -28.2636 -28.2550 -28.2327 -28.1962 -28.1828 -28.1527 -28.1149 -28.0762
   -28.0519 -27.8948 -27.8773 -27.8450 -27.8214 -27.8004 -27.7618 -27.7493
   -27.7453 -27.7283 -27.6995 -27.6709 -27.6422 -27.4765 -27.4667 -27.4299
   -11.3497  -3.4121  -2.7192  -2.5801  -2.2543  -2.2011  -1.9043  -1.7289
    -1.4377  -1.0424  -0.9082  -0.6092  -0.4580  -0.4018  -0.1237  -0.1013
     0.0950   0.1208   0.1491   0.2813   0.3279   0.3861   0.4373   0.4930
     0.5801   0.6288   0.6492   0.6789   0.7780   0.8495   0.9216

          k = 0.0518-0.0897 0.0000 ( 23028 PWs)   bands (ev):

   -49.7966 -49.7937 -49.7783 -49.6169 -49.6108 -49.6107 -49.5892 -49.2400
   -49.1557 -49.1539 -49.1360 -48.8452 -28.4949 -28.4926 -28.4732 -28.4062
   -28.3836 -28.3767 -28.3063 -28.2960 -28.2861 -28.2820 -28.2799 -28.2550
   -28.2529 -28.2491 -28.2137 -28.2131 -28.2119 -28.1903 -28.0845 -28.0845
   -28.0774 -27.8650 -27.8561 -27.8487 -27.8211 -27.8134 -27.7800 -27.7479
   -27.7451 -27.7443 -27.6770 -27.6755 -27.6650 -27.4746 -27.4714 -27.4291
   -11.3489  -2.8103  -2.7951  -2.7928  -2.3333  -2.3212  -2.0960  -1.5490
    -1.5211  -1.3319  -0.4756  -0.4268  -0.4133  -0.2481  -0.2356  -0.2047
     0.1785   0.2598   0.2836   0.2910   0.3545   0.4106   0.4846   0.5461
     0.5558   0.5588   0.5853   0.6624   0.7156   0.7811   0.8230

          k = 0.0518-0.0598 0.0000 ( 23012 PWs)   bands (ev):

   -49.8010 -49.7895 -49.7782 -49.6233 -49.6113 -49.6023 -49.5907 -49.2404
   -49.1603 -49.1484 -49.1365 -48.8452 -28.5008 -28.4869 -28.4732 -28.4243
   -28.3971 -28.3498 -28.3400 -28.2970 -28.2934 -28.2818 -28.2754 -28.2658
   -28.2637 -28.2550 -28.2327 -28.1962 -28.1826 -28.1527 -28.1149 -28.0762
   -28.0519 -27.8948 -27.8773 -27.8450 -27.8214 -27.8004 -27.7619 -27.7493
   -27.7453 -27.7282 -27.6995 -27.6708 -27.6423 -27.4764 -27.4667 -27.4299
   -11.3497  -3.4121  -2.7191  -2.5801  -2.2543  -2.2011  -1.9043  -1.7289
    -1.4377  -1.0425  -0.9082  -0.6092  -0.4580  -0.4017  -0.1237  -0.1013
     0.0951   0.1208   0.1490   0.2813   0.3279   0.3862   0.4372   0.4930
     0.5800   0.6288   0.6492   0.6789   0.7780   0.8495   0.9216

          k =-0.0777 0.0448 0.0000 ( 23032 PWs)   bands (ev):

   -49.8009 -49.7897 -49.7781 -49.6209 -49.6165 -49.5967 -49.5935 -49.2404
   -49.1609 -49.1473 -49.1370 -48.8452 -28.5007 -28.4870 -28.4732 -28.4351
   -28.3822 -28.3427 -28.3414 -28.2936 -28.2936 -28.2905 -28.2869 -28.2791
   -28.2613 -28.2591 -28.1895 -28.1870 -28.1770 -28.1609 -28.1605 -28.0585
   -28.0518 -27.8959 -27.8887 -27.8245 -27.8217 -27.7925 -27.7611 -27.7530
   -27.7479 -27.7293 -27.7230 -27.6613 -27.6372 -27.4789 -27.4644 -27.4300
   -11.3497  -3.1740  -3.1537  -2.5548  -2.2946  -2.1378  -1.7566  -1.6712
    -1.1935  -1.1576  -0.8302  -0.6985  -0.6418  -0.5993   0.0570   0.0721
     0.0821   0.1110   0.1913   0.2075   0.3378   0.3892   0.3904   0.4477
     0.4602   0.6082   0.6490   0.7705   0.8159   0.8357   0.8581

          k =-0.0777 0.0747 0.0000 ( 23012 PWs)   bands (ev):

   -49.8010 -49.7895 -49.7782 -49.6233 -49.6113 -49.6023 -49.5907 -49.2404
   -49.1603 -49.1484 -49.1365 -48.8452 -28.5008 -28.4869 -28.4732 -28.4243
   -28.3971 -28.3498 -28.3400 -28.2970 -28.2934 -28.2818 -28.2754 -28.2658
   -28.2637 -28.2550 -28.2327 -28.1962 -28.1826 -28.1526 -28.1149 -28.0762
   -28.0519 -27.8948 -27.8773 -27.8450 -27.8214 -27.8004 -27.7619 -27.7493
   -27.7453 -27.7282 -27.6995 -27.6708 -27.6423 -27.4764 -27.4667 -27.4299
   -11.3497  -3.4121  -2.7191  -2.5801  -2.2543  -2.2011  -1.9043  -1.7289
    -1.4377  -1.0424  -0.9082  -0.6092  -0.4580  -0.4017  -0.1237  -0.1013
     0.0951   0.1208   0.1490   0.2813   0.3279   0.3862   0.4372   0.4930
     0.5800   0.6288   0.6492   0.6789   0.7780   0.8495   0.9216

          k =-0.0777 0.1046 0.0000 ( 23012 PWs)   bands (ev):

   -49.8010 -49.7894 -49.7782 -49.6233 -49.6113 -49.6023 -49.5907 -49.2404
   -49.1602 -49.1485 -49.1365 -48.8452 -28.5008 -28.4868 -28.4733 -28.4244
   -28.3969 -28.3498 -28.3401 -28.2970 -28.2934 -28.2818 -28.2754 -28.2658
   -28.2636 -28.2550 -28.2327 -28.1962 -28.1827 -28.1526 -28.1149 -28.0762
   -28.0519 -27.8948 -27.8773 -27.8450 -27.8214 -27.8004 -27.7618 -27.7494
   -27.7453 -27.7281 -27.6995 -27.6709 -27.6422 -27.4765 -27.4667 -27.4299
   -11.3497  -3.4121  -2.7191  -2.5801  -2.2543  -2.2011  -1.9043  -1.7289
    -1.4377  -1.0424  -0.9082  -0.6092  -0.4580  -0.4017  -0.1237  -0.1013
     0.0951   0.1208   0.1490   0.2813   0.3278   0.3861   0.4372   0.4930
     0.5801   0.6288   0.6492   0.6789   0.7780   0.8495   0.9216

          k =-0.0777-0.0448 0.0000 ( 23032 PWs)   bands (ev):

   -49.8010 -49.7894 -49.7782 -49.6209 -49.6165 -49.5967 -49.5935 -49.2404
   -49.1608 -49.1475 -49.1369 -48.8452 -28.5008 -28.4867 -28.4733 -28.4352
   -28.3819 -28.3428 -28.3415 -28.2936 -28.2935 -28.2905 -28.2869 -28.2789
   -28.2612 -28.2591 -28.1895 -28.1870 -28.1771 -28.1609 -28.1605 -28.0585
   -28.0518 -27.8960 -27.8886 -27.8245 -27.8217 -27.7925 -27.7611 -27.7529
   -27.7478 -27.7295 -27.7229 -27.6615 -27.6371 -27.4789 -27.4644 -27.4300
   -11.3497  -3.1740  -3.1537  -2.5549  -2.2946  -2.1378  -1.7566  -1.6712
    -1.1935  -1.1576  -0.8302  -0.6985  -0.6417  -0.5994   0.0569   0.0721
     0.0821   0.1110   0.1913   0.2075   0.3378   0.3892   0.3905   0.4477
     0.4601   0.6082   0.6490   0.7704   0.8159   0.8358   0.8580

     the Fermi energy is     0.3095 ev

!    total energy              =   -1162.19264060 Ry
     Harris-Foulkes estimate   =   -1162.19264109 Ry
     estimated scf accuracy    <       0.00000006 Ry

     The total energy is the sum of the following terms:

     one-electron contribution =   -7312.83521235 Ry
     hartree contribution      =    3639.93368689 Ry
     xc contribution           =    -175.21060128 Ry
     ewald contribution        =    2686.04769793 Ry
     electric field correction =       0.00032940 Ry
     smearing contrib. (-TS)   =      -0.12854119 Ry

     convergence has been achieved in  10 iterations
 
 BEEF-vdW xc energy contributions
           1 :   -148.463836674914     
           2 :    130.544879293444     
           3 :   -102.571017960734     
           4 :    75.2404583703165     
           5 :   -56.0856917007221     
           6 :    46.5286891417685     
           7 :   -43.1492014024911     
           8 :    41.3374461043361     
           9 :   -38.4188661552490     
          10 :    34.4585476295996     
          11 :   -30.9518252556562     
          12 :    28.9418726884921     
          13 :   -28.1056391240150     
          14 :    27.2744717489880     
          15 :   -25.6379714803058     
          16 :    23.4439950901951     
          17 :   -21.6335998639663     
          18 :    20.8771575347755     
          19 :   -20.9551103643168     
          20 :    21.0000100164821     
          21 :   -20.2946934926056     
          22 :    18.8681479709051     
          23 :   -17.3914539285450     
          24 :    16.5345072881800     
          25 :   -16.3946091395942     
          26 :    16.4815867541877     
          27 :   -16.2100673429001     
          28 :    15.4128059122977     
          29 :   -14.4270493715964     
          30 :    13.7305571765120     
          31 :   -17.5471874031982     
          32 :   -12.5374084098833     

     Forces acting on atoms (Ry/au):


     negative rho (up, down):  1.059E-04 0.000E+00
     atom    1 type  1   force =     0.00090659    0.00052346    0.00195588
     atom    2 type  1   force =    -0.00090685    0.00052493    0.00195813
     atom    3 type  1   force =     0.00000128   -0.00104756    0.00195599
     atom    4 type  1   force =    -0.00000106   -0.00000063    0.00401653
     atom    5 type  1   force =     0.00000152    0.01417145   -0.00721991
     atom    6 type  1   force =    -0.00000412    0.00000261    0.01779085
     atom    7 type  1   force =    -0.01227247   -0.00708711   -0.00722435
     atom    8 type  1   force =     0.01227536   -0.00708731   -0.00723842
     atom    9 type  1   force =    -0.00005501    0.00004362   -0.00083601
     atom   10 type  1   force =     0.00004248   -0.00007756   -0.00156957
     atom   11 type  1   force =    -0.00009974    0.00004731   -0.00158754
     atom   12 type  1   force =     0.00009730   -0.00000192   -0.00157615
     atom   13 type  2   force =     0.00001470   -0.00001127   -0.00042542

     Total force =     0.002895     Total SCF correction =     0.000577
     SCF correction compared to forces is large: reduce conv_thr to get better values


     entering subroutine stress ...


     negative rho (up, down):  1.059E-04 0.000E+00
          total   stress  (Ry/bohr**3)                   (kbar)     P=   -0.02
   0.00000807  -0.00000001   0.00000001          1.19     -0.00      0.00
  -0.00000001   0.00000806  -0.00000001         -0.00      1.19     -0.00
   0.00000001  -0.00000001  -0.00001651          0.00     -0.00     -2.43


     bfgs converged in   9 scf cycles and   8 bfgs steps
     (criteria: energy <  1.0E+00, force <  1.9E-03)

     End of BFGS Geometry Optimization

     Final energy   =   -1162.1926406007 Ry
Begin final coordinates

ATOMIC_POSITIONS (crystal)
Sc1      0.166666667   0.166666667   0.395942884    0   0   0
Sc1      0.666666667   0.166666667   0.395942884    0   0   0
Sc1      0.166666667   0.666666667   0.395942884    0   0   0
Sc1      0.666666667   0.666666667   0.395942884    0   0   0
Sc1      0.833333333   0.333333333   0.500000000    0   0   0
Sc1      0.333333333   0.333333333   0.500000000    0   0   0
Sc1      0.833333333   0.833333333   0.500000000    0   0   0
Sc1      0.333333333   0.833333333   0.500000000    0   0   0
Sc1      0.000042658  -0.000026479   0.594121633
Sc1      0.501188811  -0.002442101   0.607780346
Sc1     -0.002421607   0.501216622   0.607793625
Sc1      0.501182429   0.501255044   0.607784851
S1       0.000012840  -0.000007530   0.684618241
End final coordinates



     Writing output data file calc.save
 
     init_run     :     15.57s CPU     16.11s WALL (       1 calls)
     electrons    :   3814.11s CPU   4211.51s WALL (       9 calls)
     update_pot   :     29.22s CPU     31.65s WALL (       8 calls)
     forces       :    179.51s CPU    193.97s WALL (       9 calls)
     stress       :    551.12s CPU    611.84s WALL (       9 calls)

     Called by init_run:
     wfcinit      :      5.99s CPU      6.11s WALL (       1 calls)
     potinit      :      2.26s CPU      2.39s WALL (       1 calls)

     Called by electrons:
     c_bands      :   1387.49s CPU   1518.41s WALL (     121 calls)
     sum_band     :    801.85s CPU    891.58s WALL (     121 calls)
     v_of_rho     :    253.66s CPU    285.29s WALL (     130 calls)
     newd         :    716.12s CPU    733.49s WALL (     130 calls)
     mix_rho      :      9.01s CPU      9.20s WALL (     121 calls)
     vdW_energy   :    119.36s CPU    131.66s WALL (     454 calls)
     vdW_ffts     :    309.31s CPU    319.86s WALL (     926 calls)
     vdW_v        :    124.39s CPU    127.49s WALL (     454 calls)

     Called by c_bands:
     init_us_2    :      8.81s CPU      8.90s WALL (    1305 calls)
     cegterg      :   1151.68s CPU   1183.97s WALL (     605 calls)

     Called by *egterg:
     h_psi        :    764.33s CPU    781.11s WALL (    3700 calls)
     s_psi        :     77.12s CPU     77.29s WALL (    3700 calls)
     g_psi        :      4.89s CPU      4.90s WALL (    3090 calls)
     cdiaghg      :     96.71s CPU     97.45s WALL (    3655 calls)

     Called by h_psi:
     add_vuspsi   :     79.86s CPU     80.01s WALL (    3700 calls)

     General routines
     calbec       :    118.30s CPU    120.42s WALL (    4395 calls)
     fft          :    490.27s CPU    526.74s WALL (   27515 calls)
     ffts         :      0.57s CPU      0.61s WALL (     251 calls)
     fftw         :    454.32s CPU    471.77s WALL (  306593 calls)
     interpolate  :      5.47s CPU      5.77s WALL (     251 calls)
     davcio       :      0.00s CPU      0.02s WALL (       5 calls)
 
     Parallel routines
     fft_scatter  :    569.87s CPU    621.10s WALL (  334359 calls)
 
     PWSCF        :     1h17m CPU        1h25m WALL

 
   This run was terminated on:  17:14:30   2May2018            

=------------------------------------------------------------------------------=
   JOB DONE.
=------------------------------------------------------------------------------=
Job  /afs/slac/g/suncat/bin/suncat-tsmpirun -x LD_LIBRARY_PATH -wdir /scratch/qe782459_TFMGo pw.x -npool 4 -in pw.inp

TID   HOST_NAME   COMMAND_LINE            STATUS            TERMINATION_TIME
===== ========== ================  =======================  ===================
00000 suncat0050 pw.x -npool 4 -i  Done                     05/02/2018 17:14:30
00001 suncat0050 pw.x -npool 4 -i  Done                     05/02/2018 17:14:30
00002 suncat0050 pw.x -npool 4 -i  Done                     05/02/2018 17:14:30
00003 suncat0050 pw.x -npool 4 -i  Done                     05/02/2018 17:14:30
00004 suncat0050 pw.x -npool 4 -i  Done                     05/02/2018 17:14:30
00005 suncat0050 pw.x -npool 4 -i  Done                     05/02/2018 17:14:30
00006 suncat0050 pw.x -npool 4 -i  Done                     05/02/2018 17:14:30
00007 suncat0050 pw.x -npool 4 -i  Done                     05/02/2018 17:14:30
00008 suncat0178 pw.x -npool 4 -i  Done                     05/02/2018 17:14:30
00009 suncat0178 pw.x -npool 4 -i  Done                     05/02/2018 17:14:30
00010 suncat0178 pw.x -npool 4 -i  Done                     05/02/2018 17:14:30
00011 suncat0178 pw.x -npool 4 -i  Done                     05/02/2018 17:14:30
00012 suncat0178 pw.x -npool 4 -i  Done                     05/02/2018 17:14:30
00013 suncat0178 pw.x -npool 4 -i  Done                     05/02/2018 17:14:30
00014 suncat0178 pw.x -npool 4 -i  Done                     05/02/2018 17:14:30
00015 suncat0178 pw.x -npool 4 -i  Done                     05/02/2018 17:14:30
00016 suncat0172 pw.x -npool 4 -i  Done                     05/02/2018 17:14:30
00017 suncat0172 pw.x -npool 4 -i  Done                     05/02/2018 17:14:30
00018 suncat0172 pw.x -npool 4 -i  Done                     05/02/2018 17:14:30
00019 suncat0172 pw.x -npool 4 -i  Done                     05/02/2018 17:14:30
00020 suncat0172 pw.x -npool 4 -i  Done                     05/02/2018 17:14:30
00021 suncat0172 pw.x -npool 4 -i  Done                     05/02/2018 17:14:30
00022 suncat0172 pw.x -npool 4 -i  Done                     05/02/2018 17:14:30
00023 suncat0172 pw.x -npool 4 -i  Done                     05/02/2018 17:14:30
00024 suncat0150 pw.x -npool 4 -i  Done                     05/02/2018 17:14:30
00025 suncat0150 pw.x -npool 4 -i  Done                     05/02/2018 17:14:30
00026 suncat0150 pw.x -npool 4 -i  Done                     05/02/2018 17:14:30
00027 suncat0150 pw.x -npool 4 -i  Done                     05/02/2018 17:14:30
00028 suncat0150 pw.x -npool 4 -i  Done                     05/02/2018 17:14:30
00029 suncat0150 pw.x -npool 4 -i  Done                     05/02/2018 17:14:30
00030 suncat0150 pw.x -npool 4 -i  Done                     05/02/2018 17:14:30
00031 suncat0150 pw.x -npool 4 -i  Done                     05/02/2018 17:14:30
