  python dir          : /u/if/mamunm/src/espresso
  espresso dir        : /nfs/slac/g/suncatfs/sw/espv18/espresso-dynpy-beef/bin
  pseudo dir          : /u/if/mamunm/psp/gbrv1.5pbe
  ase-espresso py git : GITVERSION



     Program PWSCF v.5.1rc2 (svn rev. 11289) starts on 23Apr2018 at  8:41:38 

     This program is part of the open-source Quantum ESPRESSO suite
     for quantum simulation of materials; please cite
         "P. Giannozzi et al., J. Phys.:Condens. Matter 21 395502 (2009);
          URL http://www.quantum-espresso.org", 
     in publications or presentations arising from this work. More details at
     http://www.quantum-espresso.org/quote

     Parallel version (MPI), running on    36 processors
     K-points division:     npool     =       3
     R & G space division:  proc/nbgrp/npool/nimage =      12
     Reading input from pw.inp
     Message from routine read_cards :
     DEPRECATED: no units specified in CELL_PARAMETERS card

     Current dimensions of program PWSCF are:
     Max number of different atomic species (ntypx) = 10
     Max number of k-points (npk) =  40000
     Max angular momentum in pseudopotentials (lmaxx) =  3
     Presently stress not available with electric field


     **************************************************************************
     Initializing libbeef V0.1.1 with the BEEF-vdW functional.
     Citation: Wellendorff et al., PRB 85, 235149 (2012).
     **************************************************************************


     IMPORTANT: XC functional enforced from input :
     Exchange-correlation      = BEEF-VDW ( 1  4 27 13 2)
     Any further DFT definition will be discarded
     Please, verify this is what you really want


     Subspace diagonalization in iterative solution of the eigenvalue problem:
     a serial algorithm will be used

 
     Parallelization info
     --------------------
     sticks:   dense  smooth     PW     G-vecs:    dense   smooth      PW
     Min         269     107     31                51421    12993    2025
     Max         271     108     33                51431    13027    2039
     Sum        3241    1285    379               617075   156145   24367
 


     bravais-lattice index     =            0
     lattice parameter (alat)  =       1.8897  a.u.
     unit-cell volume          =    5185.0501 (a.u.)^3
     number of atoms/cell      =           14
     number of atomic types    =            3
     number of electrons       =       163.00
     number of Kohn-Sham states=           91
     kinetic-energy cutoff     =      36.7493  Ry
     charge density cutoff     =     367.4932  Ry
     convergence threshold     =      1.0E-05
     mixing beta               =       0.3000
     number of iterations used =           10  plain     mixing
     Exchange-correlation      = BEEF-VDW ( 1  4 27 13 2)
     nstep                     =           50


     celldm(1)=   1.889726  celldm(2)=   0.000000  celldm(3)=   0.000000
     celldm(4)=   0.000000  celldm(5)=   0.000000  celldm(6)=   0.000000

     crystal axes: (cart. coord. in units of alat)
               a(1) = (   5.972022   0.000000   0.000000 )  
               a(2) = (   2.986011   5.171923   0.000000 )  
               a(3) = (   0.000000   0.000000  24.876136 )  

     reciprocal axes: (cart. coord. in units 2 pi/alat)
               b(1) = (  0.167447 -0.096676  0.000000 )  
               b(2) = (  0.000000  0.193352  0.000000 )  
               b(3) = (  0.000000  0.000000  0.040199 )  


     PseudoPot. # 1 for Ta read from file:
     /u/if/mamunm/psp/gbrv1.5pbe/Ta.UPF
     MD5 check sum: f8bbe9446314a3b8ea5d9f3e3836c939
     Pseudo is Ultrasoft + core correction, Zval = 13.0
     Generated by new atomic code, or converted to UPF format
     Using radial grid of  921 points,  7 beta functions with: 
                l(1) =   0
                l(2) =   0
                l(3) =   1
                l(4) =   1
                l(5) =   2
                l(6) =   2
                l(7) =   3
     Q(r) pseudized with  6 coefficients,  rinner =    1.300   1.300   1.300
                                                       1.300   1.300   1.300
                                                       1.300

     PseudoPot. # 2 for S  read from file:
     /u/if/mamunm/psp/gbrv1.5pbe/S.UPF
     MD5 check sum: 88d86576ff6df21479756cfb9bdac1df
     Pseudo is Ultrasoft + core correction, Zval =  6.0
     Generated by new atomic code, or converted to UPF format
     Using radial grid of  907 points,  6 beta functions with: 
                l(1) =   0
                l(2) =   0
                l(3) =   1
                l(4) =   1
                l(5) =   2
                l(6) =   2
     Q(r) pseudized with  8 coefficients,  rinner =    1.300   1.300   1.300
                                                       1.300   1.300

     PseudoPot. # 3 for H  read from file:
     /u/if/mamunm/psp/gbrv1.5pbe/H.UPF
     MD5 check sum: 761ae9a214b05c3daf00ab9f6b793d6f
     Pseudo is Ultrasoft, Zval =  1.0
     Generated by new atomic code, or converted to UPF format
     Using radial grid of  615 points,  2 beta functions with: 
                l(1) =   0
                l(2) =   0
     Q(r) pseudized with  8 coefficients,  rinner =    0.700

     vdW kernel table read from file vdW_kernel_table
     MD5 check sum: 095c7af220d748ca6e76c0b4c6cfb241

     atomic species   valence    mass     pseudopotential
        Ta1           13.00   180.94788     Ta( 1.00)
        S1             6.00    32.06000     S ( 1.00)
        H1             1.00     1.00800     H ( 1.00)

     No symmetry found



   Cartesian axes

     site n.     atom                  positions (alat units)
         1           Ta1 tau(   1) = (   1.4930055   0.8619871  10.0000000  )
         2           Ta1 tau(   2) = (   4.4790165   0.8619871  10.0000000  )
         3           Ta1 tau(   3) = (   2.9860110   3.4479485  10.0000000  )
         4           Ta1 tau(   4) = (   5.9720221   3.4479485  10.0000000  )
         5           Ta1 tau(   5) = (   5.9720221   1.7239743  12.4380678  )
         6           Ta1 tau(   6) = (   2.9860110   1.7239743  12.4380678  )
         7           Ta1 tau(   7) = (   7.4650276   4.3099357  12.4380678  )
         8           Ta1 tau(   8) = (   4.4790165   4.3099357  12.4380678  )
         9           Ta1 tau(   9) = (   0.0000000   0.0000000  14.8761356  )
        10           Ta1 tau(  10) = (   2.9860110   0.0000000  14.8761356  )
        11           Ta1 tau(  11) = (   1.4930055   2.5859614  14.8761356  )
        12           Ta1 tau(  12) = (   4.4790165   2.5859614  14.8761356  )
        13           S1  tau(  13) = (   0.0000000   0.0000000  17.2136356  )
        14           H1  tau(  14) = (   0.0000000   0.0000000  18.4636356  )

     number of k points=    20  Fermi-Dirac smearing, width (Ry)=  0.0110
                       cart. coord. in units 2pi/alat
        k(    1) = (   0.0000000   0.0000000   0.0000000), wk =   0.0555556
        k(    2) = (   0.0000000   0.0322253   0.0000000), wk =   0.1111111
        k(    3) = (   0.0000000   0.0644506   0.0000000), wk =   0.1111111
        k(    4) = (   0.0000000  -0.0966758   0.0000000), wk =   0.0555556
        k(    5) = (   0.0279079  -0.0161126   0.0000000), wk =   0.1111111
        k(    6) = (   0.0279079   0.0161126   0.0000000), wk =   0.1111111
        k(    7) = (   0.0279079   0.0483379   0.0000000), wk =   0.1111111
        k(    8) = (   0.0279079  -0.1127885   0.0000000), wk =   0.1111111
        k(    9) = (   0.0279079  -0.0805632   0.0000000), wk =   0.1111111
        k(   10) = (   0.0279079  -0.0483379   0.0000000), wk =   0.1111111
        k(   11) = (   0.0558158  -0.0322253   0.0000000), wk =   0.1111111
        k(   12) = (   0.0558158   0.0000000   0.0000000), wk =   0.1111111
        k(   13) = (   0.0558158   0.0322253   0.0000000), wk =   0.1111111
        k(   14) = (   0.0558158  -0.1289011   0.0000000), wk =   0.1111111
        k(   15) = (   0.0558158  -0.0966758   0.0000000), wk =   0.1111111
        k(   16) = (   0.0558158  -0.0644506   0.0000000), wk =   0.1111111
        k(   17) = (  -0.0837237   0.0483379   0.0000000), wk =   0.0555556
        k(   18) = (  -0.0837237   0.0805632   0.0000000), wk =   0.1111111
        k(   19) = (  -0.0837237   0.1127885   0.0000000), wk =   0.1111111
        k(   20) = (  -0.0837237  -0.0483379   0.0000000), wk =   0.0555556

     Dense  grid:   617075 G-vectors     FFT dimensions: (  72,  72, 288)

     Smooth grid:   156145 G-vectors     FFT dimensions: (  45,  45, 192)

     Largest allocated arrays     est. size (Mb)     dimensions
        Kohn-Sham Wavefunctions         2.32 Mb     (    1673,   91)
        NL pseudopotentials             8.17 Mb     (    1673,  320)
        Each V/rho on FFT grid          1.90 Mb     (  124416)
        Each G-vector array             0.39 Mb     (   51431)
        G-vector shells                 0.14 Mb     (   18336)
     Largest temporary arrays     est. size (Mb)     dimensions
        Auxiliary wavefunctions         9.29 Mb     (    1673,  364)
        Each subspace H/S matrix        2.02 Mb     (     364,  364)
        Each <psi_i|beta_j> matrix      0.44 Mb     (     320,   91)
        Arrays for rho mixing          18.98 Mb     (  124416,   10)

     Initial potential from superposition of free atoms
     Check: negative starting charge=   -1.121525

     starting charge  162.98661, renormalised to  163.00000

     negative rho (up, down):  1.122E+00 0.000E+00


     ************************************************************************
     *
     * You are using vdW-DF for exchange-correlation in this calculation.
     * Please cite the following three references that made this development
     * possible:
     *
     *   M. Dion, H. Rydberg, E. Schroder, D. C. Langreth, and
     *   B. I. Lundqvist, Phys. Rev. Lett. 92, 246401 (2004).
     *
     *   T. Thonhauser, V. R. Cooper, S. Li, A. Puzder, P. Hyldgaard, and
     *   D. C. Langreth, Phys. Rev. B 76, 125112 (2007).
     *
     *   G. Roman-Perez and J. M. Soler, Phys. Rev. Lett. 103, 096102 (2009).
     *
     *
     * If you are using vdW-DF2, please also cite:
     *
     *   K. Lee, E. D. Murray, L. Kong, B. I. Lundqvist, and
     *   D. C. Langreth, Phys. Rev. B 82, 081101(R) (2010).
     *
     *
     * If you are calculating the stress with vdW-DF, please also cite:
     *
     *   R. Sabatini, E. Kucukbenli, B. Kolb, T. Thonhauser, and
     *   S. de Gironcoli, J. Phys.: Condens. Matter 24, 424209 (2012).
     *
     ************************************************************************

     Carrying out vdW-DF run using the following parameters:

     Nqs =      20    Nr_points =    1024   r_max =   100.000
     q_mesh =
               0.00001000     0.04494208     0.09755937     0.15916263
               0.23128650     0.31572767     0.41458969     0.53033537
               0.66584808     0.82450364     1.01025438     1.22772762
               1.48234092     1.78043706     2.12944203     2.53805004
               3.01644009     3.57652955     4.23227104     5.00000000

     Gradients computed in reciprocal space

     ************************************************************************


 
     Adding external electric field

     Computed dipole along edir(3) : 
        Dipole               -0.0050 Ry au,         -0.0126 Debye
        Dipole field         -0.0000 Ry au
 
        Potential amp.        0.0011 Ry
        Total length         45.8339 bohr
 
     Starting wfc are  161 randomized atomic wfcs

     total cpu time spent up to now is       13.5 secs

     Self-consistent Calculation

     iteration #  1     ecut=    36.75 Ry     beta=0.30
     Davidson diagonalization with overlap
     ethr =  1.00E-02,  avg # of iterations =  2.0

     negative rho (up, down):  1.136E+00 0.000E+00
 
     Adding external electric field

     Computed dipole along edir(3) : 
        Dipole                0.2881 Ry au,          0.7322 Debye
        Dipole field          0.0007 Ry au
 
        Potential amp.       -0.0640 Ry
        Total length         45.8339 bohr
 

     total cpu time spent up to now is       30.0 secs

     total energy              =   -1741.82268213 Ry
     Harris-Foulkes estimate   =   -1744.33673386 Ry
     estimated scf accuracy    <       5.36621326 Ry

     iteration #  2     ecut=    36.75 Ry     beta=0.30
     Davidson diagonalization with overlap
     ethr =  3.29E-03,  avg # of iterations =  6.9

     negative rho (up, down):  1.137E+00 0.000E+00
 
     Adding external electric field

     Computed dipole along edir(3) : 
        Dipole               -1.3968 Ry au,         -3.5502 Debye
        Dipole field         -0.0034 Ry au
 
        Potential amp.        0.3103 Ry
        Total length         45.8339 bohr
 

     total cpu time spent up to now is       53.3 secs

     total energy              =   -1739.93002316 Ry
     Harris-Foulkes estimate   =   -1748.58549572 Ry
     estimated scf accuracy    <      75.15637170 Ry

     iteration #  3     ecut=    36.75 Ry     beta=0.30
     Davidson diagonalization with overlap
     ethr =  3.29E-03,  avg # of iterations =  5.1

     negative rho (up, down):  1.138E+00 0.000E+00
 
     Adding external electric field

     Computed dipole along edir(3) : 
        Dipole               -0.4143 Ry au,         -1.0531 Debye
        Dipole field         -0.0010 Ry au
 
        Potential amp.        0.0920 Ry
        Total length         45.8339 bohr
 

     total cpu time spent up to now is       78.1 secs

     total energy              =   -1743.36135843 Ry
     Harris-Foulkes estimate   =   -1744.67315266 Ry
     estimated scf accuracy    <      51.81397181 Ry

     iteration #  4     ecut=    36.75 Ry     beta=0.30
     Davidson diagonalization with overlap
     ethr =  3.29E-03,  avg # of iterations =  3.4

     negative rho (up, down):  1.143E+00 0.000E+00
 
     Adding external electric field

     Computed dipole along edir(3) : 
        Dipole               -0.0515 Ry au,         -0.1309 Debye
        Dipole field         -0.0001 Ry au
 
        Potential amp.        0.0114 Ry
        Total length         45.8339 bohr
 

     total cpu time spent up to now is       96.2 secs

     total energy              =   -1743.86503824 Ry
     Harris-Foulkes estimate   =   -1743.94245182 Ry
     estimated scf accuracy    <       0.57508601 Ry

     iteration #  5     ecut=    36.75 Ry     beta=0.30
     Davidson diagonalization with overlap
     ethr =  3.53E-04,  avg # of iterations =  5.5

     negative rho (up, down):  1.156E+00 0.000E+00
 
     Adding external electric field

     Computed dipole along edir(3) : 
        Dipole                0.1796 Ry au,          0.4566 Debye
        Dipole field          0.0004 Ry au
 
        Potential amp.       -0.0399 Ry
        Total length         45.8339 bohr
 

     total cpu time spent up to now is      116.1 secs

     total energy              =   -1743.89497974 Ry
     Harris-Foulkes estimate   =   -1743.92796303 Ry
     estimated scf accuracy    <       0.13652326 Ry

     iteration #  6     ecut=    36.75 Ry     beta=0.30
     Davidson diagonalization with overlap
     ethr =  8.38E-05,  avg # of iterations =  2.4

     negative rho (up, down):  1.162E+00 0.000E+00
 
     Adding external electric field

     Computed dipole along edir(3) : 
        Dipole                0.2150 Ry au,          0.5466 Debye
        Dipole field          0.0005 Ry au
 
        Potential amp.       -0.0478 Ry
        Total length         45.8339 bohr
 

     total cpu time spent up to now is      133.5 secs

     total energy              =   -1743.90234083 Ry
     Harris-Foulkes estimate   =   -1743.90725780 Ry
     estimated scf accuracy    <       0.04215520 Ry

     iteration #  7     ecut=    36.75 Ry     beta=0.30
     Davidson diagonalization with overlap
     ethr =  2.59E-05,  avg # of iterations =  3.1

     negative rho (up, down):  1.169E+00 0.000E+00
 
     Adding external electric field

     Computed dipole along edir(3) : 
        Dipole                0.3263 Ry au,          0.8294 Debye
        Dipole field          0.0008 Ry au
 
        Potential amp.       -0.0725 Ry
        Total length         45.8339 bohr
 

     total cpu time spent up to now is      151.3 secs

     total energy              =   -1743.90442810 Ry
     Harris-Foulkes estimate   =   -1743.90629949 Ry
     estimated scf accuracy    <       0.01922031 Ry

     iteration #  8     ecut=    36.75 Ry     beta=0.30
     Davidson diagonalization with overlap
     ethr =  1.18E-05,  avg # of iterations =  5.4

     negative rho (up, down):  1.172E+00 0.000E+00
 
     Adding external electric field

     Computed dipole along edir(3) : 
        Dipole                0.3572 Ry au,          0.9080 Debye
        Dipole field          0.0009 Ry au
 
        Potential amp.       -0.0794 Ry
        Total length         45.8339 bohr
 

     total cpu time spent up to now is      170.0 secs

     total energy              =   -1743.90574873 Ry
     Harris-Foulkes estimate   =   -1743.90576016 Ry
     estimated scf accuracy    <       0.00365108 Ry

     iteration #  9     ecut=    36.75 Ry     beta=0.30
     Davidson diagonalization with overlap
     ethr =  2.24E-06,  avg # of iterations = 10.2

     negative rho (up, down):  1.174E+00 0.000E+00
 
     Adding external electric field

     Computed dipole along edir(3) : 
        Dipole                0.3602 Ry au,          0.9156 Debye
        Dipole field          0.0009 Ry au
 
        Potential amp.       -0.0800 Ry
        Total length         45.8339 bohr
 

     total cpu time spent up to now is      191.9 secs

     total energy              =   -1743.90606927 Ry
     Harris-Foulkes estimate   =   -1743.90616832 Ry
     estimated scf accuracy    <       0.00081946 Ry

     iteration # 10     ecut=    36.75 Ry     beta=0.30
     Davidson diagonalization with overlap
     ethr =  5.03E-07,  avg # of iterations =  3.8

     negative rho (up, down):  1.175E+00 0.000E+00
 
     Adding external electric field

     Computed dipole along edir(3) : 
        Dipole                0.3494 Ry au,          0.8881 Debye
        Dipole field          0.0008 Ry au
 
        Potential amp.       -0.0776 Ry
        Total length         45.8339 bohr
 

     total cpu time spent up to now is      209.0 secs

     total energy              =   -1743.90613236 Ry
     Harris-Foulkes estimate   =   -1743.90618726 Ry
     estimated scf accuracy    <       0.00043886 Ry

     iteration # 11     ecut=    36.75 Ry     beta=0.30
     Davidson diagonalization with overlap
     ethr =  2.69E-07,  avg # of iterations =  2.7

     negative rho (up, down):  1.175E+00 0.000E+00
 
     Adding external electric field

     Computed dipole along edir(3) : 
        Dipole                0.3529 Ry au,          0.8969 Debye
        Dipole field          0.0009 Ry au
 
        Potential amp.       -0.0784 Ry
        Total length         45.8339 bohr
 

     total cpu time spent up to now is      224.6 secs

     total energy              =   -1743.90618394 Ry
     Harris-Foulkes estimate   =   -1743.90616894 Ry
     estimated scf accuracy    <       0.00005667 Ry

     iteration # 12     ecut=    36.75 Ry     beta=0.30
     Davidson diagonalization with overlap
     ethr =  3.48E-08,  avg # of iterations =  5.2

     negative rho (up, down):  1.175E+00 0.000E+00
 
     Adding external electric field

     Computed dipole along edir(3) : 
        Dipole                0.3561 Ry au,          0.9052 Debye
        Dipole field          0.0009 Ry au
 
        Potential amp.       -0.0791 Ry
        Total length         45.8339 bohr
 

     total cpu time spent up to now is      245.8 secs

     total energy              =   -1743.90619104 Ry
     Harris-Foulkes estimate   =   -1743.90618673 Ry
     estimated scf accuracy    <       0.00006680 Ry

     iteration # 13     ecut=    36.75 Ry     beta=0.30
     Davidson diagonalization with overlap
     ethr =  3.48E-08,  avg # of iterations =  3.0

     negative rho (up, down):  1.175E+00 0.000E+00

     negative rho (up, down):  1.175E+00 0.000E+00

     negative rho (up, down):  1.175E+00 0.000E+00

     negative rho (up, down):  1.175E+00 0.000E+00

     negative rho (up, down):  1.175E+00 0.000E+00

     negative rho (up, down):  1.175E+00 0.000E+00

     negative rho (up, down):  1.175E+00 0.000E+00

     negative rho (up, down):  1.175E+00 0.000E+00

     negative rho (up, down):  1.175E+00 0.000E+00

     negative rho (up, down):  1.175E+00 0.000E+00

     negative rho (up, down):  1.175E+00 0.000E+00

     negative rho (up, down):  1.175E+00 0.000E+00

     negative rho (up, down):  1.175E+00 0.000E+00

     negative rho (up, down):  1.175E+00 0.000E+00

     negative rho (up, down):  1.175E+00 0.000E+00

     negative rho (up, down):  1.175E+00 0.000E+00

     negative rho (up, down):  1.175E+00 0.000E+00

     negative rho (up, down):  1.175E+00 0.000E+00

     negative rho (up, down):  1.175E+00 0.000E+00

     negative rho (up, down):  1.175E+00 0.000E+00

     negative rho (up, down):  1.175E+00 0.000E+00

     negative rho (up, down):  1.175E+00 0.000E+00

     negative rho (up, down):  1.175E+00 0.000E+00

     negative rho (up, down):  1.175E+00 0.000E+00

     negative rho (up, down):  1.175E+00 0.000E+00

     negative rho (up, down):  1.175E+00 0.000E+00

     negative rho (up, down):  1.175E+00 0.000E+00

     negative rho (up, down):  1.175E+00 0.000E+00

     negative rho (up, down):  1.175E+00 0.000E+00

     negative rho (up, down):  1.175E+00 0.000E+00

     negative rho (up, down):  1.175E+00 0.000E+00

     negative rho (up, down):  1.175E+00 0.000E+00

     negative rho (up, down):  1.175E+00 0.000E+00

     negative rho (up, down):  1.175E+00 0.000E+00

     negative rho (up, down):  1.175E+00 0.000E+00
 
     Adding external electric field

     Computed dipole along edir(3) : 
        Dipole                0.3644 Ry au,          0.9261 Debye
        Dipole field          0.0009 Ry au
 
        Potential amp.       -0.0809 Ry
        Total length         45.8339 bohr
 

     total cpu time spent up to now is      320.9 secs

     End of self-consistent calculation

          k = 0.0000 0.0000 0.0000 ( 19447 PWs)   bands (ev):

   -65.7467 -65.6889 -65.6608 -65.6584 -65.6566 -65.6018 -65.6014 -65.5905
   -65.5449 -65.4961 -65.4715 -65.4708 -32.4308 -32.4274 -32.4265 -32.3761
   -32.3503 -32.3497 -32.3492 -32.3006 -32.3004 -32.2951 -32.1675 -32.0937
   -32.0384 -32.0368 -31.9336 -31.9332 -31.9281 -31.8394 -31.8232 -31.8229
   -31.7504 -31.7485 -31.7484 -31.7228 -31.6908 -31.6903 -31.6624 -31.6420
   -31.6420 -31.6235 -31.6163 -31.6158 -31.5651 -31.5651 -31.4778 -31.4777
   -11.8613  -5.2075  -4.5014  -3.0900  -2.1432  -1.4928  -1.4926  -1.3870
    -1.2840  -1.2840  -1.1825  -0.7601  -0.7600  -0.5999  -0.5997  -0.5341
    -0.2796  -0.1807  -0.1807   0.8791   1.1469   1.1472   2.0190   2.1446
     2.2894   2.2895   2.4068   2.5802   2.7195   2.7200   2.8116   3.0211
     3.0211   3.3008   3.3008   3.3816   3.3816   3.3909   3.4106   3.4656
     3.4656   3.5970   3.8262

          k = 0.0000 0.0322 0.0000 ( 19481 PWs)   bands (ev):

   -65.7443 -65.6888 -65.6631 -65.6588 -65.6528 -65.6046 -65.6014 -65.5915
   -65.5427 -65.4962 -65.4731 -65.4713 -32.4175 -32.4016 -32.3885 -32.3454
   -32.3309 -32.3272 -32.3184 -32.2755 -32.2716 -32.2541 -32.1613 -32.0970
   -32.0553 -32.0460 -31.9287 -31.9266 -31.9215 -31.8623 -31.8522 -31.8153
   -31.7892 -31.7864 -31.7375 -31.7179 -31.6955 -31.6810 -31.6801 -31.6646
   -31.6555 -31.6483 -31.6405 -31.6127 -31.5970 -31.5778 -31.5255 -31.4872
   -11.8602  -5.1153  -4.3425  -2.8762  -1.9011  -1.5698  -1.3552  -1.2871
    -1.2129  -1.1180  -1.0258  -0.7840  -0.7320  -0.4568  -0.3391  -0.3124
    -0.1371  -0.0567  -0.0509   0.9268   1.1466   1.1626   1.9074   2.1449
     2.2853   2.3326   2.3374   2.4729   2.4776   2.5861   2.6043   2.8529
     3.1275   3.1770   3.2301   3.2372   3.3016   3.3201   3.4049   3.4507
     3.4618   3.5572   3.5839

          k = 0.0000 0.0645 0.0000 ( 19517 PWs)   bands (ev):

   -65.7392 -65.6883 -65.6686 -65.6589 -65.6425 -65.6139 -65.6014 -65.5927
   -65.5377 -65.4965 -65.4778 -65.4713 -32.3872 -32.3385 -32.3079 -32.2903
   -32.2754 -32.2637 -32.2411 -32.2146 -32.2090 -32.1445 -32.1374 -32.1007
   -32.0778 -32.0712 -31.9252 -31.9238 -31.9156 -31.9106 -31.8939 -31.8504
   -31.8497 -31.8326 -31.7850 -31.7727 -31.7291 -31.7233 -31.7073 -31.6867
   -31.6753 -31.6629 -31.6609 -31.6516 -31.6253 -31.6120 -31.5889 -31.5135
   -11.8579  -4.9849  -3.7958  -2.3056  -2.0550  -1.3214  -1.1661  -1.0612
    -0.9333  -0.7796  -0.7501  -0.5633  -0.5474  -0.2359   0.2123   0.2319
     0.2953   0.3851   0.4315   1.0136   1.1697   1.2230   1.5007   1.7366
     1.8409   1.8874   2.0655   2.1488   2.4086   2.5180   2.5416   2.5890
     2.6112   2.6725   2.7429   2.7977   2.8905   3.0073   3.1017   3.2293
     3.2948   3.3641   3.6433

          k = 0.0000-0.0967 0.0000 ( 19532 PWs)   bands (ev):

   -65.7363 -65.6878 -65.6720 -65.6590 -65.6307 -65.6254 -65.6015 -65.5931
   -65.5348 -65.4967 -65.4804 -65.4713 -32.3685 -32.2957 -32.2728 -32.2526
   -32.2446 -32.2381 -32.1794 -32.1718 -32.1543 -32.1391 -32.1136 -32.0959
   -32.0297 -32.0127 -31.9600 -31.9535 -31.9470 -31.9332 -31.9318 -31.9256
   -31.8558 -31.8465 -31.8152 -31.7930 -31.7729 -31.7702 -31.7576 -31.7078
   -31.6823 -31.6622 -31.6593 -31.6524 -31.6496 -31.6392 -31.5601 -31.5420
   -11.8567  -4.9411  -2.9852  -2.8775  -1.7128  -1.4707  -0.9293  -0.9014
    -0.6658  -0.6231  -0.4828  -0.3202  -0.2984  -0.2448   0.5862   0.5993
     0.8165   0.8308   0.8354   0.8970   1.2085   1.3634   1.4083   1.4584
     1.4768   1.5033   1.8266   1.9077   2.0210   2.0512   2.0686   2.2544
     2.3005   2.4061   2.4179   2.4399   2.8360   2.8449   2.9418   2.9427
     3.1593   3.2927   4.1254

          k = 0.0279-0.0161 0.0000 ( 19481 PWs)   bands (ev):

   -65.7443 -65.6890 -65.6609 -65.6607 -65.6528 -65.6043 -65.6018 -65.5915
   -65.5427 -65.4961 -65.4737 -65.4708 -32.4175 -32.4008 -32.3892 -32.3453
   -32.3307 -32.3275 -32.3183 -32.2753 -32.2719 -32.2540 -32.1613 -32.0972
   -32.0540 -32.0471 -31.9285 -31.9270 -31.9214 -31.8630 -31.8519 -31.8149
   -31.7891 -31.7865 -31.7374 -31.7180 -31.6950 -31.6808 -31.6806 -31.6645
   -31.6555 -31.6480 -31.6407 -31.6131 -31.5970 -31.5778 -31.5256 -31.4872
   -11.8602  -5.1153  -4.3425  -2.8762  -1.9011  -1.5698  -1.3550  -1.2872
    -1.2129  -1.1180  -1.0257  -0.7840  -0.7320  -0.4569  -0.3390  -0.3125
    -0.1371  -0.0567  -0.0509   0.9267   1.1464   1.1629   1.9074   2.1451
     2.2854   2.3327   2.3372   2.4730   2.4773   2.5864   2.6040   2.8529
     3.1275   3.1769   3.2301   3.2372   3.3017   3.3203   3.4049   3.4511
     3.4614   3.5571   3.5839

          k = 0.0279 0.0161 0.0000 ( 19481 PWs)   bands (ev):

   -65.7443 -65.6888 -65.6630 -65.6588 -65.6528 -65.6045 -65.6015 -65.5915
   -65.5427 -65.4962 -65.4732 -65.4712 -32.4175 -32.4015 -32.3885 -32.3454
   -32.3309 -32.3272 -32.3184 -32.2755 -32.2717 -32.2541 -32.1613 -32.0970
   -32.0553 -32.0461 -31.9287 -31.9266 -31.9215 -31.8623 -31.8522 -31.8153
   -31.7892 -31.7865 -31.7375 -31.7179 -31.6954 -31.6809 -31.6802 -31.6646
   -31.6555 -31.6483 -31.6406 -31.6128 -31.5970 -31.5778 -31.5255 -31.4872
   -11.8602  -5.1153  -4.3425  -2.8762  -1.9011  -1.5698  -1.3552  -1.2871
    -1.2129  -1.1180  -1.0258  -0.7840  -0.7320  -0.4568  -0.3391  -0.3124
    -0.1371  -0.0567  -0.0509   0.9268   1.1466   1.1626   1.9074   2.1449
     2.2853   2.3326   2.3374   2.4729   2.4775   2.5861   2.6043   2.8529
     3.1275   3.1770   3.2301   3.2372   3.3016   3.3202   3.4049   3.4507
     3.4617   3.5572   3.5839

          k = 0.0279 0.0483 0.0000 ( 19485 PWs)   bands (ev):

   -65.7406 -65.6881 -65.6680 -65.6583 -65.6458 -65.6091 -65.6040 -65.5917
   -65.5390 -65.4962 -65.4771 -65.4709 -32.3956 -32.3581 -32.3204 -32.3032
   -32.2894 -32.2821 -32.2701 -32.2401 -32.1998 -32.1906 -32.1493 -32.1021
   -32.0784 -32.0613 -31.9446 -31.9168 -31.9131 -31.9078 -31.8786 -31.8423
   -31.8213 -31.7894 -31.7612 -31.7573 -31.7348 -31.7269 -31.6930 -31.6791
   -31.6719 -31.6606 -31.6349 -31.6283 -31.6254 -31.6158 -31.5842 -31.5106
   -11.8584  -5.0120  -3.9802  -2.4739  -1.6037  -1.5717  -1.4594  -1.1230
    -1.0054  -0.9174  -0.7886  -0.6013  -0.5817  -0.1482  -0.1317   0.1426
     0.1791   0.2038   0.2576   0.9976   1.1531   1.1872   1.6747   1.9182
     1.9856   2.0288   2.1018   2.2101   2.3612   2.5588   2.6559   2.6900
     2.7240   2.7967   2.8597   2.9110   3.0165   3.1592   3.1956   3.2459
     3.5085   3.5354   3.5928

          k = 0.0279-0.1128 0.0000 ( 19521 PWs)   bands (ev):

   -65.7364 -65.6862 -65.6743 -65.6580 -65.6338 -65.6191 -65.6070 -65.5907
   -65.5350 -65.4954 -65.4827 -65.4702 -32.3695 -32.2896 -32.2722 -32.2459
   -32.2372 -32.2240 -32.1876 -32.1752 -32.1436 -32.1350 -32.1097 -32.0920
   -32.0848 -32.0365 -32.0262 -31.9764 -31.9430 -31.9044 -31.8905 -31.8749
   -31.8643 -31.8555 -31.8128 -31.7867 -31.7804 -31.7552 -31.7140 -31.7052
   -31.6940 -31.6843 -31.6548 -31.6471 -31.6413 -31.6282 -31.5943 -31.5492
   -11.8567  -4.9427  -3.2423  -2.3234  -1.8083  -1.4918  -1.2170  -0.9590
    -0.8481  -0.5896  -0.4936  -0.2016  -0.0959   0.0035   0.4594   0.5878
     0.6485   0.6755   0.7569   1.0881   1.1623   1.2053   1.2597   1.4841
     1.5708   1.6074   1.7784   1.8370   1.9249   2.0096   2.1525   2.2351
     2.2628   2.3526   2.5025   2.5830   2.7522   2.8523   2.9968   3.1213
     3.3177   3.4246   3.7392

          k = 0.0279-0.0806 0.0000 ( 19521 PWs)   bands (ev):

   -65.7364 -65.6868 -65.6735 -65.6583 -65.6338 -65.6191 -65.6071 -65.5907
   -65.5350 -65.4953 -65.4829 -65.4701 -32.3694 -32.2895 -32.2725 -32.2456
   -32.2373 -32.2241 -32.1873 -32.1754 -32.1435 -32.1354 -32.1095 -32.0921
   -32.0846 -32.0365 -32.0273 -31.9764 -31.9419 -31.9044 -31.8906 -31.8748
   -31.8642 -31.8557 -31.8126 -31.7867 -31.7804 -31.7553 -31.7140 -31.7051
   -31.6943 -31.6842 -31.6546 -31.6471 -31.6416 -31.6281 -31.5944 -31.5492
   -11.8567  -4.9427  -3.2423  -2.3233  -1.8083  -1.4917  -1.2169  -0.9591
    -0.8480  -0.5896  -0.4935  -0.2016  -0.0959   0.0035   0.4594   0.5878
     0.6484   0.6756   0.7569   1.0881   1.1622   1.2054   1.2597   1.4841
     1.5707   1.6075   1.7784   1.8370   1.9250   2.0096   2.1524   2.2351
     2.2628   2.3527   2.5025   2.5827   2.7523   2.8523   2.9970   3.1213
     3.3176   3.4246   3.7392

          k = 0.0279-0.0483 0.0000 ( 19485 PWs)   bands (ev):

   -65.7405 -65.6887 -65.6665 -65.6593 -65.6458 -65.6089 -65.6043 -65.5916
   -65.5390 -65.4960 -65.4776 -65.4706 -32.3955 -32.3577 -32.3209 -32.3028
   -32.2897 -32.2825 -32.2696 -32.2401 -32.2000 -32.1905 -32.1493 -32.1024
   -32.0776 -32.0617 -31.9453 -31.9167 -31.9136 -31.9076 -31.8786 -31.8415
   -31.8213 -31.7894 -31.7612 -31.7574 -31.7346 -31.7268 -31.6929 -31.6794
   -31.6715 -31.6610 -31.6351 -31.6285 -31.6254 -31.6158 -31.5842 -31.5105
   -11.8584  -5.0120  -3.9802  -2.4740  -1.6037  -1.5717  -1.4595  -1.1229
    -1.0053  -0.9173  -0.7887  -0.6013  -0.5817  -0.1482  -0.1317   0.1426
     0.1791   0.2038   0.2576   0.9975   1.1531   1.1874   1.6747   1.9184
     1.9857   2.0288   2.1017   2.2100   2.3612   2.5588   2.6559   2.6899
     2.7241   2.7967   2.8597   2.9109   3.0165   3.1590   3.1954   3.2462
     3.5085   3.5355   3.5928

          k = 0.0558-0.0322 0.0000 ( 19517 PWs)   bands (ev):

   -65.7391 -65.6893 -65.6658 -65.6608 -65.6425 -65.6137 -65.6018 -65.5926
   -65.5377 -65.4961 -65.4786 -65.4708 -32.3872 -32.3375 -32.3087 -32.2905
   -32.2759 -32.2633 -32.2410 -32.2143 -32.2094 -32.1446 -32.1375 -32.1005
   -32.0770 -32.0721 -31.9261 -31.9236 -31.9152 -31.9113 -31.8938 -31.8503
   -31.8498 -31.8319 -31.7842 -31.7727 -31.7292 -31.7230 -31.7071 -31.6865
   -31.6759 -31.6633 -31.6609 -31.6516 -31.6253 -31.6121 -31.5891 -31.5134
   -11.8579  -4.9849  -3.7958  -2.3057  -2.0549  -1.3216  -1.1658  -1.0609
    -0.9335  -0.7796  -0.7501  -0.5632  -0.5474  -0.2360   0.2122   0.2320
     0.2953   0.3850   0.4316   1.0132   1.1700   1.2230   1.5007   1.7367
     1.8408   1.8874   2.0656   2.1487   2.4085   2.5180   2.5415   2.5891
     2.6112   2.6727   2.7430   2.7976   2.8904   3.0071   3.1020   3.2294
     3.2947   3.3640   3.6435

          k = 0.0558 0.0000 0.0000 ( 19485 PWs)   bands (ev):

   -65.7405 -65.6887 -65.6664 -65.6594 -65.6458 -65.6088 -65.6044 -65.5916
   -65.5390 -65.4960 -65.4777 -65.4705 -32.3955 -32.3577 -32.3209 -32.3028
   -32.2898 -32.2826 -32.2696 -32.2401 -32.2000 -32.1905 -32.1493 -32.1025
   -32.0775 -32.0617 -31.9453 -31.9167 -31.9136 -31.9076 -31.8786 -31.8415
   -31.8212 -31.7893 -31.7612 -31.7574 -31.7346 -31.7267 -31.6929 -31.6794
   -31.6715 -31.6611 -31.6351 -31.6285 -31.6254 -31.6158 -31.5842 -31.5105
   -11.8584  -5.0120  -3.9802  -2.4740  -1.6037  -1.5717  -1.4595  -1.1229
    -1.0053  -0.9173  -0.7887  -0.6013  -0.5817  -0.1482  -0.1317   0.1426
     0.1791   0.2038   0.2576   0.9974   1.1530   1.1874   1.6747   1.9184
     1.9857   2.0288   2.1016   2.2100   2.3612   2.5588   2.6560   2.6899
     2.7241   2.7967   2.8597   2.9109   3.0165   3.1590   3.1954   3.2463
     3.5085   3.5355   3.5929

          k = 0.0558 0.0322 0.0000 ( 19517 PWs)   bands (ev):

   -65.7392 -65.6883 -65.6685 -65.6590 -65.6425 -65.6138 -65.6015 -65.5927
   -65.5377 -65.4965 -65.4779 -65.4713 -32.3872 -32.3385 -32.3080 -32.2903
   -32.2754 -32.2637 -32.2411 -32.2145 -32.2091 -32.1445 -32.1374 -32.1007
   -32.0777 -32.0713 -31.9253 -31.9238 -31.9155 -31.9106 -31.8939 -31.8504
   -31.8497 -31.8326 -31.7850 -31.7727 -31.7291 -31.7232 -31.7073 -31.6867
   -31.6754 -31.6629 -31.6609 -31.6516 -31.6253 -31.6120 -31.5889 -31.5135
   -11.8579  -4.9849  -3.7958  -2.3056  -2.0550  -1.3214  -1.1661  -1.0612
    -0.9333  -0.7796  -0.7501  -0.5633  -0.5474  -0.2359   0.2123   0.2319
     0.2953   0.3851   0.4315   1.0135   1.1697   1.2230   1.5007   1.7366
     1.8409   1.8874   2.0655   2.1488   2.4086   2.5180   2.5416   2.5890
     2.6112   2.6726   2.7429   2.7977   2.8904   3.0073   3.1018   3.2293
     3.2948   3.3641   3.6433

          k = 0.0558-0.1289 0.0000 ( 19521 PWs)   bands (ev):

   -65.7364 -65.6863 -65.6742 -65.6580 -65.6338 -65.6191 -65.6071 -65.5907
   -65.5350 -65.4954 -65.4827 -65.4702 -32.3695 -32.2896 -32.2722 -32.2459
   -32.2372 -32.2241 -32.1877 -32.1752 -32.1436 -32.1351 -32.1096 -32.0920
   -32.0848 -32.0365 -32.0262 -31.9764 -31.9430 -31.9044 -31.8905 -31.8749
   -31.8643 -31.8554 -31.8128 -31.7867 -31.7804 -31.7552 -31.7140 -31.7052
   -31.6940 -31.6843 -31.6548 -31.6471 -31.6413 -31.6282 -31.5944 -31.5492
   -11.8567  -4.9427  -3.2423  -2.3234  -1.8083  -1.4918  -1.2170  -0.9590
    -0.8481  -0.5896  -0.4936  -0.2016  -0.0959   0.0035   0.4594   0.5878
     0.6485   0.6755   0.7569   1.0881   1.1623   1.2054   1.2596   1.4841
     1.5708   1.6074   1.7784   1.8370   1.9249   2.0096   2.1525   2.2351
     2.2628   2.3526   2.5025   2.5830   2.7522   2.8523   2.9968   3.1213
     3.3177   3.4246   3.7393

          k = 0.0558-0.0967 0.0000 ( 19521 PWs)   bands (ev):

   -65.7350 -65.6824 -65.6801 -65.6575 -65.6239 -65.6232 -65.6143 -65.5892
   -65.5337 -65.4906 -65.4898 -65.4692 -32.3599 -32.2522 -32.2411 -32.2124
   -32.2021 -32.1967 -32.1733 -32.1548 -32.1528 -32.0979 -32.0925 -32.0810
   -32.0658 -32.0451 -32.0430 -31.9991 -31.9953 -31.9945 -31.8899 -31.8643
   -31.8638 -31.8544 -31.8406 -31.7984 -31.7972 -31.7509 -31.7073 -31.7049
   -31.6968 -31.6924 -31.6578 -31.6538 -31.6489 -31.6115 -31.6092 -31.5987
   -11.8561  -4.9260  -2.4338  -2.4265  -2.3221  -1.2995  -1.2853  -0.9309
    -0.7310  -0.7154   0.2068   0.2185   0.2593   0.3183   0.3322   0.3733
     0.9095   0.9432   0.9849   0.9973   1.0123   1.0918   1.1247   1.1560
     1.3757   1.3781   1.3927   1.8368   1.8412   1.8568   1.9709   1.9791
     2.0383   2.0578   2.4197   2.4906   2.5022   2.6465   3.3170   3.3634
     3.4064   3.6407   3.6970

          k = 0.0558-0.0645 0.0000 ( 19521 PWs)   bands (ev):

   -65.7363 -65.6878 -65.6719 -65.6590 -65.6338 -65.6189 -65.6073 -65.5907
   -65.5350 -65.4949 -65.4835 -65.4699 -32.3694 -32.2888 -32.2728 -32.2458
   -32.2371 -32.2243 -32.1876 -32.1751 -32.1437 -32.1355 -32.1092 -32.0923
   -32.0849 -32.0365 -32.0270 -31.9764 -31.9424 -31.9045 -31.8906 -31.8748
   -31.8642 -31.8553 -31.8126 -31.7859 -31.7801 -31.7555 -31.7142 -31.7053
   -31.6943 -31.6842 -31.6549 -31.6470 -31.6415 -31.6282 -31.5946 -31.5491
   -11.8567  -4.9426  -3.2424  -2.3234  -1.8083  -1.4918  -1.2169  -0.9590
    -0.8481  -0.5896  -0.4935  -0.2016  -0.0959   0.0034   0.4594   0.5879
     0.6485   0.6755   0.7570   1.0880   1.1623   1.2056   1.2596   1.4841
     1.5707   1.6075   1.7784   1.8369   1.9249   2.0096   2.1525   2.2352
     2.2628   2.3526   2.5025   2.5828   2.7523   2.8522   2.9970   3.1211
     3.3177   3.4246   3.7392

          k =-0.0837 0.0483 0.0000 ( 19532 PWs)   bands (ev):

   -65.7361 -65.6895 -65.6686 -65.6609 -65.6310 -65.6250 -65.6018 -65.5929
   -65.5349 -65.4962 -65.4814 -65.4708 -32.3684 -32.2943 -32.2736 -32.2529
   -32.2453 -32.2375 -32.1800 -32.1714 -32.1543 -32.1394 -32.1128 -32.0966
   -32.0295 -32.0139 -31.9614 -31.9534 -31.9470 -31.9324 -31.9299 -31.9262
   -31.8562 -31.8460 -31.8151 -31.7927 -31.7737 -31.7698 -31.7558 -31.7091
   -31.6822 -31.6623 -31.6593 -31.6524 -31.6502 -31.6389 -31.5607 -31.5415
   -11.8567  -4.9411  -2.9855  -2.8772  -1.7131  -1.4704  -0.9291  -0.9015
    -0.6661  -0.6230  -0.4826  -0.3204  -0.2982  -0.2450   0.5864   0.5991
     0.8168   0.8308   0.8351   0.8969   1.2085   1.3634   1.4084   1.4582
     1.4772   1.5029   1.8265   1.9076   2.0211   2.0513   2.0685   2.2545
     2.3006   2.4062   2.4179   2.4400   2.8359   2.8448   2.9418   2.9427
     3.1591   3.2927   3.8841

          k =-0.0837 0.0806 0.0000 ( 19521 PWs)   bands (ev):

   -65.7363 -65.6879 -65.6719 -65.6590 -65.6338 -65.6188 -65.6073 -65.5907
   -65.5350 -65.4949 -65.4835 -65.4699 -32.3694 -32.2888 -32.2729 -32.2457
   -32.2371 -32.2243 -32.1876 -32.1751 -32.1437 -32.1355 -32.1092 -32.0923
   -32.0849 -32.0365 -32.0271 -31.9764 -31.9424 -31.9044 -31.8906 -31.8748
   -31.8642 -31.8553 -31.8126 -31.7859 -31.7801 -31.7555 -31.7142 -31.7053
   -31.6943 -31.6842 -31.6549 -31.6470 -31.6415 -31.6282 -31.5946 -31.5491
   -11.8567  -4.9426  -3.2424  -2.3234  -1.8083  -1.4918  -1.2169  -0.9590
    -0.8481  -0.5896  -0.4935  -0.2016  -0.0959   0.0034   0.4594   0.5879
     0.6485   0.6755   0.7570   1.0880   1.1623   1.2056   1.2596   1.4841
     1.5707   1.6075   1.7784   1.8369   1.9249   2.0096   2.1525   2.2352
     2.2628   2.3526   2.5025   2.5828   2.7523   2.8522   2.9970   3.1211
     3.3177   3.4245   3.7392

          k =-0.0837 0.1128 0.0000 ( 19521 PWs)   bands (ev):

   -65.7364 -65.6869 -65.6734 -65.6584 -65.6338 -65.6190 -65.6071 -65.5907
   -65.5350 -65.4952 -65.4830 -65.4701 -32.3694 -32.2895 -32.2725 -32.2455
   -32.2373 -32.2241 -32.1873 -32.1753 -32.1435 -32.1355 -32.1094 -32.0921
   -32.0846 -32.0365 -32.0274 -31.9764 -31.9418 -31.9044 -31.8906 -31.8748
   -31.8642 -31.8557 -31.8126 -31.7866 -31.7804 -31.7553 -31.7140 -31.7051
   -31.6943 -31.6842 -31.6546 -31.6471 -31.6416 -31.6281 -31.5944 -31.5492
   -11.8567  -4.9426  -3.2423  -2.3233  -1.8083  -1.4917  -1.2169  -0.9591
    -0.8480  -0.5896  -0.4935  -0.2016  -0.0959   0.0035   0.4594   0.5878
     0.6484   0.6756   0.7570   1.0881   1.1622   1.2054   1.2597   1.4841
     1.5707   1.6075   1.7784   1.8370   1.9250   2.0096   2.1524   2.2351
     2.2628   2.3527   2.5025   2.5827   2.7523   2.8523   2.9970   3.1213
     3.3176   3.4246   3.7392

          k =-0.0837-0.0483 0.0000 ( 19532 PWs)   bands (ev):

   -65.7363 -65.6879 -65.6718 -65.6591 -65.6308 -65.6253 -65.6015 -65.5930
   -65.5348 -65.4967 -65.4805 -65.4713 -32.3685 -32.2956 -32.2729 -32.2526
   -32.2447 -32.2381 -32.1795 -32.1717 -32.1544 -32.1391 -32.1136 -32.0960
   -32.0297 -32.0128 -31.9601 -31.9535 -31.9470 -31.9332 -31.9317 -31.9256
   -31.8558 -31.8465 -31.8152 -31.7929 -31.7730 -31.7701 -31.7575 -31.7079
   -31.6823 -31.6623 -31.6593 -31.6524 -31.6496 -31.6392 -31.5602 -31.5420
   -11.8567  -4.9411  -2.9852  -2.8775  -1.7128  -1.4707  -0.9293  -0.9014
    -0.6659  -0.6231  -0.4828  -0.3202  -0.2983  -0.2449   0.5862   0.5993
     0.8165   0.8308   0.8354   0.8970   1.2085   1.3634   1.4083   1.4583
     1.4768   1.5033   1.8266   1.9077   2.0210   2.0512   2.0686   2.2544
     2.3005   2.4061   2.4179   2.4399   2.8360   2.8448   2.9418   2.9427
     3.1593   3.2927   3.8841

     the Fermi energy is     2.6605 ev

!    total energy              =   -1743.90619406 Ry
     Harris-Foulkes estimate   =   -1743.90618084 Ry
     estimated scf accuracy    <       0.00000706 Ry

     The total energy is the sum of the following terms:

     one-electron contribution =  -11580.07769893 Ry
     hartree contribution      =    5777.72870008 Ry
     xc contribution           =    -532.34757817 Ry
     ewald contribution        =    4590.89775476 Ry
     electric field correction =       0.00032177 Ry
     smearing contrib. (-TS)   =      -0.10769357 Ry

     convergence has been achieved in  13 iterations
 
 BEEF-vdW xc energy contributions
           1 :   -468.389160902682     
           2 :    431.978172208706     
           3 :   -368.500877816965     
           4 :    292.710467227029     
           5 :   -219.331872242625     
           6 :    158.586359612921     
           7 :   -114.180336815220     
           8 :    84.1194295578371     
           9 :   -63.4499493224237     
          10 :    47.3355162495646     
          11 :   -33.0399053095496     
          12 :    20.2140957609981     
          13 :   -9.85327776398339     
          14 :    2.86151067437254     
          15 :   0.880827114672229     
          16 :   -2.54716875656658     
          17 :    3.67714125242048     
          18 :   -5.31787983422117     
          19 :    7.54353269589069     
          20 :   -9.60438080459977     
          21 :    10.5567647652674     
          22 :   -9.95168163469606     
          23 :    8.15965795395510     
          24 :   -6.16137363512865     
          25 :    4.96992211117970     
          26 :   -5.06087812475681     
          27 :    6.15078197021546     
          28 :   -7.42831285690130     
          29 :    8.06473209593241     
          30 :   -7.68039535045335     
          31 :   -42.0711673433588     
          32 :   -31.1593606372567     

     Forces acting on atoms (Ry/au):


     negative rho (up, down):  1.175E+00 0.000E+00
     atom    1 type  1   force =    -0.00096707   -0.00060461    0.00333074
     atom    2 type  1   force =     0.00096402   -0.00055737    0.00331883
     atom    3 type  1   force =     0.00003744    0.00113750    0.00332572
     atom    4 type  1   force =    -0.00004640    0.00003172    0.00168176
     atom    5 type  1   force =    -0.00009692    0.00230274   -0.00198207
     atom    6 type  1   force =     0.00009721   -0.00006614    0.00526907
     atom    7 type  1   force =    -0.00203996   -0.00106380   -0.00198035
     atom    8 type  1   force =     0.00203899   -0.00117605   -0.00183911
     atom    9 type  1   force =     0.00003492   -0.00002549    0.02884460
     atom   10 type  1   force =    -0.00002870    0.00366383   -0.02210973
     atom   11 type  1   force =     0.00319948   -0.00183807   -0.02193978
     atom   12 type  1   force =    -0.00319321   -0.00180356   -0.02210692
     atom   13 type  2   force =    -0.00000055   -0.00000067   -0.09683492
     atom   14 type  3   force =     0.00000076   -0.00000004    0.12302216

     Total force =     0.163838     Total SCF correction =     0.007039


     entering subroutine stress ...


     negative rho (up, down):  1.175E+00 0.000E+00
          total   stress  (Ry/bohr**3)                   (kbar)     P=  -26.76
  -0.00027952   0.00000004   0.00000000        -41.12      0.01      0.00
   0.00000004  -0.00027947  -0.00000000          0.01    -41.11     -0.00
   0.00000000  -0.00000000   0.00001325          0.00     -0.00      1.95


     BFGS Geometry Optimization

     number of scf cycles    =   1
     number of bfgs steps    =   0

     energy   new            =   -1743.9061940556 Ry

     new trust radius        =       0.1230221644 bohr
     new conv_thr            =       0.0000099958 Ry


ATOMIC_POSITIONS (crystal)
Ta1      0.166666667   0.166666667   0.401991699    0   0   0
Ta1      0.666666667   0.166666667   0.401991699    0   0   0
Ta1      0.166666667   0.666666667   0.401991699    0   0   0
Ta1      0.666666667   0.666666667   0.401991699    0   0   0
Ta1      0.833333333   0.333333333   0.500000000    0   0   0
Ta1      0.333333333   0.333333333   0.500000000    0   0   0
Ta1      0.833333333   0.833333333   0.500000000    0   0   0
Ta1      0.333333333   0.833333333   0.500000000    0   0   0
Ta1      0.000004399  -0.000002608   0.598621898
Ta1      0.499810020   0.000374873   0.597537973
Ta1      0.000377537   0.499811934   0.597541588
Ta1      0.499809319   0.499815465   0.597538032
S1      -0.000000015  -0.000000068   0.689913942
H1       0.000000069  -0.000000004   0.744839810



     Writing output data file calc.save
     Check: negative starting charge=   -1.121525
     NEW-OLD atomic charge density approx. for the potential
     Check: negative starting charge=   -1.121150

     negative rho (up, down):  1.175E+00 0.000E+00
 
     Adding external electric field

     Computed dipole along edir(3) : 
        Dipole                0.3643 Ry au,          0.9260 Debye
        Dipole field          0.0009 Ry au
 
        Potential amp.       -0.0809 Ry
        Total length         45.8339 bohr
 

     total cpu time spent up to now is      373.1 secs

     Self-consistent Calculation

     iteration #  1     ecut=    36.75 Ry     beta=0.30
     Davidson diagonalization with overlap
     ethr =  1.00E-06,  avg # of iterations = 10.7

     negative rho (up, down):  1.175E+00 0.000E+00
 
     Adding external electric field

     Computed dipole along edir(3) : 
        Dipole                0.6360 Ry au,          1.6165 Debye
        Dipole field          0.0015 Ry au
 
        Potential amp.       -0.1413 Ry
        Total length         45.8339 bohr
 

     total cpu time spent up to now is      406.8 secs

     total energy              =   -1743.90909419 Ry
     Harris-Foulkes estimate   =   -1743.91719382 Ry
     estimated scf accuracy    <       0.01942202 Ry

     iteration #  2     ecut=    36.75 Ry     beta=0.30
     Davidson diagonalization with overlap
     ethr =  1.19E-05,  avg # of iterations =  5.5

     negative rho (up, down):  1.175E+00 0.000E+00
 
     Adding external electric field

     Computed dipole along edir(3) : 
        Dipole                0.4242 Ry au,          1.0782 Debye
        Dipole field          0.0010 Ry au
 
        Potential amp.       -0.0942 Ry
        Total length         45.8339 bohr
 

     total cpu time spent up to now is      429.7 secs

     total energy              =   -1743.88536182 Ry
     Harris-Foulkes estimate   =   -1743.93358797 Ry
     estimated scf accuracy    <       1.60053814 Ry

     iteration #  3     ecut=    36.75 Ry     beta=0.30
     Davidson diagonalization with overlap
     ethr =  1.19E-05,  avg # of iterations =  6.0

     negative rho (up, down):  1.175E+00 0.000E+00
 
     Adding external electric field

     Computed dipole along edir(3) : 
        Dipole                0.4452 Ry au,          1.1316 Debye
        Dipole field          0.0011 Ry au
 
        Potential amp.       -0.0989 Ry
        Total length         45.8339 bohr
 

     total cpu time spent up to now is      450.9 secs

     total energy              =   -1743.90360548 Ry
     Harris-Foulkes estimate   =   -1743.92433996 Ry
     estimated scf accuracy    <       0.75180168 Ry

     iteration #  4     ecut=    36.75 Ry     beta=0.30
     Davidson diagonalization with overlap
     ethr =  1.19E-05,  avg # of iterations =  4.8

     negative rho (up, down):  1.175E+00 0.000E+00
 
     Adding external electric field

     Computed dipole along edir(3) : 
        Dipole                0.4082 Ry au,          1.0375 Debye
        Dipole field          0.0010 Ry au
 
        Potential amp.       -0.0907 Ry
        Total length         45.8339 bohr
 

     total cpu time spent up to now is      470.8 secs

     total energy              =   -1743.91284113 Ry
     Harris-Foulkes estimate   =   -1743.91700694 Ry
     estimated scf accuracy    <       0.04040095 Ry

     iteration #  5     ecut=    36.75 Ry     beta=0.30
     Davidson diagonalization with overlap
     ethr =  1.19E-05,  avg # of iterations =  2.6

     negative rho (up, down):  1.175E+00 0.000E+00
 
     Adding external electric field

     Computed dipole along edir(3) : 
        Dipole                0.4135 Ry au,          1.0511 Debye
        Dipole field          0.0010 Ry au
 
        Potential amp.       -0.0919 Ry
        Total length         45.8339 bohr
 

     total cpu time spent up to now is      490.2 secs

     total energy              =   -1743.91478720 Ry
     Harris-Foulkes estimate   =   -1743.91489518 Ry
     estimated scf accuracy    <       0.00068458 Ry

     iteration #  6     ecut=    36.75 Ry     beta=0.30
     Davidson diagonalization with overlap
     ethr =  4.20E-07,  avg # of iterations =  5.2

     negative rho (up, down):  1.175E+00 0.000E+00
 
     Adding external electric field

     Computed dipole along edir(3) : 
        Dipole                0.4076 Ry au,          1.0361 Debye
        Dipole field          0.0010 Ry au
 
        Potential amp.       -0.0906 Ry
        Total length         45.8339 bohr
 

     total cpu time spent up to now is      512.3 secs

     total energy              =   -1743.91492660 Ry
     Harris-Foulkes estimate   =   -1743.91498904 Ry
     estimated scf accuracy    <       0.00037852 Ry

     iteration #  7     ecut=    36.75 Ry     beta=0.30
     Davidson diagonalization with overlap
     ethr =  2.32E-07,  avg # of iterations =  3.3

     negative rho (up, down):  1.175E+00 0.000E+00
 
     Adding external electric field

     Computed dipole along edir(3) : 
        Dipole                0.4027 Ry au,          1.0236 Debye
        Dipole field          0.0010 Ry au
 
        Potential amp.       -0.0895 Ry
        Total length         45.8339 bohr
 

     total cpu time spent up to now is      530.9 secs

     total energy              =   -1743.91494745 Ry
     Harris-Foulkes estimate   =   -1743.91496690 Ry
     estimated scf accuracy    <       0.00011548 Ry

     iteration #  8     ecut=    36.75 Ry     beta=0.30
     Davidson diagonalization with overlap
     ethr =  7.08E-08,  avg # of iterations =  3.2

     negative rho (up, down):  1.175E+00 0.000E+00
 
     Adding external electric field

     Computed dipole along edir(3) : 
        Dipole                0.4021 Ry au,          1.0220 Debye
        Dipole field          0.0010 Ry au
 
        Potential amp.       -0.0893 Ry
        Total length         45.8339 bohr
 

     total cpu time spent up to now is      551.4 secs

     total energy              =   -1743.91244146 Ry
     Harris-Foulkes estimate   =   -1743.91496168 Ry
     estimated scf accuracy    <       0.00002587 Ry

     iteration #  9     ecut=    36.75 Ry     beta=0.30
     Davidson diagonalization with overlap
     ethr =  1.59E-08,  avg # of iterations =  3.5

     negative rho (up, down):  1.175E+00 0.000E+00
 
     Adding external electric field

     Computed dipole along edir(3) : 
        Dipole                0.4022 Ry au,          1.0222 Debye
        Dipole field          0.0010 Ry au
 
        Potential amp.       -0.0893 Ry
        Total length         45.8339 bohr
 

     total cpu time spent up to now is      572.6 secs

     total energy              =   -1743.91496289 Ry
     Harris-Foulkes estimate   =   -1743.91244363 Ry
     estimated scf accuracy    <       0.00001281 Ry

     iteration # 10     ecut=    36.75 Ry     beta=0.30
     Davidson diagonalization with overlap
     ethr =  7.86E-09,  avg # of iterations =  2.8

     negative rho (up, down):  1.175E+00 0.000E+00

     negative rho (up, down):  1.175E+00 0.000E+00

     negative rho (up, down):  1.175E+00 0.000E+00

     negative rho (up, down):  1.175E+00 0.000E+00

     negative rho (up, down):  1.175E+00 0.000E+00

     negative rho (up, down):  1.175E+00 0.000E+00

     negative rho (up, down):  1.175E+00 0.000E+00

     negative rho (up, down):  1.175E+00 0.000E+00

     negative rho (up, down):  1.175E+00 0.000E+00

     negative rho (up, down):  1.175E+00 0.000E+00

     negative rho (up, down):  1.175E+00 0.000E+00

     negative rho (up, down):  1.175E+00 0.000E+00

     negative rho (up, down):  1.175E+00 0.000E+00

     negative rho (up, down):  1.175E+00 0.000E+00

     negative rho (up, down):  1.175E+00 0.000E+00

     negative rho (up, down):  1.175E+00 0.000E+00

     negative rho (up, down):  1.175E+00 0.000E+00

     negative rho (up, down):  1.175E+00 0.000E+00

     negative rho (up, down):  1.175E+00 0.000E+00

     negative rho (up, down):  1.175E+00 0.000E+00

     negative rho (up, down):  1.175E+00 0.000E+00

     negative rho (up, down):  1.175E+00 0.000E+00

     negative rho (up, down):  1.175E+00 0.000E+00

     negative rho (up, down):  1.175E+00 0.000E+00

     negative rho (up, down):  1.175E+00 0.000E+00

     negative rho (up, down):  1.175E+00 0.000E+00

     negative rho (up, down):  1.175E+00 0.000E+00

     negative rho (up, down):  1.175E+00 0.000E+00

     negative rho (up, down):  1.175E+00 0.000E+00

     negative rho (up, down):  1.175E+00 0.000E+00

     negative rho (up, down):  1.175E+00 0.000E+00

     negative rho (up, down):  1.175E+00 0.000E+00

     negative rho (up, down):  1.175E+00 0.000E+00

     negative rho (up, down):  1.175E+00 0.000E+00

     negative rho (up, down):  1.175E+00 0.000E+00
 
     Adding external electric field

     Computed dipole along edir(3) : 
        Dipole                0.4037 Ry au,          1.0260 Debye
        Dipole field          0.0010 Ry au
 
        Potential amp.       -0.0897 Ry
        Total length         45.8339 bohr
 

     total cpu time spent up to now is      640.3 secs

     End of self-consistent calculation

          k = 0.0000 0.0000 0.0000 ( 19447 PWs)   bands (ev):

   -65.6690 -65.6193 -65.5979 -65.5979 -65.5969 -65.5409 -65.5408 -65.5341
   -65.4832 -65.4378 -65.4154 -65.4153 -32.3784 -32.3629 -32.3628 -32.3188
   -32.2949 -32.2919 -32.2919 -32.2413 -32.2412 -32.2340 -32.1179 -32.0356
   -31.9752 -31.9752 -31.8726 -31.8726 -31.8715 -31.7831 -31.7560 -31.7560
   -31.6901 -31.6877 -31.6877 -31.6610 -31.6321 -31.6320 -31.6033 -31.5810
   -31.5809 -31.5658 -31.5554 -31.5554 -31.5057 -31.5057 -31.4202 -31.4202
   -11.5897  -5.0941  -4.4166  -3.0379  -2.0918  -1.4828  -1.4828  -1.3357
    -1.2385  -1.2385  -1.1280  -0.8421  -0.8420  -0.5437  -0.5437  -0.4785
    -0.2234  -0.1435  -0.1435   0.9365   1.2089   1.2089   2.0790   2.1845
     2.3572   2.3572   2.4334   2.6499   2.7790   2.7790   2.8462   3.0734
     3.0735   3.3532   3.3532   3.4319   3.4319   3.4326   3.4330   3.5240
     3.5240   3.6437   3.8983

          k = 0.0000 0.0322 0.0000 ( 19481 PWs)   bands (ev):

   -65.6658 -65.6201 -65.6003 -65.5979 -65.5930 -65.5438 -65.5409 -65.5350
   -65.4807 -65.4382 -65.4175 -65.4154 -32.3659 -32.3369 -32.3250 -32.2879
   -32.2753 -32.2697 -32.2614 -32.2161 -32.2116 -32.1935 -32.1110 -32.0385
   -31.9932 -31.9847 -31.8700 -31.8655 -31.8625 -31.8048 -31.7842 -31.7497
   -31.7292 -31.7263 -31.6769 -31.6541 -31.6371 -31.6223 -31.6215 -31.6043
   -31.5957 -31.5882 -31.5802 -31.5536 -31.5372 -31.5183 -31.4680 -31.4296
   -11.5883  -4.9916  -4.2689  -2.8245  -1.8513  -1.5310  -1.3608  -1.2653
    -1.1677  -1.0820  -0.9769  -0.8500  -0.7899  -0.4117  -0.2888  -0.2582
    -0.0830  -0.0119  -0.0072   0.9831   1.2063   1.2249   1.9651   2.1796
     2.3284   2.3951   2.3978   2.5275   2.5357   2.6457   2.6702   2.8957
     3.1774   3.2255   3.2780   3.2915   3.3520   3.3711   3.4470   3.4980
     3.5109   3.6252   3.6573

          k = 0.0000 0.0645 0.0000 ( 19517 PWs)   bands (ev):

   -65.6578 -65.6233 -65.6051 -65.5979 -65.5826 -65.5537 -65.5409 -65.5357
   -65.4748 -65.4395 -65.4221 -65.4154 -32.3376 -32.2725 -32.2490 -32.2347
   -32.2179 -32.2053 -32.1827 -32.1551 -32.1490 -32.0911 -32.0758 -32.0420
   -32.0165 -32.0113 -31.8666 -31.8611 -31.8511 -31.8489 -31.8334 -31.7912
   -31.7900 -31.7722 -31.7190 -31.7126 -31.6689 -31.6659 -31.6468 -31.6249
   -31.6150 -31.6047 -31.6011 -31.5945 -31.5654 -31.5524 -31.5300 -31.4558
   -11.5854  -4.8491  -3.7364  -2.2596  -1.9987  -1.3191  -1.1389  -1.1175
    -0.9259  -0.7684  -0.7618  -0.5187  -0.5153  -0.1964   0.2622   0.2828
     0.3458   0.4365   0.4866   1.0672   1.2307   1.2757   1.5550   1.7809
     1.8934   1.9410   2.1101   2.2067   2.4529   2.5610   2.5921   2.6443
     2.6772   2.7368   2.7909   2.8568   2.9486   3.0724   3.1851   3.2836
     3.3407   3.4566   3.6985

          k = 0.0000-0.0967 0.0000 ( 19532 PWs)   bands (ev):

   -65.6524 -65.6267 -65.6072 -65.5979 -65.5701 -65.5661 -65.5409 -65.5358
   -65.4713 -65.4407 -65.4244 -65.4154 -32.3206 -32.2275 -32.2170 -32.1957
   -32.1879 -32.1812 -32.1206 -32.1124 -32.0957 -32.0805 -32.0550 -32.0373
   -31.9557 -31.9543 -31.9026 -31.8919 -31.8884 -31.8743 -31.8703 -31.8631
   -31.7945 -31.7884 -31.7523 -31.7354 -31.7162 -31.7141 -31.6886 -31.6497
   -31.6202 -31.6025 -31.5998 -31.5927 -31.5911 -31.5797 -31.4999 -31.4857
   -11.5840  -4.8033  -2.9348  -2.8166  -1.6985  -1.4134  -1.0592  -0.9612
    -0.6115  -0.5859  -0.4350  -0.2678  -0.2671  -0.2054   0.6358   0.6497
     0.8762   0.8762   0.8813   0.9537   1.2547   1.4175   1.4530   1.5166
     1.5301   1.5645   1.8631   1.9407   2.0842   2.1089   2.1256   2.3073
     2.3547   2.4567   2.4921   2.4951   2.8906   2.9280   2.9991   3.0089
     3.2196   3.3911   3.9431

          k = 0.0279-0.0161 0.0000 ( 19481 PWs)   bands (ev):

   -65.6658 -65.6201 -65.6003 -65.5979 -65.5930 -65.5439 -65.5408 -65.5350
   -65.4807 -65.4382 -65.4175 -65.4153 -32.3659 -32.3368 -32.3251 -32.2879
   -32.2753 -32.2697 -32.2614 -32.2161 -32.2116 -32.1935 -32.1110 -32.0385
   -31.9933 -31.9846 -31.8700 -31.8655 -31.8625 -31.8048 -31.7842 -31.7497
   -31.7293 -31.7263 -31.6769 -31.6541 -31.6371 -31.6223 -31.6216 -31.6043
   -31.5957 -31.5882 -31.5802 -31.5536 -31.5372 -31.5183 -31.4680 -31.4296
   -11.5883  -4.9916  -4.2689  -2.8245  -1.8513  -1.5310  -1.3608  -1.2653
    -1.1677  -1.0820  -0.9769  -0.8500  -0.7899  -0.4117  -0.2888  -0.2582
    -0.0830  -0.0119  -0.0073   0.9831   1.2063   1.2249   1.9651   2.1796
     2.3284   2.3951   2.3978   2.5275   2.5356   2.6457   2.6702   2.8957
     3.1774   3.2254   3.2780   3.2915   3.3521   3.3711   3.4470   3.4980
     3.5109   3.6252   3.6573

          k = 0.0279 0.0161 0.0000 ( 19481 PWs)   bands (ev):

   -65.6658 -65.6201 -65.6004 -65.5979 -65.5930 -65.5438 -65.5409 -65.5350
   -65.4807 -65.4382 -65.4175 -65.4154 -32.3659 -32.3369 -32.3250 -32.2879
   -32.2753 -32.2697 -32.2614 -32.2161 -32.2116 -32.1935 -32.1110 -32.0385
   -31.9933 -31.9846 -31.8700 -31.8655 -31.8625 -31.8048 -31.7842 -31.7497
   -31.7292 -31.7263 -31.6769 -31.6541 -31.6371 -31.6223 -31.6215 -31.6043
   -31.5957 -31.5882 -31.5802 -31.5536 -31.5372 -31.5183 -31.4680 -31.4296
   -11.5883  -4.9916  -4.2689  -2.8245  -1.8513  -1.5310  -1.3608  -1.2653
    -1.1677  -1.0820  -0.9769  -0.8500  -0.7899  -0.4117  -0.2888  -0.2582
    -0.0830  -0.0119  -0.0072   0.9831   1.2063   1.2249   1.9651   2.1796
     2.3284   2.3951   2.3978   2.5275   2.5357   2.6457   2.6702   2.8957
     3.1774   3.2255   3.2780   3.2915   3.3520   3.3711   3.4470   3.4980
     3.5109   3.6252   3.6573

          k = 0.0279 0.0483 0.0000 ( 19485 PWs)   bands (ev):

   -65.6601 -65.6217 -65.6051 -65.5972 -65.5859 -65.5481 -65.5447 -65.5341
   -65.4765 -65.4388 -65.4217 -65.4149 -32.3452 -32.2939 -32.2585 -32.2461
   -32.2312 -32.2253 -32.2133 -32.1807 -32.1397 -32.1295 -32.0971 -32.0433
   -32.0168 -32.0010 -31.8818 -31.8601 -31.8515 -31.8472 -31.8191 -31.7777
   -31.7544 -31.7292 -31.7007 -31.6973 -31.6757 -31.6675 -31.6312 -31.6193
   -31.6127 -31.6012 -31.5755 -31.5689 -31.5678 -31.5561 -31.5253 -31.4530
   -11.5861  -4.8781  -3.9183  -2.4247  -1.5561  -1.5202  -1.4233  -1.1787
    -1.0259  -0.8871  -0.8280  -0.5771  -0.5481  -0.1014  -0.0841   0.1903
     0.2296   0.2564   0.3115   1.0523   1.2087   1.2489   1.7298   1.9517
     2.0389   2.0831   2.1546   2.2667   2.4132   2.6146   2.7061   2.7540
     2.7786   2.8452   2.9130   2.9658   3.0746   3.2178   3.2684   3.3232
     3.5439   3.5833   3.6499

          k = 0.0279-0.1128 0.0000 ( 19521 PWs)   bands (ev):

   -65.6529 -65.6242 -65.6110 -65.5962 -65.5737 -65.5589 -65.5478 -65.5326
   -65.4715 -65.4390 -65.4271 -65.4142 -32.3214 -32.2243 -32.2163 -32.1875
   -32.1800 -32.1661 -32.1283 -32.1161 -32.0857 -32.0761 -32.0505 -32.0322
   -32.0218 -31.9766 -31.9637 -31.9166 -31.8794 -31.8461 -31.8304 -31.8141
   -31.8042 -31.7934 -31.7534 -31.7237 -31.7180 -31.6969 -31.6538 -31.6452
   -31.6345 -31.6257 -31.5940 -31.5874 -31.5829 -31.5685 -31.5355 -31.4918
   -11.5840  -4.8050  -3.1863  -2.2688  -1.7752  -1.4397  -1.2294  -1.0563
    -0.8775  -0.5467  -0.4787  -0.1526  -0.0438   0.0458   0.5089   0.6366
     0.6991   0.7288   0.8121   1.1393   1.2075   1.2559   1.3167   1.5363
     1.6246   1.6575   1.8202   1.8932   1.9768   2.0622   2.1930   2.2934
     2.3151   2.4059   2.5658   2.6561   2.8379   2.9142   3.0587   3.1949
     3.3719   3.4965   3.7908

          k = 0.0279-0.0806 0.0000 ( 19521 PWs)   bands (ev):

   -65.6529 -65.6242 -65.6109 -65.5962 -65.5737 -65.5590 -65.5477 -65.5326
   -65.4715 -65.4390 -65.4271 -65.4142 -32.3214 -32.2243 -32.2163 -32.1875
   -32.1800 -32.1661 -32.1283 -32.1161 -32.0857 -32.0761 -32.0505 -32.0322
   -32.0218 -31.9766 -31.9637 -31.9166 -31.8793 -31.8461 -31.8304 -31.8141
   -31.8042 -31.7934 -31.7533 -31.7237 -31.7180 -31.6969 -31.6538 -31.6452
   -31.6345 -31.6257 -31.5940 -31.5874 -31.5829 -31.5684 -31.5355 -31.4918
   -11.5840  -4.8050  -3.1863  -2.2688  -1.7752  -1.4397  -1.2294  -1.0563
    -0.8775  -0.5467  -0.4787  -0.1526  -0.0438   0.0458   0.5089   0.6366
     0.6991   0.7288   0.8121   1.1393   1.2075   1.2559   1.3167   1.5363
     1.6246   1.6576   1.8201   1.8932   1.9768   2.0622   2.1929   2.2934
     2.3151   2.4060   2.5658   2.6561   2.8379   2.9142   3.0587   3.1950
     3.3719   3.4965   3.7908

          k = 0.0279-0.0483 0.0000 ( 19485 PWs)   bands (ev):

   -65.6601 -65.6218 -65.6051 -65.5972 -65.5859 -65.5482 -65.5446 -65.5341
   -65.4765 -65.4387 -65.4217 -65.4148 -32.3452 -32.2939 -32.2585 -32.2460
   -32.2312 -32.2253 -32.2133 -32.1807 -32.1397 -32.1295 -32.0971 -32.0433
   -32.0168 -32.0010 -31.8818 -31.8602 -31.8514 -31.8472 -31.8191 -31.7777
   -31.7544 -31.7292 -31.7007 -31.6973 -31.6757 -31.6676 -31.6312 -31.6193
   -31.6126 -31.6013 -31.5755 -31.5689 -31.5678 -31.5561 -31.5253 -31.4530
   -11.5861  -4.8781  -3.9183  -2.4247  -1.5561  -1.5202  -1.4233  -1.1787
    -1.0259  -0.8871  -0.8280  -0.5771  -0.5482  -0.1015  -0.0841   0.1903
     0.2296   0.2564   0.3115   1.0523   1.2087   1.2489   1.7298   1.9518
     2.0389   2.0831   2.1545   2.2667   2.4132   2.6146   2.7061   2.7540
     2.7786   2.8452   2.9130   2.9657   3.0746   3.2178   3.2684   3.3233
     3.5439   3.5833   3.6499

          k = 0.0558-0.0322 0.0000 ( 19517 PWs)   bands (ev):

   -65.6578 -65.6234 -65.6051 -65.5979 -65.5826 -65.5538 -65.5408 -65.5357
   -65.4748 -65.4395 -65.4221 -65.4153 -32.3376 -32.2725 -32.2490 -32.2347
   -32.2179 -32.2053 -32.1826 -32.1552 -32.1489 -32.0911 -32.0758 -32.0420
   -32.0165 -32.0113 -31.8666 -31.8611 -31.8511 -31.8489 -31.8334 -31.7913
   -31.7899 -31.7722 -31.7190 -31.7126 -31.6689 -31.6659 -31.6467 -31.6249
   -31.6151 -31.6047 -31.6010 -31.5945 -31.5654 -31.5524 -31.5300 -31.4558
   -11.5854  -4.8491  -3.7364  -2.2596  -1.9987  -1.3191  -1.1389  -1.1174
    -0.9259  -0.7684  -0.7618  -0.5187  -0.5153  -0.1965   0.2622   0.2828
     0.3458   0.4365   0.4866   1.0672   1.2308   1.2757   1.5550   1.7810
     1.8934   1.9410   2.1101   2.2067   2.4528   2.5611   2.5920   2.6443
     2.6772   2.7368   2.7909   2.8568   2.9487   3.0724   3.1853   3.2835
     3.3407   3.4567   3.6985

          k = 0.0558 0.0000 0.0000 ( 19485 PWs)   bands (ev):

   -65.6601 -65.6218 -65.6051 -65.5972 -65.5859 -65.5482 -65.5446 -65.5341
   -65.4765 -65.4388 -65.4217 -65.4148 -32.3452 -32.2939 -32.2585 -32.2460
   -32.2312 -32.2253 -32.2133 -32.1807 -32.1397 -32.1295 -32.0971 -32.0433
   -32.0168 -32.0010 -31.8818 -31.8602 -31.8514 -31.8472 -31.8191 -31.7777
   -31.7544 -31.7292 -31.7007 -31.6973 -31.6757 -31.6676 -31.6312 -31.6193
   -31.6126 -31.6013 -31.5755 -31.5689 -31.5678 -31.5561 -31.5253 -31.4530
   -11.5861  -4.8781  -3.9183  -2.4247  -1.5561  -1.5202  -1.4233  -1.1787
    -1.0259  -0.8871  -0.8280  -0.5771  -0.5482  -0.1015  -0.0841   0.1903
     0.2296   0.2564   0.3115   1.0523   1.2087   1.2489   1.7298   1.9518
     2.0389   2.0831   2.1545   2.2667   2.4132   2.6146   2.7061   2.7540
     2.7786   2.8452   2.9130   2.9657   3.0746   3.2178   3.2684   3.3233
     3.5439   3.5833   3.6499

          k = 0.0558 0.0322 0.0000 ( 19517 PWs)   bands (ev):

   -65.6578 -65.6233 -65.6051 -65.5979 -65.5826 -65.5537 -65.5409 -65.5357
   -65.4748 -65.4395 -65.4221 -65.4154 -32.3376 -32.2725 -32.2490 -32.2346
   -32.2179 -32.2053 -32.1827 -32.1551 -32.1489 -32.0911 -32.0758 -32.0420
   -32.0165 -32.0113 -31.8666 -31.8611 -31.8511 -31.8489 -31.8334 -31.7912
   -31.7900 -31.7722 -31.7190 -31.7126 -31.6689 -31.6659 -31.6468 -31.6249
   -31.6150 -31.6047 -31.6011 -31.5945 -31.5654 -31.5524 -31.5300 -31.4558
   -11.5854  -4.8491  -3.7364  -2.2596  -1.9987  -1.3191  -1.1389  -1.1175
    -0.9259  -0.7684  -0.7618  -0.5187  -0.5153  -0.1964   0.2622   0.2828
     0.3458   0.4365   0.4865   1.0672   1.2307   1.2757   1.5550   1.7809
     1.8934   1.9410   2.1101   2.2067   2.4529   2.5610   2.5921   2.6443
     2.6772   2.7368   2.7909   2.8568   2.9486   3.0724   3.1851   3.2836
     3.3407   3.4566   3.6985

          k = 0.0558-0.1289 0.0000 ( 19521 PWs)   bands (ev):

   -65.6529 -65.6242 -65.6110 -65.5962 -65.5737 -65.5589 -65.5478 -65.5326
   -65.4715 -65.4390 -65.4271 -65.4142 -32.3214 -32.2243 -32.2163 -32.1875
   -32.1800 -32.1661 -32.1283 -32.1161 -32.0857 -32.0761 -32.0505 -32.0322
   -32.0218 -31.9766 -31.9637 -31.9166 -31.8794 -31.8461 -31.8304 -31.8141
   -31.8042 -31.7934 -31.7534 -31.7237 -31.7180 -31.6969 -31.6538 -31.6452
   -31.6345 -31.6257 -31.5940 -31.5874 -31.5829 -31.5684 -31.5355 -31.4918
   -11.5840  -4.8050  -3.1863  -2.2688  -1.7752  -1.4397  -1.2294  -1.0563
    -0.8775  -0.5467  -0.4787  -0.1526  -0.0438   0.0458   0.5089   0.6366
     0.6991   0.7288   0.8121   1.1393   1.2075   1.2559   1.3167   1.5363
     1.6246   1.6575   1.8202   1.8932   1.9768   2.0622   2.1930   2.2934
     2.3151   2.4059   2.5658   2.6561   2.8379   2.9142   3.0587   3.1949
     3.3719   3.4965   3.7908

          k = 0.0558-0.0967 0.0000 ( 19521 PWs)   bands (ev):

   -65.6502 -65.6199 -65.6191 -65.5950 -65.5630 -65.5626 -65.5566 -65.5308
   -65.4698 -65.4345 -65.4342 -65.4132 -32.3129 -32.1954 -32.1817 -32.1488
   -32.1465 -32.1359 -32.1153 -32.0958 -32.0945 -32.0355 -32.0317 -32.0229
   -32.0065 -31.9822 -31.9792 -31.9406 -31.9349 -31.9335 -31.8321 -31.8058
   -31.8011 -31.7949 -31.7830 -31.7334 -31.7316 -31.6929 -31.6473 -31.6450
   -31.6365 -31.6320 -31.5985 -31.5955 -31.5891 -31.5523 -31.5507 -31.5417
   -11.5833  -4.7881  -2.3843  -2.3735  -2.2596  -1.3361  -1.3195  -0.8682
    -0.7761  -0.7566   0.2496   0.2697   0.2955   0.3753   0.3778   0.4289
     0.9463   0.9994   1.0352   1.0489   1.0662   1.1322   1.1784   1.2077
     1.4232   1.4364   1.4480   1.8829   1.8912   1.9212   2.0214   2.0246
     2.0968   2.1081   2.4790   2.5532   2.5693   2.7565   3.3684   3.4277
     3.4888   3.7062   3.7245

          k = 0.0558-0.0645 0.0000 ( 19521 PWs)   bands (ev):

   -65.6529 -65.6242 -65.6109 -65.5962 -65.5736 -65.5590 -65.5477 -65.5326
   -65.4715 -65.4390 -65.4271 -65.4141 -32.3214 -32.2243 -32.2163 -32.1875
   -32.1800 -32.1662 -32.1283 -32.1161 -32.0857 -32.0761 -32.0504 -32.0322
   -32.0218 -31.9766 -31.9637 -31.9166 -31.8793 -31.8461 -31.8304 -31.8141
   -31.8042 -31.7934 -31.7533 -31.7237 -31.7180 -31.6970 -31.6538 -31.6453
   -31.6345 -31.6258 -31.5940 -31.5874 -31.5829 -31.5685 -31.5355 -31.4918
   -11.5840  -4.8050  -3.1863  -2.2688  -1.7752  -1.4397  -1.2294  -1.0563
    -0.8775  -0.5467  -0.4787  -0.1526  -0.0438   0.0457   0.5088   0.6366
     0.6991   0.7288   0.8122   1.1392   1.2075   1.2559   1.3167   1.5363
     1.6246   1.6576   1.8201   1.8932   1.9767   2.0621   2.1930   2.2934
     2.3151   2.4060   2.5658   2.6561   2.8380   2.9142   3.0587   3.1949
     3.3719   3.4965   3.7908

          k =-0.0837 0.0483 0.0000 ( 19532 PWs)   bands (ev):

   -65.6524 -65.6267 -65.6072 -65.5979 -65.5700 -65.5662 -65.5408 -65.5359
   -65.4713 -65.4407 -65.4245 -65.4153 -32.3206 -32.2275 -32.2170 -32.1958
   -32.1879 -32.1812 -32.1206 -32.1125 -32.0957 -32.0805 -32.0550 -32.0373
   -31.9557 -31.9542 -31.9025 -31.8920 -31.8883 -31.8744 -31.8703 -31.8631
   -31.7944 -31.7885 -31.7523 -31.7354 -31.7162 -31.7141 -31.6885 -31.6498
   -31.6202 -31.6025 -31.5998 -31.5927 -31.5911 -31.5797 -31.5000 -31.4857
   -11.5840  -4.8033  -2.9349  -2.8165  -1.6985  -1.4133  -1.0592  -0.9612
    -0.6115  -0.5859  -0.4350  -0.2679  -0.2671  -0.2054   0.6359   0.6497
     0.8762   0.8763   0.8812   0.9537   1.2547   1.4175   1.4530   1.5166
     1.5301   1.5645   1.8630   1.9406   2.0842   2.1089   2.1256   2.3073
     2.3546   2.4567   2.4921   2.4952   2.8906   2.9280   2.9991   3.0089
     3.2197   3.3911   3.9418

          k =-0.0837 0.0806 0.0000 ( 19521 PWs)   bands (ev):

   -65.6529 -65.6242 -65.6109 -65.5962 -65.5736 -65.5590 -65.5477 -65.5326
   -65.4715 -65.4390 -65.4271 -65.4141 -32.3214 -32.2243 -32.2163 -32.1875
   -32.1800 -32.1662 -32.1283 -32.1161 -32.0857 -32.0761 -32.0505 -32.0322
   -32.0218 -31.9766 -31.9637 -31.9166 -31.8793 -31.8461 -31.8304 -31.8141
   -31.8042 -31.7934 -31.7534 -31.7237 -31.7180 -31.6970 -31.6538 -31.6453
   -31.6345 -31.6258 -31.5940 -31.5874 -31.5829 -31.5685 -31.5355 -31.4918
   -11.5840  -4.8050  -3.1863  -2.2688  -1.7752  -1.4397  -1.2294  -1.0563
    -0.8775  -0.5467  -0.4787  -0.1526  -0.0438   0.0457   0.5088   0.6366
     0.6991   0.7288   0.8122   1.1392   1.2075   1.2559   1.3167   1.5363
     1.6246   1.6576   1.8201   1.8932   1.9767   2.0621   2.1930   2.2934
     2.3151   2.4060   2.5658   2.6561   2.8380   2.9142   3.0587   3.1949
     3.3719   3.4965   3.7908

          k =-0.0837 0.1128 0.0000 ( 19521 PWs)   bands (ev):

   -65.6529 -65.6242 -65.6110 -65.5962 -65.5737 -65.5590 -65.5477 -65.5326
   -65.4715 -65.4390 -65.4271 -65.4142 -32.3214 -32.2243 -32.2163 -32.1875
   -32.1800 -32.1661 -32.1283 -32.1161 -32.0857 -32.0761 -32.0505 -32.0322
   -32.0218 -31.9766 -31.9637 -31.9166 -31.8793 -31.8461 -31.8304 -31.8141
   -31.8042 -31.7934 -31.7534 -31.7237 -31.7180 -31.6969 -31.6538 -31.6452
   -31.6345 -31.6258 -31.5940 -31.5874 -31.5829 -31.5684 -31.5355 -31.4918
   -11.5840  -4.8050  -3.1863  -2.2688  -1.7752  -1.4397  -1.2294  -1.0563
    -0.8775  -0.5467  -0.4787  -0.1526  -0.0438   0.0458   0.5089   0.6365
     0.6991   0.7288   0.8121   1.1393   1.2075   1.2559   1.3167   1.5363
     1.6246   1.6576   1.8201   1.8932   1.9768   2.0622   2.1929   2.2934
     2.3151   2.4060   2.5658   2.6561   2.8379   2.9142   3.0587   3.1950
     3.3719   3.4965   3.7908

          k =-0.0837-0.0483 0.0000 ( 19532 PWs)   bands (ev):

   -65.6524 -65.6267 -65.6073 -65.5979 -65.5701 -65.5661 -65.5409 -65.5358
   -65.4713 -65.4407 -65.4244 -65.4154 -32.3206 -32.2275 -32.2170 -32.1957
   -32.1879 -32.1812 -32.1206 -32.1125 -32.0957 -32.0805 -32.0550 -32.0373
   -31.9557 -31.9543 -31.9025 -31.8920 -31.8884 -31.8744 -31.8703 -31.8631
   -31.7945 -31.7884 -31.7523 -31.7354 -31.7161 -31.7141 -31.6886 -31.6497
   -31.6202 -31.6025 -31.5998 -31.5927 -31.5911 -31.5797 -31.4999 -31.4857
   -11.5840  -4.8033  -2.9348  -2.8166  -1.6985  -1.4134  -1.0592  -0.9612
    -0.6115  -0.5859  -0.4350  -0.2678  -0.2671  -0.2054   0.6358   0.6497
     0.8762   0.8762   0.8813   0.9537   1.2547   1.4175   1.4530   1.5166
     1.5301   1.5645   1.8631   1.9407   2.0842   2.1089   2.1256   2.3073
     2.3547   2.4567   2.4921   2.4951   2.8906   2.9280   2.9991   3.0089
     3.2196   3.3911   3.9426

     the Fermi energy is     2.7203 ev

!    total energy              =   -1743.91496271 Ry
     Harris-Foulkes estimate   =   -1743.91496074 Ry
     estimated scf accuracy    <       0.00000218 Ry

     The total energy is the sum of the following terms:

     one-electron contribution =  -11598.22303663 Ry
     hartree contribution      =    5787.05837080 Ry
     xc contribution           =    -532.32028304 Ry
     ewald contribution        =    4599.67641980 Ry
     electric field correction =       0.00039492 Ry
     smearing contrib. (-TS)   =      -0.10682855 Ry

     convergence has been achieved in  10 iterations
 
 BEEF-vdW xc energy contributions
           1 :   -468.369772472124     
           2 :    431.979327941554     
           3 :   -368.527725509949     
           4 :    292.750569823391     
           5 :   -219.365102553627     
           6 :    158.598863919583     
           7 :   -114.172270052366     
           8 :    84.1022856512117     
           9 :   -63.4376666247914     
          10 :    47.3359281715504     
          11 :   -33.0515171795672     
          12 :    20.2286981363542     
          13 :   -9.86161622876841     
          14 :    2.85838983157248     
          15 :   0.894405605650093     
          16 :   -2.56547846227221     
          17 :    3.69369586208319     
          18 :   -5.32917732671768     
          19 :    7.55039978103548     
          20 :   -9.61033809300909     
          21 :    10.5645542359337     
          22 :   -9.96052224122275     
          23 :    8.16513390419658     
          24 :   -6.15802650789442     
          25 :    4.95482373023179     
          26 :   -5.03559527245756     
          27 :    6.12061984636892     
          28 :   -7.39982086163354     
          29 :    8.04324347479820     
          30 :   -7.66874691577812     
          31 :   -42.0701383011882     
          32 :   -31.1627604136416     

     Forces acting on atoms (Ry/au):


     negative rho (up, down):  1.175E+00 0.000E+00
     atom    1 type  1   force =    -0.00138838   -0.00080631    0.00309257
     atom    2 type  1   force =     0.00139166   -0.00080272    0.00309270
     atom    3 type  1   force =     0.00000420    0.00160493    0.00309039
     atom    4 type  1   force =    -0.00000180   -0.00000064    0.00127392
     atom    5 type  1   force =    -0.00001538    0.00293543   -0.00274120
     atom    6 type  1   force =     0.00001821   -0.00001096    0.00346782
     atom    7 type  1   force =    -0.00254994   -0.00145361   -0.00274140
     atom    8 type  1   force =     0.00254990   -0.00147198   -0.00274188
     atom    9 type  1   force =     0.00000921   -0.00000461    0.00576670
     atom   10 type  1   force =    -0.00000276    0.00322457   -0.02161460
     atom   11 type  1   force =     0.00277740   -0.00160529   -0.02161489
     atom   12 type  1   force =    -0.00279132   -0.00161033   -0.02161645
     atom   13 type  2   force =    -0.00000085    0.00000119    0.06503721
     atom   14 type  3   force =    -0.00000016    0.00000033   -0.01175090

     Total force =     0.076380     Total SCF correction =     0.002803


     entering subroutine stress ...


     negative rho (up, down):  1.175E+00 0.000E+00
          total   stress  (Ry/bohr**3)                   (kbar)     P=  -27.99
  -0.00027354   0.00000000  -0.00000000        -40.24      0.00     -0.00
   0.00000000  -0.00027354   0.00000000          0.00    -40.24      0.00
  -0.00000000   0.00000000  -0.00002366         -0.00      0.00     -3.48


     number of scf cycles    =   2
     number of bfgs steps    =   1

     energy   old            =   -1743.9061940556 Ry
     energy   new            =   -1743.9149627071 Ry

     CASE: energy  _new < energy  _old

     new trust radius        =       0.0423427766 bohr
     new conv_thr            =       0.0000001000 Ry


ATOMIC_POSITIONS (crystal)
Ta1      0.166666667   0.166666667   0.401991699    0   0   0
Ta1      0.666666667   0.166666667   0.401991699    0   0   0
Ta1      0.166666667   0.666666667   0.401991699    0   0   0
Ta1      0.666666667   0.666666667   0.401991699    0   0   0
Ta1      0.833333333   0.333333333   0.500000000    0   0   0
Ta1      0.333333333   0.333333333   0.500000000    0   0   0
Ta1      0.833333333   0.833333333   0.500000000    0   0   0
Ta1      0.333333333   0.833333333   0.500000000    0   0   0
Ta1      0.000005739  -0.000003279   0.598789194
Ta1      0.499654590   0.000684776   0.597111806
Ta1      0.000686348   0.499657496   0.597115813
Ta1      0.499654019   0.499660995   0.597111840
S1      -0.000000128   0.000000024   0.690814678
H1       0.000000052   0.000000023   0.744923551



     Writing output data file calc.save
     Check: negative starting charge=   -1.121150
     NEW-OLD atomic charge density approx. for the potential
     Check: negative starting charge=   -1.120872

     negative rho (up, down):  1.174E+00 0.000E+00
 
     Adding external electric field

     Computed dipole along edir(3) : 
        Dipole                0.4036 Ry au,          1.0259 Debye
        Dipole field          0.0010 Ry au
 
        Potential amp.       -0.0897 Ry
        Total length         45.8339 bohr
 

     total cpu time spent up to now is      692.8 secs

     Self-consistent Calculation

     iteration #  1     ecut=    36.75 Ry     beta=0.30
     Davidson diagonalization with overlap
     ethr =  1.00E-06,  avg # of iterations =  5.0

     negative rho (up, down):  1.174E+00 0.000E+00
 
     Adding external electric field

     Computed dipole along edir(3) : 
        Dipole                0.2934 Ry au,          0.7457 Debye
        Dipole field          0.0007 Ry au
 
        Potential amp.       -0.0652 Ry
        Total length         45.8339 bohr
 

     total cpu time spent up to now is      720.0 secs

     total energy              =   -1743.91775184 Ry
     Harris-Foulkes estimate   =   -1743.91889341 Ry
     estimated scf accuracy    <       0.00208037 Ry

     iteration #  2     ecut=    36.75 Ry     beta=0.30
     Davidson diagonalization with overlap
     ethr =  1.28E-06,  avg # of iterations =  9.4

     negative rho (up, down):  1.174E+00 0.000E+00
 
     Adding external electric field

     Computed dipole along edir(3) : 
        Dipole                0.3797 Ry au,          0.9651 Debye
        Dipole field          0.0009 Ry au
 
        Potential amp.       -0.0844 Ry
        Total length         45.8339 bohr
 

     total cpu time spent up to now is      746.0 secs

     total energy              =   -1743.91248268 Ry
     Harris-Foulkes estimate   =   -1743.92350495 Ry
     estimated scf accuracy    <       0.49693134 Ry

     iteration #  3     ecut=    36.75 Ry     beta=0.30
     Davidson diagonalization with overlap
     ethr =  1.28E-06,  avg # of iterations =  6.3

     negative rho (up, down):  1.174E+00 0.000E+00
 
     Adding external electric field

     Computed dipole along edir(3) : 
        Dipole                0.3769 Ry au,          0.9581 Debye
[...]
   -11.3869  -4.6830  -4.0708  -2.5221  -1.7032  -1.6511  -1.4830  -1.0810
    -1.0446  -0.9095  -0.7192  -0.5596  -0.4631  -0.2308  -0.2093   0.0122
     0.1268   0.1476   0.2113   0.8932   1.0694   1.1713   1.6254   1.6686
     1.8565   1.9307   1.9815   2.0828   2.2567   2.4769   2.5014   2.5599
     2.6727   2.7516   2.7822   2.8482   2.9675   2.9886   3.1262   3.1974
     3.3217   3.4181   3.5810

          k = 0.0558-0.0322 0.0000 ( 19517 PWs)   bands (ev):

   -65.9371 -65.7094 -65.6972 -65.6791 -65.6713 -65.6655 -65.6623 -65.6614
   -65.5955 -65.5739 -65.5656 -65.5310 -32.5303 -32.4102 -32.3916 -32.3899
   -32.3575 -32.3520 -32.3174 -32.2831 -32.2686 -32.2564 -32.2049 -32.1587
   -32.1338 -32.1304 -32.0215 -32.0014 -31.9790 -31.9333 -31.9299 -31.9182
   -31.9096 -31.8841 -31.8720 -31.8277 -31.7925 -31.7832 -31.7643 -31.7403
   -31.7355 -31.7142 -31.7039 -31.6955 -31.6740 -31.6500 -31.6448 -31.5766
   -11.3864  -4.6462  -3.8957  -2.3586  -2.1289  -1.3156  -1.1999  -1.0200
    -1.0159  -0.7276  -0.7078  -0.5894  -0.4240  -0.3150   0.0941   0.1126
     0.2000   0.2857   0.4179   0.8942   1.1010   1.1662   1.4203   1.5901
     1.6850   1.7676   1.8458   2.1104   2.2423   2.3043   2.3625   2.5212
     2.5830   2.6094   2.6813   2.7816   2.8343   2.8743   2.9849   3.1284
     3.2440   3.4683   3.5644

          k = 0.0558 0.0000 0.0000 ( 19485 PWs)   bands (ev):

   -65.9372 -65.7127 -65.6991 -65.6727 -65.6714 -65.6684 -65.6615 -65.6601
   -65.5977 -65.5715 -65.5661 -65.5307 -32.5317 -32.4252 -32.4164 -32.3883
   -32.3730 -32.3674 -32.3518 -32.3052 -32.2715 -32.2619 -32.2503 -32.1610
   -32.1287 -32.1171 -32.0178 -32.0035 -31.9781 -31.9392 -31.9331 -31.9109
   -31.8941 -31.8480 -31.8246 -31.8101 -31.7875 -31.7832 -31.7672 -31.7324
   -31.7169 -31.7077 -31.6977 -31.6809 -31.6758 -31.6485 -31.6374 -31.5759
   -11.3869  -4.6830  -4.0708  -2.5221  -1.7032  -1.6511  -1.4830  -1.0810
    -1.0446  -0.9095  -0.7192  -0.5596  -0.4631  -0.2308  -0.2093   0.0122
     0.1268   0.1476   0.2113   0.8932   1.0694   1.1713   1.6254   1.6686
     1.8565   1.9307   1.9815   2.0828   2.2567   2.4769   2.5014   2.5599
     2.6727   2.7516   2.7822   2.8482   2.9675   2.9886   3.1262   3.1974
     3.3217   3.4181   3.5810

          k = 0.0558 0.0322 0.0000 ( 19517 PWs)   bands (ev):

   -65.9371 -65.7094 -65.6972 -65.6791 -65.6713 -65.6655 -65.6623 -65.6614
   -65.5955 -65.5739 -65.5656 -65.5310 -32.5303 -32.4102 -32.3916 -32.3899
   -32.3575 -32.3520 -32.3174 -32.2831 -32.2686 -32.2564 -32.2049 -32.1587
   -32.1338 -32.1304 -32.0215 -32.0014 -31.9790 -31.9333 -31.9299 -31.9182
   -31.9096 -31.8841 -31.8720 -31.8277 -31.7925 -31.7832 -31.7643 -31.7403
   -31.7355 -31.7142 -31.7039 -31.6955 -31.6741 -31.6500 -31.6448 -31.5766
   -11.3864  -4.6462  -3.8957  -2.3586  -2.1289  -1.3156  -1.1999  -1.0200
    -1.0159  -0.7276  -0.7078  -0.5894  -0.4240  -0.3150   0.0941   0.1126
     0.2000   0.2857   0.4179   0.8942   1.1010   1.1662   1.4203   1.5901
     1.6850   1.7676   1.8458   2.1104   2.2423   2.3043   2.3625   2.5212
     2.5830   2.6094   2.6813   2.7816   2.8343   2.8743   2.9849   3.1284
     3.2440   3.4683   3.5645

          k = 0.0558-0.1289 0.0000 ( 19521 PWs)   bands (ev):

   -65.9367 -65.7002 -65.6920 -65.6843 -65.6774 -65.6729 -65.6614 -65.6583
   -65.5899 -65.5779 -65.5669 -65.5314 -32.5276 -32.3788 -32.3620 -32.3379
   -32.3175 -32.3033 -32.2670 -32.2471 -32.2292 -32.2073 -32.1777 -32.1703
   -32.1515 -32.0996 -32.0701 -32.0407 -32.0100 -31.9792 -31.9498 -31.9281
   -31.9185 -31.8885 -31.8792 -31.8416 -31.8380 -31.8134 -31.7881 -31.7639
   -31.7474 -31.7306 -31.7078 -31.6949 -31.6807 -31.6605 -31.6462 -31.6108
   -11.3853  -4.5998  -3.3449  -2.4151  -1.8184  -1.5682  -1.1792  -0.7599
    -0.6868  -0.5816  -0.5422  -0.3175  -0.2086  -0.1047   0.3125   0.4208
     0.4924   0.5876   0.7206   0.9213   0.9898   1.0984   1.2024   1.3598
     1.4134   1.5309   1.5744   1.7478   1.8110   1.9067   2.0262   2.1642
     2.2233   2.2718   2.4204   2.4844   2.6499   2.8372   3.0066   3.1526
     3.3156   3.5160   3.7086

          k = 0.0558-0.0967 0.0000 ( 19521 PWs)   bands (ev):

   -65.9366 -65.6887 -65.6876 -65.6875 -65.6838 -65.6813 -65.6614 -65.6564
   -65.5846 -65.5815 -65.5685 -65.5315 -32.5264 -32.3545 -32.3383 -32.3077
   -32.2743 -32.2636 -32.2514 -32.2410 -32.2300 -32.1857 -32.1785 -32.1384
   -32.1188 -32.0988 -32.0957 -32.0590 -32.0530 -32.0526 -31.9864 -31.9347
   -31.9215 -31.8903 -31.8762 -31.8395 -31.8385 -31.8264 -31.7764 -31.7749
   -31.7502 -31.7311 -31.7074 -31.7023 -31.6917 -31.6612 -31.6602 -31.6424
   -11.3848  -4.5847  -2.5574  -2.5303  -2.3684  -1.2062  -1.1848  -0.9611
    -0.5451  -0.5450  -0.0363   0.0608   0.0865   0.1523   0.2281   0.2941
     0.6379   0.8270   0.8320   0.8631   0.8809   0.9391   1.0661   1.0908
     1.2701   1.3151   1.3162   1.7031   1.7503   1.7959   1.8192   1.9168
     2.0304   2.0575   2.2177   2.3505   2.4271   2.8566   3.2567   3.3771
     3.3818   3.5708   3.7254

          k = 0.0558-0.0645 0.0000 ( 19521 PWs)   bands (ev):

   -65.9367 -65.7002 -65.6920 -65.6843 -65.6774 -65.6729 -65.6614 -65.6583
   -65.5899 -65.5779 -65.5669 -65.5314 -32.5276 -32.3788 -32.3620 -32.3379
   -32.3175 -32.3033 -32.2670 -32.2471 -32.2292 -32.2073 -32.1777 -32.1703
   -32.1515 -32.0996 -32.0701 -32.0407 -32.0100 -31.9792 -31.9498 -31.9281
   -31.9185 -31.8885 -31.8792 -31.8416 -31.8380 -31.8134 -31.7881 -31.7639
   -31.7474 -31.7306 -31.7078 -31.6949 -31.6807 -31.6605 -31.6462 -31.6108
   -11.3853  -4.5998  -3.3449  -2.4151  -1.8184  -1.5682  -1.1792  -0.7599
    -0.6869  -0.5816  -0.5422  -0.3174  -0.2086  -0.1047   0.3125   0.4208
     0.4924   0.5876   0.7206   0.9213   0.9898   1.0984   1.2024   1.3598
     1.4134   1.5309   1.5745   1.7478   1.8110   1.9067   2.0262   2.1642
     2.2233   2.2718   2.4204   2.4844   2.6499   2.8372   3.0066   3.1526
     3.3156   3.5160   3.7086

          k =-0.0837 0.0483 0.0000 ( 19532 PWs)   bands (ev):

   -65.9367 -65.6965 -65.6942 -65.6896 -65.6769 -65.6655 -65.6624 -65.6614
   -65.5890 -65.5799 -65.5656 -65.5316 -32.5273 -32.3751 -32.3613 -32.3432
   -32.3302 -32.3203 -32.2588 -32.2492 -32.2202 -32.2152 -32.1824 -32.1688
   -32.1497 -32.0577 -32.0205 -32.0055 -31.9944 -31.9911 -31.9896 -31.9554
   -31.9191 -31.9137 -31.8796 -31.8695 -31.8434 -31.8114 -31.7989 -31.7737
   -31.7334 -31.7315 -31.7101 -31.6946 -31.6855 -31.6611 -31.6255 -31.5987
   -11.3853  -4.5975  -3.1080  -2.9481  -1.6907  -1.4958  -0.7898  -0.7833
    -0.6682  -0.5725  -0.4703  -0.4628  -0.4122  -0.3349   0.4104   0.4476
     0.5985   0.6889   0.8247   0.8425   1.0390   1.1966   1.2225   1.3428
     1.4277   1.4294   1.5996   1.7836   1.9642   1.9761   2.0232   2.0972
     2.1445   2.3110   2.3325   2.4150   2.6318   2.8435   2.8692   3.0472
     3.2433   3.6271   3.6673

          k =-0.0837 0.0806 0.0000 ( 19521 PWs)   bands (ev):

   -65.9367 -65.7002 -65.6920 -65.6843 -65.6774 -65.6729 -65.6614 -65.6583
   -65.5899 -65.5779 -65.5669 -65.5314 -32.5276 -32.3788 -32.3620 -32.3379
   -32.3175 -32.3033 -32.2670 -32.2471 -32.2292 -32.2073 -32.1777 -32.1703
   -32.1515 -32.0996 -32.0701 -32.0407 -32.0100 -31.9792 -31.9498 -31.9281
   -31.9185 -31.8885 -31.8792 -31.8416 -31.8380 -31.8134 -31.7881 -31.7639
   -31.7474 -31.7306 -31.7078 -31.6949 -31.6807 -31.6605 -31.6462 -31.6108
   -11.3853  -4.5998  -3.3449  -2.4151  -1.8184  -1.5682  -1.1792  -0.7599
    -0.6869  -0.5816  -0.5422  -0.3174  -0.2086  -0.1047   0.3125   0.4208
     0.4924   0.5876   0.7206   0.9213   0.9898   1.0984   1.2024   1.3598
     1.4134   1.5309   1.5745   1.7478   1.8110   1.9067   2.0262   2.1642
     2.2233   2.2718   2.4204   2.4844   2.6499   2.8372   3.0066   3.1526
     3.3156   3.5160   3.7086

          k =-0.0837 0.1128 0.0000 ( 19521 PWs)   bands (ev):

   -65.9367 -65.7002 -65.6920 -65.6843 -65.6774 -65.6729 -65.6614 -65.6583
   -65.5899 -65.5779 -65.5669 -65.5314 -32.5276 -32.3788 -32.3620 -32.3379
   -32.3175 -32.3033 -32.2670 -32.2471 -32.2292 -32.2073 -32.1777 -32.1703
   -32.1515 -32.0996 -32.0701 -32.0407 -32.0100 -31.9792 -31.9498 -31.9281
   -31.9185 -31.8885 -31.8792 -31.8416 -31.8380 -31.8134 -31.7881 -31.7639
   -31.7474 -31.7306 -31.7078 -31.6949 -31.6807 -31.6605 -31.6462 -31.6108
   -11.3853  -4.5998  -3.3449  -2.4151  -1.8184  -1.5682  -1.1792  -0.7599
    -0.6868  -0.5816  -0.5422  -0.3174  -0.2086  -0.1047   0.3125   0.4208
     0.4924   0.5876   0.7206   0.9213   0.9898   1.0985   1.2024   1.3598
     1.4134   1.5309   1.5745   1.7478   1.8110   1.9067   2.0262   2.1642
     2.2233   2.2718   2.4204   2.4844   2.6499   2.8372   3.0066   3.1526
     3.3156   3.5160   3.7086

          k =-0.0837-0.0483 0.0000 ( 19532 PWs)   bands (ev):

   -65.9367 -65.6965 -65.6942 -65.6896 -65.6769 -65.6655 -65.6624 -65.6614
   -65.5890 -65.5799 -65.5656 -65.5316 -32.5273 -32.3751 -32.3613 -32.3432
   -32.3302 -32.3203 -32.2588 -32.2492 -32.2202 -32.2152 -32.1824 -32.1688
   -32.1497 -32.0577 -32.0205 -32.0055 -31.9944 -31.9911 -31.9896 -31.9554
   -31.9191 -31.9137 -31.8796 -31.8695 -31.8434 -31.8114 -31.7989 -31.7737
   -31.7334 -31.7314 -31.7101 -31.6946 -31.6855 -31.6611 -31.6255 -31.5987
   -11.3853  -4.5975  -3.1080  -2.9481  -1.6907  -1.4958  -0.7898  -0.7833
    -0.6682  -0.5725  -0.4703  -0.4628  -0.4122  -0.3349   0.4104   0.4476
     0.5985   0.6889   0.8247   0.8426   1.0390   1.1966   1.2225   1.3428
     1.4277   1.4294   1.5996   1.7836   1.9642   1.9761   2.0232   2.0972
     2.1445   2.3110   2.3325   2.4150   2.6318   2.8435   2.8692   3.0472
     3.2434   3.6271   3.6674

     the Fermi energy is     2.5867 ev

!    total energy              =   -1743.94517952 Ry
     Harris-Foulkes estimate   =   -1743.94518013 Ry
     estimated scf accuracy    <       0.00000009 Ry

     The total energy is the sum of the following terms:

     one-electron contribution =  -11519.27978306 Ry
     hartree contribution      =    5746.98633376 Ry
     xc contribution           =    -532.32031321 Ry
     ewald contribution        =    4560.77050321 Ry
     electric field correction =       0.00024839 Ry
     smearing contrib. (-TS)   =      -0.10216862 Ry

     convergence has been achieved in   8 iterations
 
 BEEF-vdW xc energy contributions
           1 :   -468.364945509072     
           2 :    431.938138348663     
           3 :   -368.451877426634     
           4 :    292.662180065661     
           5 :   -219.280120912568     
           6 :    158.522482895200     
           7 :   -114.105159509124     
           8 :    84.0464985856099     
           9 :   -63.3965908799250     
          10 :    47.3109435611942     
          11 :   -33.0392346142983     
          12 :    20.2196193680821     
          13 :   -9.83900077752872     
          14 :    2.79945251786143     
          15 :    1.01117465124173     
          16 :   -2.74785987943716     
          17 :    3.92597272325384     
          18 :   -5.57495856114116     
          19 :    7.77080885230453     
          20 :   -9.78815600424701     
          21 :    10.7165997016955     
          22 :   -10.1261946831563     
          23 :    8.37664946929942     
          24 :   -6.41277540456241     
          25 :    5.21104231644540     
          26 :   -5.23741171804340     
          27 :    6.23713277280416     
          28 :   -7.45058487839282     
          29 :    8.08980809212147     
          30 :   -7.77588406102774     
          31 :   -42.0684920725726     
          32 :   -31.1507192548299     

     Forces acting on atoms (Ry/au):


     negative rho (up, down):  1.175E+00 0.000E+00
     atom    1 type  1   force =    -0.00275153   -0.00158874    0.00470049
     atom    2 type  1   force =     0.00275144   -0.00158864    0.00470080
     atom    3 type  1   force =     0.00000005    0.00317730    0.00470051
     atom    4 type  1   force =    -0.00000014    0.00000007    0.00200496
     atom    5 type  1   force =    -0.00000025   -0.01749557    0.00200215
     atom    6 type  1   force =     0.00000031   -0.00000018   -0.02357582
     atom    7 type  1   force =     0.01515145    0.00874800    0.00200219
     atom    8 type  1   force =    -0.01515136    0.00874759    0.00200611
     atom    9 type  1   force =     0.00000287   -0.00000181    0.00138314
     atom   10 type  1   force =    -0.00000238    0.00036805    0.00036273
     atom   11 type  1   force =     0.00032071   -0.00018506    0.00036368
     atom   12 type  1   force =    -0.00031992   -0.00018177    0.00036275
     atom   13 type  2   force =    -0.00000657    0.00000421   -0.00126247
     atom   14 type  3   force =     0.00000531   -0.00000344    0.00024879

     Total force =     0.002091     Total SCF correction =     0.001180
     SCF correction compared to forces is large: reduce conv_thr to get better values


     entering subroutine stress ...


     negative rho (up, down):  1.175E+00 0.000E+00
          total   stress  (Ry/bohr**3)                   (kbar)     P=  -27.60
  -0.00025039   0.00000000   0.00000000        -36.83      0.00      0.00
   0.00000000  -0.00025038  -0.00000000          0.00    -36.83     -0.00
   0.00000000  -0.00000000  -0.00006218          0.00     -0.00     -9.15


     bfgs converged in  16 scf cycles and  15 bfgs steps
     (criteria: energy <  1.0E+00, force <  1.9E-03)

     End of BFGS Geometry Optimization

     Final energy   =   -1743.9451795213 Ry
Begin final coordinates

ATOMIC_POSITIONS (crystal)
Ta1      0.166666667   0.166666667   0.401991699    0   0   0
Ta1      0.666666667   0.166666667   0.401991699    0   0   0
Ta1      0.166666667   0.666666667   0.401991699    0   0   0
Ta1      0.666666667   0.666666667   0.401991699    0   0   0
Ta1      0.833333333   0.333333333   0.500000000    0   0   0
Ta1      0.333333333   0.333333333   0.500000000    0   0   0
Ta1      0.833333333   0.833333333   0.500000000    0   0   0
Ta1      0.333333333   0.833333333   0.500000000    0   0   0
Ta1     -0.000000553   0.000000606   0.610733051
Ta1      0.499591478   0.000818357   0.592614656
Ta1      0.000815425   0.499592629   0.592614225
Ta1      0.499591595   0.499590629   0.592614642
S1      -0.000016209   0.000009055   0.704368557
H1       0.000009994  -0.000005150   0.758354446
End final coordinates



     Writing output data file calc.save
 
     init_run     :      7.76s CPU      9.39s WALL (       1 calls)
     electrons    :   3150.28s CPU   4474.87s WALL (      16 calls)
     update_pot   :     39.59s CPU     51.69s WALL (      15 calls)
     forces       :    178.64s CPU    184.78s WALL (      16 calls)
     stress       :    519.25s CPU    543.29s WALL (      16 calls)

     Called by init_run:
     wfcinit      :      2.96s CPU      3.60s WALL (       1 calls)
     potinit      :      1.35s CPU      1.96s WALL (       1 calls)

     Called by electrons:
     c_bands      :   1534.88s CPU   2245.77s WALL (     176 calls)
     sum_band     :    569.54s CPU    717.81s WALL (     176 calls)
     v_of_rho     :    366.51s CPU    697.26s WALL (     190 calls)
     newd         :    427.85s CPU    472.92s WALL (     190 calls)
     mix_rho      :      4.09s CPU      5.13s WALL (     176 calls)
     vdW_energy   :     88.27s CPU     96.33s WALL (     766 calls)
     vdW_ffts     :    124.64s CPU    179.35s WALL (    1564 calls)
     vdW_v        :     57.31s CPU     68.16s WALL (     766 calls)

     Called by c_bands:
     init_us_2    :     12.41s CPU     13.52s WALL (    2695 calls)
     cegterg      :    989.28s CPU   1185.00s WALL (    1232 calls)

     Called by *egterg:
     h_psi        :    572.90s CPU    738.96s WALL (    6725 calls)
     s_psi        :     79.09s CPU     81.30s WALL (    6725 calls)
     g_psi        :      5.30s CPU      5.37s WALL (    5486 calls)
     cdiaghg      :    161.12s CPU    164.78s WALL (    6599 calls)

     Called by h_psi:
     add_vuspsi   :     83.10s CPU     85.38s WALL (    6725 calls)

     General routines
     calbec       :    114.03s CPU    119.66s WALL (    8181 calls)
     fft          :    199.66s CPU    299.28s WALL (   46211 calls)
     ffts         :      0.30s CPU      0.46s WALL (     366 calls)
     fftw         :    344.52s CPU    535.80s WALL (  702778 calls)
     interpolate  :      1.87s CPU      3.08s WALL (     366 calls)
     davcio       :      0.01s CPU      0.16s WALL (       7 calls)
 
     Parallel routines
     fft_scatter  :    253.66s CPU    460.95s WALL (  749355 calls)
 
     PWSCF        :     1h 5m CPU        1h28m WALL

 
   This run was terminated on:  10:10:27  23Apr2018            

=------------------------------------------------------------------------------=
   JOB DONE.
=------------------------------------------------------------------------------=
Job  /afs/slac/g/suncat/bin/suncat-tsmpirun -x LD_LIBRARY_PATH -wdir /scratch/qe998758_GaTQx pw.x -npool 3 -in pw.inp

TID   HOST_NAME   COMMAND_LINE            STATUS            TERMINATION_TIME
===== ========== ================  =======================  ===================
00000 suncat2035 pw.x -npool 3 -i  Done                     04/23/2018 10:10:27
00001 suncat2035 pw.x -npool 3 -i  Done                     04/23/2018 10:10:27
00002 suncat2035 pw.x -npool 3 -i  Done                     04/23/2018 10:10:27
00003 suncat2035 pw.x -npool 3 -i  Done                     04/23/2018 10:10:27
00004 suncat2038 pw.x -npool 3 -i  Done                     04/23/2018 10:10:27
00005 suncat2038 pw.x -npool 3 -i  Done                     04/23/2018 10:10:27
00006 suncat2038 pw.x -npool 3 -i  Done                     04/23/2018 10:10:27
00007 suncat2038 pw.x -npool 3 -i  Done                     04/23/2018 10:10:27
00008 suncat2038 pw.x -npool 3 -i  Done                     04/23/2018 10:10:27
00009 suncat2038 pw.x -npool 3 -i  Done                     04/23/2018 10:10:27
00010 suncat2038 pw.x -npool 3 -i  Done                     04/23/2018 10:10:27
00011 suncat2038 pw.x -npool 3 -i  Done                     04/23/2018 10:10:27
00012 suncat2038 pw.x -npool 3 -i  Done                     04/23/2018 10:10:27
00013 suncat2038 pw.x -npool 3 -i  Done                     04/23/2018 10:10:27
00014 suncat2038 pw.x -npool 3 -i  Done                     04/23/2018 10:10:27
00015 suncat2038 pw.x -npool 3 -i  Done                     04/23/2018 10:10:27
00016 suncat2038 pw.x -npool 3 -i  Done                     04/23/2018 10:10:27
00017 suncat2038 pw.x -npool 3 -i  Done                     04/23/2018 10:10:27
00018 suncat2038 pw.x -npool 3 -i  Done                     04/23/2018 10:10:27
00019 suncat2038 pw.x -npool 3 -i  Done                     04/23/2018 10:10:27
00020 suncat2019 pw.x -npool 3 -i  Done                     04/23/2018 10:10:27
00021 suncat2019 pw.x -npool 3 -i  Done                     04/23/2018 10:10:27
00022 suncat2019 pw.x -npool 3 -i  Done                     04/23/2018 10:10:27
00023 suncat2019 pw.x -npool 3 -i  Done                     04/23/2018 10:10:27
00024 suncat2019 pw.x -npool 3 -i  Done                     04/23/2018 10:10:27
00025 suncat2019 pw.x -npool 3 -i  Done                     04/23/2018 10:10:27
00026 suncat2019 pw.x -npool 3 -i  Done                     04/23/2018 10:10:27
00027 suncat2019 pw.x -npool 3 -i  Done                     04/23/2018 10:10:27
00028 suncat2019 pw.x -npool 3 -i  Done                     04/23/2018 10:10:27
00029 suncat2019 pw.x -npool 3 -i  Done                     04/23/2018 10:10:27
00030 suncat2019 pw.x -npool 3 -i  Done                     04/23/2018 10:10:27
00031 suncat2019 pw.x -npool 3 -i  Done                     04/23/2018 10:10:27
00032 suncat2019 pw.x -npool 3 -i  Done                     04/23/2018 10:10:27
00033 suncat2019 pw.x -npool 3 -i  Done                     04/23/2018 10:10:27
00034 suncat2019 pw.x -npool 3 -i  Done                     04/23/2018 10:10:27
00035 suncat2019 pw.x -npool 3 -i  Done                     04/23/2018 10:10:27
