  python dir          : /u/if/mamunm/src/espresso
  espresso dir        : /nfs/slac/g/suncatfs/sw/espv18/espresso-dynpy-beef/bin
  pseudo dir          : /u/if/mamunm/psp/gbrv1.5pbe
  ase-espresso py git : GITVERSION



     Program PWSCF v.5.1rc2 (svn rev. 11289) starts on 17Apr2018 at  0:38:17 

     This program is part of the open-source Quantum ESPRESSO suite
     for quantum simulation of materials; please cite
         "P. Giannozzi et al., J. Phys.:Condens. Matter 21 395502 (2009);
          URL http://www.quantum-espresso.org", 
     in publications or presentations arising from this work. More details at
     http://www.quantum-espresso.org/quote

     Parallel version (MPI), running on    32 processors
     K-points division:     npool     =       4
     R & G space division:  proc/nbgrp/npool/nimage =       8
     Reading input from pw.inp
     Message from routine read_cards :
     DEPRECATED: no units specified in CELL_PARAMETERS card

     Current dimensions of program PWSCF are:
     Max number of different atomic species (ntypx) = 10
     Max number of k-points (npk) =  40000
     Max angular momentum in pseudopotentials (lmaxx) =  3
     Presently stress not available with electric field


     **************************************************************************
     Initializing libbeef V0.1.1 with the BEEF-vdW functional.
     Citation: Wellendorff et al., PRB 85, 235149 (2012).
     **************************************************************************


     IMPORTANT: XC functional enforced from input :
     Exchange-correlation      = BEEF-VDW ( 1  4 27 13 2)
     Any further DFT definition will be discarded
     Please, verify this is what you really want


     Subspace diagonalization in iterative solution of the eigenvalue problem:
     a serial algorithm will be used

 
     Parallelization info
     --------------------
     sticks:   dense  smooth     PW     G-vecs:    dense   smooth      PW
     Min         297     119     35                55393    13999    2259
     Max         298     120     36                55416    14060    2272
     Sum        2383     955    283               443253   112179   18115
 


     bravais-lattice index     =            0
     lattice parameter (alat)  =       1.8897  a.u.
     unit-cell volume          =    3724.3394 (a.u.)^3
     number of atoms/cell      =           14
     number of atomic types    =            3
     number of electrons       =       175.00
     number of Kohn-Sham states=           97
     kinetic-energy cutoff     =      36.7493  Ry
     charge density cutoff     =     367.4932  Ry
     convergence threshold     =      1.0E-05
     mixing beta               =       0.3000
     number of iterations used =           10  plain     mixing
     Exchange-correlation      = BEEF-VDW ( 1  4 27 13 2)
     nstep                     =           50


     celldm(1)=   1.889726  celldm(2)=   0.000000  celldm(3)=   0.000000
     celldm(4)=   0.000000  celldm(5)=   0.000000  celldm(6)=   0.000000

     crystal axes: (cart. coord. in units of alat)
               a(1) = (   5.132588   0.000000   0.000000 )  
               a(2) = (   2.566294   4.444952   0.000000 )  
               a(3) = (   0.000000   0.000000  24.190741 )  

     reciprocal axes: (cart. coord. in units 2 pi/alat)
               b(1) = (  0.194833 -0.112487  0.000000 )  
               b(2) = (  0.000000  0.224974  0.000000 )  
               b(3) = (  0.000000  0.000000  0.041338 )  


     PseudoPot. # 1 for Cr read from file:
     /u/if/mamunm/psp/gbrv1.5pbe/Cr.UPF
     MD5 check sum: 0d52af634a40206e4dee301ad30da4bf
     Pseudo is Ultrasoft + core correction, Zval = 14.0
     Generated by new atomic code, or converted to UPF format
     Using radial grid of  857 points,  6 beta functions with: 
                l(1) =   0
                l(2) =   0
                l(3) =   1
                l(4) =   1
                l(5) =   2
                l(6) =   2
     Q(r) pseudized with  8 coefficients,  rinner =    0.950   0.950   0.950
                                                       0.950   0.950

     PseudoPot. # 2 for S  read from file:
     /u/if/mamunm/psp/gbrv1.5pbe/S.UPF
     MD5 check sum: 88d86576ff6df21479756cfb9bdac1df
     Pseudo is Ultrasoft + core correction, Zval =  6.0
     Generated by new atomic code, or converted to UPF format
     Using radial grid of  907 points,  6 beta functions with: 
                l(1) =   0
                l(2) =   0
                l(3) =   1
                l(4) =   1
                l(5) =   2
                l(6) =   2
     Q(r) pseudized with  8 coefficients,  rinner =    1.300   1.300   1.300
                                                       1.300   1.300

     PseudoPot. # 3 for H  read from file:
     /u/if/mamunm/psp/gbrv1.5pbe/H.UPF
     MD5 check sum: 761ae9a214b05c3daf00ab9f6b793d6f
     Pseudo is Ultrasoft, Zval =  1.0
     Generated by new atomic code, or converted to UPF format
     Using radial grid of  615 points,  2 beta functions with: 
                l(1) =   0
                l(2) =   0
     Q(r) pseudized with  8 coefficients,  rinner =    0.700

     vdW kernel table read from file vdW_kernel_table
     MD5 check sum: 095c7af220d748ca6e76c0b4c6cfb241

     atomic species   valence    mass     pseudopotential
        Cr1           14.00    51.99610     Cr( 1.00)
        S1             6.00    32.06000     S ( 1.00)
        H1             1.00     1.00800     H ( 1.00)

     No symmetry found



   Cartesian axes

     site n.     atom                  positions (alat units)
         1           Cr1 tau(   1) = (   1.2831471   0.7408253  10.0000000  )
         2           Cr1 tau(   2) = (   3.8494412   0.7408253  10.0000000  )
         3           Cr1 tau(   3) = (   2.5662941   2.9633012  10.0000000  )
         4           Cr1 tau(   4) = (   5.1325882   2.9633012  10.0000000  )
         5           Cr1 tau(   5) = (   5.1325882   1.4816506  12.0953704  )
         6           Cr1 tau(   6) = (   2.5662941   1.4816506  12.0953704  )
         7           Cr1 tau(   7) = (   6.4157353   3.7041265  12.0953704  )
         8           Cr1 tau(   8) = (   3.8494412   3.7041265  12.0953704  )
         9           Cr1 tau(   9) = (   0.0000000   0.0000000  14.1907408  )
        10           Cr1 tau(  10) = (   2.5662941   0.0000000  14.1907408  )
        11           Cr1 tau(  11) = (   1.2831471   2.2224759  14.1907408  )
        12           Cr1 tau(  12) = (   3.8494412   2.2224759  14.1907408  )
        13           S1  tau(  13) = (   1.2831471   0.7408253  15.7767408  )
        14           H1  tau(  14) = (   1.2831471   0.7408253  17.0267408  )

     number of k points=    20  Fermi-Dirac smearing, width (Ry)=  0.0110
                       cart. coord. in units 2pi/alat
        k(    1) = (   0.0000000   0.0000000   0.0000000), wk =   0.0555556
        k(    2) = (   0.0000000   0.0374957   0.0000000), wk =   0.1111111
        k(    3) = (   0.0000000   0.0749914   0.0000000), wk =   0.1111111
        k(    4) = (   0.0000000  -0.1124872   0.0000000), wk =   0.0555556
        k(    5) = (   0.0324722  -0.0187479   0.0000000), wk =   0.1111111
        k(    6) = (   0.0324722   0.0187479   0.0000000), wk =   0.1111111
        k(    7) = (   0.0324722   0.0562436   0.0000000), wk =   0.1111111
        k(    8) = (   0.0324722  -0.1312350   0.0000000), wk =   0.1111111
        k(    9) = (   0.0324722  -0.0937393   0.0000000), wk =   0.1111111
        k(   10) = (   0.0324722  -0.0562436   0.0000000), wk =   0.1111111
        k(   11) = (   0.0649445  -0.0374957   0.0000000), wk =   0.1111111
        k(   12) = (   0.0649445   0.0000000   0.0000000), wk =   0.1111111
        k(   13) = (   0.0649445   0.0374957   0.0000000), wk =   0.1111111
        k(   14) = (   0.0649445  -0.1499829   0.0000000), wk =   0.1111111
        k(   15) = (   0.0649445  -0.1124872   0.0000000), wk =   0.1111111
        k(   16) = (   0.0649445  -0.0749914   0.0000000), wk =   0.1111111
        k(   17) = (  -0.0974167   0.0562436   0.0000000), wk =   0.0555556
        k(   18) = (  -0.0974167   0.0937393   0.0000000), wk =   0.1111111
        k(   19) = (  -0.0974167   0.1312350   0.0000000), wk =   0.1111111
        k(   20) = (  -0.0974167  -0.0562436   0.0000000), wk =   0.0555556

     Dense  grid:   443253 G-vectors     FFT dimensions: (  60,  60, 288)

     Smooth grid:   112179 G-vectors     FFT dimensions: (  40,  40, 180)

     Largest allocated arrays     est. size (Mb)     dimensions
        Kohn-Sham Wavefunctions         2.65 Mb     (    1792,   97)
        NL pseudopotentials             6.45 Mb     (    1792,  236)
        Each V/rho on FFT grid          1.98 Mb     (  129600)
        Each G-vector array             0.42 Mb     (   55406)
        G-vector shells                 0.11 Mb     (   14836)
     Largest temporary arrays     est. size (Mb)     dimensions
        Auxiliary wavefunctions        10.61 Mb     (    1792,  388)
        Each subspace H/S matrix        2.30 Mb     (     388,  388)
        Each <psi_i|beta_j> matrix      0.35 Mb     (     236,   97)
        Arrays for rho mixing          19.78 Mb     (  129600,   10)

     Check: negative/imaginary core charge=   -0.000004    0.000000

     Initial potential from superposition of free atoms
     Check: negative starting charge=   -0.014775

     starting charge  162.99977, renormalised to  175.00000

     negative rho (up, down):  1.586E-02 0.000E+00


     ************************************************************************
     *
     * You are using vdW-DF for exchange-correlation in this calculation.
     * Please cite the following three references that made this development
     * possible:
     *
     *   M. Dion, H. Rydberg, E. Schroder, D. C. Langreth, and
     *   B. I. Lundqvist, Phys. Rev. Lett. 92, 246401 (2004).
     *
     *   T. Thonhauser, V. R. Cooper, S. Li, A. Puzder, P. Hyldgaard, and
     *   D. C. Langreth, Phys. Rev. B 76, 125112 (2007).
     *
     *   G. Roman-Perez and J. M. Soler, Phys. Rev. Lett. 103, 096102 (2009).
     *
     *
     * If you are using vdW-DF2, please also cite:
     *
     *   K. Lee, E. D. Murray, L. Kong, B. I. Lundqvist, and
     *   D. C. Langreth, Phys. Rev. B 82, 081101(R) (2010).
     *
     *
     * If you are calculating the stress with vdW-DF, please also cite:
     *
     *   R. Sabatini, E. Kucukbenli, B. Kolb, T. Thonhauser, and
     *   S. de Gironcoli, J. Phys.: Condens. Matter 24, 424209 (2012).
     *
     ************************************************************************

     Carrying out vdW-DF run using the following parameters:

     Nqs =      20    Nr_points =    1024   r_max =   100.000
     q_mesh =
               0.00001000     0.04494208     0.09755937     0.15916263
               0.23128650     0.31572767     0.41458969     0.53033537
               0.66584808     0.82450364     1.01025438     1.22772762
               1.48234092     1.78043706     2.12944203     2.53805004
               3.01644009     3.57652955     4.23227104     5.00000000

     Gradients computed in reciprocal space

     ************************************************************************


 
     Adding external electric field

     Computed dipole along edir(3) : 
        Dipole               -3.7587 Ry au,         -9.5537 Debye
        Dipole field         -0.0127 Ry au
 
        Potential amp.        1.1305 Ry
        Total length         44.5710 bohr
 
     Starting wfc are  125 randomized atomic wfcs

     total cpu time spent up to now is        8.8 secs

     per-process dynamical memory:    66.1 Mb

     Self-consistent Calculation

     iteration #  1     ecut=    36.75 Ry     beta=0.30
     Davidson diagonalization with overlap
     ethr =  1.00E-02,  avg # of iterations =  8.8

     negative rho (up, down):  1.708E-02 0.000E+00
 
     Adding external electric field

     Computed dipole along edir(3) : 
        Dipole               68.8602 Ry au,        175.0253 Debye
        Dipole field          0.2323 Ry au
 
        Potential amp.      -20.7115 Ry
        Total length         44.5710 bohr
 

     total cpu time spent up to now is       31.2 secs

     total energy              =   -1824.83868481 Ry
     Harris-Foulkes estimate   =   -2139.35251867 Ry
     estimated scf accuracy    <     655.35768550 Ry

     iteration #  2     ecut=    36.75 Ry     beta=0.30
     Davidson diagonalization with overlap
     ethr =  1.00E-02,  avg # of iterations = 18.2

     negative rho (up, down):  1.603E-02 0.000E+00
 
     Adding external electric field

     Computed dipole along edir(3) : 
        Dipole                5.7881 Ry au,         14.7118 Debye
        Dipole field          0.0195 Ry au
 
        Potential amp.       -1.7409 Ry
        Total length         44.5710 bohr
 

     total cpu time spent up to now is       78.6 secs

     total energy              =   -1736.85012628 Ry
     Harris-Foulkes estimate   =   -3284.48230014 Ry
     estimated scf accuracy    <   22410.67346033 Ry

     iteration #  3     ecut=    36.75 Ry     beta=0.30
     Davidson diagonalization with overlap
     c_bands:  1 eigenvalues not converged
     ethr =  1.00E-02,  avg # of iterations = 18.6

     negative rho (up, down):  1.475E-02 0.000E+00
 
     Adding external electric field

     Computed dipole along edir(3) : 
        Dipole                8.6476 Ry au,         21.9800 Debye
        Dipole field          0.0292 Ry au
 
        Potential amp.       -2.6010 Ry
        Total length         44.5710 bohr
 

     total cpu time spent up to now is      114.4 secs

     total energy              =   -2063.72628575 Ry
     Harris-Foulkes estimate   =   -2406.28104780 Ry
     estimated scf accuracy    <    4079.49237932 Ry

     iteration #  4     ecut=    36.75 Ry     beta=0.30
     Davidson diagonalization with overlap
     ethr =  1.00E-02,  avg # of iterations =  8.0

     negative rho (up, down):  1.458E-02 0.000E+00
 
     Adding external electric field

     Computed dipole along edir(3) : 
        Dipole                5.1969 Ry au,         13.2092 Debye
        Dipole field          0.0175 Ry au
 
        Potential amp.       -1.5631 Ry
        Total length         44.5710 bohr
 

     total cpu time spent up to now is      139.7 secs

     total energy              =   -2144.82702760 Ry
     Harris-Foulkes estimate   =   -2173.89450605 Ry
     estimated scf accuracy    <     451.83541218 Ry

     iteration #  5     ecut=    36.75 Ry     beta=0.30
     Davidson diagonalization with overlap
     ethr =  1.00E-02,  avg # of iterations =  6.8

     negative rho (up, down):  1.491E-02 0.000E+00
 
     Adding external electric field

     Computed dipole along edir(3) : 
        Dipole                4.7938 Ry au,         12.1846 Debye
        Dipole field          0.0162 Ry au
 
        Potential amp.       -1.4419 Ry
        Total length         44.5710 bohr
 

     total cpu time spent up to now is      156.3 secs

     total energy              =   -2130.53153450 Ry
     Harris-Foulkes estimate   =   -2155.30100275 Ry
     estimated scf accuracy    <     446.31442569 Ry

     iteration #  6     ecut=    36.75 Ry     beta=0.30
     Davidson diagonalization with overlap
     ethr =  1.00E-02,  avg # of iterations =  8.0

     negative rho (up, down):  1.448E-02 0.000E+00
 
     Adding external electric field

     Computed dipole along edir(3) : 
        Dipole                4.4940 Ry au,         11.4226 Debye
        Dipole field          0.0152 Ry au
 
        Potential amp.       -1.3517 Ry
        Total length         44.5710 bohr
 

     total cpu time spent up to now is      177.7 secs

     total energy              =   -2141.06158229 Ry
     Harris-Foulkes estimate   =   -2148.81304198 Ry
     estimated scf accuracy    <     318.54748354 Ry

     iteration #  7     ecut=    36.75 Ry     beta=0.30
     Davidson diagonalization with overlap
     ethr =  1.00E-02,  avg # of iterations =  2.8

     negative rho (up, down):  1.412E-02 0.000E+00
 
     Adding external electric field

     Computed dipole along edir(3) : 
        Dipole                4.8320 Ry au,         12.2816 Debye
        Dipole field          0.0163 Ry au
 
        Potential amp.       -1.4533 Ry
        Total length         44.5710 bohr
 

     total cpu time spent up to now is      190.7 secs

     total energy              =   -2143.02303764 Ry
     Harris-Foulkes estimate   =   -2143.08671884 Ry
     estimated scf accuracy    <      41.38178087 Ry

     iteration #  8     ecut=    36.75 Ry     beta=0.30
     Davidson diagonalization with overlap
     ethr =  1.00E-02,  avg # of iterations =  4.3

     negative rho (up, down):  1.449E-02 0.000E+00
 
     Adding external electric field

     Computed dipole along edir(3) : 
        Dipole                4.4539 Ry au,         11.3207 Debye
        Dipole field          0.0150 Ry au
 
        Potential amp.       -1.3396 Ry
        Total length         44.5710 bohr
 

     total cpu time spent up to now is      204.5 secs

     total energy              =   -2142.98090202 Ry
     Harris-Foulkes estimate   =   -2143.88937695 Ry
     estimated scf accuracy    <      16.76298889 Ry

     iteration #  9     ecut=    36.75 Ry     beta=0.30
     Davidson diagonalization with overlap
     ethr =  9.58E-03,  avg # of iterations =  5.5

     negative rho (up, down):  1.461E-02 0.000E+00
 
     Adding external electric field

     Computed dipole along edir(3) : 
        Dipole                4.0997 Ry au,         10.4205 Debye
        Dipole field          0.0138 Ry au
 
        Potential amp.       -1.2331 Ry
        Total length         44.5710 bohr
 

     total cpu time spent up to now is      220.1 secs

     total energy              =   -2143.67495799 Ry
     Harris-Foulkes estimate   =   -2144.28800101 Ry
     estimated scf accuracy    <      67.83559266 Ry

     iteration # 10     ecut=    36.75 Ry     beta=0.30
     Davidson diagonalization with overlap
     ethr =  9.58E-03,  avg # of iterations =  1.0

     negative rho (up, down):  1.514E-02 0.000E+00
 
     Adding external electric field

     Computed dipole along edir(3) : 
        Dipole                2.7624 Ry au,          7.0213 Debye
        Dipole field          0.0093 Ry au
 
        Potential amp.       -0.8309 Ry
        Total length         44.5710 bohr
 

     total cpu time spent up to now is      232.3 secs

     total energy              =   -2141.76876431 Ry
     Harris-Foulkes estimate   =   -2143.82743046 Ry
     estimated scf accuracy    <      65.45023609 Ry

     iteration # 11     ecut=    36.75 Ry     beta=0.30
     Davidson diagonalization with overlap
     ethr =  9.58E-03,  avg # of iterations =  1.0

     negative rho (up, down):  1.515E-02 0.000E+00
 
     Adding external electric field

     Computed dipole along edir(3) : 
        Dipole                2.1806 Ry au,          5.5425 Debye
        Dipole field          0.0074 Ry au
 
        Potential amp.       -0.6559 Ry
        Total length         44.5710 bohr
 

     total cpu time spent up to now is      244.5 secs

     total energy              =   -2141.61509012 Ry
     Harris-Foulkes estimate   =   -2142.05429774 Ry
     estimated scf accuracy    <      36.12910827 Ry

     iteration # 12     ecut=    36.75 Ry     beta=0.30
     Davidson diagonalization with overlap
     ethr =  9.58E-03,  avg # of iterations =  1.0

     negative rho (up, down):  1.680E-02 0.000E+00
 
     Adding external electric field

     Computed dipole along edir(3) : 
        Dipole               -2.2052 Ry au,         -5.6050 Debye
        Dipole field         -0.0074 Ry au
 
        Potential amp.        0.6633 Ry
        Total length         44.5710 bohr
 

     total cpu time spent up to now is      256.7 secs

     total energy              =   -2139.17633268 Ry
     Harris-Foulkes estimate   =   -2141.80624243 Ry
     estimated scf accuracy    <      39.77141102 Ry

     iteration # 13     ecut=    36.75 Ry     beta=0.30
     Davidson diagonalization with overlap
     ethr =  9.58E-03,  avg # of iterations =  4.8

     negative rho (up, down):  1.560E-02 0.000E+00
 
     Adding external electric field

     Computed dipole along edir(3) : 
        Dipole                0.7966 Ry au,          2.0248 Debye
        Dipole field          0.0027 Ry au
 
        Potential amp.       -0.2396 Ry
        Total length         44.5710 bohr
 

     total cpu time spent up to now is      272.7 secs

     total energy              =   -2138.58385785 Ry
     Harris-Foulkes estimate   =   -2143.39070438 Ry
     estimated scf accuracy    <      49.35788673 Ry

     iteration # 14     ecut=    36.75 Ry     beta=0.30
     Davidson diagonalization with overlap
     ethr =  9.58E-03,  avg # of iterations =  4.0

     negative rho (up, down):  1.520E-02 0.000E+00
 
     Adding external electric field

     Computed dipole along edir(3) : 
        Dipole                1.0843 Ry au,          2.7560 Debye
        Dipole field          0.0037 Ry au
 
        Potential amp.       -0.3261 Ry
        Total length         44.5710 bohr
 

     total cpu time spent up to now is      287.0 secs

     total energy              =   -2138.95392800 Ry
     Harris-Foulkes estimate   =   -2141.14588179 Ry
     estimated scf accuracy    <      44.18922713 Ry

     iteration # 15     ecut=    36.75 Ry     beta=0.30
     Davidson diagonalization with overlap
     ethr =  9.58E-03,  avg # of iterations =  3.6

     negative rho (up, down):  1.403E-02 0.000E+00
 
     Adding external electric field

     Computed dipole along edir(3) : 
        Dipole                1.3923 Ry au,          3.5388 Debye
        Dipole field          0.0047 Ry au
 
        Potential amp.       -0.4188 Ry
        Total length         44.5710 bohr
 

     total cpu time spent up to now is      300.6 secs

     total energy              =   -2139.69762274 Ry
     Harris-Foulkes estimate   =   -2141.96678759 Ry
     estimated scf accuracy    <     112.54746554 Ry

     iteration # 16     ecut=    36.75 Ry     beta=0.30
     Davidson diagonalization with overlap
     ethr =  9.58E-03,  avg # of iterations =  3.2

     negative rho (up, down):  1.442E-02 0.000E+00
 
     Adding external electric field

     Computed dipole along edir(3) : 
        Dipole                1.4123 Ry au,          3.5897 Debye
        Dipole field          0.0048 Ry au
 
        Potential amp.       -0.4248 Ry
        Total length         44.5710 bohr
 

     total cpu time spent up to now is      313.9 secs

     total energy              =   -2139.86374730 Ry
     Harris-Foulkes estimate   =   -2141.46680048 Ry
     estimated scf accuracy    <      26.23233664 Ry

     iteration # 17     ecut=    36.75 Ry     beta=0.30
     Davidson diagonalization with overlap
     ethr =  9.58E-03,  avg # of iterations =  1.5

     negative rho (up, down):  1.411E-02 0.000E+00
 
     Adding external electric field

     Computed dipole along edir(3) : 
        Dipole                1.2241 Ry au,          3.1113 Debye
        Dipole field          0.0041 Ry au
 
        Potential amp.       -0.3682 Ry
        Total length         44.5710 bohr
 

     total cpu time spent up to now is      326.5 secs

     total energy              =   -2140.42760971 Ry
     Harris-Foulkes estimate   =   -2140.60692037 Ry
     estimated scf accuracy    <       6.76534178 Ry

     iteration # 18     ecut=    36.75 Ry     beta=0.30
     Davidson diagonalization with overlap
     ethr =  3.87E-03,  avg # of iterations =  3.6

     negative rho (up, down):  1.402E-02 0.000E+00
 
     Adding external electric field

     Computed dipole along edir(3) : 
        Dipole                0.4819 Ry au,          1.2249 Debye
        Dipole field          0.0016 Ry au
 
        Potential amp.       -0.1450 Ry
        Total length         44.5710 bohr
 

     total cpu time spent up to now is      340.4 secs

     total energy              =   -2140.42502720 Ry
     Harris-Foulkes estimate   =   -2140.78825696 Ry
     estimated scf accuracy    <       4.03436867 Ry

     iteration # 19     ecut=    36.75 Ry     beta=0.30
     Davidson diagonalization with overlap
     ethr =  2.31E-03,  avg # of iterations =  3.5

     negative rho (up, down):  1.395E-02 0.000E+00
 
     Adding external electric field

     Computed dipole along edir(3) : 
        Dipole                0.4445 Ry au,          1.1298 Debye
        Dipole field          0.0015 Ry au
 
        Potential amp.       -0.1337 Ry
        Total length         44.5710 bohr
 

     total cpu time spent up to now is      354.1 secs

     total energy              =   -2140.52807463 Ry
     Harris-Foulkes estimate   =   -2140.62614436 Ry
     estimated scf accuracy    <       1.51997371 Ry

     iteration # 20     ecut=    36.75 Ry     beta=0.30
     Davidson diagonalization with overlap
     ethr =  8.69E-04,  avg # of iterations =  5.6

     negative rho (up, down):  1.386E-02 0.000E+00
 
     Adding external electric field

     Computed dipole along edir(3) : 
        Dipole                0.4503 Ry au,          1.1445 Debye
        Dipole field          0.0015 Ry au
 
        Potential amp.       -0.1354 Ry
        Total length         44.5710 bohr
 

     total cpu time spent up to now is      368.9 secs

     total energy              =   -2140.55467758 Ry
     Harris-Foulkes estimate   =   -2140.60507129 Ry
     estimated scf accuracy    <       1.38732559 Ry

     iteration # 21     ecut=    36.75 Ry     beta=0.30
     Davidson diagonalization with overlap
     ethr =  7.93E-04,  avg # of iterations =  1.6

     negative rho (up, down):  1.387E-02 0.000E+00
 
     Adding external electric field

     Computed dipole along edir(3) : 
        Dipole                0.3951 Ry au,          1.0044 Debye
        Dipole field          0.0013 Ry au
 
        Potential amp.       -0.1188 Ry
        Total length         44.5710 bohr
 

     total cpu time spent up to now is      381.5 secs

     total energy              =   -2140.57599335 Ry
     Harris-Foulkes estimate   =   -2140.61106688 Ry
     estimated scf accuracy    <       0.41807011 Ry

     iteration # 22     ecut=    36.75 Ry     beta=0.30
     Davidson diagonalization with overlap
     ethr =  2.39E-04,  avg # of iterations =  8.1

     negative rho (up, down):  1.380E-02 0.000E+00
 
     Adding external electric field

     Computed dipole along edir(3) : 
        Dipole                0.3265 Ry au,          0.8298 Debye
        Dipole field          0.0011 Ry au
 
        Potential amp.       -0.0982 Ry
        Total length         44.5710 bohr
 

     total cpu time spent up to now is      397.7 secs

     total energy              =   -2140.58538926 Ry
     Harris-Foulkes estimate   =   -2140.60393573 Ry
     estimated scf accuracy    <       0.20332268 Ry

     iteration # 23     ecut=    36.75 Ry     beta=0.30
     Davidson diagonalization with overlap
     ethr =  1.16E-04,  avg # of iterations =  6.8

     negative rho (up, down):  1.374E-02 0.000E+00
 
     Adding external electric field

     Computed dipole along edir(3) : 
        Dipole                0.3257 Ry au,          0.8279 Debye
        Dipole field          0.0011 Ry au
 
        Potential amp.       -0.0980 Ry
        Total length         44.5710 bohr
 

     total cpu time spent up to now is      413.0 secs

     total energy              =   -2140.58944041 Ry
     Harris-Foulkes estimate   =   -2140.60346117 Ry
     estimated scf accuracy    <       0.15692433 Ry

     iteration # 24     ecut=    36.75 Ry     beta=0.30
     Davidson diagonalization with overlap
     ethr =  8.97E-05,  avg # of iterations =  3.4

     negative rho (up, down):  1.369E-02 0.000E+00
 
     Adding external electric field

     Computed dipole along edir(3) : 
        Dipole                0.3609 Ry au,          0.9174 Debye
        Dipole field          0.0012 Ry au
 
        Potential amp.       -0.1086 Ry
        Total length         44.5710 bohr
 

     total cpu time spent up to now is      426.4 secs

     total energy              =   -2140.59335457 Ry
     Harris-Foulkes estimate   =   -2140.59777877 Ry
     estimated scf accuracy    <       0.03340970 Ry

     iteration # 25     ecut=    36.75 Ry     beta=0.30
     Davidson diagonalization with overlap
     ethr =  1.91E-05,  avg # of iterations =  7.3

     negative rho (up, down):  1.367E-02 0.000E+00
 
     Adding external electric field

     Computed dipole along edir(3) : 
        Dipole                0.3489 Ry au,          0.8868 Debye
        Dipole field          0.0012 Ry au
 
        Potential amp.       -0.1049 Ry
        Total length         44.5710 bohr
 

     total cpu time spent up to now is      444.7 secs

     total energy              =   -2140.59647863 Ry
     Harris-Foulkes estimate   =   -2140.60116402 Ry
     estimated scf accuracy    <       0.06873028 Ry

     iteration # 26     ecut=    36.75 Ry     beta=0.30
     Davidson diagonalization with overlap
     ethr =  1.91E-05,  avg # of iterations =  2.5

     negative rho (up, down):  1.368E-02 0.000E+00
 
     Adding external electric field

     Computed dipole along edir(3) : 
        Dipole                0.3382 Ry au,          0.8596 Debye
        Dipole field          0.0011 Ry au
 
        Potential amp.       -0.1017 Ry
        Total length         44.5710 bohr
 

     total cpu time spent up to now is      458.1 secs

     total energy              =   -2140.59698660 Ry
     Harris-Foulkes estimate   =   -2140.59840724 Ry
     estimated scf accuracy    <       0.02319066 Ry

     iteration # 27     ecut=    36.75 Ry     beta=0.30
     Davidson diagonalization with overlap
     ethr =  1.33E-05,  avg # of iterations =  4.8

     negative rho (up, down):  1.370E-02 0.000E+00
 
     Adding external electric field

     Computed dipole along edir(3) : 
        Dipole                0.3371 Ry au,          0.8568 Debye
        Dipole field          0.0011 Ry au
 
        Potential amp.       -0.1014 Ry
        Total length         44.5710 bohr
 

     total cpu time spent up to now is      473.6 secs

     total energy              =   -2140.59826781 Ry
     Harris-Foulkes estimate   =   -2140.60021902 Ry
     estimated scf accuracy    <       0.05157312 Ry

     iteration # 28     ecut=    36.75 Ry     beta=0.30
     Davidson diagonalization with overlap
     ethr =  1.33E-05,  avg # of iterations =  1.1

     negative rho (up, down):  1.373E-02 0.000E+00
 
     Adding external electric field

     Computed dipole along edir(3) : 
        Dipole                0.3363 Ry au,          0.8547 Debye
        Dipole field          0.0011 Ry au
 
        Potential amp.       -0.1011 Ry
        Total length         44.5710 bohr
 

     total cpu time spent up to now is      485.9 secs

     total energy              =   -2140.59810367 Ry
     Harris-Foulkes estimate   =   -2140.59890943 Ry
     estimated scf accuracy    <       0.01417111 Ry

     iteration # 29     ecut=    36.75 Ry     beta=0.30
     Davidson diagonalization with overlap
     ethr =  8.10E-06,  avg # of iterations =  4.2

     negative rho (up, down):  1.373E-02 0.000E+00
 
     Adding external electric field

     Computed dipole along edir(3) : 
        Dipole                0.3377 Ry au,          0.8584 Debye
        Dipole field          0.0011 Ry au
 
        Potential amp.       -0.1016 Ry
        Total length         44.5710 bohr
 

     total cpu time spent up to now is      500.0 secs

     total energy              =   -2140.59884767 Ry
     Harris-Foulkes estimate   =   -2140.59902507 Ry
     estimated scf accuracy    <       0.00300155 Ry

     iteration # 30     ecut=    36.75 Ry     beta=0.30
     Davidson diagonalization with overlap
     ethr =  1.72E-06,  avg # of iterations =  5.5

     negative rho (up, down):  1.378E-02 0.000E+00
 
     Adding external electric field

     Computed dipole along edir(3) : 
        Dipole                0.3438 Ry au,          0.8739 Debye
        Dipole field          0.0012 Ry au
 
        Potential amp.       -0.1034 Ry
        Total length         44.5710 bohr
 

     total cpu time spent up to now is      515.2 secs

     total energy              =   -2140.59898371 Ry
     Harris-Foulkes estimate   =   -2140.59910403 Ry
     estimated scf accuracy    <       0.00306753 Ry

     iteration # 31     ecut=    36.75 Ry     beta=0.30
     Davidson diagonalization with overlap
     ethr =  1.72E-06,  avg # of iterations =  2.0

     negative rho (up, down):  1.396E-02 0.000E+00
 
     Adding external electric field

     Computed dipole along edir(3) : 
        Dipole                0.3407 Ry au,          0.8660 Debye
        Dipole field          0.0011 Ry au
 
        Potential amp.       -0.1025 Ry
        Total length         44.5710 bohr
 

     total cpu time spent up to now is      528.4 secs

     total energy              =   -2140.59899688 Ry
     Harris-Foulkes estimate   =   -2140.59912457 Ry
     estimated scf accuracy    <       0.00308031 Ry

     iteration # 32     ecut=    36.75 Ry     beta=0.30
     Davidson diagonalization with overlap
     ethr =  1.72E-06,  avg # of iterations =  1.2

     negative rho (up, down):  1.418E-02 0.000E+00
 
     Adding external electric field

     Computed dipole along edir(3) : 
        Dipole                0.3440 Ry au,          0.8743 Debye
        Dipole field          0.0012 Ry au
 
        Potential amp.       -0.1035 Ry
        Total length         44.5710 bohr
 

     total cpu time spent up to now is      540.9 secs

     total energy              =   -2140.59903097 Ry
     Harris-Foulkes estimate   =   -2140.59907204 Ry
     estimated scf accuracy    <       0.00095319 Ry

     iteration # 33     ecut=    36.75 Ry     beta=0.30
     Davidson diagonalization with overlap
     ethr =  5.45E-07,  avg # of iterations =  4.3

     negative rho (up, down):  1.405E-02 0.000E+00
 
     Adding external electric field

     Computed dipole along edir(3) : 
        Dipole                0.3445 Ry au,          0.8758 Debye
        Dipole field          0.0012 Ry au
 
        Potential amp.       -0.1036 Ry
        Total length         44.5710 bohr
 

     total cpu time spent up to now is      554.7 secs

     total energy              =   -2140.59904917 Ry
     Harris-Foulkes estimate   =   -2140.59908791 Ry
     estimated scf accuracy    <       0.00033282 Ry

     iteration # 34     ecut=    36.75 Ry     beta=0.30
     Davidson diagonalization with overlap
     ethr =  1.90E-07,  avg # of iterations =  5.0

     negative rho (up, down):  1.434E-02 0.000E+00
 
     Adding external electric field

     Computed dipole along edir(3) : 
        Dipole                0.3462 Ry au,          0.8800 Debye
        Dipole field          0.0012 Ry au
 
        Potential amp.       -0.1041 Ry
        Total length         44.5710 bohr
 

     total cpu time spent up to now is      570.5 secs

     total energy              =   -2140.59907369 Ry
     Harris-Foulkes estimate   =   -2140.59909810 Ry
     estimated scf accuracy    <       0.00042441 Ry

     iteration # 35     ecut=    36.75 Ry     beta=0.30
     Davidson diagonalization with overlap
     ethr =  1.90E-07,  avg # of iterations =  1.2

     negative rho (up, down):  1.445E-02 0.000E+00
 
     Adding external electric field

     Computed dipole along edir(3) : 
        Dipole                0.3463 Ry au,          0.8802 Debye
        Dipole field          0.0012 Ry au
 
        Potential amp.       -0.1042 Ry
        Total length         44.5710 bohr
 

     total cpu time spent up to now is      583.2 secs

     total energy              =   -2140.59908495 Ry
     Harris-Foulkes estimate   =   -2140.59908986 Ry
     estimated scf accuracy    <       0.00015004 Ry

     iteration # 36     ecut=    36.75 Ry     beta=0.30
     Davidson diagonalization with overlap
     ethr =  8.57E-08,  avg # of iterations =  4.9

     negative rho (up, down):  1.437E-02 0.000E+00
 
     Adding external electric field

     Computed dipole along edir(3) : 
        Dipole                0.3450 Ry au,          0.8770 Debye
        Dipole field          0.0012 Ry au
 
        Potential amp.       -0.1038 Ry
        Total length         44.5710 bohr
 

     total cpu time spent up to now is      598.3 secs

     total energy              =   -2140.59908210 Ry
     Harris-Foulkes estimate   =   -2140.59910477 Ry
     estimated scf accuracy    <       0.00035894 Ry

     iteration # 37     ecut=    36.75 Ry     beta=0.30
     Davidson diagonalization with overlap
     ethr =  8.57E-08,  avg # of iterations =  4.2

     negative rho (up, down):  1.442E-02 0.000E+00
 
     Adding external electric field

     Computed dipole along edir(3) : 
        Dipole                0.3458 Ry au,          0.8789 Debye
        Dipole field          0.0012 Ry au
 
        Potential amp.       -0.1040 Ry
        Total length         44.5710 bohr
 

     total cpu time spent up to now is      612.4 secs

     total energy              =   -2140.59908473 Ry
     Harris-Foulkes estimate   =   -2140.59909105 Ry
     estimated scf accuracy    <       0.00017898 Ry

     iteration # 38     ecut=    36.75 Ry     beta=0.30
     Davidson diagonalization with overlap
     ethr =  8.57E-08,  avg # of iterations =  1.2

     negative rho (up, down):  1.447E-02 0.000E+00
 
     Adding external electric field

     Computed dipole along edir(3) : 
        Dipole                0.3486 Ry au,          0.8860 Debye
        Dipole field          0.0012 Ry au
 
        Potential amp.       -0.1048 Ry
        Total length         44.5710 bohr
 

     total cpu time spent up to now is      624.9 secs

     total energy              =   -2140.59908449 Ry
     Harris-Foulkes estimate   =   -2140.59908326 Ry
     estimated scf accuracy    <       0.00008733 Ry

     iteration # 39     ecut=    36.75 Ry     beta=0.30
     Davidson diagonalization with overlap
     ethr =  4.99E-08,  avg # of iterations =  5.2

     negative rho (up, down):  1.427E-02 0.000E+00
 
     Adding external electric field

     Computed dipole along edir(3) : 
        Dipole                0.3458 Ry au,          0.8788 Debye
        Dipole field          0.0012 Ry au
 
        Potential amp.       -0.1040 Ry
        Total length         44.5710 bohr
 

     total cpu time spent up to now is      639.7 secs

     total energy              =   -2140.59908218 Ry
     Harris-Foulkes estimate   =   -2140.59910197 Ry
     estimated scf accuracy    <       0.00052659 Ry

     iteration # 40     ecut=    36.75 Ry     beta=0.30
     Davidson diagonalization with overlap
     ethr =  4.99E-08,  avg # of iterations =  3.8

     negative rho (up, down):  1.433E-02 0.000E+00
 
     Adding external electric field

     Computed dipole along edir(3) : 
        Dipole                0.3468 Ry au,          0.8814 Debye
        Dipole field          0.0012 Ry au
 
        Potential amp.       -0.1043 Ry
        Total length         44.5710 bohr
 

     total cpu time spent up to now is      653.6 secs

     total energy              =   -2140.59908786 Ry
     Harris-Foulkes estimate   =   -2140.59908845 Ry
     estimated scf accuracy    <       0.00005262 Ry

     iteration # 41     ecut=    36.75 Ry     beta=0.30
     Davidson diagonalization with overlap
     ethr =  3.01E-08,  avg # of iterations =  4.8

     negative rho (up, down):  1.437E-02 0.000E+00
 
     Adding external electric field

     Computed dipole along edir(3) : 
        Dipole                0.3467 Ry au,          0.8812 Debye
        Dipole field          0.0012 Ry au
 
        Potential amp.       -0.1043 Ry
        Total length         44.5710 bohr
 

     total cpu time spent up to now is      668.1 secs

     total energy              =   -2140.59908867 Ry
     Harris-Foulkes estimate   =   -2140.59909333 Ry
     estimated scf accuracy    <       0.00005660 Ry

     iteration # 42     ecut=    36.75 Ry     beta=0.30
     Davidson diagonalization with overlap
     ethr =  3.01E-08,  avg # of iterations =  1.0

     negative rho (up, down):  1.446E-02 0.000E+00
 
     Adding external electric field

     Computed dipole along edir(3) : 
        Dipole                0.3465 Ry au,          0.8807 Debye
        Dipole field          0.0012 Ry au
 
        Potential amp.       -0.1042 Ry
        Total length         44.5710 bohr
 

     total cpu time spent up to now is      680.4 secs

     total energy              =   -2140.59908906 Ry
     Harris-Foulkes estimate   =   -2140.59909099 Ry
     estimated scf accuracy    <       0.00001852 Ry

     iteration # 43     ecut=    36.75 Ry     beta=0.30
     Davidson diagonalization with overlap
     ethr =  1.06E-08,  avg # of iterations =  4.8

     negative rho (up, down):  1.454E-02 0.000E+00

     negative rho (up, down):  1.454E-02 0.000E+00

     negative rho (up, down):  1.454E-02 0.000E+00

     negative rho (up, down):  1.454E-02 0.000E+00

     negative rho (up, down):  1.454E-02 0.000E+00

     negative rho (up, down):  1.454E-02 0.000E+00

     negative rho (up, down):  1.454E-02 0.000E+00

     negative rho (up, down):  1.454E-02 0.000E+00

     negative rho (up, down):  1.454E-02 0.000E+00

     negative rho (up, down):  1.454E-02 0.000E+00

     negative rho (up, down):  1.454E-02 0.000E+00

     negative rho (up, down):  1.454E-02 0.000E+00

     negative rho (up, down):  1.454E-02 0.000E+00

     negative rho (up, down):  1.454E-02 0.000E+00

     negative rho (up, down):  1.454E-02 0.000E+00

     negative rho (up, down):  1.454E-02 0.000E+00

     negative rho (up, down):  1.454E-02 0.000E+00

     negative rho (up, down):  1.454E-02 0.000E+00

     negative rho (up, down):  1.454E-02 0.000E+00

     negative rho (up, down):  1.454E-02 0.000E+00

     negative rho (up, down):  1.454E-02 0.000E+00

     negative rho (up, down):  1.454E-02 0.000E+00

     negative rho (up, down):  1.454E-02 0.000E+00

     negative rho (up, down):  1.454E-02 0.000E+00

     negative rho (up, down):  1.454E-02 0.000E+00

     negative rho (up, down):  1.454E-02 0.000E+00

     negative rho (up, down):  1.454E-02 0.000E+00

     negative rho (up, down):  1.454E-02 0.000E+00

     negative rho (up, down):  1.454E-02 0.000E+00

     negative rho (up, down):  1.454E-02 0.000E+00

     negative rho (up, down):  1.454E-02 0.000E+00

     negative rho (up, down):  1.454E-02 0.000E+00

     negative rho (up, down):  1.454E-02 0.000E+00

     negative rho (up, down):  1.454E-02 0.000E+00

     negative rho (up, down):  1.454E-02 0.000E+00
 
     Adding external electric field

     Computed dipole along edir(3) : 
        Dipole                0.3653 Ry au,          0.9286 Debye
        Dipole field          0.0012 Ry au
 
        Potential amp.       -0.1099 Ry
        Total length         44.5710 bohr
 

     total cpu time spent up to now is      728.3 secs

     End of self-consistent calculation

          k = 0.0000 0.0000 0.0000 ( 14081 PWs)   bands (ev):

   -69.6660 -69.5841 -69.5234 -69.5226 -69.5218 -69.5150 -69.4959 -69.4717
   -69.4713 -69.4225 -69.4218 -69.4191 -41.2781 -41.2492 -41.2490 -41.2397
   -41.1880 -41.1741 -41.1740 -41.0868 -41.0827 -41.0825 -40.9337 -40.8614
   -40.8522 -40.8518 -40.8101 -40.8098 -40.8082 -40.7521 -40.7517 -40.7298
   -40.6867 -40.6860 -40.6857 -40.6423 -40.6422 -40.6268 -40.6246 -40.5806
   -40.5806 -40.5653 -40.5650 -40.5625 -40.5082 -40.5082 -40.4334 -40.4333
   -13.2954  -6.5710  -4.4541  -2.8432  -2.8432  -2.6309  -1.7870  -1.6034
    -1.5272  -1.5271  -1.2068  -1.1477  -1.1477  -0.8566  -0.8565  -0.7893
    -0.7718  -0.5654  -0.5654   0.2642   0.2816   0.2816   1.0216   1.0691
     1.0691   1.1859   1.3111   1.6192   1.6192   1.7633   1.7634   1.7646
     1.8694   1.8695   1.8996   1.9219   1.9220   1.9853   1.9853   2.0447
     2.5130   2.7388   2.7390   2.9529   2.9906   2.9906   3.2313   3.2313
     3.4268

          k = 0.0000 0.0375 0.0000 ( 14040 PWs)   bands (ev):

   -69.6571 -69.5780 -69.5334 -69.5223 -69.5219 -69.5095 -69.4974 -69.4750
   -69.4715 -69.4277 -69.4221 -69.4198 -41.2525 -41.2263 -41.2188 -41.2132
   -41.1705 -41.1541 -41.1461 -41.0651 -41.0611 -41.0477 -40.9342 -40.8874
   -40.8678 -40.8627 -40.8092 -40.8064 -40.7959 -40.7638 -40.7520 -40.7295
   -40.7059 -40.7017 -40.6743 -40.6485 -40.6430 -40.6390 -40.6248 -40.6146
   -40.5923 -40.5870 -40.5837 -40.5561 -40.5432 -40.5168 -40.4724 -40.4423
   -13.2877  -6.5267  -4.2496  -2.9582  -2.8136  -2.3571  -1.6139  -1.5471
    -1.4458  -1.4101  -1.1665  -1.0552  -1.0323  -0.7615  -0.7329  -0.6978
    -0.6288  -0.4500  -0.4171   0.2552   0.2734   0.3481   0.9336   1.1422
     1.1696   1.2032   1.3128   1.4351   1.5544   1.5919   1.6592   1.7499
     1.7777   1.8024   1.8743   1.8990   1.9148   1.9562   1.9567   2.1144
     2.2077   2.4338   2.4636   2.8956   2.9071   2.9943   3.0182   3.1121
     3.1257

          k = 0.0000 0.0750 0.0000 ( 14026 PWs)   bands (ev):

   -69.6327 -69.5674 -69.5546 -69.5222 -69.5220 -69.5073 -69.4908 -69.4816
   -69.4714 -69.4445 -69.4221 -69.4200 -41.1954 -41.1689 -41.1667 -41.1357
   -41.1094 -41.1075 -41.0907 -41.0190 -41.0096 -40.9665 -40.9422 -40.9107
   -40.9000 -40.8855 -40.8068 -40.8049 -40.7889 -40.7774 -40.7639 -40.7481
   -40.7462 -40.7173 -40.7042 -40.6883 -40.6762 -40.6689 -40.6400 -40.6278
   -40.6253 -40.6220 -40.6177 -40.6046 -40.5608 -40.5411 -40.5318 -40.4666
   -13.2723  -6.4388  -3.7147  -3.0279  -2.7584  -1.9294  -1.7379  -1.1908
    -1.1075  -1.1066  -0.9784  -0.7952  -0.7941  -0.5468  -0.4233  -0.3982
    -0.2650  -0.1027  -0.0191   0.2985   0.3097   0.4596   0.6164   0.9336
     0.9700   1.0826   1.1069   1.2485   1.3552   1.4526   1.4540   1.5068
     1.5567   1.5648   1.7068   1.7518   1.9147   1.9419   2.0227   2.0906
     2.1303   2.1441   2.1879   2.2674   2.3334   2.5205   2.6892   2.7932
     2.9187

          k = 0.0000-0.1125 0.0000 ( 14010 PWs)   bands (ev):

   -69.6034 -69.5929 -69.5471 -69.5221 -69.5198 -69.5181 -69.4852 -69.4714
   -69.4681 -69.4668 -69.4221 -69.4200 -41.1539 -41.1318 -41.1264 -41.1080
   -41.0868 -41.0810 -41.0105 -40.9998 -40.9760 -40.9738 -40.9520 -40.9328
   -40.8633 -40.8466 -40.8120 -40.8106 -40.8088 -40.7745 -40.7679 -40.7650
   -40.7607 -40.7583 -40.7370 -40.7301 -40.7113 -40.7108 -40.6725 -40.6544
   -40.6395 -40.6273 -40.6144 -40.6063 -40.5787 -40.5683 -40.5002 -40.4989
   -13.2646  -6.3952  -3.3938  -2.7328  -2.7173  -2.4786  -1.2994  -1.1843
    -0.8154  -0.7908  -0.7756  -0.7738  -0.5585  -0.4612  -0.1197  -0.0388
     0.0326   0.0499   0.1489   0.1854   0.4995   0.6010   0.6208   0.6299
     0.7043   0.7622   0.9320   1.0477   1.1446   1.2672   1.2739   1.3395
     1.3869   1.4208   1.5393   1.6313   1.6535   1.7468   1.7479   1.9022
     1.9579   2.2023   2.2152   2.2345   2.5948   2.6943   2.7145   2.7360
     2.7816

          k = 0.0325-0.0187 0.0000 ( 14040 PWs)   bands (ev):

   -69.6571 -69.5780 -69.5333 -69.5223 -69.5220 -69.5095 -69.4973 -69.4752
   -69.4713 -69.4276 -69.4224 -69.4197 -41.2525 -41.2262 -41.2188 -41.2132
   -41.1705 -41.1542 -41.1460 -41.0651 -41.0610 -41.0477 -40.9341 -40.8874
   -40.8679 -40.8626 -40.8094 -40.8063 -40.7959 -40.7637 -40.7521 -40.7295
   -40.7058 -40.7018 -40.6743 -40.6484 -40.6430 -40.6390 -40.6248 -40.6146
   -40.5922 -40.5869 -40.5838 -40.5560 -40.5432 -40.5168 -40.4724 -40.4423
   -13.2877  -6.5267  -4.2496  -2.9582  -2.8136  -2.3571  -1.6139  -1.5471
    -1.4458  -1.4101  -1.1665  -1.0552  -1.0323  -0.7615  -0.7329  -0.6978
    -0.6288  -0.4500  -0.4171   0.2552   0.2735   0.3481   0.9336   1.1422
     1.1697   1.2032   1.3128   1.4351   1.5545   1.5918   1.6592   1.7499
     1.7777   1.8024   1.8743   1.8990   1.9148   1.9562   1.9567   2.1144
     2.2077   2.4337   2.4636   2.8957   2.9071   2.9943   3.0182   3.1121
     3.1257

          k = 0.0325 0.0187 0.0000 ( 14040 PWs)   bands (ev):

   -69.6571 -69.5780 -69.5333 -69.5227 -69.5218 -69.5094 -69.4973 -69.4748
   -69.4716 -69.4278 -69.4218 -69.4201 -41.2526 -41.2260 -41.2188 -41.2133
   -41.1705 -41.1541 -41.1461 -41.0649 -41.0612 -41.0477 -40.9341 -40.8873
   -40.8679 -40.8628 -40.8093 -40.8064 -40.7958 -40.7635 -40.7523 -40.7294
   -40.7058 -40.7019 -40.6743 -40.6483 -40.6432 -40.6389 -40.6248 -40.6146
   -40.5921 -40.5872 -40.5836 -40.5560 -40.5432 -40.5168 -40.4724 -40.4423
   -13.2877  -6.5267  -4.2496  -2.9582  -2.8136  -2.3571  -1.6138  -1.5471
    -1.4459  -1.4100  -1.1665  -1.0552  -1.0323  -0.7615  -0.7329  -0.6978
    -0.6288  -0.4500  -0.4171   0.2552   0.2734   0.3481   0.9336   1.1422
     1.1696   1.2032   1.3128   1.4352   1.5544   1.5919   1.6593   1.7500
     1.7776   1.8023   1.8743   1.8990   1.9147   1.9563   1.9567   2.1144
     2.2077   2.4337   2.4637   2.8956   2.9070   2.9943   3.0182   3.1121
     3.1258

          k = 0.0325 0.0562 0.0000 ( 14027 PWs)   bands (ev):

   -69.6404 -69.5679 -69.5431 -69.5385 -69.5137 -69.5040 -69.4948 -69.4821
   -69.4706 -69.4341 -69.4317 -69.4156 -41.2139 -41.1823 -41.1725 -41.1586
   -41.1362 -41.1167 -41.1049 -41.0369 -41.0072 -40.9980 -40.9383 -40.9109
   -40.8925 -40.8868 -40.8216 -40.7953 -40.7896 -40.7747 -40.7630 -40.7393
   -40.7288 -40.6957 -40.6850 -40.6808 -40.6700 -40.6613 -40.6423 -40.6301
   -40.6224 -40.6112 -40.5974 -40.5679 -40.5664 -40.5402 -40.5293 -40.4618
   -13.2761  -6.4609  -3.8719  -3.0007  -2.8079  -1.9614  -1.5506  -1.5037
    -1.2101  -1.1676  -1.0557  -0.9696  -0.7241  -0.5642  -0.5568  -0.4920
    -0.3570  -0.2257  -0.1466   0.2711   0.3063   0.3988   0.7369   1.0415
     1.0968   1.1451   1.2029   1.2991   1.3689   1.4375   1.4718   1.5138
     1.6281   1.7094   1.7436   1.8363   1.8833   1.9530   2.0662   2.0893
     2.1287   2.1669   2.3458   2.4113   2.4840   2.5315   2.7666   2.8523
     2.9288

          k = 0.0325-0.1312 0.0000 ( 13990 PWs)   bands (ev):

   -69.6116 -69.5760 -69.5515 -69.5410 -69.5137 -69.5052 -69.4913 -69.4761
   -69.4693 -69.4530 -69.4359 -69.4124 -41.1552 -41.1302 -41.1150 -41.0973
   -41.0779 -41.0740 -41.0511 -41.0054 -40.9788 -40.9627 -40.9462 -40.9149
   -40.9003 -40.8648 -40.8458 -40.8160 -40.7998 -40.7862 -40.7760 -40.7634
   -40.7450 -40.7391 -40.7315 -40.7093 -40.6983 -40.6915 -40.6650 -40.6445
   -40.6428 -40.6356 -40.6025 -40.5962 -40.5901 -40.5671 -40.5344 -40.4962
   -13.2646  -6.3959  -3.3754  -2.8725  -2.7717  -2.0702  -1.4350  -1.3107
    -1.0341  -0.8675  -0.7260  -0.5985  -0.4189  -0.3415  -0.1890  -0.1194
    -0.0576   0.0582   0.1585   0.3674   0.4141   0.4500   0.5512   0.6660
     0.7027   0.8226   0.9171   0.9989   1.1063   1.1972   1.2619   1.3505
     1.3672   1.4654   1.5260   1.5767   1.6192   1.7365   1.8024   1.9058
     2.0547   2.0945   2.2492   2.2909   2.5503   2.6387   2.7346   2.7513
     2.8068

          k = 0.0325-0.0937 0.0000 ( 13990 PWs)   bands (ev):

   -69.6116 -69.5761 -69.5516 -69.5408 -69.5137 -69.5052 -69.4914 -69.4761
   -69.4693 -69.4529 -69.4359 -69.4124 -41.1552 -41.1302 -41.1149 -41.0974
   -41.0779 -41.0740 -41.0511 -41.0053 -40.9790 -40.9627 -40.9460 -40.9148
   -40.9003 -40.8648 -40.8458 -40.8161 -40.7999 -40.7860 -40.7761 -40.7634
   -40.7449 -40.7391 -40.7315 -40.7093 -40.6981 -40.6914 -40.6651 -40.6445
   -40.6430 -40.6356 -40.6024 -40.5961 -40.5902 -40.5671 -40.5344 -40.4962
   -13.2646  -6.3959  -3.3754  -2.8724  -2.7717  -2.0702  -1.4350  -1.3107
    -1.0341  -0.8675  -0.7260  -0.5985  -0.4188  -0.3416  -0.1890  -0.1194
    -0.0576   0.0581   0.1584   0.3675   0.4142   0.4500   0.5512   0.6661
     0.7026   0.8226   0.9170   0.9989   1.1064   1.1971   1.2618   1.3506
     1.3673   1.4654   1.5259   1.5768   1.6191   1.7365   1.8024   1.9057
     2.0546   2.0945   2.2493   2.2909   2.5504   2.6387   2.7347   2.7512
     2.8067

          k = 0.0325-0.0562 0.0000 ( 14027 PWs)   bands (ev):

   -69.6404 -69.5679 -69.5433 -69.5382 -69.5137 -69.5039 -69.4948 -69.4824
   -69.4704 -69.4334 -69.4323 -69.4155 -41.2138 -41.1823 -41.1725 -41.1585
   -41.1363 -41.1166 -41.1049 -41.0370 -41.0072 -40.9979 -40.9383 -40.9111
   -40.8925 -40.8867 -40.8216 -40.7952 -40.7897 -40.7747 -40.7632 -40.7391
   -40.7288 -40.6957 -40.6850 -40.6805 -40.6700 -40.6616 -40.6423 -40.6300
   -40.6224 -40.6112 -40.5974 -40.5681 -40.5662 -40.5401 -40.5293 -40.4619
   -13.2761  -6.4609  -3.8719  -3.0007  -2.8078  -1.9614  -1.5506  -1.5037
    -1.2101  -1.1676  -1.0557  -0.9696  -0.7241  -0.5642  -0.5568  -0.4920
    -0.3570  -0.2258  -0.1466   0.2711   0.3063   0.3988   0.7369   1.0416
     1.0968   1.1450   1.2030   1.2992   1.3688   1.4376   1.4717   1.5137
     1.6282   1.7094   1.7437   1.8364   1.8833   1.9530   2.0662   2.0891
     2.1287   2.1669   2.3459   2.4113   2.4840   2.5316   2.7667   2.8524
     2.9289

          k = 0.0649-0.0375 0.0000 ( 14026 PWs)   bands (ev):

   -69.6327 -69.5674 -69.5546 -69.5224 -69.5220 -69.5071 -69.4908 -69.4819
   -69.4712 -69.4445 -69.4224 -69.4198 -41.1955 -41.1687 -41.1667 -41.1357
   -41.1095 -41.1075 -41.0907 -41.0191 -41.0095 -40.9665 -40.9422 -40.9107
   -40.9001 -40.8855 -40.8068 -40.8049 -40.7890 -40.7773 -40.7641 -40.7480
   -40.7462 -40.7174 -40.7043 -40.6883 -40.6761 -40.6690 -40.6399 -40.6276
   -40.6254 -40.6220 -40.6178 -40.6046 -40.5608 -40.5411 -40.5318 -40.4665
   -13.2723  -6.4388  -3.7147  -3.0279  -2.7584  -1.9294  -1.7379  -1.1908
    -1.1075  -1.1066  -0.9785  -0.7952  -0.7942  -0.5468  -0.4233  -0.3982
    -0.2649  -0.1027  -0.0191   0.2985   0.3097   0.4596   0.6164   0.9337
     0.9700   1.0826   1.1069   1.2484   1.3552   1.4526   1.4540   1.5067
     1.5567   1.5648   1.7068   1.7518   1.9147   1.9420   2.0226   2.0906
     2.1303   2.1441   2.1879   2.2674   2.3335   2.5206   2.6893   2.7931
     2.9187

          k = 0.0649 0.0000 0.0000 ( 14027 PWs)   bands (ev):

   -69.6404 -69.5679 -69.5429 -69.5387 -69.5138 -69.5038 -69.4948 -69.4823
   -69.4705 -69.4338 -69.4319 -69.4155 -41.2139 -41.1823 -41.1723 -41.1586
   -41.1362 -41.1168 -41.1048 -41.0370 -41.0073 -40.9979 -40.9382 -40.9110
   -40.8924 -40.8869 -40.8217 -40.7951 -40.7897 -40.7746 -40.7631 -40.7394
   -40.7288 -40.6957 -40.6850 -40.6807 -40.6701 -40.6614 -40.6423 -40.6301
   -40.6225 -40.6112 -40.5974 -40.5679 -40.5663 -40.5402 -40.5293 -40.4618
   -13.2761  -6.4609  -3.8719  -3.0007  -2.8079  -1.9614  -1.5506  -1.5036
    -1.2102  -1.1676  -1.0557  -0.9696  -0.7241  -0.5642  -0.5568  -0.4920
    -0.3570  -0.2257  -0.1466   0.2711   0.3063   0.3988   0.7369   1.0415
     1.0968   1.1451   1.2030   1.2991   1.3689   1.4375   1.4717   1.5137
     1.6281   1.7094   1.7437   1.8363   1.8833   1.9531   2.0662   2.0892
     2.1286   2.1670   2.3458   2.4113   2.4840   2.5316   2.7666   2.8523
     2.9286

          k = 0.0649 0.0375 0.0000 ( 14026 PWs)   bands (ev):

   -69.6327 -69.5672 -69.5548 -69.5228 -69.5217 -69.5071 -69.4907 -69.4814
   -69.4716 -69.4445 -69.4218 -69.4203 -41.1957 -41.1685 -41.1668 -41.1357
   -41.1095 -41.1074 -41.0906 -41.0188 -41.0098 -40.9665 -40.9421 -40.9107
   -40.9002 -40.8856 -40.8066 -40.8052 -40.7889 -40.7773 -40.7641 -40.7480
   -40.7462 -40.7174 -40.7044 -40.6883 -40.6762 -40.6690 -40.6398 -40.6278
   -40.6254 -40.6221 -40.6176 -40.6045 -40.5608 -40.5411 -40.5318 -40.4665
   -13.2723  -6.4388  -3.7147  -3.0279  -2.7584  -1.9294  -1.7378  -1.1908
    -1.1075  -1.1066  -0.9785  -0.7951  -0.7942  -0.5468  -0.4234  -0.3981
    -0.2650  -0.1026  -0.0191   0.2985   0.3098   0.4596   0.6163   0.9337
     0.9700   1.0825   1.1070   1.2485   1.3552   1.4527   1.4540   1.5068
     1.5566   1.5647   1.7068   1.7518   1.9146   1.9420   2.0227   2.0905
     2.1302   2.1442   2.1878   2.2675   2.3334   2.5205   2.6891   2.7932
     2.9187

          k = 0.0649-0.1500 0.0000 ( 13990 PWs)   bands (ev):

   -69.6116 -69.5758 -69.5518 -69.5409 -69.5138 -69.5052 -69.4911 -69.4762
   -69.4694 -69.4530 -69.4358 -69.4124 -41.1554 -41.1302 -41.1149 -41.0973
   -41.0780 -41.0738 -41.0511 -41.0053 -40.9789 -40.9628 -40.9462 -40.9148
   -40.9004 -40.8648 -40.8458 -40.8160 -40.7999 -40.7860 -40.7762 -40.7632
   -40.7451 -40.7391 -40.7315 -40.7094 -40.6981 -40.6915 -40.6649 -40.6446
   -40.6431 -40.6354 -40.6024 -40.5962 -40.5902 -40.5671 -40.5344 -40.4962
   -13.2646  -6.3959  -3.3754  -2.8725  -2.7717  -2.0701  -1.4350  -1.3106
    -1.0341  -0.8676  -0.7259  -0.5985  -0.4188  -0.3416  -0.1891  -0.1194
    -0.0575   0.0581   0.1585   0.3675   0.4141   0.4501   0.5511   0.6660
     0.7027   0.8226   0.9171   0.9989   1.1063   1.1972   1.2618   1.3505
     1.3672   1.4654   1.5260   1.5768   1.6192   1.7365   1.8024   1.9056
     2.0547   2.0945   2.2491   2.2910   2.5503   2.6387   2.7346   2.7513
     2.8068

          k = 0.0649-0.1125 0.0000 ( 13962 PWs)   bands (ev):

   -69.5902 -69.5782 -69.5720 -69.5384 -69.5084 -69.5051 -69.4994 -69.4684
   -69.4573 -69.4561 -69.4545 -69.4093 -41.1062 -41.1006 -41.0900 -41.0691
   -41.0635 -41.0431 -41.0412 -41.0277 -41.0061 -40.9508 -40.9166 -40.9084
   -40.8782 -40.8768 -40.8654 -40.8237 -40.8232 -40.8119 -40.7954 -40.7699
   -40.7684 -40.7607 -40.7376 -40.6999 -40.6878 -40.6797 -40.6782 -40.6476
   -40.6432 -40.6266 -40.6133 -40.6097 -40.6017 -40.5459 -40.5449 -40.5438
   -13.2607  -6.3750  -3.1387  -3.0334  -2.1861  -2.1735  -1.9972  -0.9884
    -0.9393  -0.8758  -0.3871  -0.3453  -0.2085  -0.1114  -0.0980  -0.0759
     0.1584   0.2055   0.2414   0.2667   0.2785   0.4841   0.5259   0.5284
     0.6129   0.7548   0.7631   0.8423   0.9158   0.9446   1.0457   1.0640
     1.1664   1.1739   1.4232   1.4568   1.5700   1.5713   1.9769   2.0504
     2.0736   2.1024   2.1502   2.2176   2.5892   2.6232   2.6945   2.7505
     2.9316

          k = 0.0649-0.0750 0.0000 ( 13990 PWs)   bands (ev):

   -69.6116 -69.5760 -69.5517 -69.5409 -69.5136 -69.5052 -69.4916 -69.4761
   -69.4692 -69.4529 -69.4360 -69.4124 -41.1552 -41.1302 -41.1149 -41.0973
   -41.0780 -41.0739 -41.0511 -41.0053 -40.9791 -40.9628 -40.9461 -40.9149
   -40.9003 -40.8647 -40.8457 -40.8161 -40.7997 -40.7860 -40.7761 -40.7634
   -40.7449 -40.7391 -40.7316 -40.7093 -40.6982 -40.6915 -40.6650 -40.6445
   -40.6431 -40.6355 -40.6025 -40.5961 -40.5902 -40.5671 -40.5344 -40.4962
   -13.2646  -6.3959  -3.3754  -2.8724  -2.7717  -2.0702  -1.4350  -1.3107
    -1.0341  -0.8676  -0.7260  -0.5986  -0.4188  -0.3416  -0.1890  -0.1194
    -0.0576   0.0581   0.1585   0.3675   0.4142   0.4500   0.5511   0.6661
     0.7026   0.8226   0.9170   0.9989   1.1064   1.1971   1.2618   1.3507
     1.3673   1.4654   1.5259   1.5768   1.6191   1.7365   1.8024   1.9057
     2.0547   2.0945   2.2492   2.2909   2.5504   2.6387   2.7347   2.7512
     2.8067

          k =-0.0974 0.0562 0.0000 ( 14010 PWs)   bands (ev):

   -69.6036 -69.5926 -69.5472 -69.5224 -69.5195 -69.5180 -69.4855 -69.4712
   -69.4683 -69.4666 -69.4224 -69.4198 -41.1541 -41.1317 -41.1261 -41.1082
   -41.0870 -41.0808 -41.0105 -40.9998 -40.9761 -40.9738 -40.9521 -40.9329
   -40.8633 -40.8465 -40.8120 -40.8104 -40.8088 -40.7746 -40.7679 -40.7651
   -40.7608 -40.7581 -40.7369 -40.7302 -40.7113 -40.7109 -40.6728 -40.6541
   -40.6393 -40.6275 -40.6143 -40.6064 -40.5790 -40.5681 -40.5003 -40.4988
   -13.2646  -6.3952  -3.3938  -2.7328  -2.7173  -2.4785  -1.2994  -1.1843
    -0.8155  -0.7908  -0.7756  -0.7737  -0.5586  -0.4612  -0.1198  -0.0387
     0.0327   0.0498   0.1490   0.1853   0.4995   0.6010   0.6208   0.6299
     0.7043   0.7621   0.9320   1.0477   1.1447   1.2672   1.2740   1.3395
     1.3870   1.4208   1.5393   1.6314   1.6535   1.7468   1.7479   1.9022
     1.9579   2.2022   2.2152   2.2345   2.5948   2.6943   2.7145   2.7361
     2.7816

          k =-0.0974 0.0937 0.0000 ( 13990 PWs)   bands (ev):

   -69.6116 -69.5759 -69.5516 -69.5410 -69.5135 -69.5052 -69.4916 -69.4761
   -69.4692 -69.4529 -69.4359 -69.4124 -41.1553 -41.1301 -41.1148 -41.0973
   -41.0781 -41.0738 -41.0512 -41.0054 -40.9788 -40.9627 -40.9463 -40.9149
   -40.9003 -40.8648 -40.8457 -40.8160 -40.7998 -40.7862 -40.7759 -40.7634
   -40.7450 -40.7390 -40.7317 -40.7093 -40.6984 -40.6915 -40.6650 -40.6446
   -40.6428 -40.6355 -40.6025 -40.5962 -40.5901 -40.5670 -40.5344 -40.4962
   -13.2646  -6.3959  -3.3754  -2.8724  -2.7717  -2.0702  -1.4350  -1.3107
    -1.0341  -0.8676  -0.7259  -0.5985  -0.4189  -0.3415  -0.1890  -0.1194
    -0.0576   0.0581   0.1585   0.3675   0.4141   0.4500   0.5512   0.6660
     0.7027   0.8226   0.9171   0.9989   1.1063   1.1972   1.2619   1.3506
     1.3672   1.4653   1.5260   1.5767   1.6192   1.7365   1.8024   1.9057
     2.0547   2.0945   2.2492   2.2910   2.5503   2.6388   2.7346   2.7513
     2.8068

          k =-0.0974 0.1312 0.0000 ( 13990 PWs)   bands (ev):

   -69.6116 -69.5758 -69.5518 -69.5409 -69.5137 -69.5052 -69.4912 -69.4761
   -69.4694 -69.4530 -69.4359 -69.4124 -41.1554 -41.1302 -41.1148 -41.0974
   -41.0780 -41.0737 -41.0510 -41.0053 -40.9789 -40.9627 -40.9463 -40.9149
   -40.9004 -40.8648 -40.8458 -40.8160 -40.7999 -40.7860 -40.7761 -40.7632
   -40.7451 -40.7391 -40.7316 -40.7095 -40.6981 -40.6916 -40.6649 -40.6447
   -40.6430 -40.6354 -40.6024 -40.5961 -40.5902 -40.5671 -40.5344 -40.4962
   -13.2646  -6.3959  -3.3754  -2.8725  -2.7717  -2.0701  -1.4350  -1.3106
    -1.0342  -0.8676  -0.7259  -0.5985  -0.4189  -0.3416  -0.1891  -0.1194
    -0.0576   0.0581   0.1585   0.3675   0.4141   0.4500   0.5511   0.6660
     0.7027   0.8226   0.9171   0.9989   1.1063   1.1972   1.2618   1.3506
     1.3672   1.4654   1.5259   1.5768   1.6192   1.7365   1.8024   1.9056
     2.0547   2.0945   2.2492   2.2910   2.5502   2.6388   2.7347   2.7512
     2.8068

          k =-0.0974-0.0562 0.0000 ( 14010 PWs)   bands (ev):

   -69.6037 -69.5924 -69.5472 -69.5229 -69.5195 -69.5178 -69.4849 -69.4716
   -69.4679 -69.4671 -69.4217 -69.4204 -41.1544 -41.1318 -41.1258 -41.1083
   -41.0869 -41.0807 -41.0102 -40.9996 -40.9761 -40.9740 -40.9518 -40.9332
   -40.8633 -40.8466 -40.8120 -40.8107 -40.8087 -40.7744 -40.7680 -40.7654
   -40.7608 -40.7579 -40.7369 -40.7302 -40.7115 -40.7105 -40.6730 -40.6539
   -40.6395 -40.6275 -40.6141 -40.6066 -40.5787 -40.5683 -40.5001 -40.4990
   -13.2646  -6.3952  -3.3937  -2.7329  -2.7175  -2.4784  -1.2993  -1.1844
    -0.8155  -0.7907  -0.7757  -0.7736  -0.5586  -0.4612  -0.1201  -0.0385
     0.0328   0.0498   0.1491   0.1853   0.4996   0.6012   0.6207   0.6298
     0.7043   0.7619   0.9321   1.0478   1.1446   1.2673   1.2739   1.3395
     1.3869   1.4207   1.5393   1.6315   1.6536   1.7468   1.7477   1.9022
     1.9579   2.2021   2.2151   2.2346   2.5947   2.6943   2.7146   2.7361
     2.7815

     the Fermi energy is     2.0474 ev

!    total energy              =   -2140.59908226 Ry
     Harris-Foulkes estimate   =   -2140.59904560 Ry
     estimated scf accuracy    <       0.00000858 Ry

     The total energy is the sum of the following terms:

     one-electron contribution =  -20088.66954411 Ry
     hartree contribution      =   10042.13322568 Ry
     xc contribution           =    -288.98897040 Ry
     ewald contribution        =    8195.05764894 Ry
     electric field correction =       0.00045036 Ry
     smearing contrib. (-TS)   =      -0.13189273 Ry

     convergence has been achieved in  43 iterations
 
 BEEF-vdW xc energy contributions
           1 :   -250.043557048977     
           2 :    225.043594120816     
           3 :   -183.248211449078     
           4 :    137.136523422471     
           5 :   -98.1029473050828     
           6 :    72.3606326050586     
           7 :   -59.7383434393974     
           8 :    55.4585919493636     
           9 :   -53.5537244053058     
          10 :    49.9646378518753     
          11 :   -43.8799424758672     
          12 :    37.0388761359595     
          13 :   -31.8455092928729     
          14 :    29.5949324484967     
          15 :   -29.7824979371391     
          16 :    30.6674323975887     
          17 :   -30.5201168369334     
          18 :    28.6775680903438     
          19 :   -25.7846930485855     
          20 :    23.1791977595807     
          21 :   -21.9169090930513     
          22 :    22.0997686588439     
          23 :   -22.9035130002257     
          24 :    23.2077408276545     
          25 :   -22.3545400355812     
          26 :    20.5290953392131     
          27 :   -18.5570487969439     
          28 :    17.3084831589977     
          29 :   -17.1297252151070     
          30 :    17.6611892489854     
          31 :   -24.9034564185568     
          32 :   -17.9029010917950     

     Forces acting on atoms (Ry/au):


     negative rho (up, down):  1.454E-02 0.000E+00
     atom    1 type  1   force =     0.00000776    0.00000726    0.00085478
     atom    2 type  1   force =    -0.00000606   -0.00007489   -0.00047494
     atom    3 type  1   force =    -0.00006917    0.00003022   -0.00047189
     atom    4 type  1   force =     0.00006575    0.00004192   -0.00046705
     atom    5 type  1   force =     0.00368275   -0.00211599    0.00359461
     atom    6 type  1   force =    -0.00370135   -0.00212744    0.00361089
     atom    7 type  1   force =    -0.00000571   -0.00000282   -0.01498510
     atom    8 type  1   force =     0.00000521    0.00425484    0.00359448
     atom    9 type  1   force =    -0.04131088   -0.02384737   -0.01244769
     atom   10 type  1   force =     0.04131999   -0.02385849   -0.01242626
     atom   11 type  1   force =    -0.00000287    0.04770210   -0.01241718
     atom   12 type  1   force =    -0.00000388   -0.00000145   -0.03091945
     atom   13 type  2   force =     0.00001574   -0.00000514   -0.06732134
     atom   14 type  3   force =     0.00000272   -0.00000275    0.14027613

     Total force =     0.180157     Total SCF correction =     0.008739


     entering subroutine stress ...


     negative rho (up, down):  1.454E-02 0.000E+00
          total   stress  (Ry/bohr**3)                   (kbar)     P=   -8.24
  -0.00016221   0.00000004   0.00000009        -23.86      0.01      0.01
   0.00000004  -0.00016220  -0.00000002          0.01    -23.86     -0.00
   0.00000009  -0.00000002   0.00015628          0.01     -0.00     22.99


     BFGS Geometry Optimization

     number of scf cycles    =   1
     number of bfgs steps    =   0

     energy   new            =   -2140.5990822636 Ry

     new trust radius        =       0.1402761316 bohr
     new conv_thr            =       0.0000099958 Ry


ATOMIC_POSITIONS (crystal)
Cr1      0.166666667   0.166666667   0.413381306    0   0   0
Cr1      0.666666667   0.166666667   0.413381306    0   0   0
Cr1      0.166666667   0.666666667   0.413381306    0   0   0
Cr1      0.666666667   0.666666667   0.413381306    0   0   0
Cr1      0.833333333   0.333333333   0.500000000    0   0   0
Cr1      0.333333333   0.333333333   0.500000000    0   0   0
Cr1      0.833333333   0.833333333   0.500000000    0   0   0
Cr1      0.333333333   0.833333333   0.500000000    0   0   0
Cr1     -0.002839681  -0.002839060   0.586346399
Cr1      0.505680342  -0.002840384   0.586346867
Cr1     -0.002839794   0.505678996   0.586347066
Cr1      0.499999686   0.499999828   0.585942325
S1       0.166668595   0.166666054   0.650708302
H1       0.166667111   0.166666340   0.706922201



     Writing output data file calc.save
     Check: negative starting charge=   -0.014775
     NEW-OLD atomic charge density approx. for the potential

     Check: negative/imaginary core charge=   -0.000004    0.000000
     Check: negative starting charge=   -0.013958

     negative rho (up, down):  1.374E-02 0.000E+00
 
     Adding external electric field

     Computed dipole along edir(3) : 
        Dipole                0.2971 Ry au,          0.7552 Debye
        Dipole field          0.0010 Ry au
 
        Potential amp.       -0.0894 Ry
        Total length         44.5710 bohr
 

     total cpu time spent up to now is      777.7 secs

     per-process dynamical memory:    69.8 Mb

     Self-consistent Calculation

     iteration #  1     ecut=    36.75 Ry     beta=0.30
     Davidson diagonalization with overlap
     ethr =  1.00E-06,  avg # of iterations = 11.9

     negative rho (up, down):  1.371E-02 0.000E+00
 
     Adding external electric field

     Computed dipole along edir(3) : 
        Dipole                1.3753 Ry au,          3.4956 Debye
        Dipole field          0.0046 Ry au
 
        Potential amp.       -0.4137 Ry
        Total length         44.5710 bohr
 

     total cpu time spent up to now is      804.3 secs

     total energy              =   -2140.49002683 Ry
     Harris-Foulkes estimate   =   -2140.61693104 Ry
     estimated scf accuracy    <       0.26663055 Ry

     iteration #  2     ecut=    36.75 Ry     beta=0.30
     Davidson diagonalization with overlap
     ethr =  1.52E-04,  avg # of iterations =  6.5

     negative rho (up, down):  1.567E-02 0.000E+00
 
     Adding external electric field

     Computed dipole along edir(3) : 
        Dipole                0.2866 Ry au,          0.7285 Debye
        Dipole field          0.0010 Ry au
 
        Potential amp.       -0.0862 Ry
        Total length         44.5710 bohr
 

     total cpu time spent up to now is      824.3 secs

     total energy              =   -2138.57987513 Ry
     Harris-Foulkes estimate   =   -2142.89788969 Ry
     estimated scf accuracy    <     264.67067852 Ry

     iteration #  3     ecut=    36.75 Ry     beta=0.30
     Davidson diagonalization with overlap
     ethr =  1.52E-04,  avg # of iterations =  7.6

     negative rho (up, down):  1.482E-02 0.000E+00
 
     Adding external electric field

     Computed dipole along edir(3) : 
        Dipole                0.3405 Ry au,          0.8655 Debye
        Dipole field          0.0011 Ry au
 
        Potential amp.       -0.1024 Ry
        Total length         44.5710 bohr
 

     total cpu time spent up to now is      846.1 secs

     total energy              =   -2140.50558797 Ry
     Harris-Foulkes estimate   =   -2140.72700600 Ry
     estimated scf accuracy    <       5.12079427 Ry

     iteration #  4     ecut=    36.75 Ry     beta=0.30
     Davidson diagonalization with overlap
     ethr =  1.52E-04,  avg # of iterations =  5.2

     negative rho (up, down):  1.434E-02 0.000E+00
 
     Adding external electric field

     Computed dipole along edir(3) : 
        Dipole                0.3253 Ry au,          0.8268 Debye
        Dipole field          0.0011 Ry au
 
        Potential amp.       -0.0978 Ry
        Total length         44.5710 bohr
 

     total cpu time spent up to now is      862.9 secs

     total energy              =   -2140.60971511 Ry
     Harris-Foulkes estimate   =   -2140.61971290 Ry
     estimated scf accuracy    <       0.10187225 Ry

     iteration #  5     ecut=    36.75 Ry     beta=0.30
     Davidson diagonalization with overlap
     ethr =  5.82E-05,  avg # of iterations =  1.6

     negative rho (up, down):  1.405E-02 0.000E+00
 
     Adding external electric field

     Computed dipole along edir(3) : 
        Dipole                0.2961 Ry au,          0.7526 Debye
        Dipole field          0.0010 Ry au
 
        Potential amp.       -0.0891 Ry
        Total length         44.5710 bohr
 

     total cpu time spent up to now is      876.0 secs

     total energy              =   -2140.61302984 Ry
     Harris-Foulkes estimate   =   -2140.61421649 Ry
     estimated scf accuracy    <       0.00616578 Ry

     iteration #  6     ecut=    36.75 Ry     beta=0.30
     Davidson diagonalization with overlap
     ethr =  3.52E-06,  avg # of iterations =  5.9

     negative rho (up, down):  1.390E-02 0.000E+00
 
     Adding external electric field

     Computed dipole along edir(3) : 
        Dipole                0.2965 Ry au,          0.7535 Debye
        Dipole field          0.0010 Ry au
 
        Potential amp.       -0.0892 Ry
        Total length         44.5710 bohr
 

     total cpu time spent up to now is      895.2 secs

     total energy              =   -2140.61540186 Ry
     Harris-Foulkes estimate   =   -2140.61789072 Ry
     estimated scf accuracy    <       0.04256408 Ry

     iteration #  7     ecut=    36.75 Ry     beta=0.30
     Davidson diagonalization with overlap
     ethr =  3.52E-06,  avg # of iterations =  5.9

     negative rho (up, down):  1.380E-02 0.000E+00
 
     Adding external electric field

     Computed dipole along edir(3) : 
        Dipole                0.3139 Ry au,          0.7978 Debye
        Dipole field          0.0011 Ry au
 
        Potential amp.       -0.0944 Ry
        Total length         44.5710 bohr
 

     total cpu time spent up to now is      911.4 secs

     total energy              =   -2140.61558342 Ry
     Harris-Foulkes estimate   =   -2140.61695188 Ry
     estimated scf accuracy    <       0.01922231 Ry

     iteration #  8     ecut=    36.75 Ry     beta=0.30
     Davidson diagonalization with overlap
     ethr =  3.52E-06,  avg # of iterations =  3.3

     negative rho (up, down):  1.375E-02 0.000E+00
 
     Adding external electric field

     Computed dipole along edir(3) : 
        Dipole                0.3152 Ry au,          0.8012 Debye
        Dipole field          0.0011 Ry au
 
        Potential amp.       -0.0948 Ry
        Total length         44.5710 bohr
 

     total cpu time spent up to now is      925.4 secs

     total energy              =   -2140.61579841 Ry
     Harris-Foulkes estimate   =   -2140.61604691 Ry
     estimated scf accuracy    <       0.00365536 Ry

     iteration #  9     ecut=    36.75 Ry     beta=0.30
     Davidson diagonalization with overlap
     ethr =  2.09E-06,  avg # of iterations =  5.1

     negative rho (up, down):  1.372E-02 0.000E+00
 
     Adding external electric field

     Computed dipole along edir(3) : 
        Dipole                0.3155 Ry au,          0.8019 Debye
        Dipole field          0.0011 Ry au
 
        Potential amp.       -0.0949 Ry
        Total length         44.5710 bohr
 

     total cpu time spent up to now is      941.3 secs

     total energy              =   -2140.61624067 Ry
     Harris-Foulkes estimate   =   -2140.61634360 Ry
     estimated scf accuracy    <       0.00312542 Ry

     iteration # 10     ecut=    36.75 Ry     beta=0.30
     Davidson diagonalization with overlap
     ethr =  1.79E-06,  avg # of iterations =  1.1

     negative rho (up, down):  1.371E-02 0.000E+00
 
     Adding external electric field

     Computed dipole along edir(3) : 
        Dipole                0.3157 Ry au,          0.8025 Debye
        Dipole field          0.0011 Ry au
 
        Potential amp.       -0.0950 Ry
        Total length         44.5710 bohr
 

     total cpu time spent up to now is      954.0 secs

     total energy              =   -2140.61620863 Ry
     Harris-Foulkes estimate   =   -2140.61634562 Ry
     estimated scf accuracy    <       0.00278955 Ry

     iteration # 11     ecut=    36.75 Ry     beta=0.30
     Davidson diagonalization with overlap
     ethr =  1.59E-06,  avg # of iterations =  2.0

     negative rho (up, down):  1.371E-02 0.000E+00
 
     Adding external electric field

     Computed dipole along edir(3) : 
        Dipole                0.3154 Ry au,          0.8017 Debye
        Dipole field          0.0011 Ry au
 
        Potential amp.       -0.0949 Ry
        Total length         44.5710 bohr
 

     total cpu time spent up to now is      966.9 secs

     total energy              =   -2140.61618301 Ry
     Harris-Foulkes estimate   =   -2140.61628844 Ry
     estimated scf accuracy    <       0.00136838 Ry

     iteration # 12     ecut=    36.75 Ry     beta=0.30
     Davidson diagonalization with overlap
     ethr =  7.82E-07,  avg # of iterations =  3.2

     negative rho (up, down):  1.371E-02 0.000E+00
 
     Adding external electric field

     Computed dipole along edir(3) : 
        Dipole                0.3145 Ry au,          0.7995 Debye
        Dipole field          0.0011 Ry au
 
        Potential amp.       -0.0946 Ry
        Total length         44.5710 bohr
 

     total cpu time spent up to now is      980.7 secs

     total energy              =   -2140.61622006 Ry
     Harris-Foulkes estimate   =   -2140.61624096 Ry
     estimated scf accuracy    <       0.00028085 Ry

     iteration # 13     ecut=    36.75 Ry     beta=0.30
     Davidson diagonalization with overlap
     ethr =  1.60E-07,  avg # of iterations =  5.0

     negative rho (up, down):  1.371E-02 0.000E+00
 
     Adding external electric field

     Computed dipole along edir(3) : 
        Dipole                0.3138 Ry au,          0.7976 Debye
        Dipole field          0.0011 Ry au
 
        Potential amp.       -0.0944 Ry
        Total length         44.5710 bohr
 

     total cpu time spent up to now is      997.5 secs

     total energy              =   -2140.61625101 Ry
     Harris-Foulkes estimate   =   -2140.61627568 Ry
     estimated scf accuracy    <       0.00048598 Ry

     iteration # 14     ecut=    36.75 Ry     beta=0.30
     Davidson diagonalization with overlap
     ethr =  1.60E-07,  avg # of iterations =  1.0

     negative rho (up, down):  1.371E-02 0.000E+00
 
     Adding external electric field

     Computed dipole along edir(3) : 
        Dipole                0.3133 Ry au,          0.7963 Debye
        Dipole field          0.0011 Ry au
 
        Potential amp.       -0.0942 Ry
        Total length         44.5710 bohr
 

     total cpu time spent up to now is     1010.1 secs

     total energy              =   -2140.61624731 Ry
     Harris-Foulkes estimate   =   -2140.61625982 Ry
     estimated scf accuracy    <       0.00020860 Ry

     iteration # 15     ecut=    36.75 Ry     beta=0.30
     Davidson diagonalization with overlap
     ethr =  1.19E-07,  avg # of iterations =  3.8

     negative rho (up, down):  1.371E-02 0.000E+00
 
     Adding external electric field

     Computed dipole along edir(3) : 
        Dipole                0.3151 Ry au,          0.8010 Debye
        Dipole field          0.0011 Ry au
 
        Potential amp.       -0.0948 Ry
        Total length         44.5710 bohr
 

     total cpu time spent up to now is     1023.9 secs

     total energy              =   -2140.61625438 Ry
     Harris-Foulkes estimate   =   -2140.61625448 Ry
     estimated scf accuracy    <       0.00013008 Ry

     iteration # 16     ecut=    36.75 Ry     beta=0.30
     Davidson diagonalization with overlap
     ethr =  7.43E-08,  avg # of iterations =  3.3

     negative rho (up, down):  1.372E-02 0.000E+00
 
     Adding external electric field

     Computed dipole along edir(3) : 
        Dipole                0.3145 Ry au,          0.7994 Debye
        Dipole field          0.0011 Ry au
 
        Potential amp.       -0.0946 Ry
        Total length         44.5710 bohr
 

     total cpu time spent up to now is     1037.6 secs

     total energy              =   -2140.61625835 Ry
     Harris-Foulkes estimate   =   -2140.61626154 Ry
     estimated scf accuracy    <       0.00012419 Ry

     iteration # 17     ecut=    36.75 Ry     beta=0.30
     Davidson diagonalization with overlap
     ethr =  7.10E-08,  avg # of iterations =  1.6

     negative rho (up, down):  1.372E-02 0.000E+00
 
     Adding external electric field

     Computed dipole along edir(3) : 
        Dipole                0.3151 Ry au,          0.8008 Debye
        Dipole field          0.0011 Ry au
 
        Potential amp.       -0.0948 Ry
        Total length         44.5710 bohr
 

     total cpu time spent up to now is     1050.7 secs

     total energy              =   -2140.61625981 Ry
     Harris-Foulkes estimate   =   -2140.61626124 Ry
     estimated scf accuracy    <       0.00005220 Ry

     iteration # 18     ecut=    36.75 Ry     beta=0.30
     Davidson diagonalization with overlap
     ethr =  2.98E-08,  avg # of iterations =  4.3

     negative rho (up, down):  1.372E-02 0.000E+00
 
[...]
     0.9216   1.0242   1.0823   1.1803   1.2321   1.3522   1.4098   1.4555
     1.4950   1.5686   1.7212   1.8038   1.8393   1.9120   1.9533   2.0264
     2.1725   2.2021   2.2552   2.3874   2.4257   2.4937   2.6917   2.8698
     2.8727

          k = 0.0649-0.0375 0.0000 ( 14026 PWs)   bands (ev):

   -69.7320 -69.6638 -69.6515 -69.6051 -69.5878 -69.5867 -69.5670 -69.5486
   -69.5005 -69.4857 -69.4712 -69.4674 -41.4415 -41.2966 -41.2879 -41.2625
   -41.2104 -41.1799 -41.1591 -41.0906 -41.0520 -41.0441 -41.0180 -40.9953
   -40.9851 -40.9579 -40.9252 -40.8876 -40.8642 -40.8620 -40.8502 -40.8184
   -40.8016 -40.7788 -40.7749 -40.7320 -40.7318 -40.7199 -40.7042 -40.6965
   -40.6760 -40.6442 -40.6392 -40.5980 -40.5869 -40.5556 -40.5157 -40.5130
   -12.7018  -5.8400  -3.7325  -2.7901  -2.4065  -1.9761  -1.8038  -1.2960
    -1.2518  -1.2187  -1.1015  -0.9179  -0.8683  -0.5852  -0.5235  -0.4390
    -0.2854  -0.1760  -0.1320   0.1610   0.2668   0.3632   0.5201   0.6099
     0.8576   1.0036   1.0309   1.0323   1.1531   1.2754   1.3800   1.4097
     1.4630   1.5430   1.6951   1.7616   1.7905   1.9015   1.9511   2.0145
     2.0689   2.0940   2.1443   2.2650   2.3568   2.5425   2.6896   2.7198
     2.9052

          k = 0.0649 0.0000 0.0000 ( 14027 PWs)   bands (ev):

   -69.7395 -69.6580 -69.6535 -69.6060 -69.5879 -69.5812 -69.5669 -69.5542
   -69.4938 -69.4864 -69.4757 -69.4639 -41.4552 -41.3063 -41.2996 -41.2806
   -41.2155 -41.1955 -41.1784 -41.0973 -41.0607 -41.0558 -41.0127 -40.9947
   -40.9907 -40.9707 -40.9278 -40.8869 -40.8683 -40.8519 -40.8351 -40.8068
   -40.7971 -40.7856 -40.7616 -40.7327 -40.7242 -40.7112 -40.6968 -40.6777
   -40.6546 -40.6290 -40.6206 -40.6041 -40.5821 -40.5571 -40.5195 -40.5061
   -12.7062  -5.8670  -3.9091  -2.7344  -2.4642  -1.9936  -1.6490  -1.6018
    -1.3481  -1.2426  -1.1553  -1.1074  -0.8191  -0.6321  -0.5871  -0.5397
    -0.3372  -0.3292  -0.2274   0.1999   0.2212   0.3330   0.5832   0.7115
     0.9216   1.0242   1.0822   1.1803   1.2321   1.3522   1.4098   1.4555
     1.4950   1.5687   1.7212   1.8039   1.8393   1.9120   1.9533   2.0264
     2.1725   2.2021   2.2552   2.3874   2.4256   2.4937   2.6917   2.8698
     2.8727

          k = 0.0649 0.0375 0.0000 ( 14026 PWs)   bands (ev):

   -69.7320 -69.6638 -69.6515 -69.6051 -69.5878 -69.5866 -69.5669 -69.5486
   -69.5005 -69.4857 -69.4712 -69.4674 -41.4415 -41.2966 -41.2879 -41.2625
   -41.2104 -41.1799 -41.1592 -41.0906 -41.0520 -41.0441 -41.0180 -40.9953
   -40.9852 -40.9579 -40.9252 -40.8876 -40.8642 -40.8620 -40.8502 -40.8184
   -40.8016 -40.7788 -40.7749 -40.7320 -40.7318 -40.7199 -40.7042 -40.6966
   -40.6760 -40.6443 -40.6392 -40.5980 -40.5869 -40.5556 -40.5157 -40.5130
   -12.7018  -5.8400  -3.7325  -2.7901  -2.4065  -1.9761  -1.8038  -1.2960
    -1.2518  -1.2187  -1.1015  -0.9179  -0.8683  -0.5852  -0.5235  -0.4390
    -0.2854  -0.1760  -0.1320   0.1610   0.2668   0.3632   0.5200   0.6099
     0.8576   1.0036   1.0309   1.0323   1.1531   1.2754   1.3800   1.4097
     1.4630   1.5430   1.6951   1.7616   1.7905   1.9014   1.9511   2.0145
     2.0689   2.0940   2.1442   2.2650   2.3568   2.5425   2.6896   2.7198
     2.9052

          k = 0.0649-0.1500 0.0000 ( 13990 PWs)   bands (ev):

   -69.7126 -69.6757 -69.6451 -69.6197 -69.5928 -69.5826 -69.5664 -69.5337
   -69.5086 -69.4915 -69.4780 -69.4610 -41.4079 -41.2812 -41.2603 -41.2262
   -41.1840 -41.1434 -41.1158 -41.0850 -41.0465 -41.0221 -41.0110 -41.0011
   -40.9788 -40.9456 -40.9275 -40.9006 -40.8819 -40.8696 -40.8510 -40.8340
   -40.8059 -40.7940 -40.7758 -40.7653 -40.7544 -40.7386 -40.7319 -40.7086
   -40.6961 -40.6585 -40.6515 -40.6054 -40.5878 -40.5692 -40.5453 -40.5079
   -12.6931  -5.7882  -3.2771  -2.7154  -2.4885  -2.0983  -1.4844  -1.3972
    -1.1318  -0.9950  -0.9107  -0.8026  -0.5261  -0.4053  -0.3042  -0.2338
    -0.1128  -0.0175   0.0359   0.1863   0.2820   0.3687   0.4391   0.5866
     0.6371   0.6732   0.8073   0.9219   0.9874   1.0434   1.1677   1.2067
     1.2283   1.3686   1.4507   1.5519   1.5805   1.6726   1.7913   1.9240
     2.0194   2.0737   2.2242   2.2904   2.4087   2.5964   2.6735   2.7473
     2.8483

          k = 0.0649-0.1125 0.0000 ( 13962 PWs)   bands (ev):

   -69.6921 -69.6889 -69.6414 -69.6320 -69.5947 -69.5808 -69.5652 -69.5176
   -69.5125 -69.5053 -69.4795 -69.4579 -41.3846 -41.2774 -41.2587 -41.1937
   -41.1334 -41.1323 -41.0914 -41.0885 -41.0752 -41.0228 -41.0086 -40.9987
   -40.9425 -40.9419 -40.9412 -40.8951 -40.8905 -40.8820 -40.8546 -40.8536
   -40.8389 -40.7961 -40.7855 -40.7714 -40.7509 -40.7488 -40.7346 -40.7084
   -40.7065 -40.6768 -40.6109 -40.6063 -40.6005 -40.5860 -40.5831 -40.5039
   -12.6887  -5.7633  -2.9413  -2.7172  -2.2404  -2.1755  -1.9961  -1.1021
    -1.0455  -0.9494  -0.7512  -0.5408  -0.4054  -0.3008  -0.1718  -0.0265
     0.0610   0.0954   0.1028   0.1745   0.2105   0.2681   0.3375   0.5043
     0.5230   0.6305   0.7710   0.8006   0.8817   0.8905   0.9291   0.9958
     1.0662   1.1217   1.2022   1.3855   1.4200   1.5843   1.9387   1.9415
     2.1093   2.1797   2.2035   2.2190   2.3640   2.5256   2.7526   2.8453
     2.8686

          k = 0.0649-0.0750 0.0000 ( 13990 PWs)   bands (ev):

   -69.7126 -69.6757 -69.6451 -69.6197 -69.5928 -69.5826 -69.5664 -69.5337
   -69.5086 -69.4915 -69.4780 -69.4610 -41.4079 -41.2812 -41.2603 -41.2262
   -41.1840 -41.1434 -41.1158 -41.0850 -41.0465 -41.0221 -41.0110 -41.0011
   -40.9788 -40.9456 -40.9275 -40.9006 -40.8819 -40.8696 -40.8510 -40.8340
   -40.8059 -40.7940 -40.7758 -40.7653 -40.7544 -40.7385 -40.7319 -40.7086
   -40.6961 -40.6585 -40.6515 -40.6054 -40.5878 -40.5692 -40.5453 -40.5079
   -12.6931  -5.7882  -3.2771  -2.7155  -2.4885  -2.0983  -1.4844  -1.3972
    -1.1318  -0.9950  -0.9107  -0.8026  -0.5261  -0.4053  -0.3042  -0.2338
    -0.1128  -0.0175   0.0359   0.1863   0.2821   0.3687   0.4391   0.5866
     0.6371   0.6732   0.8073   0.9219   0.9874   1.0434   1.1677   1.2067
     1.2283   1.3686   1.4507   1.5519   1.5805   1.6726   1.7913   1.9240
     2.0194   2.0737   2.2242   2.2904   2.4087   2.5964   2.6735   2.7473
     2.8483

          k =-0.0974 0.0562 0.0000 ( 14010 PWs)   bands (ev):

   -69.7086 -69.6841 -69.6448 -69.6094 -69.5934 -69.5879 -69.5669 -69.5277
   -69.5205 -69.4855 -69.4714 -69.4674 -41.4089 -41.2841 -41.2544 -41.2290
   -41.1963 -41.1438 -41.1095 -41.0854 -41.0336 -41.0316 -41.0111 -40.9968
   -40.9787 -40.9355 -40.9222 -40.8984 -40.8794 -40.8788 -40.8400 -40.8079
   -40.8033 -40.7914 -40.7897 -40.7713 -40.7486 -40.7474 -40.7374 -40.7285
   -40.7123 -40.6916 -40.6375 -40.6090 -40.5767 -40.5477 -40.5395 -40.5122
   -12.6931  -5.7871  -3.2216  -2.7695  -2.4326  -2.3747  -1.3829  -1.2194
    -0.9776  -0.9758  -0.8667  -0.8500  -0.7857  -0.4711  -0.3054  -0.1729
    -0.1150  -0.0465   0.0665   0.1767   0.2905   0.4117   0.5703   0.6106
     0.6321   0.6848   0.7734   0.9155   0.9505   1.1159   1.1561   1.2727
     1.2743   1.3346   1.4683   1.5917   1.6231   1.6899   1.7340   1.8089
     2.0313   2.0781   2.1982   2.3103   2.5015   2.5793   2.6148   2.7414
     2.8577

          k =-0.0974 0.0937 0.0000 ( 13990 PWs)   bands (ev):

   -69.7126 -69.6757 -69.6451 -69.6197 -69.5928 -69.5826 -69.5664 -69.5337
   -69.5086 -69.4915 -69.4780 -69.4610 -41.4079 -41.2812 -41.2603 -41.2262
   -41.1840 -41.1434 -41.1158 -41.0850 -41.0465 -41.0221 -41.0110 -41.0011
   -40.9788 -40.9456 -40.9275 -40.9006 -40.8819 -40.8696 -40.8510 -40.8340
   -40.8059 -40.7940 -40.7758 -40.7653 -40.7544 -40.7385 -40.7319 -40.7086
   -40.6961 -40.6585 -40.6515 -40.6054 -40.5878 -40.5692 -40.5453 -40.5079
   -12.6931  -5.7882  -3.2771  -2.7154  -2.4885  -2.0983  -1.4844  -1.3972
    -1.1318  -0.9951  -0.9107  -0.8026  -0.5261  -0.4053  -0.3043  -0.2338
    -0.1128  -0.0175   0.0359   0.1863   0.2820   0.3687   0.4391   0.5866
     0.6371   0.6732   0.8074   0.9220   0.9874   1.0434   1.1677   1.2067
     1.2282   1.3686   1.4507   1.5519   1.5805   1.6726   1.7913   1.9240
     2.0194   2.0737   2.2243   2.2904   2.4086   2.5964   2.6735   2.7472
     2.8483

          k =-0.0974 0.1312 0.0000 ( 13990 PWs)   bands (ev):

   -69.7126 -69.6757 -69.6451 -69.6197 -69.5928 -69.5826 -69.5664 -69.5337
   -69.5086 -69.4915 -69.4780 -69.4610 -41.4079 -41.2812 -41.2603 -41.2262
   -41.1840 -41.1434 -41.1158 -41.0850 -41.0465 -41.0221 -41.0110 -41.0011
   -40.9788 -40.9456 -40.9275 -40.9006 -40.8819 -40.8696 -40.8510 -40.8340
   -40.8059 -40.7940 -40.7758 -40.7653 -40.7544 -40.7385 -40.7319 -40.7086
   -40.6961 -40.6585 -40.6515 -40.6054 -40.5878 -40.5692 -40.5453 -40.5079
   -12.6931  -5.7882  -3.2771  -2.7154  -2.4885  -2.0983  -1.4844  -1.3972
    -1.1318  -0.9950  -0.9107  -0.8026  -0.5261  -0.4053  -0.3042  -0.2338
    -0.1128  -0.0175   0.0359   0.1863   0.2820   0.3687   0.4391   0.5866
     0.6371   0.6732   0.8073   0.9220   0.9874   1.0434   1.1677   1.2067
     1.2283   1.3686   1.4507   1.5519   1.5805   1.6726   1.7913   1.9240
     2.0194   2.0737   2.2243   2.2904   2.4086   2.5964   2.6735   2.7472
     2.8483

          k =-0.0974-0.0562 0.0000 ( 14010 PWs)   bands (ev):

   -69.7086 -69.6841 -69.6448 -69.6094 -69.5934 -69.5879 -69.5669 -69.5278
   -69.5205 -69.4855 -69.4714 -69.4674 -41.4089 -41.2841 -41.2544 -41.2290
   -41.1963 -41.1438 -41.1095 -41.0854 -41.0336 -41.0316 -41.0111 -40.9968
   -40.9787 -40.9356 -40.9222 -40.8984 -40.8794 -40.8788 -40.8400 -40.8079
   -40.8033 -40.7914 -40.7897 -40.7713 -40.7487 -40.7473 -40.7374 -40.7285
   -40.7123 -40.6916 -40.6375 -40.6090 -40.5766 -40.5477 -40.5395 -40.5122
   -12.6931  -5.7871  -3.2216  -2.7695  -2.4326  -2.3747  -1.3829  -1.2194
    -0.9776  -0.9758  -0.8666  -0.8500  -0.7857  -0.4711  -0.3054  -0.1729
    -0.1150  -0.0465   0.0665   0.1767   0.2905   0.4117   0.5703   0.6107
     0.6321   0.6848   0.7734   0.9155   0.9506   1.1159   1.1560   1.2726
     1.2743   1.3346   1.4683   1.5917   1.6231   1.6899   1.7340   1.8089
     2.0313   2.0781   2.1982   2.3103   2.5015   2.5793   2.6148   2.7414
     2.8577

     the Fermi energy is     2.0125 ev

!    total energy              =   -2140.64434503 Ry
     Harris-Foulkes estimate   =   -2140.64434523 Ry
     estimated scf accuracy    <       0.00000002 Ry

     The total energy is the sum of the following terms:

     one-electron contribution =  -20070.72844165 Ry
     hartree contribution      =   10032.77034536 Ry
     xc contribution           =    -288.91050540 Ry
     ewald contribution        =    8186.34834925 Ry
     electric field correction =       0.00037478 Ry
     smearing contrib. (-TS)   =      -0.12446739 Ry

     convergence has been achieved in  20 iterations
 
 BEEF-vdW xc energy contributions
           1 :   -249.970681850180     
           2 :    224.939868995636     
           3 :   -183.097027784476     
           4 :    136.932215805937     
           5 :   -97.8437740356257     
           6 :    72.0485459627365     
           7 :   -59.3826273443524     
           8 :    55.0805937856078     
           9 :   -53.1893465685641     
          10 :    49.6582750881504     
          11 :   -43.6656605331221     
          12 :    36.9154052809165     
          13 :   -31.7644413014045     
          14 :    29.4800390824845     
          15 :   -29.5764357112779     
          16 :    30.3755948771339     
          17 :   -30.2151898954144     
          18 :    28.4538798862023     
          19 :   -25.6906004445550     
          20 :    23.1768910315955     
          21 :   -21.9016797956383     
          22 :    21.9675408549469     
          23 :   -22.6204193344457     
          24 :    22.8333423417302     
          25 :   -22.0037164624615     
          26 :    20.2998628955536     
          27 :   -18.4725766109914     
          28 :    17.3090857570906     
          29 :   -17.1167338791701     
          30 :    17.5628521845626     
          31 :   -24.8974935890325     
          32 :   -17.8842905582555     

     Forces acting on atoms (Ry/au):


     negative rho (up, down):  1.474E-02 0.000E+00
     atom    1 type  1   force =    -0.00000017    0.00000084    0.00823478
     atom    2 type  1   force =    -0.00000038   -0.00019418   -0.00229503
     atom    3 type  1   force =    -0.00016833    0.00009686   -0.00229504
     atom    4 type  1   force =     0.00016827    0.00009663   -0.00229677
     atom    5 type  1   force =     0.02241434   -0.01294152   -0.00178726
     atom    6 type  1   force =    -0.02241500   -0.01293861   -0.00178810
     atom    7 type  1   force =     0.00000194   -0.00000445    0.00657113
     atom    8 type  1   force =    -0.00000097    0.02588228   -0.00178956
     atom    9 type  1   force =    -0.00029263   -0.00016871   -0.00021775
     atom   10 type  1   force =     0.00028980   -0.00017061   -0.00021442
     atom   11 type  1   force =     0.00000114    0.00033702   -0.00021824
     atom   12 type  1   force =     0.00000036    0.00000158   -0.00077083
     atom   13 type  2   force =     0.00000143    0.00000375   -0.00032591
     atom   14 type  3   force =     0.00000020   -0.00000089   -0.00080701

     Total force =     0.001354     Total SCF correction =     0.000105


     entering subroutine stress ...


     negative rho (up, down):  1.474E-02 0.000E+00
          total   stress  (Ry/bohr**3)                   (kbar)     P=  -16.05
  -0.00015648  -0.00000000  -0.00000000        -23.02     -0.00     -0.00
  -0.00000000  -0.00015646   0.00000001         -0.00    -23.02      0.00
  -0.00000000   0.00000001  -0.00001446         -0.00      0.00     -2.13


     bfgs converged in  12 scf cycles and  11 bfgs steps
     (criteria: energy <  1.0E+00, force <  1.9E-03)

     End of BFGS Geometry Optimization

     Final energy   =   -2140.6443450309 Ry
Begin final coordinates

ATOMIC_POSITIONS (crystal)
Cr1      0.166666667   0.166666667   0.413381306    0   0   0
Cr1      0.666666667   0.166666667   0.413381306    0   0   0
Cr1      0.166666667   0.666666667   0.413381306    0   0   0
Cr1      0.666666667   0.666666667   0.413381306    0   0   0
Cr1      0.833333333   0.333333333   0.500000000    0   0   0
Cr1      0.333333333   0.333333333   0.500000000    0   0   0
Cr1      0.833333333   0.833333333   0.500000000    0   0   0
Cr1      0.333333333   0.833333333   0.500000000    0   0   0
Cr1     -0.008345573  -0.008345602   0.590206760
Cr1      0.516697818  -0.008342368   0.590205912
Cr1     -0.008338200   0.516677401   0.590207486
Cr1      0.499998849   0.500006644   0.570971804
S1       0.166678128   0.166651698   0.658397077
H1       0.166667855   0.166665507   0.715321548
End final coordinates



     Writing output data file calc.save
 
     init_run     :      7.99s CPU      8.36s WALL (       1 calls)
     electrons    :   5680.13s CPU   6093.86s WALL (      12 calls)
     update_pot   :     24.62s CPU     25.81s WALL (      11 calls)
     forces       :    133.07s CPU    144.77s WALL (      12 calls)
     stress       :    424.65s CPU    457.40s WALL (      12 calls)

     Called by init_run:
     wfcinit      :      2.74s CPU      2.79s WALL (       1 calls)
     potinit      :      1.36s CPU      1.45s WALL (       1 calls)

     Called by electrons:
     c_bands      :   2624.62s CPU   2777.00s WALL (     352 calls)
     sum_band     :   1169.48s CPU   1254.36s WALL (     352 calls)
     v_of_rho     :    362.98s CPU    397.55s WALL (     364 calls)
     newd         :    991.08s CPU   1008.33s WALL (     364 calls)
     mix_rho      :     15.54s CPU     15.98s WALL (     352 calls)
     vdW_energy   :    117.43s CPU    130.26s WALL (     796 calls)
     vdW_ffts     :    271.06s CPU    286.17s WALL (    1616 calls)
     vdW_v        :    112.21s CPU    115.32s WALL (     796 calls)

     Called by c_bands:
     init_us_2    :     15.23s CPU     15.34s WALL (    3645 calls)
     cegterg      :   2358.47s CPU   2421.21s WALL (    1760 calls)

     Called by *egterg:
     h_psi        :   1382.15s CPU   1412.24s WALL (    8592 calls)
     s_psi        :    150.55s CPU    150.89s WALL (    8592 calls)
     g_psi        :      9.28s CPU      9.27s WALL (    6827 calls)
     cdiaghg      :    339.65s CPU    342.07s WALL (    8532 calls)

     Called by h_psi:
     add_vuspsi   :    156.66s CPU    157.02s WALL (    8592 calls)

     General routines
     calbec       :    234.41s CPU    237.72s WALL (   10472 calls)
     fft          :    422.56s CPU    456.74s WALL (   49271 calls)
     ffts         :      0.94s CPU      1.00s WALL (     716 calls)
     fftw         :    836.08s CPU    884.63s WALL ( 1010594 calls)
     interpolate  :      8.06s CPU      8.29s WALL (     716 calls)
     davcio       :      0.00s CPU      0.02s WALL (       5 calls)
 
     Parallel routines
     fft_scatter  :    683.26s CPU    751.14s WALL ( 1060581 calls)
 
     PWSCF        :     1h45m CPU        1h52m WALL

 
   This run was terminated on:   2:31: 6  17Apr2018            

=------------------------------------------------------------------------------=
   JOB DONE.
=------------------------------------------------------------------------------=
Job  /afs/slac/g/suncat/bin/suncat-tsmpirun -x LD_LIBRARY_PATH -wdir /scratch/qe159191_RJmYM pw.x -npool 4 -in pw.inp

TID   HOST_NAME   COMMAND_LINE            STATUS            TERMINATION_TIME
===== ========== ================  =======================  ===================
00000 suncat0043 pw.x -npool 4 -i  Done                     04/17/2018 02:31:06
00001 suncat0043 pw.x -npool 4 -i  Done                     04/17/2018 02:31:06
00002 suncat0043 pw.x -npool 4 -i  Done                     04/17/2018 02:31:06
00003 suncat0043 pw.x -npool 4 -i  Done                     04/17/2018 02:31:06
00004 suncat0043 pw.x -npool 4 -i  Done                     04/17/2018 02:31:06
00005 suncat0043 pw.x -npool 4 -i  Done                     04/17/2018 02:31:06
00006 suncat0043 pw.x -npool 4 -i  Done                     04/17/2018 02:31:06
00007 suncat0043 pw.x -npool 4 -i  Done                     04/17/2018 02:31:06
00008 suncat0035 pw.x -npool 4 -i  Done                     04/17/2018 02:31:06
00009 suncat0035 pw.x -npool 4 -i  Done                     04/17/2018 02:31:06
00010 suncat0035 pw.x -npool 4 -i  Done                     04/17/2018 02:31:06
00011 suncat0035 pw.x -npool 4 -i  Done                     04/17/2018 02:31:06
00012 suncat0035 pw.x -npool 4 -i  Done                     04/17/2018 02:31:06
00013 suncat0035 pw.x -npool 4 -i  Done                     04/17/2018 02:31:06
00014 suncat0035 pw.x -npool 4 -i  Done                     04/17/2018 02:31:06
00015 suncat0035 pw.x -npool 4 -i  Done                     04/17/2018 02:31:06
00016 suncat0002 pw.x -npool 4 -i  Done                     04/17/2018 02:31:06
00017 suncat0002 pw.x -npool 4 -i  Done                     04/17/2018 02:31:06
00018 suncat0002 pw.x -npool 4 -i  Done                     04/17/2018 02:31:06
00019 suncat0002 pw.x -npool 4 -i  Done                     04/17/2018 02:31:06
00020 suncat0002 pw.x -npool 4 -i  Done                     04/17/2018 02:31:06
00021 suncat0002 pw.x -npool 4 -i  Done                     04/17/2018 02:31:06
00022 suncat0002 pw.x -npool 4 -i  Done                     04/17/2018 02:31:06
00023 suncat0002 pw.x -npool 4 -i  Done                     04/17/2018 02:31:06
00024 suncat0283 pw.x -npool 4 -i  Done                     04/17/2018 02:31:06
00025 suncat0283 pw.x -npool 4 -i  Done                     04/17/2018 02:31:06
00026 suncat0283 pw.x -npool 4 -i  Done                     04/17/2018 02:31:06
00027 suncat0283 pw.x -npool 4 -i  Done                     04/17/2018 02:31:06
00028 suncat0283 pw.x -npool 4 -i  Done                     04/17/2018 02:31:06
00029 suncat0283 pw.x -npool 4 -i  Done                     04/17/2018 02:31:06
00030 suncat0283 pw.x -npool 4 -i  Done                     04/17/2018 02:31:06
00031 suncat0283 pw.x -npool 4 -i  Done                     04/17/2018 02:31:06
