  python dir          : /home/mamunm/src/espresso
  espresso dir        : /home/vossj/suncat/esdld/espresso-dynpy-beef/bin
  pseudo dir          : /home/mamunm/src/pseudo/gbrv1.5pbe
  ase-espresso py git : GITVERSION



     Program PWSCF v.5.1rc2 (svn rev. ) starts on 17Apr2018 at 23:54:21 

     This program is part of the open-source Quantum ESPRESSO suite
     for quantum simulation of materials; please cite
         "P. Giannozzi et al., J. Phys.:Condens. Matter 21 395502 (2009);
          URL http://www.quantum-espresso.org", 
     in publications or presentations arising from this work. More details at
     http://www.quantum-espresso.org/quote

     Parallel version (MPI), running on    16 processors
     R & G space division:  proc/nbgrp/npool/nimage =      16
     Reading input from pw.inp
     Message from routine read_cards :
     DEPRECATED: no units specified in CELL_PARAMETERS card

     Current dimensions of program PWSCF are:
     Max number of different atomic species (ntypx) = 10
     Max number of k-points (npk) =  40000
     Max angular momentum in pseudopotentials (lmaxx) =  3
     Presently stress not available with electric field


     **************************************************************************
     Initializing libbeef V0.1.1 with the BEEF-vdW functional.
     Citation: Wellendorff et al., PRB 85, 235149 (2012).
     **************************************************************************


     IMPORTANT: XC functional enforced from input :
     Exchange-correlation      = BEEF-VDW ( 1  4 27 13 2)
     Any further DFT definition will be discarded
     Please, verify this is what you really want


     Subspace diagonalization in iterative solution of the eigenvalue problem:
     a serial algorithm will be used

 
     Parallelization info
     --------------------
     sticks:   dense  smooth     PW     G-vecs:    dense   smooth      PW
     Min         208      84     23                40204    10170    1567
     Max         209      85     24                40221    10198    1586
     Sum        3343    1345    379               643481   162939   25279
 


     bravais-lattice index     =            0
     lattice parameter (alat)  =       1.8897  a.u.
     unit-cell volume          =    5409.9593 (a.u.)^3
     number of atoms/cell      =           14
     number of atomic types    =            3
     number of electrons       =       235.00
     number of Kohn-Sham states=          127
     kinetic-energy cutoff     =      36.7493  Ry
     charge density cutoff     =     367.4932  Ry
     convergence threshold     =      1.0E-05
     mixing beta               =       0.3000
     number of iterations used =           10  plain     mixing
     Exchange-correlation      = BEEF-VDW ( 1  4 27 13 2)
     nstep                     =           50


     celldm(1)=   1.889726  celldm(2)=   0.000000  celldm(3)=   0.000000
     celldm(4)=   0.000000  celldm(5)=   0.000000  celldm(6)=   0.000000

     crystal axes: (cart. coord. in units of alat)
               a(1) = (   6.088539   0.000000   0.000000 )  
               a(2) = (   3.044269   5.272829   0.000000 )  
               a(3) = (   0.000000   0.000000  24.971271 )  

     reciprocal axes: (cart. coord. in units 2 pi/alat)
               b(1) = (  0.164243 -0.094826  0.000000 )  
               b(2) = (  0.000000  0.189652  0.000000 )  
               b(3) = (  0.000000  0.000000  0.040046 )  


     PseudoPot. # 1 for Ga read from file:
     /home/mamunm/src/pseudo/gbrv1.5pbe/Ga.UPF
     MD5 check sum: ccd671392a58a050fbb373893b4fcd66
     Pseudo is Ultrasoft + core correction, Zval = 19.0
     Generated by new atomic code, or converted to UPF format
     Using radial grid of  871 points,  6 beta functions with: 
                l(1) =   0
                l(2) =   0
                l(3) =   1
                l(4) =   1
                l(5) =   2
                l(6) =   2
     Q(r) pseudized with  8 coefficients,  rinner =    1.250   1.250   1.250
                                                       1.250   1.250

     PseudoPot. # 2 for S  read from file:
     /home/mamunm/src/pseudo/gbrv1.5pbe/S.UPF
     MD5 check sum: 88d86576ff6df21479756cfb9bdac1df
     Pseudo is Ultrasoft + core correction, Zval =  6.0
     Generated by new atomic code, or converted to UPF format
     Using radial grid of  907 points,  6 beta functions with: 
                l(1) =   0
                l(2) =   0
                l(3) =   1
                l(4) =   1
                l(5) =   2
                l(6) =   2
     Q(r) pseudized with  8 coefficients,  rinner =    1.300   1.300   1.300
                                                       1.300   1.300

     PseudoPot. # 3 for H  read from file:
     /home/mamunm/src/pseudo/gbrv1.5pbe/H.UPF
     MD5 check sum: 761ae9a214b05c3daf00ab9f6b793d6f
     Pseudo is Ultrasoft, Zval =  1.0
     Generated by new atomic code, or converted to UPF format
     Using radial grid of  615 points,  2 beta functions with: 
                l(1) =   0
                l(2) =   0
     Q(r) pseudized with  8 coefficients,  rinner =    0.700

     vdW kernel table read from file vdW_kernel_table
     MD5 check sum: 095c7af220d748ca6e76c0b4c6cfb241

     atomic species   valence    mass     pseudopotential
        Ga1           19.00    69.72300     Ga( 1.00)
        S1             6.00    32.06000     S ( 1.00)
        H1             1.00     1.00800     H ( 1.00)

     No symmetry found



   Cartesian axes

     site n.     atom                  positions (alat units)
         1           Ga1 tau(   1) = (   1.5221346   0.8788048  10.0000000  )
         2           Ga1 tau(   2) = (   4.5664039   0.8788048  10.0000000  )
         3           Ga1 tau(   3) = (   3.0442693   3.5152194  10.0000000  )
         4           Ga1 tau(   4) = (   6.0885386   3.5152194  10.0000000  )
         5           Ga1 tau(   5) = (   6.0885386   1.7576097  12.4856355  )
         6           Ga1 tau(   6) = (   3.0442693   1.7576097  12.4856355  )
         7           Ga1 tau(   7) = (   7.6106732   4.3940242  12.4856355  )
         8           Ga1 tau(   8) = (   4.5664039   4.3940242  12.4856355  )
         9           Ga1 tau(   9) = (   0.0000000   0.0000000  14.9712709  )
        10           Ga1 tau(  10) = (   3.0442693   0.0000000  14.9712709  )
        11           Ga1 tau(  11) = (   1.5221346   2.6364145  14.9712709  )
        12           Ga1 tau(  12) = (   4.5664039   2.6364145  14.9712709  )
        13           S1  tau(  13) = (   3.0442693   1.7576097  16.4467709  )
        14           H1  tau(  14) = (   3.0442693   1.7576097  17.6967709  )

     number of k points=    20  Fermi-Dirac smearing, width (Ry)=  0.0110
                       cart. coord. in units 2pi/alat
        k(    1) = (   0.0000000   0.0000000   0.0000000), wk =   0.0555556
        k(    2) = (   0.0000000   0.0316086   0.0000000), wk =   0.1111111
        k(    3) = (   0.0000000   0.0632172   0.0000000), wk =   0.1111111
        k(    4) = (   0.0000000  -0.0948258   0.0000000), wk =   0.0555556
        k(    5) = (   0.0273738  -0.0158043   0.0000000), wk =   0.1111111
        k(    6) = (   0.0273738   0.0158043   0.0000000), wk =   0.1111111
        k(    7) = (   0.0273738   0.0474129   0.0000000), wk =   0.1111111
        k(    8) = (   0.0273738  -0.1106300   0.0000000), wk =   0.1111111
        k(    9) = (   0.0273738  -0.0790215   0.0000000), wk =   0.1111111
        k(   10) = (   0.0273738  -0.0474129   0.0000000), wk =   0.1111111
        k(   11) = (   0.0547477  -0.0316086   0.0000000), wk =   0.1111111
        k(   12) = (   0.0547477   0.0000000   0.0000000), wk =   0.1111111
        k(   13) = (   0.0547477   0.0316086   0.0000000), wk =   0.1111111
        k(   14) = (   0.0547477  -0.1264343   0.0000000), wk =   0.1111111
        k(   15) = (   0.0547477  -0.0948258   0.0000000), wk =   0.1111111
        k(   16) = (   0.0547477  -0.0632172   0.0000000), wk =   0.1111111
        k(   17) = (  -0.0821215   0.0474129   0.0000000), wk =   0.0555556
        k(   18) = (  -0.0821215   0.0790215   0.0000000), wk =   0.1111111
        k(   19) = (  -0.0821215   0.1106300   0.0000000), wk =   0.1111111
        k(   20) = (  -0.0821215  -0.0474129   0.0000000), wk =   0.0555556

     Dense  grid:   643481 G-vectors     FFT dimensions: (  72,  72, 288)

     Smooth grid:   162939 G-vectors     FFT dimensions: (  45,  45, 192)

     Largest allocated arrays     est. size (Mb)     dimensions
        Kohn-Sham Wavefunctions         2.52 Mb     (    1300,  127)
        NL pseudopotentials             4.68 Mb     (    1300,  236)
        Each V/rho on FFT grid          1.42 Mb     (   93312)
        Each G-vector array             0.31 Mb     (   40221)
        G-vector shells                 0.12 Mb     (   15526)
     Largest temporary arrays     est. size (Mb)     dimensions
        Auxiliary wavefunctions        10.08 Mb     (    1300,  508)
        Each subspace H/S matrix        3.94 Mb     (     508,  508)
        Each <psi_i|beta_j> matrix      0.46 Mb     (     236,  127)
        Arrays for rho mixing          14.24 Mb     (   93312,   10)

     Initial potential from superposition of free atoms
     Check: negative starting charge=   -0.001082

     starting charge  222.99994, renormalised to  235.00000

     negative rho (up, down):  1.140E-03 0.000E+00


     ************************************************************************
     *
     * You are using vdW-DF for exchange-correlation in this calculation.
     * Please cite the following three references that made this development
     * possible:
     *
     *   M. Dion, H. Rydberg, E. Schroder, D. C. Langreth, and
     *   B. I. Lundqvist, Phys. Rev. Lett. 92, 246401 (2004).
     *
     *   T. Thonhauser, V. R. Cooper, S. Li, A. Puzder, P. Hyldgaard, and
     *   D. C. Langreth, Phys. Rev. B 76, 125112 (2007).
     *
     *   G. Roman-Perez and J. M. Soler, Phys. Rev. Lett. 103, 096102 (2009).
     *
     *
     * If you are using vdW-DF2, please also cite:
     *
     *   K. Lee, E. D. Murray, L. Kong, B. I. Lundqvist, and
     *   D. C. Langreth, Phys. Rev. B 82, 081101(R) (2010).
     *
     *
     * If you are calculating the stress with vdW-DF, please also cite:
     *
     *   R. Sabatini, E. Kucukbenli, B. Kolb, T. Thonhauser, and
     *   S. de Gironcoli, J. Phys.: Condens. Matter 24, 424209 (2012).
     *
     ************************************************************************

     Carrying out vdW-DF run using the following parameters:

     Nqs =      20    Nr_points =    1024   r_max =   100.000
     q_mesh =
               0.00001000     0.04494208     0.09755937     0.15916263
               0.23128650     0.31572767     0.41458969     0.53033537
               0.66584808     0.82450364     1.01025438     1.22772762
               1.48234092     1.78043706     2.12944203     2.53805004
               3.01644009     3.57652955     4.23227104     5.00000000

     Gradients computed in reciprocal space

     ************************************************************************


 
     Adding external electric field

     Computed dipole along edir(3) : 
        Dipole               -2.9464 Ry au,         -7.4890 Debye
        Dipole field         -0.0068 Ry au
 
        Potential amp.        0.6298 Ry
        Total length         46.0091 bohr
 
     Starting wfc are  149 randomized atomic wfcs

     total cpu time spent up to now is       10.0 secs

     Self-consistent Calculation

     iteration #  1     ecut=    36.75 Ry     beta=0.30
     Davidson diagonalization with overlap
     ethr =  1.00E-02,  avg # of iterations =  6.8

     negative rho (up, down):  7.285E-06 0.000E+00
 
     Adding external electric field

     Computed dipole along edir(3) : 
        Dipole               88.4309 Ry au,        224.7690 Debye
        Dipole field          0.2054 Ry au
 
        Potential amp.      -18.9014 Ry
        Total length         46.0091 bohr
 

     total cpu time spent up to now is       50.8 secs

     total energy              =   -4670.81228739 Ry
     Harris-Foulkes estimate   =   -5032.10045780 Ry
     estimated scf accuracy    <     762.07528690 Ry

     iteration #  2     ecut=    36.75 Ry     beta=0.30
     Davidson diagonalization with overlap
     c_bands:  5 eigenvalues not converged
     c_bands:  1 eigenvalues not converged
     c_bands:  1 eigenvalues not converged
     c_bands:  2 eigenvalues not converged
     c_bands:  1 eigenvalues not converged
     c_bands:  1 eigenvalues not converged
     c_bands:  1 eigenvalues not converged
     c_bands:  3 eigenvalues not converged
     ethr =  1.00E-02,  avg # of iterations = 20.0
 
     Adding external electric field

     Computed dipole along edir(3) : 
        Dipole               20.1584 Ry au,         51.2376 Debye
        Dipole field          0.0468 Ry au
 
        Potential amp.       -4.3087 Ry
        Total length         46.0091 bohr
 

     total cpu time spent up to now is      148.6 secs

     total energy              =   -4583.31698369 Ry
     Harris-Foulkes estimate   =   -5967.97414502 Ry
     estimated scf accuracy    <   21331.21065728 Ry

     iteration #  3     ecut=    36.75 Ry     beta=0.30
     Davidson diagonalization with overlap
     ethr =  1.00E-02,  avg # of iterations = 12.3
 
     Adding external electric field

     Computed dipole along edir(3) : 
        Dipole               23.8345 Ry au,         60.5812 Debye
        Dipole field          0.0554 Ry au
 
        Potential amp.       -5.0944 Ry
        Total length         46.0091 bohr
 

     total cpu time spent up to now is      207.9 secs

     total energy              =   -4900.12447920 Ry
     Harris-Foulkes estimate   =   -5183.72125180 Ry
     estimated scf accuracy    <    2801.47738108 Ry

     iteration #  4     ecut=    36.75 Ry     beta=0.30
     Davidson diagonalization with overlap
     ethr =  1.00E-02,  avg # of iterations =  6.2
 
     Adding external electric field

     Computed dipole along edir(3) : 
        Dipole               18.1568 Ry au,         46.1500 Debye
        Dipole field          0.0422 Ry au
 
        Potential amp.       -3.8809 Ry
        Total length         46.0091 bohr
 

     total cpu time spent up to now is      246.9 secs

     total energy              =   -5032.28131294 Ry
     Harris-Foulkes estimate   =   -5046.99844963 Ry
     estimated scf accuracy    <      48.51510724 Ry

     iteration #  5     ecut=    36.75 Ry     beta=0.30
     Davidson diagonalization with overlap
     ethr =  1.00E-02,  avg # of iterations =  2.0
 
     Adding external electric field

     Computed dipole along edir(3) : 
        Dipole               12.2320 Ry au,         31.0907 Debye
        Dipole field          0.0284 Ry au
 
        Potential amp.       -2.6145 Ry
        Total length         46.0091 bohr
 

     total cpu time spent up to now is      267.2 secs

     total energy              =   -5027.19361433 Ry
     Harris-Foulkes estimate   =   -5034.22789730 Ry
     estimated scf accuracy    <      24.47706471 Ry

     iteration #  6     ecut=    36.75 Ry     beta=0.30
     Davidson diagonalization with overlap
     ethr =  1.00E-02,  avg # of iterations =  1.6
 
     Adding external electric field

     Computed dipole along edir(3) : 
        Dipole                8.3020 Ry au,         21.1015 Debye
        Dipole field          0.0193 Ry au
 
        Potential amp.       -1.7745 Ry
        Total length         46.0091 bohr
 

     total cpu time spent up to now is      285.9 secs

     total energy              =   -5025.28297717 Ry
     Harris-Foulkes estimate   =   -5028.13029546 Ry
     estimated scf accuracy    <      13.29103618 Ry

     iteration #  7     ecut=    36.75 Ry     beta=0.30
     Davidson diagonalization with overlap
     ethr =  5.66E-03,  avg # of iterations =  3.0
 
     Adding external electric field

     Computed dipole along edir(3) : 
        Dipole                8.6458 Ry au,         21.9753 Debye
        Dipole field          0.0201 Ry au
 
        Potential amp.       -1.8480 Ry
        Total length         46.0091 bohr
 

     total cpu time spent up to now is      305.6 secs

     total energy              =   -5025.83228195 Ry
     Harris-Foulkes estimate   =   -5025.74499915 Ry
     estimated scf accuracy    <       2.99536973 Ry

     iteration #  8     ecut=    36.75 Ry     beta=0.30
     Davidson diagonalization with overlap
     ethr =  1.27E-03,  avg # of iterations =  3.5

     negative rho (up, down):  4.529E-02 0.000E+00
 
     Adding external electric field

     Computed dipole along edir(3) : 
        Dipole                3.3177 Ry au,          8.4329 Debye
        Dipole field          0.0077 Ry au
 
        Potential amp.       -0.7091 Ry
        Total length         46.0091 bohr
 

     total cpu time spent up to now is      327.5 secs

     total energy              =   -5024.41567687 Ry
     Harris-Foulkes estimate   =   -5026.12873548 Ry
     estimated scf accuracy    <       5.63923184 Ry

     iteration #  9     ecut=    36.75 Ry     beta=0.30
     Davidson diagonalization with overlap
     ethr =  1.27E-03,  avg # of iterations =  5.6

     negative rho (up, down):  7.493E-02 0.000E+00
 
     Adding external electric field

     Computed dipole along edir(3) : 
        Dipole                0.8116 Ry au,          2.0629 Debye
        Dipole field          0.0019 Ry au
 
        Potential amp.       -0.1735 Ry
        Total length         46.0091 bohr
 

     total cpu time spent up to now is      352.0 secs

     total energy              =   -5024.51003234 Ry
     Harris-Foulkes estimate   =   -5024.69200725 Ry
     estimated scf accuracy    <       0.27965895 Ry

     iteration # 10     ecut=    36.75 Ry     beta=0.30
     Davidson diagonalization with overlap
     ethr =  1.19E-04,  avg # of iterations =  7.9

     negative rho (up, down):  5.653E-02 0.000E+00
 
     Adding external electric field

     Computed dipole along edir(3) : 
        Dipole                1.3812 Ry au,          3.5107 Debye
        Dipole field          0.0032 Ry au
 
        Potential amp.       -0.2952 Ry
        Total length         46.0091 bohr
 

     total cpu time spent up to now is      388.3 secs

     total energy              =   -5024.60572381 Ry
     Harris-Foulkes estimate   =   -5024.72427776 Ry
     estimated scf accuracy    <       1.74996954 Ry

     iteration # 11     ecut=    36.75 Ry     beta=0.30
     Davidson diagonalization with overlap
     ethr =  1.19E-04,  avg # of iterations =  5.8

     negative rho (up, down):  1.081E-01 0.000E+00
 
     Adding external electric field

     Computed dipole along edir(3) : 
        Dipole                0.5667 Ry au,          1.4405 Debye
        Dipole field          0.0013 Ry au
 
        Potential amp.       -0.1211 Ry
        Total length         46.0091 bohr
 

     total cpu time spent up to now is      412.7 secs

     total energy              =   -5024.54150902 Ry
     Harris-Foulkes estimate   =   -5024.64521889 Ry
     estimated scf accuracy    <       0.55422438 Ry

     iteration # 12     ecut=    36.75 Ry     beta=0.30
     Davidson diagonalization with overlap
     ethr =  1.19E-04,  avg # of iterations =  5.2

     negative rho (up, down):  4.741E-02 0.000E+00
 
     Adding external electric field

     Computed dipole along edir(3) : 
        Dipole                0.9244 Ry au,          2.3496 Debye
        Dipole field          0.0021 Ry au
 
        Potential amp.       -0.1976 Ry
        Total length         46.0091 bohr
 

     total cpu time spent up to now is      438.7 secs

     total energy              =   -5024.57273151 Ry
     Harris-Foulkes estimate   =   -5024.59303477 Ry
     estimated scf accuracy    <       0.11625002 Ry

     iteration # 13     ecut=    36.75 Ry     beta=0.30
     Davidson diagonalization with overlap
     ethr =  4.95E-05,  avg # of iterations =  9.4

     negative rho (up, down):  4.058E-02 0.000E+00
 
     Adding external electric field

     Computed dipole along edir(3) : 
        Dipole                0.7593 Ry au,          1.9301 Debye
        Dipole field          0.0018 Ry au
 
        Potential amp.       -0.1623 Ry
        Total length         46.0091 bohr
 

     total cpu time spent up to now is      466.9 secs

     total energy              =   -5024.57819720 Ry
     Harris-Foulkes estimate   =   -5024.58193589 Ry
     estimated scf accuracy    <       0.03181769 Ry

     iteration # 14     ecut=    36.75 Ry     beta=0.30
     Davidson diagonalization with overlap
     ethr =  1.35E-05,  avg # of iterations =  7.0

     negative rho (up, down):  2.532E-02 0.000E+00
 
     Adding external electric field

     Computed dipole along edir(3) : 
        Dipole                0.6289 Ry au,          1.5986 Debye
        Dipole field          0.0015 Ry au
 
        Potential amp.       -0.1344 Ry
        Total length         46.0091 bohr
 

     total cpu time spent up to now is      491.0 secs

     total energy              =   -5024.57566682 Ry
     Harris-Foulkes estimate   =   -5024.57911112 Ry
     estimated scf accuracy    <       0.01991816 Ry

     iteration # 15     ecut=    36.75 Ry     beta=0.30
     Davidson diagonalization with overlap
     ethr =  8.48E-06,  avg # of iterations =  8.3

     negative rho (up, down):  2.468E-02 0.000E+00
 
     Adding external electric field

     Computed dipole along edir(3) : 
        Dipole                0.5788 Ry au,          1.4713 Debye
        Dipole field          0.0013 Ry au
 
        Potential amp.       -0.1237 Ry
        Total length         46.0091 bohr
 

     total cpu time spent up to now is      517.6 secs

     total energy              =   -5024.57603633 Ry
     Harris-Foulkes estimate   =   -5024.57645003 Ry
     estimated scf accuracy    <       0.00782432 Ry

     iteration # 16     ecut=    36.75 Ry     beta=0.30
     Davidson diagonalization with overlap
     ethr =  3.33E-06,  avg # of iterations =  4.3

     negative rho (up, down):  1.904E-02 0.000E+00
 
     Adding external electric field

     Computed dipole along edir(3) : 
        Dipole                0.5030 Ry au,          1.2784 Debye
        Dipole field          0.0012 Ry au
 
        Potential amp.       -0.1075 Ry
        Total length         46.0091 bohr
 

     total cpu time spent up to now is      538.9 secs

     total energy              =   -5024.57536071 Ry
     Harris-Foulkes estimate   =   -5024.57626980 Ry
     estimated scf accuracy    <       0.00624704 Ry

     iteration # 17     ecut=    36.75 Ry     beta=0.30
     Davidson diagonalization with overlap
     ethr =  2.66E-06,  avg # of iterations =  6.8

     negative rho (up, down):  1.322E-02 0.000E+00
 
     Adding external electric field

     Computed dipole along edir(3) : 
        Dipole                0.4073 Ry au,          1.0353 Debye
        Dipole field          0.0009 Ry au
 
        Potential amp.       -0.0871 Ry
        Total length         46.0091 bohr
 

     total cpu time spent up to now is      563.4 secs

     total energy              =   -5024.57503690 Ry
     Harris-Foulkes estimate   =   -5024.57569610 Ry
     estimated scf accuracy    <       0.00169305 Ry

     iteration # 18     ecut=    36.75 Ry     beta=0.30
     Davidson diagonalization with overlap
     ethr =  7.20E-07,  avg # of iterations =  7.8

     negative rho (up, down):  7.007E-03 0.000E+00
 
     Adding external electric field

     Computed dipole along edir(3) : 
        Dipole                0.3504 Ry au,          0.8906 Debye
        Dipole field          0.0008 Ry au
 
        Potential amp.       -0.0749 Ry
        Total length         46.0091 bohr
 

     total cpu time spent up to now is      588.8 secs

     total energy              =   -5024.57480465 Ry
     Harris-Foulkes estimate   =   -5024.57517910 Ry
     estimated scf accuracy    <       0.00031706 Ry

     iteration # 19     ecut=    36.75 Ry     beta=0.30
     Davidson diagonalization with overlap
     ethr =  1.35E-07,  avg # of iterations =  9.4

     negative rho (up, down):  3.608E-03 0.000E+00
 
     Adding external electric field

     Computed dipole along edir(3) : 
        Dipole                0.3135 Ry au,          0.7968 Debye
        Dipole field          0.0007 Ry au
 
        Potential amp.       -0.0670 Ry
        Total length         46.0091 bohr
 

     total cpu time spent up to now is      616.2 secs

     total energy              =   -5024.57469684 Ry
     Harris-Foulkes estimate   =   -5024.57487109 Ry
     estimated scf accuracy    <       0.00014358 Ry

     iteration # 20     ecut=    36.75 Ry     beta=0.30
     Davidson diagonalization with overlap
     ethr =  6.11E-08,  avg # of iterations =  6.2

     negative rho (up, down):  1.570E-03 0.000E+00
 
     Adding external electric field

     Computed dipole along edir(3) : 
        Dipole                0.3002 Ry au,          0.7630 Debye
        Dipole field          0.0007 Ry au
 
        Potential amp.       -0.0642 Ry
        Total length         46.0091 bohr
 

     total cpu time spent up to now is      639.9 secs

     total energy              =   -5024.57467134 Ry
     Harris-Foulkes estimate   =   -5024.57472191 Ry
     estimated scf accuracy    <       0.00002347 Ry

     iteration # 21     ecut=    36.75 Ry     beta=0.30
     Davidson diagonalization with overlap
     ethr =  9.99E-09,  avg # of iterations =  3.5

     negative rho (up, down):  8.677E-04 0.000E+00

     negative rho (up, down):  8.677E-04 0.000E+00

     negative rho (up, down):  8.677E-04 0.000E+00

     negative rho (up, down):  8.677E-04 0.000E+00

     negative rho (up, down):  8.677E-04 0.000E+00

     negative rho (up, down):  8.677E-04 0.000E+00

     negative rho (up, down):  8.677E-04 0.000E+00

     negative rho (up, down):  8.677E-04 0.000E+00

     negative rho (up, down):  8.677E-04 0.000E+00

     negative rho (up, down):  8.677E-04 0.000E+00

     negative rho (up, down):  8.677E-04 0.000E+00

     negative rho (up, down):  8.677E-04 0.000E+00

     negative rho (up, down):  8.677E-04 0.000E+00

     negative rho (up, down):  8.677E-04 0.000E+00

     negative rho (up, down):  8.677E-04 0.000E+00

     negative rho (up, down):  8.677E-04 0.000E+00

     negative rho (up, down):  8.677E-04 0.000E+00

     negative rho (up, down):  8.677E-04 0.000E+00

     negative rho (up, down):  8.677E-04 0.000E+00

     negative rho (up, down):  8.677E-04 0.000E+00

     negative rho (up, down):  8.677E-04 0.000E+00

     negative rho (up, down):  8.677E-04 0.000E+00

     negative rho (up, down):  8.677E-04 0.000E+00

     negative rho (up, down):  8.677E-04 0.000E+00

     negative rho (up, down):  8.677E-04 0.000E+00

     negative rho (up, down):  8.677E-04 0.000E+00

     negative rho (up, down):  8.677E-04 0.000E+00

     negative rho (up, down):  8.677E-04 0.000E+00

     negative rho (up, down):  8.677E-04 0.000E+00

     negative rho (up, down):  8.677E-04 0.000E+00

     negative rho (up, down):  8.677E-04 0.000E+00

     negative rho (up, down):  8.677E-04 0.000E+00

     negative rho (up, down):  8.677E-04 0.000E+00

     negative rho (up, down):  8.677E-04 0.000E+00

     negative rho (up, down):  8.677E-04 0.000E+00
 
     Adding external electric field

     Computed dipole along edir(3) : 
        Dipole                0.2849 Ry au,          0.7242 Debye
        Dipole field          0.0007 Ry au
 
        Potential amp.       -0.0609 Ry
        Total length         46.0091 bohr
 

     total cpu time spent up to now is      680.2 secs

     End of self-consistent calculation

          k = 0.0000 0.0000 0.0000 ( 20347 PWs)   bands (ev):

   -94.1806 -94.1796 -94.1796 -94.1560 -94.1554 -94.1554 -94.1526 -94.1526
   -94.1521 -94.0582 -94.0290 -94.0290 -94.0117 -94.0117 -94.0090 -93.9915
   -93.9913 -93.9913 -93.9764 -93.9758 -93.9758 -93.9708 -93.9708 -93.9703
   -93.9698 -93.9694 -93.9694 -93.9687 -93.9682 -93.9682 -93.9664 -93.9654
   -93.9654 -93.9199 -93.8982 -93.8982 -15.7721 -14.6528 -14.6299 -14.6299
   -14.5839 -14.5839 -14.5492 -14.5186 -14.5186 -14.4929 -14.4929 -14.4782
   -14.4754 -14.4723 -14.4723 -14.4665 -14.4665 -14.4342 -14.4282 -14.4282
   -14.4175 -14.4165 -14.4165 -14.4114 -14.3976 -14.3737 -14.3717 -14.3683
   -14.3683 -14.3602 -14.3602 -14.3558 -14.3558 -14.3357 -14.3357 -14.3172
   -14.2846 -14.2846 -14.2721 -14.2721 -14.2670 -14.2643 -14.2399 -14.2399
   -14.2267 -14.2267 -14.2241 -14.2172 -14.2172 -14.2027 -14.1917 -14.1917
   -14.1898 -14.1898 -14.1800 -14.1800 -14.1755 -14.1755 -14.1747 -14.1652
   -14.0888  -9.5767  -8.6890  -7.0478  -5.5511  -5.5511  -5.1436  -4.1346
    -4.1346  -4.0018  -3.6472  -3.4280  -3.4280  -2.5203  -2.0808  -2.0808
    -1.9351  -1.6729  -1.6729  -1.1063  -0.2776  -0.1976  -0.1976   0.6280
     0.6280   0.6500   1.8233   3.0396   3.5543   3.5544   3.5777

          k = 0.0000 0.0316 0.0000 ( 20271 PWs)   bands (ev):

   -94.1806 -94.1796 -94.1796 -94.1559 -94.1554 -94.1553 -94.1526 -94.1525
   -94.1521 -94.0582 -94.0290 -94.0290 -94.0117 -94.0117 -94.0090 -93.9914
   -93.9913 -93.9913 -93.9764 -93.9758 -93.9758 -93.9708 -93.9708 -93.9703
   -93.9697 -93.9694 -93.9693 -93.9687 -93.9682 -93.9682 -93.9663 -93.9654
   -93.9654 -93.9199 -93.8982 -93.8982 -15.7676 -14.6438 -14.6260 -14.6172
   -14.5875 -14.5791 -14.5431 -14.5178 -14.5139 -14.4953 -14.4902 -14.4787
   -14.4786 -14.4692 -14.4682 -14.4595 -14.4559 -14.4288 -14.4233 -14.4230
   -14.4132 -14.4082 -14.4073 -14.3996 -14.3912 -14.3843 -14.3723 -14.3680
   -14.3676 -14.3618 -14.3556 -14.3502 -14.3458 -14.3390 -14.3333 -14.3186
   -14.2911 -14.2868 -14.2753 -14.2728 -14.2711 -14.2631 -14.2448 -14.2435
   -14.2340 -14.2301 -14.2274 -14.2237 -14.2216 -14.2072 -14.2022 -14.1990
   -14.1963 -14.1961 -14.1904 -14.1873 -14.1846 -14.1807 -14.1800 -14.1742
   -14.0821  -9.4620  -8.6011  -7.0432  -5.9529  -5.6660  -5.2628  -4.8086
    -4.4580  -4.4404  -3.7051  -3.1188  -3.1052  -2.4919  -2.0028  -1.7087
    -1.5378  -1.3006  -1.3006  -0.9051  -0.1586  -0.0885   0.0824   0.9633
     1.0125   1.4487   2.2061   2.6467   3.0292   3.4273   3.5743

          k = 0.0000 0.0632 0.0000 ( 20353 PWs)   bands (ev):

   -94.1804 -94.1798 -94.1796 -94.1558 -94.1555 -94.1553 -94.1526 -94.1525
   -94.1521 -94.0582 -94.0290 -94.0290 -94.0117 -94.0117 -94.0090 -93.9914
   -93.9913 -93.9913 -93.9763 -93.9759 -93.9758 -93.9708 -93.9707 -93.9704
   -93.9696 -93.9692 -93.9692 -93.9688 -93.9685 -93.9682 -93.9662 -93.9656
   -93.9654 -93.9199 -93.8982 -93.8982 -15.7585 -14.6341 -14.6112 -14.5895
   -14.5872 -14.5631 -14.5290 -14.5185 -14.5042 -14.5041 -14.4983 -14.4944
   -14.4786 -14.4602 -14.4560 -14.4325 -14.4274 -14.4228 -14.4182 -14.4100
   -14.4085 -14.4024 -14.3903 -14.3828 -14.3800 -14.3725 -14.3714 -14.3666
   -14.3631 -14.3594 -14.3461 -14.3405 -14.3304 -14.3263 -14.3190 -14.3171
   -14.3048 -14.2906 -14.2883 -14.2802 -14.2785 -14.2699 -14.2592 -14.2564
   -14.2513 -14.2457 -14.2422 -14.2392 -14.2321 -14.2293 -14.2221 -14.2206
   -14.2154 -14.2087 -14.2086 -14.2028 -14.2011 -14.1908 -14.1854 -14.1786
   -14.0689  -9.1652  -8.3530  -7.2285  -6.6090  -5.8631  -5.8518  -5.1565
    -4.7537  -4.6110  -4.0739  -3.3853  -3.0446  -2.4993  -1.5690  -1.2287
    -1.0327  -0.8031  -0.3575   0.3790   0.3807   0.6486   1.2593   1.6680
     1.7276   1.9073   2.3730   2.6252   2.6884   3.0422   3.4409

          k = 0.0000-0.0948 0.0000 ( 20384 PWs)   bands (ev):

   -94.1803 -94.1799 -94.1796 -94.1558 -94.1555 -94.1553 -94.1526 -94.1524
   -94.1522 -94.0582 -94.0290 -94.0290 -94.0117 -94.0117 -94.0090 -93.9914
   -93.9914 -93.9913 -93.9762 -93.9760 -93.9758 -93.9708 -93.9706 -93.9704
   -93.9695 -93.9690 -93.9690 -93.9689 -93.9688 -93.9682 -93.9661 -93.9657
   -93.9654 -93.9199 -93.8982 -93.8982 -15.7540 -14.6345 -14.6053 -14.5780
   -14.5692 -14.5347 -14.5325 -14.5219 -14.5175 -14.5092 -14.5042 -14.4930
   -14.4793 -14.4599 -14.4462 -14.4313 -14.4292 -14.4153 -14.4093 -14.3990
   -14.3962 -14.3893 -14.3881 -14.3796 -14.3792 -14.3693 -14.3665 -14.3540
   -14.3522 -14.3450 -14.3386 -14.3269 -14.3262 -14.3203 -14.3167 -14.3147
   -14.2977 -14.2937 -14.2935 -14.2880 -14.2782 -14.2732 -14.2710 -14.2707
   -14.2644 -14.2613 -14.2609 -14.2546 -14.2476 -14.2433 -14.2404 -14.2294
   -14.2257 -14.2152 -14.2148 -14.2098 -14.2035 -14.1924 -14.1867 -14.1788
   -14.0625  -8.9533  -8.0664  -7.6598  -6.8885  -5.9493  -5.8818  -5.1839
    -5.0718  -4.8650  -4.0953  -3.0926  -3.0877  -2.9667  -1.6126  -0.9826
    -0.0953   0.0876   0.2506   0.5315   0.5905   0.9523   1.5770   1.6281
     1.8478   2.2137   2.3929   2.8371   2.8903   2.9705   3.3579

          k = 0.0274-0.0158 0.0000 ( 20271 PWs)   bands (ev):

   -94.1806 -94.1796 -94.1796 -94.1559 -94.1554 -94.1553 -94.1526 -94.1525
   -94.1521 -94.0582 -94.0290 -94.0290 -94.0117 -94.0117 -94.0090 -93.9914
   -93.9913 -93.9913 -93.9764 -93.9758 -93.9758 -93.9708 -93.9708 -93.9703
   -93.9697 -93.9694 -93.9693 -93.9687 -93.9682 -93.9682 -93.9663 -93.9654
   -93.9654 -93.9199 -93.8982 -93.8982 -15.7676 -14.6438 -14.6260 -14.6172
   -14.5875 -14.5791 -14.5431 -14.5178 -14.5139 -14.4953 -14.4902 -14.4787
   -14.4786 -14.4692 -14.4682 -14.4595 -14.4559 -14.4288 -14.4233 -14.4230
   -14.4132 -14.4082 -14.4073 -14.3996 -14.3912 -14.3843 -14.3723 -14.3680
   -14.3676 -14.3618 -14.3556 -14.3502 -14.3458 -14.3390 -14.3333 -14.3186
   -14.2911 -14.2868 -14.2753 -14.2728 -14.2711 -14.2631 -14.2448 -14.2435
   -14.2340 -14.2301 -14.2274 -14.2237 -14.2216 -14.2072 -14.2022 -14.1990
   -14.1963 -14.1961 -14.1904 -14.1872 -14.1846 -14.1807 -14.1800 -14.1742
   -14.0821  -9.4620  -8.6011  -7.0432  -5.9529  -5.6660  -5.2628  -4.8086
    -4.4580  -4.4404  -3.7051  -3.1188  -3.1052  -2.4919  -2.0028  -1.7087
    -1.5378  -1.3006  -1.3006  -0.9051  -0.1586  -0.0885   0.0824   0.9633
     1.0125   1.4487   2.2061   2.6467   3.0292   3.4273   3.5743

          k = 0.0274 0.0158 0.0000 ( 20271 PWs)   bands (ev):

   -94.1806 -94.1796 -94.1796 -94.1559 -94.1554 -94.1553 -94.1526 -94.1525
   -94.1521 -94.0582 -94.0290 -94.0290 -94.0117 -94.0117 -94.0090 -93.9914
   -93.9913 -93.9913 -93.9764 -93.9758 -93.9758 -93.9708 -93.9708 -93.9703
   -93.9697 -93.9694 -93.9693 -93.9687 -93.9682 -93.9682 -93.9663 -93.9654
   -93.9654 -93.9199 -93.8982 -93.8982 -15.7676 -14.6438 -14.6260 -14.6172
   -14.5875 -14.5791 -14.5431 -14.5178 -14.5139 -14.4953 -14.4902 -14.4787
   -14.4786 -14.4692 -14.4682 -14.4595 -14.4559 -14.4288 -14.4233 -14.4230
   -14.4132 -14.4082 -14.4073 -14.3996 -14.3912 -14.3843 -14.3723 -14.3680
   -14.3676 -14.3618 -14.3556 -14.3502 -14.3458 -14.3390 -14.3333 -14.3186
   -14.2911 -14.2868 -14.2753 -14.2728 -14.2711 -14.2631 -14.2448 -14.2435
   -14.2339 -14.2301 -14.2274 -14.2237 -14.2216 -14.2072 -14.2022 -14.1990
   -14.1963 -14.1961 -14.1904 -14.1872 -14.1846 -14.1807 -14.1800 -14.1742
   -14.0821  -9.4620  -8.6011  -7.0432  -5.9529  -5.6661  -5.2628  -4.8086
    -4.4580  -4.4404  -3.7051  -3.1188  -3.1052  -2.4919  -2.0028  -1.7087
    -1.5378  -1.3006  -1.3006  -0.9051  -0.1586  -0.0885   0.0824   0.9633
     1.0125   1.4487   2.2061   2.6467   3.0292   3.4273   3.5743

          k = 0.0274 0.0474 0.0000 ( 20341 PWs)   bands (ev):

   -94.1804 -94.1798 -94.1796 -94.1558 -94.1554 -94.1553 -94.1526 -94.1525
   -94.1521 -94.0582 -94.0290 -94.0290 -94.0117 -94.0117 -94.0090 -93.9914
   -93.9913 -93.9913 -93.9763 -93.9759 -93.9758 -93.9708 -93.9707 -93.9703
   -93.9696 -93.9693 -93.9692 -93.9687 -93.9684 -93.9682 -93.9662 -93.9656
   -93.9654 -93.9199 -93.8982 -93.8982 -15.7608 -14.6290 -14.6221 -14.6002
   -14.5853 -14.5694 -14.5326 -14.5175 -14.5068 -14.5032 -14.4902 -14.4875
   -14.4835 -14.4624 -14.4545 -14.4484 -14.4316 -14.4213 -14.4175 -14.4133
   -14.4068 -14.4029 -14.3961 -14.3900 -14.3848 -14.3736 -14.3714 -14.3676
   -14.3657 -14.3615 -14.3549 -14.3443 -14.3338 -14.3284 -14.3254 -14.3198
   -14.2978 -14.2928 -14.2843 -14.2774 -14.2769 -14.2663 -14.2554 -14.2495
   -14.2457 -14.2421 -14.2379 -14.2313 -14.2297 -14.2239 -14.2194 -14.2111
   -14.2078 -14.2053 -14.2015 -14.1982 -14.1943 -14.1912 -14.1853 -14.1839
   -14.0723  -9.2539  -8.4314  -7.0802  -6.3344  -6.1060  -5.6016  -5.5342
    -4.4790  -4.1056  -3.8334  -3.6117  -3.0837  -2.5165  -1.6002  -1.5017
    -1.4030  -0.8212  -0.3882  -0.2119   0.4627   0.4919   0.9394   1.0149
     1.6916   1.8721   2.4310   2.5300   2.8434   3.0554   3.4836

          k = 0.0274-0.1106 0.0000 ( 20377 PWs)   bands (ev):

   -94.1803 -94.1799 -94.1796 -94.1558 -94.1555 -94.1553 -94.1526 -94.1524
   -94.1522 -94.0582 -94.0290 -94.0290 -94.0117 -94.0117 -94.0090 -93.9914
   -93.9913 -93.9913 -93.9762 -93.9760 -93.9758 -93.9708 -93.9706 -93.9704
   -93.9694 -93.9692 -93.9690 -93.9689 -93.9687 -93.9683 -93.9661 -93.9657
   -93.9654 -93.9199 -93.8982 -93.8982 -15.7540 -14.6268 -14.6059 -14.5903
   -14.5692 -14.5437 -14.5320 -14.5179 -14.5125 -14.5051 -14.5001 -14.4903
   -14.4826 -14.4593 -14.4400 -14.4343 -14.4247 -14.4167 -14.4093 -14.4024
   -14.3967 -14.3931 -14.3869 -14.3790 -14.3756 -14.3685 -14.3640 -14.3606
   -14.3564 -14.3460 -14.3415 -14.3330 -14.3235 -14.3211 -14.3180 -14.3149
   -14.3077 -14.2978 -14.2930 -14.2883 -14.2800 -14.2785 -14.2714 -14.2656
   -14.2616 -14.2551 -14.2528 -14.2498 -14.2430 -14.2372 -14.2347 -14.2292
   -14.2235 -14.2166 -14.2122 -14.2094 -14.2031 -14.1971 -14.1909 -14.1860
   -14.0628  -8.9768  -8.1002  -7.3835  -6.8390  -6.5128  -5.8789  -5.5488
    -4.8779  -4.3028  -3.8293  -3.4791  -2.9822  -2.2949  -2.0334  -1.3860
    -0.7044  -0.0259   0.3184   0.5622   0.9637   1.0993   1.3438   1.7004
     1.8741   2.0523   2.2211   2.7369   2.9825   3.1011   3.2833

          k = 0.0274-0.0790 0.0000 ( 20377 PWs)   bands (ev):

   -94.1803 -94.1799 -94.1796 -94.1558 -94.1555 -94.1553 -94.1526 -94.1524
   -94.1522 -94.0582 -94.0290 -94.0290 -94.0117 -94.0117 -94.0090 -93.9914
   -93.9914 -93.9913 -93.9762 -93.9760 -93.9758 -93.9708 -93.9706 -93.9704
   -93.9694 -93.9692 -93.9690 -93.9689 -93.9687 -93.9683 -93.9661 -93.9657
   -93.9654 -93.9199 -93.8982 -93.8982 -15.7540 -14.6268 -14.6059 -14.5903
   -14.5692 -14.5437 -14.5320 -14.5179 -14.5125 -14.5051 -14.5001 -14.4903
   -14.4826 -14.4593 -14.4400 -14.4343 -14.4247 -14.4167 -14.4093 -14.4024
   -14.3967 -14.3931 -14.3869 -14.3790 -14.3756 -14.3685 -14.3640 -14.3606
   -14.3564 -14.3460 -14.3415 -14.3330 -14.3235 -14.3211 -14.3180 -14.3149
   -14.3077 -14.2978 -14.2930 -14.2883 -14.2800 -14.2785 -14.2714 -14.2656
   -14.2616 -14.2551 -14.2528 -14.2498 -14.2430 -14.2372 -14.2347 -14.2292
   -14.2235 -14.2166 -14.2122 -14.2094 -14.2031 -14.1971 -14.1909 -14.1860
   -14.0628  -8.9768  -8.1002  -7.3835  -6.8390  -6.5128  -5.8789  -5.5488
    -4.8779  -4.3028  -3.8293  -3.4791  -2.9822  -2.2949  -2.0334  -1.3860
    -0.7044  -0.0259   0.3184   0.5622   0.9637   1.0993   1.3438   1.7004
     1.8741   2.0523   2.2211   2.7369   2.9825   3.1011   3.2833

          k = 0.0274-0.0474 0.0000 ( 20341 PWs)   bands (ev):

   -94.1804 -94.1798 -94.1796 -94.1558 -94.1554 -94.1553 -94.1526 -94.1525
   -94.1521 -94.0582 -94.0290 -94.0290 -94.0117 -94.0117 -94.0090 -93.9914
   -93.9913 -93.9913 -93.9763 -93.9759 -93.9758 -93.9708 -93.9707 -93.9703
   -93.9696 -93.9693 -93.9692 -93.9687 -93.9684 -93.9682 -93.9662 -93.9656
   -93.9654 -93.9199 -93.8982 -93.8982 -15.7608 -14.6290 -14.6221 -14.6002
   -14.5853 -14.5694 -14.5326 -14.5175 -14.5068 -14.5032 -14.4902 -14.4875
   -14.4835 -14.4624 -14.4545 -14.4484 -14.4316 -14.4213 -14.4175 -14.4133
   -14.4068 -14.4029 -14.3961 -14.3900 -14.3848 -14.3736 -14.3714 -14.3676
   -14.3657 -14.3615 -14.3549 -14.3443 -14.3338 -14.3284 -14.3254 -14.3198
   -14.2978 -14.2928 -14.2843 -14.2774 -14.2769 -14.2663 -14.2554 -14.2495
   -14.2457 -14.2421 -14.2379 -14.2313 -14.2297 -14.2239 -14.2194 -14.2111
   -14.2078 -14.2053 -14.2015 -14.1982 -14.1943 -14.1912 -14.1853 -14.1839
   -14.0723  -9.2539  -8.4314  -7.0802  -6.3344  -6.1060  -5.6016  -5.5342
    -4.4790  -4.1056  -3.8334  -3.6117  -3.0837  -2.5165  -1.6002  -1.5017
    -1.4030  -0.8212  -0.3882  -0.2119   0.4627   0.4919   0.9394   1.0149
     1.6916   1.8721   2.4310   2.5300   2.8434   3.0554   3.4836

          k = 0.0547-0.0316 0.0000 ( 20353 PWs)   bands (ev):

   -94.1804 -94.1798 -94.1796 -94.1558 -94.1555 -94.1553 -94.1526 -94.1525
   -94.1521 -94.0582 -94.0290 -94.0290 -94.0117 -94.0117 -94.0090 -93.9914
   -93.9913 -93.9913 -93.9763 -93.9759 -93.9758 -93.9708 -93.9707 -93.9704
   -93.9696 -93.9692 -93.9692 -93.9688 -93.9685 -93.9682 -93.9662 -93.9656
   -93.9654 -93.9199 -93.8982 -93.8982 -15.7585 -14.6341 -14.6112 -14.5895
   -14.5872 -14.5631 -14.5290 -14.5185 -14.5042 -14.5041 -14.4983 -14.4944
   -14.4786 -14.4602 -14.4560 -14.4325 -14.4274 -14.4228 -14.4182 -14.4100
   -14.4085 -14.4024 -14.3903 -14.3828 -14.3800 -14.3725 -14.3714 -14.3666
   -14.3631 -14.3594 -14.3461 -14.3405 -14.3304 -14.3263 -14.3190 -14.3171
   -14.3048 -14.2906 -14.2883 -14.2802 -14.2785 -14.2699 -14.2592 -14.2564
   -14.2513 -14.2457 -14.2422 -14.2392 -14.2321 -14.2293 -14.2221 -14.2206
   -14.2154 -14.2087 -14.2086 -14.2028 -14.2011 -14.1908 -14.1854 -14.1786
   -14.0689  -9.1652  -8.3530  -7.2285  -6.6090  -5.8631  -5.8518  -5.1565
    -4.7537  -4.6110  -4.0739  -3.3853  -3.0446  -2.4993  -1.5690  -1.2287
    -1.0327  -0.8031  -0.3575   0.3790   0.3807   0.6486   1.2593   1.6680
     1.7276   1.9073   2.3730   2.6252   2.6884   3.0422   3.4409

          k = 0.0547 0.0000 0.0000 ( 20341 PWs)   bands (ev):

   -94.1804 -94.1798 -94.1796 -94.1558 -94.1554 -94.1553 -94.1526 -94.1525
   -94.1521 -94.0582 -94.0290 -94.0290 -94.0117 -94.0117 -94.0090 -93.9914
   -93.9913 -93.9913 -93.9763 -93.9759 -93.9758 -93.9708 -93.9707 -93.9703
   -93.9696 -93.9693 -93.9692 -93.9687 -93.9684 -93.9682 -93.9662 -93.9656
   -93.9654 -93.9199 -93.8982 -93.8982 -15.7608 -14.6290 -14.6221 -14.6002
   -14.5853 -14.5694 -14.5326 -14.5175 -14.5068 -14.5032 -14.4902 -14.4875
   -14.4835 -14.4624 -14.4545 -14.4484 -14.4316 -14.4213 -14.4175 -14.4133
   -14.4068 -14.4029 -14.3961 -14.3900 -14.3848 -14.3736 -14.3714 -14.3676
   -14.3657 -14.3615 -14.3549 -14.3443 -14.3338 -14.3284 -14.3254 -14.3198
   -14.2978 -14.2928 -14.2843 -14.2774 -14.2769 -14.2663 -14.2554 -14.2495
   -14.2457 -14.2421 -14.2379 -14.2313 -14.2297 -14.2239 -14.2194 -14.2111
   -14.2078 -14.2053 -14.2015 -14.1982 -14.1943 -14.1912 -14.1853 -14.1839
   -14.0723  -9.2539  -8.4314  -7.0802  -6.3344  -6.1060  -5.6016  -5.5342
    -4.4790  -4.1056  -3.8334  -3.6117  -3.0837  -2.5165  -1.6002  -1.5017
    -1.4030  -0.8212  -0.3882  -0.2119   0.4627   0.4919   0.9394   1.0149
     1.6916   1.8721   2.4310   2.5300   2.8434   3.0554   3.4837

          k = 0.0547 0.0316 0.0000 ( 20353 PWs)   bands (ev):

   -94.1804 -94.1798 -94.1796 -94.1558 -94.1555 -94.1553 -94.1526 -94.1525
   -94.1521 -94.0582 -94.0290 -94.0290 -94.0117 -94.0117 -94.0090 -93.9914
   -93.9913 -93.9913 -93.9763 -93.9759 -93.9758 -93.9708 -93.9707 -93.9704
   -93.9696 -93.9692 -93.9692 -93.9688 -93.9685 -93.9682 -93.9662 -93.9656
   -93.9654 -93.9199 -93.8982 -93.8982 -15.7585 -14.6341 -14.6112 -14.5895
   -14.5872 -14.5631 -14.5290 -14.5185 -14.5042 -14.5041 -14.4983 -14.4944
   -14.4786 -14.4602 -14.4560 -14.4325 -14.4274 -14.4228 -14.4182 -14.4100
   -14.4085 -14.4024 -14.3903 -14.3828 -14.3800 -14.3725 -14.3714 -14.3666
   -14.3631 -14.3594 -14.3461 -14.3405 -14.3304 -14.3263 -14.3190 -14.3171
   -14.3048 -14.2906 -14.2883 -14.2802 -14.2785 -14.2699 -14.2592 -14.2564
   -14.2513 -14.2457 -14.2422 -14.2392 -14.2321 -14.2293 -14.2221 -14.2206
   -14.2154 -14.2087 -14.2086 -14.2028 -14.2011 -14.1908 -14.1854 -14.1786
   -14.0689  -9.1652  -8.3530  -7.2285  -6.6090  -5.8631  -5.8518  -5.1565
    -4.7537  -4.6110  -4.0739  -3.3853  -3.0446  -2.4993  -1.5690  -1.2287
    -1.0327  -0.8031  -0.3575   0.3790   0.3807   0.6486   1.2593   1.6680
     1.7276   1.9073   2.3730   2.6252   2.6884   3.0422   3.4409

          k = 0.0547-0.1264 0.0000 ( 20377 PWs)   bands (ev):

   -94.1803 -94.1799 -94.1796 -94.1558 -94.1555 -94.1553 -94.1526 -94.1524
   -94.1522 -94.0582 -94.0290 -94.0290 -94.0117 -94.0117 -94.0090 -93.9914
   -93.9914 -93.9913 -93.9762 -93.9760 -93.9758 -93.9708 -93.9706 -93.9704
   -93.9694 -93.9692 -93.9690 -93.9689 -93.9687 -93.9683 -93.9661 -93.9657
   -93.9654 -93.9199 -93.8982 -93.8982 -15.7540 -14.6268 -14.6059 -14.5903
   -14.5692 -14.5437 -14.5320 -14.5179 -14.5125 -14.5051 -14.5001 -14.4903
   -14.4826 -14.4593 -14.4400 -14.4343 -14.4247 -14.4167 -14.4093 -14.4024
   -14.3967 -14.3931 -14.3869 -14.3790 -14.3756 -14.3685 -14.3640 -14.3606
   -14.3564 -14.3460 -14.3415 -14.3330 -14.3235 -14.3211 -14.3180 -14.3149
   -14.3077 -14.2978 -14.2930 -14.2883 -14.2800 -14.2785 -14.2714 -14.2656
   -14.2616 -14.2551 -14.2528 -14.2498 -14.2430 -14.2372 -14.2347 -14.2292
   -14.2235 -14.2166 -14.2122 -14.2094 -14.2031 -14.1971 -14.1909 -14.1860
   -14.0628  -8.9768  -8.1002  -7.3835  -6.8390  -6.5128  -5.8789  -5.5488
    -4.8779  -4.3028  -3.8293  -3.4791  -2.9822  -2.2949  -2.0334  -1.3860
    -0.7044  -0.0259   0.3184   0.5622   0.9637   1.0993   1.3438   1.7004
     1.8741   2.0523   2.2211   2.7369   2.9825   3.1011   3.2833

          k = 0.0547-0.0948 0.0000 ( 20397 PWs)   bands (ev):

   -94.1801 -94.1801 -94.1796 -94.1557 -94.1556 -94.1553 -94.1526 -94.1523
   -94.1523 -94.0582 -94.0290 -94.0290 -94.0117 -94.0117 -94.0090 -93.9914
   -93.9914 -93.9913 -93.9761 -93.9761 -93.9758 -93.9708 -93.9705 -93.9705
   -93.9692 -93.9692 -93.9692 -93.9688 -93.9688 -93.9683 -93.9659 -93.9659
   -93.9654 -93.9199 -93.8982 -93.8982 -15.7516 -14.6222 -14.5974 -14.5888
   -14.5609 -14.5599 -14.5204 -14.5184 -14.5077 -14.5016 -14.5006 -14.4973
   -14.4694 -14.4606 -14.4558 -14.4213 -14.4211 -14.4104 -14.4034 -14.3975
   -14.3923 -14.3886 -14.3871 -14.3824 -14.3681 -14.3656 -14.3649 -14.3546
   -14.3507 -14.3456 -14.3306 -14.3270 -14.3251 -14.3163 -14.3161 -14.3154
   -14.3111 -14.3030 -14.3023 -14.2969 -14.2885 -14.2850 -14.2836 -14.2676
   -14.2665 -14.2555 -14.2510 -14.2443 -14.2441 -14.2390 -14.2358 -14.2338
   -14.2264 -14.2224 -14.2191 -14.2083 -14.2072 -14.2053 -14.1982 -14.1912
   -14.0600  -8.8860  -7.6274  -7.6078  -7.2044  -6.5301  -6.4485  -5.1977
    -4.8867  -4.8094  -3.4663  -2.8578  -2.8273  -2.4104  -2.2877  -1.5807
    -0.1992  -0.1777  -0.0847   0.6381   0.6961   0.9749   1.8578   1.9311
     1.9491   2.8410   2.9629   3.0205   3.3680   3.4211   3.4632

          k = 0.0547-0.0632 0.0000 ( 20377 PWs)   bands (ev):

   -94.1803 -94.1799 -94.1796 -94.1558 -94.1555 -94.1553 -94.1526 -94.1524
   -94.1522 -94.0582 -94.0290 -94.0290 -94.0117 -94.0117 -94.0090 -93.9914
   -93.9914 -93.9913 -93.9762 -93.9760 -93.9758 -93.9708 -93.9706 -93.9704
   -93.9694 -93.9692 -93.9690 -93.9689 -93.9687 -93.9683 -93.9661 -93.9657
   -93.9654 -93.9199 -93.8982 -93.8982 -15.7540 -14.6268 -14.6059 -14.5903
   -14.5692 -14.5437 -14.5320 -14.5179 -14.5125 -14.5051 -14.5001 -14.4903
   -14.4826 -14.4593 -14.4400 -14.4343 -14.4247 -14.4167 -14.4093 -14.4024
   -14.3967 -14.3931 -14.3869 -14.3790 -14.3756 -14.3685 -14.3640 -14.3606
   -14.3564 -14.3460 -14.3415 -14.3330 -14.3235 -14.3211 -14.3180 -14.3149
   -14.3077 -14.2978 -14.2930 -14.2883 -14.2800 -14.2785 -14.2714 -14.2656
   -14.2616 -14.2551 -14.2528 -14.2498 -14.2430 -14.2372 -14.2347 -14.2292
   -14.2235 -14.2166 -14.2122 -14.2094 -14.2031 -14.1971 -14.1909 -14.1860
   -14.0628  -8.9768  -8.1002  -7.3835  -6.8390  -6.5128  -5.8789  -5.5488
    -4.8779  -4.3028  -3.8293  -3.4791  -2.9822  -2.2949  -2.0334  -1.3860
    -0.7044  -0.0259   0.3184   0.5622   0.9637   1.0993   1.3438   1.7004
     1.8741   2.0523   2.2211   2.7369   2.9825   3.1011   3.2833

          k =-0.0821 0.0474 0.0000 ( 20384 PWs)   bands (ev):

   -94.1803 -94.1799 -94.1796 -94.1558 -94.1555 -94.1553 -94.1526 -94.1524
   -94.1522 -94.0582 -94.0290 -94.0290 -94.0117 -94.0117 -94.0090 -93.9914
   -93.9914 -93.9913 -93.9762 -93.9760 -93.9758 -93.9708 -93.9706 -93.9704
   -93.9695 -93.9690 -93.9690 -93.9689 -93.9688 -93.9682 -93.9661 -93.9657
   -93.9654 -93.9199 -93.8982 -93.8982 -15.7540 -14.6345 -14.6053 -14.5780
   -14.5692 -14.5347 -14.5325 -14.5219 -14.5175 -14.5092 -14.5042 -14.4930
   -14.4793 -14.4599 -14.4462 -14.4313 -14.4292 -14.4153 -14.4093 -14.3990
   -14.3962 -14.3893 -14.3881 -14.3796 -14.3792 -14.3693 -14.3665 -14.3540
   -14.3522 -14.3450 -14.3386 -14.3269 -14.3262 -14.3203 -14.3167 -14.3147
   -14.2977 -14.2937 -14.2935 -14.2880 -14.2782 -14.2732 -14.2710 -14.2707
   -14.2644 -14.2613 -14.2609 -14.2546 -14.2476 -14.2433 -14.2404 -14.2294
   -14.2257 -14.2152 -14.2148 -14.2098 -14.2035 -14.1924 -14.1867 -14.1788
   -14.0625  -8.9533  -8.0664  -7.6598  -6.8885  -5.9493  -5.8818  -5.1839
    -5.0718  -4.8650  -4.0953  -3.0926  -3.0877  -2.9667  -1.6126  -0.9826
    -0.0953   0.0876   0.2506   0.5315   0.5905   0.9523   1.5770   1.6281
     1.8478   2.2137   2.3929   2.8371   2.8903   2.9705   3.3579

          k =-0.0821 0.0790 0.0000 ( 20377 PWs)   bands (ev):

   -94.1803 -94.1799 -94.1796 -94.1558 -94.1555 -94.1553 -94.1526 -94.1524
   -94.1522 -94.0582 -94.0290 -94.0290 -94.0117 -94.0117 -94.0090 -93.9914
   -93.9914 -93.9913 -93.9762 -93.9760 -93.9758 -93.9708 -93.9706 -93.9704
   -93.9694 -93.9692 -93.9690 -93.9689 -93.9687 -93.9683 -93.9661 -93.9657
   -93.9654 -93.9199 -93.8982 -93.8982 -15.7540 -14.6268 -14.6059 -14.5903
   -14.5692 -14.5437 -14.5320 -14.5179 -14.5125 -14.5051 -14.5001 -14.4903
   -14.4826 -14.4593 -14.4400 -14.4343 -14.4247 -14.4167 -14.4093 -14.4024
   -14.3967 -14.3931 -14.3869 -14.3790 -14.3756 -14.3685 -14.3640 -14.3606
   -14.3564 -14.3460 -14.3415 -14.3330 -14.3235 -14.3211 -14.3180 -14.3149
   -14.3077 -14.2978 -14.2930 -14.2883 -14.2800 -14.2785 -14.2714 -14.2656
   -14.2616 -14.2551 -14.2528 -14.2498 -14.2430 -14.2372 -14.2347 -14.2292
   -14.2235 -14.2166 -14.2122 -14.2094 -14.2031 -14.1971 -14.1909 -14.1860
   -14.0628  -8.9768  -8.1002  -7.3835  -6.8390  -6.5128  -5.8789  -5.5488
    -4.8779  -4.3028  -3.8293  -3.4791  -2.9822  -2.2949  -2.0334  -1.3860
    -0.7044  -0.0259   0.3184   0.5622   0.9637   1.0993   1.3438   1.7004
     1.8741   2.0523   2.2211   2.7369   2.9825   3.1011   3.2833

          k =-0.0821 0.1106 0.0000 ( 20377 PWs)   bands (ev):

   -94.1803 -94.1799 -94.1796 -94.1558 -94.1555 -94.1553 -94.1526 -94.1524
   -94.1522 -94.0582 -94.0290 -94.0290 -94.0117 -94.0117 -94.0090 -93.9914
   -93.9914 -93.9913 -93.9762 -93.9760 -93.9758 -93.9708 -93.9706 -93.9704
   -93.9694 -93.9692 -93.9690 -93.9689 -93.9687 -93.9683 -93.9661 -93.9657
   -93.9654 -93.9199 -93.8982 -93.8982 -15.7540 -14.6268 -14.6059 -14.5903
   -14.5692 -14.5437 -14.5320 -14.5179 -14.5125 -14.5051 -14.5001 -14.4903
   -14.4826 -14.4593 -14.4400 -14.4343 -14.4247 -14.4167 -14.4093 -14.4024
   -14.3967 -14.3931 -14.3869 -14.3790 -14.3756 -14.3685 -14.3640 -14.3606
   -14.3564 -14.3460 -14.3415 -14.3330 -14.3235 -14.3211 -14.3180 -14.3149
   -14.3077 -14.2978 -14.2930 -14.2883 -14.2801 -14.2785 -14.2714 -14.2656
   -14.2616 -14.2551 -14.2528 -14.2498 -14.2430 -14.2372 -14.2347 -14.2292
   -14.2235 -14.2166 -14.2122 -14.2094 -14.2031 -14.1971 -14.1909 -14.1860
   -14.0628  -8.9768  -8.1002  -7.3835  -6.8390  -6.5128  -5.8789  -5.5488
    -4.8779  -4.3028  -3.8293  -3.4791  -2.9822  -2.2949  -2.0334  -1.3860
    -0.7044  -0.0259   0.3184   0.5622   0.9637   1.0993   1.3438   1.7004
     1.8741   2.0523   2.2211   2.7369   2.9825   3.1011   3.2833

          k =-0.0821-0.0474 0.0000 ( 20384 PWs)   bands (ev):

   -94.1803 -94.1799 -94.1796 -94.1558 -94.1555 -94.1553 -94.1526 -94.1524
   -94.1522 -94.0582 -94.0290 -94.0290 -94.0117 -94.0117 -94.0090 -93.9914
   -93.9914 -93.9913 -93.9762 -93.9760 -93.9758 -93.9708 -93.9706 -93.9704
   -93.9695 -93.9690 -93.9690 -93.9689 -93.9688 -93.9682 -93.9661 -93.9657
   -93.9654 -93.9199 -93.8982 -93.8982 -15.7540 -14.6345 -14.6053 -14.5780
   -14.5692 -14.5347 -14.5325 -14.5219 -14.5175 -14.5092 -14.5042 -14.4930
   -14.4793 -14.4599 -14.4462 -14.4313 -14.4292 -14.4153 -14.4093 -14.3990
   -14.3962 -14.3893 -14.3881 -14.3796 -14.3792 -14.3693 -14.3665 -14.3540
   -14.3522 -14.3450 -14.3386 -14.3269 -14.3262 -14.3203 -14.3167 -14.3147
   -14.2977 -14.2937 -14.2935 -14.2880 -14.2782 -14.2732 -14.2710 -14.2707
   -14.2644 -14.2613 -14.2609 -14.2546 -14.2476 -14.2433 -14.2404 -14.2294
   -14.2257 -14.2152 -14.2148 -14.2098 -14.2035 -14.1924 -14.1867 -14.1788
   -14.0625  -8.9533  -8.0664  -7.6598  -6.8885  -5.9493  -5.8818  -5.1838
    -5.0718  -4.8650  -4.0953  -3.0926  -3.0877  -2.9667  -1.6126  -0.9826
    -0.0953   0.0876   0.2506   0.5315   0.5905   0.9523   1.5770   1.6281
     1.8478   2.2137   2.3929   2.8371   2.8903   2.9705   3.3579

     the Fermi energy is     0.7842 ev

!    total energy              =   -5024.57467339 Ry
     Harris-Foulkes estimate   =   -5024.57469479 Ry
     estimated scf accuracy    <       0.00000207 Ry

     The total energy is the sum of the following terms:

     one-electron contribution =  -27662.30279613 Ry
     hartree contribution      =   13841.05124288 Ry
     xc contribution           =    -606.29671700 Ry
     ewald contribution        =    9403.00812139 Ry
     electric field correction =       0.00018859 Ry
     smearing contrib. (-TS)   =      -0.03471312 Ry

     convergence has been achieved in  21 iterations
 
 BEEF-vdW xc energy contributions
           1 :   -541.683443983291     
           2 :    491.606206830114     
           3 :   -407.583749375242     
           4 :    313.945620803399     
           5 :   -232.301869465985     
           6 :    173.488642271644     
           7 :   -135.967392857554     
           8 :    110.491775563452     
           9 :   -87.5272239307064     
          10 :    62.8315962331845     
          11 :   -38.3789274897684     
          12 :    19.0459789746781     
          13 :   -8.04787427841325     
          14 :    4.40358479411975     
          15 :   -3.83184736038311     
          16 :    1.92200274135632     
          17 :    2.97815144230253     
          18 :   -9.17887756054074     
          19 :    13.5054084459464     
          20 :   -13.9803759958569     
          21 :    11.2984383532371     
          22 :   -8.14784580583193     
          23 :    7.08990107546890     
          24 :   -8.70147444837164     
          25 :    11.3423973047206     
          26 :   -12.5994304145906     
          27 :    11.2062258243589     
          28 :   -7.97151006463105     
          29 :    5.08288856854301     
          30 :   -4.40651857518890     
          31 :   -40.3033504429646     
          32 :   -27.3867593883181     

     Forces acting on atoms (Ry/au):


     negative rho (up, down):  8.677E-04 0.000E+00
     atom    1 type  1   force =    -0.00210819   -0.00121570    0.00089719
     atom    2 type  1   force =     0.00213167   -0.00123025    0.00093072
     atom    3 type  1   force =    -0.00001563    0.00241899    0.00084983
     atom    4 type  1   force =     0.00000491    0.00001603    0.00259063
     atom    5 type  1   force =     0.00000473   -0.00595318   -0.00181351
     atom    6 type  1   force =    -0.00001050   -0.00000206    0.00868461
     atom    7 type  1   force =     0.00515826    0.00297506   -0.00184104
     atom    8 type  1   force =    -0.00515915    0.00297466   -0.00183234
     atom    9 type  1   force =    -0.00000166    0.00000700   -0.01020367
     atom   10 type  1   force =    -0.00000160   -0.07525058   -0.05257858
     atom   11 type  1   force =    -0.06517704    0.03762781   -0.05254442
     atom   12 type  1   force =     0.06517696    0.03763076   -0.05264611
     atom   13 type  2   force =    -0.00000109    0.00000078    0.00689835
     atom   14 type  3   force =    -0.00000166    0.00000068    0.15260831

     Total force =     0.220746     Total SCF correction =     0.002201


     entering subroutine stress ...


     negative rho (up, down):  8.677E-04 0.000E+00
          total   stress  (Ry/bohr**3)                   (kbar)     P=    0.94
  -0.00003284  -0.00000000  -0.00000000         -4.83     -0.00     -0.00
  -0.00000000  -0.00003284  -0.00000000         -0.00     -4.83     -0.00
  -0.00000000  -0.00000000   0.00008489         -0.00     -0.00     12.49


     BFGS Geometry Optimization

     number of scf cycles    =   1
     number of bfgs steps    =   0

     energy   new            =   -5024.5746733851 Ry

     new trust radius        =       0.1526083145 bohr
     new conv_thr            =       0.0000099958 Ry


ATOMIC_POSITIONS (crystal)
Ga1      0.166666667   0.166666667   0.400460194    0   0   0
Ga1      0.666666667   0.166666667   0.400460194    0   0   0
Ga1      0.166666667   0.666666667   0.400460194    0   0   0
Ga1      0.666666667   0.666666667   0.400460194    0   0   0
Ga1      0.833333333   0.333333333   0.500000000    0   0   0
Ga1      0.333333333   0.333333333   0.500000000    0   0   0
Ga1      0.833333333   0.833333333   0.500000000    0   0   0
Ga1      0.333333333   0.833333333   0.500000000    0   0   0
Ga1     -0.000000496   0.000000703   0.599323575
Ga1      0.503775907  -0.007552092   0.598425590
Ga1     -0.007552925   0.503776299   0.598426314
Ga1      0.503776471   0.503776595   0.598424159
S1       0.333333200   0.333333412   0.658773894
H1       0.333333155   0.333333402   0.711919222



     Writing output data file calc.save
     Check: negative starting charge=   -0.001082
     NEW-OLD atomic charge density approx. for the potential
     Check: negative starting charge=   -0.001087

     negative rho (up, down):  1.037E-03 0.000E+00
 
     Adding external electric field

     Computed dipole along edir(3) : 
        Dipole                0.1170 Ry au,          0.2973 Debye
        Dipole field          0.0003 Ry au
 
        Potential amp.       -0.0250 Ry
        Total length         46.0091 bohr
 

     total cpu time spent up to now is      707.1 secs

     Self-consistent Calculation

     iteration #  1     ecut=    36.75 Ry     beta=0.30
     Davidson diagonalization with overlap
     ethr =  1.00E-06,  avg # of iterations = 10.3

     negative rho (up, down):  9.168E-04 0.000E+00
 
     Adding external electric field

     Computed dipole along edir(3) : 
        Dipole                1.4013 Ry au,          3.5617 Debye
        Dipole field          0.0033 Ry au
 
        Potential amp.       -0.2995 Ry
        Total length         46.0091 bohr
 

     total cpu time spent up to now is      752.3 secs

     total energy              =   -5024.53745605 Ry
     Harris-Foulkes estimate   =   -5024.61576357 Ry
     estimated scf accuracy    <       0.16657911 Ry

     iteration #  2     ecut=    36.75 Ry     beta=0.30
     Davidson diagonalization with overlap
     ethr =  7.09E-05,  avg # of iterations =  8.1

     negative rho (up, down):  8.089E-04 0.000E+00
 
     Adding external electric field

     Computed dipole along edir(3) : 
        Dipole                0.1929 Ry au,          0.4904 Debye
        Dipole field          0.0004 Ry au
 
        Potential amp.       -0.0412 Ry
        Total length         46.0091 bohr
 

     total cpu time spent up to now is      781.2 secs

     total energy              =   -5024.27827135 Ry
     Harris-Foulkes estimate   =   -5024.93619796 Ry
     estimated scf accuracy    <      10.10663427 Ry

     iteration #  3     ecut=    36.75 Ry     beta=0.30
     Davidson diagonalization with overlap
     ethr =  7.09E-05,  avg # of iterations =  5.7

     negative rho (up, down):  7.999E-04 0.000E+00
 
     Adding external electric field

     Computed dipole along edir(3) : 
        Dipole                0.2259 Ry au,          0.5743 Debye
        Dipole field          0.0005 Ry au
 
        Potential amp.       -0.0483 Ry
        Total length         46.0091 bohr
 

     total cpu time spent up to now is      806.5 secs

     total energy              =   -5024.61137112 Ry
     Harris-Foulkes estimate   =   -5024.61337019 Ry
     estimated scf accuracy    <       0.01208771 Ry

     iteration #  4     ecut=    36.75 Ry     beta=0.30
     Davidson diagonalization with overlap
     ethr =  5.14E-06,  avg # of iterations =  4.0

     negative rho (up, down):  8.065E-04 0.000E+00
 
     Adding external electric field

     Computed dipole along edir(3) : 
        Dipole                0.2334 Ry au,          0.5933 Debye
        Dipole field          0.0005 Ry au
 
        Potential amp.       -0.0499 Ry
        Total length         46.0091 bohr
 

     total cpu time spent up to now is      828.8 secs

     total energy              =   -5024.61246603 Ry
     Harris-Foulkes estimate   =   -5024.61271284 Ry
     estimated scf accuracy    <       0.00135285 Ry

     iteration #  5     ecut=    36.75 Ry     beta=0.30
     Davidson diagonalization with overlap
     ethr =  5.76E-07,  avg # of iterations =  3.4

     negative rho (up, down):  8.289E-04 0.000E+00
 
     Adding external electric field

     Computed dipole along edir(3) : 
        Dipole                0.2365 Ry au,          0.6011 Debye
        Dipole field          0.0005 Ry au
 
        Potential amp.       -0.0505 Ry
        Total length         46.0091 bohr
 

     total cpu time spent up to now is      849.7 secs

     total energy              =   -5024.61259074 Ry
     Harris-Foulkes estimate   =   -5024.61259159 Ry
     estimated scf accuracy    <       0.00019998 Ry

     iteration #  6     ecut=    36.75 Ry     beta=0.30
     Davidson diagonalization with overlap
     ethr =  8.51E-08,  avg # of iterations =  2.1

     negative rho (up, down):  8.538E-04 0.000E+00
 
     Adding external electric field

     Computed dipole along edir(3) : 
        Dipole                0.2392 Ry au,          0.6079 Debye
        Dipole field          0.0006 Ry au
 
        Potential amp.       -0.0511 Ry
        Total length         46.0091 bohr
 

     total cpu time spent up to now is      869.2 secs

     total energy              =   -5024.61260235 Ry
     Harris-Foulkes estimate   =   -5024.61259654 Ry
     estimated scf accuracy    <       0.00003509 Ry

     iteration #  7     ecut=    36.75 Ry     beta=0.30
     Davidson diagonalization with overlap
     ethr =  1.49E-08,  avg # of iterations =  2.2

     negative rho (up, down):  8.785E-04 0.000E+00

     negative rho (up, down):  8.785E-04 0.000E+00

     negative rho (up, down):  8.785E-04 0.000E+00

     negative rho (up, down):  8.785E-04 0.000E+00

     negative rho (up, down):  8.785E-04 0.000E+00

     negative rho (up, down):  8.785E-04 0.000E+00

     negative rho (up, down):  8.785E-04 0.000E+00

     negative rho (up, down):  8.785E-04 0.000E+00

     negative rho (up, down):  8.785E-04 0.000E+00

     negative rho (up, down):  8.785E-04 0.000E+00

     negative rho (up, down):  8.785E-04 0.000E+00

     negative rho (up, down):  8.785E-04 0.000E+00

     negative rho (up, down):  8.785E-04 0.000E+00

     negative rho (up, down):  8.785E-04 0.000E+00

     negative rho (up, down):  8.785E-04 0.000E+00

     negative rho (up, down):  8.785E-04 0.000E+00

     negative rho (up, down):  8.785E-04 0.000E+00

     negative rho (up, down):  8.785E-04 0.000E+00

     negative rho (up, down):  8.785E-04 0.000E+00

     negative rho (up, down):  8.785E-04 0.000E+00

     negative rho (up, down):  8.785E-04 0.000E+00

     negative rho (up, down):  8.785E-04 0.000E+00

     negative rho (up, down):  8.785E-04 0.000E+00

     negative rho (up, down):  8.785E-04 0.000E+00

     negative rho (up, down):  8.785E-04 0.000E+00

     negative rho (up, down):  8.785E-04 0.000E+00

     negative rho (up, down):  8.785E-04 0.000E+00

     negative rho (up, down):  8.785E-04 0.000E+00

     negative rho (up, down):  8.785E-04 0.000E+00

     negative rho (up, down):  8.785E-04 0.000E+00

     negative rho (up, down):  8.785E-04 0.000E+00

     negative rho (up, down):  8.785E-04 0.000E+00

     negative rho (up, down):  8.785E-04 0.000E+00

     negative rho (up, down):  8.785E-04 0.000E+00

     negative rho (up, down):  8.785E-04 0.000E+00
 
     Adding external electric field

     Computed dipole along edir(3) : 
        Dipole                0.2357 Ry au,          0.5991 Debye
        Dipole field          0.0005 Ry au
 
        Potential amp.       -0.0504 Ry
        Total length         46.0091 bohr
 

     total cpu time spent up to now is      907.3 secs

     End of self-consistent calculation

          k = 0.0000 0.0000 0.0000 ( 20347 PWs)   bands (ev):

   -94.2402 -94.2393 -94.2393 -94.2192 -94.2185 -94.2185 -94.2163 -94.2163
   -94.2158 -94.1123 -94.0838 -94.0838 -94.0687 -94.0687 -94.0668 -94.0529
   -94.0528 -94.0528 -94.0352 -94.0345 -94.0345 -94.0313 -94.0309 -94.0309
   -94.0307 -94.0307 -94.0304 -94.0299 -94.0296 -94.0296 -94.0260 -94.0251
   -94.0251 -93.9903 -93.9700 -93.9700 -15.4527 -14.7054 -14.6859 -14.6859
   -14.6332 -14.6332 -14.6136 -14.5820 -14.5820 -14.5527 -14.5527 -14.5393
   -14.5369 -14.5343 -14.5343 -14.5254 -14.5254 -14.4925 -14.4863 -14.4863
   -14.4766 -14.4736 -14.4736 -14.4724 -14.4568 -14.4339 -14.4312 -14.4261
   -14.4261 -14.4200 -14.4200 -14.4156 -14.4156 -14.3950 -14.3950 -14.3768
   -14.3436 -14.3436 -14.3356 -14.3356 -14.3269 -14.3147 -14.2998 -14.2998
   -14.2868 -14.2868 -14.2836 -14.2767 -14.2767 -14.2637 -14.2600 -14.2600
   -14.2496 -14.2496 -14.2431 -14.2431 -14.2390 -14.2390 -14.2352 -14.2263
   -14.0094  -9.5497  -8.4962  -7.0089  -5.3788  -5.3788  -5.2275  -4.2234
    -4.2234  -4.0565  -3.7671  -3.4942  -3.4942  -2.6677  -2.1763  -2.1763
    -1.9667  -1.7227  -1.7226  -1.1907  -0.3668  -0.2491  -0.2491   0.6128
     0.6128   0.6130   1.7491   3.0364   3.5061   3.5061   3.5074

          k = 0.0000 0.0316 0.0000 ( 20271 PWs)   bands (ev):

   -94.2402 -94.2393 -94.2392 -94.2192 -94.2185 -94.2185 -94.2163 -94.2162
   -94.2157 -94.1123 -94.0837 -94.0837 -94.0687 -94.0687 -94.0668 -94.0529
   -94.0528 -94.0528 -94.0351 -94.0345 -94.0345 -94.0312 -94.0309 -94.0308
   -94.0306 -94.0306 -94.0303 -94.0299 -94.0297 -94.0296 -94.0259 -94.0251
   -94.0250 -93.9903 -93.9700 -93.9700 -15.4458 -14.6966 -14.6808 -14.6726
   -14.6381 -14.6285 -14.6077 -14.5820 -14.5771 -14.5564 -14.5510 -14.5421
   -14.5407 -14.5301 -14.5278 -14.5179 -14.5144 -14.4871 -14.4818 -14.4808
   -14.4714 -14.4667 -14.4645 -14.4599 -14.4506 -14.4441 -14.4323 -14.4258
   -14.4255 -14.4216 -14.4156 -14.4100 -14.4058 -14.3983 -14.3926 -14.3781
   -14.3507 -14.3466 -14.3377 -14.3355 -14.3319 -14.3159 -14.3047 -14.3035
   -14.2941 -14.2905 -14.2871 -14.2832 -14.2809 -14.2690 -14.2651 -14.2638
   -14.2618 -14.2584 -14.2521 -14.2486 -14.2472 -14.2445 -14.2436 -14.2354
   -13.9998  -9.4160  -8.4042  -7.0215  -5.9363  -5.5316  -5.3050  -4.8278
    -4.5077  -4.4779  -3.7940  -3.1951  -3.1815  -2.6049  -2.0555  -1.7598
    -1.5919  -1.3947  -1.3879  -0.9947  -0.1924  -0.1414   0.0120   0.9197
     0.9846   1.4148   2.1216   2.5829   2.9994   3.3723   3.5200

          k = 0.0000 0.0632 0.0000 ( 20353 PWs)   bands (ev):

   -94.2400 -94.2394 -94.2393 -94.2191 -94.2186 -94.2185 -94.2163 -94.2162
   -94.2158 -94.1123 -94.0837 -94.0837 -94.0687 -94.0687 -94.0668 -94.0529
   -94.0528 -94.0528 -94.0350 -94.0346 -94.0345 -94.0310 -94.0308 -94.0307
   -94.0306 -94.0305 -94.0304 -94.0300 -94.0300 -94.0297 -94.0258 -94.0253
   -94.0250 -93.9903 -93.9700 -93.9700 -15.4317 -14.6865 -14.6613 -14.6450
   -14.6391 -14.6168 -14.5948 -14.5827 -14.5677 -14.5654 -14.5598 -14.5580
   -14.5409 -14.5223 -14.5141 -14.4900 -14.4853 -14.4815 -14.4782 -14.4688
   -14.4664 -14.4610 -14.4489 -14.4415 -14.4371 -14.4325 -14.4314 -14.4250
   -14.4213 -14.4189 -14.4059 -14.4005 -14.3904 -14.3853 -14.3785 -14.3772
   -14.3646 -14.3515 -14.3494 -14.3415 -14.3389 -14.3285 -14.3205 -14.3161
   -14.3117 -14.3058 -14.3016 -14.2992 -14.2912 -14.2901 -14.2835 -14.2822
   -14.2768 -14.2746 -14.2721 -14.2673 -14.2668 -14.2541 -14.2480 -14.2402
   -13.9811  -9.0308  -8.1810  -7.3013  -6.6419  -5.8441  -5.7755  -5.2543
    -4.7584  -4.6515  -4.0736  -3.4590  -3.1070  -2.5522  -1.6405  -1.2783
    -1.0930  -0.8920  -0.4353   0.2960   0.3351   0.5686   1.1893   1.6446
     1.6924   1.8408   2.3049   2.5402   2.6062   2.9544   3.3918

          k = 0.0000-0.0948 0.0000 ( 20384 PWs)   bands (ev):

   -94.2399 -94.2396 -94.2393 -94.2190 -94.2187 -94.2185 -94.2163 -94.2161
   -94.2159 -94.1123 -94.0837 -94.0837 -94.0687 -94.0687 -94.0668 -94.0529
   -94.0528 -94.0528 -94.0349 -94.0347 -94.0345 -94.0310 -94.0308 -94.0307
   -94.0305 -94.0303 -94.0303 -94.0303 -94.0302 -94.0297 -94.0257 -94.0254
   -94.0251 -93.9903 -93.9700 -93.9700 -15.4244 -14.6862 -14.6582 -14.6246
   -14.6188 -14.6005 -14.5964 -14.5862 -14.5793 -14.5719 -14.5667 -14.5540
   -14.5433 -14.5231 -14.5035 -14.4924 -14.4884 -14.4719 -14.4671 -14.4574
   -14.4544 -14.4469 -14.4468 -14.4388 -14.4375 -14.4280 -14.4264 -14.4114
   -14.4110 -14.4048 -14.3987 -14.3874 -14.3857 -14.3793 -14.3770 -14.3742
   -14.3567 -14.3544 -14.3543 -14.3486 -14.3387 -14.3338 -14.3314 -14.3311
   -14.3249 -14.3217 -14.3209 -14.3153 -14.3085 -14.3017 -14.3008 -14.2922
   -14.2886 -14.2827 -14.2801 -14.2723 -14.2683 -14.2558 -14.2488 -14.2403
   -13.9720  -8.6202  -8.1723  -7.6339  -6.9309  -5.9652  -5.8772  -5.2266
    -5.0656  -4.8620  -4.1798  -3.1395  -3.0962  -3.0116  -1.6923  -1.0237
    -0.1738   0.0226   0.1439   0.4661   0.5250   0.8579   1.5383   1.6080
     1.8009   2.1515   2.3702   2.7713   2.7828   2.8697   3.2940

          k = 0.0274-0.0158 0.0000 ( 20271 PWs)   bands (ev):

   -94.2402 -94.2393 -94.2392 -94.2192 -94.2186 -94.2185 -94.2163 -94.2162
   -94.2157 -94.1123 -94.0837 -94.0837 -94.0687 -94.0687 -94.0668 -94.0529
   -94.0528 -94.0528 -94.0351 -94.0345 -94.0345 -94.0312 -94.0309 -94.0308
   -94.0306 -94.0306 -94.0303 -94.0299 -94.0297 -94.0296 -94.0259 -94.0251
   -94.0250 -93.9903 -93.9700 -93.9700 -15.4458 -14.6966 -14.6808 -14.6726
   -14.6381 -14.6285 -14.6077 -14.5820 -14.5771 -14.5564 -14.5510 -14.5421
   -14.5407 -14.5301 -14.5278 -14.5179 -14.5144 -14.4871 -14.4818 -14.4808
   -14.4714 -14.4667 -14.4645 -14.4599 -14.4506 -14.4441 -14.4323 -14.4258
   -14.4255 -14.4216 -14.4156 -14.4100 -14.4058 -14.3983 -14.3926 -14.3781
   -14.3507 -14.3466 -14.3377 -14.3355 -14.3319 -14.3159 -14.3047 -14.3035
   -14.2941 -14.2905 -14.2871 -14.2832 -14.2809 -14.2690 -14.2651 -14.2638
   -14.2618 -14.2584 -14.2521 -14.2486 -14.2472 -14.2445 -14.2436 -14.2354
   -13.9998  -9.4160  -8.4042  -7.0215  -5.9363  -5.5315  -5.3050  -4.8278
    -4.5077  -4.4779  -3.7940  -3.1951  -3.1814  -2.6049  -2.0555  -1.7598
    -1.5919  -1.3947  -1.3879  -0.9947  -0.1924  -0.1414   0.0120   0.9197
     0.9846   1.4148   2.1216   2.5829   2.9994   3.3723   3.5200

          k = 0.0274 0.0158 0.0000 ( 20271 PWs)   bands (ev):

   -94.2402 -94.2393 -94.2392 -94.2192 -94.2186 -94.2185 -94.2163 -94.2162
   -94.2157 -94.1123 -94.0837 -94.0837 -94.0687 -94.0687 -94.0668 -94.0529
   -94.0528 -94.0528 -94.0351 -94.0345 -94.0345 -94.0312 -94.0309 -94.0308
   -94.0306 -94.0306 -94.0303 -94.0299 -94.0297 -94.0296 -94.0259 -94.0251
   -94.0250 -93.9903 -93.9700 -93.9700 -15.4458 -14.6966 -14.6808 -14.6726
   -14.6381 -14.6285 -14.6077 -14.5820 -14.5771 -14.5564 -14.5510 -14.5421
   -14.5407 -14.5301 -14.5278 -14.5179 -14.5144 -14.4871 -14.4818 -14.4808
   -14.4714 -14.4667 -14.4645 -14.4599 -14.4506 -14.4441 -14.4323 -14.4258
   -14.4255 -14.4216 -14.4156 -14.4100 -14.4058 -14.3983 -14.3926 -14.3781
   -14.3507 -14.3466 -14.3377 -14.3355 -14.3319 -14.3159 -14.3047 -14.3035
   -14.2941 -14.2905 -14.2871 -14.2832 -14.2809 -14.2690 -14.2651 -14.2638
   -14.2618 -14.2584 -14.2521 -14.2486 -14.2472 -14.2445 -14.2436 -14.2354
   -13.9998  -9.4160  -8.4042  -7.0215  -5.9363  -5.5316  -5.3050  -4.8278
    -4.5077  -4.4779  -3.7940  -3.1951  -3.1815  -2.6049  -2.0555  -1.7598
    -1.5919  -1.3947  -1.3879  -0.9947  -0.1924  -0.1414   0.0120   0.9197
     0.9846   1.4148   2.1216   2.5829   2.9994   3.3723   3.5200

          k = 0.0274 0.0474 0.0000 ( 20341 PWs)   bands (ev):

   -94.2401 -94.2394 -94.2393 -94.2191 -94.2186 -94.2185 -94.2163 -94.2162
   -94.2158 -94.1123 -94.0837 -94.0837 -94.0687 -94.0687 -94.0668 -94.0529
   -94.0528 -94.0528 -94.0350 -94.0346 -94.0345 -94.0311 -94.0309 -94.0308
   -94.0306 -94.0305 -94.0304 -94.0300 -94.0298 -94.0297 -94.0258 -94.0252
   -94.0251 -93.9903 -93.9700 -93.9700 -15.4353 -14.6815 -14.6746 -14.6516
   -14.6410 -14.6208 -14.5977 -14.5823 -14.5692 -14.5651 -14.5538 -14.5488
   -14.5464 -14.5241 -14.5127 -14.5066 -14.4894 -14.4796 -14.4758 -14.4719
   -14.4657 -14.4621 -14.4543 -14.4486 -14.4439 -14.4335 -14.4301 -14.4257
   -14.4246 -14.4212 -14.4148 -14.4036 -14.3938 -14.3876 -14.3854 -14.3792
   -14.3576 -14.3534 -14.3453 -14.3396 -14.3377 -14.3245 -14.3145 -14.3096
   -14.3059 -14.3018 -14.2983 -14.2905 -14.2901 -14.2835 -14.2804 -14.2754
   -14.2708 -14.2685 -14.2659 -14.2624 -14.2577 -14.2528 -14.2485 -14.2472
   -13.9857  -9.1555  -8.2412  -7.1060  -6.3955  -6.1283  -5.5824  -5.4538
    -4.5080  -4.1750  -3.8530  -3.6633  -3.1638  -2.6071  -1.6657  -1.5472
    -1.4545  -0.9052  -0.4793  -0.2858   0.3798   0.4389   0.8792   0.9989
     1.6460   1.8048   2.3443   2.4368   2.7905   3.0145   3.4506

          k = 0.0274-0.1106 0.0000 ( 20377 PWs)   bands (ev):

   -94.2399 -94.2396 -94.2393 -94.2190 -94.2187 -94.2185 -94.2163 -94.2161
   -94.2159 -94.1123 -94.0837 -94.0837 -94.0687 -94.0687 -94.0668 -94.0529
   -94.0528 -94.0528 -94.0349 -94.0347 -94.0345 -94.0309 -94.0308 -94.0307
   -94.0306 -94.0305 -94.0303 -94.0302 -94.0300 -94.0297 -94.0257 -94.0254
   -94.0251 -93.9903 -93.9700 -93.9700 -15.4244 -14.6781 -14.6583 -14.6428
   -14.6161 -14.6053 -14.5949 -14.5861 -14.5731 -14.5699 -14.5616 -14.5531
   -14.5449 -14.5215 -14.4979 -14.4956 -14.4824 -14.4752 -14.4667 -14.4601
   -14.4550 -14.4513 -14.4450 -14.4381 -14.4338 -14.4282 -14.4235 -14.4189
   -14.4150 -14.4054 -14.4012 -14.3927 -14.3834 -14.3802 -14.3773 -14.3748
   -14.3683 -14.3578 -14.3538 -14.3491 -14.3413 -14.3390 -14.3316 -14.3260
   -14.3224 -14.3150 -14.3130 -14.3092 -14.3034 -14.2979 -14.2953 -14.2903
   -14.2859 -14.2805 -14.2775 -14.2733 -14.2696 -14.2600 -14.2537 -14.2487
   -13.9721  -8.7041  -8.0601  -7.4522  -6.8940  -6.5499  -5.8842  -5.5089
    -4.8622  -4.3249  -3.8972  -3.5043  -3.0427  -2.3627  -2.0960  -1.4431
    -0.7707  -0.1048   0.2499   0.5039   0.8841   1.0336   1.2889   1.6442
     1.7979   1.9904   2.1735   2.6883   2.9238   3.0276   3.2216

          k = 0.0274-0.0790 0.0000 ( 20377 PWs)   bands (ev):

   -94.2399 -94.2396 -94.2392 -94.2190 -94.2187 -94.2185 -94.2163 -94.2161
   -94.2159 -94.1123 -94.0837 -94.0837 -94.0687 -94.0687 -94.0668 -94.0529
   -94.0528 -94.0528 -94.0349 -94.0347 -94.0345 -94.0309 -94.0308 -94.0307
   -94.0306 -94.0305 -94.0303 -94.0302 -94.0300 -94.0297 -94.0257 -94.0254
   -94.0251 -93.9903 -93.9700 -93.9700 -15.4244 -14.6781 -14.6583 -14.6428
   -14.6161 -14.6053 -14.5949 -14.5861 -14.5731 -14.5699 -14.5616 -14.5531
   -14.5449 -14.5215 -14.4979 -14.4956 -14.4824 -14.4752 -14.4667 -14.4601
   -14.4550 -14.4513 -14.4450 -14.4381 -14.4338 -14.4282 -14.4235 -14.4189
   -14.4150 -14.4054 -14.4012 -14.3927 -14.3834 -14.3802 -14.3773 -14.3748
   -14.3683 -14.3578 -14.3538 -14.3491 -14.3413 -14.3390 -14.3316 -14.3260
   -14.3224 -14.3150 -14.3130 -14.3092 -14.3034 -14.2979 -14.2953 -14.2903
   -14.2859 -14.2805 -14.2775 -14.2733 -14.2696 -14.2600 -14.2537 -14.2487
   -13.9721  -8.7042  -8.0601  -7.4522  -6.8940  -6.5499  -5.8842  -5.5090
    -4.8622  -4.3249  -3.8972  -3.5044  -3.0427  -2.3627  -2.0960  -1.4431
    -0.7707  -0.1048   0.2499   0.5039   0.8841   1.0336   1.2889   1.6442
     1.7979   1.9904   2.1735   2.6883   2.9238   3.0276   3.2216

          k = 0.0274-0.0474 0.0000 ( 20341 PWs)   bands (ev):

   -94.2401 -94.2394 -94.2393 -94.2191 -94.2186 -94.2185 -94.2163 -94.2162
   -94.2158 -94.1123 -94.0837 -94.0837 -94.0687 -94.0687 -94.0668 -94.0529
   -94.0528 -94.0528 -94.0350 -94.0346 -94.0345 -94.0311 -94.0309 -94.0308
   -94.0306 -94.0305 -94.0304 -94.0300 -94.0298 -94.0297 -94.0258 -94.0252
   -94.0251 -93.9903 -93.9700 -93.9700 -15.4353 -14.6815 -14.6746 -14.6516
   -14.6410 -14.6208 -14.5977 -14.5823 -14.5692 -14.5651 -14.5538 -14.5488
   -14.5464 -14.5241 -14.5127 -14.5066 -14.4894 -14.4796 -14.4758 -14.4719
   -14.4657 -14.4621 -14.4543 -14.4486 -14.4439 -14.4335 -14.4301 -14.4257
   -14.4246 -14.4212 -14.4148 -14.4036 -14.3938 -14.3876 -14.3854 -14.3792
   -14.3576 -14.3534 -14.3453 -14.3396 -14.3377 -14.3245 -14.3145 -14.3096
   -14.3059 -14.3018 -14.2983 -14.2905 -14.2901 -14.2835 -14.2804 -14.2754
   -14.2708 -14.2685 -14.2659 -14.2624 -14.2577 -14.2528 -14.2485 -14.2472
   -13.9857  -9.1555  -8.2412  -7.1060  -6.3955  -6.1283  -5.5824  -5.4538
    -4.5080  -4.1750  -3.8530  -3.6633  -3.1638  -2.6071  -1.6657  -1.5472
    -1.4546  -0.9052  -0.4793  -0.2858   0.3798   0.4389   0.8792   0.9989
     1.6460   1.8048   2.3443   2.4368   2.7905   3.0145   3.4506

          k = 0.0547-0.0316 0.0000 ( 20353 PWs)   bands (ev):

   -94.2400 -94.2395 -94.2392 -94.2191 -94.2187 -94.2185 -94.2163 -94.2162
   -94.2158 -94.1123 -94.0837 -94.0837 -94.0687 -94.0687 -94.0668 -94.0529
   -94.0528 -94.0528 -94.0350 -94.0346 -94.0345 -94.0310 -94.0309 -94.0307
   -94.0306 -94.0305 -94.0304 -94.0300 -94.0300 -94.0297 -94.0258 -94.0253
   -94.0250 -93.9903 -93.9700 -93.9700 -15.4317 -14.6865 -14.6613 -14.6450
   -14.6391 -14.6168 -14.5948 -14.5827 -14.5677 -14.5654 -14.5598 -14.5580
   -14.5409 -14.5223 -14.5141 -14.4900 -14.4853 -14.4815 -14.4782 -14.4688
   -14.4664 -14.4610 -14.4489 -14.4415 -14.4371 -14.4325 -14.4314 -14.4250
   -14.4213 -14.4189 -14.4059 -14.4005 -14.3904 -14.3853 -14.3785 -14.3772
   -14.3646 -14.3515 -14.3494 -14.3415 -14.3389 -14.3285 -14.3205 -14.3161
   -14.3117 -14.3058 -14.3016 -14.2992 -14.2912 -14.2901 -14.2835 -14.2822
   -14.2768 -14.2746 -14.2721 -14.2673 -14.2668 -14.2541 -14.2480 -14.2402
   -13.9811  -9.0308  -8.1810  -7.3013  -6.6419  -5.8441  -5.7755  -5.2543
    -4.7583  -4.6515  -4.0736  -3.4590  -3.1070  -2.5522  -1.6405  -1.2783
    -1.0930  -0.8920  -0.4353   0.2960   0.3351   0.5686   1.1893   1.6446
     1.6924   1.8408   2.3049   2.5402   2.6062   2.9544   3.3918

          k = 0.0547 0.0000 0.0000 ( 20341 PWs)   bands (ev):

   -94.2401 -94.2394 -94.2393 -94.2191 -94.2186 -94.2185 -94.2163 -94.2162
   -94.2158 -94.1123 -94.0837 -94.0837 -94.0687 -94.0687 -94.0668 -94.0529
   -94.0528 -94.0528 -94.0350 -94.0346 -94.0345 -94.0311 -94.0309 -94.0308
   -94.0306 -94.0305 -94.0304 -94.0300 -94.0298 -94.0297 -94.0258 -94.0252
   -94.0251 -93.9903 -93.9700 -93.9700 -15.4353 -14.6815 -14.6746 -14.6516
   -14.6410 -14.6208 -14.5977 -14.5823 -14.5692 -14.5651 -14.5538 -14.5488
   -14.5464 -14.5241 -14.5127 -14.5066 -14.4894 -14.4796 -14.4758 -14.4719
   -14.4657 -14.4621 -14.4543 -14.4486 -14.4439 -14.4335 -14.4301 -14.4257
   -14.4246 -14.4212 -14.4148 -14.4036 -14.3938 -14.3876 -14.3854 -14.3792
   -14.3576 -14.3534 -14.3453 -14.3396 -14.3377 -14.3245 -14.3145 -14.3096
   -14.3059 -14.3018 -14.2983 -14.2905 -14.2901 -14.2835 -14.2804 -14.2754
   -14.2708 -14.2685 -14.2659 -14.2624 -14.2577 -14.2528 -14.2485 -14.2472
   -13.9857  -9.1555  -8.2412  -7.1060  -6.3955  -6.1283  -5.5824  -5.4538
    -4.5080  -4.1750  -3.8530  -3.6633  -3.1638  -2.6071  -1.6657  -1.5472
    -1.4546  -0.9052  -0.4793  -0.2858   0.3798   0.4389   0.8792   0.9989
     1.6460   1.8048   2.3443   2.4368   2.7905   3.0145   3.4506

          k = 0.0547 0.0316 0.0000 ( 20353 PWs)   bands (ev):

   -94.2400 -94.2395 -94.2392 -94.2191 -94.2187 -94.2185 -94.2163 -94.2162
   -94.2158 -94.1123 -94.0837 -94.0837 -94.0687 -94.0687 -94.0668 -94.0529
   -94.0528 -94.0528 -94.0350 -94.0346 -94.0345 -94.0310 -94.0309 -94.0307
[...]
    -4.6072  -4.1918  -3.9669  -3.4869  -3.2648  -2.9008  -1.9701  -1.8539
    -1.6133  -1.3248  -0.9074  -0.7638  -0.1614  -0.1449   0.3512   0.5266
     1.1559   1.3832   1.8120   2.0307   2.4056   2.5244   3.1054

          k = 0.0547-0.0316 0.0000 ( 20353 PWs)   bands (ev):

   -94.5938 -94.5937 -94.5936 -94.5879 -94.5768 -94.5765 -94.5764 -94.5759
   -94.5755 -94.5751 -94.5692 -94.5654 -94.5654 -94.5606 -94.5606 -94.5545
   -94.5544 -94.5544 -94.5367 -94.5362 -94.5361 -94.5353 -94.5352 -94.5349
   -94.5348 -94.5342 -94.5341 -94.5340 -94.5338 -94.5337 -94.5294 -94.5290
   -94.5288 -94.5028 -94.4864 -94.4864 -15.0324 -15.0126 -15.0101 -15.0075
   -14.9990 -14.9852 -14.9784 -14.9744 -14.9708 -14.9689 -14.9669 -14.9633
   -14.9603 -14.9542 -14.9456 -14.9418 -14.9416 -14.9364 -14.9332 -14.9313
   -14.9284 -14.9231 -14.9177 -14.9116 -14.9111 -14.9033 -14.9029 -14.8975
   -14.8902 -14.8830 -14.8765 -14.8712 -14.8688 -14.8638 -14.8618 -14.8571
   -14.8489 -14.8478 -14.8410 -14.8311 -14.8236 -14.8206 -14.8119 -14.8111
   -14.8080 -14.7993 -14.7960 -14.7945 -14.7883 -14.7861 -14.7817 -14.7796
   -14.7761 -14.7735 -14.7705 -14.7666 -14.7568 -14.7504 -14.7385 -14.7383
   -12.9028  -9.2615  -7.9087  -7.4471  -6.4268  -5.9964  -5.6441  -5.6108
    -4.9927  -4.4286  -4.1745  -3.6497  -2.9446  -2.6326  -1.9294  -1.5592
    -1.3906  -1.2655  -1.0716  -0.2321  -0.1524   0.1279   0.5660   1.2718
     1.2765   1.5730   1.7923   2.0821   2.1148   2.7918   2.8316

          k = 0.0547 0.0000 0.0000 ( 20341 PWs)   bands (ev):

   -94.5938 -94.5937 -94.5936 -94.5879 -94.5767 -94.5766 -94.5764 -94.5759
   -94.5754 -94.5752 -94.5692 -94.5654 -94.5654 -94.5606 -94.5606 -94.5545
   -94.5544 -94.5544 -94.5368 -94.5362 -94.5361 -94.5353 -94.5352 -94.5349
   -94.5348 -94.5342 -94.5341 -94.5339 -94.5337 -94.5337 -94.5294 -94.5290
   -94.5288 -94.5028 -94.4864 -94.4864 -15.0322 -15.0273 -15.0169 -15.0133
   -14.9990 -14.9943 -14.9828 -14.9781 -14.9744 -14.9727 -14.9704 -14.9651
   -14.9617 -14.9576 -14.9484 -14.9460 -14.9443 -14.9390 -14.9369 -14.9321
   -14.9309 -14.9273 -14.9206 -14.9167 -14.9122 -14.9104 -14.9054 -14.9009
   -14.8951 -14.8846 -14.8793 -14.8682 -14.8661 -14.8628 -14.8565 -14.8536
   -14.8512 -14.8404 -14.8373 -14.8321 -14.8198 -14.8111 -14.8079 -14.8032
   -14.7997 -14.7961 -14.7923 -14.7888 -14.7863 -14.7825 -14.7753 -14.7705
   -14.7672 -14.7648 -14.7627 -14.7616 -14.7533 -14.7527 -14.7432 -14.7382
   -12.9048  -9.4121  -8.0487  -6.7510  -6.6939  -6.2826  -5.6326  -5.3379
    -4.6072  -4.1918  -3.9669  -3.4869  -3.2648  -2.9008  -1.9701  -1.8539
    -1.6133  -1.3248  -0.9074  -0.7638  -0.1614  -0.1449   0.3512   0.5266
     1.1559   1.3832   1.8120   2.0306   2.4056   2.5244   3.1054

          k = 0.0547 0.0316 0.0000 ( 20353 PWs)   bands (ev):

   -94.5938 -94.5937 -94.5936 -94.5879 -94.5768 -94.5765 -94.5764 -94.5759
   -94.5755 -94.5752 -94.5692 -94.5654 -94.5654 -94.5606 -94.5606 -94.5545
   -94.5544 -94.5544 -94.5367 -94.5363 -94.5361 -94.5353 -94.5352 -94.5349
   -94.5348 -94.5342 -94.5341 -94.5340 -94.5338 -94.5337 -94.5294 -94.5290
   -94.5288 -94.5028 -94.4864 -94.4864 -15.0324 -15.0126 -15.0101 -15.0075
   -14.9990 -14.9852 -14.9784 -14.9744 -14.9708 -14.9689 -14.9669 -14.9633
   -14.9603 -14.9542 -14.9456 -14.9418 -14.9416 -14.9364 -14.9332 -14.9313
   -14.9284 -14.9231 -14.9177 -14.9116 -14.9111 -14.9033 -14.9029 -14.8975
   -14.8902 -14.8830 -14.8765 -14.8712 -14.8688 -14.8638 -14.8618 -14.8571
   -14.8489 -14.8478 -14.8410 -14.8311 -14.8236 -14.8206 -14.8119 -14.8111
   -14.8080 -14.7993 -14.7960 -14.7945 -14.7883 -14.7861 -14.7817 -14.7796
   -14.7761 -14.7735 -14.7705 -14.7666 -14.7568 -14.7504 -14.7385 -14.7383
   -12.9028  -9.2615  -7.9087  -7.4471  -6.4268  -5.9964  -5.6441  -5.6108
    -4.9926  -4.4286  -4.1745  -3.6497  -2.9446  -2.6326  -1.9294  -1.5592
    -1.3906  -1.2656  -1.0717  -0.2321  -0.1524   0.1279   0.5660   1.2718
     1.2765   1.5730   1.7923   2.0821   2.1148   2.7918   2.8316

          k = 0.0547-0.1264 0.0000 ( 20377 PWs)   bands (ev):

   -94.5938 -94.5937 -94.5936 -94.5879 -94.5767 -94.5764 -94.5763 -94.5760
   -94.5756 -94.5752 -94.5692 -94.5654 -94.5654 -94.5606 -94.5606 -94.5545
   -94.5545 -94.5544 -94.5366 -94.5363 -94.5361 -94.5353 -94.5351 -94.5349
   -94.5347 -94.5343 -94.5342 -94.5340 -94.5338 -94.5337 -94.5293 -94.5291
   -94.5288 -94.5028 -94.4864 -94.4864 -15.0129 -14.9975 -14.9951 -14.9920
   -14.9837 -14.9799 -14.9740 -14.9679 -14.9659 -14.9603 -14.9582 -14.9537
   -14.9511 -14.9477 -14.9429 -14.9377 -14.9340 -14.9308 -14.9280 -14.9248
   -14.9213 -14.9143 -14.9119 -14.9048 -14.9033 -14.8991 -14.8948 -14.8908
   -14.8878 -14.8870 -14.8835 -14.8743 -14.8727 -14.8691 -14.8617 -14.8588
   -14.8551 -14.8485 -14.8444 -14.8402 -14.8363 -14.8304 -14.8270 -14.8240
   -14.8189 -14.8122 -14.8113 -14.8060 -14.8004 -14.7941 -14.7921 -14.7873
   -14.7851 -14.7806 -14.7762 -14.7721 -14.7622 -14.7575 -14.7484 -14.7415
   -12.8989  -8.8090  -7.8988  -7.4898  -7.0031  -6.6831  -5.9919  -5.4910
    -4.8628  -4.3479  -4.0774  -3.6029  -3.1023  -2.5928  -2.1160  -1.6305
    -1.0905  -0.6739  -0.1691   0.0137   0.2988   0.5075   0.9038   1.0229
     1.4343   1.6569   1.7580   2.3488   2.5950   2.7584   2.9106

          k = 0.0547-0.0948 0.0000 ( 20397 PWs)   bands (ev):

   -94.5938 -94.5937 -94.5937 -94.5879 -94.5765 -94.5764 -94.5764 -94.5759
   -94.5757 -94.5753 -94.5692 -94.5654 -94.5654 -94.5606 -94.5606 -94.5545
   -94.5545 -94.5544 -94.5365 -94.5365 -94.5360 -94.5353 -94.5351 -94.5350
   -94.5344 -94.5344 -94.5342 -94.5339 -94.5339 -94.5338 -94.5292 -94.5292
   -94.5289 -94.5028 -94.4864 -94.4864 -14.9870 -14.9870 -14.9794 -14.9779
   -14.9766 -14.9760 -14.9757 -14.9738 -14.9727 -14.9612 -14.9581 -14.9515
   -14.9490 -14.9439 -14.9396 -14.9354 -14.9323 -14.9212 -14.9195 -14.9165
   -14.9127 -14.9107 -14.9101 -14.9055 -14.9043 -14.8959 -14.8928 -14.8904
   -14.8880 -14.8853 -14.8852 -14.8794 -14.8742 -14.8661 -14.8641 -14.8609
   -14.8595 -14.8556 -14.8542 -14.8503 -14.8436 -14.8391 -14.8348 -14.8271
   -14.8243 -14.8169 -14.8071 -14.8056 -14.8024 -14.7966 -14.7925 -14.7922
   -14.7858 -14.7834 -14.7830 -14.7719 -14.7693 -14.7665 -14.7599 -14.7448
   -12.8970  -8.1127  -8.0588  -7.9781  -6.9489  -6.7904  -6.6391  -5.4527
    -4.7558  -4.5593  -3.6481  -3.1049  -3.0789  -2.8529  -2.1555  -1.7143
    -0.6486  -0.5857  -0.5444  -0.0232   0.0345   0.1982   1.3038   1.3342
     1.3622   2.4823   2.5094   2.6841   3.0578   3.1282   3.1593

          k = 0.0547-0.0632 0.0000 ( 20377 PWs)   bands (ev):

   -94.5938 -94.5937 -94.5936 -94.5879 -94.5766 -94.5764 -94.5763 -94.5760
   -94.5756 -94.5752 -94.5692 -94.5654 -94.5654 -94.5606 -94.5606 -94.5545
   -94.5545 -94.5544 -94.5366 -94.5363 -94.5361 -94.5353 -94.5351 -94.5349
   -94.5347 -94.5343 -94.5342 -94.5340 -94.5338 -94.5337 -94.5293 -94.5291
   -94.5288 -94.5028 -94.4864 -94.4864 -15.0129 -14.9975 -14.9951 -14.9920
   -14.9837 -14.9799 -14.9740 -14.9679 -14.9659 -14.9603 -14.9582 -14.9537
   -14.9511 -14.9477 -14.9429 -14.9377 -14.9340 -14.9308 -14.9280 -14.9248
   -14.9213 -14.9143 -14.9119 -14.9048 -14.9033 -14.8991 -14.8948 -14.8908
   -14.8878 -14.8870 -14.8835 -14.8743 -14.8727 -14.8691 -14.8617 -14.8588
   -14.8551 -14.8485 -14.8444 -14.8402 -14.8363 -14.8304 -14.8270 -14.8240
   -14.8189 -14.8122 -14.8113 -14.8060 -14.8004 -14.7941 -14.7921 -14.7872
   -14.7851 -14.7806 -14.7762 -14.7721 -14.7622 -14.7575 -14.7484 -14.7415
   -12.8989  -8.8090  -7.8988  -7.4898  -7.0031  -6.6831  -5.9919  -5.4909
    -4.8628  -4.3479  -4.0775  -3.6029  -3.1022  -2.5928  -2.1160  -1.6304
    -1.0905  -0.6739  -0.1691   0.0137   0.2988   0.5075   0.9038   1.0229
     1.4343   1.6569   1.7580   2.3488   2.5949   2.7584   2.9106

          k =-0.0821 0.0474 0.0000 ( 20384 PWs)   bands (ev):

   -94.5938 -94.5937 -94.5936 -94.5879 -94.5767 -94.5763 -94.5763 -94.5760
   -94.5757 -94.5752 -94.5692 -94.5654 -94.5654 -94.5606 -94.5606 -94.5545
   -94.5545 -94.5544 -94.5366 -94.5363 -94.5361 -94.5354 -94.5351 -94.5349
   -94.5347 -94.5343 -94.5342 -94.5340 -94.5338 -94.5337 -94.5293 -94.5291
   -94.5288 -94.5028 -94.4864 -94.4864 -15.0185 -15.0015 -14.9964 -14.9900
   -14.9835 -14.9795 -14.9769 -14.9759 -14.9666 -14.9562 -14.9531 -14.9496
   -14.9460 -14.9436 -14.9398 -14.9394 -14.9384 -14.9300 -14.9272 -14.9241
   -14.9228 -14.9176 -14.9091 -14.9029 -14.8986 -14.8969 -14.8941 -14.8897
   -14.8875 -14.8871 -14.8855 -14.8773 -14.8740 -14.8629 -14.8546 -14.8546
   -14.8528 -14.8473 -14.8449 -14.8365 -14.8336 -14.8314 -14.8288 -14.8243
   -14.8224 -14.8204 -14.8172 -14.8153 -14.8081 -14.7956 -14.7922 -14.7899
   -14.7869 -14.7857 -14.7801 -14.7718 -14.7581 -14.7525 -14.7395 -14.7388
   -12.8989  -8.5484  -8.4597  -7.2691  -7.1500  -6.0617  -5.7562  -5.5962
    -5.1188  -4.5933  -4.5477  -3.7492  -2.9488  -2.4894  -2.1054  -1.3672
    -0.5068  -0.4139  -0.2136  -0.1478   0.1216   0.2474   1.2020   1.2826
     1.3595   1.5674   2.2369   2.3995   2.4226   2.6610   2.7795

          k =-0.0821 0.0790 0.0000 ( 20377 PWs)   bands (ev):

   -94.5938 -94.5937 -94.5936 -94.5879 -94.5766 -94.5765 -94.5763 -94.5760
   -94.5756 -94.5752 -94.5692 -94.5654 -94.5654 -94.5606 -94.5606 -94.5545
   -94.5545 -94.5544 -94.5366 -94.5363 -94.5361 -94.5353 -94.5351 -94.5349
   -94.5347 -94.5343 -94.5342 -94.5340 -94.5338 -94.5337 -94.5293 -94.5291
   -94.5288 -94.5028 -94.4864 -94.4864 -15.0129 -14.9975 -14.9951 -14.9920
   -14.9837 -14.9799 -14.9740 -14.9679 -14.9659 -14.9603 -14.9582 -14.9537
   -14.9511 -14.9477 -14.9429 -14.9377 -14.9340 -14.9308 -14.9280 -14.9248
   -14.9213 -14.9143 -14.9119 -14.9048 -14.9033 -14.8991 -14.8948 -14.8908
   -14.8878 -14.8870 -14.8835 -14.8743 -14.8727 -14.8691 -14.8617 -14.8588
   -14.8551 -14.8485 -14.8444 -14.8402 -14.8363 -14.8304 -14.8270 -14.8240
   -14.8189 -14.8122 -14.8113 -14.8060 -14.8004 -14.7941 -14.7921 -14.7872
   -14.7851 -14.7806 -14.7762 -14.7721 -14.7622 -14.7575 -14.7484 -14.7415
   -12.8989  -8.8090  -7.8988  -7.4898  -7.0031  -6.6831  -5.9919  -5.4910
    -4.8628  -4.3479  -4.0775  -3.6029  -3.1022  -2.5928  -2.1160  -1.6304
    -1.0905  -0.6739  -0.1691   0.0137   0.2989   0.5075   0.9038   1.0229
     1.4343   1.6569   1.7580   2.3488   2.5949   2.7584   2.9106

          k =-0.0821 0.1106 0.0000 ( 20377 PWs)   bands (ev):

   -94.5938 -94.5937 -94.5936 -94.5879 -94.5767 -94.5764 -94.5763 -94.5760
   -94.5756 -94.5752 -94.5692 -94.5654 -94.5654 -94.5606 -94.5606 -94.5545
   -94.5545 -94.5544 -94.5366 -94.5363 -94.5361 -94.5353 -94.5351 -94.5349
   -94.5347 -94.5343 -94.5342 -94.5340 -94.5338 -94.5337 -94.5293 -94.5291
   -94.5288 -94.5028 -94.4864 -94.4864 -15.0129 -14.9975 -14.9951 -14.9920
   -14.9837 -14.9799 -14.9740 -14.9679 -14.9659 -14.9603 -14.9582 -14.9537
   -14.9511 -14.9477 -14.9429 -14.9377 -14.9340 -14.9308 -14.9280 -14.9248
   -14.9213 -14.9143 -14.9119 -14.9048 -14.9033 -14.8991 -14.8948 -14.8908
   -14.8878 -14.8870 -14.8835 -14.8743 -14.8727 -14.8691 -14.8617 -14.8588
   -14.8551 -14.8485 -14.8444 -14.8402 -14.8363 -14.8304 -14.8270 -14.8240
   -14.8189 -14.8122 -14.8113 -14.8060 -14.8004 -14.7941 -14.7921 -14.7873
   -14.7851 -14.7806 -14.7762 -14.7721 -14.7622 -14.7575 -14.7484 -14.7415
   -12.8989  -8.8090  -7.8988  -7.4898  -7.0031  -6.6831  -5.9919  -5.4909
    -4.8628  -4.3479  -4.0774  -3.6029  -3.1022  -2.5928  -2.1160  -1.6304
    -1.0905  -0.6739  -0.1691   0.0137   0.2988   0.5075   0.9038   1.0229
     1.4343   1.6569   1.7580   2.3488   2.5950   2.7584   2.9107

          k =-0.0821-0.0474 0.0000 ( 20384 PWs)   bands (ev):

   -94.5938 -94.5937 -94.5936 -94.5879 -94.5767 -94.5763 -94.5763 -94.5760
   -94.5757 -94.5752 -94.5692 -94.5654 -94.5654 -94.5606 -94.5606 -94.5545
   -94.5545 -94.5544 -94.5366 -94.5363 -94.5361 -94.5353 -94.5351 -94.5349
   -94.5346 -94.5343 -94.5342 -94.5340 -94.5338 -94.5337 -94.5293 -94.5291
   -94.5288 -94.5028 -94.4864 -94.4864 -15.0185 -15.0015 -14.9964 -14.9900
   -14.9835 -14.9795 -14.9769 -14.9759 -14.9666 -14.9562 -14.9531 -14.9496
   -14.9460 -14.9436 -14.9398 -14.9394 -14.9384 -14.9300 -14.9272 -14.9241
   -14.9228 -14.9176 -14.9091 -14.9029 -14.8986 -14.8969 -14.8941 -14.8897
   -14.8875 -14.8871 -14.8855 -14.8773 -14.8740 -14.8629 -14.8546 -14.8546
   -14.8528 -14.8473 -14.8449 -14.8365 -14.8336 -14.8314 -14.8288 -14.8243
   -14.8224 -14.8204 -14.8172 -14.8153 -14.8081 -14.7956 -14.7922 -14.7899
   -14.7869 -14.7857 -14.7801 -14.7718 -14.7581 -14.7525 -14.7395 -14.7388
   -12.8989  -8.5484  -8.4597  -7.2691  -7.1500  -6.0617  -5.7562  -5.5962
    -5.1188  -4.5933  -4.5477  -3.7492  -2.9489  -2.4894  -2.1055  -1.3672
    -0.5067  -0.4140  -0.2136  -0.1478   0.1216   0.2474   1.2020   1.2827
     1.3595   1.5675   2.2370   2.3995   2.4226   2.6610   2.7796

     the Fermi energy is     0.1829 ev

!    total energy              =   -5024.68149018 Ry
     Harris-Foulkes estimate   =   -5024.68149087 Ry
     estimated scf accuracy    <       0.00000007 Ry

     The total energy is the sum of the following terms:

     one-electron contribution =  -27131.92180859 Ry
     hartree contribution      =   13572.56416598 Ry
     xc contribution           =    -605.93080050 Ry
     ewald contribution        =    9140.64299171 Ry
     electric field correction =       0.00003131 Ry
     smearing contrib. (-TS)   =      -0.03607009 Ry

     convergence has been achieved in   7 iterations
 
 BEEF-vdW xc energy contributions
           1 :   -541.303451411067     
           2 :    491.056237253839     
           3 :   -406.852638807951     
           4 :    313.185160793594     
           5 :   -231.717324162632     
           6 :    173.211339120114     
           7 :   -135.982342823724     
           8 :    110.664511622588     
           9 :   -87.7009984622204     
          10 :    62.9238692577956     
          11 :   -38.4127251795292     
          12 :    19.1006617411308     
          13 :   -8.17416315935714     
          14 :    4.57279813674666     
          15 :   -3.95839807511788     
          16 :    1.93769336969058     
          17 :    3.06171036803994     
          18 :   -9.27281332820496     
          19 :    13.5102428295720     
          20 :   -13.8636141032273     
          21 :    11.1217456751704     
          22 :   -8.02103011995791     
          23 :    7.08697045531244     
          24 :   -8.80463412025711     
          25 :    11.4578898310656     
          26 :   -12.6318944793836     
          27 :    11.1321696777934     
          28 :   -7.85307913969530     
          29 :    5.01114422939440     
          30 :   -4.42063321496255     
          31 :   -40.2742243950865     
          32 :   -27.3166565795193     

     Forces acting on atoms (Ry/au):


     negative rho (up, down):  8.565E-04 0.000E+00
     atom    1 type  1   force =    -0.00202548   -0.00116974   -0.00131581
     atom    2 type  1   force =     0.00202562   -0.00116903   -0.00131611
     atom    3 type  1   force =     0.00000067    0.00233865   -0.00131655
     atom    4 type  1   force =    -0.00000025   -0.00000028    0.00203237
     atom    5 type  1   force =    -0.00000059    0.00037197   -0.00174925
     atom    6 type  1   force =     0.00000086    0.00000003    0.00719188
     atom    7 type  1   force =    -0.00032169   -0.00018581   -0.00175016
     atom    8 type  1   force =     0.00032171   -0.00018648   -0.00175000
     atom    9 type  1   force =    -0.00000327    0.00000073    0.00095651
     atom   10 type  1   force =     0.00000426   -0.00043099   -0.00036312
     atom   11 type  1   force =    -0.00037834    0.00022034   -0.00036547
     atom   12 type  1   force =     0.00037294    0.00021247   -0.00036539
     atom   13 type  2   force =     0.00000536   -0.00000074   -0.00029255
     atom   14 type  3   force =    -0.00000181   -0.00000112    0.00040362

     Total force =     0.001457     Total SCF correction =     0.001909
     SCF correction compared to forces is large: reduce conv_thr to get better values


     entering subroutine stress ...


     negative rho (up, down):  8.565E-04 0.000E+00
          total   stress  (Ry/bohr**3)                   (kbar)     P=   -5.71
  -0.00005777  -0.00000000   0.00000000         -8.50     -0.00      0.00
  -0.00000000  -0.00005777  -0.00000000         -0.00     -8.50     -0.00
   0.00000000  -0.00000000  -0.00000081          0.00     -0.00     -0.12


     bfgs converged in  19 scf cycles and  18 bfgs steps
     (criteria: energy <  1.0E+00, force <  1.9E-03)

     End of BFGS Geometry Optimization

     Final energy   =   -5024.6814901800 Ry
Begin final coordinates

ATOMIC_POSITIONS (crystal)
Ga1      0.166666667   0.166666667   0.400460194    0   0   0
Ga1      0.666666667   0.166666667   0.400460194    0   0   0
Ga1      0.166666667   0.666666667   0.400460194    0   0   0
Ga1      0.666666667   0.666666667   0.400460194    0   0   0
Ga1      0.833333333   0.333333333   0.500000000    0   0   0
Ga1      0.333333333   0.333333333   0.500000000    0   0   0
Ga1      0.833333333   0.833333333   0.500000000    0   0   0
Ga1      0.333333333   0.833333333   0.500000000    0   0   0
Ga1      0.000002527  -0.000002062   0.594970814
Ga1      0.506779013  -0.013562815   0.604667758
Ga1     -0.013564071   0.506781220   0.604666889
Ga1      0.506787264   0.506801280   0.604667500
S1       0.333322158   0.333341199   0.687778166
H1       0.333333861   0.333319659   0.742353896
End final coordinates



     Writing output data file calc.save
 
     init_run     :      7.25s CPU      9.59s WALL (       1 calls)
     electrons    :   3743.54s CPU   4863.05s WALL (      19 calls)
     update_pot   :     26.32s CPU     29.98s WALL (      18 calls)
     forces       :     96.66s CPU    101.87s WALL (      19 calls)
     stress       :    326.89s CPU    343.29s WALL (      19 calls)

     Called by init_run:
     wfcinit      :      4.86s CPU      6.78s WALL (       1 calls)
     potinit      :      0.77s CPU      0.91s WALL (       1 calls)

     Called by electrons:
     c_bands      :   2827.65s CPU   3651.32s WALL (     179 calls)
     sum_band     :    434.45s CPU    576.16s WALL (     179 calls)
     v_of_rho     :     86.07s CPU    116.00s WALL (     198 calls)
     newd         :    160.69s CPU    194.21s WALL (     198 calls)
     mix_rho      :      2.62s CPU      3.60s WALL (     179 calls)
     vdW_energy   :     79.75s CPU    101.99s WALL (     882 calls)
     vdW_ffts     :    115.60s CPU    162.73s WALL (    1802 calls)
     vdW_v        :     48.67s CPU     58.38s WALL (     882 calls)

     Called by c_bands:
     init_us_2    :     13.86s CPU     16.06s WALL (    7940 calls)
     cegterg      :   2725.37s CPU   3544.88s WALL (    3583 calls)

     Called by *egterg:
     h_psi        :   1347.12s CPU   2009.96s WALL (   19923 calls)
     s_psi        :    101.90s CPU    107.56s WALL (   19923 calls)
     g_psi        :     12.32s CPU     12.66s WALL (   16320 calls)
     cdiaghg      :    757.78s CPU    772.14s WALL (   19543 calls)

     Called by h_psi:
     add_vuspsi   :    100.82s CPU    105.99s WALL (   19923 calls)

     General routines
     calbec       :    163.93s CPU    167.17s WALL (   24263 calls)
     fft          :    183.51s CPU    253.64s WALL (   53043 calls)
     ffts         :      0.29s CPU      0.43s WALL (     377 calls)
     fftw         :   1126.95s CPU   1912.94s WALL ( 2775818 calls)
     interpolate  :      1.57s CPU      2.71s WALL (     377 calls)
     davcio       :      0.00s CPU      0.11s WALL (      20 calls)
 
     Parallel routines
     fft_scatter  :    722.41s CPU   1186.63s WALL ( 2829238 calls)
 
     PWSCF        :     1h10m CPU        1h29m WALL

 
   This run was terminated on:   1:24: 0  18Apr2018            

=------------------------------------------------------------------------------=
   JOB DONE.
=------------------------------------------------------------------------------=
