  python dir          : /u/if/mamunm/src/espresso
  espresso dir        : /nfs/slac/g/suncatfs/sw/espv18/espresso-dynpy-beef/bin
  pseudo dir          : /u/if/mamunm/psp/gbrv1.5pbe
  ase-espresso py git : GITVERSION



     Program PWSCF v.5.1rc2 (svn rev. 11289) starts on 23Apr2018 at 13:19: 0 

     This program is part of the open-source Quantum ESPRESSO suite
     for quantum simulation of materials; please cite
         "P. Giannozzi et al., J. Phys.:Condens. Matter 21 395502 (2009);
          URL http://www.quantum-espresso.org", 
     in publications or presentations arising from this work. More details at
     http://www.quantum-espresso.org/quote

     Parallel version (MPI), running on    36 processors
     K-points division:     npool     =       3
     R & G space division:  proc/nbgrp/npool/nimage =      12
     Reading input from pw.inp
     Message from routine read_cards :
     DEPRECATED: no units specified in CELL_PARAMETERS card

     Current dimensions of program PWSCF are:
     Max number of different atomic species (ntypx) = 10
     Max number of k-points (npk) =  40000
     Max angular momentum in pseudopotentials (lmaxx) =  3
     Presently stress not available with electric field


     **************************************************************************
     Initializing libbeef V0.1.1 with the BEEF-vdW functional.
     Citation: Wellendorff et al., PRB 85, 235149 (2012).
     **************************************************************************


     IMPORTANT: XC functional enforced from input :
     Exchange-correlation      = BEEF-VDW ( 1  4 27 13 2)
     Any further DFT definition will be discarded
     Please, verify this is what you really want


     Subspace diagonalization in iterative solution of the eigenvalue problem:
     a serial algorithm will be used

 
     Parallelization info
     --------------------
     sticks:   dense  smooth     PW     G-vecs:    dense   smooth      PW
     Min         226      89     26                42660    10745    1708
     Max         227      90     27                42689    10802    1729
     Sum        2713    1069    313               511963   129143   20533
 


     bravais-lattice index     =            0
     lattice parameter (alat)  =       1.8897  a.u.
     unit-cell volume          =    4301.6107 (a.u.)^3
     number of atoms/cell      =           14
     number of atomic types    =            3
     number of electrons       =       186.00
     number of Kohn-Sham states=          103
     kinetic-energy cutoff     =      36.7493  Ry
     charge density cutoff     =     367.4932  Ry
     convergence threshold     =      1.0E-05
     mixing beta               =       0.3000
     number of iterations used =           10  plain     mixing
     Exchange-correlation      = BEEF-VDW ( 1  4 27 13 2)
     nstep                     =           50


     celldm(1)=   1.889726  celldm(2)=   0.000000  celldm(3)=   0.000000
     celldm(4)=   0.000000  celldm(5)=   0.000000  celldm(6)=   0.000000

     crystal axes: (cart. coord. in units of alat)
               a(1) = (   5.483647   0.000000   0.000000 )  
               a(2) = (   2.741823   4.748977   0.000000 )  
               a(3) = (   0.000000   0.000000  24.477379 )  

     reciprocal axes: (cart. coord. in units 2 pi/alat)
               b(1) = (  0.182360 -0.105286  0.000000 )  
               b(2) = (  0.000000  0.210572  0.000000 )  
               b(3) = (  0.000000  0.000000  0.040854 )  


     PseudoPot. # 1 for Tc read from file:
     /u/if/mamunm/psp/gbrv1.5pbe/Tc.UPF
     MD5 check sum: 9eb49e5b028550b2339a02317eb7b844
     Pseudo is Ultrasoft + core correction, Zval = 15.0
     Generated by new atomic code, or converted to UPF format
     Using radial grid of  965 points,  6 beta functions with: 
                l(1) =   0
                l(2) =   0
                l(3) =   1
                l(4) =   1
                l(5) =   2
                l(6) =   2
     Q(r) pseudized with  8 coefficients,  rinner =    1.300   1.300   1.300
                                                       1.300   1.300

     PseudoPot. # 2 for N  read from file:
     /u/if/mamunm/psp/gbrv1.5pbe/N.UPF
     MD5 check sum: 95339753478d7afb44899504a8723017
     Pseudo is Ultrasoft + core correction, Zval =  5.0
     Generated by new atomic code, or converted to UPF format
     Using radial grid of  729 points,  4 beta functions with: 
                l(1) =   0
                l(2) =   0
                l(3) =   1
                l(4) =   1
     Q(r) pseudized with  8 coefficients,  rinner =    0.900   0.900   0.900


     PseudoPot. # 3 for H  read from file:
     /u/if/mamunm/psp/gbrv1.5pbe/H.UPF
     MD5 check sum: 761ae9a214b05c3daf00ab9f6b793d6f
     Pseudo is Ultrasoft, Zval =  1.0
     Generated by new atomic code, or converted to UPF format
     Using radial grid of  615 points,  2 beta functions with: 
                l(1) =   0
                l(2) =   0
     Q(r) pseudized with  8 coefficients,  rinner =    0.700

     vdW kernel table read from file vdW_kernel_table
     MD5 check sum: 095c7af220d748ca6e76c0b4c6cfb241

     atomic species   valence    mass     pseudopotential
        Tc1           15.00    97.90721     Tc( 1.00)
        N1             5.00    14.00700     N ( 1.00)
        H1             1.00     1.00800     H ( 1.00)

     No symmetry found



   Cartesian axes

     site n.     atom                  positions (alat units)
         1           Tc1 tau(   1) = (   1.3709117   0.7914962  10.0000000  )
         2           Tc1 tau(   2) = (   4.1127351   0.7914962  10.0000000  )
         3           Tc1 tau(   3) = (   2.7418234   3.1659850  10.0000000  )
         4           Tc1 tau(   4) = (   5.4836469   3.1659850  10.0000000  )
         5           Tc1 tau(   5) = (   5.4836469   1.5829925  12.2386895  )
         6           Tc1 tau(   6) = (   2.7418234   1.5829925  12.2386895  )
         7           Tc1 tau(   7) = (   6.8545586   3.9574812  12.2386895  )
         8           Tc1 tau(   8) = (   4.1127351   3.9574812  12.2386895  )
         9           Tc1 tau(   9) = (   0.0000000   0.0000000  14.4773789  )
        10           Tc1 tau(  10) = (   2.7418234   0.0000000  14.4773789  )
        11           Tc1 tau(  11) = (   1.3709117   2.3744887  14.4773789  )
        12           Tc1 tau(  12) = (   4.1127351   2.3744887  14.4773789  )
        13           N1  tau(  13) = (   2.7418234   1.5829925  15.8943789  )
        14           H1  tau(  14) = (   2.7418234   1.5829925  16.9443789  )

     number of k points=    20  Fermi-Dirac smearing, width (Ry)=  0.0110
                       cart. coord. in units 2pi/alat
        k(    1) = (   0.0000000   0.0000000   0.0000000), wk =   0.0555556
        k(    2) = (   0.0000000   0.0350953   0.0000000), wk =   0.1111111
        k(    3) = (   0.0000000   0.0701905   0.0000000), wk =   0.1111111
        k(    4) = (   0.0000000  -0.1052858   0.0000000), wk =   0.0555556
        k(    5) = (   0.0303934  -0.0175476   0.0000000), wk =   0.1111111
        k(    6) = (   0.0303934   0.0175476   0.0000000), wk =   0.1111111
        k(    7) = (   0.0303934   0.0526429   0.0000000), wk =   0.1111111
        k(    8) = (   0.0303934  -0.1228335   0.0000000), wk =   0.1111111
        k(    9) = (   0.0303934  -0.0877382   0.0000000), wk =   0.1111111
        k(   10) = (   0.0303934  -0.0526429   0.0000000), wk =   0.1111111
        k(   11) = (   0.0607868  -0.0350953   0.0000000), wk =   0.1111111
        k(   12) = (   0.0607868   0.0000000   0.0000000), wk =   0.1111111
        k(   13) = (   0.0607868   0.0350953   0.0000000), wk =   0.1111111
        k(   14) = (   0.0607868  -0.1403811   0.0000000), wk =   0.1111111
        k(   15) = (   0.0607868  -0.1052858   0.0000000), wk =   0.1111111
        k(   16) = (   0.0607868  -0.0701905   0.0000000), wk =   0.1111111
        k(   17) = (  -0.0911802   0.0526429   0.0000000), wk =   0.0555556
        k(   18) = (  -0.0911802   0.0877382   0.0000000), wk =   0.1111111
        k(   19) = (  -0.0911802   0.1228335   0.0000000), wk =   0.1111111
        k(   20) = (  -0.0911802  -0.0526429   0.0000000), wk =   0.0555556

     Dense  grid:   511963 G-vectors     FFT dimensions: (  64,  64, 288)

     Smooth grid:   129143 G-vectors     FFT dimensions: (  40,  40, 180)

     Largest allocated arrays     est. size (Mb)     dimensions
        Kohn-Sham Wavefunctions         2.20 Mb     (    1398,  103)
        NL pseudopotentials             4.82 Mb     (    1398,  226)
        Each V/rho on FFT grid          1.50 Mb     (   98304)
        Each G-vector array             0.33 Mb     (   42662)
        G-vector shells                 0.11 Mb     (   14814)
     Largest temporary arrays     est. size (Mb)     dimensions
        Auxiliary wavefunctions         8.79 Mb     (    1398,  412)
        Each subspace H/S matrix        2.59 Mb     (     412,  412)
        Each <psi_i|beta_j> matrix      0.36 Mb     (     226,  103)
        Arrays for rho mixing          15.00 Mb     (   98304,   10)

     Check: negative/imaginary core charge=   -0.000022    0.000000

     Initial potential from superposition of free atoms
     Check: negative starting charge=   -1.504848

     starting charge  173.99965, renormalised to  186.00000

     negative rho (up, down):  1.609E+00 0.000E+00


     ************************************************************************
     *
     * You are using vdW-DF for exchange-correlation in this calculation.
     * Please cite the following three references that made this development
     * possible:
     *
     *   M. Dion, H. Rydberg, E. Schroder, D. C. Langreth, and
     *   B. I. Lundqvist, Phys. Rev. Lett. 92, 246401 (2004).
     *
     *   T. Thonhauser, V. R. Cooper, S. Li, A. Puzder, P. Hyldgaard, and
     *   D. C. Langreth, Phys. Rev. B 76, 125112 (2007).
     *
     *   G. Roman-Perez and J. M. Soler, Phys. Rev. Lett. 103, 096102 (2009).
     *
     *
     * If you are using vdW-DF2, please also cite:
     *
     *   K. Lee, E. D. Murray, L. Kong, B. I. Lundqvist, and
     *   D. C. Langreth, Phys. Rev. B 82, 081101(R) (2010).
     *
     *
     * If you are calculating the stress with vdW-DF, please also cite:
     *
     *   R. Sabatini, E. Kucukbenli, B. Kolb, T. Thonhauser, and
     *   S. de Gironcoli, J. Phys.: Condens. Matter 24, 424209 (2012).
     *
     ************************************************************************

     Carrying out vdW-DF run using the following parameters:

     Nqs =      20    Nr_points =    1024   r_max =   100.000
     q_mesh =
               0.00001000     0.04494208     0.09755937     0.15916263
               0.23128650     0.31572767     0.41458969     0.53033537
               0.66584808     0.82450364     1.01025438     1.22772762
               1.48234092     1.78043706     2.12944203     2.53805004
               3.01644009     3.57652955     4.23227104     5.00000000

     Gradients computed in reciprocal space

     ************************************************************************


 
     Adding external electric field

     Computed dipole along edir(3) : 
        Dipole               -2.9954 Ry au,         -7.6135 Debye
        Dipole field         -0.0088 Ry au
 
        Potential amp.        0.7893 Ry
        Total length         45.0992 bohr
 
     Starting wfc are  161 randomized atomic wfcs

     total cpu time spent up to now is        6.9 secs

     Self-consistent Calculation

     iteration #  1     ecut=    36.75 Ry     beta=0.30
     Davidson diagonalization with overlap
     ethr =  1.00E-02,  avg # of iterations =  8.1

     negative rho (up, down):  1.603E+00 0.000E+00
 
     Adding external electric field

     Computed dipole along edir(3) : 
        Dipole               64.4434 Ry au,        163.7988 Debye
        Dipole field          0.1883 Ry au
 
        Potential amp.      -16.9807 Ry
        Total length         45.0992 bohr
 

     total cpu time spent up to now is       20.7 secs

     total energy              =   -1913.37778753 Ry
     Harris-Foulkes estimate   =   -2122.27400158 Ry
     estimated scf accuracy    <     439.23208398 Ry

     iteration #  2     ecut=    36.75 Ry     beta=0.30
     Davidson diagonalization with overlap
     ethr =  1.00E-02,  avg # of iterations = 18.6

     negative rho (up, down):  1.572E+00 0.000E+00
 
     Adding external electric field

     Computed dipole along edir(3) : 
        Dipole                9.1759 Ry au,         23.3228 Debye
        Dipole field          0.0268 Ry au
 
        Potential amp.       -2.4178 Ry
        Total length         45.0992 bohr
 

     total cpu time spent up to now is       57.8 secs

     total energy              =   -1797.98839740 Ry
     Harris-Foulkes estimate   =   -2964.69824785 Ry
     estimated scf accuracy    <   19374.54251202 Ry

     iteration #  3     ecut=    36.75 Ry     beta=0.30
     Davidson diagonalization with overlap
     ethr =  1.00E-02,  avg # of iterations = 10.5

     negative rho (up, down):  1.558E+00 0.000E+00
 
     Adding external electric field

     Computed dipole along edir(3) : 
        Dipole               11.0271 Ry au,         28.0280 Debye
        Dipole field          0.0322 Ry au
 
        Potential amp.       -2.9056 Ry
        Total length         45.0992 bohr
 

     total cpu time spent up to now is       83.9 secs

     total energy              =   -2051.41056220 Ry
     Harris-Foulkes estimate   =   -2297.59862409 Ry
     estimated scf accuracy    <    3069.86072508 Ry

     iteration #  4     ecut=    36.75 Ry     beta=0.30
     Davidson diagonalization with overlap
     ethr =  1.00E-02,  avg # of iterations =  7.2

     negative rho (up, down):  1.595E+00 0.000E+00
 
     Adding external electric field

     Computed dipole along edir(3) : 
        Dipole                7.1574 Ry au,         18.1922 Debye
        Dipole field          0.0209 Ry au
 
        Potential amp.       -1.8860 Ry
        Total length         45.0992 bohr
 

     total cpu time spent up to now is      100.6 secs

     total energy              =   -2109.13033924 Ry
     Harris-Foulkes estimate   =   -2142.15535184 Ry
     estimated scf accuracy    <     476.57127915 Ry

     iteration #  5     ecut=    36.75 Ry     beta=0.30
     Davidson diagonalization with overlap
     ethr =  1.00E-02,  avg # of iterations =  6.3

     negative rho (up, down):  1.588E+00 0.000E+00
 
     Adding external electric field

     Computed dipole along edir(3) : 
        Dipole                7.5313 Ry au,         19.1425 Debye
        Dipole field          0.0220 Ry au
 
        Potential amp.       -1.9845 Ry
        Total length         45.0992 bohr
 

     total cpu time spent up to now is      117.2 secs

     total energy              =   -2125.76783284 Ry
     Harris-Foulkes estimate   =   -2135.40103869 Ry
     estimated scf accuracy    <     127.15939962 Ry

     iteration #  6     ecut=    36.75 Ry     beta=0.30
     Davidson diagonalization with overlap
     ethr =  1.00E-02,  avg # of iterations =  4.0

     negative rho (up, down):  1.581E+00 0.000E+00
 
     Adding external electric field

     Computed dipole along edir(3) : 
        Dipole                6.8436 Ry au,         17.3947 Debye
        Dipole field          0.0200 Ry au
 
        Potential amp.       -1.8033 Ry
        Total length         45.0992 bohr
 

     total cpu time spent up to now is      127.8 secs

     total energy              =   -2126.17447126 Ry
     Harris-Foulkes estimate   =   -2129.19472819 Ry
     estimated scf accuracy    <     111.13626000 Ry

     iteration #  7     ecut=    36.75 Ry     beta=0.30
     Davidson diagonalization with overlap
     ethr =  1.00E-02,  avg # of iterations =  1.5

     negative rho (up, down):  1.576E+00 0.000E+00
 
     Adding external electric field

     Computed dipole along edir(3) : 
        Dipole                7.5353 Ry au,         19.1529 Debye
        Dipole field          0.0220 Ry au
 
        Potential amp.       -1.9855 Ry
        Total length         45.0992 bohr
 

     total cpu time spent up to now is      136.7 secs

     total energy              =   -2127.64855007 Ry
     Harris-Foulkes estimate   =   -2127.13643648 Ry
     estimated scf accuracy    <      11.29811745 Ry

     iteration #  8     ecut=    36.75 Ry     beta=0.30
     Davidson diagonalization with overlap
     ethr =  6.07E-03,  avg # of iterations =  2.4

     negative rho (up, down):  1.606E+00 0.000E+00
 
     Adding external electric field

     Computed dipole along edir(3) : 
        Dipole                2.5397 Ry au,          6.4553 Debye
        Dipole field          0.0074 Ry au
 
        Potential amp.       -0.6692 Ry
        Total length         45.0992 bohr
 

     total cpu time spent up to now is      146.0 secs

     total energy              =   -2124.52323917 Ry
     Harris-Foulkes estimate   =   -2127.92675068 Ry
     estimated scf accuracy    <       7.43911629 Ry

     iteration #  9     ecut=    36.75 Ry     beta=0.30
     Davidson diagonalization with overlap
     ethr =  4.00E-03,  avg # of iterations =  2.7

     negative rho (up, down):  1.603E+00 0.000E+00
 
     Adding external electric field

     Computed dipole along edir(3) : 
        Dipole                2.6264 Ry au,          6.6758 Debye
        Dipole field          0.0077 Ry au
 
        Potential amp.       -0.6921 Ry
        Total length         45.0992 bohr
 

     total cpu time spent up to now is      156.6 secs

     total energy              =   -2125.27711871 Ry
     Harris-Foulkes estimate   =   -2125.46939895 Ry
     estimated scf accuracy    <      14.18615784 Ry

     iteration # 10     ecut=    36.75 Ry     beta=0.30
     Davidson diagonalization with overlap
     ethr =  4.00E-03,  avg # of iterations =  1.0

     negative rho (up, down):  1.601E+00 0.000E+00
 
     Adding external electric field

     Computed dipole along edir(3) : 
        Dipole                2.2241 Ry au,          5.6531 Debye
        Dipole field          0.0065 Ry au
 
        Potential amp.       -0.5860 Ry
        Total length         45.0992 bohr
 

     total cpu time spent up to now is      165.1 secs

     total energy              =   -2125.27840766 Ry
     Harris-Foulkes estimate   =   -2125.37365420 Ry
     estimated scf accuracy    <       7.00383649 Ry

     iteration # 11     ecut=    36.75 Ry     beta=0.30
     Davidson diagonalization with overlap
     ethr =  3.77E-03,  avg # of iterations =  1.0

     negative rho (up, down):  1.601E+00 0.000E+00
 
     Adding external electric field

     Computed dipole along edir(3) : 
        Dipole                1.5115 Ry au,          3.8418 Debye
        Dipole field          0.0044 Ry au
 
        Potential amp.       -0.3983 Ry
        Total length         45.0992 bohr
 

     total cpu time spent up to now is      173.6 secs

     total energy              =   -2125.11673336 Ry
     Harris-Foulkes estimate   =   -2125.32068643 Ry
     estimated scf accuracy    <       6.22251612 Ry

     iteration # 12     ecut=    36.75 Ry     beta=0.30
     Davidson diagonalization with overlap
     ethr =  3.35E-03,  avg # of iterations =  1.0

     negative rho (up, down):  1.601E+00 0.000E+00
 
     Adding external electric field

     Computed dipole along edir(3) : 
        Dipole               -1.0422 Ry au,         -2.6490 Debye
        Dipole field         -0.0030 Ry au
 
        Potential amp.        0.2746 Ry
        Total length         45.0992 bohr
 

     total cpu time spent up to now is      182.1 secs

     total energy              =   -2124.70867092 Ry
     Harris-Foulkes estimate   =   -2125.14951275 Ry
     estimated scf accuracy    <       3.20090123 Ry

     iteration # 13     ecut=    36.75 Ry     beta=0.30
     Davidson diagonalization with overlap
     ethr =  1.72E-03,  avg # of iterations =  5.3

     negative rho (up, down):  1.602E+00 0.000E+00
 
     Adding external electric field

     Computed dipole along edir(3) : 
        Dipole               -0.5849 Ry au,         -1.4867 Debye
        Dipole field         -0.0017 Ry au
 
        Potential amp.        0.1541 Ry
        Total length         45.0992 bohr
 

     total cpu time spent up to now is      193.5 secs

     total energy              =   -2124.96480406 Ry
     Harris-Foulkes estimate   =   -2125.14360548 Ry
     estimated scf accuracy    <       6.01151055 Ry

     iteration # 14     ecut=    36.75 Ry     beta=0.30
     Davidson diagonalization with overlap
     ethr =  1.72E-03,  avg # of iterations =  1.1

     negative rho (up, down):  1.601E+00 0.000E+00
 
     Adding external electric field

     Computed dipole along edir(3) : 
        Dipole               -0.4096 Ry au,         -1.0411 Debye
        Dipole field         -0.0012 Ry au
 
        Potential amp.        0.1079 Ry
        Total length         45.0992 bohr
 

     total cpu time spent up to now is      202.1 secs

     total energy              =   -2125.00807608 Ry
     Harris-Foulkes estimate   =   -2125.02937151 Ry
     estimated scf accuracy    <       0.55338613 Ry

     iteration # 15     ecut=    36.75 Ry     beta=0.30
     Davidson diagonalization with overlap
     ethr =  2.98E-04,  avg # of iterations =  5.4

     negative rho (up, down):  1.595E+00 0.000E+00
 
     Adding external electric field

     Computed dipole along edir(3) : 
        Dipole                0.3574 Ry au,          0.9084 Debye
        Dipole field          0.0010 Ry au
 
        Potential amp.       -0.0942 Ry
        Total length         45.0992 bohr
 

     total cpu time spent up to now is      213.1 secs

     total energy              =   -2124.94282312 Ry
     Harris-Foulkes estimate   =   -2125.02172030 Ry
     estimated scf accuracy    <       1.16204485 Ry

     iteration # 16     ecut=    36.75 Ry     beta=0.30
     Davidson diagonalization with overlap
     ethr =  2.98E-04,  avg # of iterations =  3.7

     negative rho (up, down):  1.594E+00 0.000E+00
 
     Adding external electric field

     Computed dipole along edir(3) : 
        Dipole                0.3930 Ry au,          0.9989 Debye
        Dipole field          0.0011 Ry au
 
        Potential amp.       -0.1035 Ry
        Total length         45.0992 bohr
 

     total cpu time spent up to now is      222.9 secs

     total energy              =   -2124.96695170 Ry
     Harris-Foulkes estimate   =   -2124.97975062 Ry
     estimated scf accuracy    <       0.31845727 Ry

     iteration # 17     ecut=    36.75 Ry     beta=0.30
     Davidson diagonalization with overlap
     ethr =  1.71E-04,  avg # of iterations =  5.3

     negative rho (up, down):  1.593E+00 0.000E+00
 
     Adding external electric field

     Computed dipole along edir(3) : 
        Dipole                0.3298 Ry au,          0.8383 Debye
        Dipole field          0.0010 Ry au
 
        Potential amp.       -0.0869 Ry
        Total length         45.0992 bohr
 

     total cpu time spent up to now is      233.5 secs

     total energy              =   -2124.97485098 Ry
     Harris-Foulkes estimate   =   -2124.97738907 Ry
     estimated scf accuracy    <       0.02476838 Ry

     iteration # 18     ecut=    36.75 Ry     beta=0.30
     Davidson diagonalization with overlap
     ethr =  1.33E-05,  avg # of iterations =  7.1

     negative rho (up, down):  1.592E+00 0.000E+00
 
     Adding external electric field

     Computed dipole along edir(3) : 
        Dipole                0.3107 Ry au,          0.7896 Debye
        Dipole field          0.0009 Ry au
 
        Potential amp.       -0.0819 Ry
        Total length         45.0992 bohr
 

     total cpu time spent up to now is      246.8 secs

     total energy              =   -2124.97775925 Ry
     Harris-Foulkes estimate   =   -2124.97930118 Ry
     estimated scf accuracy    <       0.04813197 Ry

     iteration # 19     ecut=    36.75 Ry     beta=0.30
     Davidson diagonalization with overlap
     ethr =  1.33E-05,  avg # of iterations =  1.1

     negative rho (up, down):  1.592E+00 0.000E+00
 
     Adding external electric field

     Computed dipole along edir(3) : 
        Dipole                0.2910 Ry au,          0.7397 Debye
        Dipole field          0.0009 Ry au
 
        Potential amp.       -0.0767 Ry
        Total length         45.0992 bohr
 

     total cpu time spent up to now is      255.6 secs

     total energy              =   -2124.97799857 Ry
     Harris-Foulkes estimate   =   -2124.97845295 Ry
     estimated scf accuracy    <       0.00694800 Ry

     iteration # 20     ecut=    36.75 Ry     beta=0.30
     Davidson diagonalization with overlap
     ethr =  3.74E-06,  avg # of iterations =  4.0

     negative rho (up, down):  1.592E+00 0.000E+00
 
     Adding external electric field

     Computed dipole along edir(3) : 
        Dipole                0.2861 Ry au,          0.7271 Debye
        Dipole field          0.0008 Ry au
 
        Potential amp.       -0.0754 Ry
        Total length         45.0992 bohr
 

     total cpu time spent up to now is      265.4 secs

     total energy              =   -2124.97821891 Ry
     Harris-Foulkes estimate   =   -2124.97830640 Ry
     estimated scf accuracy    <       0.00065715 Ry

     iteration # 21     ecut=    36.75 Ry     beta=0.30
     Davidson diagonalization with overlap
     ethr =  3.53E-07,  avg # of iterations =  5.4

     negative rho (up, down):  1.592E+00 0.000E+00
 
     Adding external electric field

     Computed dipole along edir(3) : 
        Dipole                0.2837 Ry au,          0.7211 Debye
        Dipole field          0.0008 Ry au
 
        Potential amp.       -0.0748 Ry
        Total length         45.0992 bohr
 

     total cpu time spent up to now is      277.8 secs

     total energy              =   -2124.97830656 Ry
     Harris-Foulkes estimate   =   -2124.97835456 Ry
     estimated scf accuracy    <       0.00098496 Ry

     iteration # 22     ecut=    36.75 Ry     beta=0.30
     Davidson diagonalization with overlap
     ethr =  3.53E-07,  avg # of iterations =  1.0

     negative rho (up, down):  1.592E+00 0.000E+00
 
     Adding external electric field

     Computed dipole along edir(3) : 
        Dipole                0.2834 Ry au,          0.7204 Debye
        Dipole field          0.0008 Ry au
 
        Potential amp.       -0.0747 Ry
        Total length         45.0992 bohr
 

     total cpu time spent up to now is      286.4 secs

     total energy              =   -2124.97830259 Ry
     Harris-Foulkes estimate   =   -2124.97833036 Ry
     estimated scf accuracy    <       0.00079718 Ry

     iteration # 23     ecut=    36.75 Ry     beta=0.30
     Davidson diagonalization with overlap
     ethr =  3.53E-07,  avg # of iterations =  1.0

     negative rho (up, down):  1.592E+00 0.000E+00
 
     Adding external electric field

     Computed dipole along edir(3) : 
        Dipole                0.2831 Ry au,          0.7196 Debye
        Dipole field          0.0008 Ry au
 
        Potential amp.       -0.0746 Ry
        Total length         45.0992 bohr
 

     total cpu time spent up to now is      294.9 secs

     total energy              =   -2124.97831692 Ry
     Harris-Foulkes estimate   =   -2124.97832045 Ry
     estimated scf accuracy    <       0.00001781 Ry

     iteration # 24     ecut=    36.75 Ry     beta=0.30
     Davidson diagonalization with overlap
     ethr =  9.58E-09,  avg # of iterations =  5.3

     negative rho (up, down):  1.592E+00 0.000E+00
 
     Adding external electric field

     Computed dipole along edir(3) : 
        Dipole                0.2813 Ry au,          0.7150 Debye
        Dipole field          0.0008 Ry au
 
        Potential amp.       -0.0741 Ry
        Total length         45.0992 bohr
 

     total cpu time spent up to now is      308.6 secs

     total energy              =   -2124.97832197 Ry
     Harris-Foulkes estimate   =   -2124.97832900 Ry
     estimated scf accuracy    <       0.00006123 Ry

     iteration # 25     ecut=    36.75 Ry     beta=0.30
     Davidson diagonalization with overlap
     ethr =  9.58E-09,  avg # of iterations =  4.0

     negative rho (up, down):  1.592E+00 0.000E+00
 
     Adding external electric field

     Computed dipole along edir(3) : 
        Dipole                0.2800 Ry au,          0.7117 Debye
        Dipole field          0.0008 Ry au
 
        Potential amp.       -0.0738 Ry
        Total length         45.0992 bohr
 

     total cpu time spent up to now is      319.2 secs

     total energy              =   -2124.97832310 Ry
     Harris-Foulkes estimate   =   -2124.97832699 Ry
     estimated scf accuracy    <       0.00005984 Ry

     iteration # 26     ecut=    36.75 Ry     beta=0.30
     Davidson diagonalization with overlap
     ethr =  9.58E-09,  avg # of iterations =  1.2

     negative rho (up, down):  1.592E+00 0.000E+00
 
     Adding external electric field

     Computed dipole along edir(3) : 
        Dipole                0.2788 Ry au,          0.7087 Debye
        Dipole field          0.0008 Ry au
 
        Potential amp.       -0.0735 Ry
        Total length         45.0992 bohr
 

     total cpu time spent up to now is      328.3 secs

     total energy              =   -2124.97832348 Ry
     Harris-Foulkes estimate   =   -2124.97832589 Ry
     estimated scf accuracy    <       0.00001183 Ry

     iteration # 27     ecut=    36.75 Ry     beta=0.30
     Davidson diagonalization with overlap
     ethr =  6.36E-09,  avg # of iterations =  3.5

     negative rho (up, down):  1.591E+00 0.000E+00

     negative rho (up, down):  1.591E+00 0.000E+00

     negative rho (up, down):  1.591E+00 0.000E+00

     negative rho (up, down):  1.591E+00 0.000E+00

     negative rho (up, down):  1.591E+00 0.000E+00

     negative rho (up, down):  1.591E+00 0.000E+00

     negative rho (up, down):  1.591E+00 0.000E+00

     negative rho (up, down):  1.591E+00 0.000E+00

     negative rho (up, down):  1.591E+00 0.000E+00

     negative rho (up, down):  1.591E+00 0.000E+00

     negative rho (up, down):  1.591E+00 0.000E+00

     negative rho (up, down):  1.591E+00 0.000E+00

     negative rho (up, down):  1.591E+00 0.000E+00

     negative rho (up, down):  1.591E+00 0.000E+00

     negative rho (up, down):  1.591E+00 0.000E+00

     negative rho (up, down):  1.591E+00 0.000E+00

     negative rho (up, down):  1.591E+00 0.000E+00

     negative rho (up, down):  1.591E+00 0.000E+00

     negative rho (up, down):  1.591E+00 0.000E+00

     negative rho (up, down):  1.591E+00 0.000E+00

     negative rho (up, down):  1.591E+00 0.000E+00

     negative rho (up, down):  1.591E+00 0.000E+00

     negative rho (up, down):  1.591E+00 0.000E+00

     negative rho (up, down):  1.591E+00 0.000E+00

     negative rho (up, down):  1.591E+00 0.000E+00

     negative rho (up, down):  1.591E+00 0.000E+00

     negative rho (up, down):  1.591E+00 0.000E+00

     negative rho (up, down):  1.591E+00 0.000E+00

     negative rho (up, down):  1.591E+00 0.000E+00

     negative rho (up, down):  1.591E+00 0.000E+00

     negative rho (up, down):  1.591E+00 0.000E+00

     negative rho (up, down):  1.591E+00 0.000E+00

     negative rho (up, down):  1.591E+00 0.000E+00

     negative rho (up, down):  1.591E+00 0.000E+00

     negative rho (up, down):  1.591E+00 0.000E+00
 
     Adding external electric field

     Computed dipole along edir(3) : 
        Dipole                0.2778 Ry au,          0.7062 Debye
        Dipole field          0.0008 Ry au
 
        Potential amp.       -0.0732 Ry
        Total length         45.0992 bohr
 

     total cpu time spent up to now is      364.1 secs

     End of self-consistent calculation

          k = 0.0000 0.0000 0.0000 ( 16073 PWs)   bands (ev):

   -64.3627 -64.2656 -64.1979 -64.1977 -64.1957 -64.1625 -64.1622 -64.1054
   -64.0013 -63.9869 -63.9865 -63.9762 -36.8427 -36.7866 -36.7865 -36.7349
   -36.6842 -36.6645 -36.6645 -36.5300 -36.5059 -36.5057 -36.2444 -36.1943
   -36.1942 -36.1439 -36.1158 -36.1157 -36.0663 -36.0573 -36.0573 -36.0396
   -35.9448 -35.9448 -35.9203 -35.9102 -35.9101 -35.9040 -35.8386 -35.8133
   -35.8133 -35.7724 -35.7682 -35.7680 -35.6909 -35.6908 -35.5728 -35.5728
   -12.6377  -4.8490  -3.4714  -2.2914  -2.2913  -2.2703  -2.1688  -2.1561
    -2.1560  -1.9596  -1.7552  -1.7551  -1.7020  -1.6869  -1.4020  -1.4019
    -0.9642  -0.7307  -0.7306   0.1647   0.1647   0.2263   0.7598   0.7598
     0.9422   0.9898   1.2697   1.2697   1.4404   1.5199   1.5199   1.6239
     1.6996   1.6997   1.8010   1.8010   2.1755   2.4994   2.4995   2.9044
     3.2289   3.2716   3.2716   3.5106   3.5106   3.7274   3.7275   3.7537
     4.1009   4.1009   4.3091   4.7233   4.8435   4.8436   4.9480

          k = 0.0000 0.0351 0.0000 ( 16137 PWs)   bands (ev):

   -64.3525 -64.2588 -64.2108 -64.1979 -64.1941 -64.1672 -64.1622 -64.0974
   -64.0029 -63.9930 -63.9869 -63.9779 -36.8045 -36.7547 -36.7393 -36.6977
   -36.6637 -36.6345 -36.6301 -36.4992 -36.4757 -36.4604 -36.2502 -36.2223
   -36.2135 -36.1587 -36.1303 -36.1174 -36.0806 -36.0679 -36.0422 -36.0205
   -35.9764 -35.9732 -35.9234 -35.9098 -35.9018 -35.8986 -35.8645 -35.8490
   -35.8287 -35.8022 -35.7980 -35.7568 -35.7387 -35.7023 -35.6302 -35.5861
   -12.6319  -4.7706  -3.2440  -2.1695  -2.0958  -2.0902  -2.0428  -1.9885
    -1.9306  -1.7661  -1.6153  -1.6018  -1.5705  -1.5369  -1.2453  -1.1780
    -0.8143  -0.6844  -0.6769   0.1590   0.1904   0.3026   0.7510   0.8216
     0.8319   0.9370   1.1052   1.2603   1.4131   1.4745   1.4902   1.6031
     1.6650   1.7055   1.7578   1.9775   2.0463   2.2960   2.3225   2.5444
     3.0308   3.0320   3.1651   3.2158   3.2782   3.4063   3.6284   3.6538
     3.8220   4.0784   4.1559   4.2686   4.4539   4.5797   4.6890

          k = 0.0000 0.0702 0.0000 ( 16149 PWs)   bands (ev):

   -64.3248 -64.2459 -64.2350 -64.1981 -64.1974 -64.1784 -64.1621 -64.0754
   -64.0150 -64.0049 -63.9869 -63.9789 -36.7151 -36.6757 -36.6460 -36.6148
   -36.5724 -36.5628 -36.5577 -36.4353 -36.4053 -36.3578 -36.2767 -36.2752
   -36.2426 -36.2150 -36.1372 -36.1346 -36.0866 -36.0827 -36.0460 -36.0397
   -36.0118 -36.0045 -35.9756 -35.9378 -35.9260 -35.9094 -35.9005 -35.8706
   -35.8700 -35.8540 -35.8532 -35.8400 -35.7622 -35.7342 -35.7171 -35.6223
   -12.6204  -4.6094  -2.6622  -2.0417  -1.7820  -1.6410  -1.5826  -1.5742
    -1.4452  -1.3113  -1.2274  -1.1747  -1.1205  -1.1074  -0.8754  -0.8046
    -0.5665  -0.4256  -0.2695   0.1413   0.2159   0.2667   0.3984   0.5840
     0.8857   0.9036   0.9283   0.9953   1.2351   1.2572   1.3943   1.5681
     1.5971   1.6822   1.8925   1.9302   1.9722   2.0550   2.0722   2.4110
     2.4357   2.4595   2.5937   2.6264   2.6935   2.8377   2.9979   3.0197
     3.2947   3.4750   3.6113   3.8560   3.9574   3.9652   4.1150

          k = 0.0000-0.1053 0.0000 ( 16164 PWs)   bands (ev):

   -64.2956 -64.2717 -64.2215 -64.2081 -64.1982 -64.1837 -64.1621 -64.0484
   -64.0418 -64.0066 -63.9869 -63.9791 -36.6506 -36.6210 -36.6019 -36.5673
   -36.5586 -36.5157 -36.4150 -36.3824 -36.3683 -36.3665 -36.3244 -36.3054
   -36.2825 -36.1942 -36.1473 -36.1042 -36.0954 -36.0890 -36.0691 -36.0666
   -36.0219 -36.0103 -35.9977 -35.9779 -35.9692 -35.9573 -35.9533 -35.9277
   -35.8830 -35.8679 -35.8566 -35.8353 -35.8259 -35.7495 -35.6744 -35.6681
   -12.6148  -4.5259  -2.2254  -1.9955  -1.6274  -1.3720  -1.3171  -1.2882
    -1.2449  -1.1220  -0.9516  -0.8629  -0.7795  -0.5642  -0.5356  -0.5048
    -0.3923  -0.3145  -0.2427   0.0199   0.2343   0.3200   0.4182   0.4241
     0.5709   0.7319   0.8922   0.9528   1.2527   1.3426   1.4668   1.4850
     1.5025   1.5198   1.5979   1.6560   1.6567   1.7298   1.8488   1.9331
     2.0735   2.0911   2.1379   2.7249   2.7909   2.8142   2.8313   2.9850
     3.1318   3.2716   3.3235   3.4521   3.5124   3.6345   3.7010

          k = 0.0304-0.0175 0.0000 ( 16137 PWs)   bands (ev):

   -64.3525 -64.2588 -64.2108 -64.1979 -64.1941 -64.1672 -64.1622 -64.0974
   -64.0029 -63.9931 -63.9868 -63.9779 -36.8045 -36.7547 -36.7393 -36.6977
   -36.6637 -36.6346 -36.6301 -36.4992 -36.4757 -36.4604 -36.2502 -36.2224
   -36.2135 -36.1587 -36.1303 -36.1173 -36.0805 -36.0679 -36.0422 -36.0206
   -35.9764 -35.9732 -35.9233 -35.9098 -35.9018 -35.8986 -35.8645 -35.8490
   -35.8287 -35.8022 -35.7980 -35.7568 -35.7387 -35.7023 -35.6302 -35.5861
   -12.6319  -4.7706  -3.2440  -2.1695  -2.0958  -2.0902  -2.0428  -1.9885
    -1.9306  -1.7661  -1.6153  -1.6018  -1.5705  -1.5369  -1.2453  -1.1780
    -0.8143  -0.6844  -0.6769   0.1590   0.1904   0.3026   0.7510   0.8216
     0.8320   0.9370   1.1052   1.2603   1.4131   1.4745   1.4902   1.6031
     1.6650   1.7055   1.7578   1.9775   2.0463   2.2960   2.3225   2.5444
     3.0308   3.0320   3.1651   3.2158   3.2782   3.4063   3.6284   3.6538
     3.8220   4.0784   4.1559   4.2686   4.4539   4.5797   4.6890

          k = 0.0304 0.0175 0.0000 ( 16137 PWs)   bands (ev):

   -64.3525 -64.2588 -64.2108 -64.1980 -64.1940 -64.1670 -64.1624 -64.0974
   -64.0029 -63.9932 -63.9865 -63.9780 -36.8045 -36.7545 -36.7395 -36.6977
   -36.6637 -36.6346 -36.6300 -36.4991 -36.4758 -36.4604 -36.2502 -36.2223
   -36.2135 -36.1586 -36.1303 -36.1175 -36.0806 -36.0679 -36.0422 -36.0206
   -35.9764 -35.9732 -35.9233 -35.9099 -35.9018 -35.8986 -35.8645 -35.8491
   -35.8287 -35.8021 -35.7981 -35.7568 -35.7387 -35.7023 -35.6302 -35.5861
   -12.6319  -4.7706  -3.2440  -2.1695  -2.0958  -2.0901  -2.0428  -1.9885
    -1.9306  -1.7661  -1.6154  -1.6018  -1.5705  -1.5369  -1.2452  -1.1781
    -0.8143  -0.6843  -0.6769   0.1590   0.1904   0.3027   0.7510   0.8216
     0.8319   0.9370   1.1052   1.2604   1.4131   1.4745   1.4902   1.6031
     1.6651   1.7055   1.7577   1.9775   2.0463   2.2961   2.3225   2.5444
     3.0307   3.0321   3.1651   3.2158   3.2781   3.4064   3.6284   3.6537
     3.8220   4.0784   4.1560   4.2686   4.4538   4.5797   4.6890

          k = 0.0304 0.0526 0.0000 ( 16202 PWs)   bands (ev):

   -64.3335 -64.2468 -64.2265 -64.2089 -64.1892 -64.1750 -64.1623 -64.0824
   -64.0059 -64.0010 -63.9961 -63.9749 -36.7418 -36.6958 -36.6547 -36.6364
   -36.6188 -36.5810 -36.5774 -36.4557 -36.4113 -36.3931 -36.2743 -36.2516
   -36.2431 -36.2104 -36.1569 -36.1013 -36.0939 -36.0582 -36.0560 -36.0272
   -36.0078 -35.9732 -35.9533 -35.9403 -35.9286 -35.9035 -35.8867 -35.8808
   -35.8763 -35.8469 -35.8084 -35.7729 -35.7707 -35.7310 -35.7190 -35.6150
   -12.6233  -4.6499  -2.8301  -2.0149  -1.8492  -1.8015  -1.7381  -1.6844
    -1.5128  -1.4338  -1.3635  -1.3311  -1.2974  -1.2133  -0.9496  -0.8712
    -0.6241  -0.5852  -0.4132   0.1435   0.2371   0.3136   0.4999   0.7128
     0.8324   0.9146   0.9333   0.9893   1.2315   1.4242   1.4873   1.5247
     1.5946   1.7964   1.8107   1.8622   1.9350   2.0847   2.2558   2.4068
     2.5640   2.5848   2.7593   2.8437   2.9908   3.0336   3.1093   3.2048
     3.2888   3.5627   3.6513   3.9925   4.0525   4.2091   4.3162

          k = 0.0304-0.1228 0.0000 ( 16203 PWs)   bands (ev):

   -64.3016 -64.2570 -64.2282 -64.2172 -64.1937 -64.1816 -64.1616 -64.0565
   -64.0259 -64.0068 -64.0022 -63.9713 -36.6511 -36.6135 -36.5756 -36.5683
   -36.5415 -36.5166 -36.4792 -36.4111 -36.3869 -36.3307 -36.3167 -36.2992
   -36.2489 -36.2247 -36.1706 -36.1315 -36.1189 -36.0767 -36.0560 -36.0440
   -36.0332 -36.0082 -35.9887 -35.9750 -35.9644 -35.9521 -35.9198 -35.9150
   -35.8897 -35.8757 -35.8472 -35.8153 -35.8042 -35.7633 -35.7227 -35.6658
   -12.6147  -4.5241  -2.2389  -1.8844  -1.5540  -1.4505  -1.3028  -1.2769
    -1.1568  -1.0770  -0.9212  -0.8815  -0.8192  -0.7534  -0.5755  -0.5184
    -0.3919  -0.2452  -0.1113   0.0272   0.1555   0.2367   0.3047   0.5328
     0.6208   0.7067   0.7621   0.8601   1.0889   1.1943   1.2412   1.3043
     1.3860   1.4712   1.5448   1.6090   1.7007   1.8700   1.9944   2.0598
     2.1581   2.2048   2.2827   2.3891   2.7442   2.8549   2.9452   3.0067
     3.1182   3.2723   3.3491   3.4971   3.7316   3.8108   3.9511

          k = 0.0304-0.0877 0.0000 ( 16203 PWs)   bands (ev):

   -64.3016 -64.2570 -64.2281 -64.2173 -64.1937 -64.1816 -64.1616 -64.0565
   -64.0259 -64.0068 -64.0022 -63.9712 -36.6511 -36.6135 -36.5756 -36.5683
   -36.5415 -36.5166 -36.4792 -36.4110 -36.3869 -36.3307 -36.3167 -36.2992
   -36.2489 -36.2247 -36.1707 -36.1314 -36.1188 -36.0768 -36.0560 -36.0440
   -36.0331 -36.0082 -35.9887 -35.9749 -35.9645 -35.9522 -35.9198 -35.9150
   -35.8897 -35.8757 -35.8472 -35.8154 -35.8041 -35.7633 -35.7227 -35.6658
   -12.6147  -4.5241  -2.2389  -1.8844  -1.5540  -1.4505  -1.3028  -1.2770
    -1.1567  -1.0770  -0.9212  -0.8814  -0.8192  -0.7534  -0.5755  -0.5184
    -0.3919  -0.2452  -0.1113   0.0272   0.1555   0.2367   0.3047   0.5328
     0.6208   0.7067   0.7621   0.8601   1.0889   1.1944   1.2412   1.3043
     1.3860   1.4712   1.5448   1.6089   1.7007   1.8700   1.9944   2.0598
     2.1580   2.2048   2.2827   2.3891   2.7442   2.8549   2.9452   3.0066
     3.1182   3.2723   3.3491   3.4971   3.7316   3.8109   3.9510

          k = 0.0304-0.0526 0.0000 ( 16202 PWs)   bands (ev):

   -64.3335 -64.2468 -64.2265 -64.2089 -64.1892 -64.1751 -64.1622 -64.0824
   -64.0059 -64.0008 -63.9965 -63.9748 -36.7418 -36.6958 -36.6546 -36.6364
   -36.6188 -36.5810 -36.5774 -36.4558 -36.4112 -36.3931 -36.2742 -36.2516
   -36.2431 -36.2104 -36.1570 -36.1013 -36.0938 -36.0582 -36.0560 -36.0273
   -36.0077 -35.9733 -35.9533 -35.9403 -35.9285 -35.9035 -35.8865 -35.8808
   -35.8764 -35.8469 -35.8084 -35.7728 -35.7707 -35.7311 -35.7190 -35.6150
   -12.6233  -4.6499  -2.8301  -2.0149  -1.8492  -1.8015  -1.7382  -1.6844
    -1.5129  -1.4338  -1.3634  -1.3311  -1.2974  -1.2133  -0.9496  -0.8711
    -0.6241  -0.5852  -0.4132   0.1435   0.2371   0.3136   0.4999   0.7128
     0.8324   0.9146   0.9333   0.9893   1.2315   1.4242   1.4874   1.5247
     1.5946   1.7965   1.8106   1.8622   1.9350   2.0847   2.2558   2.4068
     2.5640   2.5848   2.7593   2.8438   2.9908   3.0335   3.1093   3.2048
     3.2888   3.5627   3.6512   3.9926   4.0524   4.2092   4.3161

          k = 0.0608-0.0351 0.0000 ( 16149 PWs)   bands (ev):

   -64.3248 -64.2459 -64.2351 -64.1981 -64.1975 -64.1784 -64.1621 -64.0754
   -64.0151 -64.0049 -63.9868 -63.9789 -36.7151 -36.6757 -36.6460 -36.6148
   -36.5724 -36.5628 -36.5577 -36.4353 -36.4053 -36.3578 -36.2767 -36.2752
   -36.2426 -36.2151 -36.1372 -36.1346 -36.0866 -36.0827 -36.0460 -36.0397
   -36.0118 -36.0044 -35.9756 -35.9378 -35.9260 -35.9094 -35.9004 -35.8706
   -35.8700 -35.8540 -35.8532 -35.8400 -35.7622 -35.7342 -35.7171 -35.6223
   -12.6204  -4.6094  -2.6622  -2.0417  -1.7820  -1.6410  -1.5826  -1.5742
    -1.4452  -1.3113  -1.2274  -1.1747  -1.1205  -1.1074  -0.8754  -0.8046
    -0.5665  -0.4256  -0.2695   0.1413   0.2159   0.2667   0.3984   0.5841
     0.8857   0.9036   0.9283   0.9953   1.2351   1.2572   1.3943   1.5681
     1.5971   1.6822   1.8925   1.9302   1.9722   2.0550   2.0722   2.4110
     2.4357   2.4595   2.5937   2.6264   2.6935   2.8377   2.9979   3.0196
     3.2947   3.4750   3.6113   3.8560   3.9574   3.9652   4.1150

          k = 0.0608 0.0000 0.0000 ( 16202 PWs)   bands (ev):

   -64.3335 -64.2468 -64.2265 -64.2089 -64.1891 -64.1750 -64.1623 -64.0824
   -64.0060 -64.0010 -63.9961 -63.9749 -36.7418 -36.6958 -36.6547 -36.6364
   -36.6188 -36.5810 -36.5774 -36.4557 -36.4113 -36.3930 -36.2743 -36.2515
   -36.2431 -36.2104 -36.1570 -36.1013 -36.0939 -36.0582 -36.0560 -36.0272
   -36.0078 -35.9731 -35.9533 -35.9403 -35.9286 -35.9035 -35.8867 -35.8808
   -35.8763 -35.8469 -35.8084 -35.7729 -35.7707 -35.7311 -35.7190 -35.6150
   -12.6233  -4.6499  -2.8301  -2.0149  -1.8492  -1.8015  -1.7381  -1.6844
    -1.5128  -1.4338  -1.3635  -1.3311  -1.2974  -1.2133  -0.9496  -0.8712
    -0.6241  -0.5852  -0.4132   0.1435   0.2371   0.3136   0.4999   0.7128
     0.8324   0.9146   0.9333   0.9893   1.2315   1.4242   1.4873   1.5247
     1.5946   1.7964   1.8107   1.8622   1.9350   2.0847   2.2558   2.4068
     2.5640   2.5848   2.7593   2.8437   2.9908   3.0336   3.1093   3.2048
     3.2888   3.5627   3.6513   3.9924   4.0525   4.2091   4.3162

          k = 0.0608 0.0351 0.0000 ( 16149 PWs)   bands (ev):

   -64.3247 -64.2460 -64.2350 -64.1982 -64.1974 -64.1781 -64.1623 -64.0754
   -64.0151 -64.0049 -63.9865 -63.9791 -36.7151 -36.6755 -36.6462 -36.6149
   -36.5724 -36.5629 -36.5577 -36.4351 -36.4055 -36.3578 -36.2767 -36.2752
   -36.2425 -36.2150 -36.1372 -36.1347 -36.0865 -36.0828 -36.0460 -36.0397
   -36.0119 -36.0044 -35.9756 -35.9379 -35.9259 -35.9095 -35.9005 -35.8705
   -35.8700 -35.8540 -35.8533 -35.8400 -35.7622 -35.7342 -35.7171 -35.6223
   -12.6204  -4.6094  -2.6622  -2.0417  -1.7820  -1.6410  -1.5826  -1.5741
    -1.4453  -1.3113  -1.2274  -1.1747  -1.1205  -1.1075  -0.8753  -0.8046
    -0.5665  -0.4257  -0.2694   0.1413   0.2159   0.2667   0.3984   0.5841
     0.8857   0.9036   0.9283   0.9954   1.2351   1.2573   1.3943   1.5681
     1.5971   1.6821   1.8925   1.9302   1.9722   2.0550   2.0722   2.4111
     2.4358   2.4595   2.5938   2.6263   2.6935   2.8378   2.9979   3.0196
     3.2947   3.4750   3.6112   3.8561   3.9574   3.9652   4.1150

          k = 0.0608-0.1404 0.0000 ( 16203 PWs)   bands (ev):

   -64.3015 -64.2571 -64.2282 -64.2172 -64.1938 -64.1814 -64.1617 -64.0565
   -64.0261 -64.0068 -64.0021 -63.9713 -36.6511 -36.6134 -36.5756 -36.5684
   -36.5415 -36.5167 -36.4791 -36.4110 -36.3868 -36.3308 -36.3167 -36.2992
   -36.2489 -36.2247 -36.1707 -36.1314 -36.1189 -36.0768 -36.0561 -36.0440
   -36.0331 -36.0081 -35.9887 -35.9750 -35.9646 -35.9521 -35.9198 -35.9151
   -35.8897 -35.8757 -35.8471 -35.8154 -35.8041 -35.7633 -35.7226 -35.6658
   -12.6147  -4.5241  -2.2389  -1.8844  -1.5540  -1.4505  -1.3028  -1.2769
    -1.1568  -1.0770  -0.9212  -0.8815  -0.8192  -0.7535  -0.5755  -0.5184
    -0.3919  -0.2452  -0.1113   0.0272   0.1555   0.2367   0.3047   0.5328
     0.6208   0.7067   0.7621   0.8601   1.0889   1.1943   1.2412   1.3043
     1.3860   1.4712   1.5448   1.6090   1.7007   1.8700   1.9944   2.0597
     2.1581   2.2048   2.2828   2.3891   2.7443   2.8548   2.9452   3.0067
     3.1182   3.2723   3.3491   3.4972   3.7316   3.8108   3.9510

          k = 0.0608-0.1053 0.0000 ( 16272 PWs)   bands (ev):

   -64.2793 -64.2662 -64.2406 -64.2123 -64.1991 -64.1827 -64.1603 -64.0334
   -64.0329 -64.0230 -64.0068 -63.9673 -36.5812 -36.5511 -36.5392 -36.5324
   -36.5224 -36.5162 -36.4412 -36.4332 -36.4154 -36.3480 -36.3322 -36.2594
   -36.2299 -36.2177 -36.1980 -36.1408 -36.1378 -36.1291 -36.0883 -36.0489
   -36.0466 -35.9969 -35.9802 -35.9769 -35.9559 -35.9549 -35.9518 -35.9368
   -35.9004 -35.8686 -35.8440 -35.8235 -35.8073 -35.7401 -35.7366 -35.7364
   -12.6119  -4.4792  -1.9987  -1.5215  -1.5049  -1.4055  -1.2718  -0.9010
    -0.8866  -0.8813  -0.8237  -0.6542  -0.4992  -0.4818  -0.4494  -0.4246
    -0.3881  -0.3490  -0.1436   0.1148   0.1328   0.3877   0.4142   0.4627
     0.5659   0.5666   0.5768   0.6654   0.7577   0.8000   0.8149   1.0267
     1.0824   1.1503   1.4686   1.5045   1.7002   1.7685   1.8214   1.8454
     1.9981   2.1608   2.2010   2.4452   2.5629   2.6834   3.0930   3.1201
     3.1977   3.3822   3.5176   3.5722   3.6209   4.0045   4.2592

          k = 0.0608-0.0702 0.0000 ( 16203 PWs)   bands (ev):

   -64.3016 -64.2570 -64.2282 -64.2173 -64.1938 -64.1816 -64.1616 -64.0565
   -64.0259 -64.0068 -64.0022 -63.9712 -36.6511 -36.6135 -36.5756 -36.5683
   -36.5415 -36.5166 -36.4792 -36.4110 -36.3869 -36.3307 -36.3167 -36.2992
   -36.2489 -36.2247 -36.1707 -36.1314 -36.1188 -36.0768 -36.0560 -36.0440
   -36.0331 -36.0082 -35.9887 -35.9749 -35.9645 -35.9522 -35.9198 -35.9150
   -35.8897 -35.8757 -35.8472 -35.8154 -35.8041 -35.7633 -35.7226 -35.6658
   -12.6147  -4.5241  -2.2389  -1.8844  -1.5540  -1.4505  -1.3028  -1.2770
    -1.1567  -1.0770  -0.9212  -0.8814  -0.8192  -0.7534  -0.5755  -0.5184
    -0.3919  -0.2452  -0.1113   0.0272   0.1555   0.2367   0.3047   0.5328
     0.6208   0.7067   0.7621   0.8601   1.0889   1.1944   1.2412   1.3043
     1.3860   1.4712   1.5448   1.6089   1.7007   1.8700   1.9944   2.0598
     2.1580   2.2048   2.2827   2.3892   2.7442   2.8549   2.9453   3.0066
     3.1182   3.2723   3.3491   3.4971   3.7316   3.8109   3.9511

          k =-0.0912 0.0526 0.0000 ( 16164 PWs)   bands (ev):

   -64.2956 -64.2717 -64.2215 -64.2081 -64.1982 -64.1837 -64.1620 -64.0484
   -64.0419 -64.0066 -63.9868 -63.9791 -36.6505 -36.6210 -36.6019 -36.5673
   -36.5586 -36.5157 -36.4150 -36.3824 -36.3683 -36.3665 -36.3244 -36.3054
   -36.2826 -36.1942 -36.1473 -36.1041 -36.0954 -36.0890 -36.0692 -36.0666
   -36.0219 -36.0103 -35.9977 -35.9780 -35.9691 -35.9572 -35.9534 -35.9276
   -35.8830 -35.8679 -35.8566 -35.8353 -35.8259 -35.7495 -35.6744 -35.6681
   -12.6148  -4.5259  -2.2254  -1.9955  -1.6274  -1.3720  -1.3171  -1.2881
    -1.2449  -1.1220  -0.9516  -0.8629  -0.7795  -0.5642  -0.5356  -0.5048
    -0.3923  -0.3145  -0.2427   0.0199   0.2343   0.3200   0.4182   0.4241
     0.5710   0.7319   0.8922   0.9528   1.2526   1.3426   1.4668   1.4850
     1.5025   1.5197   1.5979   1.6560   1.6567   1.7298   1.8488   1.9332
     2.0735   2.0911   2.1379   2.7249   2.7909   2.8142   2.8313   2.9850
     3.1318   3.2717   3.3235   3.4521   3.5124   3.6345   3.7010

          k =-0.0912 0.0877 0.0000 ( 16203 PWs)   bands (ev):

   -64.3016 -64.2570 -64.2282 -64.2172 -64.1938 -64.1816 -64.1616 -64.0565
   -64.0260 -64.0068 -64.0021 -63.9713 -36.6511 -36.6135 -36.5756 -36.5683
   -36.5415 -36.5166 -36.4792 -36.4111 -36.3869 -36.3307 -36.3167 -36.2992
   -36.2489 -36.2247 -36.1706 -36.1315 -36.1189 -36.0767 -36.0560 -36.0440
   -36.0332 -36.0082 -35.9887 -35.9750 -35.9644 -35.9521 -35.9198 -35.9150
   -35.8897 -35.8758 -35.8472 -35.8153 -35.8042 -35.7633 -35.7226 -35.6658
   -12.6147  -4.5241  -2.2389  -1.8844  -1.5540  -1.4505  -1.3028  -1.2769
    -1.1568  -1.0770  -0.9212  -0.8815  -0.8192  -0.7534  -0.5755  -0.5184
    -0.3919  -0.2452  -0.1113   0.0272   0.1555   0.2367   0.3047   0.5328
     0.6208   0.7067   0.7621   0.8601   1.0889   1.1943   1.2412   1.3043
     1.3860   1.4712   1.5448   1.6090   1.7007   1.8700   1.9944   2.0598
     2.1581   2.2048   2.2827   2.3891   2.7442   2.8549   2.9452   3.0067
     3.1182   3.2723   3.3491   3.4972   3.7316   3.8108   3.9511

          k =-0.0912 0.1228 0.0000 ( 16203 PWs)   bands (ev):

   -64.3015 -64.2571 -64.2282 -64.2172 -64.1938 -64.1814 -64.1617 -64.0565
   -64.0261 -64.0068 -64.0021 -63.9713 -36.6511 -36.6134 -36.5756 -36.5684
   -36.5415 -36.5167 -36.4791 -36.4110 -36.3868 -36.3307 -36.3167 -36.2992
   -36.2489 -36.2247 -36.1707 -36.1314 -36.1189 -36.0767 -36.0561 -36.0440
   -36.0331 -36.0081 -35.9887 -35.9750 -35.9646 -35.9521 -35.9198 -35.9151
   -35.8897 -35.8757 -35.8471 -35.8154 -35.8041 -35.7633 -35.7226 -35.6658
   -12.6147  -4.5241  -2.2389  -1.8844  -1.5540  -1.4505  -1.3028  -1.2769
    -1.1568  -1.0770  -0.9212  -0.8815  -0.8192  -0.7535  -0.5755  -0.5184
    -0.3919  -0.2452  -0.1113   0.0272   0.1555   0.2367   0.3047   0.5328
     0.6208   0.7067   0.7621   0.8601   1.0889   1.1943   1.2412   1.3043
     1.3860   1.4712   1.5448   1.6090   1.7007   1.8700   1.9944   2.0597
     2.1581   2.2048   2.2828   2.3891   2.7443   2.8548   2.9452   3.0067
     3.1182   3.2723   3.3491   3.4972   3.7316   3.8108   3.9510

          k =-0.0912-0.0526 0.0000 ( 16164 PWs)   bands (ev):

   -64.2956 -64.2718 -64.2216 -64.2080 -64.1983 -64.1834 -64.1623 -64.0481
   -64.0422 -64.0066 -63.9865 -63.9793 -36.6506 -36.6208 -36.6021 -36.5673
   -36.5586 -36.5158 -36.4149 -36.3824 -36.3682 -36.3666 -36.3246 -36.3051
   -36.2825 -36.1942 -36.1474 -36.1041 -36.0954 -36.0890 -36.0691 -36.0667
   -36.0220 -36.0102 -35.9978 -35.9780 -35.9690 -35.9570 -35.9536 -35.9278
   -35.8830 -35.8680 -35.8566 -35.8351 -35.8259 -35.7495 -35.6741 -35.6684
   -12.6148  -4.5259  -2.2255  -1.9955  -1.6275  -1.3720  -1.3171  -1.2882
    -1.2448  -1.1220  -0.9517  -0.8628  -0.7795  -0.5644  -0.5356  -0.5046
    -0.3923  -0.3145  -0.2428   0.0199   0.2343   0.3200   0.4181   0.4241
     0.5710   0.7319   0.8922   0.9528   1.2526   1.3426   1.4668   1.4849
     1.5025   1.5198   1.5979   1.6560   1.6567   1.7298   1.8487   1.9332
     2.0733   2.0911   2.1381   2.7249   2.7909   2.8142   2.8313   2.9850
     3.1318   3.2716   3.3236   3.4520   3.5125   3.6344   3.7010

     the Fermi energy is     2.9291 ev

!    total energy              =   -2124.97832305 Ry
     Harris-Foulkes estimate   =   -2124.97832541 Ry
     estimated scf accuracy    <       0.00000100 Ry

     The total energy is the sum of the following terms:

     one-electron contribution =  -19156.18321465 Ry
     hartree contribution      =    9581.78257704 Ry
     xc contribution           =    -403.25730224 Ry
     ewald contribution        =    7852.76709851 Ry
     electric field correction =       0.00022551 Ry
     smearing contrib. (-TS)   =      -0.08770722 Ry

     convergence has been achieved in  27 iterations
 
 BEEF-vdW xc energy contributions
           1 :   -353.198186425307     
           2 :    324.629683243624     
           3 :   -273.865823826665     
           4 :    211.133549099708     
           5 :   -147.305918773425     
           6 :    90.9220016194965     
           7 :   -46.5327746320262     
           8 :    14.5851351962742     
           9 :    7.30996506206429     
          10 :   -22.5066025277499     
          11 :    33.6249925331336     
          12 :   -41.6822467769399     
          13 :    46.1698300421470     
          14 :   -45.8799277802921     
          15 :    39.9690709853816     
          16 :   -28.7739715705479     
          17 :    14.0313859791545     
          18 :    1.52540874351564     
          19 :   -14.9895248065438     
          20 :    24.1428884962140     
          21 :   -28.0197698307323     
          22 :    26.9687415398241     
          23 :   -22.2618537208236     
          24 :    15.4694094246236     
          25 :   -7.90762517372326     
          26 :   0.373908769008210     
          27 :    6.77557624947593     
          28 :   -13.3351886861592     
          29 :    18.9525711363716     
          30 :   -23.0114618030672     
          31 :   -33.7311431206534     
          32 :   -24.7436175956548     

     Forces acting on atoms (Ry/au):


     negative rho (up, down):  1.591E+00 0.000E+00
     atom    1 type  1   force =    -0.00194743   -0.00112371    0.03038539
     atom    2 type  1   force =     0.00195601   -0.00112271    0.03033377
     atom    3 type  1   force =     0.00000840    0.00224124    0.03038113
     atom    4 type  1   force =    -0.00000445   -0.00000077    0.02987667
     atom    5 type  1   force =     0.00002797   -0.01072017   -0.01487236
     atom    6 type  1   force =    -0.00003143   -0.00002473    0.00347391
     atom    7 type  1   force =     0.00927140    0.00536123   -0.01484296
     atom    8 type  1   force =    -0.00927117    0.00538986   -0.01486379
     atom    9 type  1   force =     0.00000485    0.00000697   -0.04503132
     atom   10 type  1   force =    -0.00000414   -0.02600184    0.02087936
     atom   11 type  1   force =    -0.02252538    0.01299723    0.02088422
     atom   12 type  1   force =     0.02251747    0.01299807    0.02087136
     atom   13 type  2   force =    -0.00000078   -0.00000137   -0.05099427
     atom   14 type  3   force =    -0.00000133    0.00000070   -0.04648112

     Total force =     0.100622     Total SCF correction =     0.000876


     entering subroutine stress ...


     negative rho (up, down):  1.591E+00 0.000E+00
          total   stress  (Ry/bohr**3)                   (kbar)     P=  -36.06
  -0.00021887   0.00000000  -0.00000002        -32.20      0.00     -0.00
   0.00000000  -0.00021888  -0.00000000          0.00    -32.20     -0.00
  -0.00000002  -0.00000000  -0.00029767         -0.00     -0.00    -43.79


     BFGS Geometry Optimization

     number of scf cycles    =   1
     number of bfgs steps    =   0

     energy   new            =   -2124.9783230512 Ry

     new trust radius        =       0.0509942676 bohr
     new conv_thr            =       0.0000099958 Ry


ATOMIC_POSITIONS (crystal)
Tc1      0.166666667   0.166666667   0.408540475    0   0   0
Tc1      0.666666667   0.166666667   0.408540475    0   0   0
Tc1      0.166666667   0.666666667   0.408540475    0   0   0
Tc1      0.666666667   0.666666667   0.408540475    0   0   0
Tc1      0.833333333   0.333333333   0.500000000    0   0   0
Tc1      0.333333333   0.333333333   0.500000000    0   0   0
Tc1      0.833333333   0.833333333   0.500000000    0   0   0
Tc1      0.333333333   0.833333333   0.500000000    0   0   0
Tc1      0.000000080   0.000000777   0.590485992
Tc1      0.501448289  -0.002897377   0.591910917
Tc1     -0.002897860   0.501448278   0.591911022
Tc1      0.501448772   0.501448371   0.591910744
N1       0.333333335   0.333333180   0.648247264
H1       0.333333166   0.333333411   0.691241584



     Writing output data file calc.save
     Check: negative starting charge=   -1.504848
     NEW-OLD atomic charge density approx. for the potential

     Check: negative/imaginary core charge=   -0.000022    0.000000
     Check: negative starting charge=   -1.507081

     negative rho (up, down):  1.593E+00 0.000E+00
 
     Adding external electric field

     Computed dipole along edir(3) : 
        Dipole                0.2954 Ry au,          0.7509 Debye
        Dipole field          0.0009 Ry au
 
        Potential amp.       -0.0778 Ry
        Total length         45.0992 bohr
 

     total cpu time spent up to now is      388.8 secs

     Self-consistent Calculation

     iteration #  1     ecut=    36.75 Ry     beta=0.30
     Davidson diagonalization with overlap
     ethr =  1.00E-06,  avg # of iterations =  7.7

     negative rho (up, down):  1.593E+00 0.000E+00
 
     Adding external electric field

     Computed dipole along edir(3) : 
        Dipole               -0.0448 Ry au,         -0.1139 Debye
        Dipole field         -0.0001 Ry au
 
        Potential amp.        0.0118 Ry
        Total length         45.0992 bohr
 

     total cpu time spent up to now is      408.0 secs

     total energy              =   -2124.97814767 Ry
     Harris-Foulkes estimate   =   -2124.98846980 Ry
     estimated scf accuracy    <       0.02052194 Ry

     iteration #  2     ecut=    36.75 Ry     beta=0.30
     Davidson diagonalization with overlap
     ethr =  1.10E-05,  avg # of iterations =  6.2

     negative rho (up, down):  1.593E+00 0.000E+00
 
     Adding external electric field

     Computed dipole along edir(3) : 
        Dipole                0.2923 Ry au,          0.7431 Debye
        Dipole field          0.0009 Ry au
 
        Potential amp.       -0.0770 Ry
        Total length         45.0992 bohr
 

     total cpu time spent up to now is      422.7 secs

     total energy              =   -2124.86712079 Ry
     Harris-Foulkes estimate   =   -2125.10518411 Ry
     estimated scf accuracy    <      10.17452668 Ry

     iteration #  3     ecut=    36.75 Ry     beta=0.30
     Davidson diagonalization with overlap
     ethr =  1.10E-05,  avg # of iterations =  6.1

     negative rho (up, down):  1.593E+00 0.000E+00
 
     Adding external electric field

     Computed dipole along edir(3) : 
        Dipole                0.2841 Ry au,          0.7222 Debye
        Dipole field          0.0008 Ry au
 
        Potential amp.       -0.0749 Ry
        Total length         45.0992 bohr
 

     total cpu time spent up to now is      437.7 secs

     total energy              =   -2124.98559543 Ry
     Harris-Foulkes estimate   =   -2124.98918516 Ry
     estimated scf accuracy    <       0.03602682 Ry

     iteration #  4     ecut=    36.75 Ry     beta=0.30
     Davidson diagonalization with overlap
     ethr =  1.10E-05,  avg # of iterations =  3.6

     negative rho (up, down):  1.593E+00 0.000E+00
 
     Adding external electric field

     Computed dipole along edir(3) : 
        Dipole                0.2837 Ry au,          0.7211 Debye
        Dipole field          0.0008 Ry au
 
        Potential amp.       -0.0748 Ry
        Total length         45.0992 bohr
 

     total cpu time spent up to now is      447.9 secs

     total energy              =   -2124.98709633 Ry
     Harris-Foulkes estimate   =   -2124.98753432 Ry
     estimated scf accuracy    <       0.00281724 Ry

     iteration #  5     ecut=    36.75 Ry     beta=0.30
     Davidson diagonalization with overlap
     ethr =  1.51E-06,  avg # of iterations =  5.5

     negative rho (up, down):  1.593E+00 0.000E+00
 
     Adding external electric field

     Computed dipole along edir(3) : 
        Dipole                0.2830 Ry au,          0.7193 Debye
        Dipole field          0.0008 Ry au
 
        Potential amp.       -0.0746 Ry
        Total length         45.0992 bohr
 

     total cpu time spent up to now is      459.6 secs

     total energy              =   -2124.98745204 Ry
     Harris-Foulkes estimate   =   -2124.98757743 Ry
     estimated scf accuracy    <       0.00091139 Ry

     iteration #  6     ecut=    36.75 Ry     beta=0.30
     Davidson diagonalization with overlap
     ethr =  4.90E-07,  avg # of iterations =  3.4

     negative rho (up, down):  1.593E+00 0.000E+00
 
     Adding external electric field

     Computed dipole along edir(3) : 
        Dipole                0.2834 Ry au,          0.7202 Debye
        Dipole field          0.0008 Ry au
 
        Potential amp.       -0.0747 Ry
        Total length         45.0992 bohr
 

     total cpu time spent up to now is      468.9 secs

     total energy              =   -2124.98748246 Ry
     Harris-Foulkes estimate   =   -2124.98753439 Ry
     estimated scf accuracy    <       0.00032557 Ry

     iteration #  7     ecut=    36.75 Ry     beta=0.30
     Davidson diagonalization with overlap
     ethr =  1.75E-07,  avg # of iterations =  3.4

     negative rho (up, down):  1.593E+00 0.000E+00
 
     Adding external electric field

     Computed dipole along edir(3) : 
        Dipole                0.2824 Ry au,          0.7177 Debye
        Dipole field          0.0008 Ry au
 
        Potential amp.       -0.0744 Ry
        Total length         45.0992 bohr
 

     total cpu time spent up to now is      478.6 secs

     total energy              =   -2124.98751552 Ry
     Harris-Foulkes estimate   =   -2124.98752464 Ry
     estimated scf accuracy    <       0.00008223 Ry

     iteration #  8     ecut=    36.75 Ry     beta=0.30
     Davidson diagonalization with overlap
     ethr =  4.42E-08,  avg # of iterations =  3.2

     negative rho (up, down):  1.593E+00 0.000E+00
 
     Adding external electric field

     Computed dipole along edir(3) : 
        Dipole                0.2812 Ry au,          0.7148 Debye
        Dipole field          0.0008 Ry au
 
        Potential amp.       -0.0741 Ry
        Total length         45.0992 bohr
 

     total cpu time spent up to now is      488.8 secs

     total energy              =   -2124.98752088 Ry
     Harris-Foulkes estimate   =   -2124.98752586 Ry
     estimated scf accuracy    <       0.00002362 Ry

     iteration #  9     ecut=    36.75 Ry     beta=0.30
     Davidson diagonalization with overlap
     ethr =  1.27E-08,  avg # of iterations =  4.5

     negative rho (up, down):  1.593E+00 0.000E+00
 
     Adding external electric field

     Computed dipole along edir(3) : 
        Dipole                0.2800 Ry au,          0.7118 Debye
        Dipole field          0.0008 Ry au
 
        Potential amp.       -0.0738 Ry
        Total length         45.0992 bohr
 

     total cpu time spent up to now is      500.1 secs

     total energy              =   -2124.98752336 Ry
     Harris-Foulkes estimate   =   -2124.98752840 Ry
     estimated scf accuracy    <       0.00003184 Ry

     iteration # 10     ecut=    36.75 Ry     beta=0.30
     Davidson diagonalization with overlap
     ethr =  1.27E-08,  avg # of iterations =  3.0

     negative rho (up, down):  1.593E+00 0.000E+00

     negative rho (up, down):  1.593E+00 0.000E+00

     negative rho (up, down):  1.593E+00 0.000E+00

     negative rho (up, down):  1.593E+00 0.000E+00

     negative rho (up, down):  1.593E+00 0.000E+00

     negative rho (up, down):  1.593E+00 0.000E+00

     negative rho (up, down):  1.593E+00 0.000E+00

     negative rho (up, down):  1.593E+00 0.000E+00

     negative rho (up, down):  1.593E+00 0.000E+00

     negative rho (up, down):  1.593E+00 0.000E+00

     negative rho (up, down):  1.593E+00 0.000E+00

     negative rho (up, down):  1.593E+00 0.000E+00

     negative rho (up, down):  1.593E+00 0.000E+00

     negative rho (up, down):  1.593E+00 0.000E+00

     negative rho (up, down):  1.593E+00 0.000E+00

     negative rho (up, down):  1.593E+00 0.000E+00

     negative rho (up, down):  1.593E+00 0.000E+00

     negative rho (up, down):  1.593E+00 0.000E+00

     negative rho (up, down):  1.593E+00 0.000E+00

     negative rho (up, down):  1.593E+00 0.000E+00

     negative rho (up, down):  1.593E+00 0.000E+00

     negative rho (up, down):  1.593E+00 0.000E+00

     negative rho (up, down):  1.593E+00 0.000E+00

     negative rho (up, down):  1.593E+00 0.000E+00

     negative rho (up, down):  1.593E+00 0.000E+00

     negative rho (up, down):  1.593E+00 0.000E+00

     negative rho (up, down):  1.593E+00 0.000E+00

     negative rho (up, down):  1.593E+00 0.000E+00

     negative rho (up, down):  1.593E+00 0.000E+00

     negative rho (up, down):  1.593E+00 0.000E+00

     negative rho (up, down):  1.593E+00 0.000E+00

     negative rho (up, down):  1.593E+00 0.000E+00

     negative rho (up, down):  1.593E+00 0.000E+00

     negative rho (up, down):  1.593E+00 0.000E+00

     negative rho (up, down):  1.593E+00 0.000E+00
 
     Adding external electric field

     Computed dipole along edir(3) : 
        Dipole                0.2773 Ry au,          0.7048 Debye
        Dipole field          0.0008 Ry au
 
        Potential amp.       -0.0731 Ry
        Total length         45.0992 bohr
 

     total cpu time spent up to now is      535.2 secs

     End of self-consistent calculation

          k = 0.0000 0.0000 0.0000 ( 16073 PWs)   bands (ev):

   -64.3562 -64.2609 -64.1937 -64.1905 -64.1904 -64.1562 -64.1561 -64.0976
   -63.9921 -63.9771 -63.9770 -63.9722 -36.8377 -36.7787 -36.7787 -36.7363
   -36.6717 -36.6591 -36.6590 -36.5230 -36.4988 -36.4987 -36.2354 -36.1885
   -36.1883 -36.1422 -36.1112 -36.1111 -36.0576 -36.0496 -36.0496 -36.0360
   -35.9398 -35.9397 -35.9142 -35.9014 -35.9013 -35.9002 -35.8282 -35.8083
   -35.8083 -35.7641 -35.7613 -35.7613 -35.6828 -35.6827 -35.5652 -35.5652
   -12.7054  -4.8955  -3.4666  -2.2828  -2.2828  -2.2729  -2.1913  -2.1913
    -2.1601  -1.9456  -1.7465  -1.7465  -1.7077  -1.6617  -1.4021  -1.4020
    -0.9145  -0.7637  -0.7636   0.1564   0.1564   0.2269   0.7455   0.7455
     0.9478   1.0077   1.2775   1.2775   1.4745   1.5377   1.5377   1.6432
     1.7055   1.7055   1.8183   1.8183   2.1773   2.4923   2.4923   2.8986
     3.2386   3.2752   3.2753   3.5051   3.5051   3.7496   3.7602   3.7602
     4.1256   4.1256   4.2917   4.7297   4.8289   4.8290   4.9464

          k = 0.0000 0.0351 0.0000 ( 16137 PWs)   bands (ev):

   -64.3460 -64.2542 -64.2051 -64.1905 -64.1901 -64.1611 -64.1561 -64.0895
   -63.9936 -63.9841 -63.9770 -63.9734 -36.7994 -36.7466 -36.7319 -36.6990
   -36.6505 -36.6296 -36.6245 -36.4925 -36.4686 -36.4534 -36.2405 -36.2160
   -36.2065 -36.1559 -36.1295 -36.1106 -36.0762 -36.0612 -36.0338 -36.0151
   -35.9709 -35.9658 -35.9187 -35.9026 -35.8946 -35.8938 -35.8578 -35.8400
   -35.8237 -35.7941 -35.7907 -35.7496 -35.7302 -35.6940 -35.6226 -35.5785
   -12.6990  -4.8163  -3.2386  -2.1787  -2.1150  -2.0839  -2.0472  -2.0249
    -1.9216  -1.7542  -1.6074  -1.5920  -1.5752  -1.5115  -1.2440  -1.1823
    -0.7918  -0.7023  -0.6925   0.1529   0.1773   0.3037   0.7565   0.8174
     0.8207   0.9452   1.1170   1.2870   1.4219   1.4826   1.4972   1.6087
     1.6826   1.7209   1.7673   1.9850   2.0615   2.2996   2.3115   2.5461
     3.0272   3.0348   3.1681   3.2212   3.2722   3.3985   3.6639   3.6789
     3.8263   4.0869   4.1742   4.2738   4.4707   4.5826   4.6882

          k = 0.0000 0.0702 0.0000 ( 16149 PWs)   bands (ev):

   -64.3183 -64.2421 -64.2283 -64.1929 -64.1907 -64.1731 -64.1560 -64.0675
   -64.0068 -63.9956 -63.9770 -63.9737 -36.7099 -36.6673 -36.6430 -36.6028
   -36.5657 -36.5598 -36.5521 -36.4295 -36.3970 -36.3508 -36.2682 -36.2681
   -36.2370 -36.2106 -36.1349 -36.1281 -36.0843 -36.0790 -36.0385 -36.0331
   -36.0074 -35.9970 -35.9675 -35.9329 -35.9190 -35.9023 -35.8941 -35.8647
   -35.8642 -35.8471 -35.8438 -35.8305 -35.7542 -35.7265 -35.7087 -35.6147
   -12.6861  -4.6520  -2.6603  -2.0763  -1.7917  -1.6739  -1.5794  -1.5745
    -1.4444  -1.3000  -1.2183  -1.1725  -1.1117  -1.0933  -0.8725  -0.8275
    -0.5731  -0.4233  -0.2352   0.1431   0.2026   0.2685   0.3935   0.5941
     0.8848   0.9087   0.9311   0.9971   1.2372   1.2477   1.4020   1.5818
     1.5936   1.6966   1.8988   1.9317   1.9826   2.0634   2.0661   2.4075
     2.4377   2.4646   2.6023   2.6282   2.7058   2.8374   2.9999   3.0330
     3.2907   3.5087   3.6511   3.8675   3.9560   3.9604   4.1277

          k = 0.0000-0.1053 0.0000 ( 16164 PWs)   bands (ev):

   -64.2887 -64.2667 -64.2176 -64.2013 -64.1908 -64.1796 -64.1560 -64.0388
   -64.0354 -63.9971 -63.9770 -63.9737 -36.6464 -36.6123 -36.5955 -36.5601
   -36.5476 -36.5151 -36.4064 -36.3751 -36.3653 -36.3518 -36.3201 -36.3006
   -36.2789 -36.1950 -36.1404 -36.0985 -36.0903 -36.0835 -36.0640 -36.0614
   -36.0165 -36.0046 -35.9915 -35.9668 -35.9607 -35.9483 -35.9463 -35.9231
   -35.8769 -35.8618 -35.8516 -35.8295 -35.8138 -35.7405 -35.6652 -35.6620
   -12.6798  -4.5661  -2.2618  -1.9845  -1.6591  -1.4260  -1.3185  -1.2741
    -1.2367  -1.0980  -0.9617  -0.8597  -0.7737  -0.5689  -0.5369  -0.5007
    -0.3853  -0.2981  -0.2483   0.0507   0.2374   0.3362   0.4227   0.4251
     0.5691   0.7203   0.8918   0.9488   1.2416   1.2979   1.4616   1.4924
     1.5157   1.5358   1.5866   1.6549   1.6660   1.7360   1.8411   1.9541
     2.0600   2.1330   2.1710   2.7344   2.7657   2.8275   2.8334   3.0035
     3.1457   3.2671   3.3526   3.4239   3.5321   3.6335   3.7521

          k = 0.0304-0.0175 0.0000 ( 16137 PWs)   bands (ev):

   -64.3460 -64.2542 -64.2050 -64.1905 -64.1902 -64.1612 -64.1560 -64.0895
   -63.9936 -63.9840 -63.9771 -63.9733 -36.7994 -36.7467 -36.7318 -36.6990
   -36.6504 -36.6296 -36.6245 -36.4925 -36.4686 -36.4534 -36.2405 -36.2160
   -36.2065 -36.1559 -36.1295 -36.1105 -36.0761 -36.0612 -36.0338 -36.0151
   -35.9709 -35.9657 -35.9187 -35.9026 -35.8946 -35.8938 -35.8578 -35.8400
   -35.8237 -35.7941 -35.7907 -35.7496 -35.7302 -35.6940 -35.6226 -35.5785
   -12.6990  -4.8163  -3.2386  -2.1787  -2.1150  -2.0839  -2.0472  -2.0249
    -1.9216  -1.7542  -1.6074  -1.5921  -1.5752  -1.5115  -1.2440  -1.1823
    -0.7918  -0.7023  -0.6925   0.1529   0.1773   0.3037   0.7565   0.8174
     0.8207   0.9452   1.1170   1.2869   1.4219   1.4826   1.4972   1.6087
     1.6826   1.7209   1.7673   1.9850   2.0615   2.2995   2.3115   2.5461
     3.0272   3.0348   3.1680   3.2213   3.2722   3.3985   3.6639   3.6790
     3.8263   4.0870   4.1742   4.2738   4.4707   4.5826   4.6882

          k = 0.0304 0.0175 0.0000 ( 16137 PWs)   bands (ev):

   -64.3460 -64.2542 -64.2050 -64.1906 -64.1901 -64.1611 -64.1561 -64.0895
   -63.9936 -63.9840 -63.9771 -63.9733 -36.7994 -36.7467 -36.7318 -36.6990
   -36.6505 -36.6296 -36.6245 -36.4926 -36.4686 -36.4535 -36.2405 -36.2159
   -36.2066 -36.1559 -36.1294 -36.1106 -36.0762 -36.0612 -36.0339 -36.0150
   -35.9708 -35.9658 -35.9188 -35.9026 -35.8946 -35.8938 -35.8578 -35.8400
   -35.8237 -35.7942 -35.7907 -35.7496 -35.7302 -35.6940 -35.6226 -35.5785
   -12.6990  -4.8163  -3.2386  -2.1787  -2.1150  -2.0839  -2.0472  -2.0249
    -1.9216  -1.7542  -1.6074  -1.5921  -1.5752  -1.5115  -1.2440  -1.1822
    -0.7918  -0.7023  -0.6925   0.1529   0.1773   0.3037   0.7565   0.8174
     0.8207   0.9452   1.1170   1.2869   1.4219   1.4827   1.4972   1.6087
     1.6826   1.7209   1.7673   1.9850   2.0615   2.2995   2.3115   2.5461
     3.0272   3.0348   3.1681   3.2212   3.2722   3.3985   3.6639   3.6790
     3.8264   4.0870   4.1742   4.2738   4.4707   4.5826   4.6882

          k = 0.0304 0.0526 0.0000 ( 16202 PWs)   bands (ev):

   -64.3270 -64.2429 -64.2196 -64.2032 -64.1839 -64.1692 -64.1562 -64.0745
   -63.9966 -63.9913 -63.9894 -63.9681 -36.7364 -36.6891 -36.6462 -36.6345
   -36.6073 -36.5766 -36.5722 -36.4495 -36.4035 -36.3866 -36.2664 -36.2430
   -36.2353 -36.2077 -36.1527 -36.0992 -36.0901 -36.0547 -36.0478 -36.0197
   -36.0006 -35.9673 -35.9474 -35.9334 -35.9220 -35.9005 -35.8777 -35.8734
   -35.8702 -35.8393 -35.7989 -35.7652 -35.7633 -35.7227 -35.7112 -35.6074
   -12.6893  -4.6934  -2.8258  -2.0596  -1.8506  -1.8096  -1.7613  -1.6770
    -1.5044  -1.4297  -1.3575  -1.3268  -1.2889  -1.1975  -0.9523  -0.8801
    -0.6283  -0.6000  -0.3806   0.1358   0.2396   0.3103   0.4880   0.7244
     0.8378   0.9240   0.9344   0.9947   1.2205   1.4261   1.5036   1.5298
     1.6109   1.8020   1.8197   1.8734   1.9287   2.0897   2.2570   2.4125
     2.5630   2.5930   2.7579   2.8422   2.9934   3.0382   3.1106   3.1988
     3.3169   3.5893   3.6797   4.0005   4.0506   4.2375   4.3256

          k = 0.0304-0.1228 0.0000 ( 16203 PWs)   bands (ev):

   -64.2950 -64.2519 -64.2230 -64.2108 -64.1887 -64.1754 -64.1558 -64.0483
   -64.0179 -63.9978 -63.9940 -63.9641 -36.6463 -36.6074 -36.5647 -36.5595
   -36.5346 -36.5142 -36.4732 -36.4058 -36.3769 -36.3245 -36.3114 -36.2959
   -36.2428 -36.2187 -36.1640 -36.1261 -36.1138 -36.0730 -36.0536 -36.0382
   -36.0271 -36.0014 -35.9794 -35.9684 -35.9577 -35.9443 -35.9133 -35.9098
   -35.8844 -35.8675 -35.8400 -35.8070 -35.7953 -35.7543 -35.7149 -35.6583
   -12.6798  -4.5641  -2.2619  -1.9086  -1.5726  -1.4952  -1.2944  -1.2647
    -1.1598  -1.0653  -0.9108  -0.8797  -0.8171  -0.7501  -0.5695  -0.5151
    -0.3839  -0.2488  -0.0973   0.0396   0.1592   0.2405   0.3209   0.5283
     0.6262   0.6982   0.7467   0.8687   1.0968   1.1716   1.2431   1.2969
     1.3857   1.4731   1.5500   1.6130   1.7097   1.8627   1.9989   2.0714
     2.1560   2.2201   2.2919   2.4114   2.7593   2.8474   2.9474   3.0174
     3.1400   3.2813   3.3476   3.5090   3.7458   3.8373   3.9641

          k = 0.0304-0.0877 0.0000 ( 16203 PWs)   bands (ev):

   -64.2950 -64.2520 -64.2229 -64.2110 -64.1887 -64.1754 -64.1558 -64.0483
   -64.0179 -63.9978 -63.9940 -63.9641 -36.6463 -36.6073 -36.5647 -36.5595
   -36.5345 -36.5142 -36.4732 -36.4058 -36.3770 -36.3245 -36.3114 -36.2959
   -36.2429 -36.2189 -36.1640 -36.1260 -36.1138 -36.0729 -36.0536 -36.0382
   -36.0271 -36.0014 -35.9794 -35.9684 -35.9577 -35.9443 -35.9133 -35.9098
   -35.8844 -35.8675 -35.8400 -35.8070 -35.7953 -35.7544 -35.7149 -35.6583
   -12.6798  -4.5641  -2.2619  -1.9086  -1.5726  -1.4952  -1.2944  -1.2647
    -1.1598  -1.0653  -0.9108  -0.8797  -0.8171  -0.7501  -0.5695  -0.5151
    -0.3839  -0.2488  -0.0973   0.0396   0.1592   0.2405   0.3209   0.5283
     0.6262   0.6982   0.7467   0.8687   1.0968   1.1716   1.2431   1.2969
     1.3857   1.4731   1.5500   1.6130   1.7097   1.8627   1.9989   2.0714
     2.1560   2.2201   2.2919   2.4114   2.7593   2.8474   2.9474   3.0173
     3.1400   3.2813   3.3476   3.5090   3.7458   3.8373   3.9640

          k = 0.0304-0.0526 0.0000 ( 16202 PWs)   bands (ev):

   -64.3270 -64.2428 -64.2196 -64.2032 -64.1838 -64.1692 -64.1562 -64.0745
   -63.9966 -63.9913 -63.9894 -63.9681 -36.7364 -36.6891 -36.6462 -36.6345
   -36.6073 -36.5766 -36.5722 -36.4495 -36.4035 -36.3866 -36.2665 -36.2428
   -36.2353 -36.2077 -36.1527 -36.0992 -36.0902 -36.0546 -36.0478 -36.0197
   -36.0006 -35.9672 -35.9473 -35.9334 -35.9220 -35.9005 -35.8777 -35.8735
   -35.8702 -35.8393 -35.7989 -35.7652 -35.7633 -35.7227 -35.7112 -35.6074
   -12.6893  -4.6934  -2.8258  -2.0596  -1.8506  -1.8096  -1.7614  -1.6770
    -1.5044  -1.4297  -1.3575  -1.3268  -1.2889  -1.1975  -0.9523  -0.8801
    -0.6283  -0.6000  -0.3806   0.1358   0.2396   0.3103   0.4880   0.7245
     0.8378   0.9240   0.9344   0.9947   1.2205   1.4261   1.5036   1.5299
     1.6109   1.8020   1.8198   1.8734   1.9287   2.0896   2.2570   2.4125
     2.5630   2.5931   2.7579   2.8423   2.9934   3.0383   3.1106   3.1988
     3.3168   3.5893   3.6797   4.0005   4.0506   4.2375   4.3255

          k = 0.0608-0.0351 0.0000 ( 16149 PWs)   bands (ev):

   -64.3183 -64.2420 -64.2283 -64.1930 -64.1907 -64.1732 -64.1559 -64.0675
   -64.0068 -63.9956 -63.9771 -63.9737 -36.7099 -36.6674 -36.6429 -36.6028
   -36.5657 -36.5598 -36.5522 -36.4296 -36.3970 -36.3508 -36.2682 -36.2681
   -36.2370 -36.2107 -36.1349 -36.1280 -36.0844 -36.0790 -36.0384 -36.0331
   -36.0073 -35.9970 -35.9675 -35.9329 -35.9190 -35.9022 -35.8941 -35.8648
   -35.8642 -35.8471 -35.8438 -35.8305 -35.7542 -35.7265 -35.7088 -35.6147
   -12.6861  -4.6520  -2.6603  -2.0764  -1.7917  -1.6739  -1.5794  -1.5745
    -1.4444  -1.3000  -1.2183  -1.1724  -1.1117  -1.0933  -0.8725  -0.8275
    -0.5731  -0.4233  -0.2352   0.1431   0.2026   0.2685   0.3935   0.5941
     0.8848   0.9087   0.9311   0.9971   1.2373   1.2477   1.4020   1.5818
     1.5936   1.6966   1.8989   1.9317   1.9826   2.0634   2.0661   2.4074
     2.4377   2.4646   2.6023   2.6282   2.7058   2.8374   2.9999   3.0331
     3.2907   3.5087   3.6511   3.8675   3.9560   3.9604   4.1277

          k = 0.0608 0.0000 0.0000 ( 16202 PWs)   bands (ev):

   -64.3270 -64.2429 -64.2195 -64.2032 -64.1839 -64.1692 -64.1562 -64.0745
   -63.9966 -63.9912 -63.9895 -63.9681 -36.7364 -36.6891 -36.6461 -36.6345
   -36.6073 -36.5766 -36.5722 -36.4495 -36.4034 -36.3866 -36.2664 -36.2430
   -36.2353 -36.2077 -36.1527 -36.0992 -36.0901 -36.0546 -36.0478 -36.0197
   -36.0006 -35.9673 -35.9474 -35.9334 -35.9220 -35.9005 -35.8777 -35.8735
   -35.8703 -35.8393 -35.7989 -35.7652 -35.7633 -35.7227 -35.7112 -35.6074
   -12.6893  -4.6934  -2.8258  -2.0596  -1.8506  -1.8096  -1.7614  -1.6770
    -1.5045  -1.4297  -1.3575  -1.3268  -1.2889  -1.1975  -0.9523  -0.8801
    -0.6283  -0.6000  -0.3806   0.1358   0.2396   0.3103   0.4879   0.7244
     0.8378   0.9240   0.9344   0.9947   1.2205   1.4260   1.5037   1.5298
     1.6109   1.8020   1.8197   1.8734   1.9287   2.0897   2.2570   2.4125
     2.5630   2.5930   2.7579   2.8423   2.9934   3.0382   3.1106   3.1988
     3.3169   3.5893   3.6797   4.0006   4.0506   4.2376   4.3255

          k = 0.0608 0.0351 0.0000 ( 16149 PWs)   bands (ev):

   -64.3183 -64.2421 -64.2282 -64.1929 -64.1908 -64.1732 -64.1560 -64.0675
   -64.0068 -63.9956 -63.9771 -63.9736 -36.7100 -36.6674 -36.6430 -36.6027
   -36.5657 -36.5597 -36.5522 -36.4296 -36.3969 -36.3507 -36.2682 -36.2681
   -36.2370 -36.2106 -36.1349 -36.1281 -36.0844 -36.0791 -36.0385 -36.0331
   -36.0073 -35.9971 -35.9675 -35.9329 -35.9190 -35.9022 -35.8942 -35.8648
   -35.8642 -35.8471 -35.8438 -35.8305 -35.7542 -35.7264 -35.7087 -35.6147
   -12.6861  -4.6520  -2.6603  -2.0763  -1.7917  -1.6739  -1.5794  -1.5745
    -1.4444  -1.3000  -1.2183  -1.1724  -1.1117  -1.0933  -0.8725  -0.8275
    -0.5731  -0.4233  -0.2352   0.1431   0.2026   0.2685   0.3935   0.5941
     0.8849   0.9087   0.9311   0.9971   1.2372   1.2477   1.4020   1.5817
     1.5935   1.6966   1.8989   1.9317   1.9825   2.0634   2.0661   2.4075
     2.4377   2.4646   2.6023   2.6282   2.7057   2.8374   2.9998   3.0331
     3.2907   3.5086   3.6512   3.8675   3.9560   3.9605   4.1277

          k = 0.0608-0.1404 0.0000 ( 16203 PWs)   bands (ev):

   -64.2951 -64.2519 -64.2229 -64.2109 -64.1885 -64.1756 -64.1558 -64.0483
   -64.0179 -63.9978 -63.9940 -63.9641 -36.6463 -36.6074 -36.5647 -36.5594
[...]
    -0.6090  -0.4485  -0.1411   0.0807   0.1622   0.2413   0.3503   0.5856
     0.8316   0.8681   0.9283   1.0434   1.2258   1.2320   1.4557   1.5379
     1.6154   1.7417   1.7622   1.9078   1.9093   2.0267   2.0858   2.4013
     2.4809   2.4875   2.6219   2.6696   2.7431   2.8661   3.0100   3.0748
     3.2586   3.5881   3.7592   3.9002   3.9865   4.0472   4.1659

          k = 0.0608 0.0000 0.0000 ( 16202 PWs)   bands (ev):

   -64.3067 -64.2054 -64.1867 -64.1700 -64.1498 -64.1142 -64.1033 -64.0615
   -63.9811 -63.9766 -63.9558 -63.9153 -36.7694 -36.6971 -36.6571 -36.6462
   -36.6036 -36.5909 -36.5830 -36.4333 -36.3742 -36.3556 -36.2467 -36.2139
   -36.2058 -36.1963 -36.1123 -36.0792 -36.0533 -36.0326 -36.0154 -35.9837
   -35.9589 -35.9350 -35.9159 -35.8931 -35.8889 -35.8683 -35.8475 -35.8364
   -35.8204 -35.7843 -35.7492 -35.7437 -35.7295 -35.6811 -35.6442 -35.5929
   -13.1471  -5.0145  -2.8626  -2.3848  -2.1108  -1.9074  -1.8705  -1.7621
    -1.5617  -1.4548  -1.4224  -1.3869  -1.3119  -1.2008  -1.0007  -0.9606
    -0.6914  -0.6327  -0.2665   0.0970   0.2119   0.2543   0.4191   0.7167
     0.8799   0.9174   0.9682   0.9906   1.1657   1.3827   1.5232   1.5572
     1.6136   1.7524   1.8124   1.8248   1.8885   2.0728   2.2356   2.4328
     2.5926   2.6070   2.7724   2.8725   2.9998   3.0652   3.1163   3.1978
     3.3683   3.6619   3.7820   4.0019   4.1119   4.3095   4.4197

          k = 0.0608 0.0351 0.0000 ( 16149 PWs)   bands (ev):

   -64.2975 -64.2158 -64.1843 -64.1607 -64.1558 -64.1196 -64.1021 -64.0546
   -63.9942 -63.9652 -63.9610 -63.9158 -36.7451 -36.6653 -36.6640 -36.6068
   -36.5751 -36.5706 -36.5626 -36.4159 -36.3669 -36.3166 -36.2530 -36.2456
   -36.2268 -36.1857 -36.0963 -36.0956 -36.0614 -36.0397 -35.9925 -35.9876
   -35.9699 -35.9694 -35.9350 -35.9033 -35.8964 -35.8715 -35.8648 -35.8391
   -35.8248 -35.8003 -35.7861 -35.7719 -35.7030 -35.7016 -35.6455 -35.5990
   -13.1422  -4.9681  -2.7304  -2.3570  -1.9895  -1.8887  -1.6638  -1.6526
    -1.5173  -1.3366  -1.2629  -1.2183  -1.1604  -1.0869  -0.9671  -0.9035
    -0.6090  -0.4485  -0.1411   0.0807   0.1622   0.2412   0.3503   0.5856
     0.8316   0.8681   0.9283   1.0434   1.2258   1.2320   1.4557   1.5379
     1.6155   1.7417   1.7622   1.9078   1.9093   2.0267   2.0858   2.4013
     2.4809   2.4875   2.6219   2.6696   2.7431   2.8661   3.0100   3.0748
     3.2586   3.5881   3.7592   3.9002   3.9864   4.0472   4.1659

          k = 0.0608-0.1404 0.0000 ( 16203 PWs)   bands (ev):

   -64.2727 -64.2298 -64.1948 -64.1625 -64.1446 -64.1258 -64.1050 -64.0356
   -64.0052 -63.9827 -63.9518 -63.9168 -36.6870 -36.6183 -36.5807 -36.5666
   -36.5367 -36.5292 -36.4758 -36.4114 -36.3516 -36.3058 -36.2997 -36.2723
   -36.2268 -36.1595 -36.1328 -36.0999 -36.0712 -36.0341 -36.0190 -36.0005
   -35.9822 -35.9754 -35.9513 -35.9420 -35.9308 -35.9056 -35.8864 -35.8728
   -35.8494 -35.8222 -35.7899 -35.7561 -35.7292 -35.7004 -35.6739 -35.6418
   -13.1324  -4.8665  -2.5418  -2.0327  -1.8722  -1.6236  -1.3562  -1.3276
    -1.2488  -1.1042  -0.9837  -0.9031  -0.8792  -0.8258  -0.5957  -0.5750
    -0.4272  -0.3011  -0.1504   0.0318   0.1372   0.2235   0.3344   0.4646
     0.5890   0.6207   0.7219   0.8931   1.0575   1.1120   1.2325   1.3099
     1.3833   1.4752   1.5695   1.6306   1.7311   1.8619   2.0281   2.0815
     2.1055   2.2438   2.3041   2.5125   2.7513   2.8847   2.9711   3.0446
     3.2150   3.2953   3.3589   3.5272   3.8053   3.9200   4.0229

          k = 0.0608-0.1053 0.0000 ( 16272 PWs)   bands (ev):

   -64.2460 -64.2403 -64.2153 -64.1557 -64.1439 -64.1244 -64.1094 -64.0131
   -64.0074 -64.0072 -63.9477 -63.9172 -36.6454 -36.5567 -36.5472 -36.5234
   -36.5226 -36.4885 -36.4298 -36.4250 -36.4196 -36.3784 -36.2772 -36.2149
   -36.1889 -36.1732 -36.1380 -36.1180 -36.1009 -36.0924 -36.0450 -36.0104
   -35.9910 -35.9600 -35.9489 -35.9415 -35.9245 -35.9230 -35.9123 -35.8796
   -35.8615 -35.8194 -35.7663 -35.7437 -35.7303 -35.7089 -35.7005 -35.6991
   -13.1275  -4.8107  -2.4898  -1.8628  -1.5133  -1.4809  -1.3810  -0.9817
    -0.9437  -0.8888  -0.8574  -0.7217  -0.5895  -0.5579  -0.4927  -0.4521
    -0.4519  -0.3670  -0.2585   0.0635   0.0917   0.2724   0.4173   0.4789
     0.5666   0.5766   0.6068   0.6424   0.7465   0.8069   0.8311   0.9118
     1.0990   1.1308   1.4917   1.5230   1.6122   1.8212   1.8327   1.9192
     2.0101   2.2269   2.3286   2.5685   2.6132   2.6244   3.1412   3.2372
     3.2518   3.3707   3.4068   3.6647   3.7332   4.1066   4.3654

          k = 0.0608-0.0702 0.0000 ( 16203 PWs)   bands (ev):

   -64.2727 -64.2298 -64.1948 -64.1625 -64.1446 -64.1258 -64.1050 -64.0356
   -64.0052 -63.9827 -63.9518 -63.9168 -36.6870 -36.6183 -36.5807 -36.5666
   -36.5367 -36.5292 -36.4758 -36.4114 -36.3516 -36.3058 -36.2997 -36.2723
   -36.2268 -36.1595 -36.1328 -36.0999 -36.0712 -36.0341 -36.0190 -36.0005
   -35.9822 -35.9754 -35.9513 -35.9420 -35.9308 -35.9056 -35.8864 -35.8728
   -35.8494 -35.8222 -35.7899 -35.7561 -35.7292 -35.7004 -35.6739 -35.6418
   -13.1324  -4.8665  -2.5418  -2.0327  -1.8722  -1.6236  -1.3562  -1.3276
    -1.2488  -1.1042  -0.9837  -0.9031  -0.8792  -0.8258  -0.5957  -0.5750
    -0.4272  -0.3011  -0.1504   0.0318   0.1372   0.2235   0.3344   0.4646
     0.5890   0.6207   0.7219   0.8931   1.0575   1.1120   1.2325   1.3099
     1.3833   1.4752   1.5695   1.6306   1.7311   1.8619   2.0281   2.0815
     2.1055   2.2438   2.3041   2.5125   2.7513   2.8847   2.9711   3.0446
     3.2150   3.2953   3.3589   3.5272   3.8053   3.9200   4.0228

          k =-0.0912 0.0526 0.0000 ( 16164 PWs)   bands (ev):

   -64.2646 -64.2473 -64.1808 -64.1559 -64.1530 -64.1316 -64.1020 -64.0264
   -64.0225 -63.9654 -63.9610 -63.9168 -36.6884 -36.6105 -36.6089 -36.5820
   -36.5387 -36.5377 -36.4028 -36.3729 -36.3692 -36.3207 -36.3027 -36.2938
   -36.2676 -36.1337 -36.0908 -36.0611 -36.0437 -36.0431 -36.0235 -36.0122
   -35.9875 -35.9839 -35.9653 -35.9391 -35.9309 -35.9263 -35.9142 -35.9129
   -35.8473 -35.8184 -35.7932 -35.7712 -35.7329 -35.6737 -35.6496 -35.6375
   -13.1324  -4.8697  -2.5698  -1.9949  -1.8103  -1.7838  -1.4153  -1.3379
    -1.2883  -1.0868  -1.0570  -0.9375  -0.7865  -0.6567  -0.5882  -0.5759
    -0.4238  -0.3363  -0.3076   0.0718   0.1953   0.2954   0.3722   0.4223
     0.5467   0.6140   0.8963   1.0264   1.1661   1.1872   1.4568   1.5136
     1.5584   1.5727   1.5948   1.6459   1.6868   1.7792   1.8547   1.8697
     1.9693   2.2358   2.2615   2.7191   2.7501   2.8280   2.8701   3.0912
     3.1465   3.2856   3.3510   3.4662   3.5858   3.6371   3.8864

          k =-0.0912 0.0877 0.0000 ( 16203 PWs)   bands (ev):

   -64.2727 -64.2298 -64.1948 -64.1625 -64.1446 -64.1258 -64.1050 -64.0356
   -64.0052 -63.9827 -63.9518 -63.9168 -36.6870 -36.6183 -36.5807 -36.5666
   -36.5367 -36.5292 -36.4758 -36.4114 -36.3516 -36.3058 -36.2997 -36.2723
   -36.2268 -36.1595 -36.1328 -36.0999 -36.0713 -36.0341 -36.0190 -36.0005
   -35.9822 -35.9754 -35.9512 -35.9420 -35.9308 -35.9056 -35.8864 -35.8728
   -35.8494 -35.8222 -35.7899 -35.7561 -35.7292 -35.7004 -35.6739 -35.6418
   -13.1324  -4.8665  -2.5418  -2.0327  -1.8722  -1.6236  -1.3562  -1.3276
    -1.2488  -1.1042  -0.9837  -0.9031  -0.8792  -0.8258  -0.5957  -0.5750
    -0.4272  -0.3011  -0.1504   0.0318   0.1372   0.2235   0.3344   0.4646
     0.5890   0.6206   0.7219   0.8931   1.0575   1.1120   1.2325   1.3099
     1.3833   1.4752   1.5695   1.6306   1.7311   1.8619   2.0281   2.0815
     2.1055   2.2438   2.3041   2.5125   2.7513   2.8847   2.9711   3.0446
     3.2150   3.2953   3.3589   3.5272   3.8053   3.9200   4.0229

          k =-0.0912 0.1228 0.0000 ( 16203 PWs)   bands (ev):

   -64.2727 -64.2298 -64.1948 -64.1625 -64.1446 -64.1258 -64.1050 -64.0356
   -64.0052 -63.9827 -63.9518 -63.9168 -36.6870 -36.6183 -36.5807 -36.5666
   -36.5367 -36.5292 -36.4758 -36.4114 -36.3516 -36.3058 -36.2997 -36.2723
   -36.2268 -36.1595 -36.1328 -36.0999 -36.0713 -36.0341 -36.0190 -36.0005
   -35.9822 -35.9754 -35.9513 -35.9420 -35.9308 -35.9056 -35.8864 -35.8728
   -35.8494 -35.8222 -35.7899 -35.7561 -35.7292 -35.7004 -35.6739 -35.6418
   -13.1324  -4.8665  -2.5418  -2.0327  -1.8722  -1.6236  -1.3562  -1.3276
    -1.2488  -1.1042  -0.9837  -0.9031  -0.8792  -0.8258  -0.5957  -0.5750
    -0.4272  -0.3011  -0.1504   0.0318   0.1372   0.2235   0.3344   0.4646
     0.5890   0.6206   0.7219   0.8931   1.0575   1.1120   1.2325   1.3099
     1.3833   1.4752   1.5695   1.6306   1.7312   1.8619   2.0281   2.0815
     2.1055   2.2438   2.3041   2.5125   2.7513   2.8847   2.9711   3.0446
     3.2150   3.2953   3.3589   3.5272   3.8052   3.9200   4.0229

          k =-0.0912-0.0526 0.0000 ( 16164 PWs)   bands (ev):

   -64.2646 -64.2473 -64.1808 -64.1559 -64.1530 -64.1316 -64.1020 -64.0264
   -64.0225 -63.9653 -63.9610 -63.9168 -36.6884 -36.6105 -36.6089 -36.5820
   -36.5387 -36.5377 -36.4028 -36.3729 -36.3692 -36.3207 -36.3027 -36.2938
   -36.2676 -36.1337 -36.0908 -36.0611 -36.0437 -36.0431 -36.0235 -36.0122
   -35.9875 -35.9839 -35.9653 -35.9391 -35.9309 -35.9263 -35.9142 -35.9129
   -35.8473 -35.8183 -35.7932 -35.7712 -35.7329 -35.6737 -35.6496 -35.6375
   -13.1324  -4.8697  -2.5698  -1.9949  -1.8103  -1.7838  -1.4153  -1.3379
    -1.2883  -1.0868  -1.0570  -0.9375  -0.7865  -0.6567  -0.5882  -0.5759
    -0.4238  -0.3363  -0.3076   0.0718   0.1954   0.2954   0.3722   0.4223
     0.5467   0.6139   0.8963   1.0264   1.1661   1.1872   1.4568   1.5136
     1.5584   1.5727   1.5948   1.6459   1.6868   1.7792   1.8547   1.8697
     1.9693   2.2358   2.2615   2.7191   2.7500   2.8280   2.8701   3.0912
     3.1465   3.2856   3.3510   3.4662   3.5858   3.6371   3.8864

     the Fermi energy is     2.9565 ev

!    total energy              =   -2125.01273095 Ry
     Harris-Foulkes estimate   =   -2125.01273084 Ry
     estimated scf accuracy    <       0.00000005 Ry

     The total energy is the sum of the following terms:

     one-electron contribution =  -19415.46515333 Ry
     hartree contribution      =    9711.55695566 Ry
     xc contribution           =    -403.56859349 Ry
     ewald contribution        =    7982.55024857 Ry
     electric field correction =       0.00026004 Ry
     smearing contrib. (-TS)   =      -0.08644840 Ry

     convergence has been achieved in  11 iterations
 
 BEEF-vdW xc energy contributions
           1 :   -353.513973232273     
           2 :    325.041647895865     
           3 :   -274.396071756020     
           4 :    211.710607394082     
           5 :   -147.799527312889     
           6 :    91.2060716997275     
           7 :   -46.5464160570463     
           8 :    14.3639837813865     
           9 :    7.64477565913046     
          10 :   -22.7975027567714     
          11 :    33.7464695969392     
          12 :   -41.5950273760009     
          13 :    45.9360759249915     
          14 :   -45.6311174907072     
          15 :    39.8413282696809     
          16 :   -28.8428963359419     
          17 :    14.2753567762015     
          18 :    1.21446638412141     
          19 :   -14.7538202208418     
          20 :    24.0907983762214     
          21 :   -28.1734192913252     
          22 :    27.2528431715779     
          23 :   -22.5395793869004     
          24 :    15.6065706177567     
          25 :   -7.83407232426413     
          26 :   0.115174078473899     
          27 :    7.11133244012575     
          28 :   -13.6086017163573     
          29 :    19.0552728682592     
          30 :   -22.9099365996226     
          31 :   -33.7511618435673     
          32 :   -24.7842707340448     

     Forces acting on atoms (Ry/au):


     negative rho (up, down):  1.586E+00 0.000E+00
     atom    1 type  1   force =     0.00078756    0.00045377    0.02255743
     atom    2 type  1   force =    -0.00078781    0.00045342    0.02255114
     atom    3 type  1   force =     0.00000007   -0.00090698    0.02255296
     atom    4 type  1   force =     0.00000019    0.00000103    0.02586512
     atom    5 type  1   force =    -0.00000189   -0.00199448   -0.02549324
     atom    6 type  1   force =    -0.00000008    0.00000054   -0.01678744
     atom    7 type  1   force =     0.00173191    0.00099605   -0.02549561
     atom    8 type  1   force =    -0.00173298    0.00099476   -0.02549529
     atom    9 type  1   force =    -0.00000262   -0.00000291   -0.00025673
     atom   10 type  1   force =     0.00000312   -0.00021130    0.00046843
     atom   11 type  1   force =    -0.00018255    0.00011003    0.00047432
     atom   12 type  1   force =     0.00018418    0.00010715    0.00047661
     atom   13 type  2   force =     0.00000078   -0.00000121   -0.00104831
     atom   14 type  3   force =     0.00000012    0.00000013   -0.00036940

     Total force =     0.001452     Total SCF correction =     0.000518
     SCF correction compared to forces is large: reduce conv_thr to get better values


     entering subroutine stress ...


     negative rho (up, down):  1.586E+00 0.000E+00
          total   stress  (Ry/bohr**3)                   (kbar)     P=  -20.14
  -0.00015019  -0.00000000   0.00000000        -22.09     -0.00      0.00
  -0.00000000  -0.00015019  -0.00000000         -0.00    -22.09     -0.00
   0.00000000  -0.00000000  -0.00011039          0.00     -0.00    -16.24


     bfgs converged in  12 scf cycles and  11 bfgs steps
     (criteria: energy <  1.0E+00, force <  1.9E-03)

     End of BFGS Geometry Optimization

     Final energy   =   -2125.0127309480 Ry
Begin final coordinates

ATOMIC_POSITIONS (crystal)
Tc1      0.166666667   0.166666667   0.408540475    0   0   0
Tc1      0.666666667   0.166666667   0.408540475    0   0   0
Tc1      0.166666667   0.666666667   0.408540475    0   0   0
Tc1      0.666666667   0.666666667   0.408540475    0   0   0
Tc1      0.833333333   0.333333333   0.500000000    0   0   0
Tc1      0.333333333   0.333333333   0.500000000    0   0   0
Tc1      0.833333333   0.833333333   0.500000000    0   0   0
Tc1      0.333333333   0.833333333   0.500000000    0   0   0
Tc1      0.000000565   0.000000578   0.585905474
Tc1      0.506790914  -0.013583724   0.589669245
Tc1     -0.013583188   0.506790928   0.589669357
Tc1      0.506790388   0.506790741   0.589668797
N1       0.333332675   0.333333560   0.639205046
H1       0.333333971   0.333333498   0.680962467
End final coordinates



     Writing output data file calc.save
 
     init_run     :      4.65s CPU      5.63s WALL (       1 calls)
     electrons    :   1949.57s CPU   2642.92s WALL (      12 calls)
     update_pot   :     19.66s CPU     23.75s WALL (      11 calls)
     forces       :     62.54s CPU     65.75s WALL (      12 calls)
     stress       :    167.92s CPU    179.39s WALL (      12 calls)

     Called by init_run:
     wfcinit      :      1.98s CPU      2.50s WALL (       1 calls)
     potinit      :      0.98s CPU      1.30s WALL (       1 calls)

     Called by electrons:
     c_bands      :   1149.09s CPU   1574.84s WALL (     197 calls)
     sum_band     :    285.00s CPU    365.27s WALL (     197 calls)
     v_of_rho     :    176.25s CPU    296.15s WALL (     209 calls)
     newd         :    171.68s CPU    189.29s WALL (     209 calls)
     mix_rho      :      3.66s CPU      4.68s WALL (     197 calls)
     vdW_energy   :     62.66s CPU     67.57s WALL (     641 calls)
     vdW_ffts     :     71.31s CPU    105.87s WALL (    1306 calls)
     vdW_v        :     36.83s CPU     44.11s WALL (     641 calls)

     Called by c_bands:
     init_us_2    :      5.98s CPU      6.58s WALL (    2933 calls)
     cegterg      :    922.09s CPU   1119.62s WALL (    1379 calls)

     Called by *egterg:
     h_psi        :    437.76s CPU    597.10s WALL (    6807 calls)
     s_psi        :     54.94s CPU     55.90s WALL (    6807 calls)
     g_psi        :      5.41s CPU      5.45s WALL (    5421 calls)
     cdiaghg      :    221.47s CPU    223.52s WALL (    6723 calls)

     Called by h_psi:
     add_vuspsi   :     56.29s CPU     57.14s WALL (    6807 calls)

     General routines
     calbec       :     80.53s CPU     87.51s WALL (    8354 calls)
     fft          :    109.04s CPU    165.82s WALL (   39041 calls)
     ffts         :      0.27s CPU      0.38s WALL (     406 calls)
     fftw         :    311.42s CPU    498.44s WALL (  879613 calls)
     interpolate  :      1.52s CPU      2.55s WALL (     406 calls)
     davcio       :      0.00s CPU      0.14s WALL (       7 calls)
 
     Parallel routines
     fft_scatter  :    209.52s CPU    381.67s WALL (  919060 calls)
 
     PWSCF        : 36m58.99s CPU    48m58.86s WALL

 
   This run was terminated on:  14: 7:59  23Apr2018            

=------------------------------------------------------------------------------=
   JOB DONE.
=------------------------------------------------------------------------------=
Job  /afs/slac/g/suncat/bin/suncat-tsmpirun -x LD_LIBRARY_PATH -wdir /scratch/qe15503_ugsKK pw.x -npool 3 -in pw.inp

TID   HOST_NAME   COMMAND_LINE            STATUS            TERMINATION_TIME
===== ========== ================  =======================  ===================
00000 suncat2065 pw.x -npool 3 -i  Done                     04/23/2018 14:07:59
00001 suncat2065 pw.x -npool 3 -i  Done                     04/23/2018 14:07:59
00002 suncat2065 pw.x -npool 3 -i  Done                     04/23/2018 14:07:59
00003 suncat2065 pw.x -npool 3 -i  Done                     04/23/2018 14:07:59
00004 suncat2043 pw.x -npool 3 -i  Done                     04/23/2018 14:07:59
00005 suncat2043 pw.x -npool 3 -i  Done                     04/23/2018 14:07:59
00006 suncat2043 pw.x -npool 3 -i  Done                     04/23/2018 14:07:59
00007 suncat2043 pw.x -npool 3 -i  Done                     04/23/2018 14:07:59
00008 suncat2043 pw.x -npool 3 -i  Done                     04/23/2018 14:07:59
00009 suncat2043 pw.x -npool 3 -i  Done                     04/23/2018 14:07:59
00010 suncat2043 pw.x -npool 3 -i  Done                     04/23/2018 14:07:59
00011 suncat2043 pw.x -npool 3 -i  Done                     04/23/2018 14:07:59
00012 suncat2043 pw.x -npool 3 -i  Done                     04/23/2018 14:07:59
00013 suncat2043 pw.x -npool 3 -i  Done                     04/23/2018 14:07:59
00014 suncat2043 pw.x -npool 3 -i  Done                     04/23/2018 14:07:59
00015 suncat2043 pw.x -npool 3 -i  Done                     04/23/2018 14:07:59
00016 suncat2043 pw.x -npool 3 -i  Done                     04/23/2018 14:07:59
00017 suncat2043 pw.x -npool 3 -i  Done                     04/23/2018 14:07:59
00018 suncat2043 pw.x -npool 3 -i  Done                     04/23/2018 14:07:59
00019 suncat2043 pw.x -npool 3 -i  Done                     04/23/2018 14:07:59
00020 suncat2013 pw.x -npool 3 -i  Done                     04/23/2018 14:07:59
00021 suncat2013 pw.x -npool 3 -i  Done                     04/23/2018 14:07:59
00022 suncat2013 pw.x -npool 3 -i  Done                     04/23/2018 14:07:59
00023 suncat2013 pw.x -npool 3 -i  Done                     04/23/2018 14:07:59
00024 suncat2013 pw.x -npool 3 -i  Done                     04/23/2018 14:07:59
00025 suncat2013 pw.x -npool 3 -i  Done                     04/23/2018 14:07:59
00026 suncat2013 pw.x -npool 3 -i  Done                     04/23/2018 14:07:59
00027 suncat2013 pw.x -npool 3 -i  Done                     04/23/2018 14:07:59
00028 suncat2013 pw.x -npool 3 -i  Done                     04/23/2018 14:07:59
00029 suncat2013 pw.x -npool 3 -i  Done                     04/23/2018 14:07:59
00030 suncat2013 pw.x -npool 3 -i  Done                     04/23/2018 14:07:59
00031 suncat2013 pw.x -npool 3 -i  Done                     04/23/2018 14:07:59
00032 suncat2013 pw.x -npool 3 -i  Done                     04/23/2018 14:07:59
00033 suncat2013 pw.x -npool 3 -i  Done                     04/23/2018 14:07:59
00034 suncat2013 pw.x -npool 3 -i  Done                     04/23/2018 14:07:59
00035 suncat2013 pw.x -npool 3 -i  Done                     04/23/2018 14:07:59
