  python dir          : /nfs/slac/g/suncatfs/sw/espv20/lib/python2.7/site-packages/espresso
  espresso dir        : /nfs/slac/g/suncatfs/sw/espv18/espresso-dynpy-beef/bin
  pseudo dir          : /afs/slac.stanford.edu/u/if/mamunm/psp/gbrv1.5pbe
  ase-espresso py git : ffa2778-git



     Program PWSCF v.5.1rc2 (svn rev. 11289) starts on 13Jan2018 at 20:45: 5 

     This program is part of the open-source Quantum ESPRESSO suite
     for quantum simulation of materials; please cite
         "P. Giannozzi et al., J. Phys.:Condens. Matter 21 395502 (2009);
          URL http://www.quantum-espresso.org", 
     in publications or presentations arising from this work. More details at
     http://www.quantum-espresso.org/quote

     Parallel version (MPI), running on    32 processors
     R & G space division:  proc/nbgrp/npool/nimage =      32
     Reading input from pw.inp
     Message from routine read_cards :
     DEPRECATED: no units specified in CELL_PARAMETERS card

     Current dimensions of program PWSCF are:
     Max number of different atomic species (ntypx) = 10
     Max number of k-points (npk) =  40000
     Max angular momentum in pseudopotentials (lmaxx) =  3
     Presently stress not available with electric field


     **************************************************************************
     Initializing libbeef V0.1.1 with the BEEF-vdW functional.
     Citation: Wellendorff et al., PRB 85, 235149 (2012).
     **************************************************************************


     IMPORTANT: XC functional enforced from input :
     Exchange-correlation      = BEEF-VDW ( 1  4 27 13 2)
     Any further DFT definition will be discarded
     Please, verify this is what you really want


     Subspace diagonalization in iterative solution of the eigenvalue problem:
     a serial algorithm will be used

 
     Parallelization info
     --------------------
     sticks:   dense  smooth     PW     G-vecs:    dense   smooth      PW
     Min          84      33      9                15972     4017     623
     Max          85      34     10                16001     4054     650
     Sum        2713    1069    313               511711   129131   20509
 


     bravais-lattice index     =            0
     lattice parameter (alat)  =       1.8897  a.u.
     unit-cell volume          =    4299.0717 (a.u.)^3
     number of atoms/cell      =           13
     number of atomic types    =            2
     number of electrons       =       181.00
     number of Kohn-Sham states=          100
     kinetic-energy cutoff     =      36.7493  Ry
     charge density cutoff     =     367.4932  Ry
     convergence threshold     =      1.0E-05
     mixing beta               =       0.3000
     number of iterations used =           10  plain     mixing
     Exchange-correlation      = BEEF-VDW ( 1  4 27 13 2)
     nstep                     =           50


     celldm(1)=   1.889726  celldm(2)=   0.000000  celldm(3)=   0.000000
     celldm(4)=   0.000000  celldm(5)=   0.000000  celldm(6)=   0.000000

     crystal axes: (cart. coord. in units of alat)
               a(1) = (   5.482164   0.000000   0.000000 )  
               a(2) = (   2.741082   4.747693   0.000000 )  
               a(3) = (   0.000000   0.000000  24.476168 )  

     reciprocal axes: (cart. coord. in units 2 pi/alat)
               b(1) = (  0.182410 -0.105314  0.000000 )  
               b(2) = (  0.000000  0.210629  0.000000 )  
               b(3) = (  0.000000  0.000000  0.040856 )  


     PseudoPot. # 1 for Ir read from file:
     /afs/slac.stanford.edu/u/if/mamunm/psp/gbrv1.5pbe/Ir.UPF
     MD5 check sum: 8836f839c3459d2b385c504ce6d91f2c
     Pseudo is Ultrasoft + core correction, Zval = 15.0
     Generated by new atomic code, or converted to UPF format
     Using radial grid of  983 points,  7 beta functions with: 
                l(1) =   0
                l(2) =   0
                l(3) =   1
                l(4) =   1
                l(5) =   1
                l(6) =   2
                l(7) =   2
     Q(r) pseudized with  8 coefficients,  rinner =    1.400   1.400   1.400
                                                       1.400   1.400

     PseudoPot. # 2 for H  read from file:
     /afs/slac.stanford.edu/u/if/mamunm/psp/gbrv1.5pbe/H.UPF
     MD5 check sum: 761ae9a214b05c3daf00ab9f6b793d6f
     Pseudo is Ultrasoft, Zval =  1.0
     Generated by new atomic code, or converted to UPF format
     Using radial grid of  615 points,  2 beta functions with: 
                l(1) =   0
                l(2) =   0
     Q(r) pseudized with  8 coefficients,  rinner =    0.700

     vdW kernel table read from file vdW_kernel_table
     MD5 check sum: 095c7af220d748ca6e76c0b4c6cfb241

     atomic species   valence    mass     pseudopotential
        Ir1           15.00   192.21700     Ir( 1.00)
        H1             1.00     1.00800     H ( 1.00)

     No symmetry found



   Cartesian axes

     site n.     atom                  positions (alat units)
         1           Ir1 tau(   1) = (   1.3705410   0.7912822  10.0000000  )
         2           Ir1 tau(   2) = (   4.1116229   0.7912822  10.0000000  )
         3           Ir1 tau(   3) = (   2.7410819   3.1651288  10.0000000  )
         4           Ir1 tau(   4) = (   5.4821639   3.1651288  10.0000000  )
         5           Ir1 tau(   5) = (   5.4821639   1.5825644  12.2380840  )
         6           Ir1 tau(   6) = (   2.7410819   1.5825644  12.2380840  )
         7           Ir1 tau(   7) = (   6.8527049   3.9564110  12.2380840  )
         8           Ir1 tau(   8) = (   4.1116229   3.9564110  12.2380840  )
         9           Ir1 tau(   9) = (   0.0000000   0.0000000  14.4761681  )
        10           Ir1 tau(  10) = (   2.7410819   0.0000000  14.4761681  )
        11           Ir1 tau(  11) = (   1.3705410   2.3738466  14.4761681  )
        12           Ir1 tau(  12) = (   4.1116229   2.3738466  14.4761681  )
        13           H1  tau(  13) = (   0.0000000   0.0000000  16.1961681  )

     number of k points=    20  Fermi-Dirac smearing, width (Ry)=  0.0110
                       cart. coord. in units 2pi/alat
        k(    1) = (   0.0000000   0.0000000   0.0000000), wk =   0.0555556
        k(    2) = (   0.0000000   0.0351048   0.0000000), wk =   0.1111111
        k(    3) = (   0.0000000   0.0702095   0.0000000), wk =   0.1111111
        k(    4) = (   0.0000000  -0.1053143   0.0000000), wk =   0.0555556
        k(    5) = (   0.0304016  -0.0175524   0.0000000), wk =   0.1111111
        k(    6) = (   0.0304016   0.0175524   0.0000000), wk =   0.1111111
        k(    7) = (   0.0304016   0.0526572   0.0000000), wk =   0.1111111
        k(    8) = (   0.0304016  -0.1228667   0.0000000), wk =   0.1111111
        k(    9) = (   0.0304016  -0.0877619   0.0000000), wk =   0.1111111
        k(   10) = (   0.0304016  -0.0526572   0.0000000), wk =   0.1111111
        k(   11) = (   0.0608032  -0.0351048   0.0000000), wk =   0.1111111
        k(   12) = (   0.0608032   0.0000000   0.0000000), wk =   0.1111111
        k(   13) = (   0.0608032   0.0351048   0.0000000), wk =   0.1111111
        k(   14) = (   0.0608032  -0.1404191   0.0000000), wk =   0.1111111
        k(   15) = (   0.0608032  -0.1053143   0.0000000), wk =   0.1111111
        k(   16) = (   0.0608032  -0.0702095   0.0000000), wk =   0.1111111
        k(   17) = (  -0.0912049   0.0526572   0.0000000), wk =   0.0555556
        k(   18) = (  -0.0912049   0.0877619   0.0000000), wk =   0.1111111
        k(   19) = (  -0.0912049   0.1228667   0.0000000), wk =   0.1111111
        k(   20) = (  -0.0912049  -0.0526572   0.0000000), wk =   0.0555556

     Dense  grid:   511711 G-vectors     FFT dimensions: (  64,  64, 288)

     Smooth grid:   129131 G-vectors     FFT dimensions: (  40,  40, 180)

     Largest allocated arrays     est. size (Mb)     dimensions
        Kohn-Sham Wavefunctions         0.79 Mb     (     515,  100)
        NL pseudopotentials             2.00 Mb     (     515,  254)
        Each V/rho on FFT grid          0.56 Mb     (   36864)
        Each G-vector array             0.12 Mb     (   16001)
        G-vector shells                 0.06 Mb     (    7228)
     Largest temporary arrays     est. size (Mb)     dimensions
        Auxiliary wavefunctions         3.14 Mb     (     515,  400)
        Each subspace H/S matrix        2.44 Mb     (     400,  400)
        Each <psi_i|beta_j> matrix      0.39 Mb     (     254,  100)
        Arrays for rho mixing           5.62 Mb     (   36864,   10)

     Initial potential from superposition of free atoms
     Check: negative starting charge=   -4.361677

     starting charge  174.99961, renormalised to  181.00000

     negative rho (up, down):  4.511E+00 0.000E+00


     ************************************************************************
     *
     * You are using vdW-DF for exchange-correlation in this calculation.
     * Please cite the following three references that made this development
     * possible:
     *
     *   M. Dion, H. Rydberg, E. Schroder, D. C. Langreth, and
     *   B. I. Lundqvist, Phys. Rev. Lett. 92, 246401 (2004).
     *
     *   T. Thonhauser, V. R. Cooper, S. Li, A. Puzder, P. Hyldgaard, and
     *   D. C. Langreth, Phys. Rev. B 76, 125112 (2007).
     *
     *   G. Roman-Perez and J. M. Soler, Phys. Rev. Lett. 103, 096102 (2009).
     *
     *
     * If you are using vdW-DF2, please also cite:
     *
     *   K. Lee, E. D. Murray, L. Kong, B. I. Lundqvist, and
     *   D. C. Langreth, Phys. Rev. B 82, 081101(R) (2010).
     *
     *
     * If you are calculating the stress with vdW-DF, please also cite:
     *
     *   R. Sabatini, E. Kucukbenli, B. Kolb, T. Thonhauser, and
     *   S. de Gironcoli, J. Phys.: Condens. Matter 24, 424209 (2012).
     *
     ************************************************************************

     Carrying out vdW-DF run using the following parameters:

     Nqs =      20    Nr_points =    1024   r_max =   100.000
     q_mesh =
               0.00001000     0.04494208     0.09755937     0.15916263
               0.23128650     0.31572767     0.41458969     0.53033537
               0.66584808     0.82450364     1.01025438     1.22772762
               1.48234092     1.78043706     2.12944203     2.53805004
               3.01644009     3.57652955     4.23227104     5.00000000

     Gradients computed in reciprocal space

     ************************************************************************


 
     Adding external electric field

     Computed dipole along edir(3) : 
        Dipole               -0.2564 Ry au,         -0.6517 Debye
        Dipole field         -0.0007 Ry au
 
        Potential amp.        0.0676 Ry
        Total length         45.0969 bohr
 
     Starting wfc are  145 randomized atomic wfcs

     total cpu time spent up to now is       17.6 secs

     per-process dynamical memory:    45.6 Mb

     Self-consistent Calculation

     iteration #  1     ecut=    36.75 Ry     beta=0.30
     Davidson diagonalization with overlap
     ethr =  1.00E-02,  avg # of iterations =  2.1

     negative rho (up, down):  4.168E+00 0.000E+00
 
     Adding external electric field

     Computed dipole along edir(3) : 
        Dipole                3.3987 Ry au,          8.6386 Debye
        Dipole field          0.0099 Ry au
 
        Potential amp.       -0.8960 Ry
        Total length         45.0969 bohr
 

     total cpu time spent up to now is       49.1 secs

     total energy              =   -2197.55369933 Ry
     Harris-Foulkes estimate   =   -2204.09169598 Ry
     estimated scf accuracy    <      15.40262923 Ry

     iteration #  2     ecut=    36.75 Ry     beta=0.30
     Davidson diagonalization with overlap
     ethr =  8.51E-03,  avg # of iterations =  6.1

     negative rho (up, down):  4.159E+00 0.000E+00
 
     Adding external electric field

     Computed dipole along edir(3) : 
        Dipole               -1.6000 Ry au,         -4.0669 Debye
        Dipole field         -0.0047 Ry au
 
        Potential amp.        0.4218 Ry
        Total length         45.0969 bohr
 

     total cpu time spent up to now is       95.9 secs

     total energy              =   -2189.36843382 Ry
     Harris-Foulkes estimate   =   -2213.27579144 Ry
     estimated scf accuracy    <     424.47889070 Ry

     iteration #  3     ecut=    36.75 Ry     beta=0.30
     Davidson diagonalization with overlap
     ethr =  8.51E-03,  avg # of iterations =  5.3

     negative rho (up, down):  4.129E+00 0.000E+00
 
     Adding external electric field

     Computed dipole along edir(3) : 
        Dipole                0.3495 Ry au,          0.8883 Debye
        Dipole field          0.0010 Ry au
 
        Potential amp.       -0.0921 Ry
        Total length         45.0969 bohr
 

     total cpu time spent up to now is      143.4 secs

     total energy              =   -2195.84753436 Ry
     Harris-Foulkes estimate   =   -2204.89906257 Ry
     estimated scf accuracy    <     171.94461746 Ry

     iteration #  4     ecut=    36.75 Ry     beta=0.30
     Davidson diagonalization with overlap
     ethr =  8.51E-03,  avg # of iterations =  4.8

     negative rho (up, down):  4.046E+00 0.000E+00
 
     Adding external electric field

     Computed dipole along edir(3) : 
        Dipole               -0.0002 Ry au,         -0.0006 Debye
        Dipole field         -0.0000 Ry au
 
        Potential amp.        0.0001 Ry
        Total length         45.0969 bohr
 

     total cpu time spent up to now is      182.2 secs

     total energy              =   -2200.16132144 Ry
     Harris-Foulkes estimate   =   -2202.24115902 Ry
     estimated scf accuracy    <      20.86864210 Ry

     iteration #  5     ecut=    36.75 Ry     beta=0.30
     Davidson diagonalization with overlap
     ethr =  8.51E-03,  avg # of iterations =  1.1

     negative rho (up, down):  3.935E+00 0.000E+00
 
     Adding external electric field

     Computed dipole along edir(3) : 
        Dipole               -0.1041 Ry au,         -0.2646 Debye
        Dipole field         -0.0003 Ry au
 
        Potential amp.        0.0274 Ry
        Total length         45.0969 bohr
 

     total cpu time spent up to now is      209.3 secs

     total energy              =   -2200.72180576 Ry
     Harris-Foulkes estimate   =   -2200.97039854 Ry
     estimated scf accuracy    <       2.40531839 Ry

     iteration #  6     ecut=    36.75 Ry     beta=0.30
     Davidson diagonalization with overlap
     ethr =  1.33E-03,  avg # of iterations =  4.5

     negative rho (up, down):  3.918E+00 0.000E+00
 
     Adding external electric field

     Computed dipole along edir(3) : 
        Dipole               -0.0414 Ry au,         -0.1053 Debye
        Dipole field         -0.0001 Ry au
 
        Potential amp.        0.0109 Ry
        Total length         45.0969 bohr
 

     total cpu time spent up to now is      243.6 secs

     total energy              =   -2200.91480920 Ry
     Harris-Foulkes estimate   =   -2201.03433419 Ry
     estimated scf accuracy    <       3.30936809 Ry

     iteration #  7     ecut=    36.75 Ry     beta=0.30
     Davidson diagonalization with overlap
     ethr =  1.33E-03,  avg # of iterations =  1.1

     negative rho (up, down):  3.911E+00 0.000E+00
 
     Adding external electric field

     Computed dipole along edir(3) : 
        Dipole                0.0096 Ry au,          0.0244 Debye
        Dipole field          0.0000 Ry au
 
        Potential amp.       -0.0025 Ry
        Total length         45.0969 bohr
 

     total cpu time spent up to now is      270.7 secs

     total energy              =   -2200.92612788 Ry
     Harris-Foulkes estimate   =   -2200.97548502 Ry
     estimated scf accuracy    <       0.45238432 Ry

     iteration #  8     ecut=    36.75 Ry     beta=0.30
     Davidson diagonalization with overlap
     ethr =  2.50E-04,  avg # of iterations =  4.5

     negative rho (up, down):  3.899E+00 0.000E+00
 
     Adding external electric field

     Computed dipole along edir(3) : 
        Dipole                0.0161 Ry au,          0.0410 Debye
        Dipole field          0.0000 Ry au
 
        Potential amp.       -0.0043 Ry
        Total length         45.0969 bohr
 

     total cpu time spent up to now is      302.4 secs

     total energy              =   -2200.95680242 Ry
     Harris-Foulkes estimate   =   -2200.96603274 Ry
     estimated scf accuracy    <       0.48560001 Ry

     iteration #  9     ecut=    36.75 Ry     beta=0.30
     Davidson diagonalization with overlap
     ethr =  2.50E-04,  avg # of iterations =  1.0

     negative rho (up, down):  3.886E+00 0.000E+00
 
     Adding external electric field

     Computed dipole along edir(3) : 
        Dipole                0.0141 Ry au,          0.0357 Debye
        Dipole field          0.0000 Ry au
 
        Potential amp.       -0.0037 Ry
        Total length         45.0969 bohr
 

     total cpu time spent up to now is      329.7 secs

     total energy              =   -2200.95636166 Ry
     Harris-Foulkes estimate   =   -2200.96437917 Ry
     estimated scf accuracy    <       0.17510442 Ry

     iteration # 10     ecut=    36.75 Ry     beta=0.30
     Davidson diagonalization with overlap
     ethr =  9.67E-05,  avg # of iterations =  1.4

     negative rho (up, down):  3.878E+00 0.000E+00
 
     Adding external electric field

     Computed dipole along edir(3) : 
        Dipole                0.0054 Ry au,          0.0138 Debye
        Dipole field          0.0000 Ry au
 
        Potential amp.       -0.0014 Ry
        Total length         45.0969 bohr
 

     total cpu time spent up to now is      357.3 secs

     total energy              =   -2200.95700099 Ry
     Harris-Foulkes estimate   =   -2200.96035372 Ry
     estimated scf accuracy    <       0.03551237 Ry

     iteration # 11     ecut=    36.75 Ry     beta=0.30
     Davidson diagonalization with overlap
     ethr =  1.96E-05,  avg # of iterations =  5.2

     negative rho (up, down):  3.878E+00 0.000E+00
 
     Adding external electric field

     Computed dipole along edir(3) : 
        Dipole               -0.0029 Ry au,         -0.0073 Debye
        Dipole field         -0.0000 Ry au
 
        Potential amp.        0.0008 Ry
        Total length         45.0969 bohr
 

     total cpu time spent up to now is      389.5 secs

     total energy              =   -2200.95875078 Ry
     Harris-Foulkes estimate   =   -2200.95885324 Ry
     estimated scf accuracy    <       0.00355554 Ry

     iteration # 12     ecut=    36.75 Ry     beta=0.30
     Davidson diagonalization with overlap
     ethr =  1.96E-06,  avg # of iterations =  5.1

     negative rho (up, down):  3.878E+00 0.000E+00
 
     Adding external electric field

     Computed dipole along edir(3) : 
        Dipole               -0.0077 Ry au,         -0.0195 Debye
        Dipole field         -0.0000 Ry au
 
        Potential amp.        0.0020 Ry
        Total length         45.0969 bohr
 

     total cpu time spent up to now is      423.8 secs

     total energy              =   -2200.95885454 Ry
     Harris-Foulkes estimate   =   -2200.95895107 Ry
     estimated scf accuracy    <       0.00175151 Ry

     iteration # 13     ecut=    36.75 Ry     beta=0.30
     Davidson diagonalization with overlap
     ethr =  9.68E-07,  avg # of iterations =  1.2

     negative rho (up, down):  3.878E+00 0.000E+00
 
     Adding external electric field

     Computed dipole along edir(3) : 
        Dipole               -0.0046 Ry au,         -0.0118 Debye
        Dipole field         -0.0000 Ry au
 
        Potential amp.        0.0012 Ry
        Total length         45.0969 bohr
 

     total cpu time spent up to now is      451.2 secs

     total energy              =   -2200.95892844 Ry
     Harris-Foulkes estimate   =   -2200.95893589 Ry
     estimated scf accuracy    <       0.00010979 Ry

     iteration # 14     ecut=    36.75 Ry     beta=0.30
     Davidson diagonalization with overlap
     ethr =  6.07E-08,  avg # of iterations =  4.5

     negative rho (up, down):  3.878E+00 0.000E+00
 
     Adding external electric field

     Computed dipole along edir(3) : 
        Dipole               -0.0036 Ry au,         -0.0093 Debye
        Dipole field         -0.0000 Ry au
 
        Potential amp.        0.0010 Ry
        Total length         45.0969 bohr
 

     total cpu time spent up to now is      489.7 secs

     total energy              =   -2200.95894435 Ry
     Harris-Foulkes estimate   =   -2200.95895852 Ry
     estimated scf accuracy    <       0.00078568 Ry

     iteration # 15     ecut=    36.75 Ry     beta=0.30
     Davidson diagonalization with overlap
     ethr =  6.07E-08,  avg # of iterations =  1.0

     negative rho (up, down):  3.878E+00 0.000E+00
 
     Adding external electric field

     Computed dipole along edir(3) : 
        Dipole               -0.0033 Ry au,         -0.0084 Debye
        Dipole field         -0.0000 Ry au
 
        Potential amp.        0.0009 Ry
        Total length         45.0969 bohr
 

     total cpu time spent up to now is      517.1 secs

     total energy              =   -2200.95893605 Ry
     Harris-Foulkes estimate   =   -2200.95895073 Ry
     estimated scf accuracy    <       0.00047931 Ry

     iteration # 16     ecut=    36.75 Ry     beta=0.30
     Davidson diagonalization with overlap
     ethr =  6.07E-08,  avg # of iterations =  3.0

     negative rho (up, down):  3.879E+00 0.000E+00

     negative rho (up, down):  3.879E+00 0.000E+00

     negative rho (up, down):  3.879E+00 0.000E+00

     negative rho (up, down):  3.879E+00 0.000E+00

     negative rho (up, down):  3.879E+00 0.000E+00

     negative rho (up, down):  3.879E+00 0.000E+00

     negative rho (up, down):  3.879E+00 0.000E+00

     negative rho (up, down):  3.879E+00 0.000E+00

     negative rho (up, down):  3.879E+00 0.000E+00

     negative rho (up, down):  3.879E+00 0.000E+00

     negative rho (up, down):  3.879E+00 0.000E+00

     negative rho (up, down):  3.879E+00 0.000E+00

     negative rho (up, down):  3.879E+00 0.000E+00

     negative rho (up, down):  3.879E+00 0.000E+00

     negative rho (up, down):  3.879E+00 0.000E+00

     negative rho (up, down):  3.879E+00 0.000E+00

     negative rho (up, down):  3.879E+00 0.000E+00

     negative rho (up, down):  3.879E+00 0.000E+00

     negative rho (up, down):  3.879E+00 0.000E+00

     negative rho (up, down):  3.879E+00 0.000E+00

     negative rho (up, down):  3.879E+00 0.000E+00

     negative rho (up, down):  3.879E+00 0.000E+00

     negative rho (up, down):  3.879E+00 0.000E+00

     negative rho (up, down):  3.879E+00 0.000E+00

     negative rho (up, down):  3.879E+00 0.000E+00

     negative rho (up, down):  3.879E+00 0.000E+00

     negative rho (up, down):  3.879E+00 0.000E+00

     negative rho (up, down):  3.879E+00 0.000E+00

     negative rho (up, down):  3.879E+00 0.000E+00

     negative rho (up, down):  3.879E+00 0.000E+00

     negative rho (up, down):  3.879E+00 0.000E+00

     negative rho (up, down):  3.879E+00 0.000E+00

     negative rho (up, down):  3.879E+00 0.000E+00

     negative rho (up, down):  3.879E+00 0.000E+00

     negative rho (up, down):  3.879E+00 0.000E+00
 
     Adding external electric field

     Computed dipole along edir(3) : 
        Dipole                0.0080 Ry au,          0.0204 Debye
        Dipole field          0.0000 Ry au
 
        Potential amp.       -0.0021 Ry
        Total length         45.0969 bohr
 

     total cpu time spent up to now is      594.3 secs

     End of self-consistent calculation

          k = 0.0000 0.0000 0.0000 ( 16073 PWs)   bands (ev):

   -47.6891 -47.6883 -47.6775 -47.5471 -47.4665 -47.4624 -47.4611 -47.2773
   -47.2705 -47.2699 -47.1945 -47.1941 -47.1781 -47.1388 -47.1387 -47.1145
   -47.1135 -47.1124 -46.9464 -46.8132 -46.8131 -46.8014 -46.7781 -46.7679
   -46.7665 -46.7623 -46.7522 -46.7503 -46.7266 -46.7135 -46.7131 -46.6649
   -46.6613 -46.6613 -46.6399 -46.6396  -7.1019  -5.1961  -4.8189  -4.5261
    -4.5065  -4.5063  -4.2443  -4.2045  -4.2044  -3.7206  -3.7082  -3.7079
    -3.4260  -3.4184  -3.4181  -2.0259  -1.9493  -1.9488  -1.8870  -1.3837
    -1.3836  -1.3386  -1.1309  -1.0475  -1.0475  -0.5842  -0.5842  -0.5437
    -0.5435  -0.5362  -0.5315  -0.2856  -0.2856   0.0268   0.0275   0.6504
     1.2878   1.2882   1.3196   1.3625   1.3703   1.3708   1.4042   1.4043
     2.0271   2.1298   2.1299   2.7360   2.7367   2.8053   2.8313   2.8313
     2.8448   3.0234   3.0234   3.3656   3.3661   3.3685   3.6105   3.6509
     3.6511   3.8503   3.8507   3.8625

          k = 0.0000 0.0351 0.0000 ( 16131 PWs)   bands (ev):

   -47.6695 -47.6633 -47.6484 -47.5392 -47.4647 -47.4597 -47.4569 -47.2973
   -47.2926 -47.2634 -47.1799 -47.1770 -47.1675 -47.1514 -47.1472 -47.1013
   -47.0989 -47.0898 -46.9435 -46.8339 -46.8156 -46.7959 -46.7950 -46.7856
   -46.7707 -46.7618 -46.7508 -46.7488 -46.7284 -46.7161 -46.7142 -46.6946
   -46.6744 -46.6696 -46.6644 -46.6481  -6.8433  -4.9356  -4.5661  -4.4854
    -4.3061  -4.2914  -4.1257  -4.0579  -4.0332  -3.6458  -3.5890  -3.5821
    -3.2955  -3.1666  -3.1612  -2.0306  -1.9406  -1.9250  -1.8581  -1.3238
    -1.2750  -1.2724  -1.2331  -1.1345  -0.9625  -0.8483  -0.8005  -0.6816
    -0.4769  -0.4377  -0.4340  -0.3630  -0.1313  -0.0772  -0.0351   0.3421
     0.9282   0.9394   1.0442   1.1648   1.2830   1.3034   1.3079   1.3237
     1.4944   2.0409   2.1216   2.1409   2.1732   2.3778   2.5801   2.6113
     2.7337   2.7564   2.7609   2.7653   2.9486   2.9753   3.0346   3.0839
     3.4821   3.4988   3.5109   3.5792

          k = 0.0000 0.0702 0.0000 ( 16137 PWs)   bands (ev):

   -47.6218 -47.6134 -47.5546 -47.5179 -47.4713 -47.4521 -47.4481 -47.3492
   -47.3456 -47.2833 -47.2396 -47.1726 -47.1365 -47.1142 -47.0786 -47.0612
   -47.0557 -47.0188 -46.9392 -46.8846 -46.8447 -46.8414 -46.8329 -46.7936
   -46.7766 -46.7695 -46.7637 -46.7507 -46.7458 -46.7392 -46.7249 -46.7207
   -46.7163 -46.6905 -46.6701 -46.6643  -6.1344  -4.6017  -4.2752  -3.9168
    -3.8845  -3.7548  -3.7412  -3.6780  -3.6352  -3.4541  -3.2114  -3.2002
    -2.9444  -2.5016  -2.4917  -2.1814  -1.9712  -1.9634  -1.7816  -1.6581
    -1.6011  -1.3919  -1.2421  -1.1748  -0.9727  -0.9191  -0.8579  -0.6603
    -0.4350  -0.4004  -0.3933  -0.3105  -0.3048  -0.2856  -0.1016   0.2307
     0.3230   0.3395   0.5137   0.5247   0.6154   0.6221   0.7188   0.8737
     0.9252   1.1216   1.2129   1.2290   1.7048   1.7428   1.7555   2.0193
     2.1018   2.1502   2.1736   2.3011   2.4943   2.6343   2.6454   2.7756
     3.0618   3.1639   3.2770   3.3983

          k = 0.0000-0.1053 0.0000 ( 16164 PWs)   bands (ev):

   -47.5896 -47.5801 -47.4952 -47.4893 -47.4491 -47.4441 -47.4224 -47.4190
   -47.3834 -47.3793 -47.2117 -47.2003 -47.1135 -47.0794 -47.0383 -47.0318
   -46.9966 -46.9413 -46.9129 -46.9084 -46.8936 -46.8849 -46.8793 -46.8633
   -46.8412 -46.7696 -46.7557 -46.7497 -46.7424 -46.7276 -46.7231 -46.7209
   -46.7178 -46.7067 -46.6902 -46.6642  -5.2442  -5.2045  -3.8086  -3.7526
    -3.4656  -3.3907  -3.3614  -3.3576  -3.3475  -3.3402  -2.8335  -2.7722
    -2.4916  -2.4393  -2.2745  -2.2703  -2.1700  -1.9461  -1.9198  -1.9080
    -1.5613  -1.5570  -1.2574  -1.1118  -0.9981  -0.7066  -0.6654  -0.6643
    -0.6603  -0.6052  -0.5818  -0.3566  -0.2984  -0.2798  -0.2720  -0.2590
    -0.2532  -0.1492  -0.1293  -0.1252   0.0972   0.5851   0.5947   0.7816
     0.8834   0.9218   1.0544   1.1549   1.3731   1.4235   1.4465   1.6019
     1.6029   1.9577   1.9724   2.0082   2.0961   2.1220   2.5573   2.7715
     3.0846   3.0962   3.3275   3.4218

          k = 0.0304-0.0176 0.0000 ( 16131 PWs)   bands (ev):

   -47.6688 -47.6641 -47.6482 -47.5392 -47.4651 -47.4583 -47.4579 -47.2978
   -47.2921 -47.2634 -47.1798 -47.1772 -47.1671 -47.1514 -47.1473 -47.1007
   -47.0998 -47.0896 -46.9435 -46.8339 -46.8156 -46.7959 -46.7944 -46.7868
   -46.7707 -46.7611 -46.7520 -46.7476 -46.7284 -46.7164 -46.7139 -46.6946
   -46.6742 -46.6695 -46.6644 -46.6484  -6.8433  -4.9356  -4.5661  -4.4854
    -4.3062  -4.2913  -4.1256  -4.0581  -4.0330  -3.6458  -3.5888  -3.5823
    -3.2955  -3.1664  -3.1614  -2.0306  -1.9410  -1.9246  -1.8582  -1.3238
    -1.2748  -1.2725  -1.2331  -1.1345  -0.9627  -0.8483  -0.8005  -0.6814
    -0.4769  -0.4376  -0.4338  -0.3630  -0.1319  -0.0772  -0.0347   0.3421
     0.9282   0.9394   1.0443   1.1647   1.2832   1.3033   1.3079   1.3236
     1.4946   2.0410   2.1216   2.1409   2.1732   2.3776   2.5801   2.6113
     2.7337   2.7562   2.7614   2.7653   2.9484   2.9753   3.0346   3.0839
     3.4820   3.4987   3.5110   3.5792

          k = 0.0304 0.0176 0.0000 ( 16131 PWs)   bands (ev):

   -47.6694 -47.6635 -47.6483 -47.5392 -47.4648 -47.4594 -47.4570 -47.2974
   -47.2925 -47.2634 -47.1799 -47.1770 -47.1675 -47.1514 -47.1472 -47.1012
   -47.0991 -47.0898 -46.9435 -46.8339 -46.8157 -46.7959 -46.7949 -46.7858
   -46.7707 -46.7617 -46.7510 -46.7485 -46.7284 -46.7161 -46.7142 -46.6946
   -46.6744 -46.6696 -46.6644 -46.6482  -6.8433  -4.9356  -4.5661  -4.4854
    -4.3061  -4.2914  -4.1256  -4.0580  -4.0331  -3.6458  -3.5890  -3.5821
    -3.2955  -3.1666  -3.1612  -2.0306  -1.9407  -1.9250  -1.8581  -1.3238
    -1.2750  -1.2724  -1.2331  -1.1345  -0.9625  -0.8483  -0.8005  -0.6815
    -0.4769  -0.4377  -0.4340  -0.3630  -0.1314  -0.0772  -0.0350   0.3421
     0.9282   0.9394   1.0442   1.1648   1.2830   1.3034   1.3079   1.3237
     1.4945   2.0409   2.1216   2.1409   2.1732   2.3778   2.5800   2.6113
     2.7337   2.7564   2.7610   2.7653   2.9486   2.9753   3.0346   3.0839
     3.4821   3.4988   3.5110   3.5792

          k = 0.0304 0.0527 0.0000 ( 16186 PWs)   bands (ev):

   -47.6415 -47.6062 -47.5993 -47.5247 -47.4642 -47.4608 -47.4472 -47.3620
   -47.2785 -47.2728 -47.2486 -47.1676 -47.1485 -47.1171 -47.1082 -47.0778
   -47.0580 -47.0519 -46.9401 -46.8822 -46.8511 -46.8088 -46.7888 -46.7831
   -46.7761 -46.7717 -46.7538 -46.7500 -46.7466 -46.7388 -46.7214 -46.7193
   -46.7151 -46.6869 -46.6657 -46.6643  -6.3554  -4.4648  -4.3047  -4.2818
    -4.1025  -3.8791  -3.8489  -3.7796  -3.7143  -3.4655  -3.4413  -3.2576
    -2.9381  -2.9304  -2.5946  -2.1297  -2.0100  -1.8476  -1.8367  -1.5816
    -1.3902  -1.2714  -1.2092  -1.1649  -1.0710  -0.9965  -0.8430  -0.6530
    -0.5709  -0.4521  -0.4329  -0.2803  -0.2522  -0.2156  -0.0306   0.3594
     0.4575   0.4837   0.4845   0.7519   0.9236   0.9490   0.9773   1.0574
     1.1602   1.1668   1.1989   1.4274   1.6448   1.8604   2.0390   2.1613
     2.3394   2.3599   2.4225   2.6065   2.6933   2.7535   2.8139   3.1207
     3.1355   3.2167   3.3624   3.6980

          k = 0.0304-0.1229 0.0000 ( 16191 PWs)   bands (ev):

   -47.5909 -47.5528 -47.5031 -47.4918 -47.4768 -47.4609 -47.4377 -47.4362
   -47.3640 -47.3069 -47.2419 -47.2008 -47.1067 -47.0661 -47.0446 -47.0186
   -47.0104 -46.9703 -46.9429 -46.9348 -46.9162 -46.8680 -46.8489 -46.8142
   -46.7946 -46.7717 -46.7652 -46.7517 -46.7454 -46.7416 -46.7266 -46.7244
   -46.7168 -46.7142 -46.6951 -46.6641  -5.5111  -4.6639  -3.9403  -3.7866
    -3.6145  -3.4707  -3.3933  -3.3604  -3.2224  -3.1407  -3.0040  -2.7606
    -2.5282  -2.4620  -2.3635  -2.2820  -2.0323  -1.9251  -1.9108  -1.8762
    -1.6792  -1.4873  -1.3455  -1.3114  -1.0895  -0.9072  -0.8824  -0.7394
    -0.7057  -0.6211  -0.5974  -0.5637  -0.5010  -0.4654  -0.2965  -0.0400
    -0.0200   0.0234   0.0998   0.1291   0.2357   0.3819   0.7599   0.8128
     0.8976   1.0249   1.1513   1.2183   1.2618   1.4176   1.5870   1.8033
     1.8987   2.0449   2.2958   2.3455   2.4275   2.5475   2.6261   2.6839
     2.8568   2.9860   3.1128   3.1577

          k = 0.0304-0.0878 0.0000 ( 16191 PWs)   bands (ev):

   -47.5909 -47.5528 -47.5031 -47.4917 -47.4769 -47.4607 -47.4377 -47.4364
   -47.3638 -47.3069 -47.2419 -47.2009 -47.1067 -47.0660 -47.0446 -47.0185
   -47.0104 -46.9702 -46.9428 -46.9347 -46.9172 -46.8680 -46.8480 -46.8142
   -46.7947 -46.7716 -46.7652 -46.7520 -46.7454 -46.7415 -46.7268 -46.7242
   -46.7168 -46.7142 -46.6952 -46.6641  -5.5111  -4.6639  -3.9403  -3.7866
    -3.6145  -3.4707  -3.3933  -3.3604  -3.2226  -3.1406  -3.0040  -2.7606
    -2.5282  -2.4619  -2.3635  -2.2820  -2.0325  -1.9251  -1.9108  -1.8762
    -1.6792  -1.4874  -1.3455  -1.3114  -1.0895  -0.9071  -0.8825  -0.7394
    -0.7057  -0.6213  -0.5974  -0.5637  -0.5010  -0.4652  -0.2964  -0.0400
    -0.0199   0.0234   0.0997   0.1291   0.2357   0.3819   0.7599   0.8127
     0.8977   1.0247   1.1512   1.2183   1.2619   1.4176   1.5871   1.8033
     1.8986   2.0448   2.2957   2.3455   2.4276   2.5474   2.6262   2.6838
     2.8568   2.9861   3.1128   3.1577

          k = 0.0304-0.0527 0.0000 ( 16186 PWs)   bands (ev):

   -47.6414 -47.6065 -47.5991 -47.5247 -47.4648 -47.4601 -47.4474 -47.3621
   -47.2781 -47.2730 -47.2486 -47.1676 -47.1486 -47.1170 -47.1080 -47.0780
   -47.0584 -47.0517 -46.9400 -46.8822 -46.8515 -46.8088 -46.7889 -46.7830
   -46.7761 -46.7710 -46.7538 -46.7511 -46.7454 -46.7391 -46.7217 -46.7190
   -46.7152 -46.6868 -46.6659 -46.6643  -6.3554  -4.4648  -4.3047  -4.2818
    -4.1025  -3.8791  -3.8490  -3.7796  -3.7143  -3.4655  -3.4413  -3.2576
    -2.9382  -2.9303  -2.5946  -2.1296  -2.0100  -1.8476  -1.8367  -1.5817
    -1.3902  -1.2714  -1.2090  -1.1649  -1.0710  -0.9966  -0.8430  -0.6528
    -0.5709  -0.4522  -0.4329  -0.2804  -0.2521  -0.2156  -0.0306   0.3594
     0.4577   0.4834   0.4844   0.7519   0.9235   0.9494   0.9771   1.0574
     1.1603   1.1669   1.1988   1.4273   1.6448   1.8602   2.0392   2.1613
     2.3393   2.3596   2.4225   2.6064   2.6935   2.7535   2.8140   3.1207
     3.1354   3.2168   3.3622   3.6980

          k = 0.0608-0.0351 0.0000 ( 16137 PWs)   bands (ev):

   -47.6209 -47.6143 -47.5546 -47.5179 -47.4715 -47.4508 -47.4492 -47.3500
   -47.3449 -47.2831 -47.2394 -47.1727 -47.1368 -47.1135 -47.0781 -47.0624
   -47.0555 -47.0188 -46.9392 -46.8846 -46.8439 -46.8410 -46.8345 -46.7936
   -46.7764 -46.7693 -46.7638 -46.7521 -46.7444 -46.7383 -46.7250 -46.7208
   -46.7162 -46.6904 -46.6707 -46.6643  -6.1344  -4.6017  -4.2752  -3.9168
    -3.8846  -3.7547  -3.7412  -3.6783  -3.6348  -3.4541  -3.2112  -3.2004
    -2.9444  -2.5013  -2.4919  -2.1812  -1.9716  -1.9631  -1.7816  -1.6583
    -1.6011  -1.3919  -1.2420  -1.1750  -0.9725  -0.9192  -0.8579  -0.6600
    -0.4350  -0.4004  -0.3934  -0.3105  -0.3048  -0.2856  -0.1016   0.2308
     0.3229   0.3395   0.5136   0.5247   0.6155   0.6222   0.7187   0.8735
     0.9256   1.1215   1.2130   1.2290   1.7047   1.7426   1.7556   2.0194
     2.1017   2.1502   2.1735   2.3013   2.4943   2.6343   2.6448   2.7764
     3.0617   3.1639   3.2771   3.3980

          k = 0.0608 0.0000 0.0000 ( 16186 PWs)   bands (ev):

   -47.6413 -47.6066 -47.5990 -47.5247 -47.4650 -47.4599 -47.4474 -47.3622
   -47.2780 -47.2730 -47.2486 -47.1676 -47.1486 -47.1170 -47.1079 -47.0780
   -47.0585 -47.0516 -46.9400 -46.8822 -46.8516 -46.8088 -46.7889 -46.7829
   -46.7761 -46.7709 -46.7538 -46.7513 -46.7452 -46.7391 -46.7217 -46.7189
   -46.7152 -46.6869 -46.6659 -46.6643  -6.3554  -4.4648  -4.3047  -4.2818
    -4.1025  -3.8791  -3.8490  -3.7796  -3.7143  -3.4655  -3.4413  -3.2576
    -2.9382  -2.9303  -2.5946  -2.1296  -2.0100  -1.8476  -1.8367  -1.5818
    -1.3902  -1.2714  -1.2090  -1.1650  -1.0710  -0.9966  -0.8430  -0.6528
    -0.5709  -0.4522  -0.4329  -0.2804  -0.2520  -0.2156  -0.0306   0.3594
     0.4578   0.4833   0.4844   0.7518   0.9234   0.9495   0.9771   1.0574
     1.1603   1.1669   1.1988   1.4273   1.6448   1.8601   2.0393   2.1613
     2.3393   2.3596   2.4225   2.6064   2.6935   2.7535   2.8140   3.1207
     3.1354   3.2168   3.3622   3.6980

          k = 0.0608 0.0351 0.0000 ( 16137 PWs)   bands (ev):

   -47.6216 -47.6136 -47.5546 -47.5179 -47.4713 -47.4519 -47.4484 -47.3493
   -47.3454 -47.2832 -47.2395 -47.1726 -47.1365 -47.1141 -47.0785 -47.0614
   -47.0557 -47.0188 -46.9392 -46.8846 -46.8446 -46.8414 -46.8331 -46.7936
   -46.7766 -46.7695 -46.7637 -46.7510 -46.7455 -46.7391 -46.7249 -46.7206
   -46.7163 -46.6905 -46.6702 -46.6643  -6.1344  -4.6017  -4.2752  -3.9168
    -3.8845  -3.7548  -3.7412  -3.6781  -3.6351  -3.4541  -3.2114  -3.2003
    -2.9444  -2.5015  -2.4917  -2.1813  -1.9713  -1.9634  -1.7816  -1.6581
    -1.6011  -1.3919  -1.2421  -1.1748  -0.9727  -0.9192  -0.8579  -0.6603
    -0.4350  -0.4004  -0.3933  -0.3105  -0.3048  -0.2856  -0.1016   0.2307
     0.3230   0.3395   0.5137   0.5247   0.6154   0.6221   0.7188   0.8737
     0.9252   1.1216   1.2129   1.2290   1.7048   1.7428   1.7555   2.0193
     2.1018   2.1502   2.1736   2.3012   2.4943   2.6343   2.6453   2.7758
     3.0618   3.1639   3.2770   3.3982

          k = 0.0608-0.1404 0.0000 ( 16191 PWs)   bands (ev):

   -47.5908 -47.5529 -47.5031 -47.4918 -47.4769 -47.4608 -47.4377 -47.4361
   -47.3640 -47.3068 -47.2418 -47.2009 -47.1067 -47.0660 -47.0446 -47.0187
   -47.0104 -46.9703 -46.9429 -46.9348 -46.9161 -46.8680 -46.8490 -46.8142
   -46.7945 -46.7716 -46.7652 -46.7520 -46.7451 -46.7415 -46.7267 -46.7244
   -46.7168 -46.7142 -46.6952 -46.6641  -5.5111  -4.6639  -3.9403  -3.7866
    -3.6145  -3.4707  -3.3933  -3.3603  -3.2224  -3.1407  -3.0040  -2.7606
    -2.5282  -2.4620  -2.3635  -2.2820  -2.0323  -1.9252  -1.9108  -1.8762
    -1.6793  -1.4873  -1.3455  -1.3114  -1.0895  -0.9072  -0.8823  -0.7394
    -0.7057  -0.6210  -0.5974  -0.5637  -0.5010  -0.4654  -0.2965  -0.0400
    -0.0200   0.0234   0.0998   0.1291   0.2357   0.3819   0.7599   0.8128
     0.8976   1.0250   1.1513   1.2183   1.2618   1.4176   1.5869   1.8033
     1.8987   2.0449   2.2958   2.3455   2.4274   2.5475   2.6261   2.6840
     2.8568   2.9860   3.1129   3.1577

          k = 0.0608-0.1053 0.0000 ( 16242 PWs)   bands (ev):

   -47.5265 -47.5263 -47.4828 -47.4809 -47.4777 -47.4662 -47.4594 -47.4537
   -47.4312 -47.2570 -47.2560 -47.2436 -47.0577 -47.0503 -47.0116 -46.9959
   -46.9729 -46.9592 -46.9479 -46.9430 -46.9426 -46.9304 -46.9137 -46.7779
   -46.7748 -46.7659 -46.7612 -46.7590 -46.7473 -46.7455 -46.7397 -46.7368
   -46.7270 -46.7224 -46.7157 -46.6640  -4.6876  -4.6230  -4.6198  -3.4689
    -3.3390  -3.3297  -2.9543  -2.9220  -2.9104  -2.7733  -2.7537  -2.7499
    -2.6635  -2.5712  -2.5690  -2.2470  -2.1645  -1.8440  -1.8432  -1.8391
    -1.5801  -1.5428  -1.5416  -1.5313  -1.3101  -1.3046  -1.1066  -1.1059
    -1.1056  -0.9895  -0.8482  -0.4325  -0.4157  -0.4052  -0.3785  -0.1322
    -0.1105  -0.1037  -0.0999  -0.0965   0.0915   0.6037   0.6126   0.8591
     1.0467   1.0732   1.1783   1.1878   1.4597   1.5457   1.5504   1.8881
     2.3783   2.3823   2.4074   2.4827   2.5747   2.6122   2.6154   2.6217
     2.7207   2.7226   2.7834   2.7835

          k = 0.0608-0.0702 0.0000 ( 16191 PWs)   bands (ev):

   -47.5907 -47.5531 -47.5029 -47.4919 -47.4771 -47.4605 -47.4379 -47.4361
   -47.3639 -47.3068 -47.2416 -47.2011 -47.1068 -47.0652 -47.0447 -47.0191
   -47.0106 -46.9704 -46.9429 -46.9348 -46.9165 -46.8680 -46.8486 -46.8142
   -46.7944 -46.7713 -46.7653 -46.7534 -46.7440 -46.7406 -46.7270 -46.7241
   -46.7168 -46.7141 -46.6958 -46.6641  -5.5111  -4.6639  -3.9403  -3.7865
    -3.6146  -3.4708  -3.3932  -3.3603  -3.2224  -3.1408  -3.0040  -2.7606
    -2.5282  -2.4620  -2.3634  -2.2820  -2.0324  -1.9254  -1.9107  -1.8763
    -1.6793  -1.4873  -1.3455  -1.3114  -1.0893  -0.9072  -0.8823  -0.7394
    -0.7057  -0.6212  -0.5973  -0.5636  -0.5010  -0.4654  -0.2963  -0.0400
    -0.0199   0.0234   0.0997   0.1290   0.2357   0.3819   0.7597   0.8128
     0.8978   1.0249   1.1512   1.2183   1.2619   1.4176   1.5870   1.8034
     1.8986   2.0448   2.2957   2.3455   2.4273   2.5474   2.6261   2.6844
     2.8567   2.9862   3.1130   3.1575

          k =-0.0912 0.0527 0.0000 ( 16164 PWs)   bands (ev):

   -47.5884 -47.5812 -47.4944 -47.4902 -47.4479 -47.4452 -47.4233 -47.4185
   -47.3845 -47.3778 -47.2106 -47.2015 -47.1137 -47.0782 -47.0376 -47.0336
   -46.9965 -46.9414 -46.9113 -46.9106 -46.8943 -46.8851 -46.8778 -46.8631
   -46.8414 -46.7687 -46.7579 -46.7499 -46.7407 -46.7281 -46.7230 -46.7192
   -46.7178 -46.7065 -46.6917 -46.6642  -5.2444  -5.2043  -3.8083  -3.7530
    -3.4659  -3.3901  -3.3612  -3.3581  -3.3473  -3.3402  -2.8339  -2.7717
    -2.4916  -2.4392  -2.2741  -2.2707  -2.1698  -1.9464  -1.9198  -1.9083
    -1.5619  -1.5564  -1.2573  -1.1120  -0.9977  -0.7067  -0.6652  -0.6644
    -0.6602  -0.6054  -0.5817  -0.3565  -0.2990  -0.2797  -0.2721  -0.2587
    -0.2532  -0.1490  -0.1296  -0.1249   0.0973   0.5854   0.5944   0.7814
     0.8831   0.9224   1.0540   1.1550   1.3733   1.4238   1.4461   1.6021
     1.6027   1.9574   1.9724   2.0083   2.0965   2.1217   2.5567   2.7723
     3.0845   3.0962   3.3277   3.4215

          k =-0.0912 0.0878 0.0000 ( 16191 PWs)   bands (ev):

   -47.5907 -47.5531 -47.5029 -47.4919 -47.4772 -47.4605 -47.4380 -47.4362
   -47.3638 -47.3068 -47.2416 -47.2011 -47.1068 -47.0652 -47.0447 -47.0191
   -47.0107 -46.9704 -46.9429 -46.9348 -46.9167 -46.8679 -46.8484 -46.8142
   -46.7945 -46.7713 -46.7654 -46.7535 -46.7440 -46.7406 -46.7271 -46.7241
   -46.7168 -46.7141 -46.6959 -46.6641  -5.5111  -4.6639  -3.9403  -3.7865
    -3.6146  -3.4708  -3.3932  -3.3603  -3.2225  -3.1407  -3.0040  -2.7606
    -2.5282  -2.4619  -2.3634  -2.2820  -2.0324  -1.9254  -1.9107  -1.8762
    -1.6793  -1.4873  -1.3455  -1.3114  -1.0893  -0.9072  -0.8823  -0.7394
    -0.7057  -0.6212  -0.5973  -0.5636  -0.5010  -0.4654  -0.2963  -0.0400
    -0.0199   0.0234   0.0997   0.1289   0.2357   0.3819   0.7597   0.8128
     0.8978   1.0248   1.1512   1.2183   1.2619   1.4176   1.5871   1.8034
     1.8986   2.0448   2.2957   2.3455   2.4273   2.5474   2.6261   2.6844
     2.8567   2.9862   3.1130   3.1575

          k =-0.0912 0.1229 0.0000 ( 16191 PWs)   bands (ev):

   -47.5908 -47.5529 -47.5031 -47.4917 -47.4770 -47.4607 -47.4378 -47.4364
   -47.3637 -47.3069 -47.2418 -47.2009 -47.1067 -47.0659 -47.0446 -47.0186
   -47.0105 -46.9702 -46.9429 -46.9347 -46.9173 -46.8680 -46.8479 -46.8142
   -46.7947 -46.7715 -46.7652 -46.7523 -46.7451 -46.7413 -46.7269 -46.7241
   -46.7168 -46.7142 -46.6953 -46.6641  -5.5111  -4.6639  -3.9403  -3.7866
    -3.6146  -3.4707  -3.3933  -3.3604  -3.2226  -3.1406  -3.0040  -2.7606
    -2.5282  -2.4619  -2.3635  -2.2820  -2.0325  -1.9252  -1.9108  -1.8762
    -1.6792  -1.4874  -1.3455  -1.3114  -1.0894  -0.9071  -0.8824  -0.7394
    -0.7057  -0.6213  -0.5973  -0.5637  -0.5010  -0.4652  -0.2964  -0.0400
    -0.0199   0.0234   0.0997   0.1290   0.2357   0.3819   0.7599   0.8127
     0.8977   1.0246   1.1512   1.2184   1.2619   1.4176   1.5872   1.8033
     1.8986   2.0448   2.2957   2.3455   2.4276   2.5474   2.6262   2.6839
     2.8568   2.9861   3.1129   3.1576

          k =-0.0912-0.0527 0.0000 ( 16164 PWs)   bands (ev):

   -47.5893 -47.5803 -47.4950 -47.4895 -47.4489 -47.4443 -47.4226 -47.4189
   -47.3836 -47.3790 -47.2115 -47.2006 -47.1135 -47.0792 -47.0382 -47.0321
   -46.9966 -46.9414 -46.9126 -46.9088 -46.8938 -46.8848 -46.8790 -46.8634
   -46.8413 -46.7695 -46.7561 -46.7497 -46.7421 -46.7278 -46.7230 -46.7206
   -46.7179 -46.7067 -46.6904 -46.6642  -5.2442  -5.2044  -3.8086  -3.7527
    -3.4657  -3.3906  -3.3614  -3.3577  -3.3474  -3.3402  -2.8336  -2.7721
    -2.4916  -2.4393  -2.2744  -2.2704  -2.1699  -1.9462  -1.9198  -1.9081
    -1.5614  -1.5569  -1.2574  -1.1119  -0.9980  -0.7066  -0.6654  -0.6643
    -0.6603  -0.6052  -0.5818  -0.3566  -0.2985  -0.2798  -0.2721  -0.2590
    -0.2532  -0.1491  -0.1293  -0.1251   0.0972   0.5852   0.5947   0.7816
     0.8834   0.9218   1.0544   1.1549   1.3731   1.4235   1.4464   1.6020
     1.6029   1.9576   1.9724   2.0083   2.0962   2.1219   2.5572   2.7717
     3.0846   3.0962   3.3275   3.4218

     the Fermi energy is     2.3972 ev

!    total energy              =   -2200.95893817 Ry
     Harris-Foulkes estimate   =   -2200.95894609 Ry
     estimated scf accuracy    <       0.00000998 Ry

     The total energy is the sum of the following terms:

     one-electron contribution =  -18451.76164320 Ry
     hartree contribution      =    9255.51657771 Ry
     xc contribution           =    -624.27005441 Ry
     ewald contribution        =    7619.65276806 Ry
     electric field correction =       0.00000019 Ry
     smearing contrib. (-TS)   =      -0.09658653 Ry

     convergence has been achieved in  16 iterations
 
 BEEF-vdW xc energy contributions
           1 :   -552.992612330729     
           2 :    514.507923273836     
           3 :   -445.649614620750     
           4 :    359.903619354256     
           5 :   -272.140670260968     
           6 :    194.784377697263     
           7 :   -135.172594179135     
           8 :    94.7205545620735     
           9 :   -69.9301779083602     
          10 :    54.6758690908008     
          11 :   -42.8338888925433     
          12 :    30.3189606808725     
          13 :   -15.9496333824696     
          14 :    1.06937359554570     
          15 :    11.6994651190909     
          16 :   -19.9576275359831     
          17 :    22.6747551042489     
          18 :   -20.5964165944359     
          19 :    15.8603599659651     
          20 :   -11.0817342165968     
          21 :    8.33274022602029     
          22 :   -8.43344913739770     
          23 :    10.8060960283743     
          24 :   -13.9032482748720     
          25 :    15.9836641601115     
          26 :   -15.8886342201498     
          27 :    13.4961535154936     
          28 :   -9.69225576492101     
          29 :    5.91239495786897     
          30 :   -3.48356442600277     
          31 :   -47.3520050712509     
          32 :   -35.5007734563166     

     Forces acting on atoms (Ry/au):


     negative rho (up, down):  3.879E+00 0.000E+00
     atom    1 type  1   force =    -0.00323457   -0.00192994    0.02086101
     atom    2 type  1   force =     0.00323101   -0.00187852    0.02069407
     atom    3 type  1   force =     0.00004551    0.00377395    0.02087022
     atom    4 type  1   force =    -0.00003299    0.00003068    0.00442292
     atom    5 type  1   force =     0.00005220    0.00309567    0.00189745
     atom    6 type  1   force =    -0.00004054    0.00004061   -0.00066906
     atom    7 type  1   force =    -0.00263510   -0.00160371    0.00190196
     atom    8 type  1   force =     0.00261948   -0.00153831    0.00184893
     atom    9 type  1   force =     0.00000644   -0.00000733    0.06238885
     atom   10 type  1   force =    -0.00001949    0.00066618   -0.02561911
     atom   11 type  1   force =     0.00060045   -0.00033527   -0.02558989
     atom   12 type  1   force =    -0.00059778   -0.00030967   -0.02556907
     atom   13 type  2   force =     0.00000536   -0.00000433   -0.05743826

     Total force =     0.102753     Total SCF correction =     0.018756
     SCF correction compared to forces is large: reduce conv_thr to get better values


     entering subroutine stress ...


     negative rho (up, down):  3.879E+00 0.000E+00
          total   stress  (Ry/bohr**3)                   (kbar)     P=  -36.47
  -0.00025734   0.00000000   0.00000000        -37.86      0.00      0.00
   0.00000000  -0.00025733  -0.00000000          0.00    -37.85     -0.00
   0.00000000  -0.00000000  -0.00022916          0.00     -0.00    -33.71

 !ASE

     Writing output data file calc.save
 
     init_run     :     10.13s CPU     16.93s WALL (       1 calls)
     electrons    :    357.64s CPU    576.85s WALL (       1 calls)
     forces       :      3.32s CPU      4.11s WALL (       1 calls)
     stress       :      9.17s CPU     10.82s WALL (       1 calls)

     Called by init_run:
     wfcinit      :      7.89s CPU     13.57s WALL (       1 calls)
     potinit      :      0.99s CPU      1.71s WALL (       1 calls)

     Called by electrons:
     c_bands      :    265.42s CPU    420.35s WALL (      16 calls)
     sum_band     :     44.21s CPU     76.00s WALL (      16 calls)
     v_of_rho     :     13.77s CPU     24.65s WALL (      17 calls)
     newd         :      8.10s CPU      8.40s WALL (      17 calls)
     mix_rho      :      0.50s CPU      0.90s WALL (      16 calls)
     vdW_energy   :      2.20s CPU      2.21s WALL (      53 calls)
     vdW_ffts     :     25.06s CPU     48.68s WALL (     108 calls)
     vdW_v        :      4.96s CPU      8.51s WALL (      53 calls)

     Called by c_bands:
     init_us_2    :      0.71s CPU      0.73s WALL (     700 calls)
     cegterg      :    258.34s CPU    412.34s WALL (     320 calls)

     Called by *egterg:
     h_psi        :    167.23s CPU    312.17s WALL (    1381 calls)
     s_psi        :      9.19s CPU      9.30s WALL (    1381 calls)
     g_psi        :      0.44s CPU      0.45s WALL (    1041 calls)
     cdiaghg      :     53.12s CPU     55.90s WALL (    1361 calls)

     Called by h_psi:
     add_vuspsi   :      9.56s CPU      9.60s WALL (    1381 calls)

     General routines
     calbec       :     18.42s CPU     23.66s WALL (    1741 calls)
     fft          :     37.29s CPU     72.68s WALL (    3225 calls)
     ffts         :      0.11s CPU      0.20s WALL (      33 calls)
     fftw         :    166.76s CPU    336.98s WALL (  184754 calls)
     interpolate  :      0.45s CPU      0.91s WALL (      33 calls)
     davcio       :      0.00s CPU      0.03s WALL (      20 calls)
 
     Parallel routines
     fft_scatter  :    181.99s CPU    386.08s WALL (  188012 calls)
 
     PWSCF        :  6m20.93s CPU    10m10.09s WALL

 
   This run was terminated on:  20:55:15  13Jan2018            

=------------------------------------------------------------------------------=
   JOB DONE.
=------------------------------------------------------------------------------=
Job  /afs/slac/g/suncat/bin/suncat-tsmpirun -x LD_LIBRARY_PATH -wdir /scratch/qe842452_QAWlc pw.x -in pw.inp

TID   HOST_NAME   COMMAND_LINE            STATUS            TERMINATION_TIME
===== ========== ================  =======================  ===================
00000 suncat0253 pw.x -in pw.inp   Done                     01/13/2018 20:55:15
00001 suncat0253 pw.x -in pw.inp   Done                     01/13/2018 20:55:15
00002 suncat0253 pw.x -in pw.inp   Done                     01/13/2018 20:55:15
00003 suncat0253 pw.x -in pw.inp   Done                     01/13/2018 20:55:15
00004 suncat0253 pw.x -in pw.inp   Done                     01/13/2018 20:55:15
00005 suncat0253 pw.x -in pw.inp   Done                     01/13/2018 20:55:15
00006 suncat0253 pw.x -in pw.inp   Done                     01/13/2018 20:55:15
00007 suncat0253 pw.x -in pw.inp   Done                     01/13/2018 20:55:15
00008 suncat0249 pw.x -in pw.inp   Done                     01/13/2018 20:55:15
00009 suncat0249 pw.x -in pw.inp   Done                     01/13/2018 20:55:15
00010 suncat0249 pw.x -in pw.inp   Done                     01/13/2018 20:55:15
00011 suncat0249 pw.x -in pw.inp   Done                     01/13/2018 20:55:15
00012 suncat0249 pw.x -in pw.inp   Done                     01/13/2018 20:55:15
00013 suncat0249 pw.x -in pw.inp   Done                     01/13/2018 20:55:15
00014 suncat0249 pw.x -in pw.inp   Done                     01/13/2018 20:55:15
00015 suncat0249 pw.x -in pw.inp   Done                     01/13/2018 20:55:15
00016 suncat0248 pw.x -in pw.inp   Done                     01/13/2018 20:55:15
00017 suncat0248 pw.x -in pw.inp   Done                     01/13/2018 20:55:15
00018 suncat0248 pw.x -in pw.inp   Done                     01/13/2018 20:55:15
00019 suncat0248 pw.x -in pw.inp   Done                     01/13/2018 20:55:15
00020 suncat0248 pw.x -in pw.inp   Done                     01/13/2018 20:55:15
00021 suncat0248 pw.x -in pw.inp   Done                     01/13/2018 20:55:15
00022 suncat0248 pw.x -in pw.inp   Done                     01/13/2018 20:55:15
00023 suncat0248 pw.x -in pw.inp   Done                     01/13/2018 20:55:15
00024 suncat0247 pw.x -in pw.inp   Done                     01/13/2018 20:55:15
00025 suncat0247 pw.x -in pw.inp   Done                     01/13/2018 20:55:15
00026 suncat0247 pw.x -in pw.inp   Done                     01/13/2018 20:55:15
00027 suncat0247 pw.x -in pw.inp   Done                     01/13/2018 20:55:15
00028 suncat0247 pw.x -in pw.inp   Done                     01/13/2018 20:55:15
00029 suncat0247 pw.x -in pw.inp   Done                     01/13/2018 20:55:15
00030 suncat0247 pw.x -in pw.inp   Done                     01/13/2018 20:55:15
00031 suncat0247 pw.x -in pw.inp   Done                     01/13/2018 20:55:15

     Program PWSCF v.5.1rc2 (svn rev. 11289) starts on 13Jan2018 at 20:55:21 

     This program is part of the open-source Quantum ESPRESSO suite
     for quantum simulation of materials; please cite
         "P. Giannozzi et al., J. Phys.:Condens. Matter 21 395502 (2009);
          URL http://www.quantum-espresso.org", 
     in publications or presentations arising from this work. More details at
     http://www.quantum-espresso.org/quote

     Parallel version (MPI), running on    32 processors
     R & G space division:  proc/nbgrp/npool/nimage =      32
     Reading input from pw.inp
     Message from routine read_cards :
     DEPRECATED: no units specified in CELL_PARAMETERS card

     Current dimensions of program PWSCF are:
     Max number of different atomic species (ntypx) = 10
     Max number of k-points (npk) =  40000
     Max angular momentum in pseudopotentials (lmaxx) =  3
     Presently stress not available with electric field


     **************************************************************************
     Initializing libbeef V0.1.1 with the BEEF-vdW functional.
     Citation: Wellendorff et al., PRB 85, 235149 (2012).
     **************************************************************************


     IMPORTANT: XC functional enforced from input :
     Exchange-correlation      = BEEF-VDW ( 1  4 27 13 2)
     Any further DFT definition will be discarded
     Please, verify this is what you really want


     Subspace diagonalization in iterative solution of the eigenvalue problem:
     a serial algorithm will be used

 
     Parallelization info
     --------------------
     sticks:   dense  smooth     PW     G-vecs:    dense   smooth      PW
     Min          84      33      9                15972     4017     623
     Max          85      34     10                16001     4054     650
     Sum        2713    1069    313               511711   129131   20509
 


     bravais-lattice index     =            0
     lattice parameter (alat)  =       1.8897  a.u.
     unit-cell volume          =    4299.0717 (a.u.)^3
     number of atoms/cell      =           13
     number of atomic types    =            2
     number of electrons       =       181.00
     number of Kohn-Sham states=          100
     kinetic-energy cutoff     =      36.7493  Ry
     charge density cutoff     =     367.4932  Ry
     convergence threshold     =      1.0E-05
     mixing beta               =       0.3000
     number of iterations used =           10  plain     mixing
     Exchange-correlation      = BEEF-VDW ( 1  4 27 13 2)
     nstep                     =           50


     celldm(1)=   1.889726  celldm(2)=   0.000000  celldm(3)=   0.000000
     celldm(4)=   0.000000  celldm(5)=   0.000000  celldm(6)=   0.000000

     crystal axes: (cart. coord. in units of alat)
               a(1) = (   5.482164   0.000000   0.000000 )  
               a(2) = (   2.741082   4.747693   0.000000 )  
               a(3) = (   0.000000   0.000000  24.476168 )  

     reciprocal axes: (cart. coord. in units 2 pi/alat)
               b(1) = (  0.182410 -0.105314  0.000000 )  
               b(2) = (  0.000000  0.210629  0.000000 )  
               b(3) = (  0.000000  0.000000  0.040856 )  


     PseudoPot. # 1 for Ir read from file:
     /afs/slac.stanford.edu/u/if/mamunm/psp/gbrv1.5pbe/Ir.UPF
     MD5 check sum: 8836f839c3459d2b385c504ce6d91f2c
     Pseudo is Ultrasoft + core correction, Zval = 15.0
     Generated by new atomic code, or converted to UPF format
     Using radial grid of  983 points,  7 beta functions with: 
                l(1) =   0
                l(2) =   0
                l(3) =   1
                l(4) =   1
                l(5) =   1
                l(6) =   2
                l(7) =   2
     Q(r) pseudized with  8 coefficients,  rinner =    1.400   1.400   1.400
                                                       1.400   1.400

     PseudoPot. # 2 for H  read from file:
     /afs/slac.stanford.edu/u/if/mamunm/psp/gbrv1.5pbe/H.UPF
     MD5 check sum: 761ae9a214b05c3daf00ab9f6b793d6f
     Pseudo is Ultrasoft, Zval =  1.0
     Generated by new atomic code, or converted to UPF format
     Using radial grid of  615 points,  2 beta functions with: 
                l(1) =   0
                l(2) =   0
     Q(r) pseudized with  8 coefficients,  rinner =    0.700

     vdW kernel table read from file vdW_kernel_table
     MD5 check sum: 095c7af220d748ca6e76c0b4c6cfb241

     atomic species   valence    mass     pseudopotential
        Ir1           15.00   192.21700     Ir( 1.00)
        H1             1.00     1.00800     H ( 1.00)

     No symmetry found



   Cartesian axes

     site n.     atom                  positions (alat units)
         1           Ir1 tau(   1) = (   1.3705410   0.7912822  10.0000000  )
         2           Ir1 tau(   2) = (   4.1116229   0.7912822  10.0000000  )
         3           Ir1 tau(   3) = (   2.7410819   3.1651288  10.0000000  )
         4           Ir1 tau(   4) = (   5.4821639   3.1651288  10.0000000  )
         5           Ir1 tau(   5) = (   5.4821639   1.5825644  12.2380840  )
         6           Ir1 tau(   6) = (   2.7410819   1.5825644  12.2380840  )
         7           Ir1 tau(   7) = (   6.8527049   3.9564110  12.2380840  )
         8           Ir1 tau(   8) = (   4.1116229   3.9564110  12.2380840  )
         9           Ir1 tau(   9) = (   2.7410985   4.7476743  14.6365762  )
        10           Ir1 tau(  10) = (   2.7410318   0.0017128  14.4102987  )
        11           Ir1 tau(  11) = (   1.3720848   2.3729846  14.4103738  )
        12           Ir1 tau(  12) = (   4.1100860   2.3730504  14.4104273  )
        13           H1  tau(  13) = (   2.7410957   4.7476821  16.0484884  )

     number of k points=    20  Fermi-Dirac smearing, width (Ry)=  0.0110
                       cart. coord. in units 2pi/alat
        k(    1) = (   0.0000000   0.0000000   0.0000000), wk =   0.0555556
        k(    2) = (   0.0000000   0.0351048   0.0000000), wk =   0.1111111
        k(    3) = (   0.0000000   0.0702095   0.0000000), wk =   0.1111111
        k(    4) = (   0.0000000  -0.1053143   0.0000000), wk =   0.0555556
        k(    5) = (   0.0304016  -0.0175524   0.0000000), wk =   0.1111111
        k(    6) = (   0.0304016   0.0175524   0.0000000), wk =   0.1111111
        k(    7) = (   0.0304016   0.0526572   0.0000000), wk =   0.1111111
        k(    8) = (   0.0304016  -0.1228667   0.0000000), wk =   0.1111111
        k(    9) = (   0.0304016  -0.0877619   0.0000000), wk =   0.1111111
        k(   10) = (   0.0304016  -0.0526572   0.0000000), wk =   0.1111111
        k(   11) = (   0.0608032  -0.0351048   0.0000000), wk =   0.1111111
        k(   12) = (   0.0608032   0.0000000   0.0000000), wk =   0.1111111
        k(   13) = (   0.0608032   0.0351048   0.0000000), wk =   0.1111111
        k(   14) = (   0.0608032  -0.1404191   0.0000000), wk =   0.1111111
        k(   15) = (   0.0608032  -0.1053143   0.0000000), wk =   0.1111111
        k(   16) = (   0.0608032  -0.0702095   0.0000000), wk =   0.1111111
        k(   17) = (  -0.0912049   0.0526572   0.0000000), wk =   0.0555556
        k(   18) = (  -0.0912049   0.0877619   0.0000000), wk =   0.1111111
        k(   19) = (  -0.0912049   0.1228667   0.0000000), wk =   0.1111111
        k(   20) = (  -0.0912049  -0.0526572   0.0000000), wk =   0.0555556

     Dense  grid:   511711 G-vectors     FFT dimensions: (  64,  64, 288)

     Smooth grid:   129131 G-vectors     FFT dimensions: (  40,  40, 180)

     Largest allocated arrays     est. size (Mb)     dimensions
        Kohn-Sham Wavefunctions         0.79 Mb     (     515,  100)
        NL pseudopotentials             2.00 Mb     (     515,  254)
        Each V/rho on FFT grid          0.56 Mb     (   36864)
        Each G-vector array             0.12 Mb     (   16001)
        G-vector shells                 0.06 Mb     (    7228)
     Largest temporary arrays     est. size (Mb)     dimensions
        Auxiliary wavefunctions         3.14 Mb     (     515,  400)
        Each subspace H/S matrix        2.44 Mb     (     400,  400)
        Each <psi_i|beta_j> matrix      0.39 Mb     (     254,  100)
        Arrays for rho mixing           5.62 Mb     (   36864,   10)

     Initial potential from superposition of free atoms
     Check: negative starting charge=   -4.362331

     starting charge  174.99961, renormalised to  181.00000

     negative rho (up, down):  4.512E+00 0.000E+00


     ************************************************************************
     *
     * You are using vdW-DF for exchange-correlation in this calculation.
     * Please cite the following three references that made this development
     * possible:
     *
     *   M. Dion, H. Rydberg, E. Schroder, D. C. Langreth, and
     *   B. I. Lundqvist, Phys. Rev. Lett. 92, 246401 (2004).
     *
     *   T. Thonhauser, V. R. Cooper, S. Li, A. Puzder, P. Hyldgaard, and
     *   D. C. Langreth, Phys. Rev. B 76, 125112 (2007).
     *
     *   G. Roman-Perez and J. M. Soler, Phys. Rev. Lett. 103, 096102 (2009).
     *
     *
     * If you are using vdW-DF2, please also cite:
     *
     *   K. Lee, E. D. Murray, L. Kong, B. I. Lundqvist, and
     *   D. C. Langreth, Phys. Rev. B 82, 081101(R) (2010).
     *
     *
     * If you are calculating the stress with vdW-DF, please also cite:
     *
     *   R. Sabatini, E. Kucukbenli, B. Kolb, T. Thonhauser, and
     *   S. de Gironcoli, J. Phys.: Condens. Matter 24, 424209 (2012).
     *
     ************************************************************************

     Carrying out vdW-DF run using the following parameters:

     Nqs =      20    Nr_points =    1024   r_max =   100.000
     q_mesh =
               0.00001000     0.04494208     0.09755937     0.15916263
               0.23128650     0.31572767     0.41458969     0.53033537
               0.66584808     0.82450364     1.01025438     1.22772762
               1.48234092     1.78043706     2.12944203     2.53805004
               3.01644009     3.57652955     4.23227104     5.00000000

     Gradients computed in reciprocal space

     ************************************************************************


 
     Adding external electric field

     Computed dipole along edir(3) : 
        Dipole               -0.2470 Ry au,         -0.6279 Debye
        Dipole field         -0.0007 Ry au
 
        Potential amp.        0.0651 Ry
        Total length         45.0969 bohr
 
     Starting wfc are  145 randomized atomic wfcs

     total cpu time spent up to now is       18.0 secs

     per-process dynamical memory:    45.2 Mb

     Self-consistent Calculation

     iteration #  1     ecut=    36.75 Ry     beta=0.30
     Davidson diagonalization with overlap
     ethr =  1.00E-02,  avg # of iterations =  2.0

     negative rho (up, down):  4.170E+00 0.000E+00
 
     Adding external electric field

     Computed dipole along edir(3) : 
        Dipole                3.3218 Ry au,          8.4432 Debye
        Dipole field          0.0097 Ry au
 
        Potential amp.       -0.8758 Ry
        Total length         45.0969 bohr
 

     total cpu time spent up to now is       50.0 secs

     total energy              =   -2197.68914183 Ry
     Harris-Foulkes estimate   =   -2204.03346645 Ry
     estimated scf accuracy    <      14.99237916 Ry

     iteration #  2     ecut=    36.75 Ry     beta=0.30
     Davidson diagonalization with overlap
     ethr =  8.28E-03,  avg # of iterations =  5.9

     negative rho (up, down):  4.161E+00 0.000E+00
 
     Adding external electric field

     Computed dipole along edir(3) : 
        Dipole               -1.5514 Ry au,         -3.9433 Debye
        Dipole field         -0.0045 Ry au
 
        Potential amp.        0.4090 Ry
        Total length         45.0969 bohr
 

     total cpu time spent up to now is       95.6 secs

     total energy              =   -2189.83228490 Ry
     Harris-Foulkes estimate   =   -2212.42625251 Ry
     estimated scf accuracy    <     394.25581362 Ry

     iteration #  3     ecut=    36.75 Ry     beta=0.30
     Davidson diagonalization with overlap
     ethr =  8.28E-03,  avg # of iterations =  5.3

     negative rho (up, down):  4.131E+00 0.000E+00
 
     Adding external electric field

     Computed dipole along edir(3) : 
        Dipole                0.3946 Ry au,          1.0029 Debye
        Dipole field          0.0012 Ry au
 
        Potential amp.       -0.1040 Ry
        Total length         45.0969 bohr
 

     total cpu time spent up to now is      143.9 secs

     total energy              =   -2195.87568091 Ry
     Harris-Foulkes estimate   =   -2204.92411517 Ry
     estimated scf accuracy    <     174.09954598 Ry

     iteration #  4     ecut=    36.75 Ry     beta=0.30
     Davidson diagonalization with overlap
     ethr =  8.28E-03,  avg # of iterations =  4.8

     negative rho (up, down):  4.046E+00 0.000E+00
 
     Adding external electric field

     Computed dipole along edir(3) : 
        Dipole               -0.0009 Ry au,         -0.0022 Debye
        Dipole field         -0.0000 Ry au
 
        Potential amp.        0.0002 Ry
        Total length         45.0969 bohr
 

     total cpu time spent up to now is      182.4 secs

     total energy              =   -2200.14466593 Ry
     Harris-Foulkes estimate   =   -2202.14794290 Ry
     estimated scf accuracy    <      19.92268144 Ry

     iteration #  5     ecut=    36.75 Ry     beta=0.30
     Davidson diagonalization with overlap
     ethr =  8.28E-03,  avg # of iterations =  1.1

     negative rho (up, down):  3.960E+00 0.000E+00
 
     Adding external electric field

     Computed dipole along edir(3) : 
        Dipole               -0.0532 Ry au,         -0.1353 Debye
        Dipole field         -0.0002 Ry au
 
        Potential amp.        0.0140 Ry
        Total length         45.0969 bohr
 

     total cpu time spent up to now is      209.8 secs

     total energy              =   -2200.75993064 Ry
     Harris-Foulkes estimate   =   -2200.95596890 Ry
     estimated scf accuracy    <       1.46296078 Ry

     iteration #  6     ecut=    36.75 Ry     beta=0.30
     Davidson diagonalization with overlap
     ethr =  8.08E-04,  avg # of iterations =  5.4

     negative rho (up, down):  3.919E+00 0.000E+00
 
     Adding external electric field

     Computed dipole along edir(3) : 
        Dipole               -0.0610 Ry au,         -0.1550 Debye
        Dipole field         -0.0002 Ry au
 
        Potential amp.        0.0161 Ry
        Total length         45.0969 bohr
 

     total cpu time spent up to now is      246.9 secs

     total energy              =   -2200.89644359 Ry
     Harris-Foulkes estimate   =   -2200.99377474 Ry
     estimated scf accuracy    <       0.67686804 Ry

     iteration #  7     ecut=    36.75 Ry     beta=0.30
     Davidson diagonalization with overlap
     ethr =  3.74E-04,  avg # of iterations =  2.5

     negative rho (up, down):  3.912E+00 0.000E+00
 
     Adding external electric field

     Computed dipole along edir(3) : 
        Dipole                0.0140 Ry au,          0.0355 Debye
        Dipole field          0.0000 Ry au
 
        Potential amp.       -0.0037 Ry
        Total length         45.0969 bohr
 

     total cpu time spent up to now is      276.0 secs

     total energy              =   -2200.91042297 Ry
     Harris-Foulkes estimate   =   -2200.95891815 Ry
     estimated scf accuracy    <       0.54015372 Ry

     iteration #  8     ecut=    36.75 Ry     beta=0.30
     Davidson diagonalization with overlap
     ethr =  2.98E-04,  avg # of iterations =  2.5

     negative rho (up, down):  3.896E+00 0.000E+00
 
     Adding external electric field

     Computed dipole along edir(3) : 
        Dipole                0.0185 Ry au,          0.0471 Debye
        Dipole field          0.0001 Ry au
 
        Potential amp.       -0.0049 Ry
        Total length         45.0969 bohr
 

     total cpu time spent up to now is      304.7 secs

     total energy              =   -2200.94052145 Ry
     Harris-Foulkes estimate   =   -2200.94696610 Ry
     estimated scf accuracy    <       0.26483046 Ry

     iteration #  9     ecut=    36.75 Ry     beta=0.30
     Davidson diagonalization with overlap
     ethr =  1.46E-04,  avg # of iterations =  1.1

     negative rho (up, down):  3.885E+00 0.000E+00
 
     Adding external electric field

     Computed dipole along edir(3) : 
        Dipole                0.0141 Ry au,          0.0360 Debye
        Dipole field          0.0000 Ry au
 
        Potential amp.       -0.0037 Ry
        Total length         45.0969 bohr
 

     total cpu time spent up to now is      331.8 secs

     total energy              =   -2200.94041202 Ry
     Harris-Foulkes estimate   =   -2200.94594961 Ry
     estimated scf accuracy    <       0.09152189 Ry

     iteration # 10     ecut=    36.75 Ry     beta=0.30
     Davidson diagonalization with overlap
     ethr =  5.06E-05,  avg # of iterations =  1.1

     negative rho (up, down):  3.880E+00 0.000E+00
 
     Adding external electric field

     Computed dipole along edir(3) : 
        Dipole                0.0057 Ry au,          0.0145 Debye
        Dipole field          0.0000 Ry au
 
        Potential amp.       -0.0015 Ry
        Total length         45.0969 bohr
 

     total cpu time spent up to now is      358.8 secs

     total energy              =   -2200.94108238 Ry
     Harris-Foulkes estimate   =   -2200.94299279 Ry
     estimated scf accuracy    <       0.02084143 Ry

     iteration # 11     ecut=    36.75 Ry     beta=0.30
     Davidson diagonalization with overlap
     ethr =  1.15E-05,  avg # of iterations =  5.8

     negative rho (up, down):  3.879E+00 0.000E+00
 
     Adding external electric field

     Computed dipole along edir(3) : 
        Dipole               -0.0039 Ry au,         -0.0099 Debye
        Dipole field         -0.0000 Ry au
 
        Potential amp.        0.0010 Ry
        Total length         45.0969 bohr
 

     total cpu time spent up to now is      391.7 secs

     total energy              =   -2200.94169126 Ry
     Harris-Foulkes estimate   =   -2200.94202239 Ry
     estimated scf accuracy    <       0.00211288 Ry

     iteration # 12     ecut=    36.75 Ry     beta=0.30
     Davidson diagonalization with overlap
     ethr =  1.17E-06,  avg # of iterations =  4.3

     negative rho (up, down):  3.879E+00 0.000E+00
 
     Adding external electric field

     Computed dipole along edir(3) : 
        Dipole               -0.0054 Ry au,         -0.0137 Debye
        Dipole field         -0.0000 Ry au
 
        Potential amp.        0.0014 Ry
        Total length         45.0969 bohr
 

     total cpu time spent up to now is      425.9 secs

     total energy              =   -2200.94193977 Ry
     Harris-Foulkes estimate   =   -2200.94203069 Ry
     estimated scf accuracy    <       0.00081331 Ry

     iteration # 13     ecut=    36.75 Ry     beta=0.30
     Davidson diagonalization with overlap
     ethr =  4.49E-07,  avg # of iterations =  1.4

     negative rho (up, down):  3.879E+00 0.000E+00
 
     Adding external electric field

     Computed dipole along edir(3) : 
        Dipole               -0.0016 Ry au,         -0.0041 Debye
        Dipole field         -0.0000 Ry au
 
        Potential amp.        0.0004 Ry
        Total length         45.0969 bohr
 

     total cpu time spent up to now is      453.5 secs

     total energy              =   -2200.94199663 Ry
     Harris-Foulkes estimate   =   -2200.94199943 Ry
     estimated scf accuracy    <       0.00015327 Ry

     iteration # 14     ecut=    36.75 Ry     beta=0.30
     Davidson diagonalization with overlap
     ethr =  8.47E-08,  avg # of iterations =  3.8

     negative rho (up, down):  3.880E+00 0.000E+00
 
     Adding external electric field

     Computed dipole along edir(3) : 
        Dipole               -0.0018 Ry au,         -0.0046 Debye
        Dipole field         -0.0000 Ry au
 
        Potential amp.        0.0005 Ry
        Total length         45.0969 bohr
 

     total cpu time spent up to now is      485.5 secs

     total energy              =   -2200.94200648 Ry
     Harris-Foulkes estimate   =   -2200.94201088 Ry
     estimated scf accuracy    <       0.00010506 Ry

     iteration # 15     ecut=    36.75 Ry     beta=0.30
     Davidson diagonalization with overlap
     ethr =  5.80E-08,  avg # of iterations =  1.1

     negative rho (up, down):  3.880E+00 0.000E+00
 
     Adding external electric field

     Computed dipole along edir(3) : 
        Dipole               -0.0024 Ry au,         -0.0062 Debye
        Dipole field         -0.0000 Ry au
 
        Potential amp.        0.0006 Ry
        Total length         45.0969 bohr
 

     total cpu time spent up to now is      512.6 secs

     total energy              =   -2200.94200842 Ry
     Harris-Foulkes estimate   =   -2200.94201182 Ry
     estimated scf accuracy    <       0.00005629 Ry

     iteration # 16     ecut=    36.75 Ry     beta=0.30
     Davidson diagonalization with overlap
     ethr =  3.11E-08,  avg # of iterations =  1.0

     negative rho (up, down):  3.880E+00 0.000E+00

     negative rho (up, down):  3.880E+00 0.000E+00

     negative rho (up, down):  3.880E+00 0.000E+00

     negative rho (up, down):  3.880E+00 0.000E+00

     negative rho (up, down):  3.880E+00 0.000E+00

     negative rho (up, down):  3.880E+00 0.000E+00

     negative rho (up, down):  3.880E+00 0.000E+00

     negative rho (up, down):  3.880E+00 0.000E+00

     negative rho (up, down):  3.880E+00 0.000E+00

     negative rho (up, down):  3.880E+00 0.000E+00

     negative rho (up, down):  3.880E+00 0.000E+00

     negative rho (up, down):  3.880E+00 0.000E+00

     negative rho (up, down):  3.880E+00 0.000E+00

     negative rho (up, down):  3.880E+00 0.000E+00

     negative rho (up, down):  3.880E+00 0.000E+00

     negative rho (up, down):  3.880E+00 0.000E+00

     negative rho (up, down):  3.880E+00 0.000E+00

     negative rho (up, down):  3.880E+00 0.000E+00

     negative rho (up, down):  3.880E+00 0.000E+00

     negative rho (up, down):  3.880E+00 0.000E+00

     negative rho (up, down):  3.880E+00 0.000E+00

     negative rho (up, down):  3.880E+00 0.000E+00

     negative rho (up, down):  3.880E+00 0.000E+00

     negative rho (up, down):  3.880E+00 0.000E+00

     negative rho (up, down):  3.880E+00 0.000E+00

     negative rho (up, down):  3.880E+00 0.000E+00

     negative rho (up, down):  3.880E+00 0.000E+00

     negative rho (up, down):  3.880E+00 0.000E+00

     negative rho (up, down):  3.880E+00 0.000E+00

     negative rho (up, down):  3.880E+00 0.000E+00

     negative rho (up, down):  3.880E+00 0.000E+00

     negative rho (up, down):  3.880E+00 0.000E+00

     negative rho (up, down):  3.880E+00 0.000E+00

     negative rho (up, down):  3.880E+00 0.000E+00

     negative rho (up, down):  3.880E+00 0.000E+00
 
     Adding external electric field

     Computed dipole along edir(3) : 
        Dipole               -0.0042 Ry au,         -0.0108 Debye
        Dipole field         -0.0000 Ry au
 
        Potential amp.        0.0011 Ry
        Total length         45.0969 bohr
 

     total cpu time spent up to now is      587.5 secs

     End of self-consistent calculation

          k = 0.0000 0.0000 0.0000 ( 16073 PWs)   bands (ev):

   -47.7189 -47.7188 -47.6340 -47.5991 -47.4596 -47.4284 -47.4282 -47.2761
   -47.2761 -47.2657 -47.2127 -47.1705 -47.1704 -47.1214 -47.1082 -47.1082
   -47.0909 -47.0908 -46.8787 -46.8356 -46.8271 -46.8269 -46.8268 -46.7971
   -46.7969 -46.7701 -46.7647 -46.7645 -46.7440 -46.7237 -46.7234 -46.7002
   -46.6429 -46.6428 -46.6394 -46.6394  -7.1303  -5.1954  -4.8390  -4.5468
    -4.5468  -4.5396  -4.3258  -4.2258  -4.2257  -3.7889  -3.7095  -3.7094
    -3.4455  -3.3917  -3.3916  -2.9000  -1.9777  -1.9305  -1.9304  -1.3722
    -1.3721  -1.3040  -1.1066  -1.0730  -1.0730  -0.6506  -0.6465  -0.6464
    -0.5503  -0.4939  -0.4938  -0.2801  -0.2801  -0.0387  -0.0386   0.7447
     1.2352   1.2352   1.2630   1.3346   1.3609   1.3610   1.4011   1.4011
     1.9910   2.0373   2.0373   2.6899   2.7199   2.7200   2.7638   2.7638
     2.9110   3.0178   3.0179   3.3533   3.3534   3.3829   3.5817   3.6555
     3.6556   3.8153   3.8154   3.8256

          k = 0.0000 0.0351 0.0000 ( 16131 PWs)   bands (ev):

   -47.7010 -47.6888 -47.6161 -47.5888 -47.4521 -47.4276 -47.4231 -47.3010
   -47.2899 -47.2649 -47.1915 -47.1508 -47.1490 -47.1357 -47.1123 -47.1038
   -47.0816 -47.0773 -46.8715 -46.8413 -46.8357 -46.8273 -46.8255 -46.8165
   -46.7962 -46.7873 -46.7837 -46.7579 -46.7448 -46.7257 -46.7237 -46.7003
   -46.6747 -46.6702 -46.6502 -46.6475  -6.8729  -4.9402  -4.5972  -4.5123
    -4.3383  -4.3301  -4.1998  -4.0941  -4.0621  -3.6987  -3.6133  -3.5883
    -3.2909  -3.1790  -3.1299  -2.8537  -1.9752  -1.9150  -1.8755  -1.3752
    -1.2794  -1.2776  -1.2171  -1.1221  -0.9541  -0.9152  -0.8506  -0.6813
    -0.5497  -0.4395  -0.4156  -0.3581  -0.1845  -0.1063  -0.0511   0.3809
     0.9005   0.9045   1.0437   1.1146   1.2278   1.2598   1.2945   1.3072
     1.4876   1.8574   2.0015   2.1748   2.1801   2.4060   2.5699   2.5939
     2.6990   2.7129   2.7643   2.7733   2.9622   2.9625   3.0505   3.0954
     3.4670   3.4761   3.5546   3.5903

          k = 0.0000 0.0702 0.0000 ( 16137 PWs)   bands (ev):

   -47.6589 -47.6121 -47.5930 -47.5405 -47.4341 -47.4323 -47.4138 -47.3624
   -47.3343 -47.2491 -47.2333 -47.1450 -47.1332 -47.0959 -47.0729 -47.0556
   -47.0498 -47.0135 -46.8886 -46.8765 -46.8575 -46.8408 -46.8392 -46.8330
   -46.8192 -46.8150 -46.7848 -46.7726 -46.7500 -46.7357 -46.7299 -46.7277
   -46.7236 -46.6987 -46.6720 -46.6646  -6.1680  -4.6476  -4.3017  -3.9928
    -3.9217  -3.8124  -3.7625  -3.7419  -3.6899  -3.5007  -3.2612  -3.2191
    -2.9451  -2.7529  -2.5258  -2.4542  -2.0374  -1.9415  -1.8991  -1.7465
    -1.6141  -1.4728  -1.2807  -1.1776  -0.9926  -0.9821  -0.8264  -0.6278
    -0.5281  -0.4342  -0.4289  -0.3909  -0.2824  -0.2604  -0.1062   0.2152
     0.2850   0.3626   0.4261   0.5297   0.6032   0.6054   0.7220   0.8682
     0.9012   1.1037   1.1539   1.2500   1.6818   1.7872   1.7884   1.9760
     2.0134   2.1269   2.2295   2.4016   2.4971   2.6175   2.6309   2.8212
     3.0307   3.2130   3.2971   3.4655

          k = 0.0000-0.1053 0.0000 ( 16164 PWs)   bands (ev):

   -47.6326 -47.5863 -47.5496 -47.4916 -47.4478 -47.4408 -47.4115 -47.3804
   -47.3597 -47.3070 -47.2390 -47.1424 -47.1187 -47.0621 -47.0411 -47.0214
   -46.9651 -46.9584 -46.9276 -46.9055 -46.8982 -46.8701 -46.8638 -46.8458
   -46.8391 -46.8208 -46.8151 -46.7782 -46.7767 -46.7390 -46.7318 -46.7253
   -46.7041 -46.7022 -46.6987 -46.6742  -5.2828  -5.2490  -3.9013  -3.8180
    -3.5782  -3.4610  -3.4550  -3.4050  -3.3398  -3.3053  -2.9602  -2.8421
    -2.6234  -2.4898  -2.3818  -2.3415  -2.2206  -2.0157  -2.0053  -1.9720
    -1.6002  -1.5370  -1.5118  -1.0619  -1.0071  -0.8133  -0.7694  -0.7306
    -0.6698  -0.5611  -0.5511  -0.3863  -0.3805  -0.3472  -0.3055  -0.2609
    -0.2559  -0.1641  -0.0870  -0.0004   0.1505   0.5256   0.6215   0.6998
     0.8930   0.9091   1.0549   1.1844   1.3945   1.4100   1.4873   1.5544
     1.6311   1.8854   2.0132   2.0592   2.1124   2.1460   2.5404   2.8128
     3.0260   3.1691   3.3254   3.4877

[...]
     1.8944   2.0660   2.2979   2.3409   2.4515   2.5699   2.6407   2.7208
     2.8752   3.0370   3.1178   3.1980

          k = 0.0304-0.0527 0.0000 ( 16186 PWs)   bands (ev):

   -47.6771 -47.6440 -47.6115 -47.5786 -47.5048 -47.4816 -47.4692 -47.3851
   -47.3073 -47.2961 -47.2547 -47.1775 -47.1532 -47.1221 -47.1161 -47.0743
   -47.0437 -47.0387 -46.9061 -46.9022 -46.8352 -46.8299 -46.8272 -46.8208
   -46.8086 -46.8039 -46.7973 -46.7518 -46.7487 -46.7356 -46.7229 -46.7200
   -46.7140 -46.7131 -46.6631 -46.6472  -6.4242  -4.4896  -4.3808  -4.3601
    -4.1519  -3.9642  -3.9182  -3.8600  -3.8016  -3.5492  -3.5087  -3.3322
    -2.9623  -2.9442  -2.6178  -2.3449  -2.0700  -1.8916  -1.8649  -1.6994
    -1.4555  -1.2914  -1.2518  -1.2075  -1.0749  -1.0124  -0.8815  -0.6935
    -0.5955  -0.4916  -0.4822  -0.3416  -0.3280  -0.2482  -0.0409   0.3507
     0.4410   0.4543   0.4998   0.7301   0.8464   0.9529   0.9667   1.0387
     1.1061   1.1709   1.1778   1.4070   1.6213   1.8782   2.0638   2.1774
     2.3351   2.3683   2.4184   2.6183   2.7443   2.7685   2.8313   3.1298
     3.1440   3.2592   3.4176   3.6880

          k = 0.0608-0.0351 0.0000 ( 16137 PWs)   bands (ev):

   -47.6642 -47.6318 -47.5889 -47.5667 -47.5023 -47.4817 -47.4673 -47.3777
   -47.3670 -47.2898 -47.2661 -47.1806 -47.1359 -47.1283 -47.0760 -47.0597
   -47.0472 -47.0019 -46.9052 -46.8914 -46.8861 -46.8360 -46.8247 -46.8245
   -46.8138 -46.8043 -46.8001 -46.7914 -46.7535 -46.7288 -46.7281 -46.7197
   -46.7192 -46.7128 -46.6631 -46.6523  -6.2038  -4.6771  -4.3029  -3.9860
    -3.9413  -3.8427  -3.8163  -3.7570  -3.7258  -3.5262  -3.2915  -3.2718
    -2.9721  -2.5585  -2.4981  -2.3600  -2.0327  -1.9985  -1.8671  -1.7446
    -1.6541  -1.4893  -1.2853  -1.1862  -0.9852  -0.9492  -0.8480  -0.6457
    -0.4984  -0.4458  -0.4340  -0.3977  -0.3483  -0.3065  -0.1676   0.2188
     0.2985   0.3411   0.4705   0.5193   0.6127   0.6182   0.7052   0.8614
     0.9015   1.0875   1.1611   1.2187   1.6950   1.7729   1.7836   2.0280
     2.0581   2.1207   2.2065   2.3684   2.4856   2.6398   2.6602   2.8220
     3.0844   3.2144   3.3157   3.4420

          k = 0.0608 0.0000 0.0000 ( 16186 PWs)   bands (ev):

   -47.6773 -47.6438 -47.6115 -47.5787 -47.5045 -47.4822 -47.4688 -47.3848
   -47.3077 -47.2961 -47.2549 -47.1772 -47.1532 -47.1220 -47.1161 -47.0745
   -47.0431 -47.0391 -46.9061 -46.9022 -46.8351 -46.8298 -46.8273 -46.8208
   -46.8088 -46.8038 -46.7973 -46.7517 -46.7491 -46.7356 -46.7229 -46.7192
   -46.7149 -46.7130 -46.6631 -46.6471  -6.4242  -4.4896  -4.3807  -4.3602
    -4.1519  -3.9642  -3.9181  -3.8600  -3.8016  -3.5492  -3.5087  -3.3322
    -2.9622  -2.9442  -2.6178  -2.3450  -2.0700  -1.8919  -1.8646  -1.6994
    -1.4555  -1.2913  -1.2517  -1.2076  -1.0748  -1.0125  -0.8815  -0.6936
    -0.5954  -0.4917  -0.4823  -0.3413  -0.3283  -0.2480  -0.0410   0.3507
     0.4410   0.4546   0.4994   0.7304   0.8467   0.9529   0.9665   1.0385
     1.1061   1.1706   1.1777   1.4071   1.6212   1.8785   2.0635   2.1774
     2.3350   2.3684   2.4186   2.6183   2.7440   2.7685   2.8313   3.1300
     3.1439   3.2589   3.4178   3.6879

          k = 0.0608 0.0351 0.0000 ( 16137 PWs)   bands (ev):

   -47.6640 -47.6321 -47.5888 -47.5667 -47.5025 -47.4813 -47.4676 -47.3777
   -47.3672 -47.2897 -47.2659 -47.1807 -47.1358 -47.1285 -47.0760 -47.0597
   -47.0473 -47.0019 -46.9052 -46.8916 -46.8859 -46.8359 -46.8248 -46.8244
   -46.8139 -46.8045 -46.7999 -46.7913 -46.7535 -46.7288 -46.7281 -46.7197
   -46.7193 -46.7128 -46.6631 -46.6523  -6.2037  -4.6770  -4.3028  -3.9859
    -3.9414  -3.8427  -3.8163  -3.7571  -3.7256  -3.5262  -3.2915  -3.2718
    -2.9721  -2.5584  -2.4983  -2.3600  -2.0326  -1.9987  -1.8670  -1.7447
    -1.6541  -1.4892  -1.2855  -1.1862  -0.9853  -0.9490  -0.8481  -0.6457
    -0.4984  -0.4455  -0.4342  -0.3977  -0.3484  -0.3063  -0.1676   0.2186
     0.2985   0.3411   0.4704   0.5193   0.6127   0.6183   0.7053   0.8613
     0.9016   1.0875   1.1612   1.2186   1.6950   1.7729   1.7835   2.0279
     2.0580   2.1207   2.2066   2.3684   2.4855   2.6398   2.6602   2.8220
     3.0844   3.2143   3.3158   3.4419

          k = 0.0608-0.1404 0.0000 ( 16191 PWs)   bands (ev):

   -47.6273 -47.5782 -47.5702 -47.5276 -47.4933 -47.4893 -47.4611 -47.4543
   -47.3804 -47.3217 -47.2699 -47.2058 -47.1086 -47.0742 -47.0360 -47.0204
   -46.9977 -46.9682 -46.9493 -46.9051 -46.9026 -46.8968 -46.8523 -46.8359
   -46.8125 -46.8100 -46.8034 -46.7924 -46.7739 -46.7560 -46.7290 -46.7231
   -46.7203 -46.7124 -46.6785 -46.6631  -5.5825  -4.7406  -4.0262  -3.8308
    -3.6864  -3.5443  -3.4701  -3.4430  -3.2917  -3.2309  -3.0849  -2.8583
    -2.5629  -2.5348  -2.4606  -2.3554  -2.1248  -1.9932  -1.9617  -1.9292
    -1.7600  -1.5260  -1.4097  -1.3223  -1.1483  -0.9536  -0.8900  -0.7711
    -0.7323  -0.6727  -0.6059  -0.5683  -0.5225  -0.4669  -0.2924  -0.1098
    -0.0461   0.0230   0.0687   0.1302   0.2223   0.3267   0.7286   0.8104
     0.8823   0.9873   1.1221   1.2288   1.2624   1.4475   1.5843   1.7936
     1.8944   2.0663   2.2977   2.3409   2.4516   2.5700   2.6409   2.7202
     2.8754   3.0367   3.1178   3.1980

          k = 0.0608-0.1053 0.0000 ( 16242 PWs)   bands (ev):

   -47.5676 -47.5652 -47.5597 -47.5159 -47.5048 -47.4883 -47.4578 -47.4567
   -47.4523 -47.2874 -47.2868 -47.2347 -47.0592 -47.0457 -46.9963 -46.9930
   -46.9888 -46.9846 -46.9644 -46.9243 -46.9206 -46.9157 -46.8954 -46.8143
   -46.8130 -46.8094 -46.8025 -46.7987 -46.7976 -46.7363 -46.7282 -46.7269
   -46.7207 -46.7197 -46.7128 -46.6630  -4.7467  -4.7235  -4.6933  -3.5531
    -3.4043  -3.3905  -3.0629  -3.0278  -3.0069  -2.8787  -2.8438  -2.7998
    -2.7470  -2.6447  -2.6391  -2.3732  -2.2102  -1.8919  -1.8714  -1.8474
    -1.6720  -1.6111  -1.5460  -1.5388  -1.3572  -1.3398  -1.1928  -1.0992
    -1.0883  -0.9932  -0.9541  -0.5059  -0.4460  -0.3912  -0.3649  -0.1455
    -0.1368  -0.1316  -0.1046  -0.0427   0.0669   0.5577   0.5987   0.7666
     1.0721   1.1074   1.1231   1.2257   1.4270   1.5220   1.5364   1.8827
     2.3471   2.4010   2.4112   2.5000   2.5917   2.5953   2.6327   2.6470
     2.7087   2.7518   2.7818   2.8377

          k = 0.0608-0.0702 0.0000 ( 16191 PWs)   bands (ev):

   -47.6275 -47.5781 -47.5702 -47.5275 -47.4934 -47.4893 -47.4610 -47.4541
   -47.3805 -47.3218 -47.2702 -47.2057 -47.1086 -47.0742 -47.0360 -47.0204
   -46.9977 -46.9682 -46.9493 -46.9051 -46.9027 -46.8968 -46.8523 -46.8360
   -46.8126 -46.8097 -46.8036 -46.7925 -46.7739 -46.7560 -46.7291 -46.7230
   -46.7203 -46.7124 -46.6784 -46.6631  -5.5826  -4.7406  -4.0262  -3.8308
    -3.6864  -3.5443  -3.4701  -3.4431  -3.2916  -3.2310  -3.0849  -2.8584
    -2.5629  -2.5349  -2.4605  -2.3553  -2.1247  -1.9930  -1.9618  -1.9293
    -1.7601  -1.5260  -1.4097  -1.3221  -1.1484  -0.9537  -0.8900  -0.7711
    -0.7325  -0.6728  -0.6059  -0.5682  -0.5227  -0.4667  -0.2924  -0.1095
    -0.0462   0.0231   0.0687   0.1302   0.2223   0.3267   0.7285   0.8104
     0.8823   0.9874   1.1221   1.2288   1.2624   1.4475   1.5843   1.7937
     1.8944   2.0662   2.2978   2.3409   2.4516   2.5699   2.6409   2.7202
     2.8754   3.0367   3.1176   3.1982

          k =-0.0912 0.0527 0.0000 ( 16164 PWs)   bands (ev):

   -47.6347 -47.5900 -47.5719 -47.5045 -47.4893 -47.4710 -47.4637 -47.4325
   -47.3979 -47.3763 -47.2501 -47.1969 -47.1071 -47.0997 -47.0334 -47.0184
   -46.9595 -46.9508 -46.9224 -46.9171 -46.9068 -46.8909 -46.8790 -46.8557
   -46.8342 -46.8166 -46.8082 -46.8001 -46.7636 -46.7569 -46.7305 -46.7224
   -46.7155 -46.6927 -46.6770 -46.6632  -5.3064  -5.2879  -3.8572  -3.8178
    -3.5612  -3.5027  -3.4576  -3.4265  -3.4054  -3.3687  -2.9244  -2.8684
    -2.5569  -2.5045  -2.3727  -2.2994  -2.2766  -2.0447  -2.0205  -1.9941
    -1.5839  -1.5628  -1.3827  -1.0770  -1.0077  -0.7332  -0.7258  -0.7013
    -0.6963  -0.5983  -0.5805  -0.3498  -0.3358  -0.3182  -0.2900  -0.2717
    -0.2666  -0.2028  -0.1563  -0.1412   0.0432   0.5144   0.5555   0.7695
     0.9058   0.9251   1.0498   1.1744   1.3807   1.4138   1.4289   1.5740
     1.6128   1.9497   2.0144   2.0360   2.1075   2.1325   2.5785   2.8175
     3.0950   3.1629   3.3494   3.4670

          k =-0.0912 0.0878 0.0000 ( 16191 PWs)   bands (ev):

   -47.6275 -47.5781 -47.5702 -47.5275 -47.4937 -47.4891 -47.4609 -47.4534
   -47.3812 -47.3217 -47.2702 -47.2055 -47.1086 -47.0742 -47.0361 -47.0204
   -46.9977 -46.9682 -46.9494 -46.9052 -46.9026 -46.8963 -46.8523 -46.8363
   -46.8128 -46.8097 -46.8035 -46.7925 -46.7739 -46.7560 -46.7293 -46.7228
   -46.7201 -46.7127 -46.6784 -46.6630  -5.5825  -4.7406  -4.0262  -3.8308
    -3.6864  -3.5443  -3.4701  -3.4430  -3.2917  -3.2310  -3.0850  -2.8583
    -2.5630  -2.5348  -2.4606  -2.3553  -2.1246  -1.9931  -1.9617  -1.9293
    -1.7600  -1.5260  -1.4096  -1.3222  -1.1484  -0.9535  -0.8903  -0.7710
    -0.7322  -0.6726  -0.6059  -0.5686  -0.5226  -0.4667  -0.2927  -0.1099
    -0.0459   0.0232   0.0687   0.1301   0.2222   0.3267   0.7284   0.8106
     0.8821   0.9874   1.1222   1.2287   1.2623   1.4475   1.5841   1.7936
     1.8943   2.0663   2.2978   2.3409   2.4516   2.5700   2.6409   2.7203
     2.8754   3.0367   3.1176   3.1982

          k =-0.0912 0.1229 0.0000 ( 16191 PWs)   bands (ev):

   -47.6274 -47.5783 -47.5702 -47.5276 -47.4936 -47.4891 -47.4610 -47.4534
   -47.3814 -47.3216 -47.2700 -47.2057 -47.1086 -47.0742 -47.0361 -47.0204
   -46.9977 -46.9682 -46.9494 -46.9052 -46.9026 -46.8963 -46.8523 -46.8363
   -46.8126 -46.8100 -46.8034 -46.7924 -46.7738 -46.7560 -46.7293 -46.7228
   -46.7201 -46.7127 -46.6784 -46.6630  -5.5825  -4.7406  -4.0262  -3.8308
    -3.6864  -3.5443  -3.4701  -3.4430  -3.2917  -3.2310  -3.0850  -2.8583
    -2.5630  -2.5348  -2.4606  -2.3554  -2.1246  -1.9932  -1.9617  -1.9293
    -1.7600  -1.5260  -1.4096  -1.3223  -1.1484  -0.9536  -0.8901  -0.7709
    -0.7321  -0.6726  -0.6059  -0.5685  -0.5225  -0.4669  -0.2926  -0.1099
    -0.0459   0.0231   0.0686   0.1302   0.2222   0.3268   0.7284   0.8106
     0.8821   0.9875   1.1222   1.2287   1.2623   1.4475   1.5842   1.7936
     1.8943   2.0663   2.2978   2.3409   2.4515   2.5700   2.6408   2.7203
     2.8754   3.0366   3.1178   3.1980

          k =-0.0912-0.0527 0.0000 ( 16164 PWs)   bands (ev):

   -47.6345 -47.5903 -47.5718 -47.5048 -47.4889 -47.4710 -47.4639 -47.4327
   -47.3982 -47.3759 -47.2497 -47.1972 -47.1069 -47.0999 -47.0333 -47.0185
   -46.9598 -46.9506 -46.9225 -46.9169 -46.9068 -46.8909 -46.8791 -46.8556
   -46.8342 -46.8164 -46.8087 -46.7998 -46.7634 -46.7572 -46.7305 -46.7225
   -46.7155 -46.6926 -46.6770 -46.6632  -5.3064  -5.2879  -3.8572  -3.8177
    -3.5612  -3.5026  -3.4575  -3.4265  -3.4055  -3.3688  -2.9245  -2.8682
    -2.5570  -2.5044  -2.3725  -2.2996  -2.2767  -2.0446  -2.0206  -1.9942
    -1.5838  -1.5628  -1.3826  -1.0772  -1.0076  -0.7330  -0.7256  -0.7012
    -0.6963  -0.5985  -0.5806  -0.3502  -0.3355  -0.3182  -0.2899  -0.2716
    -0.2667  -0.2030  -0.1565  -0.1411   0.0432   0.5145   0.5553   0.7695
     0.9058   0.9251   1.0499   1.1742   1.3808   1.4139   1.4289   1.5741
     1.6127   1.9497   2.0144   2.0360   2.1076   2.1325   2.5785   2.8175
     3.0950   3.1629   3.3496   3.4668

     the Fermi energy is     2.4076 ev

!    total energy              =   -2200.97150254 Ry
     Harris-Foulkes estimate   =   -2200.97150609 Ry
     estimated scf accuracy    <       0.00000415 Ry

     The total energy is the sum of the following terms:

     one-electron contribution =  -18563.70671117 Ry
     hartree contribution      =    9311.49363297 Ry
     xc contribution           =    -624.42136212 Ry
     ewald contribution        =    7675.75714571 Ry
     electric field correction =       0.00000006 Ry
     smearing contrib. (-TS)   =      -0.09420799 Ry

     convergence has been achieved in  17 iterations
 
 BEEF-vdW xc energy contributions
           1 :   -553.145239717270     
           2 :    514.706866949170     
           3 :   -445.913450337045     
           4 :    360.208222359169     
           5 :   -272.425954974806     
           6 :    194.980779220455     
           7 :   -135.234263182872     
           8 :    94.6494202492597     
           9 :   -69.7789261560117     
          10 :    54.5275584268788     
          11 :   -42.7674587609326     
          12 :    30.3754887701037     
          13 :   -16.1145711418679     
          14 :    1.27844967489477     
          15 :    11.5330874650397     
          16 :   -19.9050486222059     
          17 :    22.7592746587243     
          18 :   -20.7832458718528     
          19 :    16.0721311833516     
          20 :   -11.2320203749987     
          21 :    8.36288699834995     
          22 :   -8.33729611193587     
          23 :    10.6316697535528     
          24 :   -13.7306203223111     
          25 :    15.8892927313796     
          26 :   -15.9122856017254     
          27 :    13.6250815963940     
          28 :   -9.86843730826331     
          29 :    6.05854430751333     
          30 :   -3.53701650286189     
          31 :   -47.3617641465482     
          32 :   -35.5215654969063     

     Forces acting on atoms (Ry/au):


     negative rho (up, down):  3.879E+00 0.000E+00
     atom    1 type  1   force =    -0.00336458   -0.00190268    0.01711552
     atom    2 type  1   force =     0.00336722   -0.00191642    0.01713704
     atom    3 type  1   force =    -0.00001036    0.00385235    0.01711286
     atom    4 type  1   force =     0.00000625   -0.00003001    0.00595268
     atom    5 type  1   force =     0.00001669   -0.00246164   -0.01164679
     atom    6 type  1   force =    -0.00002186   -0.00005092   -0.02061197
     atom    7 type  1   force =     0.00208061    0.00125532   -0.01153809
     atom    8 type  1   force =    -0.00208144    0.00127571   -0.01155690
     atom    9 type  1   force =     0.00001430    0.00000068   -0.00011694
     atom   10 type  1   force =    -0.00001695    0.00017328   -0.00071502
     atom   11 type  1   force =     0.00015086   -0.00011285   -0.00061183
     atom   12 type  1   force =    -0.00013991   -0.00008633   -0.00046265
     atom   13 type  2   force =    -0.00000083    0.00000353   -0.00005790

     Total force =     0.042497     Total SCF correction =     0.010768
     SCF correction compared to forces is large: reduce conv_thr to get better values


     entering subroutine stress ...


     negative rho (up, down):  3.879E+00 0.000E+00
          total   stress  (Ry/bohr**3)                   (kbar)     P=  -27.58
  -0.00023044   0.00000000   0.00000000        -33.90      0.00      0.00
   0.00000000  -0.00023047  -0.00000000          0.00    -33.90     -0.00
   0.00000000  -0.00000000  -0.00010147          0.00     -0.00    -14.93

 !ASE

     Writing output data file calc.save
 
     init_run     :     10.31s CPU     17.30s WALL (       1 calls)
     electrons    :    380.00s CPU    609.18s WALL (       1 calls)
     forces       :      3.26s CPU      4.08s WALL (       1 calls)
     stress       :      9.26s CPU     10.66s WALL (       1 calls)

     Called by init_run:
     wfcinit      :      8.05s CPU     14.03s WALL (       1 calls)
     potinit      :      0.98s CPU      1.64s WALL (       1 calls)

     Called by electrons:
     c_bands      :    283.75s CPU    446.50s WALL (      17 calls)
     sum_band     :     47.52s CPU     80.69s WALL (      17 calls)
     v_of_rho     :     14.36s CPU     25.78s WALL (      18 calls)
     newd         :      8.44s CPU      8.83s WALL (      18 calls)
     mix_rho      :      0.51s CPU      0.97s WALL (      17 calls)
     vdW_energy   :      2.34s CPU      2.36s WALL (      54 calls)
     vdW_ffts     :     24.84s CPU     48.85s WALL (     110 calls)
     vdW_v        :      4.97s CPU      8.60s WALL (      54 calls)

     Called by c_bands:
     init_us_2    :      0.78s CPU      0.82s WALL (     740 calls)
     cegterg      :    276.24s CPU    438.00s WALL (     340 calls)

     Called by *egterg:
     h_psi        :    181.61s CPU    332.88s WALL (    1417 calls)
     s_psi        :      9.53s CPU      9.60s WALL (    1417 calls)
     g_psi        :      0.48s CPU      0.48s WALL (    1057 calls)
     cdiaghg      :     54.96s CPU     57.66s WALL (    1397 calls)

     Called by h_psi:
     add_vuspsi   :     10.05s CPU     10.06s WALL (    1417 calls)

     General routines
     calbec       :     19.01s CPU     24.38s WALL (    1797 calls)
     fft          :     37.22s CPU     73.38s WALL (    3291 calls)
     ffts         :      0.11s CPU      0.21s WALL (      35 calls)
     fftw         :    182.25s CPU    359.78s WALL (  196288 calls)
     interpolate  :      0.50s CPU      0.96s WALL (      35 calls)
     davcio       :      0.00s CPU      0.02s WALL (      20 calls)
 
     Parallel routines
     fft_scatter  :    195.85s CPU    408.45s WALL (  199614 calls)
 
     PWSCF        :  6m43.51s CPU    10m42.32s WALL

 
   This run was terminated on:  22: 7:36  13Jan2018            

=------------------------------------------------------------------------------=
   JOB DONE.
=------------------------------------------------------------------------------=
Job  /afs/slac/g/suncat/bin/suncat-tsmpirun -x LD_LIBRARY_PATH -wdir /scratch/qe842452_QAWlc pw.x -in pw.inp

TID   HOST_NAME   COMMAND_LINE            STATUS            TERMINATION_TIME
===== ========== ================  =======================  ===================
00000 suncat0253 pw.x -in pw.inp   Done                     01/13/2018 22:07:36
00001 suncat0253 pw.x -in pw.inp   Done                     01/13/2018 22:07:36
00002 suncat0253 pw.x -in pw.inp   Done                     01/13/2018 22:07:36
00003 suncat0253 pw.x -in pw.inp   Done                     01/13/2018 22:07:36
00004 suncat0253 pw.x -in pw.inp   Done                     01/13/2018 22:07:36
00005 suncat0253 pw.x -in pw.inp   Done                     01/13/2018 22:07:36
00006 suncat0253 pw.x -in pw.inp   Done                     01/13/2018 22:07:36
00007 suncat0253 pw.x -in pw.inp   Done                     01/13/2018 22:07:36
00008 suncat0249 pw.x -in pw.inp   Done                     01/13/2018 22:07:36
00009 suncat0249 pw.x -in pw.inp   Done                     01/13/2018 22:07:36
00010 suncat0249 pw.x -in pw.inp   Done                     01/13/2018 22:07:36
00011 suncat0249 pw.x -in pw.inp   Done                     01/13/2018 22:07:36
00012 suncat0249 pw.x -in pw.inp   Done                     01/13/2018 22:07:36
00013 suncat0249 pw.x -in pw.inp   Done                     01/13/2018 22:07:36
00014 suncat0249 pw.x -in pw.inp   Done                     01/13/2018 22:07:36
00015 suncat0249 pw.x -in pw.inp   Done                     01/13/2018 22:07:36
00016 suncat0248 pw.x -in pw.inp   Done                     01/13/2018 22:07:36
00017 suncat0248 pw.x -in pw.inp   Done                     01/13/2018 22:07:36
00018 suncat0248 pw.x -in pw.inp   Done                     01/13/2018 22:07:36
00019 suncat0248 pw.x -in pw.inp   Done                     01/13/2018 22:07:36
00020 suncat0248 pw.x -in pw.inp   Done                     01/13/2018 22:07:36
00021 suncat0248 pw.x -in pw.inp   Done                     01/13/2018 22:07:36
00022 suncat0248 pw.x -in pw.inp   Done                     01/13/2018 22:07:36
00023 suncat0248 pw.x -in pw.inp   Done                     01/13/2018 22:07:36
00024 suncat0247 pw.x -in pw.inp   Done                     01/13/2018 22:07:36
00025 suncat0247 pw.x -in pw.inp   Done                     01/13/2018 22:07:36
00026 suncat0247 pw.x -in pw.inp   Done                     01/13/2018 22:07:36
00027 suncat0247 pw.x -in pw.inp   Done                     01/13/2018 22:07:36
00028 suncat0247 pw.x -in pw.inp   Done                     01/13/2018 22:07:36
00029 suncat0247 pw.x -in pw.inp   Done                     01/13/2018 22:07:36
00030 suncat0247 pw.x -in pw.inp   Done                     01/13/2018 22:07:36
00031 suncat0247 pw.x -in pw.inp   Done                     01/13/2018 22:07:36
