  python dir          : /u/if/mamunm/src/espresso
  espresso dir        : /nfs/slac/g/suncatfs/sw/espv18/espresso-dynpy-beef/bin
  pseudo dir          : /u/if/mamunm/psp/gbrv1.5pbe
  ase-espresso py git : GITVERSION



     Program PWSCF v.5.1rc2 (svn rev. 11289) starts on  2May2018 at 16:34:35 

     This program is part of the open-source Quantum ESPRESSO suite
     for quantum simulation of materials; please cite
         "P. Giannozzi et al., J. Phys.:Condens. Matter 21 395502 (2009);
          URL http://www.quantum-espresso.org", 
     in publications or presentations arising from this work. More details at
     http://www.quantum-espresso.org/quote

     Parallel version (MPI), running on    32 processors
     K-points division:     npool     =       4
     R & G space division:  proc/nbgrp/npool/nimage =       8
     Reading input from pw.inp
     Message from routine read_cards :
     DEPRECATED: no units specified in CELL_PARAMETERS card

     Current dimensions of program PWSCF are:
     Max number of different atomic species (ntypx) = 10
     Max number of k-points (npk) =  40000
     Max angular momentum in pseudopotentials (lmaxx) =  3
     Presently stress not available with electric field


     **************************************************************************
     Initializing libbeef V0.1.1 with the BEEF-vdW functional.
     Citation: Wellendorff et al., PRB 85, 235149 (2012).
     **************************************************************************


     IMPORTANT: XC functional enforced from input :
     Exchange-correlation      = BEEF-VDW ( 1  4 27 13 2)
     Any further DFT definition will be discarded
     Please, verify this is what you really want


     Subspace diagonalization in iterative solution of the eigenvalue problem:
     a serial algorithm will be used

 
     Parallelization info
     --------------------
     sticks:   dense  smooth     PW     G-vecs:    dense   smooth      PW
     Min         339     133     39                63987    16111    2561
     Max         340     134     40                64016    16172    2582
     Sum        2713    1069    313               511963   129143   20533
 


     bravais-lattice index     =            0
     lattice parameter (alat)  =       1.8897  a.u.
     unit-cell volume          =    4301.6107 (a.u.)^3
     number of atoms/cell      =           13
     number of atomic types    =            2
     number of electrons       =       185.00
     number of Kohn-Sham states=          102
     kinetic-energy cutoff     =      36.7493  Ry
     charge density cutoff     =     367.4932  Ry
     convergence threshold     =      1.0E-05
     mixing beta               =       0.3000
     number of iterations used =           10  plain     mixing
     Exchange-correlation      = BEEF-VDW ( 1  4 27 13 2)
     nstep                     =           50


     celldm(1)=   1.889726  celldm(2)=   0.000000  celldm(3)=   0.000000
     celldm(4)=   0.000000  celldm(5)=   0.000000  celldm(6)=   0.000000

     crystal axes: (cart. coord. in units of alat)
               a(1) = (   5.483647   0.000000   0.000000 )  
               a(2) = (   2.741823   4.748977   0.000000 )  
               a(3) = (   0.000000   0.000000  24.477379 )  

     reciprocal axes: (cart. coord. in units 2 pi/alat)
               b(1) = (  0.182360 -0.105286  0.000000 )  
               b(2) = (  0.000000  0.210572  0.000000 )  
               b(3) = (  0.000000  0.000000  0.040854 )  


     PseudoPot. # 1 for Tc read from file:
     /u/if/mamunm/psp/gbrv1.5pbe/Tc.UPF
     MD5 check sum: 9eb49e5b028550b2339a02317eb7b844
     Pseudo is Ultrasoft + core correction, Zval = 15.0
     Generated by new atomic code, or converted to UPF format
     Using radial grid of  965 points,  6 beta functions with: 
                l(1) =   0
                l(2) =   0
                l(3) =   1
                l(4) =   1
                l(5) =   2
                l(6) =   2
     Q(r) pseudized with  8 coefficients,  rinner =    1.300   1.300   1.300
                                                       1.300   1.300

     PseudoPot. # 2 for N  read from file:
     /u/if/mamunm/psp/gbrv1.5pbe/N.UPF
     MD5 check sum: 95339753478d7afb44899504a8723017
     Pseudo is Ultrasoft + core correction, Zval =  5.0
     Generated by new atomic code, or converted to UPF format
     Using radial grid of  729 points,  4 beta functions with: 
                l(1) =   0
                l(2) =   0
                l(3) =   1
                l(4) =   1
     Q(r) pseudized with  8 coefficients,  rinner =    0.900   0.900   0.900


     vdW kernel table read from file vdW_kernel_table
     MD5 check sum: 095c7af220d748ca6e76c0b4c6cfb241

     atomic species   valence    mass     pseudopotential
        Tc1           15.00    97.90721     Tc( 1.00)
        N1             5.00    14.00700     N ( 1.00)

     No symmetry found



   Cartesian axes

     site n.     atom                  positions (alat units)
         1           Tc1 tau(   1) = (   1.3709117   0.7914962  10.0000000  )
         2           Tc1 tau(   2) = (   4.1127351   0.7914962  10.0000000  )
         3           Tc1 tau(   3) = (   2.7418234   3.1659850  10.0000000  )
         4           Tc1 tau(   4) = (   5.4836469   3.1659850  10.0000000  )
         5           Tc1 tau(   5) = (   5.4836469   1.5829925  12.2386895  )
         6           Tc1 tau(   6) = (   2.7418234   1.5829925  12.2386895  )
         7           Tc1 tau(   7) = (   6.8545586   3.9574812  12.2386895  )
         8           Tc1 tau(   8) = (   4.1127351   3.9574812  12.2386895  )
         9           Tc1 tau(   9) = (   0.0000000   0.0000000  14.4773789  )
        10           Tc1 tau(  10) = (   2.7418234   0.0000000  14.4773789  )
        11           Tc1 tau(  11) = (   1.3709117   2.3744887  14.4773789  )
        12           Tc1 tau(  12) = (   4.1127351   2.3744887  14.4773789  )
        13           N1  tau(  13) = (   1.3709117   0.7914962  15.8943789  )

     number of k points=    20  Fermi-Dirac smearing, width (Ry)=  0.0110
                       cart. coord. in units 2pi/alat
        k(    1) = (   0.0000000   0.0000000   0.0000000), wk =   0.0555556
        k(    2) = (   0.0000000   0.0350953   0.0000000), wk =   0.1111111
        k(    3) = (   0.0000000   0.0701905   0.0000000), wk =   0.1111111
        k(    4) = (   0.0000000  -0.1052858   0.0000000), wk =   0.0555556
        k(    5) = (   0.0303934  -0.0175476   0.0000000), wk =   0.1111111
        k(    6) = (   0.0303934   0.0175476   0.0000000), wk =   0.1111111
        k(    7) = (   0.0303934   0.0526429   0.0000000), wk =   0.1111111
        k(    8) = (   0.0303934  -0.1228335   0.0000000), wk =   0.1111111
        k(    9) = (   0.0303934  -0.0877382   0.0000000), wk =   0.1111111
        k(   10) = (   0.0303934  -0.0526429   0.0000000), wk =   0.1111111
        k(   11) = (   0.0607868  -0.0350953   0.0000000), wk =   0.1111111
        k(   12) = (   0.0607868   0.0000000   0.0000000), wk =   0.1111111
        k(   13) = (   0.0607868   0.0350953   0.0000000), wk =   0.1111111
        k(   14) = (   0.0607868  -0.1403811   0.0000000), wk =   0.1111111
        k(   15) = (   0.0607868  -0.1052858   0.0000000), wk =   0.1111111
        k(   16) = (   0.0607868  -0.0701905   0.0000000), wk =   0.1111111
        k(   17) = (  -0.0911802   0.0526429   0.0000000), wk =   0.0555556
        k(   18) = (  -0.0911802   0.0877382   0.0000000), wk =   0.1111111
        k(   19) = (  -0.0911802   0.1228335   0.0000000), wk =   0.1111111
        k(   20) = (  -0.0911802  -0.0526429   0.0000000), wk =   0.0555556

     Dense  grid:   511963 G-vectors     FFT dimensions: (  64,  64, 288)

     Smooth grid:   129143 G-vectors     FFT dimensions: (  40,  40, 180)

     Largest allocated arrays     est. size (Mb)     dimensions
        Kohn-Sham Wavefunctions         3.18 Mb     (    2045,  102)
        NL pseudopotentials             6.99 Mb     (    2045,  224)
        Each V/rho on FFT grid          2.25 Mb     (  147456)
        Each G-vector array             0.49 Mb     (   63995)
        G-vector shells                 0.13 Mb     (   17029)
     Largest temporary arrays     est. size (Mb)     dimensions
        Auxiliary wavefunctions        12.73 Mb     (    2045,  408)
        Each subspace H/S matrix        2.54 Mb     (     408,  408)
        Each <psi_i|beta_j> matrix      0.35 Mb     (     224,  102)
        Arrays for rho mixing          22.50 Mb     (  147456,   10)

     Check: negative/imaginary core charge=   -0.000022    0.000000

     Initial potential from superposition of free atoms
     Check: negative starting charge=   -1.504918

     starting charge  172.99966, renormalised to  185.00000

     negative rho (up, down):  1.609E+00 0.000E+00


     ************************************************************************
     *
     * You are using vdW-DF for exchange-correlation in this calculation.
     * Please cite the following three references that made this development
     * possible:
     *
     *   M. Dion, H. Rydberg, E. Schroder, D. C. Langreth, and
     *   B. I. Lundqvist, Phys. Rev. Lett. 92, 246401 (2004).
     *
     *   T. Thonhauser, V. R. Cooper, S. Li, A. Puzder, P. Hyldgaard, and
     *   D. C. Langreth, Phys. Rev. B 76, 125112 (2007).
     *
     *   G. Roman-Perez and J. M. Soler, Phys. Rev. Lett. 103, 096102 (2009).
     *
     *
     * If you are using vdW-DF2, please also cite:
     *
     *   K. Lee, E. D. Murray, L. Kong, B. I. Lundqvist, and
     *   D. C. Langreth, Phys. Rev. B 82, 081101(R) (2010).
     *
     *
     * If you are calculating the stress with vdW-DF, please also cite:
     *
     *   R. Sabatini, E. Kucukbenli, B. Kolb, T. Thonhauser, and
     *   S. de Gironcoli, J. Phys.: Condens. Matter 24, 424209 (2012).
     *
     ************************************************************************

     Carrying out vdW-DF run using the following parameters:

     Nqs =      20    Nr_points =    1024   r_max =   100.000
     q_mesh =
               0.00001000     0.04494208     0.09755937     0.15916263
               0.23128650     0.31572767     0.41458969     0.53033537
               0.66584808     0.82450364     1.01025438     1.22772762
               1.48234092     1.78043706     2.12944203     2.53805004
               3.01644009     3.57652955     4.23227104     5.00000000

     Gradients computed in reciprocal space

     ************************************************************************


 
     Adding external electric field

     Computed dipole along edir(3) : 
        Dipole               -2.3959 Ry au,         -6.0899 Debye
        Dipole field         -0.0070 Ry au
 
        Potential amp.        0.6313 Ry
        Total length         45.0992 bohr
 
     Starting wfc are  160 randomized atomic wfcs

     total cpu time spent up to now is       10.4 secs

     per-process dynamical memory:    74.2 Mb

     Self-consistent Calculation

     iteration #  1     ecut=    36.75 Ry     beta=0.30
     Davidson diagonalization with overlap
     ethr =  1.00E-02,  avg # of iterations =  7.3

     negative rho (up, down):  1.602E+00 0.000E+00
 
     Adding external electric field

     Computed dipole along edir(3) : 
        Dipole               51.6645 Ry au,        131.3181 Debye
        Dipole field          0.1509 Ry au
 
        Potential amp.      -13.6135 Ry
        Total length         45.0992 bohr
 

     total cpu time spent up to now is       29.8 secs

     total energy              =   -1979.86320452 Ry
     Harris-Foulkes estimate   =   -2123.81365858 Ry
     estimated scf accuracy    <     302.24901025 Ry

     iteration #  2     ecut=    36.75 Ry     beta=0.30
     Davidson diagonalization with overlap
     ethr =  1.00E-02,  avg # of iterations = 16.2

     negative rho (up, down):  1.575E+00 0.000E+00
 
     Adding external electric field

     Computed dipole along edir(3) : 
        Dipole                6.3223 Ry au,         16.0698 Debye
        Dipole field          0.0185 Ry au
 
        Potential amp.       -1.6659 Ry
        Total length         45.0992 bohr
 

     total cpu time spent up to now is       79.4 secs

     total energy              =   -1817.14947605 Ry
     Harris-Foulkes estimate   =   -2758.88819510 Ry
     estimated scf accuracy    <   18108.54136515 Ry

     iteration #  3     ecut=    36.75 Ry     beta=0.30
     Davidson diagonalization with overlap
     ethr =  1.00E-02,  avg # of iterations = 13.8

     negative rho (up, down):  1.564E+00 0.000E+00
 
     Adding external electric field

     Computed dipole along edir(3) : 
        Dipole                7.7429 Ry au,         19.6806 Debye
        Dipole field          0.0226 Ry au
 
        Potential amp.       -2.0402 Ry
        Total length         45.0992 bohr
 

     total cpu time spent up to now is      115.9 secs

     total energy              =   -2067.72838065 Ry
     Harris-Foulkes estimate   =   -2240.41047065 Ry
     estimated scf accuracy    <    2231.72788238 Ry

     iteration #  4     ecut=    36.75 Ry     beta=0.30
     Davidson diagonalization with overlap
     ethr =  1.00E-02,  avg # of iterations =  6.3

     negative rho (up, down):  1.643E+00 0.000E+00
 
     Adding external electric field

     Computed dipole along edir(3) : 
        Dipole                5.6168 Ry au,         14.2764 Debye
        Dipole field          0.0164 Ry au
 
        Potential amp.       -1.4800 Ry
        Total length         45.0992 bohr
 

     total cpu time spent up to now is      140.0 secs

     total energy              =   -2108.60670935 Ry
     Harris-Foulkes estimate   =   -2134.42510223 Ry
     estimated scf accuracy    <     387.19979371 Ry

     iteration #  5     ecut=    36.75 Ry     beta=0.30
     Davidson diagonalization with overlap
     ethr =  1.00E-02,  avg # of iterations =  5.8

     negative rho (up, down):  1.584E+00 0.000E+00
 
     Adding external electric field

     Computed dipole along edir(3) : 
        Dipole                5.2281 Ry au,         13.2885 Debye
        Dipole field          0.0153 Ry au
 
        Potential amp.       -1.3776 Ry
        Total length         45.0992 bohr
 

     total cpu time spent up to now is      162.9 secs

     total energy              =   -2120.63479793 Ry
     Harris-Foulkes estimate   =   -2131.37297030 Ry
     estimated scf accuracy    <     243.59986406 Ry

     iteration #  6     ecut=    36.75 Ry     beta=0.30
     Davidson diagonalization with overlap
     ethr =  1.00E-02,  avg # of iterations =  4.7

     negative rho (up, down):  1.582E+00 0.000E+00
 
     Adding external electric field

     Computed dipole along edir(3) : 
        Dipole                4.3971 Ry au,         11.1762 Debye
        Dipole field          0.0128 Ry au
 
        Potential amp.       -1.1586 Ry
        Total length         45.0992 bohr
 

     total cpu time spent up to now is      179.1 secs

     total energy              =   -2124.47622924 Ry
     Harris-Foulkes estimate   =   -2125.00291857 Ry
     estimated scf accuracy    <       5.47504736 Ry

     iteration #  7     ecut=    36.75 Ry     beta=0.30
     Davidson diagonalization with overlap
     ethr =  2.96E-03,  avg # of iterations =  6.5

     negative rho (up, down):  1.586E+00 0.000E+00
 
     Adding external electric field

     Computed dipole along edir(3) : 
        Dipole                2.9196 Ry au,          7.4210 Debye
        Dipole field          0.0085 Ry au
 
        Potential amp.       -0.7693 Ry
        Total length         45.0992 bohr
 

     total cpu time spent up to now is      196.6 secs

     total energy              =   -2123.70136466 Ry
     Harris-Foulkes estimate   =   -2125.07537893 Ry
     estimated scf accuracy    <      23.07326490 Ry

     iteration #  8     ecut=    36.75 Ry     beta=0.30
     Davidson diagonalization with overlap
     ethr =  2.96E-03,  avg # of iterations =  4.0

     negative rho (up, down):  1.610E+00 0.000E+00
 
     Adding external electric field

     Computed dipole along edir(3) : 
        Dipole                0.4038 Ry au,          1.0262 Debye
        Dipole field          0.0012 Ry au
 
        Potential amp.       -0.1064 Ry
        Total length         45.0992 bohr
 

     total cpu time spent up to now is      213.0 secs

     total energy              =   -2123.35731927 Ry
     Harris-Foulkes estimate   =   -2124.22549392 Ry
     estimated scf accuracy    <       2.65785305 Ry

     iteration #  9     ecut=    36.75 Ry     beta=0.30
     Davidson diagonalization with overlap
     ethr =  1.44E-03,  avg # of iterations =  5.0

     negative rho (up, down):  1.592E+00 0.000E+00
 
     Adding external electric field

     Computed dipole along edir(3) : 
        Dipole                0.8974 Ry au,          2.2810 Debye
        Dipole field          0.0026 Ry au
 
        Potential amp.       -0.2365 Ry
        Total length         45.0992 bohr
 

     total cpu time spent up to now is      233.2 secs

     total energy              =   -2123.88377841 Ry
     Harris-Foulkes estimate   =   -2125.61068899 Ry
     estimated scf accuracy    <     131.06607084 Ry

     iteration # 10     ecut=    36.75 Ry     beta=0.30
     Davidson diagonalization with overlap
     ethr =  1.44E-03,  avg # of iterations =  4.0

     negative rho (up, down):  1.590E+00 0.000E+00
 
     Adding external electric field

     Computed dipole along edir(3) : 
        Dipole                0.7654 Ry au,          1.9455 Debye
        Dipole field          0.0022 Ry au
 
        Potential amp.       -0.2017 Ry
        Total length         45.0992 bohr
 

     total cpu time spent up to now is      249.2 secs

     total energy              =   -2123.54723984 Ry
     Harris-Foulkes estimate   =   -2124.31900640 Ry
     estimated scf accuracy    <      45.90094226 Ry

     iteration # 11     ecut=    36.75 Ry     beta=0.30
     Davidson diagonalization with overlap
     ethr =  1.44E-03,  avg # of iterations =  4.8

     negative rho (up, down):  1.591E+00 0.000E+00
 
     Adding external electric field

     Computed dipole along edir(3) : 
        Dipole               -0.3446 Ry au,         -0.8758 Debye
        Dipole field         -0.0010 Ry au
 
        Potential amp.        0.0908 Ry
        Total length         45.0992 bohr
 

     total cpu time spent up to now is      265.7 secs

     total energy              =   -2123.57047761 Ry
     Harris-Foulkes estimate   =   -2123.80102009 Ry
     estimated scf accuracy    <       7.50752805 Ry

     iteration # 12     ecut=    36.75 Ry     beta=0.30
     Davidson diagonalization with overlap
     ethr =  1.44E-03,  avg # of iterations =  2.8

     negative rho (up, down):  1.592E+00 0.000E+00
 
     Adding external electric field

     Computed dipole along edir(3) : 
        Dipole               -0.7479 Ry au,         -1.9011 Debye
        Dipole field         -0.0022 Ry au
 
        Potential amp.        0.1971 Ry
        Total length         45.0992 bohr
 

     total cpu time spent up to now is      280.8 secs

     total energy              =   -2123.65444414 Ry
     Harris-Foulkes estimate   =   -2123.66853986 Ry
     estimated scf accuracy    <       0.56520481 Ry

     iteration # 13     ecut=    36.75 Ry     beta=0.30
     Davidson diagonalization with overlap
     ethr =  3.06E-04,  avg # of iterations =  5.9

     negative rho (up, down):  1.593E+00 0.000E+00
 
     Adding external electric field

     Computed dipole along edir(3) : 
        Dipole               -0.4638 Ry au,         -1.1787 Debye
        Dipole field         -0.0014 Ry au
 
        Potential amp.        0.1222 Ry
        Total length         45.0992 bohr
 

     total cpu time spent up to now is      298.7 secs

     total energy              =   -2123.67551001 Ry
     Harris-Foulkes estimate   =   -2123.70372711 Ry
     estimated scf accuracy    <       0.17994430 Ry

     iteration # 14     ecut=    36.75 Ry     beta=0.30
     Davidson diagonalization with overlap
     ethr =  9.73E-05,  avg # of iterations =  5.2

     negative rho (up, down):  1.592E+00 0.000E+00
 
     Adding external electric field

     Computed dipole along edir(3) : 
        Dipole               -0.4569 Ry au,         -1.1614 Debye
        Dipole field         -0.0013 Ry au
 
        Potential amp.        0.1204 Ry
        Total length         45.0992 bohr
 

     total cpu time spent up to now is      316.3 secs

     total energy              =   -2123.64992322 Ry
     Harris-Foulkes estimate   =   -2123.70716769 Ry
     estimated scf accuracy    <       1.56176482 Ry

     iteration # 15     ecut=    36.75 Ry     beta=0.30
     Davidson diagonalization with overlap
     ethr =  9.73E-05,  avg # of iterations =  5.1

     negative rho (up, down):  1.592E+00 0.000E+00
 
     Adding external electric field

     Computed dipole along edir(3) : 
        Dipole               -0.2967 Ry au,         -0.7542 Debye
        Dipole field         -0.0009 Ry au
 
        Potential amp.        0.0782 Ry
        Total length         45.0992 bohr
 

     total cpu time spent up to now is      334.3 secs

     total energy              =   -2123.67961140 Ry
     Harris-Foulkes estimate   =   -2123.68639884 Ry
     estimated scf accuracy    <       0.10598292 Ry

     iteration # 16     ecut=    36.75 Ry     beta=0.30
     Davidson diagonalization with overlap
     ethr =  5.73E-05,  avg # of iterations =  1.6

     negative rho (up, down):  1.591E+00 0.000E+00
 
     Adding external electric field

     Computed dipole along edir(3) : 
        Dipole               -0.2778 Ry au,         -0.7061 Debye
        Dipole field         -0.0008 Ry au
 
        Potential amp.        0.0732 Ry
        Total length         45.0992 bohr
 

     total cpu time spent up to now is      349.3 secs

     total energy              =   -2123.68183266 Ry
     Harris-Foulkes estimate   =   -2123.68258717 Ry
     estimated scf accuracy    <       0.00390467 Ry

     iteration # 17     ecut=    36.75 Ry     beta=0.30
     Davidson diagonalization with overlap
     ethr =  2.11E-06,  avg # of iterations =  6.1

     negative rho (up, down):  1.591E+00 0.000E+00
 
     Adding external electric field

     Computed dipole along edir(3) : 
        Dipole               -0.3016 Ry au,         -0.7666 Debye
        Dipole field         -0.0009 Ry au
 
        Potential amp.        0.0795 Ry
        Total length         45.0992 bohr
 

     total cpu time spent up to now is      370.5 secs

     total energy              =   -2123.68229790 Ry
     Harris-Foulkes estimate   =   -2123.68342446 Ry
     estimated scf accuracy    <       0.03409583 Ry

     iteration # 18     ecut=    36.75 Ry     beta=0.30
     Davidson diagonalization with overlap
     ethr =  2.11E-06,  avg # of iterations =  4.8

     negative rho (up, down):  1.591E+00 0.000E+00
 
     Adding external electric field

     Computed dipole along edir(3) : 
        Dipole               -0.2898 Ry au,         -0.7365 Debye
        Dipole field         -0.0008 Ry au
 
        Potential amp.        0.0764 Ry
        Total length         45.0992 bohr
 

     total cpu time spent up to now is      387.7 secs

     total energy              =   -2123.68277348 Ry
     Harris-Foulkes estimate   =   -2123.68294670 Ry
     estimated scf accuracy    <       0.00125302 Ry

     iteration # 19     ecut=    36.75 Ry     beta=0.30
     Davidson diagonalization with overlap
     ethr =  6.77E-07,  avg # of iterations =  3.7

     negative rho (up, down):  1.591E+00 0.000E+00
 
     Adding external electric field

     Computed dipole along edir(3) : 
        Dipole               -0.2533 Ry au,         -0.6438 Debye
        Dipole field         -0.0007 Ry au
 
        Potential amp.        0.0667 Ry
        Total length         45.0992 bohr
 

     total cpu time spent up to now is      403.9 secs

     total energy              =   -2123.68279738 Ry
     Harris-Foulkes estimate   =   -2123.68293060 Ry
     estimated scf accuracy    <       0.00069598 Ry

     iteration # 20     ecut=    36.75 Ry     beta=0.30
     Davidson diagonalization with overlap
     ethr =  3.76E-07,  avg # of iterations =  3.5

     negative rho (up, down):  1.591E+00 0.000E+00
 
     Adding external electric field

     Computed dipole along edir(3) : 
        Dipole               -0.2475 Ry au,         -0.6290 Debye
        Dipole field         -0.0007 Ry au
 
        Potential amp.        0.0652 Ry
        Total length         45.0992 bohr
 

     total cpu time spent up to now is      420.5 secs

     total energy              =   -2123.68282100 Ry
     Harris-Foulkes estimate   =   -2123.68284995 Ry
     estimated scf accuracy    <       0.00022953 Ry

     iteration # 21     ecut=    36.75 Ry     beta=0.30
     Davidson diagonalization with overlap
     ethr =  1.24E-07,  avg # of iterations =  3.5

     negative rho (up, down):  1.591E+00 0.000E+00
 
     Adding external electric field

     Computed dipole along edir(3) : 
        Dipole               -0.2416 Ry au,         -0.6141 Debye
        Dipole field         -0.0007 Ry au
 
        Potential amp.        0.0637 Ry
        Total length         45.0992 bohr
 

     total cpu time spent up to now is      436.9 secs

     total energy              =   -2123.68282468 Ry
     Harris-Foulkes estimate   =   -2123.68284787 Ry
     estimated scf accuracy    <       0.00019244 Ry

     iteration # 22     ecut=    36.75 Ry     beta=0.30
     Davidson diagonalization with overlap
     ethr =  1.04E-07,  avg # of iterations =  1.2

     negative rho (up, down):  1.591E+00 0.000E+00
 
     Adding external electric field

     Computed dipole along edir(3) : 
        Dipole               -0.2362 Ry au,         -0.6003 Debye
        Dipole field         -0.0007 Ry au
 
        Potential amp.        0.0622 Ry
        Total length         45.0992 bohr
 

     total cpu time spent up to now is      452.2 secs

     total energy              =   -2123.68282432 Ry
     Harris-Foulkes estimate   =   -2123.68283773 Ry
     estimated scf accuracy    <       0.00009739 Ry

     iteration # 23     ecut=    36.75 Ry     beta=0.30
     Davidson diagonalization with overlap
     ethr =  5.26E-08,  avg # of iterations =  3.0

     negative rho (up, down):  1.591E+00 0.000E+00

     negative rho (up, down):  1.591E+00 0.000E+00

     negative rho (up, down):  1.591E+00 0.000E+00

     negative rho (up, down):  1.591E+00 0.000E+00

     negative rho (up, down):  1.591E+00 0.000E+00

     negative rho (up, down):  1.591E+00 0.000E+00

     negative rho (up, down):  1.591E+00 0.000E+00

     negative rho (up, down):  1.591E+00 0.000E+00

     negative rho (up, down):  1.591E+00 0.000E+00

     negative rho (up, down):  1.591E+00 0.000E+00

     negative rho (up, down):  1.591E+00 0.000E+00

     negative rho (up, down):  1.591E+00 0.000E+00

     negative rho (up, down):  1.591E+00 0.000E+00

     negative rho (up, down):  1.591E+00 0.000E+00

     negative rho (up, down):  1.591E+00 0.000E+00

     negative rho (up, down):  1.591E+00 0.000E+00

     negative rho (up, down):  1.591E+00 0.000E+00

     negative rho (up, down):  1.591E+00 0.000E+00

     negative rho (up, down):  1.591E+00 0.000E+00

     negative rho (up, down):  1.591E+00 0.000E+00

     negative rho (up, down):  1.591E+00 0.000E+00

     negative rho (up, down):  1.591E+00 0.000E+00

     negative rho (up, down):  1.591E+00 0.000E+00

     negative rho (up, down):  1.591E+00 0.000E+00

     negative rho (up, down):  1.591E+00 0.000E+00

     negative rho (up, down):  1.591E+00 0.000E+00

     negative rho (up, down):  1.591E+00 0.000E+00

     negative rho (up, down):  1.591E+00 0.000E+00

     negative rho (up, down):  1.591E+00 0.000E+00

     negative rho (up, down):  1.591E+00 0.000E+00

     negative rho (up, down):  1.591E+00 0.000E+00

     negative rho (up, down):  1.591E+00 0.000E+00

     negative rho (up, down):  1.591E+00 0.000E+00

     negative rho (up, down):  1.591E+00 0.000E+00

     negative rho (up, down):  1.591E+00 0.000E+00
 
     Adding external electric field

     Computed dipole along edir(3) : 
        Dipole               -0.2411 Ry au,         -0.6127 Debye
        Dipole field         -0.0007 Ry au
 
        Potential amp.        0.0635 Ry
        Total length         45.0992 bohr
 

     total cpu time spent up to now is      510.6 secs

     End of self-consistent calculation

          k = 0.0000 0.0000 0.0000 ( 16073 PWs)   bands (ev):

   -65.1087 -65.0080 -64.9480 -64.9474 -64.9270 -64.9127 -64.9126 -64.8296
   -64.7543 -64.7150 -64.7007 -64.7000 -37.5665 -37.5309 -37.5305 -37.5084
   -37.4233 -37.4054 -37.4050 -37.2472 -37.2468 -37.2461 -36.9619 -36.9413
   -36.9411 -36.8718 -36.8318 -36.8316 -36.8138 -36.8085 -36.8083 -36.7898
   -36.6781 -36.6778 -36.6730 -36.6427 -36.6423 -36.6419 -36.5776 -36.5639
   -36.5638 -36.4982 -36.4980 -36.4980 -36.4451 -36.4448 -36.2998 -36.2998
   -11.3795  -4.2639  -3.1195  -3.1194  -3.1084  -2.9478  -2.8736  -2.6877
    -2.6875  -2.6490  -2.5113  -2.4239  -2.4236  -2.1816  -2.1815  -2.1626
    -1.2892  -1.2891  -0.9718  -0.3592  -0.3591  -0.0438   0.0405   0.0405
     0.1716   0.4496   0.5006   0.5006   0.8203   0.8205   0.8897   0.9935
     0.9935   1.1278   1.1278   1.3085   1.5487   1.6747   1.6750   2.3869
     2.5032   2.5450   2.5450   2.8725   2.8726   3.0272   3.0274   3.4047
     3.4047   3.4153   3.7408   4.0830   4.0833   4.2072

          k = 0.0000 0.0351 0.0000 ( 16137 PWs)   bands (ev):

   -65.0984 -65.0014 -64.9571 -64.9478 -64.9310 -64.9151 -64.9126 -64.8215
   -64.7558 -64.7188 -64.7049 -64.7003 -37.5288 -37.4983 -37.4856 -37.4679
   -37.4035 -37.3758 -37.3690 -37.2201 -37.2176 -37.1989 -36.9757 -36.9587
   -36.9490 -36.9006 -36.8704 -36.8448 -36.8134 -36.8034 -36.7913 -36.7621
   -36.7172 -36.7128 -36.6643 -36.6502 -36.6349 -36.6302 -36.6137 -36.5879
   -36.5790 -36.5292 -36.5291 -36.4922 -36.4855 -36.4565 -36.3574 -36.3132
   -11.3653  -4.0277  -2.9912  -2.9234  -2.9061  -2.7450  -2.6418  -2.5882
    -2.4947  -2.4675  -2.3757  -2.2978  -2.2705  -2.0559  -1.9572  -1.9373
    -1.2373  -1.1957  -0.9203  -0.4630  -0.4227   0.0243   0.0710   0.1285
     0.1587   0.2309   0.3365   0.6915   0.7232   0.7363   0.9065   0.9463
     0.9713   1.1105   1.2000   1.2577   1.3334   1.5344   1.5717   1.9420
     2.1673   2.2788   2.5074   2.5877   2.7211   2.8123   2.9341   2.9748
     3.1605   3.3600   3.5453   3.5618   3.9044   3.9066

          k = 0.0000 0.0702 0.0000 ( 16149 PWs)   bands (ev):

   -65.0700 -64.9929 -64.9768 -64.9480 -64.9390 -64.9222 -64.9125 -64.7995
   -64.7588 -64.7375 -64.7085 -64.7003 -37.4436 -37.4174 -37.4022 -37.3514
   -37.3268 -37.3077 -37.2949 -37.1664 -37.1468 -37.0965 -37.0098 -37.0040
   -36.9862 -36.9394 -36.9022 -36.8603 -36.8191 -36.8177 -36.7781 -36.7768
   -36.7525 -36.7502 -36.7271 -36.6816 -36.6549 -36.6451 -36.6400 -36.6086
   -36.6056 -36.5930 -36.5890 -36.5805 -36.4936 -36.4867 -36.4485 -36.3496
   -11.3371  -3.4206  -2.7024  -2.5223  -2.4472  -2.3966  -2.2459  -2.0787
    -2.0115  -1.9856  -1.9300  -1.8891  -1.8586  -1.7039  -1.4927  -1.4453
    -1.0238  -0.8574  -0.8523  -0.7358  -0.5252  -0.4121  -0.2227   0.0476
     0.1464   0.2427   0.2759   0.4732   0.5744   0.5895   0.7428   0.7985
     0.9121   0.9818   1.1741   1.2534   1.2813   1.3320   1.4336   1.6784
     1.6871   1.8172   1.8599   1.9660   2.0271   2.1244   2.3451   2.4741
     2.5568   2.8467   3.0458   3.1922   3.2340   3.2461

          k = 0.0000-0.1053 0.0000 ( 16164 PWs)   bands (ev):

   -65.0361 -65.0240 -64.9608 -64.9537 -64.9481 -64.9253 -64.9124 -64.7745
   -64.7641 -64.7583 -64.7091 -64.7003 -37.3860 -37.3596 -37.3496 -37.3007
   -37.2977 -37.2683 -37.1686 -37.1246 -37.1135 -37.0990 -37.0573 -37.0543
   -36.9731 -36.9420 -36.9243 -36.8348 -36.8320 -36.8268 -36.8121 -36.7880
   -36.7664 -36.7574 -36.7288 -36.7120 -36.7078 -36.6858 -36.6800 -36.6772
   -36.6093 -36.6088 -36.5992 -36.5738 -36.5631 -36.5060 -36.4058 -36.3931
   -11.3230  -2.8704  -2.7417  -2.3342  -2.0822  -2.0481  -2.0466  -1.8749
    -1.7581  -1.6361  -1.6289  -1.5343  -1.4511  -1.2780  -1.1513  -1.1230
    -1.1165  -0.8796  -0.8654  -0.6692  -0.4644  -0.4391  -0.3144  -0.2635
    -0.2510  -0.0186   0.1813   0.3015   0.5823   0.6475   0.7414   0.7532
     0.7965   0.8647   0.9344   0.9870   1.0377   1.0800   1.1423   1.2274
     1.3360   1.6790   1.6826   2.0751   2.0795   2.0882   2.1404   2.1607
     2.4350   2.5522   2.5892   2.7305   2.8259   2.8968

          k = 0.0304-0.0175 0.0000 ( 16137 PWs)   bands (ev):

   -65.0984 -65.0014 -64.9572 -64.9475 -64.9312 -64.9151 -64.9126 -64.8215
   -64.7558 -64.7190 -64.7043 -64.7007 -37.5288 -37.4985 -37.4853 -37.4680
   -37.4036 -37.3756 -37.3691 -37.2203 -37.2174 -37.1989 -36.9757 -36.9586
   -36.9491 -36.9007 -36.8703 -36.8450 -36.8134 -36.8035 -36.7913 -36.7620
   -36.7173 -36.7126 -36.6644 -36.6502 -36.6352 -36.6301 -36.6136 -36.5878
   -36.5791 -36.5293 -36.5291 -36.4923 -36.4855 -36.4563 -36.3574 -36.3132
   -11.3653  -4.0277  -2.9912  -2.9234  -2.9061  -2.7449  -2.6418  -2.5881
    -2.4948  -2.4674  -2.3756  -2.2980  -2.2704  -2.0559  -1.9571  -1.9374
    -1.2373  -1.1956  -0.9203  -0.4629  -0.4228   0.0243   0.0709   0.1285
     0.1587   0.2310   0.3365   0.6915   0.7232   0.7363   0.9065   0.9465
     0.9713   1.1104   1.1999   1.2577   1.3335   1.5343   1.5718   1.9421
     2.1673   2.2787   2.5074   2.5877   2.7212   2.8123   2.9341   2.9748
     3.1605   3.3600   3.5452   3.5618   3.9045   3.9066

          k = 0.0304 0.0175 0.0000 ( 16137 PWs)   bands (ev):

   -65.0984 -65.0014 -64.9570 -64.9480 -64.9309 -64.9152 -64.9125 -64.8215
   -64.7558 -64.7188 -64.7051 -64.7002 -37.5288 -37.4981 -37.4859 -37.4678
   -37.4035 -37.3760 -37.3688 -37.2200 -37.2177 -37.1989 -36.9757 -36.9588
   -36.9489 -36.9005 -36.8706 -36.8446 -36.8135 -36.8033 -36.7914 -36.7621
   -36.7172 -36.7129 -36.6642 -36.6502 -36.6350 -36.6301 -36.6138 -36.5879
   -36.5790 -36.5293 -36.5291 -36.4922 -36.4855 -36.4566 -36.3574 -36.3132
   -11.3653  -4.0277  -2.9912  -2.9234  -2.9061  -2.7450  -2.6418  -2.5882
    -2.4946  -2.4676  -2.3757  -2.2977  -2.2706  -2.0559  -1.9572  -1.9373
    -1.2373  -1.1957  -0.9203  -0.4630  -0.4227   0.0243   0.0711   0.1285
     0.1587   0.2309   0.3364   0.6915   0.7232   0.7363   0.9065   0.9462
     0.9713   1.1106   1.2000   1.2577   1.3334   1.5344   1.5717   1.9420
     2.1673   2.2788   2.5074   2.5877   2.7211   2.8124   2.9341   2.9748
     3.1605   3.3600   3.5453   3.5619   3.9045   3.9065

          k = 0.0304 0.0526 0.0000 ( 16202 PWs)   bands (ev):

   -65.0790 -64.9903 -64.9708 -64.9581 -64.9294 -64.9213 -64.9130 -64.8064
   -64.7580 -64.7268 -64.7162 -64.6963 -37.4720 -37.4364 -37.4006 -37.3940
   -37.3665 -37.3212 -37.3157 -37.1859 -37.1513 -37.1317 -37.0047 -36.9901
   -36.9726 -36.9478 -36.9020 -36.8379 -36.8182 -36.7986 -36.7926 -36.7724
   -36.7464 -36.7116 -36.7014 -36.6875 -36.6622 -36.6411 -36.6241 -36.6148
   -36.6115 -36.5906 -36.5570 -36.5017 -36.5003 -36.4830 -36.4511 -36.3421
   -11.3441  -3.5981  -2.7067  -2.6513  -2.5509  -2.4680  -2.3157  -2.3002
    -2.2036  -2.1441  -2.0691  -2.0148  -1.9463  -1.7653  -1.6713  -1.5395
    -1.1235  -0.9794  -0.8798  -0.6511  -0.4866  -0.3132  -0.0539   0.0109
     0.1792   0.2153   0.3894   0.5606   0.6215   0.6811   0.6829   0.7816
     0.9474   1.0558   1.0909   1.1830   1.2830   1.4197   1.6099   1.7051
     1.7904   1.8778   2.0403   2.2161   2.2840   2.3780   2.3846   2.5519
     2.6735   2.9307   2.9830   3.3236   3.3534   3.5783

          k = 0.0304-0.1228 0.0000 ( 16203 PWs)   bands (ev):

   -65.0454 -65.0044 -64.9760 -64.9603 -64.9373 -64.9230 -64.9141 -64.7809
   -64.7604 -64.7478 -64.7243 -64.6927 -37.3865 -37.3559 -37.3157 -37.3074
   -37.2782 -37.2628 -37.2324 -37.1657 -37.1083 -37.0751 -37.0588 -37.0341
   -36.9846 -36.9652 -36.9002 -36.8648 -36.8507 -36.8228 -36.7940 -36.7836
   -36.7711 -36.7426 -36.7331 -36.7192 -36.6989 -36.6880 -36.6628 -36.6460
   -36.6274 -36.6134 -36.5855 -36.5506 -36.5381 -36.5191 -36.4516 -36.3929
   -11.3230  -2.9433  -2.5076  -2.2497  -2.1234  -2.0797  -1.9633  -1.8920
    -1.7335  -1.6753  -1.5903  -1.5779  -1.4827  -1.3243  -1.2455  -1.1989
    -1.1071  -0.8452  -0.8108  -0.7268  -0.5416  -0.4904  -0.3670  -0.1804
    -0.1191  -0.0255   0.0714   0.2240   0.3893   0.5170   0.5433   0.6137
     0.7571   0.7894   0.8565   0.8632   1.0434   1.1911   1.2928   1.4091
     1.5114   1.5488   1.7668   1.8951   2.0492   2.1376   2.2411   2.3481
     2.4248   2.5823   2.6223   2.8352   2.9124   3.1418

          k = 0.0304-0.0877 0.0000 ( 16203 PWs)   bands (ev):

   -65.0455 -65.0043 -64.9759 -64.9605 -64.9371 -64.9230 -64.9141 -64.7809
   -64.7604 -64.7480 -64.7242 -64.6927 -37.3867 -37.3558 -37.3157 -37.3074
   -37.2783 -37.2628 -37.2324 -37.1654 -37.1086 -37.0751 -37.0589 -37.0341
   -36.9842 -36.9650 -36.9006 -36.8649 -36.8505 -36.8230 -36.7944 -36.7832
   -36.7710 -36.7427 -36.7331 -36.7193 -36.6990 -36.6880 -36.6627 -36.6459
   -36.6275 -36.6134 -36.5855 -36.5506 -36.5381 -36.5190 -36.4516 -36.3929
   -11.3230  -2.9433  -2.5076  -2.2497  -2.1235  -2.0797  -1.9634  -1.8919
    -1.7337  -1.6753  -1.5902  -1.5778  -1.4827  -1.3243  -1.2454  -1.1989
    -1.1071  -0.8452  -0.8108  -0.7268  -0.5415  -0.4904  -0.3670  -0.1804
    -0.1190  -0.0254   0.0714   0.2240   0.3894   0.5170   0.5433   0.6135
     0.7572   0.7893   0.8566   0.8632   1.0433   1.1911   1.2928   1.4091
     1.5114   1.5488   1.7670   1.8951   2.0490   2.1376   2.2410   2.3481
     2.4250   2.5824   2.6223   2.8352   2.9125   3.1417

          k = 0.0304-0.0526 0.0000 ( 16202 PWs)   bands (ev):

   -65.0790 -64.9903 -64.9708 -64.9579 -64.9297 -64.9209 -64.9132 -64.8064
   -64.7580 -64.7272 -64.7157 -64.6965 -37.4721 -37.4364 -37.4003 -37.3942
   -37.3666 -37.3206 -37.3160 -37.1860 -37.1511 -37.1317 -37.0043 -36.9905
   -36.9725 -36.9479 -36.9019 -36.8379 -36.8182 -36.7989 -36.7925 -36.7722
   -36.7462 -36.7118 -36.7014 -36.6878 -36.6621 -36.6410 -36.6243 -36.6148
   -36.6113 -36.5909 -36.5570 -36.5015 -36.5004 -36.4828 -36.4511 -36.3421
   -11.3441  -3.5981  -2.7066  -2.6514  -2.5510  -2.4679  -2.3157  -2.3002
    -2.2037  -2.1443  -2.0691  -2.0148  -1.9462  -1.7653  -1.6712  -1.5395
    -1.1235  -0.9794  -0.8799  -0.6509  -0.4866  -0.3132  -0.0539   0.0108
     0.1793   0.2152   0.3894   0.5606   0.6215   0.6811   0.6828   0.7817
     0.9475   1.0557   1.0909   1.1830   1.2830   1.4197   1.6100   1.7051
     1.7903   1.8777   2.0403   2.2163   2.2838   2.3780   2.3846   2.5519
     2.6735   2.9308   2.9831   3.3231   3.3540   3.5912

          k = 0.0608-0.0351 0.0000 ( 16149 PWs)   bands (ev):

   -65.0700 -64.9929 -64.9769 -64.9477 -64.9391 -64.9222 -64.9125 -64.7995
   -64.7588 -64.7377 -64.7079 -64.7007 -37.4437 -37.4177 -37.4020 -37.3515
   -37.3268 -37.3074 -37.2950 -37.1666 -37.1465 -37.0965 -37.0098 -37.0039
   -36.9864 -36.9394 -36.9021 -36.8604 -36.8191 -36.8175 -36.7779 -36.7770
   -36.7523 -36.7503 -36.7272 -36.6816 -36.6549 -36.6453 -36.6398 -36.6088
   -36.6057 -36.5929 -36.5891 -36.5805 -36.4936 -36.4865 -36.4484 -36.3496
   -11.3371  -3.4206  -2.7024  -2.5223  -2.4473  -2.3966  -2.2458  -2.0787
    -2.0115  -1.9857  -1.9301  -1.8890  -1.8585  -1.7038  -1.4926  -1.4453
    -1.0239  -0.8575  -0.8523  -0.7357  -0.5252  -0.4121  -0.2227   0.0476
     0.1464   0.2427   0.2760   0.4732   0.5744   0.5896   0.7428   0.7985
     0.9121   0.9818   1.1742   1.2534   1.2812   1.3319   1.4335   1.6783
     1.6871   1.8173   1.8599   1.9660   2.0272   2.1244   2.3450   2.4741
     2.5569   2.8466   3.0458   3.1923   3.2341   3.2460

          k = 0.0608 0.0000 0.0000 ( 16202 PWs)   bands (ev):

   -65.0790 -64.9903 -64.9708 -64.9580 -64.9296 -64.9211 -64.9131 -64.8064
   -64.7580 -64.7271 -64.7158 -64.6964 -37.4721 -37.4364 -37.4005 -37.3941
   -37.3665 -37.3209 -37.3158 -37.1859 -37.1512 -37.1317 -37.0045 -36.9903
   -36.9725 -36.9478 -36.9020 -36.8379 -36.8182 -36.7987 -36.7926 -36.7724
   -36.7463 -36.7117 -36.7014 -36.6876 -36.6622 -36.6411 -36.6243 -36.6147
   -36.6113 -36.5908 -36.5570 -36.5016 -36.5003 -36.4829 -36.4511 -36.3421
   -11.3441  -3.5981  -2.7067  -2.6513  -2.5510  -2.4679  -2.3157  -2.3002
    -2.2036  -2.1442  -2.0691  -2.0148  -1.9462  -1.7653  -1.6713  -1.5395
    -1.1235  -0.9794  -0.8799  -0.6510  -0.4867  -0.3132  -0.0539   0.0109
     0.1792   0.2152   0.3894   0.5606   0.6215   0.6811   0.6828   0.7817
     0.9475   1.0557   1.0909   1.1830   1.2830   1.4197   1.6100   1.7051
     1.7903   1.8778   2.0403   2.2162   2.2839   2.3780   2.3846   2.5519
     2.6735   2.9307   2.9830   3.3234   3.3537   3.5785

          k = 0.0608 0.0351 0.0000 ( 16149 PWs)   bands (ev):

   -65.0700 -64.9929 -64.9768 -64.9482 -64.9389 -64.9221 -64.9124 -64.7995
   -64.7588 -64.7375 -64.7086 -64.7002 -37.4436 -37.4171 -37.4025 -37.3513
   -37.3268 -37.3079 -37.2949 -37.1663 -37.1469 -37.0965 -37.0099 -37.0040
   -36.9860 -36.9394 -36.9021 -36.8602 -36.8191 -36.8178 -36.7783 -36.7768
   -36.7525 -36.7502 -36.7270 -36.6816 -36.6549 -36.6451 -36.6401 -36.6084
   -36.6056 -36.5931 -36.5889 -36.5805 -36.4937 -36.4869 -36.4485 -36.3496
   -11.3371  -3.4206  -2.7024  -2.5223  -2.4472  -2.3967  -2.2459  -2.0787
    -2.0115  -1.9856  -1.9300  -1.8891  -1.8587  -1.7039  -1.4927  -1.4453
    -1.0237  -0.8574  -0.8524  -0.7359  -0.5253  -0.4121  -0.2227   0.0476
     0.1464   0.2427   0.2759   0.4732   0.5745   0.5896   0.7428   0.7985
     0.9121   0.9818   1.1739   1.2535   1.2813   1.3320   1.4336   1.6784
     1.6871   1.8172   1.8599   1.9660   2.0271   2.1244   2.3452   2.4741
     2.5568   2.8466   3.0458   3.1922   3.2340   3.2462

          k = 0.0608-0.1404 0.0000 ( 16203 PWs)   bands (ev):

   -65.0454 -65.0044 -64.9760 -64.9602 -64.9376 -64.9227 -64.9141 -64.7810
   -64.7605 -64.7478 -64.7244 -64.6927 -37.3865 -37.3558 -37.3157 -37.3074
   -37.2781 -37.2631 -37.2324 -37.1656 -37.1084 -37.0752 -37.0588 -37.0341
   -36.9844 -36.9651 -36.9003 -36.8649 -36.8506 -36.8228 -36.7942 -36.7835
   -36.7709 -36.7426 -36.7332 -36.7194 -36.6989 -36.6879 -36.6628 -36.6460
   -36.6273 -36.6134 -36.5853 -36.5506 -36.5381 -36.5193 -36.4516 -36.3929
   -11.3230  -2.9433  -2.5077  -2.2496  -2.1233  -2.0797  -1.9633  -1.8920
    -1.7336  -1.6753  -1.5903  -1.5779  -1.4826  -1.3243  -1.2454  -1.1989
    -1.1071  -0.8453  -0.8107  -0.7268  -0.5416  -0.4904  -0.3670  -0.1804
    -0.1191  -0.0254   0.0714   0.2240   0.3894   0.5170   0.5433   0.6137
     0.7571   0.7893   0.8566   0.8632   1.0434   1.1911   1.2928   1.4092
     1.5114   1.5487   1.7668   1.8952   2.0492   2.1376   2.2411   2.3481
     2.4249   2.5824   2.6222   2.8352   2.9124   3.1417

          k = 0.0608-0.1053 0.0000 ( 16272 PWs)   bands (ev):

   -65.0176 -65.0115 -64.9999 -64.9495 -64.9445 -64.9229 -64.9142 -64.7632
   -64.7619 -64.7470 -64.7461 -64.6888 -37.3200 -37.2908 -37.2739 -37.2733
   -37.2649 -37.2352 -37.2031 -37.1708 -37.1706 -37.1263 -37.0275 -37.0042
   -36.9934 -36.9556 -36.9219 -36.8770 -36.8589 -36.8588 -36.8284 -36.7818
   -36.7758 -36.7419 -36.7271 -36.7187 -36.7072 -36.7000 -36.6754 -36.6721
   -36.6343 -36.6058 -36.5764 -36.5724 -36.5618 -36.4709 -36.4705 -36.4578
   -11.3160  -2.5440  -2.2512  -2.2455  -1.7662  -1.7651  -1.7431  -1.6488
    -1.6307  -1.5162  -1.5130  -1.3481  -1.2684  -1.2282  -1.2199  -1.1746
    -1.0298  -1.0165  -0.9358  -0.6230  -0.6008  -0.3242  -0.2423  -0.2361
    -0.1881  -0.1477  -0.0248   0.0103   0.0677   0.0960   0.1176   0.1962
     0.3576   0.4479   0.7379   0.7697   1.0961   1.1841   1.2221   1.2615
     1.2928   1.4621   1.6148   1.9828   2.0470   2.2839   2.3947   2.4273
     2.4369   2.6953   2.7164   2.7788   2.9168   2.9360

          k = 0.0608-0.0702 0.0000 ( 16203 PWs)   bands (ev):

   -65.0455 -65.0043 -64.9760 -64.9605 -64.9368 -64.9233 -64.9141 -64.7809
   -64.7604 -64.7481 -64.7240 -64.6928 -37.3867 -37.3559 -37.3157 -37.3074
   -37.2783 -37.2625 -37.2323 -37.1655 -37.1086 -37.0749 -37.0589 -37.0341
   -36.9844 -36.9650 -36.9005 -36.8648 -36.8506 -36.8230 -36.7942 -36.7833
   -36.7711 -36.7427 -36.7332 -36.7191 -36.6989 -36.6880 -36.6627 -36.6460
   -36.6276 -36.6134 -36.5856 -36.5505 -36.5381 -36.5188 -36.4516 -36.3930
   -11.3230  -2.9433  -2.5075  -2.2497  -2.1235  -2.0797  -1.9633  -1.8919
    -1.7336  -1.6753  -1.5903  -1.5778  -1.4827  -1.3243  -1.2454  -1.1988
    -1.1071  -0.8451  -0.8109  -0.7269  -0.5416  -0.4904  -0.3669  -0.1804
    -0.1190  -0.0255   0.0715   0.2240   0.3894   0.5170   0.5433   0.6136
     0.7571   0.7893   0.8566   0.8632   1.0433   1.1910   1.2928   1.4090
     1.5114   1.5489   1.7669   1.8950   2.0491   2.1376   2.2409   2.3481
     2.4249   2.5823   2.6224   2.8352   2.9125   3.1418

          k =-0.0912 0.0526 0.0000 ( 16164 PWs)   bands (ev):

   -65.0363 -65.0238 -64.9611 -64.9535 -64.9478 -64.9255 -64.9124 -64.7742
   -64.7644 -64.7585 -64.7085 -64.7007 -37.3861 -37.3601 -37.3493 -37.3012
   -37.2974 -37.2680 -37.1685 -37.1244 -37.1139 -37.0987 -37.0576 -37.0540
   -36.9731 -36.9419 -36.9245 -36.8345 -36.8320 -36.8268 -36.8122 -36.7881
   -36.7664 -36.7574 -36.7287 -36.7121 -36.7081 -36.6854 -36.6804 -36.6767
   -36.6095 -36.6087 -36.5994 -36.5740 -36.5629 -36.5057 -36.4054 -36.3935
   -11.3230  -2.8705  -2.7415  -2.3343  -2.0822  -2.0479  -2.0468  -1.8751
    -1.7579  -1.6361  -1.6288  -1.5343  -1.4512  -1.2779  -1.1512  -1.1230
    -1.1165  -0.8796  -0.8655  -0.6693  -0.4643  -0.4393  -0.3143  -0.2634
    -0.2509  -0.0186   0.1814   0.3013   0.5823   0.6475   0.7414   0.7531
     0.7965   0.8648   0.9344   0.9871   1.0376   1.0799   1.1423   1.2272
     1.3363   1.6789   1.6826   2.0753   2.0796   2.0881   2.1402   2.1607
     2.4351   2.5522   2.5892   2.7306   2.8259   2.8968

          k =-0.0912 0.0877 0.0000 ( 16203 PWs)   bands (ev):

   -65.0455 -65.0043 -64.9760 -64.9605 -64.9369 -64.9233 -64.9140 -64.7809
   -64.7604 -64.7481 -64.7240 -64.6928 -37.3866 -37.3560 -37.3157 -37.3074
   -37.2783 -37.2625 -37.2323 -37.1656 -37.1084 -37.0749 -37.0589 -37.0341
   -36.9846 -36.9652 -36.9003 -36.8647 -36.8507 -36.8228 -36.7940 -36.7834
   -36.7712 -36.7427 -36.7331 -36.7191 -36.6989 -36.6881 -36.6628 -36.6460
   -36.6276 -36.6134 -36.5856 -36.5505 -36.5381 -36.5189 -36.4516 -36.3930
   -11.3230  -2.9433  -2.5075  -2.2498  -2.1235  -2.0797  -1.9633  -1.8920
    -1.7335  -1.6753  -1.5903  -1.5779  -1.4827  -1.3243  -1.2455  -1.1988
    -1.1072  -0.8452  -0.8109  -0.7269  -0.5416  -0.4903  -0.3669  -0.1804
    -0.1190  -0.0255   0.0715   0.2240   0.3893   0.5170   0.5433   0.6136
     0.7571   0.7893   0.8566   0.8632   1.0434   1.1910   1.2928   1.4090
     1.5115   1.5489   1.7669   1.8950   2.0491   2.1377   2.2410   2.3481
     2.4248   2.5823   2.6224   2.8352   2.9125   3.1417

          k =-0.0912 0.1228 0.0000 ( 16203 PWs)   bands (ev):

   -65.0454 -65.0044 -64.9760 -64.9603 -64.9375 -64.9227 -64.9142 -64.7809
   -64.7604 -64.7479 -64.7242 -64.6927 -37.3865 -37.3557 -37.3157 -37.3074
   -37.2782 -37.2631 -37.2324 -37.1654 -37.1086 -37.0752 -37.0589 -37.0342
   -36.9842 -36.9650 -36.9005 -36.8649 -36.8505 -36.8230 -36.7944 -36.7833
   -36.7709 -36.7427 -36.7331 -36.7194 -36.6990 -36.6879 -36.6627 -36.6460
   -36.6274 -36.6133 -36.5854 -36.5506 -36.5381 -36.5192 -36.4516 -36.3929
   -11.3230  -2.9433  -2.5077  -2.2496  -2.1234  -2.0797  -1.9634  -1.8920
    -1.7337  -1.6753  -1.5902  -1.5779  -1.4826  -1.3244  -1.2454  -1.1990
    -1.1071  -0.8452  -0.8108  -0.7268  -0.5415  -0.4905  -0.3670  -0.1804
    -0.1190  -0.0254   0.0714   0.2240   0.3893   0.5170   0.5433   0.6136
     0.7572   0.7893   0.8566   0.8632   1.0433   1.1911   1.2928   1.4092
     1.5114   1.5487   1.7669   1.8952   2.0491   2.1376   2.2410   2.3481
     2.4250   2.5824   2.6223   2.8352   2.9124   3.1417

          k =-0.0912-0.0526 0.0000 ( 16164 PWs)   bands (ev):

   -65.0359 -65.0243 -64.9604 -64.9541 -64.9483 -64.9251 -64.9124 -64.7746
   -64.7640 -64.7583 -64.7092 -64.7002 -37.3859 -37.3592 -37.3500 -37.3004
   -37.2979 -37.2687 -37.1688 -37.1248 -37.1132 -37.0993 -37.0570 -37.0545
   -36.9732 -36.9420 -36.9240 -36.8350 -36.8322 -36.8267 -36.8119 -36.7880
   -36.7664 -36.7574 -36.7288 -36.7120 -36.7075 -36.6861 -36.6799 -36.6774
   -36.6091 -36.6088 -36.5990 -36.5736 -36.5633 -36.5063 -36.4059 -36.3930
   -11.3230  -2.8703  -2.7418  -2.3340  -2.0822  -2.0483  -2.0464  -1.8748
    -1.7583  -1.6362  -1.6289  -1.5343  -1.4511  -1.2782  -1.1514  -1.1230
    -1.1164  -0.8795  -0.8653  -0.6691  -0.4644  -0.4390  -0.3145  -0.2635
    -0.2511  -0.0185   0.1813   0.3015   0.5823   0.6476   0.7414   0.7533
     0.7965   0.8646   0.9345   0.9870   1.0377   1.0801   1.1423   1.2276
     1.3357   1.6790   1.6826   2.0750   2.0794   2.0885   2.1405   2.1606
     2.4350   2.5523   2.5892   2.7305   2.8259   2.8968

     the Fermi energy is     2.1837 ev

!    total energy              =   -2123.68282046 Ry
     Harris-Foulkes estimate   =   -2123.68282088 Ry
     estimated scf accuracy    <       0.00000789 Ry

     The total energy is the sum of the following terms:

     one-electron contribution =  -19096.12748670 Ry
     hartree contribution      =    9547.34620642 Ry
     xc contribution           =    -402.35070627 Ry
     ewald contribution        =    7827.53750408 Ry
     electric field correction =       0.00016976 Ry
     smearing contrib. (-TS)   =      -0.08850774 Ry

     convergence has been achieved in  23 iterations
 
 BEEF-vdW xc energy contributions
           1 :   -352.444270044481     
           2 :    323.968602912865     
           3 :   -273.359347653803     
           4 :    210.808400236971     
           5 :   -147.155195395415     
           6 :    90.9036778146778     
           7 :   -46.5810853037439     
           8 :    14.6390007619539     
           9 :    7.28282521529377     
          10 :   -22.5043961806402     
          11 :    33.6250296743285     
          12 :   -41.6612401868699     
          13 :    46.1202510942004     
          14 :   -45.8142095769347     
          15 :    39.9070457563864     
          16 :   -28.7240495244387     
          17 :    13.9845941924475     
          18 :    1.58495511368591     
          19 :   -15.0698843989328     
          20 :    24.2371714007837     
          21 :   -28.1103539806852     
          22 :    27.0368835646839     
          23 :   -22.2959525740608     
          24 :    15.4696292820882     
          25 :   -7.88357554442780     
          26 :   0.338656769239378     
          27 :    6.81150211362535     
          28 :   -13.3660038973834     
          29 :    18.9763695888753     
          30 :   -23.0269402937429     
          31 :   -33.6239194703845     
          32 :   -24.6676350753837     

     Forces acting on atoms (Ry/au):


     negative rho (up, down):  1.591E+00 0.000E+00
     atom    1 type  1   force =    -0.00002233    0.00001110    0.03026138
     atom    2 type  1   force =     0.00003011   -0.00363894    0.02964300
     atom    3 type  1   force =    -0.00317380    0.00182559    0.02961456
     atom    4 type  1   force =     0.00315311    0.00179769    0.02971828
     atom    5 type  1   force =    -0.00169390    0.00096856   -0.00124978
     atom    6 type  1   force =     0.00168141    0.00091928   -0.00121634
     atom    7 type  1   force =    -0.00002925    0.00002876   -0.05788479
     atom    8 type  1   force =     0.00001653   -0.00191519   -0.00119492
     atom    9 type  1   force =     0.01913803    0.01106999    0.04422450
     atom   10 type  1   force =    -0.01912476    0.01103644    0.04431680
     atom   11 type  1   force =    -0.00003494   -0.02209595    0.04427104
     atom   12 type  1   force =     0.00005184   -0.00000225   -0.05367220
     atom   13 type  2   force =     0.00000797   -0.00000510   -0.13683154

     Total force =     0.170141     Total SCF correction =     0.001683


     entering subroutine stress ...


     negative rho (up, down):  1.591E+00 0.000E+00
          total   stress  (Ry/bohr**3)                   (kbar)     P=  -36.42
  -0.00023555  -0.00000002   0.00000001        -34.65     -0.00      0.00
  -0.00000002  -0.00023557  -0.00000001         -0.00    -34.65     -0.00
   0.00000001  -0.00000001  -0.00027171          0.00     -0.00    -39.97


     BFGS Geometry Optimization

     number of scf cycles    =   1
     number of bfgs steps    =   0

     energy   new            =   -2123.6828204565 Ry

     new trust radius        =       0.1368315383 bohr
     new conv_thr            =       0.0000099958 Ry


ATOMIC_POSITIONS (crystal)
Tc1      0.166666667   0.166666667   0.408540475    0   0   0
Tc1      0.666666667   0.166666667   0.408540475    0   0   0
Tc1      0.166666667   0.666666667   0.408540475    0   0   0
Tc1      0.666666667   0.666666667   0.408540475    0   0   0
Tc1      0.833333333   0.333333333   0.500000000    0   0   0
Tc1      0.333333333   0.333333333   0.500000000    0   0   0
Tc1      0.833333333   0.833333333   0.500000000    0   0   0
Tc1      0.333333333   0.833333333   0.500000000    0   0   0
Tc1      0.001230075   0.001233526   0.592415616
Tc1      0.497539548   0.001229787   0.592417612
Tc1      0.001227701   0.497537855   0.592416622
Tc1      0.500005128   0.499999749   0.590299184
N1       0.166667720   0.166666099   0.646391545



     Writing output data file calc.save
     Check: negative starting charge=   -1.504918
     NEW-OLD atomic charge density approx. for the potential

     Check: negative/imaginary core charge=   -0.000022    0.000000
     Check: negative starting charge=   -1.508218

     negative rho (up, down):  1.594E+00 0.000E+00
 
     Adding external electric field

     Computed dipole along edir(3) : 
        Dipole               -0.1619 Ry au,         -0.4116 Debye
        Dipole field         -0.0005 Ry au
 
        Potential amp.        0.0427 Ry
        Total length         45.0992 bohr
 

     total cpu time spent up to now is      565.2 secs

     per-process dynamical memory:   101.3 Mb

     Self-consistent Calculation

     iteration #  1     ecut=    36.75 Ry     beta=0.30
     Davidson diagonalization with overlap
     ethr =  1.00E-06,  avg # of iterations = 11.9

     negative rho (up, down):  1.594E+00 0.000E+00
 
     Adding external electric field

     Computed dipole along edir(3) : 
        Dipole               -1.2811 Ry au,         -3.2563 Debye
        Dipole field         -0.0037 Ry au
 
        Potential amp.        0.3376 Ry
        Total length         45.0992 bohr
 

     total cpu time spent up to now is      598.5 secs

     total energy              =   -2123.60720830 Ry
     Harris-Foulkes estimate   =   -2123.70819091 Ry
     estimated scf accuracy    <       0.21097262 Ry

     iteration #  2     ecut=    36.75 Ry     beta=0.30
     Davidson diagonalization with overlap
     ethr =  1.14E-04,  avg # of iterations =  6.8

     negative rho (up, down):  1.594E+00 0.000E+00
 
     Adding external electric field

     Computed dipole along edir(3) : 
        Dipole               -0.1846 Ry au,         -0.4693 Debye
        Dipole field         -0.0005 Ry au
 
        Potential amp.        0.0486 Ry
        Total length         45.0992 bohr
 

     total cpu time spent up to now is      621.1 secs

     total energy              =   -2122.41946395 Ry
     Harris-Foulkes estimate   =   -2124.95058772 Ry
     estimated scf accuracy    <     108.86132435 Ry

     iteration #  3     ecut=    36.75 Ry     beta=0.30
     Davidson diagonalization with overlap
     ethr =  1.14E-04,  avg # of iterations =  6.2

     negative rho (up, down):  1.594E+00 0.000E+00
 
     Adding external electric field

     Computed dipole along edir(3) : 
        Dipole               -0.2202 Ry au,         -0.5598 Debye
        Dipole field         -0.0006 Ry au
 
        Potential amp.        0.0580 Ry
        Total length         45.0992 bohr
 

     total cpu time spent up to now is      644.1 secs

     total energy              =   -2123.67357661 Ry
     Harris-Foulkes estimate   =   -2123.73937358 Ry
     estimated scf accuracy    <       0.94548595 Ry

     iteration #  4     ecut=    36.75 Ry     beta=0.30
     Davidson diagonalization with overlap
     ethr =  1.14E-04,  avg # of iterations =  3.9

     negative rho (up, down):  1.594E+00 0.000E+00
 
     Adding external electric field

     Computed dipole along edir(3) : 
        Dipole               -0.1942 Ry au,         -0.4935 Debye
        Dipole field         -0.0006 Ry au
 
        Potential amp.        0.0512 Ry
        Total length         45.0992 bohr
 

     total cpu time spent up to now is      661.4 secs

     total energy              =   -2123.70541610 Ry
     Harris-Foulkes estimate   =   -2123.70763025 Ry
     estimated scf accuracy    <       0.01272679 Ry

     iteration #  5     ecut=    36.75 Ry     beta=0.30
     Davidson diagonalization with overlap
     ethr =  6.88E-06,  avg # of iterations =  5.2

     negative rho (up, down):  1.594E+00 0.000E+00
 
     Adding external electric field

     Computed dipole along edir(3) : 
        Dipole               -0.1858 Ry au,         -0.4723 Debye
        Dipole field         -0.0005 Ry au
 
        Potential amp.        0.0490 Ry
        Total length         45.0992 bohr
 

     total cpu time spent up to now is      680.6 secs

     total energy              =   -2123.70716389 Ry
     Harris-Foulkes estimate   =   -2123.70755132 Ry
     estimated scf accuracy    <       0.00197444 Ry

     iteration #  6     ecut=    36.75 Ry     beta=0.30
     Davidson diagonalization with overlap
     ethr =  1.07E-06,  avg # of iterations =  4.5

     negative rho (up, down):  1.594E+00 0.000E+00
 
     Adding external electric field

     Computed dipole along edir(3) : 
        Dipole               -0.1872 Ry au,         -0.4758 Debye
        Dipole field         -0.0005 Ry au
 
        Potential amp.        0.0493 Ry
        Total length         45.0992 bohr
 

     total cpu time spent up to now is      698.5 secs

     total energy              =   -2123.70726953 Ry
     Harris-Foulkes estimate   =   -2123.70750036 Ry
     estimated scf accuracy    <       0.00131345 Ry

     iteration #  7     ecut=    36.75 Ry     beta=0.30
     Davidson diagonalization with overlap
     ethr =  7.10E-07,  avg # of iterations =  2.8

     negative rho (up, down):  1.594E+00 0.000E+00
 
     Adding external electric field

     Computed dipole along edir(3) : 
        Dipole               -0.1883 Ry au,         -0.4787 Debye
        Dipole field         -0.0006 Ry au
 
        Potential amp.        0.0496 Ry
        Total length         45.0992 bohr
 

     total cpu time spent up to now is      714.4 secs

     total energy              =   -2123.70735634 Ry
     Harris-Foulkes estimate   =   -2123.70739206 Ry
     estimated scf accuracy    <       0.00018071 Ry

     iteration #  8     ecut=    36.75 Ry     beta=0.30
     Davidson diagonalization with overlap
     ethr =  9.77E-08,  avg # of iterations =  4.7

     negative rho (up, down):  1.594E+00 0.000E+00
 
     Adding external electric field

     Computed dipole along edir(3) : 
        Dipole               -0.1880 Ry au,         -0.4779 Debye
        Dipole field         -0.0005 Ry au
 
        Potential amp.        0.0495 Ry
        Total length         45.0992 bohr
 

     total cpu time spent up to now is      734.3 secs

     total energy              =   -2123.70738595 Ry
     Harris-Foulkes estimate   =   -2123.70741657 Ry
     estimated scf accuracy    <       0.00024365 Ry

     iteration #  9     ecut=    36.75 Ry     beta=0.30
     Davidson diagonalization with overlap
     ethr =  9.77E-08,  avg # of iterations =  1.6

     negative rho (up, down):  1.594E+00 0.000E+00
 
     Adding external electric field

     Computed dipole along edir(3) : 
        Dipole               -0.1875 Ry au,         -0.4766 Debye
        Dipole field         -0.0005 Ry au
 
        Potential amp.        0.0494 Ry
        Total length         45.0992 bohr
 

     total cpu time spent up to now is      749.6 secs

     total energy              =   -2123.70739795 Ry
     Harris-Foulkes estimate   =   -2123.70740273 Ry
     estimated scf accuracy    <       0.00004281 Ry

     iteration # 10     ecut=    36.75 Ry     beta=0.30
     Davidson diagonalization with overlap
     ethr =  2.31E-08,  avg # of iterations =  4.5

     negative rho (up, down):  1.594E+00 0.000E+00
 
     Adding external electric field

     Computed dipole along edir(3) : 
        Dipole               -0.1872 Ry au,         -0.4759 Debye
        Dipole field         -0.0005 Ry au
 
        Potential amp.        0.0493 Ry
        Total length         45.0992 bohr
 

     total cpu time spent up to now is      768.7 secs

     total energy              =   -2123.70740393 Ry
     Harris-Foulkes estimate   =   -2123.70740650 Ry
     estimated scf accuracy    <       0.00002489 Ry

     iteration # 11     ecut=    36.75 Ry     beta=0.30
     Davidson diagonalization with overlap
     ethr =  1.35E-08,  avg # of iterations =  3.5

     negative rho (up, down):  1.594E+00 0.000E+00

     negative rho (up, down):  1.594E+00 0.000E+00

     negative rho (up, down):  1.594E+00 0.000E+00

     negative rho (up, down):  1.594E+00 0.000E+00

     negative rho (up, down):  1.594E+00 0.000E+00

     negative rho (up, down):  1.594E+00 0.000E+00

     negative rho (up, down):  1.594E+00 0.000E+00

     negative rho (up, down):  1.594E+00 0.000E+00

     negative rho (up, down):  1.594E+00 0.000E+00

     negative rho (up, down):  1.594E+00 0.000E+00

     negative rho (up, down):  1.594E+00 0.000E+00

     negative rho (up, down):  1.594E+00 0.000E+00

     negative rho (up, down):  1.594E+00 0.000E+00

     negative rho (up, down):  1.594E+00 0.000E+00

     negative rho (up, down):  1.594E+00 0.000E+00

     negative rho (up, down):  1.594E+00 0.000E+00

     negative rho (up, down):  1.594E+00 0.000E+00

     negative rho (up, down):  1.594E+00 0.000E+00

     negative rho (up, down):  1.594E+00 0.000E+00

     negative rho (up, down):  1.594E+00 0.000E+00

     negative rho (up, down):  1.594E+00 0.000E+00

     negative rho (up, down):  1.594E+00 0.000E+00

     negative rho (up, down):  1.594E+00 0.000E+00

     negative rho (up, down):  1.594E+00 0.000E+00

     negative rho (up, down):  1.594E+00 0.000E+00

     negative rho (up, down):  1.594E+00 0.000E+00

     negative rho (up, down):  1.594E+00 0.000E+00

     negative rho (up, down):  1.594E+00 0.000E+00

     negative rho (up, down):  1.594E+00 0.000E+00

     negative rho (up, down):  1.594E+00 0.000E+00

     negative rho (up, down):  1.594E+00 0.000E+00

     negative rho (up, down):  1.594E+00 0.000E+00

     negative rho (up, down):  1.594E+00 0.000E+00

     negative rho (up, down):  1.594E+00 0.000E+00

     negative rho (up, down):  1.594E+00 0.000E+00
 
     Adding external electric field

     Computed dipole along edir(3) : 
        Dipole               -0.1864 Ry au,         -0.4737 Debye
        Dipole field         -0.0005 Ry au
 
        Potential amp.        0.0491 Ry
        Total length         45.0992 bohr
 

     total cpu time spent up to now is      826.5 secs

     End of self-consistent calculation

          k = 0.0000 0.0000 0.0000 ( 16073 PWs)   bands (ev):

   -65.0417 -64.9516 -64.8840 -64.8836 -64.8565 -64.8531 -64.8529 -64.7543
   -64.6897 -64.6410 -64.6243 -64.6219 -37.5313 -37.4583 -37.4581 -37.4468
   -37.3514 -37.3397 -37.3393 -37.1772 -37.1763 -37.1739 -36.9028 -36.8986
   -36.8981 -36.8018 -36.7665 -36.7662 -36.7418 -36.7398 -36.7397 -36.7227
   -36.6201 -36.6195 -36.6122 -36.5728 -36.5716 -36.5695 -36.5063 -36.4942
   -36.4941 -36.4245 -36.4236 -36.4220 -36.3827 -36.3825 -36.2243 -36.2241
   -11.7468  -4.1861  -3.1092  -3.1091  -3.0837  -2.8818  -2.8009  -2.6492
    -2.6490  -2.6132  -2.4618  -2.3510  -2.3507  -2.1545  -2.1541  -2.0977
    -1.3863  -1.3862  -0.9052  -0.3934  -0.3931   0.0271   0.0719   0.0720
     0.2207   0.5123   0.5814   0.5814   0.8790   0.8792   0.9884   1.0724
     1.0725   1.2103   1.2106   1.4035   1.6070   1.7424   1.7431   2.4899
     2.5715   2.6076   2.6077   2.9352   2.9352   3.1260   3.1263   3.4840
     3.4843   3.5655   3.7616   4.1389   4.1396   4.2512

          k = 0.0000 0.0351 0.0000 ( 16137 PWs)   bands (ev):

   -65.0315 -64.9449 -64.8929 -64.8838 -64.8633 -64.8534 -64.8528 -64.7463
   -64.6911 -64.6445 -64.6284 -64.6225 -37.4927 -37.4257 -37.4182 -37.4004
   -37.3323 -37.3102 -37.3025 -37.1499 -37.1477 -37.1300 -36.9270 -36.9032
   -36.8990 -36.8337 -36.8008 -36.7749 -36.7537 -36.7382 -36.7242 -36.6950
   -36.6553 -36.6520 -36.6050 -36.5816 -36.5654 -36.5596 -36.5420 -36.5165
   -36.5094 -36.4549 -36.4537 -36.4286 -36.4115 -36.3932 -36.2819 -36.2376
   -11.7304  -3.9523  -2.9960  -2.9214  -2.8879  -2.6932  -2.5791  -2.5336
    -2.4520  -2.4222  -2.3243  -2.2251  -2.1982  -2.0304  -1.9519  -1.8905
    -1.3305  -1.2780  -0.8568  -0.4840  -0.4265   0.0850   0.1262   0.1980
     0.2084   0.2694   0.4148   0.7685   0.7800   0.8177   0.9684   1.0110
     1.0420   1.1940   1.2893   1.3224   1.3985   1.6168   1.6429   2.0338
     2.2418   2.3397   2.5657   2.6472   2.7828   2.9220   3.0283   3.0697
     3.2186   3.4299   3.6141   3.6405   3.9616   3.9618

          k = 0.0000 0.0702 0.0000 ( 16149 PWs)   bands (ev):

   -65.0035 -64.9318 -64.9156 -64.8840 -64.8772 -64.8560 -64.8527 -64.7245
   -64.6938 -64.6620 -64.6330 -64.6226 -37.4030 -37.3442 -37.3361 -37.2840
   -37.2557 -37.2430 -37.2255 -37.1061 -37.0770 -37.0406 -36.9455 -36.9416
   -36.9207 -36.8751 -36.8486 -36.7985 -36.7562 -36.7551 -36.7182 -36.7144
   -36.6905 -36.6816 -36.6557 -36.6135 -36.5905 -36.5732 -36.5672 -36.5435
   -36.5341 -36.5206 -36.5160 -36.5071 -36.4232 -36.4201 -36.3735 -36.2740
   -11.6975  -3.3609  -2.7487  -2.5058  -2.4594  -2.3735  -2.1805  -2.0281
    -1.9593  -1.9578  -1.8606  -1.8350  -1.7922  -1.6816  -1.5717  -1.4785
    -1.0259  -0.8814  -0.8068  -0.6860  -0.4515  -0.3603  -0.1500   0.0914
     0.2132   0.3092   0.3514   0.5295   0.6314   0.6468   0.8069   0.8679
     0.9617   1.0521   1.2356   1.3395   1.3616   1.4192   1.5077   1.7473
     1.7531   1.8844   1.9380   2.0196   2.1014   2.1677   2.4088   2.6103
     2.6203   2.9483   3.1361   3.2716   3.2872   3.3193

          k = 0.0000-0.1053 0.0000 ( 16164 PWs)   bands (ev):

   -64.9718 -64.9562 -64.9034 -64.8948 -64.8840 -64.8571 -64.8527 -64.7014
   -64.6955 -64.6841 -64.6338 -64.6227 -37.3423 -37.2854 -37.2828 -37.2301
   -37.2273 -37.2057 -37.1241 -37.0526 -37.0477 -37.0277 -36.9892 -36.9826
   -36.9296 -36.8836 -36.8727 -36.7723 -36.7700 -36.7677 -36.7447 -36.7270
   -36.7019 -36.6873 -36.6556 -36.6401 -36.6349 -36.6157 -36.6039 -36.6020
   -36.5468 -36.5363 -36.5328 -36.5060 -36.4886 -36.4411 -36.3318 -36.3164
   -11.6812  -2.9075  -2.6708  -2.3730  -2.0643  -2.0444  -1.9877  -1.8187
    -1.8098  -1.6531  -1.6211  -1.5426  -1.4312  -1.2138  -1.1064  -1.0979
    -1.0715  -0.8722  -0.8078  -0.6416  -0.3982  -0.3567  -0.2308  -0.1995
    -0.1935   0.0316   0.2597   0.3656   0.6399   0.6900   0.8183   0.8335
     0.8563   0.9413   1.0070   1.0566   1.0976   1.1187   1.1990   1.3187
     1.4051   1.7491   1.7900   2.1281   2.1343   2.1632   2.2071   2.2512
     2.5638   2.6213   2.6294   2.8232   2.8989   2.9668

          k = 0.0304-0.0175 0.0000 ( 16137 PWs)   bands (ev):

   -65.0315 -64.9449 -64.8926 -64.8841 -64.8632 -64.8532 -64.8530 -64.7463
   -64.6911 -64.6450 -64.6262 -64.6243 -37.4927 -37.4258 -37.4180 -37.4005
   -37.3323 -37.3099 -37.3027 -37.1505 -37.1471 -37.1300 -36.9268 -36.9035
   -36.8989 -36.8337 -36.8008 -36.7748 -36.7538 -36.7384 -36.7243 -36.6947
   -36.6556 -36.6515 -36.6053 -36.5814 -36.5662 -36.5590 -36.5421 -36.5165
   -36.5095 -36.4545 -36.4543 -36.4287 -36.4113 -36.3930 -36.2818 -36.2377
   -11.7304  -3.9523  -2.9961  -2.9213  -2.8879  -2.6932  -2.5791  -2.5337
    -2.4522  -2.4222  -2.3242  -2.2253  -2.1980  -2.0305  -1.9517  -1.8906
    -1.3306  -1.2779  -0.8568  -0.4837  -0.4267   0.0849   0.1261   0.1980
     0.2084   0.2695   0.4149   0.7684   0.7801   0.8175   0.9684   1.0113
     1.0420   1.1938   1.2892   1.3223   1.3986   1.6165   1.6432   2.0339
     2.2416   2.3398   2.5657   2.6472   2.7829   2.9220   3.0283   3.0697
     3.2187   3.4300   3.6138   3.6404   3.9614   3.9620

          k = 0.0304 0.0175 0.0000 ( 16137 PWs)   bands (ev):

   -65.0315 -64.9449 -64.8929 -64.8838 -64.8632 -64.8533 -64.8529 -64.7463
   -64.6911 -64.6444 -64.6287 -64.6223 -37.4927 -37.4256 -37.4184 -37.4004
   -37.3322 -37.3103 -37.3025 -37.1498 -37.1479 -37.1300 -36.9270 -36.9031
   -36.8990 -36.8337 -36.8009 -36.7749 -36.7537 -36.7383 -36.7242 -36.6951
   -36.6552 -36.6521 -36.6050 -36.5816 -36.5653 -36.5597 -36.5421 -36.5165
   -36.5094 -36.4551 -36.4536 -36.4285 -36.4115 -36.3932 -36.2819 -36.2376
   -11.7304  -3.9523  -2.9960  -2.9214  -2.8879  -2.6932  -2.5792  -2.5336
    -2.4520  -2.4223  -2.3243  -2.2251  -2.1983  -2.0304  -1.9520  -1.8905
    -1.3305  -1.2780  -0.8568  -0.4840  -0.4264   0.0850   0.1262   0.1980
     0.2084   0.2694   0.4148   0.7685   0.7799   0.8177   0.9684   1.0109
     1.0420   1.1941   1.2893   1.3225   1.3985   1.6168   1.6428   2.0338
     2.2418   2.3397   2.5657   2.6472   2.7828   2.9220   3.0283   3.0697
     3.2186   3.4299   3.6142   3.6405   3.9616   3.9618

          k = 0.0304 0.0526 0.0000 ( 16202 PWs)   bands (ev):

   -65.0123 -64.9332 -64.9066 -64.8921 -64.8665 -64.8605 -64.8499 -64.7314
   -64.6931 -64.6517 -64.6398 -64.6191 -37.4284 -37.3734 -37.3295 -37.3247
   -37.2962 -37.2560 -37.2477 -37.1186 -37.0895 -37.0654 -36.9471 -36.9323
   -36.9081 -36.8838 -36.8373 -36.7846 -36.7562 -36.7304 -36.7283 -36.7087
   -36.6802 -36.6493 -36.6360 -36.6226 -36.5933 -36.5702 -36.5543 -36.5427
   -36.5402 -36.5191 -36.4886 -36.4273 -36.4266 -36.4181 -36.3767 -36.2665
   -11.7057  -3.5310  -2.7659  -2.6507  -2.5346  -2.4385  -2.2716  -2.2270
    -2.1323  -2.0990  -1.9980  -1.9589  -1.8912  -1.7665  -1.6763  -1.5607
    -1.1866  -1.0031  -0.8379  -0.6131  -0.4515  -0.2368   0.0001   0.0740
     0.2538   0.2781   0.4358   0.6089   0.6909   0.7437   0.7516   0.8387
     1.0195   1.1310   1.1694   1.2499   1.3610   1.4960   1.6804   1.7778
     1.8628   1.9615   2.1041   2.2888   2.3364   2.4205   2.4494   2.6411
     2.7761   3.0336   3.0758   3.3912   3.4232   3.6371

          k = 0.0304-0.1228 0.0000 ( 16203 PWs)   bands (ev):

   -64.9797 -64.9387 -64.9138 -64.8996 -64.8778 -64.8628 -64.8476 -64.7066
   -64.6951 -64.6717 -64.6482 -64.6159 -37.3378 -37.2878 -37.2453 -37.2418
   -37.2083 -37.1977 -37.1676 -37.1116 -37.0463 -37.0091 -36.9992 -36.9668
   -36.9233 -36.8942 -36.8448 -36.8056 -36.7911 -36.7583 -36.7369 -36.7192
   -36.7060 -36.6775 -36.6596 -36.6497 -36.6268 -36.6159 -36.5963 -36.5730
   -36.5602 -36.5418 -36.5166 -36.4790 -36.4641 -36.4537 -36.3767 -36.3173
   -11.6811  -2.9313  -2.5384  -2.2467  -2.1588  -2.0698  -1.9076  -1.8325
    -1.7459  -1.6400  -1.6023  -1.5209  -1.4511  -1.3851  -1.1994  -1.1677
    -1.0566  -0.8032  -0.7735  -0.6741  -0.4672  -0.4231  -0.3105  -0.1208
    -0.0516   0.0346   0.1522   0.2933   0.4524   0.5909   0.6123   0.6787
     0.8102   0.8554   0.9054   0.9404   1.1080   1.2614   1.3571   1.4804
     1.5939   1.6315   1.8280   1.9730   2.1266   2.2114   2.3133   2.4318
     2.4821   2.6565   2.7024   2.9058   3.0123   3.2230

          k = 0.0304-0.0877 0.0000 ( 16203 PWs)   bands (ev):

   -64.9797 -64.9387 -64.9140 -64.8992 -64.8779 -64.8628 -64.8476 -64.7065
   -64.6951 -64.6722 -64.6477 -64.6160 -37.3381 -37.2876 -37.2453 -37.2419
   -37.2083 -37.1978 -37.1676 -37.1114 -37.0465 -37.0091 -36.9991 -36.9668
   -36.9227 -36.8940 -36.8454 -36.8051 -36.7911 -36.7586 -36.7374 -36.7192
   -36.7058 -36.6776 -36.6596 -36.6496 -36.6270 -36.6160 -36.5962 -36.5727
   -36.5603 -36.5418 -36.5166 -36.4791 -36.4641 -36.4536 -36.3767 -36.3173
   -11.6811  -2.9313  -2.5384  -2.2466  -2.1589  -2.0698  -1.9076  -1.8324
    -1.7459  -1.6400  -1.6023  -1.5208  -1.4510  -1.3851  -1.1993  -1.1677
    -1.0566  -0.8033  -0.7734  -0.6741  -0.4672  -0.4231  -0.3105  -0.1209
    -0.0516   0.0348   0.1521   0.2933   0.4524   0.5907   0.6123   0.6785
     0.8102   0.8553   0.9056   0.9407   1.1077   1.2615   1.3571   1.4803
     1.5938   1.6315   1.8282   1.9729   2.1264   2.2113   2.3131   2.4316
     2.4825   2.6567   2.7024   2.9058   3.0121   3.2231

          k = 0.0304-0.0526 0.0000 ( 16202 PWs)   bands (ev):

   -65.0124 -64.9334 -64.9062 -64.8922 -64.8668 -64.8603 -64.8500 -64.7313
   -64.6931 -64.6530 -64.6380 -64.6197 -37.4286 -37.3733 -37.3294 -37.3248
   -37.2963 -37.2556 -37.2479 -37.1187 -37.0892 -37.0654 -36.9469 -36.9328
   -36.9080 -36.8837 -36.8373 -36.7846 -36.7562 -36.7305 -36.7283 -36.7087
   -36.6799 -36.6495 -36.6362 -36.6228 -36.5932 -36.5702 -36.5548 -36.5425
   -36.5401 -36.5193 -36.4886 -36.4274 -36.4260 -36.4180 -36.3767 -36.2666
   -11.7057  -3.5310  -2.7659  -2.6506  -2.5347  -2.4385  -2.2715  -2.2269
    -2.1324  -2.0990  -1.9979  -1.9589  -1.8911  -1.7665  -1.6761  -1.5607
    -1.1867  -1.0031  -0.8381  -0.6128  -0.4516  -0.2368   0.0000   0.0739
     0.2539   0.2780   0.4360   0.6091   0.6909   0.7435   0.7515   0.8388
     1.0193   1.1309   1.1694   1.2501   1.3610   1.4961   1.6806   1.7777
     1.8624   1.9613   2.1040   2.2891   2.3363   2.4205   2.4494   2.6412
     2.7760   3.0335   3.0759   3.3908   3.4237   3.6371

          k = 0.0608-0.0351 0.0000 ( 16149 PWs)   bands (ev):

   -65.0036 -64.9321 -64.9150 -64.8843 -64.8770 -64.8561 -64.8529 -64.7244
   -64.6938 -64.6627 -64.6307 -64.6243 -37.4033 -37.3444 -37.3358 -37.2840
   -37.2557 -37.2426 -37.2256 -37.1065 -37.0762 -37.0407 -36.9454 -36.9418
   -36.9210 -36.8750 -36.8487 -36.7984 -36.7563 -36.7550 -36.7176 -36.7148
   -36.6904 -36.6818 -36.6557 -36.6134 -36.5908 -36.5742 -36.5665 -36.5437
   -36.5343 -36.5201 -36.5169 -36.5065 -36.4228 -36.4200 -36.3733 -36.2742
   -11.6975  -3.3609  -2.7487  -2.5058  -2.4593  -2.3736  -2.1804  -2.0282
    -1.9594  -1.9578  -1.8607  -1.8350  -1.7921  -1.6816  -1.5716  -1.4785
    -1.0262  -0.8812  -0.8071  -0.6856  -0.4515  -0.3604  -0.1499   0.0914
     0.2132   0.3090   0.3514   0.5296   0.6313   0.6469   0.8068   0.8679
     0.9617   1.0521   1.2358   1.3394   1.3615   1.4192   1.5076   1.7470
     1.7530   1.8847   1.9380   2.0194   2.1016   2.1677   2.4084   2.6104
     2.6207   2.9481   3.1360   3.2719   3.2870   3.3192

          k = 0.0608 0.0000 0.0000 ( 16202 PWs)   bands (ev):

   -65.0124 -64.9334 -64.9063 -64.8922 -64.8667 -64.8604 -64.8500 -64.7313
   -64.6931 -64.6528 -64.6383 -64.6196 -37.4286 -37.3733 -37.3294 -37.3247
   -37.2963 -37.2557 -37.2478 -37.1187 -37.0892 -37.0654 -36.9469 -36.9327
   -36.9080 -36.8837 -36.8373 -36.7846 -36.7562 -36.7305 -36.7283 -36.7087
   -36.6800 -36.6495 -36.6362 -36.6227 -36.5932 -36.5702 -36.5547 -36.5425
   -36.5402 -36.5192 -36.4886 -36.4274 -36.4261 -36.4181 -36.3767 -36.2666
   -11.7057  -3.5310  -2.7659  -2.6506  -2.5346  -2.4385  -2.2716  -2.2270
    -2.1324  -2.0990  -1.9979  -1.9589  -1.8911  -1.7665  -1.6761  -1.5607
    -1.1867  -1.0031  -0.8380  -0.6128  -0.4516  -0.2368   0.0000   0.0740
     0.2538   0.2780   0.4360   0.6091   0.6909   0.7436   0.7515   0.8388
     1.0194   1.1310   1.1694   1.2501   1.3610   1.4961   1.6806   1.7777
     1.8625   1.9613   2.1041   2.2890   2.3363   2.4205   2.4494   2.6411
     2.7760   3.0335   3.0759   3.3909   3.4235   3.6371

          k = 0.0608 0.0351 0.0000 ( 16149 PWs)   bands (ev):

   -65.0035 -64.9318 -64.9156 -64.8840 -64.8772 -64.8559 -64.8528 -64.7245
   -64.6939 -64.6618 -64.6334 -64.6224 -37.4030 -37.3441 -37.3363 -37.2840
   -37.2557 -37.2431 -37.2255 -37.1060 -37.0771 -37.0406 -36.9455 -36.9416
   -36.9206 -36.8751 -36.8486 -36.7984 -36.7563 -36.7551 -36.7183 -36.7144
   -36.6906 -36.6816 -36.6556 -36.6136 -36.5905 -36.5730 -36.5673 -36.5435
   -36.5340 -36.5207 -36.5159 -36.5071 -36.4232 -36.4201 -36.3736 -36.2739
   -11.6975  -3.3609  -2.7487  -2.5058  -2.4593  -2.3735  -2.1806  -2.0281
    -1.9593  -1.9578  -1.8606  -1.8350  -1.7923  -1.6816  -1.5717  -1.4785
    -1.0258  -0.8814  -0.8068  -0.6860  -0.4515  -0.3602  -0.1500   0.0914
     0.2132   0.3092   0.3514   0.5295   0.6314   0.6468   0.8069   0.8679
     0.9617   1.0520   1.2355   1.3395   1.3616   1.4192   1.5077   1.7474
     1.7531   1.8844   1.9380   2.0196   2.1014   2.1677   2.4088   2.6103
     2.6203   2.9483   3.1361   3.2715   3.2872   3.3193

          k = 0.0608-0.1404 0.0000 ( 16203 PWs)   bands (ev):

   -64.9797 -64.9388 -64.9138 -64.8995 -64.8779 -64.8627 -64.8476 -64.7067
   -64.6951 -64.6715 -64.6483 -64.6158 -37.3378 -37.2877 -37.2454 -37.2418
   -37.2083 -37.1979 -37.1677 -37.1115 -37.0463 -37.0091 -36.9992 -36.9668
   -36.9232 -36.8942 -36.8448 -36.8055 -36.7911 -36.7584 -36.7370 -36.7193
   -36.7059 -36.6775 -36.6596 -36.6497 -36.6269 -36.6159 -36.5963 -36.5730
   -36.5601 -36.5418 -36.5166 -36.4790 -36.4641 -36.4537 -36.3767 -36.3172
   -11.6811  -2.9312  -2.5384  -2.2466  -2.1588  -2.0698  -1.9076  -1.8325
    -1.7459  -1.6400  -1.6023  -1.5210  -1.4510  -1.3851  -1.1994  -1.1677
    -1.0566  -0.8033  -0.7735  -0.6741  -0.4672  -0.4231  -0.3106  -0.1209
    -0.0516   0.0347   0.1522   0.2933   0.4524   0.5908   0.6123   0.6787
     0.8102   0.8553   0.9055   0.9404   1.1080   1.2615   1.3571   1.4804
     1.5938   1.6315   1.8280   1.9730   2.1266   2.2114   2.3133   2.4318
     2.4822   2.6565   2.7024   2.9058   3.0123   3.2230

          k = 0.0608-0.1053 0.0000 ( 16272 PWs)   bands (ev):

   -64.9558 -64.9435 -64.9321 -64.8933 -64.8831 -64.8677 -64.8442 -64.6967
   -64.6901 -64.6707 -64.6684 -64.6122 -37.2506 -37.2477 -37.2034 -37.2022
   -37.1972 -37.1706 -37.1529 -37.1035 -37.0963 -37.0777 -36.9607 -36.9471
   -36.9239 -36.8881 -36.8573 -36.8130 -36.8007 -36.7912 -36.7719 -36.7212
   -36.7121 -36.6767 -36.6622 -36.6430 -36.6348 -36.6294 -36.6090 -36.5971
   -36.5720 -36.5356 -36.5104 -36.4980 -36.4930 -36.3967 -36.3953 -36.3820
   -11.6729  -2.6630  -2.1859  -2.1724  -1.9671  -1.8329  -1.7722  -1.5608
    -1.5498  -1.4963  -1.4521  -1.4022  -1.2121  -1.1826  -1.1464  -1.0717
    -0.9941  -0.9580  -0.9285  -0.5486  -0.5394  -0.2697  -0.1971  -0.1787
    -0.0935  -0.0873   0.0527   0.0857   0.1564   0.1692   0.1788   0.2454
     0.4285   0.4979   0.8131   0.8441   1.1834   1.2536   1.2793   1.3264
     1.3698   1.5193   1.6938   2.0746   2.1315   2.3240   2.4444   2.5061
     2.5358   2.7176   2.8195   2.8903   2.9963   2.9998

          k = 0.0608-0.0702 0.0000 ( 16203 PWs)   bands (ev):

   -64.9798 -64.9387 -64.9136 -64.8997 -64.8773 -64.8633 -64.8476 -64.7063
   -64.6950 -64.6729 -64.6469 -64.6162 -37.3383 -37.2877 -37.2453 -37.2418
   -37.2083 -37.1973 -37.1675 -37.1115 -37.0466 -37.0088 -36.9991 -36.9668
   -36.9234 -36.8939 -36.8452 -36.8055 -36.7912 -36.7584 -36.7372 -36.7190
   -36.7061 -36.6776 -36.6597 -36.6497 -36.6268 -36.6159 -36.5964 -36.5729
   -36.5605 -36.5417 -36.5167 -36.4790 -36.4641 -36.4532 -36.3764 -36.3175
   -11.6811  -2.9313  -2.5383  -2.2467  -2.1589  -2.0699  -1.9076  -1.8323
    -1.7458  -1.6399  -1.6024  -1.5208  -1.4512  -1.3850  -1.1993  -1.1676
    -1.0567  -0.8032  -0.7735  -0.6744  -0.4672  -0.4230  -0.3103  -0.1207
    -0.0516   0.0345   0.1522   0.2932   0.4524   0.5907   0.6123   0.6786
     0.8102   0.8553   0.9055   0.9406   1.1078   1.2614   1.3572   1.4801
     1.5940   1.6316   1.8280   1.9730   2.1265   2.2113   2.3130   2.4317
     2.4823   2.6566   2.7024   2.9059   3.0123   3.2230

          k =-0.0912 0.0526 0.0000 ( 16164 PWs)   bands (ev):

   -64.9721 -64.9559 -64.9036 -64.8940 -64.8844 -64.8572 -64.8529 -64.7006
[...]
   -64.5818 -64.5237 -64.4893 -64.4759 -37.3911 -37.3020 -37.2462 -37.2075
   -37.1541 -37.1461 -37.1210 -37.0088 -36.9462 -36.9240 -36.8574 -36.8523
   -36.8122 -36.7643 -36.7642 -36.6907 -36.6501 -36.6350 -36.5965 -36.5813
   -36.5781 -36.5701 -36.5472 -36.4831 -36.4692 -36.4391 -36.4298 -36.4280
   -36.3938 -36.3811 -36.3782 -36.3437 -36.2976 -36.2734 -36.2363 -36.1345
   -12.2730  -3.4010  -3.0219  -2.7453  -2.6366  -2.4331  -2.1219  -2.0456
    -1.9845  -1.8923  -1.8300  -1.7439  -1.7240  -1.6234  -1.6016  -1.4579
    -0.9826  -0.9202  -0.6538  -0.5926  -0.4106  -0.2728  -0.0985   0.1175
     0.2498   0.3689   0.4676   0.6089   0.7162   0.7753   0.9453   0.9461
     1.0155   1.1661   1.2273   1.4214   1.5135   1.5213   1.6310   1.8922
     1.9097   2.0097   2.0454   2.1406   2.1836   2.3704   2.5093   2.6849
     2.8815   3.1986   3.2861   3.3210   3.4258   3.5585

          k = 0.0608 0.0000 0.0000 ( 16202 PWs)   bands (ev):

   -64.9083 -64.8276 -64.7979 -64.7829 -64.7600 -64.7492 -64.7275 -64.5985
   -64.5825 -64.5176 -64.4916 -64.4736 -37.4179 -37.3241 -37.2620 -37.2390
   -37.1827 -37.1580 -37.1437 -37.0084 -36.9649 -36.9388 -36.8604 -36.8502
   -36.7946 -36.7816 -36.7423 -36.6854 -36.6390 -36.6235 -36.6099 -36.5821
   -36.5618 -36.5419 -36.5161 -36.5090 -36.4566 -36.4409 -36.4334 -36.4096
   -36.3979 -36.3748 -36.3367 -36.2996 -36.2867 -36.2836 -36.2347 -36.1271
   -12.2861  -3.4964  -3.0920  -2.9029  -2.7367  -2.4251  -2.2692  -2.1705
    -2.0773  -2.0129  -1.9612  -1.8786  -1.8504  -1.7457  -1.7169  -1.4906
    -1.2205  -0.9977  -0.6905  -0.5267  -0.4382  -0.1476   0.0025   0.1606
     0.3032   0.4115   0.5148   0.6650   0.7981   0.8147   0.8434   0.9489
     1.0998   1.1763   1.2827   1.3622   1.4747   1.6456   1.7931   1.9169
     1.9809   2.1534   2.1889   2.3720   2.4215   2.5281   2.5562   2.7669
     3.0021   3.2059   3.2751   3.5237   3.5815   3.7875

          k = 0.0608 0.0351 0.0000 ( 16149 PWs)   bands (ev):

   -64.8991 -64.8285 -64.8045 -64.7761 -64.7693 -64.7467 -64.7290 -64.5936
   -64.5818 -64.5237 -64.4893 -64.4759 -37.3912 -37.3020 -37.2462 -37.2075
   -37.1541 -37.1461 -37.1210 -37.0088 -36.9462 -36.9240 -36.8574 -36.8523
   -36.8122 -36.7643 -36.7642 -36.6907 -36.6501 -36.6350 -36.5965 -36.5813
   -36.5781 -36.5702 -36.5472 -36.4832 -36.4691 -36.4391 -36.4298 -36.4280
   -36.3938 -36.3811 -36.3782 -36.3437 -36.2976 -36.2734 -36.2363 -36.1345
   -12.2730  -3.4010  -3.0219  -2.7452  -2.6366  -2.4331  -2.1219  -2.0456
    -1.9845  -1.8923  -1.8300  -1.7439  -1.7240  -1.6234  -1.6016  -1.4580
    -0.9826  -0.9202  -0.6538  -0.5926  -0.4106  -0.2728  -0.0985   0.1175
     0.2498   0.3689   0.4676   0.6089   0.7162   0.7753   0.9453   0.9461
     1.0155   1.1661   1.2272   1.4214   1.5135   1.5213   1.6310   1.8922
     1.9097   2.0097   2.0454   2.1406   2.1836   2.3704   2.5093   2.6849
     2.8815   3.1986   3.2861   3.3210   3.4258   3.5585

          k = 0.0608-0.1404 0.0000 ( 16203 PWs)   bands (ev):

   -64.8739 -64.8354 -64.8095 -64.7869 -64.7690 -64.7517 -64.7263 -64.5883
   -64.5734 -64.5300 -64.5029 -64.4709 -37.3179 -37.2468 -37.1790 -37.1534
   -37.1227 -37.1030 -37.0697 -37.0284 -36.9399 -36.8954 -36.8847 -36.8618
   -36.8217 -36.7721 -36.7616 -36.6968 -36.6828 -36.6275 -36.6150 -36.6042
   -36.5851 -36.5640 -36.5491 -36.5142 -36.5018 -36.4853 -36.4627 -36.4399
   -36.4293 -36.3990 -36.3740 -36.3343 -36.3203 -36.3087 -36.2390 -36.1772
   -12.2467  -3.2517  -2.6165  -2.5554  -2.3577  -2.1867  -1.9203  -1.8259
    -1.7306  -1.6110  -1.6005  -1.4727  -1.3786  -1.3449  -1.1617  -1.1099
    -1.0150  -0.7878  -0.6766  -0.5742  -0.3994  -0.3177  -0.1876  -0.1119
     0.0090   0.0876   0.2503   0.3678   0.5125   0.6204   0.6753   0.7859
     0.8975   0.9806   1.0192   1.1023   1.2447   1.3825   1.4816   1.5346
     1.6553   1.8299   1.9878   2.1186   2.2366   2.3587   2.4911   2.5879
     2.6562   2.8029   2.8677   3.0751   3.1852   3.4351

          k = 0.0608-0.1053 0.0000 ( 16272 PWs)   bands (ev):

   -64.8406 -64.8401 -64.8379 -64.7809 -64.7727 -64.7568 -64.7234 -64.5879
   -64.5653 -64.5227 -64.5227 -64.4676 -37.2386 -37.1964 -37.1945 -37.1187
   -37.0901 -37.0891 -37.0558 -37.0024 -36.9857 -36.9595 -36.8675 -36.8309
   -36.8041 -36.7795 -36.7607 -36.6946 -36.6930 -36.6585 -36.6431 -36.5992
   -36.5966 -36.5550 -36.5511 -36.5145 -36.5094 -36.5066 -36.4748 -36.4726
   -36.4435 -36.3878 -36.3756 -36.3525 -36.3312 -36.2595 -36.2537 -36.2394
   -12.2335  -3.1772  -2.5011  -2.2567  -2.0695  -2.0154  -1.7592  -1.6091
    -1.5341  -1.4865  -1.4107  -1.3322  -1.2948  -1.2065  -1.0137  -0.9698
    -0.9236  -0.8369  -0.8155  -0.4974  -0.4694  -0.3012  -0.1096  -0.0988
    -0.0173   0.0993   0.1015   0.2056   0.2092   0.2528   0.3561   0.3948
     0.4780   0.5295   0.9505   0.9787   1.2449   1.3583   1.4053   1.4546
     1.5482   1.7213   1.8429   2.1102   2.3775   2.4099   2.6107   2.6506
     2.7594   2.7813   2.9888   3.1550   3.1718   3.1784

          k = 0.0608-0.0702 0.0000 ( 16203 PWs)   bands (ev):

   -64.8739 -64.8354 -64.8095 -64.7869 -64.7690 -64.7517 -64.7263 -64.5883
   -64.5734 -64.5300 -64.5029 -64.4709 -37.3179 -37.2468 -37.1791 -37.1535
   -37.1227 -37.1030 -37.0697 -37.0284 -36.9399 -36.8954 -36.8847 -36.8618
   -36.8217 -36.7721 -36.7616 -36.6968 -36.6828 -36.6275 -36.6150 -36.6042
   -36.5851 -36.5639 -36.5490 -36.5142 -36.5018 -36.4853 -36.4627 -36.4399
   -36.4293 -36.3990 -36.3740 -36.3343 -36.3202 -36.3087 -36.2390 -36.1772
   -12.2467  -3.2518  -2.6165  -2.5554  -2.3577  -2.1867  -1.9204  -1.8259
    -1.7306  -1.6110  -1.6005  -1.4727  -1.3786  -1.3449  -1.1617  -1.1099
    -1.0150  -0.7878  -0.6766  -0.5742  -0.3994  -0.3177  -0.1876  -0.1119
     0.0090   0.0876   0.2504   0.3678   0.5125   0.6204   0.6753   0.7859
     0.8975   0.9806   1.0192   1.1023   1.2446   1.3825   1.4816   1.5346
     1.6553   1.8299   1.9878   2.1186   2.2366   2.3587   2.4911   2.5879
     2.6562   2.8029   2.8677   3.0752   3.1852   3.4351

          k =-0.0912 0.0526 0.0000 ( 16164 PWs)   bands (ev):

   -64.8606 -64.8585 -64.7970 -64.7840 -64.7762 -64.7466 -64.7299 -64.5880
   -64.5714 -64.5381 -64.4921 -64.4759 -37.3234 -37.2542 -37.1849 -37.1513
   -37.1247 -37.1184 -37.0556 -36.9732 -36.9397 -36.9002 -36.8836 -36.8619
   -36.8199 -36.8081 -36.7830 -36.6615 -36.6603 -36.6365 -36.6176 -36.5978
   -36.5936 -36.5612 -36.5263 -36.5216 -36.5159 -36.4815 -36.4598 -36.4586
   -36.4361 -36.4015 -36.3889 -36.3656 -36.3174 -36.3119 -36.1984 -36.1734
   -12.2468  -3.2897  -2.6005  -2.4625  -2.4358  -2.2803  -1.9801  -1.9009
    -1.7530  -1.6259  -1.5853  -1.4598  -1.3459  -1.2142  -1.0997  -1.0671
    -0.9852  -0.8943  -0.6891  -0.5374  -0.3730  -0.2556  -0.1623  -0.1226
    -0.0906   0.0583   0.3353   0.5030   0.6112   0.6346   0.9515   0.9822
     0.9929   1.0144   1.1481   1.1921   1.1927   1.2991   1.3237   1.3815
     1.4092   1.9549   2.0633   2.1616   2.2267   2.2484   2.3822   2.5075
     2.6808   2.8070   2.9047   2.9415   3.0277   3.0620

          k =-0.0912 0.0877 0.0000 ( 16203 PWs)   bands (ev):

   -64.8739 -64.8354 -64.8095 -64.7869 -64.7690 -64.7517 -64.7263 -64.5883
   -64.5734 -64.5300 -64.5029 -64.4709 -37.3179 -37.2468 -37.1791 -37.1535
   -37.1227 -37.1030 -37.0697 -37.0284 -36.9400 -36.8954 -36.8847 -36.8618
   -36.8217 -36.7721 -36.7615 -36.6968 -36.6828 -36.6275 -36.6150 -36.6042
   -36.5851 -36.5639 -36.5490 -36.5142 -36.5019 -36.4853 -36.4627 -36.4399
   -36.4293 -36.3990 -36.3740 -36.3343 -36.3203 -36.3087 -36.2390 -36.1772
   -12.2467  -3.2518  -2.6165  -2.5554  -2.3577  -2.1867  -1.9204  -1.8259
    -1.7306  -1.6110  -1.6005  -1.4727  -1.3786  -1.3449  -1.1617  -1.1099
    -1.0150  -0.7878  -0.6766  -0.5742  -0.3994  -0.3177  -0.1876  -0.1119
     0.0090   0.0876   0.2504   0.3678   0.5125   0.6204   0.6753   0.7859
     0.8975   0.9806   1.0192   1.1023   1.2447   1.3825   1.4816   1.5346
     1.6553   1.8299   1.9878   2.1186   2.2366   2.3587   2.4911   2.5879
     2.6562   2.8029   2.8677   3.0752   3.1852   3.4351

          k =-0.0912 0.1228 0.0000 ( 16203 PWs)   bands (ev):

   -64.8739 -64.8354 -64.8095 -64.7869 -64.7690 -64.7517 -64.7263 -64.5883
   -64.5734 -64.5300 -64.5029 -64.4709 -37.3179 -37.2468 -37.1791 -37.1534
   -37.1227 -37.1030 -37.0697 -37.0284 -36.9400 -36.8954 -36.8847 -36.8618
   -36.8218 -36.7721 -36.7615 -36.6968 -36.6828 -36.6276 -36.6150 -36.6041
   -36.5851 -36.5640 -36.5490 -36.5142 -36.5019 -36.4853 -36.4627 -36.4399
   -36.4293 -36.3990 -36.3740 -36.3343 -36.3203 -36.3087 -36.2390 -36.1772
   -12.2467  -3.2518  -2.6165  -2.5554  -2.3577  -2.1867  -1.9204  -1.8259
    -1.7306  -1.6110  -1.6005  -1.4727  -1.3786  -1.3449  -1.1617  -1.1099
    -1.0150  -0.7878  -0.6766  -0.5742  -0.3994  -0.3177  -0.1876  -0.1119
     0.0090   0.0876   0.2504   0.3677   0.5125   0.6204   0.6753   0.7859
     0.8975   0.9806   1.0192   1.1023   1.2447   1.3825   1.4816   1.5346
     1.6553   1.8299   1.9878   2.1186   2.2366   2.3586   2.4911   2.5879
     2.6562   2.8029   2.8677   3.0752   3.1852   3.4351

          k =-0.0912-0.0526 0.0000 ( 16164 PWs)   bands (ev):

   -64.8606 -64.8585 -64.7969 -64.7840 -64.7762 -64.7466 -64.7299 -64.5880
   -64.5714 -64.5381 -64.4921 -64.4759 -37.3234 -37.2543 -37.1848 -37.1513
   -37.1247 -37.1185 -37.0556 -36.9731 -36.9397 -36.9003 -36.8836 -36.8619
   -36.8199 -36.8081 -36.7830 -36.6615 -36.6603 -36.6365 -36.6176 -36.5978
   -36.5936 -36.5612 -36.5264 -36.5216 -36.5159 -36.4815 -36.4598 -36.4586
   -36.4361 -36.4015 -36.3889 -36.3656 -36.3174 -36.3119 -36.1984 -36.1734
   -12.2468  -3.2897  -2.6005  -2.4625  -2.4358  -2.2803  -1.9801  -1.9009
    -1.7531  -1.6259  -1.5853  -1.4598  -1.3459  -1.2142  -1.0997  -1.0670
    -0.9852  -0.8943  -0.6891  -0.5373  -0.3730  -0.2556  -0.1623  -0.1227
    -0.0906   0.0583   0.3353   0.5030   0.6112   0.6346   0.9515   0.9822
     0.9929   1.0144   1.1481   1.1921   1.1927   1.2991   1.3237   1.3815
     1.4092   1.9549   2.0633   2.1616   2.2267   2.2484   2.3822   2.5075
     2.6808   2.8070   2.9047   2.9415   3.0277   3.0620

     the Fermi energy is     2.3884 ev

!    total energy              =   -2123.73556155 Ry
     Harris-Foulkes estimate   =   -2123.73556171 Ry
     estimated scf accuracy    <       0.00000010 Ry

     The total energy is the sum of the following terms:

     one-electron contribution =  -19252.90735638 Ry
     hartree contribution      =    9626.63963245 Ry
     xc contribution           =    -402.66324418 Ry
     ewald contribution        =    7905.28264616 Ry
     electric field correction =       0.00002468 Ry
     smearing contrib. (-TS)   =      -0.08726428 Ry

     convergence has been achieved in  11 iterations
 
 BEEF-vdW xc energy contributions
           1 :   -352.761981575969     
           2 :    324.377293948551     
           3 :   -273.877094381643     
           4 :    211.367660282549     
           5 :   -147.640968645130     
           6 :    91.2055787532767     
           7 :   -46.6365875687929     
           8 :    14.4581010634419     
           9 :    7.61771428407064     
          10 :   -22.8688627694997     
          11 :    33.9013159795744     
          12 :   -41.7824783950398     
          13 :    46.0931760540903     
          14 :   -45.7086787075737     
          15 :    39.8177971413168     
          16 :   -28.7250987812787     
          17 :    14.0948439851387     
          18 :    1.40857074316898     
          19 :   -14.9102434725739     
          20 :    24.1759446997449     
          21 :   -28.1877169237047     
          22 :    27.2319342819133     
          23 :   -22.5354535473742     
          24 :    15.6596384927359     
          25 :   -7.95071659249277     
          26 :   0.261125187419793     
          27 :    6.99615006824774     
          28 :   -13.5783478214147     
          29 :    19.1289898904686     
          30 :   -23.0614814152822     
          31 :   -33.6430133730395     
          32 :   -24.7059620128199     

     Forces acting on atoms (Ry/au):


     negative rho (up, down):  1.589E+00 0.000E+00
     atom    1 type  1   force =    -0.00000494    0.00001103    0.02791099
     atom    2 type  1   force =     0.00000470   -0.00354511    0.02702695
     atom    3 type  1   force =    -0.00307967    0.00177017    0.02700881
     atom    4 type  1   force =     0.00308001    0.00176470    0.02701517
     atom    5 type  1   force =     0.00383902   -0.00221612   -0.01461624
     atom    6 type  1   force =    -0.00384009   -0.00221577   -0.01461666
     atom    7 type  1   force =     0.00000047   -0.00000038   -0.06525870
     atom    8 type  1   force =    -0.00000044    0.00443273   -0.01461451
     atom    9 type  1   force =    -0.00059558   -0.00032974   -0.00020497
     atom   10 type  1   force =     0.00059585   -0.00033602   -0.00019689
     atom   11 type  1   force =    -0.00000499    0.00067451   -0.00021337
     atom   12 type  1   force =     0.00000693   -0.00001171    0.00035032
     atom   13 type  2   force =    -0.00000128    0.00000170    0.00040911

     Total force =     0.001343     Total SCF correction =     0.000355
     SCF correction compared to forces is large: reduce conv_thr to get better values


     entering subroutine stress ...


     negative rho (up, down):  1.589E+00 0.000E+00
          total   stress  (Ry/bohr**3)                   (kbar)     P=  -21.51
  -0.00015703   0.00000000  -0.00000000        -23.10      0.00     -0.00
   0.00000000  -0.00015702  -0.00000000          0.00    -23.10     -0.00
  -0.00000000  -0.00000000  -0.00012461         -0.00     -0.00    -18.33


     bfgs converged in  13 scf cycles and  12 bfgs steps
     (criteria: energy <  1.0E+00, force <  1.9E-03)

     End of BFGS Geometry Optimization

     Final energy   =   -2123.7355615537 Ry
Begin final coordinates

ATOMIC_POSITIONS (crystal)
Tc1      0.166666667   0.166666667   0.408540475    0   0   0
Tc1      0.666666667   0.166666667   0.408540475    0   0   0
Tc1      0.166666667   0.666666667   0.408540475    0   0   0
Tc1      0.666666667   0.666666667   0.408540475    0   0   0
Tc1      0.833333333   0.333333333   0.500000000    0   0   0
Tc1      0.333333333   0.333333333   0.500000000    0   0   0
Tc1      0.833333333   0.833333333   0.500000000    0   0   0
Tc1      0.333333333   0.833333333   0.500000000    0   0   0
Tc1     -0.003073694  -0.003074736   0.592617249
Tc1      0.506150298  -0.003074675   0.592616883
Tc1     -0.003073914   0.506148352   0.592616938
Tc1      0.500000283   0.499998492   0.583519960
N1       0.166669044   0.166665881   0.637695969
End final coordinates



     Writing output data file calc.save
 
     init_run     :      9.64s CPU      9.93s WALL (       1 calls)
     electrons    :   3899.08s CPU   4172.34s WALL (      13 calls)
     update_pot   :     31.24s CPU     33.61s WALL (      12 calls)
     forces       :    155.76s CPU    165.66s WALL (      13 calls)
     stress       :    497.93s CPU    524.44s WALL (      13 calls)

     Called by init_run:
     wfcinit      :      3.91s CPU      4.00s WALL (       1 calls)
     potinit      :      1.61s CPU      1.72s WALL (       1 calls)

     Called by electrons:
     c_bands      :   1797.61s CPU   1920.70s WALL (     186 calls)
     sum_band     :    694.65s CPU    742.88s WALL (     186 calls)
     v_of_rho     :    268.86s CPU    296.00s WALL (     199 calls)
     newd         :    628.15s CPU    645.26s WALL (     199 calls)
     mix_rho      :      9.08s CPU      9.33s WALL (     186 calls)
     vdW_energy   :    133.79s CPU    145.89s WALL (     667 calls)
     vdW_ffts     :    271.08s CPU    282.13s WALL (    1360 calls)
     vdW_v        :    109.79s CPU    113.86s WALL (     667 calls)

     Called by c_bands:
     init_us_2    :      9.01s CPU      9.10s WALL (    1995 calls)
     cegterg      :   1610.68s CPU   1652.71s WALL (     930 calls)

     Called by *egterg:
     h_psi        :    921.48s CPU    943.56s WALL (    4889 calls)
     s_psi        :     96.29s CPU     96.57s WALL (    4889 calls)
     g_psi        :      6.60s CPU      6.62s WALL (    3954 calls)
     cdiaghg      :    233.26s CPU    234.74s WALL (    4824 calls)

     Called by h_psi:
     add_vuspsi   :     99.09s CPU     99.51s WALL (    4889 calls)

     General routines
     calbec       :    149.54s CPU    152.09s WALL (    5949 calls)
     fft          :    419.45s CPU    452.18s WALL (   40485 calls)
     ffts         :      0.56s CPU      0.61s WALL (     385 calls)
     fftw         :    544.40s CPU    567.31s WALL (  597194 calls)
     interpolate  :      5.11s CPU      5.28s WALL (     385 calls)
     davcio       :      0.00s CPU      0.02s WALL (       5 calls)
 
     Parallel routines
     fft_scatter  :    562.49s CPU    615.07s WALL (  638064 calls)
 
     PWSCF        :     1h17m CPU        1h22m WALL

 
   This run was terminated on:  17:57:11   2May2018            

=------------------------------------------------------------------------------=
   JOB DONE.
=------------------------------------------------------------------------------=
Job  /afs/slac/g/suncat/bin/suncat-tsmpirun -x LD_LIBRARY_PATH -wdir /scratch/qe800453_bNHJH pw.x -npool 4 -in pw.inp

TID   HOST_NAME   COMMAND_LINE            STATUS            TERMINATION_TIME
===== ========== ================  =======================  ===================
00000 suncat0069 pw.x -npool 4 -i  Done                     05/02/2018 17:57:11
00001 suncat0069 pw.x -npool 4 -i  Done                     05/02/2018 17:57:11
00002 suncat0069 pw.x -npool 4 -i  Done                     05/02/2018 17:57:11
00003 suncat0069 pw.x -npool 4 -i  Done                     05/02/2018 17:57:11
00004 suncat0069 pw.x -npool 4 -i  Done                     05/02/2018 17:57:11
00005 suncat0069 pw.x -npool 4 -i  Done                     05/02/2018 17:57:11
00006 suncat0069 pw.x -npool 4 -i  Done                     05/02/2018 17:57:11
00007 suncat0069 pw.x -npool 4 -i  Done                     05/02/2018 17:57:11
00008 suncat0053 pw.x -npool 4 -i  Done                     05/02/2018 17:57:11
00009 suncat0053 pw.x -npool 4 -i  Done                     05/02/2018 17:57:11
00010 suncat0053 pw.x -npool 4 -i  Done                     05/02/2018 17:57:11
00011 suncat0053 pw.x -npool 4 -i  Done                     05/02/2018 17:57:11
00012 suncat0053 pw.x -npool 4 -i  Done                     05/02/2018 17:57:11
00013 suncat0053 pw.x -npool 4 -i  Done                     05/02/2018 17:57:11
00014 suncat0053 pw.x -npool 4 -i  Done                     05/02/2018 17:57:11
00015 suncat0053 pw.x -npool 4 -i  Done                     05/02/2018 17:57:11
00016 suncat0042 pw.x -npool 4 -i  Done                     05/02/2018 17:57:11
00017 suncat0042 pw.x -npool 4 -i  Done                     05/02/2018 17:57:11
00018 suncat0042 pw.x -npool 4 -i  Done                     05/02/2018 17:57:11
00019 suncat0042 pw.x -npool 4 -i  Done                     05/02/2018 17:57:11
00020 suncat0042 pw.x -npool 4 -i  Done                     05/02/2018 17:57:11
00021 suncat0042 pw.x -npool 4 -i  Done                     05/02/2018 17:57:11
00022 suncat0042 pw.x -npool 4 -i  Done                     05/02/2018 17:57:11
00023 suncat0042 pw.x -npool 4 -i  Done                     05/02/2018 17:57:11
00024 suncat0033 pw.x -npool 4 -i  Done                     05/02/2018 17:57:11
00025 suncat0033 pw.x -npool 4 -i  Done                     05/02/2018 17:57:11
00026 suncat0033 pw.x -npool 4 -i  Done                     05/02/2018 17:57:11
00027 suncat0033 pw.x -npool 4 -i  Done                     05/02/2018 17:57:11
00028 suncat0033 pw.x -npool 4 -i  Done                     05/02/2018 17:57:11
00029 suncat0033 pw.x -npool 4 -i  Done                     05/02/2018 17:57:11
00030 suncat0033 pw.x -npool 4 -i  Done                     05/02/2018 17:57:11
00031 suncat0033 pw.x -npool 4 -i  Done                     05/02/2018 17:57:11
