  python dir          : /home/users/mamunm/src/espresso
  espresso dir        : /home/users/vossj/suncat/s2/qe5/bin
  pseudo dir          : /home/users/mamunm/src/pseudo/gbrv1.5pbe
  ase-espresso py git : GITVERSION



     Program PWSCF v.5.1rc2 starts on 27Apr2018 at 11:24:42 

     This program is part of the open-source Quantum ESPRESSO suite
     for quantum simulation of materials; please cite
         "P. Giannozzi et al., J. Phys.:Condens. Matter 21 395502 (2009);
          URL http://www.quantum-espresso.org", 
     in publications or presentations arising from this work. More details at
     http://www.quantum-espresso.org/quote

     Parallel version (MPI), running on    16 processors
     R & G space division:  proc/nbgrp/npool/nimage =      16
     Reading input from pw.inp
     Message from routine read_cards :
     DEPRECATED: no units specified in CELL_PARAMETERS card

     Current dimensions of program PWSCF are:
     Max number of different atomic species (ntypx) = 10
     Max number of k-points (npk) =  40000
     Max angular momentum in pseudopotentials (lmaxx) =  3
     Presently stress not available with electric field


     **************************************************************************
     Initializing libbeef V0.1.2 with the BEEF-vdW functional.
     Citation: Wellendorff et al., PRB 85, 235149 (2012).
     **************************************************************************


     IMPORTANT: XC functional enforced from input :
     Exchange-correlation      = BEEF-VDW ( 1  4 27 13 2)
     Any further DFT definition will be discarded
     Please, verify this is what you really want


     Subspace diagonalization in iterative solution of the eigenvalue problem:
     scalapack distributed-memory algorithm (size of sub-group:  2*  2 procs)

 
     Parallelization info
     --------------------
     sticks:   dense  smooth     PW     G-vecs:    dense   smooth      PW
     Min         232      93     27                45190    11433    1759
     Max         233      94     28                45199    11472    1773
     Sum        3721    1495    433               723123   183131   28227
 


     bravais-lattice index     =            0
     lattice parameter (alat)  =       1.8897  a.u.
     unit-cell volume          =    6082.7792 (a.u.)^3
     number of atoms/cell      =           16
     number of atomic types    =            3
     number of electrons       =       151.00
     number of Kohn-Sham states=           85
     kinetic-energy cutoff     =      36.7493  Ry
     charge density cutoff     =     367.4932  Ry
     convergence threshold     =      1.0E-05
     mixing beta               =       0.3000
     number of iterations used =           10  plain     mixing
     Exchange-correlation      = BEEF-VDW ( 1  4 27 13 2)
     nstep                     =           50


     celldm(1)=   1.889726  celldm(2)=   0.000000  celldm(3)=   0.000000
     celldm(4)=   0.000000  celldm(5)=   0.000000  celldm(6)=   0.000000

     crystal axes: (cart. coord. in units of alat)
               a(1) = (   6.421223   0.000000   0.000000 )  
               a(2) = (   3.210611   5.560942   0.000000 )  
               a(3) = (   0.000000   0.000000  25.242906 )  

     reciprocal axes: (cart. coord. in units 2 pi/alat)
               b(1) = (  0.155734 -0.089913  0.000000 )  
               b(2) = (  0.000000  0.179826  0.000000 )  
               b(3) = (  0.000000  0.000000  0.039615 )  


     PseudoPot. # 1 for Zr read from file:
     /home/users/mamunm/src/pseudo/gbrv1.5pbe/Zr.UPF
     MD5 check sum: 5db81b1e868ab7776c4564c113de050b
     Pseudo is Ultrasoft + core correction, Zval = 12.0
     Generated by new atomic code, or converted to UPF format
     Using radial grid of  887 points,  6 beta functions with: 
                l(1) =   0
                l(2) =   0
                l(3) =   1
                l(4) =   1
                l(5) =   2
                l(6) =   2
     Q(r) pseudized with  6 coefficients,  rinner =    1.200   1.200   1.200
                                                       1.200   1.200

     PseudoPot. # 2 for C  read from file:
     /home/users/mamunm/src/pseudo/gbrv1.5pbe/C.UPF
     MD5 check sum: d1aef80898a10debaa0f26306b886e00
     Pseudo is Ultrasoft + core correction, Zval =  4.0
     Generated by new atomic code, or converted to UPF format
     Using radial grid of  721 points,  4 beta functions with: 
                l(1) =   0
                l(2) =   0
                l(3) =   1
                l(4) =   1
     Q(r) pseudized with  8 coefficients,  rinner =    1.100   1.100   1.100


     PseudoPot. # 3 for H  read from file:
     /home/users/mamunm/src/pseudo/gbrv1.5pbe/H.UPF
     MD5 check sum: 761ae9a214b05c3daf00ab9f6b793d6f
     Pseudo is Ultrasoft, Zval =  1.0
     Generated by new atomic code, or converted to UPF format
     Using radial grid of  615 points,  2 beta functions with: 
                l(1) =   0
                l(2) =   0
     Q(r) pseudized with  8 coefficients,  rinner =    0.700

     vdW kernel table read from file vdW_kernel_table
     MD5 check sum: 095c7af220d748ca6e76c0b4c6cfb241

     atomic species   valence    mass     pseudopotential
        Zr1           12.00    91.22400     Zr( 1.00)
        C1             4.00    12.01100     C ( 1.00)
        H1             1.00     1.00800     H ( 1.00)

     No symmetry found



   Cartesian axes

     site n.     atom                  positions (alat units)
         1           Zr1 tau(   1) = (   1.6053057   0.9268237  10.0000000  )
         2           Zr1 tau(   2) = (   4.8159170   0.9268237  10.0000000  )
         3           Zr1 tau(   3) = (   3.2106113   3.7072946  10.0000000  )
         4           Zr1 tau(   4) = (   6.4212227   3.7072946  10.0000000  )
         5           Zr1 tau(   5) = (   6.4212227   1.8536473  12.6214532  )
         6           Zr1 tau(   6) = (   3.2106113   1.8536473  12.6214532  )
         7           Zr1 tau(   7) = (   8.0265283   4.6341183  12.6214532  )
         8           Zr1 tau(   8) = (   4.8159170   4.6341183  12.6214532  )
         9           Zr1 tau(   9) = (   0.0000000   0.0000000  15.2429064  )
        10           Zr1 tau(  10) = (   3.2106113   0.0000000  15.2429064  )
        11           Zr1 tau(  11) = (   1.6053057   2.7804710  15.2429064  )
        12           Zr1 tau(  12) = (   4.8159170   2.7804710  15.2429064  )
        13           C1  tau(  13) = (   0.0000000   0.0000000  17.3764064  )
        14           H1  tau(  14) = (   1.0900000   0.0000000  18.0064064  )
        15           H1  tau(  15) = (   5.9712227   0.8895000  18.0064064  )
        16           H1  tau(  16) = (   2.7606113   4.6714420  18.0064064  )

     number of k points=    20  Fermi-Dirac smearing, width (Ry)=  0.0110
                       cart. coord. in units 2pi/alat
        k(    1) = (   0.0000000   0.0000000   0.0000000), wk =   0.0555556
        k(    2) = (   0.0000000   0.0299709   0.0000000), wk =   0.1111111
        k(    3) = (   0.0000000   0.0599419   0.0000000), wk =   0.1111111
        k(    4) = (   0.0000000  -0.0899128   0.0000000), wk =   0.0555556
        k(    5) = (   0.0259556  -0.0149855   0.0000000), wk =   0.1111111
        k(    6) = (   0.0259556   0.0149855   0.0000000), wk =   0.1111111
        k(    7) = (   0.0259556   0.0449564   0.0000000), wk =   0.1111111
        k(    8) = (   0.0259556  -0.1048983   0.0000000), wk =   0.1111111
        k(    9) = (   0.0259556  -0.0749274   0.0000000), wk =   0.1111111
        k(   10) = (   0.0259556  -0.0449564   0.0000000), wk =   0.1111111
        k(   11) = (   0.0519112  -0.0299709   0.0000000), wk =   0.1111111
        k(   12) = (   0.0519112   0.0000000   0.0000000), wk =   0.1111111
        k(   13) = (   0.0519112   0.0299709   0.0000000), wk =   0.1111111
        k(   14) = (   0.0519112  -0.1198838   0.0000000), wk =   0.1111111
        k(   15) = (   0.0519112  -0.0899128   0.0000000), wk =   0.1111111
        k(   16) = (   0.0519112  -0.0599419   0.0000000), wk =   0.1111111
        k(   17) = (  -0.0778668   0.0449564   0.0000000), wk =   0.0555556
        k(   18) = (  -0.0778668   0.0749274   0.0000000), wk =   0.1111111
        k(   19) = (  -0.0778668   0.1048983   0.0000000), wk =   0.1111111
        k(   20) = (  -0.0778668  -0.0449564   0.0000000), wk =   0.0555556

     Dense  grid:   723123 G-vectors     FFT dimensions: (  75,  75, 300)

     Smooth grid:   183131 G-vectors     FFT dimensions: (  48,  48, 192)

     Largest allocated arrays     est. size (Mb)     dimensions
        Kohn-Sham Wavefunctions         1.90 Mb     (    1464,   85)
        NL pseudopotentials             5.14 Mb     (    1464,  230)
        Each V/rho on FFT grid          1.63 Mb     (  106875)
        Each G-vector array             0.34 Mb     (   45199)
        G-vector shells                 0.14 Mb     (   17726)
     Largest temporary arrays     est. size (Mb)     dimensions
        Auxiliary wavefunctions         7.60 Mb     (    1464,  340)
        Each subspace H/S matrix        0.44 Mb     (     170,  170)
        Each <psi_i|beta_j> matrix      0.30 Mb     (     230,   85)
        Arrays for rho mixing          16.31 Mb     (  106875,   10)

     Initial potential from superposition of free atoms
     Check: negative starting charge=   -0.729038

     starting charge  150.97414, renormalised to  151.00000

     negative rho (up, down):  7.292E-01 0.000E+00


     ************************************************************************
     *
     * You are using vdW-DF for exchange-correlation in this calculation.
     * Please cite the following three references that made this development
     * possible:
     *
     *   M. Dion, H. Rydberg, E. Schroder, D. C. Langreth, and
     *   B. I. Lundqvist, Phys. Rev. Lett. 92, 246401 (2004).
     *
     *   T. Thonhauser, V. R. Cooper, S. Li, A. Puzder, P. Hyldgaard, and
     *   D. C. Langreth, Phys. Rev. B 76, 125112 (2007).
     *
     *   G. Roman-Perez and J. M. Soler, Phys. Rev. Lett. 103, 096102 (2009).
     *
     *
     * If you are using vdW-DF2, please also cite:
     *
     *   K. Lee, E. D. Murray, L. Kong, B. I. Lundqvist, and
     *   D. C. Langreth, Phys. Rev. B 82, 081101(R) (2010).
     *
     *
     * If you are calculating the stress with vdW-DF, please also cite:
     *
     *   R. Sabatini, E. Kucukbenli, B. Kolb, T. Thonhauser, and
     *   S. de Gironcoli, J. Phys.: Condens. Matter 24, 424209 (2012).
     *
     ************************************************************************

     Carrying out vdW-DF run using the following parameters:

     Nqs =      20    Nr_points =    1024   r_max =   100.000
     q_mesh =
               0.00001000     0.04494208     0.09755937     0.15916263
               0.23128650     0.31572767     0.41458969     0.53033537
               0.66584808     0.82450364     1.01025438     1.22772762
               1.48234092     1.78043706     2.12944203     2.53805004
               3.01644009     3.57652955     4.23227104     5.00000000

     Gradients computed in reciprocal space

     ************************************************************************


 
     Adding external electric field

     Computed dipole along edir(3) : 
        Dipole               -0.0107 Ry au,         -0.0273 Debye
        Dipole field         -0.0000 Ry au
 
        Potential amp.        0.0021 Ry
        Total length         46.5096 bohr
 
     Starting wfc are  163 randomized atomic wfcs

     total cpu time spent up to now is        7.9 secs

     per-process dynamical memory:    44.9 Mb

     Self-consistent Calculation

     iteration #  1     ecut=    36.75 Ry     beta=0.30
     Davidson diagonalization with overlap
     ethr =  1.00E-02,  avg # of iterations =  2.0

     negative rho (up, down):  7.330E-01 0.000E+00
 
     Adding external electric field

     Computed dipole along edir(3) : 
        Dipole               -1.9754 Ry au,         -5.0211 Debye
        Dipole field         -0.0041 Ry au
 
        Potential amp.        0.3796 Ry
        Total length         46.5096 bohr
 

     total cpu time spent up to now is       17.6 secs

     total energy              =   -1209.14775249 Ry
     Harris-Foulkes estimate   =   -1212.80446675 Ry
     estimated scf accuracy    <       7.77627227 Ry

     iteration #  2     ecut=    36.75 Ry     beta=0.30
     Davidson diagonalization with overlap
     ethr =  5.15E-03,  avg # of iterations =  7.5

     negative rho (up, down):  7.331E-01 0.000E+00
 
     Adding external electric field

     Computed dipole along edir(3) : 
        Dipole                3.7567 Ry au,          9.5486 Debye
        Dipole field          0.0078 Ry au
 
        Potential amp.       -0.7219 Ry
        Total length         46.5096 bohr
 

     total cpu time spent up to now is       35.6 secs

     total energy              =   -1202.06299571 Ry
     Harris-Foulkes estimate   =   -1220.09044779 Ry
     estimated scf accuracy    <     326.29519711 Ry

     iteration #  3     ecut=    36.75 Ry     beta=0.30
     Davidson diagonalization with overlap
     ethr =  5.15E-03,  avg # of iterations = 11.2

     negative rho (up, down):  7.325E-01 0.000E+00
 
     Adding external electric field

     Computed dipole along edir(3) : 
        Dipole               -0.2319 Ry au,         -0.5895 Debye
        Dipole field         -0.0005 Ry au
 
        Potential amp.        0.0446 Ry
        Total length         46.5096 bohr
 

     total cpu time spent up to now is       60.6 secs

     total energy              =   -1203.79392590 Ry
     Harris-Foulkes estimate   =   -1222.55852545 Ry
     estimated scf accuracy    <     586.91493276 Ry

     iteration #  4     ecut=    36.75 Ry     beta=0.30
     Davidson diagonalization with overlap
     ethr =  5.15E-03,  avg # of iterations =  6.8

     negative rho (up, down):  7.344E-01 0.000E+00
 
     Adding external electric field

     Computed dipole along edir(3) : 
        Dipole                0.1880 Ry au,          0.4778 Debye
        Dipole field          0.0004 Ry au
 
        Potential amp.       -0.0361 Ry
        Total length         46.5096 bohr
 

     total cpu time spent up to now is       77.5 secs

     total energy              =   -1211.93311770 Ry
     Harris-Foulkes estimate   =   -1212.14735415 Ry
     estimated scf accuracy    <       4.06936242 Ry

     iteration #  5     ecut=    36.75 Ry     beta=0.30
     Davidson diagonalization with overlap
     ethr =  2.69E-03,  avg # of iterations =  2.2

     negative rho (up, down):  7.378E-01 0.000E+00
 
     Adding external electric field

     Computed dipole along edir(3) : 
        Dipole               -0.1295 Ry au,         -0.3291 Debye
        Dipole field         -0.0003 Ry au
 
        Potential amp.        0.0249 Ry
        Total length         46.5096 bohr
 

     total cpu time spent up to now is       87.2 secs

     total energy              =   -1212.00448950 Ry
     Harris-Foulkes estimate   =   -1212.06297304 Ry
     estimated scf accuracy    <       0.33479844 Ry

     iteration #  6     ecut=    36.75 Ry     beta=0.30
     Davidson diagonalization with overlap
     ethr =  2.22E-04,  avg # of iterations =  7.0

     negative rho (up, down):  7.399E-01 0.000E+00
 
     Adding external electric field

     Computed dipole along edir(3) : 
        Dipole               -0.0256 Ry au,         -0.0650 Debye
        Dipole field         -0.0001 Ry au
 
        Potential amp.        0.0049 Ry
        Total length         46.5096 bohr
 

     total cpu time spent up to now is      102.2 secs

     total energy              =   -1212.04050908 Ry
     Harris-Foulkes estimate   =   -1212.05923738 Ry
     estimated scf accuracy    <       0.16584116 Ry

     iteration #  7     ecut=    36.75 Ry     beta=0.30
     Davidson diagonalization with overlap
     ethr =  1.10E-04,  avg # of iterations =  2.9

     negative rho (up, down):  7.439E-01 0.000E+00
 
     Adding external electric field

     Computed dipole along edir(3) : 
        Dipole                0.0313 Ry au,          0.0795 Debye
        Dipole field          0.0001 Ry au
 
        Potential amp.       -0.0060 Ry
        Total length         46.5096 bohr
 

     total cpu time spent up to now is      112.0 secs

     total energy              =   -1212.04141010 Ry
     Harris-Foulkes estimate   =   -1212.04810648 Ry
     estimated scf accuracy    <       0.03295511 Ry

     iteration #  8     ecut=    36.75 Ry     beta=0.30
     Davidson diagonalization with overlap
     ethr =  2.18E-05,  avg # of iterations =  6.2

     negative rho (up, down):  7.457E-01 0.000E+00
 
     Adding external electric field

     Computed dipole along edir(3) : 
        Dipole                0.0417 Ry au,          0.1059 Debye
        Dipole field          0.0001 Ry au
 
        Potential amp.       -0.0080 Ry
        Total length         46.5096 bohr
 

     total cpu time spent up to now is      126.1 secs

     total energy              =   -1212.04234227 Ry
     Harris-Foulkes estimate   =   -1212.04577830 Ry
     estimated scf accuracy    <       0.03084846 Ry

     iteration #  9     ecut=    36.75 Ry     beta=0.30
     Davidson diagonalization with overlap
     ethr =  2.04E-05,  avg # of iterations =  3.0

     negative rho (up, down):  7.465E-01 0.000E+00
 
     Adding external electric field

     Computed dipole along edir(3) : 
        Dipole                0.0841 Ry au,          0.2137 Debye
        Dipole field          0.0002 Ry au
 
        Potential amp.       -0.0162 Ry
        Total length         46.5096 bohr
 

     total cpu time spent up to now is      136.2 secs

     total energy              =   -1212.04341614 Ry
     Harris-Foulkes estimate   =   -1212.04422012 Ry
     estimated scf accuracy    <       0.02108040 Ry

     iteration # 10     ecut=    36.75 Ry     beta=0.30
     Davidson diagonalization with overlap
     ethr =  1.40E-05,  avg # of iterations =  1.6

     negative rho (up, down):  7.473E-01 0.000E+00
 
     Adding external electric field

     Computed dipole along edir(3) : 
        Dipole                0.1358 Ry au,          0.3450 Debye
        Dipole field          0.0003 Ry au
 
        Potential amp.       -0.0261 Ry
        Total length         46.5096 bohr
 

     total cpu time spent up to now is      145.4 secs

     total energy              =   -1212.04392074 Ry
     Harris-Foulkes estimate   =   -1212.04394945 Ry
     estimated scf accuracy    <       0.00277195 Ry

     iteration # 11     ecut=    36.75 Ry     beta=0.30
     Davidson diagonalization with overlap
     ethr =  1.84E-06,  avg # of iterations =  7.9

     negative rho (up, down):  7.478E-01 0.000E+00
 
     Adding external electric field

     Computed dipole along edir(3) : 
        Dipole                0.1487 Ry au,          0.3779 Debye
        Dipole field          0.0003 Ry au
 
        Potential amp.       -0.0286 Ry
        Total length         46.5096 bohr
 

     total cpu time spent up to now is      160.9 secs

     total energy              =   -1212.04431508 Ry
     Harris-Foulkes estimate   =   -1212.04436891 Ry
     estimated scf accuracy    <       0.00324348 Ry

     iteration # 12     ecut=    36.75 Ry     beta=0.30
     Davidson diagonalization with overlap
     ethr =  1.84E-06,  avg # of iterations =  1.1

     negative rho (up, down):  7.479E-01 0.000E+00
 
     Adding external electric field

     Computed dipole along edir(3) : 
        Dipole                0.1420 Ry au,          0.3608 Debye
        Dipole field          0.0003 Ry au
 
        Potential amp.       -0.0273 Ry
        Total length         46.5096 bohr
 

     total cpu time spent up to now is      169.8 secs

     total energy              =   -1212.04434554 Ry
     Harris-Foulkes estimate   =   -1212.04439419 Ry
     estimated scf accuracy    <       0.00218206 Ry

     iteration # 13     ecut=    36.75 Ry     beta=0.30
     Davidson diagonalization with overlap
     ethr =  1.45E-06,  avg # of iterations =  1.0

     negative rho (up, down):  7.481E-01 0.000E+00
 
     Adding external electric field

     Computed dipole along edir(3) : 
        Dipole                0.1384 Ry au,          0.3518 Debye
        Dipole field          0.0003 Ry au
 
        Potential amp.       -0.0266 Ry
        Total length         46.5096 bohr
 

     total cpu time spent up to now is      178.7 secs

     total energy              =   -1212.04439202 Ry
     Harris-Foulkes estimate   =   -1212.04438695 Ry
     estimated scf accuracy    <       0.00020342 Ry

     iteration # 14     ecut=    36.75 Ry     beta=0.30
     Davidson diagonalization with overlap
     ethr =  1.35E-07,  avg # of iterations =  7.3

     negative rho (up, down):  7.482E-01 0.000E+00
 
     Adding external electric field

     Computed dipole along edir(3) : 
        Dipole                0.1471 Ry au,          0.3740 Debye
        Dipole field          0.0003 Ry au
 
        Potential amp.       -0.0283 Ry
        Total length         46.5096 bohr
 

     total cpu time spent up to now is      194.7 secs

     total energy              =   -1212.04442388 Ry
     Harris-Foulkes estimate   =   -1212.04443712 Ry
     estimated scf accuracy    <       0.00032919 Ry

     iteration # 15     ecut=    36.75 Ry     beta=0.30
     Davidson diagonalization with overlap
     ethr =  1.35E-07,  avg # of iterations =  2.2

     negative rho (up, down):  7.482E-01 0.000E+00
 
     Adding external electric field

     Computed dipole along edir(3) : 
        Dipole                0.1493 Ry au,          0.3796 Debye
        Dipole field          0.0003 Ry au
 
        Potential amp.       -0.0287 Ry
        Total length         46.5096 bohr
 

     total cpu time spent up to now is      204.3 secs

     total energy              =   -1212.04442565 Ry
     Harris-Foulkes estimate   =   -1212.04443095 Ry
     estimated scf accuracy    <       0.00025739 Ry

     iteration # 16     ecut=    36.75 Ry     beta=0.30
     Davidson diagonalization with overlap
     ethr =  1.35E-07,  avg # of iterations =  4.2

     negative rho (up, down):  7.483E-01 0.000E+00
 
     Adding external electric field

     Computed dipole along edir(3) : 
        Dipole                0.1509 Ry au,          0.3835 Debye
        Dipole field          0.0003 Ry au
 
        Potential amp.       -0.0290 Ry
        Total length         46.5096 bohr
 

     total cpu time spent up to now is      214.7 secs

     total energy              =   -1212.04443568 Ry
     Harris-Foulkes estimate   =   -1212.04443437 Ry
     estimated scf accuracy    <       0.00006230 Ry

     iteration # 17     ecut=    36.75 Ry     beta=0.30
     Davidson diagonalization with overlap
     ethr =  4.13E-08,  avg # of iterations =  4.5

     negative rho (up, down):  7.483E-01 0.000E+00
 
     Adding external electric field

     Computed dipole along edir(3) : 
        Dipole                0.1510 Ry au,          0.3838 Debye
        Dipole field          0.0003 Ry au
 
        Potential amp.       -0.0290 Ry
        Total length         46.5096 bohr
 

     total cpu time spent up to now is      226.5 secs

     total energy              =   -1212.04443938 Ry
     Harris-Foulkes estimate   =   -1212.04444029 Ry
     estimated scf accuracy    <       0.00002650 Ry

     iteration # 18     ecut=    36.75 Ry     beta=0.30
     Davidson diagonalization with overlap
     ethr =  1.76E-08,  avg # of iterations =  2.5

     negative rho (up, down):  7.483E-01 0.000E+00
 
     Adding external electric field

     Computed dipole along edir(3) : 
        Dipole                0.1501 Ry au,          0.3815 Debye
        Dipole field          0.0003 Ry au
 
        Potential amp.       -0.0288 Ry
        Total length         46.5096 bohr
 

     total cpu time spent up to now is      236.2 secs

     total energy              =   -1212.04443916 Ry
     Harris-Foulkes estimate   =   -1212.04444069 Ry
     estimated scf accuracy    <       0.00001310 Ry

     iteration # 19     ecut=    36.75 Ry     beta=0.30
     Davidson diagonalization with overlap
     ethr =  8.68E-09,  avg # of iterations =  3.9

     negative rho (up, down):  7.483E-01 0.000E+00

     negative rho (up, down):  7.483E-01 0.000E+00

     negative rho (up, down):  7.483E-01 0.000E+00

     negative rho (up, down):  7.483E-01 0.000E+00

     negative rho (up, down):  7.483E-01 0.000E+00

     negative rho (up, down):  7.483E-01 0.000E+00

     negative rho (up, down):  7.483E-01 0.000E+00

     negative rho (up, down):  7.483E-01 0.000E+00

     negative rho (up, down):  7.483E-01 0.000E+00

     negative rho (up, down):  7.483E-01 0.000E+00

     negative rho (up, down):  7.483E-01 0.000E+00

     negative rho (up, down):  7.483E-01 0.000E+00

     negative rho (up, down):  7.483E-01 0.000E+00

     negative rho (up, down):  7.483E-01 0.000E+00

     negative rho (up, down):  7.483E-01 0.000E+00

     negative rho (up, down):  7.483E-01 0.000E+00

     negative rho (up, down):  7.483E-01 0.000E+00

     negative rho (up, down):  7.483E-01 0.000E+00

     negative rho (up, down):  7.483E-01 0.000E+00

     negative rho (up, down):  7.483E-01 0.000E+00

     negative rho (up, down):  7.483E-01 0.000E+00

     negative rho (up, down):  7.483E-01 0.000E+00

     negative rho (up, down):  7.483E-01 0.000E+00

     negative rho (up, down):  7.483E-01 0.000E+00

     negative rho (up, down):  7.483E-01 0.000E+00

     negative rho (up, down):  7.483E-01 0.000E+00

     negative rho (up, down):  7.483E-01 0.000E+00

     negative rho (up, down):  7.483E-01 0.000E+00

     negative rho (up, down):  7.483E-01 0.000E+00

     negative rho (up, down):  7.483E-01 0.000E+00

     negative rho (up, down):  7.483E-01 0.000E+00

     negative rho (up, down):  7.483E-01 0.000E+00

     negative rho (up, down):  7.483E-01 0.000E+00

     negative rho (up, down):  7.483E-01 0.000E+00

     negative rho (up, down):  7.483E-01 0.000E+00
 
     Adding external electric field

     Computed dipole along edir(3) : 
        Dipole                0.1549 Ry au,          0.3937 Debye
        Dipole field          0.0003 Ry au
 
        Potential amp.       -0.0298 Ry
        Total length         46.5096 bohr
 

     total cpu time spent up to now is      262.7 secs

     End of self-consistent calculation

          k = 0.0000 0.0000 0.0000 ( 22923 PWs)   bands (ev):

   -47.5583 -47.5349 -47.4866 -47.4852 -47.4540 -47.4390 -47.4383 -47.2439
   -47.2177 -47.1502 -47.1493 -47.1488 -25.8321 -25.8312 -25.8293 -25.7837
   -25.7827 -25.7806 -25.7568 -25.6741 -25.6732 -25.6601 -25.5617 -25.4789
   -25.4779 -25.4002 -25.3351 -25.3253 -25.3248 -25.2715 -25.2712 -25.2635
   -25.2414 -25.2224 -25.2217 -25.1028 -25.1027 -25.0850 -25.0847 -25.0592
   -25.0488 -25.0481 -25.0299 -24.9679 -24.9677 -24.9604 -24.8169 -24.8167
   -10.5396  -3.5740  -3.2629  -3.1662  -2.2008  -1.5825  -1.2978  -0.8202
    -0.8176  -0.8174  -0.7088  -0.7058  -0.5989  -0.3012  -0.3008  -0.2583
    -0.0634  -0.0616  -0.0056   0.7482   0.8617   0.8705   1.6717   1.8631
     1.9435   1.9699   1.9775   2.2918   2.4249   2.4288   2.4737   2.6282
     2.6284   2.7698   2.8771   2.8775   2.8945

          k = 0.0000 0.0300 0.0000 ( 22902 PWs)   bands (ev):

   -47.5535 -47.5291 -47.4906 -47.4853 -47.4564 -47.4424 -47.4384 -47.2416
   -47.2155 -47.1549 -47.1495 -47.1493 -25.8065 -25.8058 -25.7891 -25.7586
   -25.7579 -25.7439 -25.7387 -25.6575 -25.6558 -25.6409 -25.5568 -25.4920
   -25.4830 -25.4045 -25.3530 -25.3151 -25.3131 -25.2989 -25.2939 -25.2583
   -25.2534 -25.2363 -25.2236 -25.1563 -25.1230 -25.1140 -25.0897 -25.0563
   -25.0501 -25.0491 -25.0183 -24.9925 -24.9879 -24.9553 -24.8619 -24.8269
   -10.5384  -3.5925  -3.1748  -3.0668  -2.0396  -1.5395  -1.1009  -0.8119
    -0.7124  -0.6777  -0.6743  -0.5779  -0.4924  -0.1830  -0.0981  -0.0773
     0.0416   0.0557   0.1072   0.7932   0.9034   0.9068   1.6399   1.8417
     1.8824   2.0070   2.0133   2.1698   2.2382   2.2452   2.2981   2.5288
     2.5990   2.7023   2.7458   2.7549   2.7916

          k = 0.0000 0.0599 0.0000 ( 22852 PWs)   bands (ev):

   -47.5411 -47.5135 -47.5016 -47.4854 -47.4683 -47.4465 -47.4385 -47.2385
   -47.2061 -47.1692 -47.1496 -47.1493 -25.7488 -25.7433 -25.7086 -25.7009
   -25.6957 -25.6841 -25.6267 -25.6220 -25.6161 -25.6029 -25.5467 -25.5160
   -25.4987 -25.4182 -25.4098 -25.3640 -25.3570 -25.3361 -25.2908 -25.2807
   -25.2679 -25.2300 -25.2195 -25.2122 -25.2117 -25.1446 -25.1111 -25.0593
   -25.0571 -25.0451 -25.0368 -25.0365 -25.0128 -24.9797 -24.9289 -24.8543
   -10.5361  -3.6199  -3.1778  -2.5654  -1.7730  -1.3092  -1.0631  -0.6104
    -0.5792  -0.3531  -0.3519  -0.2353  -0.1749   0.0254   0.3417   0.3827
     0.3993   0.4399   0.4657   0.8857   0.9735   1.0424   1.3689   1.5695
     1.6210   1.6931   1.7359   1.8862   1.9932   2.1077   2.1273   2.1655
     2.2186   2.2484   2.2750   2.3783   2.4651

          k = 0.0000-0.0899 0.0000 ( 22880 PWs)   bands (ev):

   -47.5304 -47.5116 -47.4973 -47.4854 -47.4837 -47.4474 -47.4385 -47.2377
   -47.1909 -47.1861 -47.1496 -47.1493 -25.7125 -25.6990 -25.6735 -25.6640
   -25.6542 -25.6511 -25.5972 -25.5880 -25.5652 -25.5365 -25.5198 -25.4990
   -25.4730 -25.4575 -25.4497 -25.4370 -25.4305 -25.4062 -25.3741 -25.2949
   -25.2542 -25.2140 -25.2026 -25.1904 -25.1805 -25.1320 -25.1298 -25.1184
   -25.0973 -25.0887 -25.0421 -25.0406 -25.0326 -25.0129 -24.8954 -24.8882
   -10.5350  -3.6317  -3.1801  -2.0660  -1.7776  -1.4550  -0.8246  -0.7213
    -0.1350  -0.1187  -0.0631  -0.0293  -0.0135   0.0300   0.7157   0.7317
     0.7691   0.7723   0.7983   0.8482   1.1473   1.2356   1.2385   1.2819
     1.2960   1.3617   1.5256   1.6005   1.6968   1.7116   1.7971   1.8672
     1.9011   1.9219   2.0199   2.0739   2.3615

          k = 0.0260-0.0150 0.0000 ( 22902 PWs)   bands (ev):

   -47.5536 -47.5291 -47.4893 -47.4865 -47.4566 -47.4417 -47.4390 -47.2416
   -47.2156 -47.1549 -47.1498 -47.1490 -25.8070 -25.8057 -25.7888 -25.7591
   -25.7577 -25.7437 -25.7386 -25.6582 -25.6550 -25.6410 -25.5568 -25.4912
   -25.4839 -25.4045 -25.3529 -25.3156 -25.3127 -25.2986 -25.2942 -25.2584
   -25.2528 -25.2364 -25.2244 -25.1563 -25.1231 -25.1141 -25.0895 -25.0565
   -25.0501 -25.0489 -25.0183 -24.9926 -24.9877 -24.9554 -24.8617 -24.8270
   -10.5385  -3.5806  -3.2009  -3.0553  -2.0388  -1.5388  -1.1006  -0.8113
    -0.7119  -0.6789  -0.6753  -0.5776  -0.4920  -0.1830  -0.0983  -0.0772
     0.0429   0.0546   0.1072   0.7933   0.8994   0.9104   1.6400   1.8425
     1.8858   2.0027   2.0154   2.1710   2.2380   2.2446   2.2993   2.5286
     2.5996   2.7031   2.7430   2.7555   2.7920

          k = 0.0260 0.0150 0.0000 ( 22902 PWs)   bands (ev):

   -47.5536 -47.5291 -47.4901 -47.4857 -47.4565 -47.4423 -47.4385 -47.2416
   -47.2155 -47.1549 -47.1500 -47.1488 -25.8064 -25.8061 -25.7890 -25.7585
   -25.7580 -25.7444 -25.7383 -25.6576 -25.6556 -25.6410 -25.5568 -25.4917
   -25.4833 -25.4045 -25.3529 -25.3153 -25.3130 -25.2988 -25.2940 -25.2584
   -25.2536 -25.2362 -25.2239 -25.1563 -25.1230 -25.1140 -25.0897 -25.0560
   -25.0499 -25.0496 -25.0183 -24.9924 -24.9881 -24.9552 -24.8619 -24.8268
   -10.5385  -3.5806  -3.2008  -3.0553  -2.0388  -1.5389  -1.1006  -0.8108
    -0.7125  -0.6790  -0.6734  -0.5793  -0.4923  -0.1825  -0.0983  -0.0772
     0.0426   0.0546   0.1073   0.7933   0.8993   0.9098   1.6401   1.8460
     1.8855   2.0047   2.0122   2.1688   2.2386   2.2429   2.3031   2.5291
     2.5990   2.7025   2.7432   2.7556   2.7914

          k = 0.0260 0.0450 0.0000 ( 22896 PWs)   bands (ev):

   -47.5449 -47.5184 -47.4979 -47.4857 -47.4617 -47.4504 -47.4362 -47.2391
   -47.2095 -47.1604 -47.1584 -47.1448 -25.7730 -25.7370 -25.7327 -25.7249
   -25.7186 -25.6850 -25.6766 -25.6315 -25.6294 -25.6125 -25.5490 -25.5105
   -25.4949 -25.4135 -25.4022 -25.3791 -25.2976 -25.2935 -25.2822 -25.2692
   -25.2665 -25.2479 -25.2389 -25.2171 -25.1861 -25.1380 -25.1079 -25.0641
   -25.0533 -25.0471 -25.0415 -25.0134 -24.9715 -24.9659 -24.9398 -24.8486
   -10.5367  -3.6043  -3.1899  -2.7195  -1.8207  -1.3893  -0.8039  -0.7590
    -0.7286  -0.5442  -0.4855  -0.3612  -0.1468   0.0854   0.1090   0.2436
     0.2708   0.3109   0.3554   0.8686   0.9638   0.9726   1.5197   1.6631
     1.6928   1.7877   1.8228   1.9796   2.0303   2.1281   2.2013   2.2637
     2.3184   2.4006   2.4121   2.4969   2.5183

          k = 0.0260-0.1049 0.0000 ( 22856 PWs)   bands (ev):

   -47.5313 -47.5099 -47.5007 -47.4862 -47.4751 -47.4573 -47.4339 -47.2377
   -47.1954 -47.1763 -47.1619 -47.1421 -25.7086 -25.6822 -25.6780 -25.6639
   -25.6504 -25.6197 -25.5986 -25.5910 -25.5790 -25.5472 -25.5410 -25.5230
   -25.5171 -25.4860 -25.4740 -25.4130 -25.3882 -25.3773 -25.3142 -25.2693
   -25.2530 -25.2362 -25.2229 -25.2024 -25.1841 -25.1760 -25.1472 -25.1327
   -25.0633 -25.0517 -25.0446 -25.0329 -25.0156 -24.9989 -24.9318 -24.8874
   -10.5350  -3.6231  -3.1915  -2.1621  -1.6903  -1.2390  -0.9042  -0.6621
    -0.4901  -0.1748  -0.1352   0.0289   0.2269   0.2428   0.5934   0.6256
     0.6534   0.6961   0.7388   0.9820   1.0822   1.1180   1.1792   1.3371
     1.3746   1.4347   1.4866   1.5320   1.6190   1.7426   1.8095   1.8886
     1.9400   1.9810   2.0392   2.0925   2.1822

          k = 0.0260-0.0749 0.0000 ( 22856 PWs)   bands (ev):

   -47.5315 -47.5095 -47.5007 -47.4864 -47.4752 -47.4571 -47.4339 -47.2377
   -47.1955 -47.1762 -47.1619 -47.1421 -25.7087 -25.6820 -25.6783 -25.6638
   -25.6505 -25.6198 -25.5988 -25.5909 -25.5791 -25.5475 -25.5409 -25.5231
   -25.5163 -25.4862 -25.4735 -25.4129 -25.3885 -25.3776 -25.3142 -25.2692
   -25.2531 -25.2361 -25.2233 -25.2018 -25.1841 -25.1761 -25.1477 -25.1323
   -25.0633 -25.0516 -25.0446 -25.0331 -25.0156 -24.9989 -24.9317 -24.8876
   -10.5350  -3.6230  -3.1915  -2.1621  -1.6904  -1.2388  -0.9046  -0.6629
    -0.4895  -0.1734  -0.1354   0.0278   0.2293   0.2412   0.5948   0.6235
     0.6536   0.6960   0.7382   0.9783   1.0830   1.1266   1.1758   1.3357
     1.3762   1.4329   1.4855   1.5336   1.6193   1.7423   1.8064   1.8919
     1.9352   1.9885   2.0394   2.0896   2.1795

          k = 0.0260-0.0450 0.0000 ( 22896 PWs)   bands (ev):

   -47.5450 -47.5184 -47.4972 -47.4863 -47.4620 -47.4499 -47.4364 -47.2391
   -47.2095 -47.1601 -47.1586 -47.1448 -25.7731 -25.7373 -25.7326 -25.7247
   -25.7185 -25.6852 -25.6764 -25.6321 -25.6288 -25.6126 -25.5491 -25.5101
   -25.4953 -25.4135 -25.4020 -25.3791 -25.2976 -25.2938 -25.2821 -25.2693
   -25.2663 -25.2478 -25.2388 -25.2176 -25.1857 -25.1380 -25.1080 -25.0639
   -25.0533 -25.0468 -25.0419 -25.0134 -24.9713 -24.9660 -24.9396 -24.8488
   -10.5367  -3.6043  -3.1900  -2.7194  -1.8207  -1.3894  -0.8047  -0.7595
    -0.7281  -0.5431  -0.4856  -0.3621  -0.1456   0.0839   0.1094   0.2441
     0.2714   0.3109   0.3542   0.8687   0.9640   0.9748   1.5197   1.6608
     1.6910   1.7868   1.8242   1.9796   2.0295   2.1243   2.2013   2.2646
     2.3172   2.4027   2.4134   2.4954   2.5218

          k = 0.0519-0.0300 0.0000 ( 22852 PWs)   bands (ev):

   -47.5415 -47.5135 -47.5000 -47.4866 -47.4686 -47.4457 -47.4390 -47.2385
   -47.2061 -47.1691 -47.1499 -47.1490 -25.7503 -25.7425 -25.7089 -25.7017
   -25.6946 -25.6837 -25.6261 -25.6228 -25.6155 -25.6031 -25.5467 -25.5151
   -25.4995 -25.4182 -25.4096 -25.3643 -25.3566 -25.3352 -25.2906 -25.2812
   -25.2675 -25.2302 -25.2191 -25.2130 -25.2124 -25.1447 -25.1106 -25.0597
   -25.0567 -25.0452 -25.0368 -25.0362 -25.0127 -24.9795 -24.9290 -24.8545
   -10.5361  -3.5918  -3.2160  -2.5623  -1.7733  -1.3060  -1.0633  -0.6101
    -0.5779  -0.3545  -0.3517  -0.2354  -0.1746   0.0258   0.3427   0.3829
     0.3992   0.4388   0.4657   0.8862   0.9701   1.0457   1.3695   1.5718
     1.6223   1.6902   1.7391   1.8875   1.9937   2.1117   2.1254   2.1640
     2.2191   2.2453   2.2759   2.3788   2.4572

          k = 0.0519 0.0000 0.0000 ( 22896 PWs)   bands (ev):

   -47.5450 -47.5184 -47.4967 -47.4867 -47.4621 -47.4498 -47.4364 -47.2391
   -47.2095 -47.1601 -47.1587 -47.1448 -25.7732 -25.7377 -25.7327 -25.7243
   -25.7186 -25.6856 -25.6758 -25.6321 -25.6286 -25.6127 -25.5491 -25.5098
   -25.4955 -25.4135 -25.4015 -25.3791 -25.2977 -25.2939 -25.2825 -25.2693
   -25.2663 -25.2478 -25.2390 -25.2173 -25.1858 -25.1381 -25.1078 -25.0639
   -25.0533 -25.0470 -25.0418 -25.0134 -24.9714 -24.9659 -24.9396 -24.8488
   -10.5367  -3.5830  -3.2205  -2.7150  -1.8205  -1.3868  -0.8042  -0.7594
    -0.7272  -0.5440  -0.4857  -0.3628  -0.1460   0.0834   0.1097   0.2444
     0.2707   0.3112   0.3547   0.8690   0.9655   0.9706   1.5198   1.6640
     1.6910   1.7906   1.8256   1.9795   2.0287   2.1253   2.2059   2.2640
     2.3195   2.3998   2.4131   2.4992   2.5143

          k = 0.0519 0.0300 0.0000 ( 22852 PWs)   bands (ev):

   -47.5413 -47.5135 -47.5010 -47.4858 -47.4683 -47.4464 -47.4385 -47.2385
   -47.2060 -47.1692 -47.1500 -47.1488 -25.7496 -25.7429 -25.7087 -25.7017
   -25.6951 -25.6838 -25.6265 -25.6222 -25.6157 -25.6029 -25.5468 -25.5158
   -25.4987 -25.4182 -25.4096 -25.3640 -25.3569 -25.3361 -25.2907 -25.2808
   -25.2678 -25.2302 -25.2201 -25.2124 -25.2114 -25.1447 -25.1109 -25.0590
   -25.0574 -25.0449 -25.0369 -25.0364 -25.0128 -24.9797 -24.9289 -24.8543
   -10.5361  -3.5919  -3.2159  -2.5623  -1.7734  -1.3058  -1.0631  -0.6106
    -0.5779  -0.3544  -0.3517  -0.2354  -0.1748   0.0270   0.3422   0.3825
     0.3993   0.4395   0.4656   0.8867   0.9681   1.0449   1.3691   1.5715
     1.6226   1.6899   1.7442   1.8858   1.9943   2.1112   2.1231   2.1662
     2.2178   2.2471   2.2756   2.3780   2.4580

          k = 0.0519-0.1199 0.0000 ( 22856 PWs)   bands (ev):

   -47.5315 -47.5094 -47.5007 -47.4865 -47.4752 -47.4572 -47.4339 -47.2377
   -47.1954 -47.1764 -47.1619 -47.1421 -25.7090 -25.6820 -25.6788 -25.6634
   -25.6504 -25.6195 -25.5990 -25.5908 -25.5789 -25.5474 -25.5408 -25.5232
   -25.5164 -25.4862 -25.4739 -25.4130 -25.3882 -25.3773 -25.3142 -25.2693
   -25.2530 -25.2363 -25.2236 -25.2019 -25.1841 -25.1763 -25.1473 -25.1323
   -25.0633 -25.0518 -25.0446 -25.0328 -25.0156 -24.9990 -24.9318 -24.8874
   -10.5350  -3.6057  -3.2139  -2.1621  -1.6901  -1.2380  -0.9036  -0.6623
    -0.4896  -0.1737  -0.1349   0.0281   0.2296   0.2430   0.5957   0.6233
     0.6540   0.6949   0.7383   0.9763   1.0837   1.1269   1.1733   1.3359
     1.3752   1.4334   1.4922   1.5301   1.6197   1.7429   1.8071   1.8930
     1.9354   1.9858   2.0431   2.0877   2.1773

          k = 0.0519-0.0899 0.0000 ( 22914 PWs)   bands (ev):

   -47.5205 -47.5191 -47.4905 -47.4876 -47.4730 -47.4723 -47.4312 -47.2376
   -47.1811 -47.1804 -47.1754 -47.1395 -25.6535 -25.6524 -25.6435 -25.6345
   -25.6071 -25.6042 -25.5839 -25.5776 -25.5622 -25.5594 -25.5444 -25.5063
   -25.5061 -25.5048 -25.4964 -25.4750 -25.4723 -25.4043 -25.2541 -25.2529
   -25.2492 -25.2473 -25.2306 -25.2056 -25.2004 -25.1967 -25.1448 -25.1410
   -25.1340 -25.0559 -25.0375 -25.0302 -25.0148 -24.9512 -24.9422 -24.9401
   -10.5344  -3.6112  -3.2151  -1.9237  -1.3531  -1.3458  -1.1325  -0.4391
    -0.4315  -0.2833   0.3904   0.4158   0.4573   0.4586   0.4888   0.5052
     0.9345   0.9417   0.9480   1.0391   1.0422   1.0573   1.0603   1.0659
     1.1084   1.1233   1.3045   1.5268   1.5433   1.5558   1.6249   1.6446
     1.7230   1.8086   1.9176   1.9797   1.9847

          k = 0.0519-0.0599 0.0000 ( 22856 PWs)   bands (ev):

   -47.5320 -47.5083 -47.5006 -47.4871 -47.4755 -47.4568 -47.4340 -47.2377
   -47.1955 -47.1762 -47.1619 -47.1421 -25.7093 -25.6825 -25.6785 -25.6633
   -25.6500 -25.6195 -25.5995 -25.5902 -25.5792 -25.5468 -25.5409 -25.5234
   -25.5166 -25.4860 -25.4739 -25.4129 -25.3880 -25.3771 -25.3142 -25.2691
   -25.2533 -25.2364 -25.2238 -25.2023 -25.1841 -25.1760 -25.1472 -25.1322
   -25.0632 -25.0514 -25.0446 -25.0334 -25.0155 -24.9987 -24.9317 -24.8877
   -10.5350  -3.6057  -3.2140  -2.1620  -1.6901  -1.2386  -0.9034  -0.6617
    -0.4891  -0.1745  -0.1346   0.0282   0.2279   0.2428   0.5929   0.6267
     0.6536   0.6949   0.7387   0.9800   1.0845   1.1192   1.1825   1.3361
     1.3747   1.4349   1.4871   1.5261   1.6202   1.7474   1.8095   1.8873
     1.9405   1.9803   2.0383   2.0897   2.1839

          k =-0.0779 0.0450 0.0000 ( 22880 PWs)   bands (ev):

   -47.5316 -47.5092 -47.4970 -47.4866 -47.4842 -47.4467 -47.4390 -47.2376
   -47.1913 -47.1857 -47.1499 -47.1491 -25.7144 -25.6982 -25.6743 -25.6649
   -25.6519 -25.6509 -25.5978 -25.5875 -25.5656 -25.5355 -25.5208 -25.4986
   -25.4728 -25.4578 -25.4497 -25.4362 -25.4296 -25.4066 -25.3739 -25.2945
   -25.2548 -25.2140 -25.2043 -25.1901 -25.1811 -25.1310 -25.1297 -25.1181
   -25.0976 -25.0883 -25.0420 -25.0402 -25.0331 -25.0128 -24.8949 -24.8890
   -10.5350  -3.5970  -3.2249  -2.0670  -1.7753  -1.4552  -0.8196  -0.7217
    -0.1352  -0.1190  -0.0633  -0.0271  -0.0142   0.0300   0.7151   0.7315
     0.7692   0.7720   0.7990   0.8498   1.1508   1.2364   1.2381   1.2814
     1.2968   1.3628   1.5270   1.6006   1.6985   1.7087   1.7964   1.8689
     1.8957   1.9235   2.0211   2.0737   2.3524

          k =-0.0779 0.0749 0.0000 ( 22856 PWs)   bands (ev):

   -47.5321 -47.5081 -47.5006 -47.4872 -47.4756 -47.4568 -47.4340 -47.2377
   -47.1955 -47.1762 -47.1619 -47.1421 -25.7094 -25.6828 -25.6783 -25.6634
   -25.6500 -25.6195 -25.5994 -25.5902 -25.5793 -25.5472 -25.5408 -25.5234
   -25.5160 -25.4859 -25.4733 -25.4129 -25.3885 -25.3776 -25.3142 -25.2687
   -25.2533 -25.2364 -25.2239 -25.2025 -25.1841 -25.1761 -25.1470 -25.1322
   -25.0632 -25.0515 -25.0446 -25.0333 -25.0154 -24.9987 -24.9318 -24.8877
   -10.5350  -3.5957  -3.2270  -2.1611  -1.6900  -1.2385  -0.9009  -0.6625
    -0.4900  -0.1737  -0.1344   0.0276   0.2288   0.2418   0.5945   0.6243
     0.6537   0.6945   0.7384   0.9765   1.0845   1.1274   1.1742   1.3375
     1.3754   1.4335   1.4854   1.5369   1.6199   1.7447   1.8062   1.8926
     1.9343   1.9883   2.0403   2.0941   2.1713

          k =-0.0779 0.1049 0.0000 ( 22856 PWs)   bands (ev):

   -47.5318 -47.5088 -47.5007 -47.4868 -47.4753 -47.4570 -47.4339 -47.2377
   -47.1954 -47.1763 -47.1619 -47.1421 -25.7090 -25.6822 -25.6788 -25.6636
   -25.6504 -25.6198 -25.5992 -25.5906 -25.5787 -25.5472 -25.5409 -25.5224
   -25.5165 -25.4863 -25.4734 -25.4129 -25.3886 -25.3777 -25.3142 -25.2695
   -25.2532 -25.2362 -25.2234 -25.2018 -25.1842 -25.1763 -25.1473 -25.1322
   -25.0634 -25.0517 -25.0446 -25.0328 -25.0156 -24.9989 -24.9317 -24.8875
   -10.5350  -3.5957  -3.2270  -2.1611  -1.6899  -1.2385  -0.9011  -0.6619
    -0.4906  -0.1747  -0.1332   0.0280   0.2281   0.2424   0.5929   0.6261
     0.6537   0.6946   0.7386   0.9802   1.0827   1.1186   1.1801   1.3365
     1.3746   1.4348   1.4865   1.5324   1.6196   1.7470   1.8116   1.8888
     1.9400   1.9816   2.0388   2.0950   2.1745

          k =-0.0779-0.0450 0.0000 ( 22880 PWs)   bands (ev):

   -47.5309 -47.5106 -47.4973 -47.4859 -47.4838 -47.4473 -47.4386 -47.2377
   -47.1907 -47.1863 -47.1500 -47.1488 -25.7134 -25.6987 -25.6739 -25.6646
   -25.6525 -25.6515 -25.5976 -25.5878 -25.5649 -25.5363 -25.5193 -25.4987
   -25.4729 -25.4575 -25.4500 -25.4369 -25.4305 -25.4061 -25.3740 -25.2954
   -25.2543 -25.2135 -25.2033 -25.1904 -25.1807 -25.1317 -25.1298 -25.1186
   -25.0970 -25.0889 -25.0419 -25.0409 -25.0324 -25.0129 -24.8957 -24.8879
   -10.5350  -3.5971  -3.2248  -2.0671  -1.7751  -1.4551  -0.8196  -0.7224
    -0.1357  -0.1187  -0.0627  -0.0275  -0.0133   0.0311   0.7161   0.7318
     0.7689   0.7725   0.7984   0.8483   1.1504   1.2347   1.2383   1.2819
     1.2922   1.3636   1.5272   1.6071   1.6978   1.7068   1.7963   1.8697
     1.8876   1.9310   2.0196   2.0740   2.3556

     the Fermi energy is     1.7507 ev

!    total energy              =   -1212.04443969 Ry
     Harris-Foulkes estimate   =   -1212.04443726 Ry
     estimated scf accuracy    <       0.00000091 Ry

     The total energy is the sum of the following terms:

     one-electron contribution =   -8372.46458834 Ry
     hartree contribution      =    4180.58322179 Ry
     xc contribution           =    -226.44423169 Ry
     ewald contribution        =    3206.40199174 Ry
     electric field correction =       0.00004957 Ry
     smearing contrib. (-TS)   =      -0.12088275 Ry

     convergence has been achieved in  19 iterations
 
 BEEF-vdW xc energy contributions
           1 :   -193.800042647235     
           2 :    175.192231845710     
           3 :   -143.951445687757     
           4 :    108.956531182048     
           5 :   -78.0958203804118     
           6 :    55.5798932947079     
           7 :   -41.3562293542206     
           8 :    32.4719020059797     
           9 :   -25.3579907150442     
          10 :    17.7603501104987     
          11 :   -9.47334000615186     
          12 :    1.79796460429120     
          13 :    3.69040428402408     
          14 :   -6.24785425019815     
          15 :    6.36121223380857     
          16 :   -5.35192233925923     
          17 :    4.54432104213507     
          18 :   -4.55480340273505     
          19 :    5.11511310643056     
          20 :   -5.46132614867147     
          21 :    4.96607842451127     
          22 :   -3.58317830841818     
          23 :    1.84842427311767     
          24 :  -0.497142126831335     
          25 :  -7.260997841001426E-003
          26 :  -0.276182981193415     
          27 :   0.866703905434207     
          28 :   -1.20916034880113     
          29 :    1.02471822758184     
          30 :  -0.448247266015670     
          31 :   -22.5823767341416     
          32 :   -16.7956183364741     

     Forces acting on atoms (Ry/au):


     negative rho (up, down):  7.483E-01 0.000E+00
     atom    1 type  1   force =     0.00029189    0.00019392    0.01527880
     atom    2 type  1   force =    -0.00037947    0.00013988    0.01527773
     atom    3 type  1   force =     0.00014658   -0.00037062    0.01530376
     atom    4 type  1   force =    -0.00004952    0.00001633    0.01649733
     atom    5 type  1   force =    -0.00004121    0.00975781   -0.01098276
     atom    6 type  1   force =    -0.00006023   -0.00009564    0.00252542
     atom    7 type  1   force =    -0.00846054   -0.00482955   -0.01118105
     atom    8 type  1   force =     0.00856844   -0.00489283   -0.01106426
     atom    9 type  1   force =     0.00020286   -0.00001820   -0.03400733
     atom   10 type  1   force =    -0.00168211    0.00354944   -0.02305991
     atom   11 type  1   force =     0.00401501    0.00108347   -0.02459592
     atom   12 type  1   force =    -0.00185339   -0.00445957   -0.02448571
     atom   13 type  2   force =     0.04527321   -0.00006488    0.24757517
     atom   14 type  3   force =    -0.07859030   -0.00088005   -0.07121946
     atom   15 type  3   force =     0.01701493   -0.04345584   -0.05093633
     atom   16 type  3   force =     0.01560383    0.04432634   -0.05092548

     Total force =     0.295153     Total SCF correction =     0.001257


     entering subroutine stress ...


     negative rho (up, down):  7.483E-01 0.000E+00
          total   stress  (Ry/bohr**3)                   (kbar)     P=  -12.40
  -0.00009816  -0.00000012  -0.00000950        -14.44     -0.02     -1.40
  -0.00000012  -0.00009088   0.00000004         -0.02    -13.37      0.01
  -0.00000950   0.00000004  -0.00006377         -1.40      0.01     -9.38


     BFGS Geometry Optimization

     number of scf cycles    =   1
     number of bfgs steps    =   0

     energy   new            =   -1212.0444396857 Ry

     new trust radius        =       0.2516806144 bohr
     new conv_thr            =       0.0000099958 Ry


ATOMIC_POSITIONS (crystal)
Zr1      0.166666667   0.166666667   0.396150897    0   0   0
Zr1      0.666666667   0.166666667   0.396150897    0   0   0
Zr1      0.166666667   0.666666667   0.396150897    0   0   0
Zr1      0.666666667   0.666666667   0.396150897    0   0   0
Zr1      0.833333333   0.333333333   0.500000000    0   0   0
Zr1      0.333333333   0.333333333   0.500000000    0   0   0
Zr1      0.833333333   0.833333333   0.500000000    0   0   0
Zr1      0.333333333   0.833333333   0.500000000    0   0   0
Zr1      0.000017584  -0.000001732   0.603136193
Zr1      0.499692494   0.000337764   0.603365689
Zr1      0.000279329   0.500103102   0.603333489
Zr1      0.500059447   0.499575629   0.603335799
C1       0.003734083  -0.000006174   0.693557915
H1       0.163314797  -0.000083746   0.711832401
H1       0.853412263   0.155819673   0.712257604
H1       0.009074229   0.844263163   0.712257832



     Writing output data file calc.save
     Check: negative starting charge=   -0.729038
     NEW-OLD atomic charge density approx. for the potential
     Check: negative starting charge=   -0.729541

     negative rho (up, down):  7.487E-01 0.000E+00
 
     Adding external electric field

     Computed dipole along edir(3) : 
        Dipole                0.1547 Ry au,          0.3932 Debye
        Dipole field          0.0003 Ry au
 
        Potential amp.       -0.0297 Ry
        Total length         46.5096 bohr
 

     total cpu time spent up to now is      286.1 secs

     per-process dynamical memory:    47.5 Mb

     Self-consistent Calculation

     iteration #  1     ecut=    36.75 Ry     beta=0.30
     Davidson diagonalization with overlap
     c_bands:  1 eigenvalues not converged
     c_bands:  1 eigenvalues not converged
     ethr =  1.00E-06,  avg # of iterations = 12.5

     negative rho (up, down):  7.488E-01 0.000E+00
 
     Adding external electric field

     Computed dipole along edir(3) : 
        Dipole               -0.2508 Ry au,         -0.6376 Debye
        Dipole field         -0.0005 Ry au
 
        Potential amp.        0.0482 Ry
        Total length         46.5096 bohr
 

     total cpu time spent up to now is      310.0 secs

     total energy              =   -1212.08707832 Ry
     Harris-Foulkes estimate   =   -1212.10751393 Ry
     estimated scf accuracy    <       0.04969624 Ry

     iteration #  2     ecut=    36.75 Ry     beta=0.30
     Davidson diagonalization with overlap
     ethr =  3.29E-05,  avg # of iterations =  5.7

     negative rho (up, down):  7.489E-01 0.000E+00
 
     Adding external electric field

     Computed dipole along edir(3) : 
        Dipole                0.0696 Ry au,          0.1770 Debye
        Dipole field          0.0001 Ry au
 
        Potential amp.       -0.0134 Ry
        Total length         46.5096 bohr
 

     total cpu time spent up to now is      324.6 secs

     total energy              =   -1212.02263425 Ry
     Harris-Foulkes estimate   =   -1212.15456301 Ry
     estimated scf accuracy    <       5.97143398 Ry

     iteration #  3     ecut=    36.75 Ry     beta=0.30
     Davidson diagonalization with overlap
     ethr =  3.29E-05,  avg # of iterations =  6.2

     negative rho (up, down):  7.489E-01 0.000E+00
 
     Adding external electric field

     Computed dipole along edir(3) : 
        Dipole                0.0464 Ry au,          0.1178 Debye
        Dipole field          0.0001 Ry au
 
        Potential amp.       -0.0089 Ry
        Total length         46.5096 bohr
 

     total cpu time spent up to now is      339.0 secs

     total energy              =   -1212.08901135 Ry
     Harris-Foulkes estimate   =   -1212.09909828 Ry
     estimated scf accuracy    <       0.25427417 Ry

     iteration #  4     ecut=    36.75 Ry     beta=0.30
     Davidson diagonalization with overlap
     ethr =  3.29E-05,  avg # of iterations =  5.1

     negative rho (up, down):  7.489E-01 0.000E+00
 
     Adding external electric field

     Computed dipole along edir(3) : 
        Dipole                0.0649 Ry au,          0.1649 Debye
        Dipole field          0.0001 Ry au
 
        Potential amp.       -0.0125 Ry
        Total length         46.5096 bohr
 

     total cpu time spent up to now is      352.1 secs

     total energy              =   -1212.08781807 Ry
     Harris-Foulkes estimate   =   -1212.10163488 Ry
     estimated scf accuracy    <       0.14502719 Ry

     iteration #  5     ecut=    36.75 Ry     beta=0.30
     Davidson diagonalization with overlap
     ethr =  3.29E-05,  avg # of iterations =  3.7

     negative rho (up, down):  7.489E-01 0.000E+00
 
     Adding external electric field

     Computed dipole along edir(3) : 
        Dipole                0.0504 Ry au,          0.1281 Debye
        Dipole field          0.0001 Ry au
 
        Potential amp.       -0.0097 Ry
        Total length         46.5096 bohr
 

     total cpu time spent up to now is      363.4 secs

     total energy              =   -1212.09438224 Ry
     Harris-Foulkes estimate   =   -1212.09537661 Ry
     estimated scf accuracy    <       0.00526828 Ry

     iteration #  6     ecut=    36.75 Ry     beta=0.30
     Davidson diagonalization with overlap
     ethr =  3.49E-06,  avg # of iterations =  5.3

     negative rho (up, down):  7.489E-01 0.000E+00
 
     Adding external electric field

     Computed dipole along edir(3) : 
        Dipole                0.0481 Ry au,          0.1221 Debye
        Dipole field          0.0001 Ry au
 
        Potential amp.       -0.0092 Ry
        Total length         46.5096 bohr
 

     total cpu time spent up to now is      376.2 secs

     total energy              =   -1212.09482735 Ry
     Harris-Foulkes estimate   =   -1212.09504357 Ry
     estimated scf accuracy    <       0.00109716 Ry

     iteration #  7     ecut=    36.75 Ry     beta=0.30
     Davidson diagonalization with overlap
     ethr =  7.27E-07,  avg # of iterations =  4.7

     negative rho (up, down):  7.488E-01 0.000E+00
 
     Adding external electric field

     Computed dipole along edir(3) : 
        Dipole                0.0566 Ry au,          0.1440 Debye
        Dipole field          0.0001 Ry au
 
        Potential amp.       -0.0109 Ry
        Total length         46.5096 bohr
 

     total cpu time spent up to now is      388.5 secs

     total energy              =   -1212.09495847 Ry
     Harris-Foulkes estimate   =   -1212.09497037 Ry
     estimated scf accuracy    <       0.00023568 Ry

     iteration #  8     ecut=    36.75 Ry     beta=0.30
     Davidson diagonalization with overlap
     ethr =  1.56E-07,  avg # of iterations =  4.2

     negative rho (up, down):  7.488E-01 0.000E+00
 
     Adding external electric field

     Computed dipole along edir(3) : 
        Dipole                0.0566 Ry au,          0.1439 Debye
        Dipole field          0.0001 Ry au
 
        Potential amp.       -0.0109 Ry
        Total length         46.5096 bohr
 

     total cpu time spent up to now is      400.0 secs

     total energy              =   -1212.09498210 Ry
     Harris-Foulkes estimate   =   -1212.09498302 Ry
     estimated scf accuracy    <       0.00006987 Ry

     iteration #  9     ecut=    36.75 Ry     beta=0.30
     Davidson diagonalization with overlap
     ethr =  4.63E-08,  avg # of iterations =  3.6

     negative rho (up, down):  7.488E-01 0.000E+00
 
     Adding external electric field

     Computed dipole along edir(3) : 
        Dipole                0.0561 Ry au,          0.1427 Debye
        Dipole field          0.0001 Ry au
 
        Potential amp.       -0.0108 Ry
        Total length         46.5096 bohr
 

     total cpu time spent up to now is      411.1 secs

     total energy              =   -1212.09498955 Ry
     Harris-Foulkes estimate   =   -1212.09498949 Ry
     estimated scf accuracy    <       0.00002364 Ry

     iteration # 10     ecut=    36.75 Ry     beta=0.30
     Davidson diagonalization with overlap
     ethr =  1.57E-08,  avg # of iterations =  4.4

     negative rho (up, down):  7.489E-01 0.000E+00

     negative rho (up, down):  7.489E-01 0.000E+00

     negative rho (up, down):  7.489E-01 0.000E+00

     negative rho (up, down):  7.489E-01 0.000E+00

     negative rho (up, down):  7.489E-01 0.000E+00

     negative rho (up, down):  7.489E-01 0.000E+00

     negative rho (up, down):  7.489E-01 0.000E+00

     negative rho (up, down):  7.489E-01 0.000E+00

     negative rho (up, down):  7.489E-01 0.000E+00

     negative rho (up, down):  7.489E-01 0.000E+00

     negative rho (up, down):  7.489E-01 0.000E+00

     negative rho (up, down):  7.489E-01 0.000E+00

     negative rho (up, down):  7.489E-01 0.000E+00

     negative rho (up, down):  7.489E-01 0.000E+00

     negative rho (up, down):  7.489E-01 0.000E+00

     negative rho (up, down):  7.489E-01 0.000E+00

     negative rho (up, down):  7.489E-01 0.000E+00

     negative rho (up, down):  7.489E-01 0.000E+00

     negative rho (up, down):  7.489E-01 0.000E+00

     negative rho (up, down):  7.489E-01 0.000E+00

     negative rho (up, down):  7.489E-01 0.000E+00

     negative rho (up, down):  7.489E-01 0.000E+00

     negative rho (up, down):  7.489E-01 0.000E+00

     negative rho (up, down):  7.489E-01 0.000E+00

     negative rho (up, down):  7.489E-01 0.000E+00

     negative rho (up, down):  7.489E-01 0.000E+00

     negative rho (up, down):  7.489E-01 0.000E+00

     negative rho (up, down):  7.489E-01 0.000E+00

     negative rho (up, down):  7.489E-01 0.000E+00

     negative rho (up, down):  7.489E-01 0.000E+00

     negative rho (up, down):  7.489E-01 0.000E+00

     negative rho (up, down):  7.489E-01 0.000E+00

     negative rho (up, down):  7.489E-01 0.000E+00

     negative rho (up, down):  7.489E-01 0.000E+00

     negative rho (up, down):  7.489E-01 0.000E+00
 
     Adding external electric field

     Computed dipole along edir(3) : 
        Dipole                0.0732 Ry au,          0.1861 Debye
        Dipole field          0.0002 Ry au
 
        Potential amp.       -0.0141 Ry
        Total length         46.5096 bohr
 

     total cpu time spent up to now is      438.3 secs

     End of self-consistent calculation

          k = 0.0000 0.0000 0.0000 ( 22923 PWs)   bands (ev):

   -47.6528 -47.6302 -47.5805 -47.5785 -47.5500 -47.5335 -47.5330 -47.3601
   -47.3209 -47.2447 -47.2442 -47.2434 -25.9322 -25.9313 -25.9265 -25.8820
   -25.8811 -25.8759 -25.8546 -25.7723 -25.7714 -25.7562 -25.6545 -25.5724
   -25.5711 -25.4910 -25.4288 -25.4180 -25.4176 -25.3676 -25.3674 -25.3582
   -25.3255 -25.3246 -25.3067 -25.1983 -25.1982 -25.1868 -25.1863 -25.1514
   -25.1508 -25.1507 -25.1055 -25.0635 -25.0634 -25.0546 -24.9119 -24.9117
   -10.8435  -3.8916  -3.6418  -3.3446  -2.2530  -1.3965  -1.1253  -0.9287
    -0.9269  -0.9208  -0.8129  -0.8107  -0.5760  -0.3979  -0.3972  -0.3353
    -0.1685  -0.1679  -0.0475   0.6539   0.7505   0.7544   1.5828   1.7860
     1.8725   1.8771   1.8850   2.2113   2.3301   2.3325   2.3930   2.5240
     2.5243   2.7051   2.7776   2.7779   2.7943

          k = 0.0000 0.0300 0.0000 ( 22902 PWs)   bands (ev):

   -47.6479 -47.6245 -47.5845 -47.5786 -47.5524 -47.5367 -47.5333 -47.3602
   -47.3163 -47.2495 -47.2444 -47.2437 -25.9066 -25.9044 -25.8877 -25.8571
   -25.8545 -25.8415 -25.8355 -25.7558 -25.7540 -25.7371 -25.6497 -25.5857
   -25.5766 -25.4936 -25.4469 -25.4079 -25.4060 -25.3945 -25.3891 -25.3553
   -25.3542 -25.3258 -25.3052 -25.2500 -25.2314 -25.2096 -25.1946 -25.1512
   -25.1492 -25.1411 -25.0990 -25.0860 -25.0828 -25.0503 -24.9566 -24.9218
   -10.8425  -3.9054  -3.6441  -3.1529  -2.0651  -1.2010  -1.1015  -0.9047
    -0.8036  -0.7862  -0.7743  -0.6813  -0.4960  -0.2750  -0.1967  -0.1676
    -0.0626  -0.0500   0.0516   0.6988   0.7912   0.7979   1.5502   1.7597
     1.7893   1.9093   1.9246   2.0775   2.1478   2.1564   2.2031   2.4267
     2.5271   2.6064   2.6438   2.6631   2.6968

          k = 0.0000 0.0599 0.0000 ( 22852 PWs)   bands (ev):

   -47.6351 -47.6090 -47.5956 -47.5787 -47.5638 -47.5412 -47.5333 -47.3609
   -47.3030 -47.2641 -47.2444 -47.2437 -25.8467 -25.8432 -25.8064 -25.7967
   -25.7951 -25.7823 -25.7238 -25.7201 -25.7130 -25.6989 -25.6405 -25.6100
   -25.5932 -25.5056 -25.5041 -25.4587 -25.4495 -25.4341 -25.3867 -25.3734
   -25.3627 -25.3317 -25.3265 -25.3103 -25.2869 -25.2404 -25.2198 -25.1554
   -25.1535 -25.1391 -25.1309 -25.1287 -25.0916 -25.0718 -25.0240 -24.9492
   -10.8406  -3.9284  -3.6487  -2.6300  -1.5916  -1.2956  -0.9179  -0.6812
    -0.6582  -0.4599  -0.4536  -0.3379  -0.2417  -0.0626   0.2393   0.2786
     0.2974   0.3374   0.3855   0.7927   0.8625   0.9431   1.2742   1.4738
     1.5218   1.5832   1.6298   1.8010   1.8982   2.0069   2.0196   2.0753
     2.1293   2.1555   2.1855   2.2825   2.3466

          k = 0.0000-0.0899 0.0000 ( 22880 PWs)   bands (ev):

   -47.6240 -47.6060 -47.5934 -47.5787 -47.5785 -47.5423 -47.5333 -47.3613
   -47.2851 -47.2825 -47.2445 -47.2437 -25.8095 -25.7987 -25.7722 -25.7589
   -25.7539 -25.7497 -25.6949 -25.6845 -25.6608 -25.6314 -25.6152 -25.5928
   -25.5681 -25.5527 -25.5431 -25.5327 -25.5233 -25.5006 -25.4588 -25.4136
   -25.3466 -25.2995 -25.2982 -25.2863 -25.2755 -25.2427 -25.2234 -25.2081
   -25.1910 -25.1881 -25.1356 -25.1352 -25.1255 -25.0877 -24.9912 -24.9824
   -10.8396  -3.9386  -3.6510  -1.9744  -1.8785  -1.1776  -0.9278  -0.6347
    -0.2375  -0.2169  -0.1617  -0.1327  -0.1168  -0.0521   0.6096   0.6317
     0.6645   0.6704   0.6981   0.7505   1.0552   1.1364   1.1383   1.1804
     1.1885   1.2671   1.4335   1.5020   1.5971   1.6069   1.6977   1.7661
     1.7697   1.8338   1.9227   1.9881   2.2719

          k = 0.0260-0.0150 0.0000 ( 22902 PWs)   bands (ev):

   -47.6480 -47.6245 -47.5826 -47.5804 -47.5525 -47.5365 -47.5335 -47.3602
   -47.3163 -47.2495 -47.2442 -47.2439 -25.9058 -25.9054 -25.8876 -25.8563
   -25.8553 -25.8414 -25.8355 -25.7564 -25.7532 -25.7372 -25.6497 -25.5847
   -25.5776 -25.4936 -25.4470 -25.4082 -25.4056 -25.3944 -25.3891 -25.3545
   -25.3543 -25.3266 -25.3052 -25.2499 -25.2319 -25.2096 -25.1941 -25.1514
   -25.1489 -25.1412 -25.0991 -25.0861 -25.0826 -25.0503 -24.9565 -24.9219
   -10.8425  -3.8968  -3.6550  -3.1516  -2.0646  -1.2009  -1.1020  -0.9036
    -0.8030  -0.7874  -0.7747  -0.6806  -0.4964  -0.2752  -0.1964  -0.1675
    -0.0625  -0.0503   0.0517   0.6989   0.7889   0.7999   1.5502   1.7597
     1.7911   1.9066   1.9264   2.0779   2.1478   2.1566   2.2033   2.4265
     2.5273   2.6071   2.6428   2.6629   2.6971

          k = 0.0260 0.0150 0.0000 ( 22902 PWs)   bands (ev):

   -47.6479 -47.6245 -47.5840 -47.5791 -47.5524 -47.5371 -47.5330 -47.3602
   -47.3163 -47.2495 -47.2446 -47.2435 -25.9063 -25.9047 -25.8878 -25.8567
   -25.8546 -25.8418 -25.8353 -25.7558 -25.7539 -25.7371 -25.6497 -25.5855
   -25.5768 -25.4936 -25.4469 -25.4079 -25.4059 -25.3945 -25.3890 -25.3552
   -25.3543 -25.3259 -25.3052 -25.2500 -25.2319 -25.2096 -25.1942 -25.1510
   -25.1494 -25.1411 -25.0990 -25.0861 -25.0828 -25.0502 -24.9567 -24.9218
   -10.8425  -3.8968  -3.6550  -3.1516  -2.0647  -1.2009  -1.1009  -0.9050
    -0.8030  -0.7865  -0.7751  -0.6820  -0.4953  -0.2753  -0.1965  -0.1676
    -0.0621  -0.0504   0.0514   0.6988   0.7882   0.8007   1.5504   1.7621
     1.7906   1.9083   1.9235   2.0769   2.1467   2.1568   2.2058   2.4269
     2.5274   2.6066   2.6429   2.6632   2.6969

          k = 0.0260 0.0450 0.0000 ( 22896 PWs)   bands (ev):

   -47.6390 -47.6139 -47.5918 -47.5790 -47.5576 -47.5448 -47.5310 -47.3607
   -47.3073 -47.2546 -47.2536 -47.2394 -25.8721 -25.8365 -25.8298 -25.8236
   -25.8160 -25.7818 -25.7735 -25.7296 -25.7275 -25.7086 -25.6425 -25.6047
   -25.5886 -25.5025 -25.4972 -25.4723 -25.3932 -25.3865 -25.3768 -25.3642
   -25.3613 -25.3426 -25.3387 -25.3011 -25.2906 -25.2332 -25.2162 -25.1587
   -25.1489 -25.1418 -25.1332 -25.0931 -25.0668 -25.0595 -25.0338 -24.9435
   -10.8410  -3.9158  -3.6562  -2.7938  -1.7265  -1.0966  -0.9055  -0.8407
    -0.7833  -0.6474  -0.5286  -0.4623  -0.2289  -0.0149   0.0180   0.1397
     0.1740   0.2105   0.2731   0.7742   0.8570   0.8680   1.4284   1.5612
     1.5926   1.6873   1.7222   1.8894   1.9403   2.0304   2.0980   2.1667
     2.2346   2.3074   2.3212   2.3995   2.4096

          k = 0.0260-0.1049 0.0000 ( 22856 PWs)   bands (ev):

   -47.6250 -47.6040 -47.5965 -47.5797 -47.5704 -47.5519 -47.5287 -47.3613
   -47.2910 -47.2713 -47.2567 -47.2367 -25.8073 -25.7806 -25.7754 -25.7624
   -25.7484 -25.7165 -25.6962 -25.6881 -25.6753 -25.6429 -25.6360 -25.6188
   -25.6125 -25.5803 -25.5688 -25.5030 -25.4797 -25.4712 -25.4077 -25.3790
   -25.3447 -25.3311 -25.3210 -25.2968 -25.2790 -25.2679 -25.2511 -25.2285
   -25.1569 -25.1473 -25.1380 -25.1261 -25.1023 -25.0832 -25.0265 -24.9822
   -10.8396  -3.9317  -3.6591  -2.1692  -1.4874  -1.2057  -0.8979  -0.7314
    -0.5165  -0.2578  -0.2267  -0.0759   0.1225   0.1492   0.4902   0.5230
     0.5515   0.5922   0.6409   0.8782   0.9831   1.0197   1.0812   1.2341
     1.2741   1.3379   1.3859   1.4198   1.5270   1.6506   1.7127   1.7980
     1.8464   1.8795   1.9463   1.9951   2.0651

          k = 0.0260-0.0749 0.0000 ( 22856 PWs)   bands (ev):

   -47.6253 -47.6035 -47.5965 -47.5800 -47.5705 -47.5518 -47.5288 -47.3613
   -47.2910 -47.2713 -47.2567 -47.2367 -25.8073 -25.7805 -25.7756 -25.7622
   -25.7485 -25.7166 -25.6963 -25.6879 -25.6755 -25.6433 -25.6359 -25.6189
   -25.6118 -25.5805 -25.5684 -25.5028 -25.4803 -25.4713 -25.4077 -25.3788
   -25.3448 -25.3311 -25.3211 -25.2966 -25.2790 -25.2683 -25.2508 -25.2283
   -25.1570 -25.1472 -25.1380 -25.1261 -25.1024 -25.0832 -25.0264 -24.9823
   -10.8396  -3.9317  -3.6591  -2.1692  -1.4874  -1.2056  -0.8988  -0.7315
    -0.5152  -0.2566  -0.2284  -0.0755   0.1240   0.1476   0.4920   0.5214
     0.5512   0.5920   0.6408   0.8753   0.9832   1.0260   1.0780   1.2334
     1.2751   1.3362   1.3850   1.4220   1.5278   1.6515   1.7100   1.7997
     1.8420   1.8863   1.9465   1.9899   2.0655

          k = 0.0260-0.0450 0.0000 ( 22896 PWs)   bands (ev):

   -47.6392 -47.6139 -47.5908 -47.5799 -47.5579 -47.5444 -47.5312 -47.3607
   -47.3073 -47.2547 -47.2535 -47.2394 -25.8721 -25.8369 -25.8297 -25.8234
   -25.8160 -25.7820 -25.7732 -25.7302 -25.7268 -25.7088 -25.6426 -25.6041
   -25.5891 -25.5025 -25.4970 -25.4723 -25.3931 -25.3867 -25.3766 -25.3642
   -25.3611 -25.3426 -25.3393 -25.3008 -25.2905 -25.2333 -25.2162 -25.1586
   -25.1488 -25.1419 -25.1334 -25.0931 -25.0667 -25.0595 -25.0336 -24.9437
   -10.8410  -3.9158  -3.6563  -2.7938  -1.7265  -1.0977  -0.9062  -0.8407
    -0.7812  -0.6466  -0.5313  -0.4593  -0.2301  -0.0157   0.0192   0.1401
     0.1726   0.2099   0.2742   0.7742   0.8600   0.8654   1.4282   1.5598
     1.5913   1.6869   1.7237   1.8897   1.9382   2.0288   2.0986   2.1673
     2.2331   2.3102   2.3217   2.3991   2.4133

          k = 0.0519-0.0300 0.0000 ( 22852 PWs)   bands (ev):

   -47.6356 -47.6090 -47.5933 -47.5805 -47.5639 -47.5410 -47.5335 -47.3608
   -47.3030 -47.2641 -47.2442 -47.2440 -25.8479 -25.8423 -25.8066 -25.7974
   -25.7940 -25.7820 -25.7232 -25.7209 -25.7124 -25.6993 -25.6405 -25.6092
   -25.5940 -25.5056 -25.5046 -25.4588 -25.4494 -25.4328 -25.3867 -25.3737
   -25.3629 -25.3320 -25.3268 -25.3112 -25.2868 -25.2404 -25.2189 -25.1552
   -25.1538 -25.1391 -25.1307 -25.1289 -25.0915 -25.0717 -25.0240 -24.9494
   -10.8406  -3.9065  -3.6745  -2.6290  -1.5909  -1.2957  -0.9166  -0.6807
    -0.6589  -0.4603  -0.4538  -0.3378  -0.2416  -0.0621   0.2393   0.2790
     0.2975   0.3365   0.3857   0.7925   0.8616   0.9442   1.2742   1.4742
     1.5221   1.5818   1.6314   1.8024   1.8981   2.0096   2.0182   2.0745
     2.1296   2.1536   2.1862   2.2826   2.3418

          k = 0.0519 0.0000 0.0000 ( 22896 PWs)   bands (ev):

   -47.6392 -47.6139 -47.5901 -47.5805 -47.5577 -47.5447 -47.5310 -47.3607
   -47.3073 -47.2546 -47.2536 -47.2394 -25.8720 -25.8373 -25.8298 -25.8230
   -25.8161 -25.7822 -25.7729 -25.7302 -25.7266 -25.7089 -25.6426 -25.6040
   -25.5892 -25.5025 -25.4969 -25.4723 -25.3931 -25.3867 -25.3768 -25.3642
   -25.3612 -25.3426 -25.3392 -25.3012 -25.2905 -25.2333 -25.2157 -25.1587
   -25.1489 -25.1418 -25.1334 -25.0931 -25.0667 -25.0595 -25.0337 -24.9436
   -10.8411  -3.8994  -3.6758  -2.7925  -1.7257  -1.0970  -0.9059  -0.8405
    -0.7818  -0.6474  -0.5301  -0.4613  -0.2293  -0.0161   0.0187   0.1400
     0.1733   0.2105   0.2735   0.7743   0.8570   0.8676   1.4284   1.5615
     1.5914   1.6891   1.7232   1.8899   1.9389   2.0290   2.1012   2.1669
     2.2344   2.3084   2.3216   2.4010   2.4077

          k = 0.0519 0.0300 0.0000 ( 22852 PWs)   bands (ev):

   -47.6353 -47.6091 -47.5948 -47.5793 -47.5637 -47.5417 -47.5330 -47.3609
   -47.3030 -47.2641 -47.2446 -47.2435 -25.8471 -25.8429 -25.8065 -25.7970
   -25.7947 -25.7821 -25.7237 -25.7202 -25.7128 -25.6989 -25.6405 -25.6099
   -25.5931 -25.5057 -25.5043 -25.4585 -25.4496 -25.4339 -25.3867 -25.3734
   -25.3626 -25.3323 -25.3266 -25.3106 -25.2869 -25.2403 -25.2192 -25.1555
   -25.1534 -25.1391 -25.1310 -25.1287 -25.0916 -25.0719 -25.0239 -24.9491
   -10.8406  -3.9066  -3.6744  -2.6290  -1.5910  -1.2947  -0.9184  -0.6806
    -0.6583  -0.4603  -0.4536  -0.3379  -0.2416  -0.0627   0.2399   0.2786
     0.2975   0.3371   0.3851   0.7932   0.8595   0.9449   1.2745   1.4740
     1.5226   1.5817   1.6352   1.8001   1.8993   2.0084   2.0168   2.0762
     2.1291   2.1555   2.1858   2.2822   2.3430

          k = 0.0519-0.1199 0.0000 ( 22856 PWs)   bands (ev):

   -47.6253 -47.6034 -47.5966 -47.5800 -47.5702 -47.5521 -47.5287 -47.3613
   -47.2910 -47.2713 -47.2567 -47.2367 -25.8074 -25.7803 -25.7761 -25.7618
   -25.7483 -25.7163 -25.6965 -25.6878 -25.6753 -25.6432 -25.6359 -25.6187
   -25.6123 -25.5804 -25.5689 -25.5029 -25.4798 -25.4712 -25.4077 -25.3791
   -25.3448 -25.3311 -25.3214 -25.2968 -25.2790 -25.2680 -25.2506 -25.2284
   -25.1570 -25.1474 -25.1379 -25.1261 -25.1023 -25.0833 -25.0265 -24.9821
   -10.8396  -3.9180  -3.6750  -2.1690  -1.4872  -1.2052  -0.8983  -0.7314
    -0.5157  -0.2564  -0.2279  -0.0765   0.1240   0.1484   0.4922   0.5213
     0.5514   0.5921   0.6403   0.8745   0.9838   1.0258   1.0772   1.2333
     1.2747   1.3362   1.3895   1.4208   1.5265   1.6512   1.7104   1.8009
     1.8420   1.8839   1.9511   1.9895   2.0631

          k = 0.0519-0.0899 0.0000 ( 22914 PWs)   bands (ev):

   -47.6146 -47.6124 -47.5871 -47.5814 -47.5675 -47.5670 -47.5261 -47.3615
   -47.2753 -47.2747 -47.2720 -47.2340 -25.7527 -25.7508 -25.7424 -25.7305
   -25.7055 -25.7004 -25.6801 -25.6740 -25.6580 -25.6547 -25.6385 -25.6018
   -25.6014 -25.6001 -25.5906 -25.5752 -25.5745 -25.4825 -25.3494 -25.3484
   -25.3449 -25.3423 -25.3319 -25.3126 -25.2992 -25.2915 -25.2434 -25.2378
   -25.2169 -25.1511 -25.1298 -25.1250 -25.0926 -25.0473 -25.0364 -25.0325
   -10.8391  -3.9225  -3.6765  -1.6350  -1.4532  -1.4460  -0.9604  -0.5392
    -0.5340  -0.2644   0.2776   0.3192   0.3533   0.3598   0.3794   0.3972
     0.8255   0.8418   0.8430   0.9344   0.9367   0.9583   0.9604   0.9668
     1.0008   1.0097   1.2310   1.4355   1.4508   1.4583   1.5264   1.5499
     1.6240   1.7331   1.8236   1.8686   1.8825

          k = 0.0519-0.0599 0.0000 ( 22856 PWs)   bands (ev):

   -47.6260 -47.6017 -47.5965 -47.5810 -47.5706 -47.5517 -47.5288 -47.3613
   -47.2910 -47.2713 -47.2567 -47.2367 -25.8076 -25.7808 -25.7760 -25.7616
   -25.7478 -25.7162 -25.6971 -25.6872 -25.6757 -25.6428 -25.6359 -25.6192
   -25.6123 -25.5804 -25.5689 -25.5028 -25.4795 -25.4711 -25.4078 -25.3795
   -25.3449 -25.3315 -25.3216 -25.2964 -25.2791 -25.2681 -25.2500 -25.2283
   -25.1569 -25.1471 -25.1380 -25.1264 -25.1022 -25.0831 -25.0265 -24.9824
   -10.8396  -3.9179  -3.6750  -2.1691  -1.4875  -1.2051  -0.8982  -0.7303
    -0.5167  -0.2582  -0.2268  -0.0751   0.1233   0.1488   0.4902   0.5235
     0.5513   0.5912   0.6411   0.8770   0.9844   1.0201   1.0823   1.2331
     1.2738   1.3377   1.3862   1.4169   1.5287   1.6530   1.7133   1.7967
     1.8468   1.8795   1.9434   1.9924   2.0687

          k =-0.0779 0.0450 0.0000 ( 22880 PWs)   bands (ev):

   -47.6257 -47.6025 -47.5933 -47.5805 -47.5787 -47.5421 -47.5335 -47.3613
   -47.2853 -47.2823 -47.2442 -47.2440 -25.8111 -25.7977 -25.7731 -25.7595
   -25.7518 -25.7488 -25.6956 -25.6841 -25.6613 -25.6305 -25.6162 -25.5933
   -25.5681 -25.5527 -25.5439 -25.5310 -25.5228 -25.5009 -25.4587 -25.4143
   -25.3470 -25.3000 -25.2988 -25.2862 -25.2758 -25.2411 -25.2234 -25.2079
   -25.1913 -25.1878 -25.1353 -25.1351 -25.1259 -25.0877 -24.9910 -24.9828
   -10.8396  -3.9112  -3.6828  -1.9748  -1.8776  -1.1774  -0.9255  -0.6357
    -0.2374  -0.2173  -0.1619  -0.1318  -0.1171  -0.0512   0.6092   0.6315
     0.6645   0.6704   0.6988   0.7501   1.0559   1.1355   1.1391   1.1793
     1.1916   1.2656   1.4344   1.5017   1.5927   1.6110   1.6976   1.7593
     1.7767   1.8319   1.9234   1.9875   2.2687

          k =-0.0779 0.0749 0.0000 ( 22856 PWs)   bands (ev):

   -47.6262 -47.6014 -47.5965 -47.5812 -47.5705 -47.5518 -47.5288 -47.3613
   -47.2910 -47.2713 -47.2567 -47.2367 -25.8076 -25.7811 -25.7757 -25.7616
   -25.7478 -25.7162 -25.6971 -25.6872 -25.6758 -25.6430 -25.6357 -25.6193
   -25.6118 -25.5803 -25.5687 -25.5029 -25.4801 -25.4711 -25.4078 -25.3792
   -25.3449 -25.3313 -25.3218 -25.2965 -25.2791 -25.2681 -25.2500 -25.2283
   -25.1569 -25.1472 -25.1380 -25.1264 -25.1022 -25.0831 -25.0265 -24.9823
   -10.8396  -3.9100  -3.6842  -2.1685  -1.4876  -1.2047  -0.8971  -0.7314
    -0.5171  -0.2564  -0.2275  -0.0761   0.1236   0.1487   0.4915   0.5213
     0.5511   0.5917   0.6406   0.8745   0.9845   1.0259   1.0768   1.2344
     1.2741   1.3361   1.3853   1.4246   1.5286   1.6517   1.7099   1.7994
     1.8419   1.8859   1.9468   1.9947   2.0597

          k =-0.0779 0.1049 0.0000 ( 22856 PWs)   bands (ev):

   -47.6257 -47.6025 -47.5966 -47.5805 -47.5702 -47.5521 -47.5287 -47.3613
   -47.2910 -47.2713 -47.2567 -47.2367 -25.8073 -25.7807 -25.7760 -25.7618
   -25.7483 -25.7165 -25.6967 -25.6877 -25.6753 -25.6431 -25.6359 -25.6183
   -25.6122 -25.5806 -25.5685 -25.5029 -25.4804 -25.4713 -25.4077 -25.3792
   -25.3449 -25.3310 -25.3212 -25.2970 -25.2791 -25.2681 -25.2502 -25.2283
   -25.1570 -25.1473 -25.1379 -25.1261 -25.1024 -25.0832 -25.0264 -24.9822
   -10.8396  -3.9100  -3.6842  -2.1685  -1.4873  -1.2051  -0.8980  -0.7307
    -0.5159  -0.2577  -0.2271  -0.0758   0.1230   0.1480   0.4900   0.5236
     0.5515   0.5911   0.6408   0.8769   0.9832   1.0200   1.0817   1.2337
     1.2744   1.3379   1.3866   1.4204   1.5268   1.6538   1.7146   1.7982
     1.8464   1.8797   1.9464   1.9938   2.0615

          k =-0.0779-0.0450 0.0000 ( 22880 PWs)   bands (ev):

   -47.6246 -47.6048 -47.5936 -47.5793 -47.5782 -47.5427 -47.5330 -47.3613
   -47.2851 -47.2825 -47.2446 -47.2435 -25.8100 -25.7984 -25.7727 -25.7590
   -25.7527 -25.7497 -25.6953 -25.6844 -25.6606 -25.6314 -25.6147 -25.5930
   -25.5681 -25.5525 -25.5437 -25.5324 -25.5236 -25.5004 -25.4589 -25.4141
   -25.3467 -25.2996 -25.2988 -25.2866 -25.2753 -25.2418 -25.2236 -25.2081
   -25.1909 -25.1882 -25.1357 -25.1351 -25.1256 -25.0877 -24.9912 -24.9822
   -10.8396  -3.9113  -3.6827  -1.9747  -1.8774  -1.1779  -0.9257  -0.6347
    -0.2379  -0.2168  -0.1614  -0.1323  -0.1167  -0.0529   0.6100   0.6309
     0.6643   0.6705   0.6981   0.7514   1.0557   1.1355   1.1382   1.1794
     1.1877   1.2693   1.4346   1.5079   1.5931   1.6055   1.6977   1.7596
     1.7705   1.8393   1.9222   1.9886   2.2723

     the Fermi energy is     1.6538 ev

!    total energy              =   -1212.09498788 Ry
     Harris-Foulkes estimate   =   -1212.09498815 Ry
     estimated scf accuracy    <       0.00000917 Ry

     The total energy is the sum of the following terms:

     one-electron contribution =   -8373.70731299 Ry
     hartree contribution      =    4180.84319576 Ry
     xc contribution           =    -226.59743936 Ry
     ewald contribution        =    3207.48687862 Ry
     electric field correction =       0.00001107 Ry
     smearing contrib. (-TS)   =      -0.12032099 Ry

     convergence has been achieved in  10 iterations
 
 BEEF-vdW xc energy contributions
           1 :   -193.931080700198     
           2 :    175.290895829560     
           3 :   -144.014940214636     
           4 :    109.003334134835     
           5 :   -78.1421092916713     
           6 :    55.6311728654148     
           7 :   -41.4125766303902     
           8 :    32.5339682710365     
           9 :   -25.4284859373464     
          10 :    17.8412692779746     
          11 :   -9.56217754662754     
          12 :    1.88678145324457     
          13 :    3.61060304799901     
          14 :   -6.18101642494977     
          15 :    6.30414837263862     
          16 :   -5.29616061184794     
          17 :    4.48124813878167     
          18 :   -4.48309329282057     
          19 :    5.04371829967107     
          20 :   -5.40429932793620     
          21 :    4.93312661529421     
          22 :   -3.57268957747920     
          23 :    1.84815888654865     
          24 :  -0.492002737221299     
          25 :  -2.618337285724692E-002
          26 :  -0.245130055262621     
          27 :   0.832588441845019     
          28 :   -1.18011662685763     
          29 :    1.00129108662969     
          30 :  -0.423697486717714     
          31 :   -22.5906775370287     
          32 :   -16.7976701670211     

     Forces acting on atoms (Ry/au):


     negative rho (up, down):  7.489E-01 0.000E+00
     atom    1 type  1   force =     0.00030395    0.00021996    0.01518629
     atom    2 type  1   force =    -0.00035308    0.00016728    0.01518627
     atom    3 type  1   force =     0.00012111   -0.00038475    0.01517493
     atom    4 type  1   force =    -0.00001130   -0.00000512    0.01661542
     atom    5 type  1   force =     0.00004476    0.00943590   -0.01163814
     atom    6 type  1   force =     0.00004756   -0.00013031    0.00133623
     atom    7 type  1   force =    -0.00825596   -0.00455625   -0.01170294
     atom    8 type  1   force =     0.00831265   -0.00479338   -0.01150920
     atom    9 type  1   force =    -0.00080991    0.00003456    0.02221069
     atom   10 type  1   force =    -0.00109517    0.00390356   -0.02178872
     atom   11 type  1   force =     0.00380979   -0.00008241   -0.02259963
     atom   12 type  1   force =    -0.00273928   -0.00375584   -0.02245917
     atom   13 type  2   force =     0.03767690   -0.00000995    0.03564627
     atom   14 type  3   force =    -0.01555716   -0.00061959   -0.01782112
     atom   15 type  3   force =    -0.01017764    0.01135987   -0.00095657
     atom   16 type  3   force =    -0.01131723   -0.01078352   -0.00088061

     Total force =     0.075930     Total SCF correction =     0.005364


     entering subroutine stress ...


     negative rho (up, down):  7.489E-01 0.000E+00
          total   stress  (Ry/bohr**3)                   (kbar)     P=   -9.66
  -0.00006837  -0.00000005  -0.00000503        -10.06     -0.01     -0.74
  -0.00000005  -0.00006021  -0.00000001         -0.01     -8.86     -0.00
  -0.00000503  -0.00000001  -0.00006841         -0.74     -0.00    -10.06


     number of scf cycles    =   2
     number of bfgs steps    =   1

     energy   old            =   -1212.0444396857 Ry
     energy   new            =   -1212.0949878820 Ry

     CASE: energy  _new < energy  _old

     new trust radius        =       0.0737906962 bohr
     new conv_thr            =       0.0000001000 Ry


ATOMIC_POSITIONS (crystal)
Zr1      0.166666667   0.166666667   0.396150897    0   0   0
Zr1      0.666666667   0.166666667   0.396150897    0   0   0
Zr1      0.166666667   0.666666667   0.396150897    0   0   0
Zr1      0.666666667   0.666666667   0.396150897    0   0   0
Zr1      0.833333333   0.333333333   0.500000000    0   0   0
Zr1      0.333333333   0.333333333   0.500000000    0   0   0
Zr1      0.833333333   0.833333333   0.500000000    0   0   0
Zr1      0.333333333   0.833333333   0.500000000    0   0   0
Zr1     -0.000061396   0.000002012   0.603637382
Zr1      0.499350473   0.000793421   0.602801200
Zr1      0.000668671   0.500100270   0.602747117
Zr1      0.500008034   0.499131097   0.602753016
C1       0.007599467  -0.000007662   0.694752265
[...]
   -25.2626 -25.2588 -25.2061 -25.2042 -25.1728 -25.1540 -25.0580 -25.0274
   -10.6391  -3.8152  -3.7836  -3.2948  -2.1748  -1.3465  -1.1191  -1.0760
    -0.9718  -0.9288  -0.8812  -0.8178  -0.5188  -0.3810  -0.3046  -0.3015
    -0.2172  -0.2138  -0.0720   0.5740   0.6997   0.7040   1.4340   1.4676
     1.6660   1.7754   1.7802   1.8759   2.0214   2.1048   2.1614   2.2701
     2.3382   2.3525   2.3879   2.4618   2.5676

          k = 0.0260 0.0450 0.0000 ( 22896 PWs)   bands (ev):

   -47.7837 -47.7265 -47.7169 -47.7031 -47.6821 -47.6281 -47.6162 -47.6004
   -47.4424 -47.3998 -47.3891 -47.2891 -26.0244 -25.9850 -25.9827 -25.9665
   -25.9367 -25.8988 -25.8919 -25.8722 -25.8660 -25.8536 -25.7687 -25.7326
   -25.7136 -25.6509 -25.6170 -25.5874 -25.5381 -25.5356 -25.5199 -25.5088
   -25.5037 -25.4762 -25.4642 -25.4392 -25.4178 -25.4029 -25.3444 -25.2882
   -25.2639 -25.2526 -25.2480 -25.1969 -25.1849 -25.1471 -25.1192 -25.0474
   -10.6378  -3.8195  -3.7976  -2.9345  -1.8317  -1.1285  -1.0659  -0.9879
    -0.9049  -0.7949  -0.6454  -0.5205  -0.3352  -0.1500  -0.1210  -0.0502
     0.0060   0.0917   0.1249   0.6276   0.7311   0.7624   1.2588   1.3296
     1.4011   1.4822   1.5327   1.6255   1.8252   1.8779   1.9128   2.0173
     2.0579   2.0810   2.1904   2.2788   2.3113

          k = 0.0260-0.1049 0.0000 ( 22856 PWs)   bands (ev):

   -47.7653 -47.7412 -47.7234 -47.7005 -47.6637 -47.6414 -47.6232 -47.5987
   -47.4299 -47.4098 -47.3904 -47.2904 -25.9595 -25.9268 -25.9217 -25.8975
   -25.8755 -25.8393 -25.8326 -25.8252 -25.8196 -25.7827 -25.7729 -25.7606
   -25.7427 -25.7257 -25.6737 -25.6547 -25.6155 -25.5806 -25.5516 -25.5274
   -25.4954 -25.4741 -25.4592 -25.4463 -25.4121 -25.3984 -25.3786 -25.3441
   -25.2841 -25.2612 -25.2537 -25.2351 -25.1929 -25.1508 -25.1388 -25.0772
   -10.6364  -3.8211  -3.8132  -2.3003  -1.5899  -1.2829  -0.9922  -0.8525
    -0.5634  -0.4308  -0.2956  -0.2309  -0.0393  -0.0053   0.2788   0.3120
     0.3499   0.4464   0.4877   0.6856   0.7618   0.8506   0.9029   1.0261
     1.0792   1.1371   1.1806   1.2747   1.3567   1.4218   1.5377   1.6399
     1.6858   1.7427   1.8024   1.8671   1.9896

          k = 0.0260-0.0749 0.0000 ( 22856 PWs)   bands (ev):

   -47.7654 -47.7411 -47.7234 -47.7005 -47.6637 -47.6416 -47.6227 -47.5989
   -47.4301 -47.4092 -47.3908 -47.2904 -25.9599 -25.9267 -25.9219 -25.8979
   -25.8750 -25.8384 -25.8329 -25.8261 -25.8198 -25.7821 -25.7733 -25.7608
   -25.7422 -25.7256 -25.6743 -25.6545 -25.6142 -25.5805 -25.5514 -25.5288
   -25.4956 -25.4671 -25.4651 -25.4463 -25.4107 -25.3974 -25.3797 -25.3439
   -25.2870 -25.2607 -25.2531 -25.2348 -25.1931 -25.1511 -25.1391 -25.0766
   -10.6364  -3.8227  -3.8116  -2.3003  -1.5898  -1.2834  -0.9934  -0.8517
    -0.5583  -0.4334  -0.2858  -0.2340  -0.0463  -0.0069   0.2716   0.3123
     0.3489   0.4508   0.4856   0.6832   0.7673   0.8470   0.9029   1.0243
     1.0793   1.1356   1.1832   1.2739   1.3675   1.4184   1.5351   1.6472
     1.6898   1.7433   1.8008   1.8551   1.9965

          k = 0.0260-0.0450 0.0000 ( 22896 PWs)   bands (ev):

   -47.7837 -47.7264 -47.7171 -47.7030 -47.6822 -47.6288 -47.6145 -47.6013
   -47.4425 -47.3984 -47.3904 -47.2891 -26.0248 -25.9849 -25.9827 -25.9667
   -25.9368 -25.8974 -25.8932 -25.8722 -25.8668 -25.8540 -25.7683 -25.7320
   -25.7132 -25.6505 -25.6181 -25.5875 -25.5378 -25.5357 -25.5180 -25.5088
   -25.5045 -25.4764 -25.4613 -25.4389 -25.4188 -25.4030 -25.3458 -25.2862
   -25.2636 -25.2550 -25.2484 -25.1966 -25.1853 -25.1474 -25.1204 -25.0461
   -10.6378  -3.8208  -3.7963  -2.9345  -1.8318  -1.1315  -1.0664  -0.9880
    -0.9030  -0.7928  -0.6449  -0.5090  -0.3408  -0.1510  -0.1237  -0.0564
     0.0048   0.0881   0.1292   0.6290   0.7269   0.7622   1.2575   1.3296
     1.3948   1.4803   1.5360   1.6371   1.8123   1.8882   1.9103   2.0262
     2.0608   2.0780   2.1892   2.2774   2.3251

          k = 0.0519-0.0300 0.0000 ( 22852 PWs)   bands (ev):

   -47.7787 -47.7337 -47.7123 -47.7056 -47.6772 -47.6348 -47.6105 -47.6044
   -47.4390 -47.4020 -47.3898 -47.2896 -25.9971 -25.9966 -25.9545 -25.9354
   -25.9133 -25.9035 -25.8655 -25.8610 -25.8507 -25.8287 -25.7731 -25.7317
   -25.7262 -25.6438 -25.6233 -25.6076 -25.5731 -25.5690 -25.5485 -25.5099
   -25.4942 -25.4675 -25.4612 -25.4319 -25.4279 -25.4099 -25.3442 -25.2822
   -25.2788 -25.2651 -25.2420 -25.2395 -25.1617 -25.1523 -25.1415 -25.0481
   -10.6373  -3.8341  -3.7886  -2.7686  -1.6842  -1.4235  -0.9681  -0.8487
    -0.6757  -0.6213  -0.6080  -0.4775  -0.3191  -0.1905   0.0459   0.0829
     0.1221   0.2192   0.2381   0.6333   0.7724   0.7744   1.0979   1.2441
     1.3558   1.3818   1.3870   1.5953   1.7322   1.7827   1.8176   1.9221
     1.9313   1.9897   2.0881   2.1575   2.1901

          k = 0.0519 0.0000 0.0000 ( 22896 PWs)   bands (ev):

   -47.7837 -47.7265 -47.7170 -47.7030 -47.6822 -47.6288 -47.6145 -47.6013
   -47.4424 -47.3994 -47.3895 -47.2891 -26.0246 -25.9850 -25.9827 -25.9666
   -25.9365 -25.8980 -25.8928 -25.8723 -25.8664 -25.8538 -25.7686 -25.7321
   -25.7134 -25.6507 -25.6178 -25.5875 -25.5379 -25.5356 -25.5178 -25.5095
   -25.5049 -25.4756 -25.4624 -25.4392 -25.4186 -25.4030 -25.3453 -25.2871
   -25.2639 -25.2536 -25.2483 -25.1966 -25.1849 -25.1473 -25.1198 -25.0468
   -10.6378  -3.8303  -3.7866  -2.9344  -1.8317  -1.1298  -1.0661  -0.9879
    -0.9036  -0.7940  -0.6444  -0.5159  -0.3380  -0.1505  -0.1231  -0.0538
     0.0058   0.0895   0.1276   0.6280   0.7280   0.7635   1.2572   1.3298
     1.3982   1.4812   1.5336   1.6344   1.8188   1.8836   1.9118   2.0223
     2.0589   2.0798   2.1901   2.2778   2.3192

          k = 0.0519 0.0300 0.0000 ( 22852 PWs)   bands (ev):

   -47.7787 -47.7338 -47.7120 -47.7058 -47.6771 -47.6342 -47.6133 -47.6022
   -47.4388 -47.4036 -47.3884 -47.2896 -25.9967 -25.9964 -25.9541 -25.9355
   -25.9116 -25.9055 -25.8642 -25.8606 -25.8511 -25.8278 -25.7737 -25.7330
   -25.7271 -25.6445 -25.6233 -25.6071 -25.5720 -25.5690 -25.5484 -25.5133
   -25.4942 -25.4677 -25.4615 -25.4307 -25.4290 -25.4099 -25.3432 -25.2836
   -25.2796 -25.2660 -25.2394 -25.2372 -25.1611 -25.1524 -25.1405 -25.0495
   -10.6373  -3.8331  -3.7896  -2.7686  -1.6845  -1.4213  -0.9728  -0.8466
    -0.6737  -0.6245  -0.6078  -0.4789  -0.3197  -0.1931   0.0530   0.0808
     0.1263   0.2202   0.2396   0.6307   0.7684   0.7822   1.1021   1.2419
     1.3629   1.3795   1.3911   1.5794   1.7334   1.7770   1.8112   1.9285
     1.9364   1.9835   2.0887   2.1644   2.1920

          k = 0.0519-0.1199 0.0000 ( 22856 PWs)   bands (ev):

   -47.7653 -47.7412 -47.7233 -47.7005 -47.6636 -47.6415 -47.6233 -47.5986
   -47.4296 -47.4106 -47.3899 -47.2904 -25.9594 -25.9265 -25.9216 -25.8973
   -25.8754 -25.8385 -25.8326 -25.8252 -25.8198 -25.7828 -25.7733 -25.7612
   -25.7426 -25.7259 -25.6737 -25.6547 -25.6158 -25.5807 -25.5514 -25.5273
   -25.4954 -25.4730 -25.4608 -25.4463 -25.4122 -25.3992 -25.3784 -25.3434
   -25.2853 -25.2612 -25.2526 -25.2344 -25.1926 -25.1503 -25.1390 -25.0779
   -10.6364  -3.8349  -3.7992  -2.3002  -1.5890  -1.2831  -0.9937  -0.8527
    -0.5616  -0.4302  -0.2934  -0.2348  -0.0408  -0.0063   0.2813   0.3121
     0.3505   0.4472   0.4884   0.6822   0.7658   0.8510   0.9045   1.0273
     1.0770   1.1360   1.1773   1.2752   1.3550   1.4213   1.5360   1.6487
     1.6857   1.7444   1.8021   1.8608   1.9899

          k = 0.0519-0.0899 0.0000 ( 22914 PWs)   bands (ev):

   -47.7537 -47.7397 -47.7393 -47.6977 -47.6495 -47.6463 -47.6348 -47.5965
   -47.4211 -47.4168 -47.3920 -47.2908 -25.9003 -25.8927 -25.8868 -25.8781
   -25.8622 -25.8247 -25.8108 -25.7970 -25.7879 -25.7764 -25.7633 -25.7632
   -25.7587 -25.7444 -25.7303 -25.7201 -25.6842 -25.5640 -25.5124 -25.5074
   -25.5018 -25.4909 -25.4668 -25.4549 -25.4495 -25.4142 -25.3522 -25.3465
   -25.3244 -25.2728 -25.2489 -25.2280 -25.1979 -25.1369 -25.1277 -25.1230
   -10.6360  -3.8331  -3.8067  -1.6833  -1.6066  -1.6009  -0.9202  -0.7117
    -0.6874  -0.1879  -0.0242   0.1380   0.1480   0.1671   0.1887   0.2696
     0.5344   0.6142   0.6734   0.6820   0.7168   0.7317   0.7690   0.8138
     0.9128   0.9153   1.0506   1.2367   1.2772   1.2901   1.3349   1.4518
     1.5318   1.5891   1.6454   1.6652   1.7373

          k = 0.0519-0.0599 0.0000 ( 22856 PWs)   bands (ev):

   -47.7654 -47.7411 -47.7235 -47.7005 -47.6637 -47.6421 -47.6218 -47.5993
   -47.4302 -47.4088 -47.3911 -47.2904 -25.9600 -25.9269 -25.9222 -25.8979
   -25.8751 -25.8385 -25.8331 -25.8258 -25.8196 -25.7822 -25.7729 -25.7601
   -25.7428 -25.7256 -25.6742 -25.6545 -25.6139 -25.5804 -25.5517 -25.5290
   -25.4955 -25.4681 -25.4624 -25.4463 -25.4111 -25.3971 -25.3803 -25.3443
   -25.2855 -25.2614 -25.2543 -25.2353 -25.1933 -25.1512 -25.1390 -25.0762
   -10.6364  -3.8361  -3.7980  -2.3002  -1.5900  -1.2829  -0.9922  -0.8503
    -0.5627  -0.4340  -0.2872  -0.2309  -0.0445  -0.0066   0.2690   0.3131
     0.3474   0.4490   0.4852   0.6878   0.7618   0.8468   0.9012   1.0231
     1.0821   1.1365   1.1854   1.2748   1.3703   1.4180   1.5364   1.6405
     1.6898   1.7424   1.8013   1.8621   1.9968

          k =-0.0779 0.0450 0.0000 ( 22880 PWs)   bands (ev):

   -47.7613 -47.7506 -47.7129 -47.7056 -47.6588 -47.6519 -47.6119 -47.6044
   -47.4293 -47.4110 -47.3898 -47.2905 -25.9554 -25.9551 -25.9139 -25.9007
   -25.8787 -25.8637 -25.8319 -25.8307 -25.8004 -25.7664 -25.7579 -25.7277
   -25.7183 -25.6900 -25.6735 -25.6625 -25.6597 -25.6051 -25.5955 -25.5616
   -25.4655 -25.4579 -25.4503 -25.4442 -25.4031 -25.3742 -25.3604 -25.3450
   -25.3201 -25.2711 -25.2519 -25.2426 -25.2097 -25.1417 -25.1378 -25.0633
   -10.6364  -3.8430  -3.7910  -2.0700  -2.0409  -1.1834  -1.1010  -0.5546
    -0.3940  -0.3776  -0.3614  -0.2864  -0.2678  -0.1302   0.3695   0.3948
     0.4130   0.5017   0.5780   0.6039   0.8537   0.8791   0.9503   1.0160
     1.0186   1.0532   1.2347   1.3052   1.4368   1.4470   1.5232   1.5989
     1.6189   1.7122   1.8026   1.9045   2.0076

          k =-0.0779 0.0749 0.0000 ( 22856 PWs)   bands (ev):

   -47.7654 -47.7411 -47.7235 -47.7005 -47.6637 -47.6421 -47.6218 -47.5993
   -47.4301 -47.4093 -47.3908 -47.2904 -25.9598 -25.9270 -25.9221 -25.8977
   -25.8752 -25.8390 -25.8329 -25.8254 -25.8196 -25.7827 -25.7724 -25.7602
   -25.7429 -25.7255 -25.6744 -25.6545 -25.6143 -25.5804 -25.5516 -25.5286
   -25.4954 -25.4715 -25.4594 -25.4462 -25.4117 -25.3976 -25.3799 -25.3447
   -25.2841 -25.2614 -25.2545 -25.2354 -25.1931 -25.1513 -25.1388 -25.0765
   -10.6364  -3.8398  -3.7942  -2.3001  -1.5900  -1.2824  -0.9919  -0.8512
    -0.5644  -0.4321  -0.2920  -0.2304  -0.0409  -0.0062   0.2736   0.3132
     0.3452   0.4477   0.4862   0.6853   0.7644   0.8495   0.9028   1.0260
     1.0757   1.1339   1.1820   1.2806   1.3654   1.4184   1.5337   1.6498
     1.6870   1.7443   1.8021   1.8614   1.9925

          k =-0.0779 0.1049 0.0000 ( 22856 PWs)   bands (ev):

   -47.7653 -47.7412 -47.7233 -47.7005 -47.6636 -47.6417 -47.6228 -47.5989
   -47.4296 -47.4105 -47.3900 -47.2904 -25.9596 -25.9265 -25.9217 -25.8975
   -25.8749 -25.8383 -25.8327 -25.8257 -25.8199 -25.7826 -25.7738 -25.7610
   -25.7424 -25.7257 -25.6742 -25.6546 -25.6152 -25.5806 -25.5512 -25.5280
   -25.4955 -25.4687 -25.4645 -25.4463 -25.4111 -25.3988 -25.3791 -25.3437
   -25.2865 -25.2610 -25.2523 -25.2343 -25.1927 -25.1504 -25.1391 -25.0776
   -10.6364  -3.8392  -3.7948  -2.3000  -1.5892  -1.2832  -0.9938  -0.8521
    -0.5588  -0.4323  -0.2869  -0.2382  -0.0447  -0.0066   0.2757   0.3118
     0.3531   0.4495   0.4860   0.6836   0.7634   0.8468   0.9032   1.0260
     1.0844   1.1393   1.1817   1.2694   1.3619   1.4223   1.5387   1.6382
     1.6885   1.7424   1.8012   1.8604   1.9940

          k =-0.0779-0.0450 0.0000 ( 22880 PWs)   bands (ev):

   -47.7611 -47.7508 -47.7126 -47.7058 -47.6586 -47.6515 -47.6146 -47.6023
   -47.4283 -47.4134 -47.3884 -47.2905 -25.9550 -25.9546 -25.9129 -25.8997
   -25.8773 -25.8658 -25.8300 -25.8294 -25.8016 -25.7684 -25.7601 -25.7278
   -25.7183 -25.6845 -25.6772 -25.6655 -25.6596 -25.6056 -25.5950 -25.5601
   -25.4687 -25.4579 -25.4505 -25.4441 -25.4055 -25.3756 -25.3590 -25.3429
   -25.3200 -25.2727 -25.2512 -25.2380 -25.2088 -25.1415 -25.1378 -25.0649
   -10.6364  -3.8419  -3.7921  -2.0695  -2.0407  -1.1868  -1.1004  -0.5528
    -0.3908  -0.3784  -0.3603  -0.2762  -0.2704  -0.1480   0.3813   0.3945
     0.4160   0.4995   0.5814   0.6092   0.8522   0.8704   0.9402   1.0182
     1.0289   1.0652   1.2329   1.3006   1.4246   1.4497   1.5321   1.5913
     1.6116   1.7152   1.8001   1.8973   2.0238

     the Fermi energy is     1.4764 ev

!    total energy              =   -1212.11962835 Ry
     Harris-Foulkes estimate   =   -1212.11962820 Ry
     estimated scf accuracy    <       0.00000005 Ry

     The total energy is the sum of the following terms:

     one-electron contribution =   -8360.16589628 Ry
     hartree contribution      =    4173.55446003 Ry
     xc contribution           =    -226.66145580 Ry
     ewald contribution        =    3201.26869613 Ry
     electric field correction =       0.00001861 Ry
     smearing contrib. (-TS)   =      -0.11545104 Ry

     convergence has been achieved in   9 iterations
 
 BEEF-vdW xc energy contributions
           1 :   -193.995335210656     
           2 :    175.359196561034     
           3 :   -144.090606459697     
           4 :    109.069497958526     
           5 :   -78.1676473383869     
           6 :    55.5998231726041     
           7 :   -41.3339121552755     
           8 :    32.4312962360387     
           9 :   -25.3237497414208     
          10 :    17.7496273781884     
          11 :   -9.48982530811634     
          12 :    1.82336914563336     
          13 :    3.69674417400188     
          14 :   -6.32988927120294     
          15 :    6.53450103239376     
          16 :   -5.58297096825493     
          17 :    4.76574517271183     
          18 :   -4.71295831623002     
          19 :    5.21102359123523     
          20 :   -5.54997498202374     
          21 :    5.11504822472111     
          22 :   -3.82279197494677     
          23 :    2.15043342272327     
          24 :  -0.794294646997088     
          25 :   0.222381576752070     
          26 :  -0.419054626780337     
          27 :   0.957349800881275     
          28 :   -1.31253274851872     
          29 :    1.19445232048307     
          30 :  -0.692547504124292     
          31 :   -22.5945633811355     
          32 :   -16.8003965704109     

     Forces acting on atoms (Ry/au):


     negative rho (up, down):  7.475E-01 0.000E+00
     atom    1 type  1   force =     0.00025949    0.00016093    0.01265953
     atom    2 type  1   force =    -0.00020922    0.00009123    0.01257258
     atom    3 type  1   force =     0.00010659   -0.00026268    0.01264625
     atom    4 type  1   force =     0.00008409    0.00000880    0.01725750
     atom    5 type  1   force =    -0.00060048   -0.00197220   -0.00946360
     atom    6 type  1   force =    -0.00046981   -0.00003736   -0.02716405
     atom    7 type  1   force =     0.00142113    0.00135695   -0.00911355
     atom    8 type  1   force =    -0.00189928    0.00069940   -0.00943107
     atom    9 type  1   force =    -0.00001586   -0.00000849   -0.00050246
     atom   10 type  1   force =    -0.00007400    0.00100799    0.00016398
     atom   11 type  1   force =     0.00138882    0.00013156    0.00015631
     atom   12 type  1   force =    -0.00036020   -0.00113478    0.00006406
     atom   13 type  2   force =    -0.00016008    0.00001455    0.00024503
     atom   14 type  3   force =    -0.00114629   -0.00037107    0.00007413
     atom   15 type  3   force =     0.00117752    0.00100458   -0.00011750
     atom   16 type  3   force =     0.00049761   -0.00068939   -0.00004714

     Total force =     0.003061     Total SCF correction =     0.000448
     SCF correction compared to forces is large: reduce conv_thr to get better values


     entering subroutine stress ...


     negative rho (up, down):  7.475E-01 0.000E+00
          total   stress  (Ry/bohr**3)                   (kbar)     P=   -8.01
  -0.00005960   0.00000081   0.00000116         -8.77      0.12      0.17
   0.00000081  -0.00005817  -0.00000009          0.12     -8.56     -0.01
   0.00000116  -0.00000009  -0.00004560          0.17     -0.01     -6.71


     bfgs converged in  20 scf cycles and  19 bfgs steps
     (criteria: energy <  1.0E+00, force <  1.9E-03)

     End of BFGS Geometry Optimization

     Final energy   =   -1212.1196283453 Ry
Begin final coordinates

ATOMIC_POSITIONS (crystal)
Zr1      0.166666667   0.166666667   0.396150897    0   0   0
Zr1      0.666666667   0.166666667   0.396150897    0   0   0
Zr1      0.166666667   0.666666667   0.396150897    0   0   0
Zr1      0.666666667   0.666666667   0.396150897    0   0   0
Zr1      0.833333333   0.333333333   0.500000000    0   0   0
Zr1      0.333333333   0.333333333   0.500000000    0   0   0
Zr1      0.833333333   0.833333333   0.500000000    0   0   0
Zr1      0.333333333   0.833333333   0.500000000    0   0   0
Zr1     -0.000629943  -0.000049133   0.615345137
Zr1      0.495227920   0.005282683   0.597097782
Zr1      0.002816344   0.497829872   0.596950514
Zr1      0.495395977   0.497120944   0.597124067
C1       0.011397262  -0.000467174   0.704865666
H1       0.172284618  -0.006633899   0.721523412
H1       0.853393860   0.162040002   0.720160775
H1       0.002211746   0.844485926   0.720443491
End final coordinates



     Writing output data file calc.save
 
     init_run     :      6.80s CPU      7.28s WALL (       1 calls)
     electrons    :   3206.61s CPU   3383.13s WALL (      20 calls)
     update_pot   :     23.62s CPU     24.70s WALL (      19 calls)
     forces       :    100.30s CPU    102.61s WALL (      20 calls)
     stress       :    314.55s CPU    317.71s WALL (      20 calls)

     Called by init_run:
     wfcinit      :      4.74s CPU      5.08s WALL (       1 calls)
     potinit      :      0.68s CPU      0.77s WALL (       1 calls)

     Called by electrons:
     c_bands      :   2276.73s CPU   2392.10s WALL (     233 calls)
     sum_band     :    391.84s CPU    413.94s WALL (     233 calls)
     v_of_rho     :    113.42s CPU    128.44s WALL (     252 calls)
     newd         :    154.22s CPU    157.78s WALL (     252 calls)
     mix_rho      :      4.68s CPU      5.20s WALL (     233 calls)
     vdW_energy   :     92.97s CPU     99.01s WALL (     972 calls)
     vdW_ffts     :    138.25s CPU    157.48s WALL (    1984 calls)
     vdW_v        :     59.69s CPU     62.54s WALL (     972 calls)

     Called by c_bands:
     init_us_2    :     20.75s CPU     20.95s WALL (   10140 calls)
     cegterg      :   2163.37s CPU   2278.02s WALL (    4660 calls)

     Called by *egterg:
     h_psi        :   1162.85s CPU   1262.87s WALL (   27164 calls)
     s_psi        :    108.19s CPU    108.50s WALL (   27164 calls)
     g_psi        :      7.32s CPU      7.39s WALL (   22484 calls)
     cdiaghg      :    447.72s CPU    455.48s WALL (   26744 calls)

     Called by h_psi:
     add_vuspsi   :    107.99s CPU    108.43s WALL (   27164 calls)

     General routines
     calbec       :    158.69s CPU    167.80s WALL (   32624 calls)
     fft          :    226.48s CPU    254.71s WALL (   58715 calls)
     ffts         :      0.52s CPU      0.57s WALL (     485 calls)
     fftw         :    904.68s CPU    994.53s WALL ( 2531978 calls)
     interpolate  :      2.70s CPU      3.06s WALL (     485 calls)
     davcio       :      0.01s CPU      0.03s WALL (      20 calls)
 
     Parallel routines
     fft_scatter  :    623.47s CPU    701.67s WALL ( 2591178 calls)
 
     PWSCF        :     1h 1m CPU        1h 4m WALL

 
   This run was terminated on:  12:28:59  27Apr2018            

=------------------------------------------------------------------------------=
   JOB DONE.
=------------------------------------------------------------------------------=
