  python dir          : /u/if/mamunm/src/espresso
  espresso dir        : /nfs/slac/g/suncatfs/sw/espv18/espresso-dynpy-beef/bin
  pseudo dir          : /u/if/mamunm/psp/gbrv1.5pbe
  ase-espresso py git : GITVERSION



     Program PWSCF v.5.1rc2 (svn rev. 11289) starts on  2May2018 at 11:43:18 

     This program is part of the open-source Quantum ESPRESSO suite
     for quantum simulation of materials; please cite
         "P. Giannozzi et al., J. Phys.:Condens. Matter 21 395502 (2009);
          URL http://www.quantum-espresso.org", 
     in publications or presentations arising from this work. More details at
     http://www.quantum-espresso.org/quote

     Parallel version (MPI), running on    32 processors
     K-points division:     npool     =       4
     R & G space division:  proc/nbgrp/npool/nimage =       8
     Reading input from pw.inp
     Message from routine read_cards :
     DEPRECATED: no units specified in CELL_PARAMETERS card

     Current dimensions of program PWSCF are:
     Max number of different atomic species (ntypx) = 10
     Max number of k-points (npk) =  40000
     Max angular momentum in pseudopotentials (lmaxx) =  3
     Presently stress not available with electric field


     **************************************************************************
     Initializing libbeef V0.1.1 with the BEEF-vdW functional.
     Citation: Wellendorff et al., PRB 85, 235149 (2012).
     **************************************************************************


     IMPORTANT: XC functional enforced from input :
     Exchange-correlation      = BEEF-VDW ( 1  4 27 13 2)
     Any further DFT definition will be discarded
     Please, verify this is what you really want


     Subspace diagonalization in iterative solution of the eigenvalue problem:
     a serial algorithm will be used

 
     Parallelization info
     --------------------
     sticks:   dense  smooth     PW     G-vecs:    dense   smooth      PW
     Min         302     120     36                56578    14283    2310
     Max         304     121     38                56589    14330    2317
     Sum        2419     967    295               452661   114411   18499
 


     bravais-lattice index     =            0
     lattice parameter (alat)  =       1.8897  a.u.
     unit-cell volume          =    3807.2308 (a.u.)^3
     number of atoms/cell      =           13
     number of atomic types    =            2
     number of electrons       =       233.00
     number of Kohn-Sham states=          126
     kinetic-energy cutoff     =      36.7493  Ry
     charge density cutoff     =     367.4932  Ry
     convergence threshold     =      1.0E-05
     mixing beta               =       0.3000
     number of iterations used =           10  plain     mixing
     Exchange-correlation      = BEEF-VDW ( 1  4 27 13 2)
     nstep                     =           50


     celldm(1)=   1.889726  celldm(2)=   0.000000  celldm(3)=   0.000000
     celldm(4)=   0.000000  celldm(5)=   0.000000  celldm(6)=   0.000000

     crystal axes: (cart. coord. in units of alat)
               a(1) = (   5.184823   0.000000   0.000000 )  
               a(2) = (   2.592411   4.490188   0.000000 )  
               a(3) = (   0.000000   0.000000  24.233390 )  

     reciprocal axes: (cart. coord. in units 2 pi/alat)
               b(1) = (  0.192871 -0.111354  0.000000 )  
               b(2) = (  0.000000  0.222708  0.000000 )  
               b(3) = (  0.000000  0.000000  0.041265 )  


     PseudoPot. # 1 for Cu read from file:
     /u/if/mamunm/psp/gbrv1.5pbe/Cu.UPF
     MD5 check sum: 6e991ff952a84172a2a52a1c1e996048
     Pseudo is Ultrasoft + core correction, Zval = 19.0
     Generated by new atomic code, or converted to UPF format
     Using radial grid of  867 points,  6 beta functions with: 
                l(1) =   0
                l(2) =   0
                l(3) =   1
                l(4) =   1
                l(5) =   2
                l(6) =   2
     Q(r) pseudized with  8 coefficients,  rinner =    1.150   1.150   1.150
                                                       1.150   1.150

     PseudoPot. # 2 for N  read from file:
     /u/if/mamunm/psp/gbrv1.5pbe/N.UPF
     MD5 check sum: 95339753478d7afb44899504a8723017
     Pseudo is Ultrasoft + core correction, Zval =  5.0
     Generated by new atomic code, or converted to UPF format
     Using radial grid of  729 points,  4 beta functions with: 
                l(1) =   0
                l(2) =   0
                l(3) =   1
                l(4) =   1
     Q(r) pseudized with  8 coefficients,  rinner =    0.900   0.900   0.900


     vdW kernel table read from file vdW_kernel_table
     MD5 check sum: 095c7af220d748ca6e76c0b4c6cfb241

     atomic species   valence    mass     pseudopotential
        Cu1           19.00    63.54600     Cu( 1.00)
        N1             5.00    14.00700     N ( 1.00)

     No symmetry found



   Cartesian axes

     site n.     atom                  positions (alat units)
         1           Cu1 tau(   1) = (   1.2962057   0.7483647  10.0000000  )
         2           Cu1 tau(   2) = (   3.8886170   0.7483647  10.0000000  )
         3           Cu1 tau(   3) = (   2.5924113   2.9934587  10.0000000  )
         4           Cu1 tau(   4) = (   5.1848226   2.9934587  10.0000000  )
         5           Cu1 tau(   5) = (   5.1848226   1.4967294  12.1166950  )
         6           Cu1 tau(   6) = (   2.5924113   1.4967294  12.1166950  )
         7           Cu1 tau(   7) = (   6.4810283   3.7418234  12.1166950  )
         8           Cu1 tau(   8) = (   3.8886170   3.7418234  12.1166950  )
         9           Cu1 tau(   9) = (   0.0000000   0.0000000  14.2333899  )
        10           Cu1 tau(  10) = (   2.5924113   0.0000000  14.2333899  )
        11           Cu1 tau(  11) = (   1.2962057   2.2450940  14.2333899  )
        12           Cu1 tau(  12) = (   3.8886170   2.2450940  14.2333899  )
        13           N1  tau(  13) = (   1.2962057   0.0000000  15.7558899  )

     number of k points=    20  Fermi-Dirac smearing, width (Ry)=  0.0110
                       cart. coord. in units 2pi/alat
        k(    1) = (   0.0000000   0.0000000   0.0000000), wk =   0.0555556
        k(    2) = (   0.0000000   0.0371180   0.0000000), wk =   0.1111111
        k(    3) = (   0.0000000   0.0742359   0.0000000), wk =   0.1111111
        k(    4) = (   0.0000000  -0.1113539   0.0000000), wk =   0.0555556
        k(    5) = (   0.0321451  -0.0185590   0.0000000), wk =   0.1111111
        k(    6) = (   0.0321451   0.0185590   0.0000000), wk =   0.1111111
        k(    7) = (   0.0321451   0.0556770   0.0000000), wk =   0.1111111
        k(    8) = (   0.0321451  -0.1299129   0.0000000), wk =   0.1111111
        k(    9) = (   0.0321451  -0.0927949   0.0000000), wk =   0.1111111
        k(   10) = (   0.0321451  -0.0556770   0.0000000), wk =   0.1111111
        k(   11) = (   0.0642902  -0.0371180   0.0000000), wk =   0.1111111
        k(   12) = (   0.0642902  -0.0000000   0.0000000), wk =   0.1111111
        k(   13) = (   0.0642902   0.0371180   0.0000000), wk =   0.1111111
        k(   14) = (   0.0642902  -0.1484719   0.0000000), wk =   0.1111111
        k(   15) = (   0.0642902  -0.1113539   0.0000000), wk =   0.1111111
        k(   16) = (   0.0642902  -0.0742359   0.0000000), wk =   0.1111111
        k(   17) = (  -0.0964353   0.0556770   0.0000000), wk =   0.0555556
        k(   18) = (  -0.0964353   0.0927949   0.0000000), wk =   0.1111111
        k(   19) = (  -0.0964353   0.1299129   0.0000000), wk =   0.1111111
        k(   20) = (  -0.0964353  -0.0556770   0.0000000), wk =   0.0555556

     Dense  grid:   452661 G-vectors     FFT dimensions: (  60,  60, 288)

     Smooth grid:   114411 G-vectors     FFT dimensions: (  40,  40, 180)

     Largest allocated arrays     est. size (Mb)     dimensions
        Kohn-Sham Wavefunctions         3.47 Mb     (    1804,  126)
        NL pseudopotentials             6.17 Mb     (    1804,  224)
        Each V/rho on FFT grid          1.98 Mb     (  129600)
        Each G-vector array             0.43 Mb     (   56584)
        G-vector shells                 0.12 Mb     (   15703)
     Largest temporary arrays     est. size (Mb)     dimensions
        Auxiliary wavefunctions        13.87 Mb     (    1804,  504)
        Each subspace H/S matrix        3.88 Mb     (     504,  504)
        Each <psi_i|beta_j> matrix      0.43 Mb     (     224,  126)
        Arrays for rho mixing          19.78 Mb     (  129600,   10)

     Initial potential from superposition of free atoms
     Check: negative starting charge=   -0.000124

     starting charge  220.99997, renormalised to  233.00000

     negative rho (up, down):  1.309E-04 0.000E+00


     ************************************************************************
     *
     * You are using vdW-DF for exchange-correlation in this calculation.
     * Please cite the following three references that made this development
     * possible:
     *
     *   M. Dion, H. Rydberg, E. Schroder, D. C. Langreth, and
     *   B. I. Lundqvist, Phys. Rev. Lett. 92, 246401 (2004).
     *
     *   T. Thonhauser, V. R. Cooper, S. Li, A. Puzder, P. Hyldgaard, and
     *   D. C. Langreth, Phys. Rev. B 76, 125112 (2007).
     *
     *   G. Roman-Perez and J. M. Soler, Phys. Rev. Lett. 103, 096102 (2009).
     *
     *
     * If you are using vdW-DF2, please also cite:
     *
     *   K. Lee, E. D. Murray, L. Kong, B. I. Lundqvist, and
     *   D. C. Langreth, Phys. Rev. B 82, 081101(R) (2010).
     *
     *
     * If you are calculating the stress with vdW-DF, please also cite:
     *
     *   R. Sabatini, E. Kucukbenli, B. Kolb, T. Thonhauser, and
     *   S. de Gironcoli, J. Phys.: Condens. Matter 24, 424209 (2012).
     *
     ************************************************************************

     Carrying out vdW-DF run using the following parameters:

     Nqs =      20    Nr_points =    1024   r_max =   100.000
     q_mesh =
               0.00001000     0.04494208     0.09755937     0.15916263
               0.23128650     0.31572767     0.41458969     0.53033537
               0.66584808     0.82450364     1.01025438     1.22772762
               1.48234092     1.78043706     2.12944203     2.53805004
               3.01644009     3.57652955     4.23227104     5.00000000

     Gradients computed in reciprocal space

     ************************************************************************


 
     Adding external electric field

     Computed dipole along edir(3) : 
        Dipole               -1.8670 Ry au,         -4.7455 Debye
        Dipole field         -0.0062 Ry au
 
        Potential amp.        0.5503 Ry
        Total length         44.6496 bohr
 
     Starting wfc are  160 randomized atomic wfcs

     total cpu time spent up to now is        9.1 secs

     per-process dynamical memory:    72.7 Mb

     Self-consistent Calculation

     iteration #  1     ecut=    36.75 Ry     beta=0.30
     Davidson diagonalization with overlap
     ethr =  1.00E-02,  avg # of iterations =  7.8

     negative rho (up, down):  2.335E-05 0.000E+00
 
     Adding external electric field

     Computed dipole along edir(3) : 
        Dipole               58.9573 Ry au,        149.8544 Debye
        Dipole field          0.1946 Ry au
 
        Potential amp.      -17.3774 Ry
        Total length         44.6496 bohr
 

     total cpu time spent up to now is       37.6 secs

     total energy              =   -4634.53202893 Ry
     Harris-Foulkes estimate   =   -4882.30862860 Ry
     estimated scf accuracy    <     520.39995041 Ry

     iteration #  2     ecut=    36.75 Ry     beta=0.30
     Davidson diagonalization with overlap
     c_bands:  3 eigenvalues not converged
     ethr =  1.00E-02,  avg # of iterations = 19.6
 
     Adding external electric field

     Computed dipole along edir(3) : 
        Dipole               10.9184 Ry au,         27.7517 Debye
        Dipole field          0.0360 Ry au
 
        Potential amp.       -3.2181 Ry
        Total length         44.6496 bohr
 

     total cpu time spent up to now is       97.8 secs

     total energy              =   -4454.49715701 Ry
     Harris-Foulkes estimate   =   -5660.01663161 Ry
     estimated scf accuracy    <   22269.15316176 Ry

     iteration #  3     ecut=    36.75 Ry     beta=0.30
     Davidson diagonalization with overlap
     ethr =  1.00E-02,  avg # of iterations =  8.8
 
     Adding external electric field

     Computed dipole along edir(3) : 
        Dipole               14.8241 Ry au,         37.6791 Debye
        Dipole field          0.0489 Ry au
 
        Potential amp.       -4.3694 Ry
        Total length         44.6496 bohr
 

     total cpu time spent up to now is      132.2 secs

     total energy              =   -4820.52779181 Ry
     Harris-Foulkes estimate   =   -5032.13828725 Ry
     estimated scf accuracy    <    2136.58500158 Ry

     iteration #  4     ecut=    36.75 Ry     beta=0.30
     Davidson diagonalization with overlap
     ethr =  1.00E-02,  avg # of iterations =  6.8
 
     Adding external electric field

     Computed dipole along edir(3) : 
        Dipole               11.9600 Ry au,         30.3994 Debye
        Dipole field          0.0395 Ry au
 
        Potential amp.       -3.5252 Ry
        Total length         44.6496 bohr
 

     total cpu time spent up to now is      160.0 secs

     total energy              =   -4884.93553237 Ry
     Harris-Foulkes estimate   =   -4902.99629678 Ry
     estimated scf accuracy    <      64.12607392 Ry

     iteration #  5     ecut=    36.75 Ry     beta=0.30
     Davidson diagonalization with overlap
     ethr =  1.00E-02,  avg # of iterations =  2.3
 
     Adding external electric field

     Computed dipole along edir(3) : 
        Dipole                9.3304 Ry au,         23.7156 Debye
        Dipole field          0.0308 Ry au
 
        Potential amp.       -2.7501 Ry
        Total length         44.6496 bohr
 

     total cpu time spent up to now is      177.0 secs

     total energy              =   -4884.08532335 Ry
     Harris-Foulkes estimate   =   -4888.72415527 Ry
     estimated scf accuracy    <      27.33344238 Ry

     iteration #  6     ecut=    36.75 Ry     beta=0.30
     Davidson diagonalization with overlap
     ethr =  1.00E-02,  avg # of iterations =  1.0
 
     Adding external electric field

     Computed dipole along edir(3) : 
        Dipole                8.9454 Ry au,         22.7369 Debye
        Dipole field          0.0295 Ry au
 
        Potential amp.       -2.6366 Ry
        Total length         44.6496 bohr
 

     total cpu time spent up to now is      191.1 secs

     total energy              =   -4883.96930151 Ry
     Harris-Foulkes estimate   =   -4884.65344378 Ry
     estimated scf accuracy    <      27.54051255 Ry

     iteration #  7     ecut=    36.75 Ry     beta=0.30
     Davidson diagonalization with overlap
     ethr =  1.00E-02,  avg # of iterations =  1.0
 
     Adding external electric field

     Computed dipole along edir(3) : 
        Dipole                7.8639 Ry au,         19.9881 Debye
        Dipole field          0.0260 Ry au
 
        Potential amp.       -2.3179 Ry
        Total length         44.6496 bohr
 

     total cpu time spent up to now is      205.1 secs

     total energy              =   -4882.99932356 Ry
     Harris-Foulkes estimate   =   -4884.16140552 Ry
     estimated scf accuracy    <      23.38810881 Ry

     iteration #  8     ecut=    36.75 Ry     beta=0.30
     Davidson diagonalization with overlap
     ethr =  1.00E-02,  avg # of iterations =  1.0
 
     Adding external electric field

     Computed dipole along edir(3) : 
        Dipole                7.1320 Ry au,         18.1277 Debye
        Dipole field          0.0235 Ry au
 
        Potential amp.       -2.1021 Ry
        Total length         44.6496 bohr
 

     total cpu time spent up to now is      219.2 secs

     total energy              =   -4882.25409606 Ry
     Harris-Foulkes estimate   =   -4883.12402887 Ry
     estimated scf accuracy    <      24.25990751 Ry

     iteration #  9     ecut=    36.75 Ry     beta=0.30
     Davidson diagonalization with overlap
     ethr =  1.00E-02,  avg # of iterations =  1.0
 
     Adding external electric field

     Computed dipole along edir(3) : 
        Dipole                5.0027 Ry au,         12.7155 Debye
        Dipole field          0.0165 Ry au
 
        Potential amp.       -1.4745 Ry
        Total length         44.6496 bohr
 

     total cpu time spent up to now is      233.7 secs

     total energy              =   -4880.75900916 Ry
     Harris-Foulkes estimate   =   -4882.46564517 Ry
     estimated scf accuracy    <      13.04862531 Ry

     iteration # 10     ecut=    36.75 Ry     beta=0.30
     Davidson diagonalization with overlap
     ethr =  5.60E-03,  avg # of iterations =  1.2
 
     Adding external electric field

     Computed dipole along edir(3) : 
        Dipole                4.0062 Ry au,         10.1828 Debye
        Dipole field          0.0132 Ry au
 
        Potential amp.       -1.1808 Ry
        Total length         44.6496 bohr
 

     total cpu time spent up to now is      248.2 secs

     total energy              =   -4880.21447290 Ry
     Harris-Foulkes estimate   =   -4880.88908312 Ry
     estimated scf accuracy    <       7.74923230 Ry

     iteration # 11     ecut=    36.75 Ry     beta=0.30
     Davidson diagonalization with overlap
     ethr =  3.33E-03,  avg # of iterations =  1.4
 
     Adding external electric field

     Computed dipole along edir(3) : 
        Dipole                3.4415 Ry au,          8.7474 Debye
        Dipole field          0.0114 Ry au
 
        Potential amp.       -1.0144 Ry
        Total length         44.6496 bohr
 

     total cpu time spent up to now is      262.9 secs

     total energy              =   -4879.98406944 Ry
     Harris-Foulkes estimate   =   -4880.28994914 Ry
     estimated scf accuracy    <       4.86679583 Ry

     iteration # 12     ecut=    36.75 Ry     beta=0.30
     Davidson diagonalization with overlap
     ethr =  2.09E-03,  avg # of iterations =  1.4

     negative rho (up, down):  1.510E-02 0.000E+00
 
     Adding external electric field

     Computed dipole along edir(3) : 
        Dipole               -0.1430 Ry au,         -0.3634 Debye
        Dipole field         -0.0005 Ry au
 
        Potential amp.        0.0421 Ry
        Total length         44.6496 bohr
 

     total cpu time spent up to now is      277.6 secs

     total energy              =   -4878.85141187 Ry
     Harris-Foulkes estimate   =   -4880.05265029 Ry
     estimated scf accuracy    <       3.42127121 Ry

     iteration # 13     ecut=    36.75 Ry     beta=0.30
     Davidson diagonalization with overlap
     ethr =  1.47E-03,  avg # of iterations =  4.7

     negative rho (up, down):  3.083E-03 0.000E+00
 
     Adding external electric field

     Computed dipole along edir(3) : 
        Dipole                0.1331 Ry au,          0.3384 Debye
        Dipole field          0.0004 Ry au
 
        Potential amp.       -0.0392 Ry
        Total length         44.6496 bohr
 

     total cpu time spent up to now is      296.2 secs

     total energy              =   -4879.37618376 Ry
     Harris-Foulkes estimate   =   -4879.48678491 Ry
     estimated scf accuracy    <       2.41199069 Ry

     iteration # 14     ecut=    36.75 Ry     beta=0.30
     Davidson diagonalization with overlap
     ethr =  1.04E-03,  avg # of iterations =  1.0

     negative rho (up, down):  2.704E-03 0.000E+00
 
     Adding external electric field

     Computed dipole along edir(3) : 
        Dipole               -0.3961 Ry au,         -1.0067 Debye
        Dipole field         -0.0013 Ry au
 
        Potential amp.        0.1167 Ry
        Total length         44.6496 bohr
 

     total cpu time spent up to now is      310.3 secs

     total energy              =   -4879.37970413 Ry
     Harris-Foulkes estimate   =   -4879.40358792 Ry
     estimated scf accuracy    <       0.68762832 Ry

     iteration # 15     ecut=    36.75 Ry     beta=0.30
     Davidson diagonalization with overlap
     ethr =  2.95E-04,  avg # of iterations =  2.9

     negative rho (up, down):  1.579E-02 0.000E+00
 
     Adding external electric field

     Computed dipole along edir(3) : 
        Dipole               -1.0332 Ry au,         -2.6260 Debye
        Dipole field         -0.0034 Ry au
 
        Potential amp.        0.3045 Ry
        Total length         44.6496 bohr
 

     total cpu time spent up to now is      326.0 secs

     total energy              =   -4879.39184195 Ry
     Harris-Foulkes estimate   =   -4879.39152448 Ry
     estimated scf accuracy    <       0.96722553 Ry

     iteration # 16     ecut=    36.75 Ry     beta=0.30
     Davidson diagonalization with overlap
     ethr =  2.95E-04,  avg # of iterations =  5.8

     negative rho (up, down):  2.726E-06 0.000E+00
 
     Adding external electric field

     Computed dipole along edir(3) : 
        Dipole               -0.4915 Ry au,         -1.2493 Debye
        Dipole field         -0.0016 Ry au
 
        Potential amp.        0.1449 Ry
        Total length         44.6496 bohr
 

     total cpu time spent up to now is      343.2 secs

     total energy              =   -4879.31259626 Ry
     Harris-Foulkes estimate   =   -4879.40214348 Ry
     estimated scf accuracy    <       0.92268533 Ry

     iteration # 17     ecut=    36.75 Ry     beta=0.30
     Davidson diagonalization with overlap
     ethr =  2.95E-04,  avg # of iterations =  6.2

     negative rho (up, down):  3.336E-05 0.000E+00
 
     Adding external electric field

     Computed dipole along edir(3) : 
        Dipole               -0.6169 Ry au,         -1.5679 Debye
        Dipole field         -0.0020 Ry au
 
        Potential amp.        0.1818 Ry
        Total length         44.6496 bohr
 

     total cpu time spent up to now is      360.6 secs

     total energy              =   -4879.35436186 Ry
     Harris-Foulkes estimate   =   -4879.35552921 Ry
     estimated scf accuracy    <       0.01320172 Ry

     iteration # 18     ecut=    36.75 Ry     beta=0.30
     Davidson diagonalization with overlap
     ethr =  5.67E-06,  avg # of iterations =  4.5

     negative rho (up, down):  2.858E-05 0.000E+00
 
     Adding external electric field

     Computed dipole along edir(3) : 
        Dipole               -0.6015 Ry au,         -1.5287 Debye
        Dipole field         -0.0020 Ry au
 
        Potential amp.        0.1773 Ry
        Total length         44.6496 bohr
 

     total cpu time spent up to now is      379.4 secs

     total energy              =   -4879.35671253 Ry
     Harris-Foulkes estimate   =   -4879.35716281 Ry
     estimated scf accuracy    <       0.02781991 Ry

     iteration # 19     ecut=    36.75 Ry     beta=0.30
     Davidson diagonalization with overlap
     ethr =  5.67E-06,  avg # of iterations =  1.0

     negative rho (up, down):  1.031E-03 0.000E+00
 
     Adding external electric field

     Computed dipole along edir(3) : 
        Dipole               -0.7127 Ry au,         -1.8116 Debye
        Dipole field         -0.0024 Ry au
 
        Potential amp.        0.2101 Ry
        Total length         44.6496 bohr
 

     total cpu time spent up to now is      393.7 secs

     total energy              =   -4879.35982522 Ry
     Harris-Foulkes estimate   =   -4879.35628287 Ry
     estimated scf accuracy    <       0.02209809 Ry

     iteration # 20     ecut=    36.75 Ry     beta=0.30
     Davidson diagonalization with overlap
     ethr =  5.67E-06,  avg # of iterations =  4.2

     negative rho (up, down):  4.626E-04 0.000E+00
 
     Adding external electric field

     Computed dipole along edir(3) : 
        Dipole               -0.6001 Ry au,         -1.5252 Debye
        Dipole field         -0.0020 Ry au
 
        Potential amp.        0.1769 Ry
        Total length         44.6496 bohr
 

     total cpu time spent up to now is      411.3 secs

     total energy              =   -4879.35814377 Ry
     Harris-Foulkes estimate   =   -4879.36386026 Ry
     estimated scf accuracy    <       0.13507245 Ry

     iteration # 21     ecut=    36.75 Ry     beta=0.30
     Davidson diagonalization with overlap
     ethr =  5.67E-06,  avg # of iterations =  3.5

     negative rho (up, down):  3.129E-04 0.000E+00
 
     Adding external electric field

     Computed dipole along edir(3) : 
        Dipole               -0.5064 Ry au,         -1.2871 Debye
        Dipole field         -0.0017 Ry au
 
        Potential amp.        0.1492 Ry
        Total length         44.6496 bohr
 

     total cpu time spent up to now is      427.7 secs

     total energy              =   -4879.35328930 Ry
     Harris-Foulkes estimate   =   -4879.35921210 Ry
     estimated scf accuracy    <       0.07732338 Ry

     iteration # 22     ecut=    36.75 Ry     beta=0.30
     Davidson diagonalization with overlap
     ethr =  5.67E-06,  avg # of iterations =  5.2

     negative rho (up, down):  5.827E-04 0.000E+00
 
     Adding external electric field

     Computed dipole along edir(3) : 
        Dipole               -0.4675 Ry au,         -1.1882 Debye
        Dipole field         -0.0015 Ry au
 
        Potential amp.        0.1378 Ry
        Total length         44.6496 bohr
 

     total cpu time spent up to now is      444.9 secs

     total energy              =   -4879.35453799 Ry
     Harris-Foulkes estimate   =   -4879.35527160 Ry
     estimated scf accuracy    <       0.00623886 Ry

     iteration # 23     ecut=    36.75 Ry     beta=0.30
     Davidson diagonalization with overlap
     ethr =  2.68E-06,  avg # of iterations =  4.4

     negative rho (up, down):  5.040E-04 0.000E+00
 
     Adding external electric field

     Computed dipole along edir(3) : 
        Dipole               -0.4558 Ry au,         -1.1585 Debye
        Dipole field         -0.0015 Ry au
 
        Potential amp.        0.1343 Ry
        Total length         44.6496 bohr
 

     total cpu time spent up to now is      460.8 secs

     total energy              =   -4879.35477458 Ry
     Harris-Foulkes estimate   =   -4879.35487068 Ry
     estimated scf accuracy    <       0.00031446 Ry

     iteration # 24     ecut=    36.75 Ry     beta=0.30
     Davidson diagonalization with overlap
     ethr =  1.35E-07,  avg # of iterations =  2.8

     negative rho (up, down):  8.392E-04 0.000E+00
 
     Adding external electric field

     Computed dipole along edir(3) : 
        Dipole               -0.4398 Ry au,         -1.1178 Debye
        Dipole field         -0.0015 Ry au
 
        Potential amp.        0.1296 Ry
        Total length         44.6496 bohr
 

     total cpu time spent up to now is      478.0 secs

     total energy              =   -4879.35480417 Ry
     Harris-Foulkes estimate   =   -4879.35486972 Ry
     estimated scf accuracy    <       0.00021511 Ry

     iteration # 25     ecut=    36.75 Ry     beta=0.30
     Davidson diagonalization with overlap
     ethr =  9.23E-08,  avg # of iterations =  2.1

     negative rho (up, down):  1.190E-03 0.000E+00

     negative rho (up, down):  1.190E-03 0.000E+00

     negative rho (up, down):  1.190E-03 0.000E+00

     negative rho (up, down):  1.190E-03 0.000E+00

     negative rho (up, down):  1.190E-03 0.000E+00

     negative rho (up, down):  1.190E-03 0.000E+00

     negative rho (up, down):  1.190E-03 0.000E+00

     negative rho (up, down):  1.190E-03 0.000E+00

     negative rho (up, down):  1.190E-03 0.000E+00

     negative rho (up, down):  1.190E-03 0.000E+00

     negative rho (up, down):  1.190E-03 0.000E+00

     negative rho (up, down):  1.190E-03 0.000E+00

     negative rho (up, down):  1.190E-03 0.000E+00

     negative rho (up, down):  1.190E-03 0.000E+00

     negative rho (up, down):  1.190E-03 0.000E+00

     negative rho (up, down):  1.190E-03 0.000E+00

     negative rho (up, down):  1.190E-03 0.000E+00

     negative rho (up, down):  1.190E-03 0.000E+00

     negative rho (up, down):  1.190E-03 0.000E+00

     negative rho (up, down):  1.190E-03 0.000E+00

     negative rho (up, down):  1.190E-03 0.000E+00

     negative rho (up, down):  1.190E-03 0.000E+00

     negative rho (up, down):  1.190E-03 0.000E+00

     negative rho (up, down):  1.190E-03 0.000E+00

     negative rho (up, down):  1.190E-03 0.000E+00

     negative rho (up, down):  1.190E-03 0.000E+00

     negative rho (up, down):  1.190E-03 0.000E+00

     negative rho (up, down):  1.190E-03 0.000E+00

     negative rho (up, down):  1.190E-03 0.000E+00

     negative rho (up, down):  1.190E-03 0.000E+00

     negative rho (up, down):  1.190E-03 0.000E+00

     negative rho (up, down):  1.190E-03 0.000E+00

     negative rho (up, down):  1.190E-03 0.000E+00

     negative rho (up, down):  1.190E-03 0.000E+00

     negative rho (up, down):  1.190E-03 0.000E+00
 
     Adding external electric field

     Computed dipole along edir(3) : 
        Dipole               -0.4425 Ry au,         -1.1246 Debye
        Dipole field         -0.0015 Ry au
 
        Potential amp.        0.1304 Ry
        Total length         44.6496 bohr
 

     total cpu time spent up to now is      525.8 secs

     End of self-consistent calculation

          k = 0.0000 0.0000 0.0000 ( 14321 PWs)   bands (ev):

  -113.0056-113.0019-112.8981-112.8518-112.8479-112.8278-112.6222-112.6020
  -112.5980-112.5919-112.4621-112.4520 -70.4926 -70.4679 -70.3675 -70.3618
   -70.3329 -70.3104 -70.3057 -70.2987 -70.2924 -70.2868 -70.2491 -70.2435
   -70.2405 -70.2383 -70.2230 -70.2207 -70.2127 -70.2119 -70.0686 -70.0666
   -70.0522 -70.0138 -70.0133 -70.0072 -69.9897 -69.9878 -69.9753 -69.9549
   -69.9513 -69.9408 -69.9143 -69.8704 -69.8676 -69.8584 -69.8319 -69.8199
   -13.0193  -8.4694  -6.4718  -5.1735  -4.8258  -4.8216  -4.8082  -4.7130
    -4.6475  -4.6345  -4.3933  -4.3343  -4.2712  -4.2530  -4.2346  -4.2162
    -3.7217  -3.7006  -3.6449  -3.5231  -3.3755  -3.2991  -3.2492  -3.2309
    -3.1658  -3.1589  -3.1126  -3.0498  -3.0290  -3.0024  -2.9739  -2.9687
    -2.9055  -2.9013  -2.7700  -2.7077  -2.6371  -2.5286  -2.5259  -2.4715
    -2.3908  -2.3791  -2.3086  -2.2854  -2.1959  -2.1301  -2.0903  -2.0093
    -1.9945  -1.9803  -1.9411  -1.9190  -1.9109  -1.9025  -1.8980  -1.8743
    -1.8612  -1.8377  -1.7148  -1.6739  -1.6736  -1.6640  -1.6331  -1.4520
    -1.1107  -0.9331  -0.5233  -0.0747   0.0867   0.1715   0.5556   0.9485
     1.1371   1.1954   1.3557   1.9327   2.7840   3.7685

          k = 0.0000 0.0371 0.0000 ( 14383 PWs)   bands (ev):

  -113.0056-113.0019-112.8981-112.8517-112.8479-112.8279-112.6221-112.6019
  -112.5980-112.5921-112.4621-112.4520 -70.4925 -70.4679 -70.3669 -70.3616
   -70.3327 -70.3092 -70.3027 -70.2983 -70.2922 -70.2843 -70.2491 -70.2434
   -70.2427 -70.2383 -70.2235 -70.2208 -70.2157 -70.2139 -70.0648 -70.0645
   -70.0491 -70.0166 -70.0140 -70.0075 -69.9920 -69.9908 -69.9752 -69.9549
   -69.9513 -69.9409 -69.9146 -69.8709 -69.8677 -69.8588 -69.8319 -69.8199
   -13.0109  -8.2613  -6.2904  -5.0359  -4.9852  -4.7736  -4.7681  -4.6594
    -4.6174  -4.5694  -4.3394  -4.2977  -4.2329  -4.1903  -4.1434  -4.0999
    -3.7158  -3.6711  -3.6418  -3.5226  -3.3801  -3.2865  -3.2640  -3.2239
    -3.2157  -3.1785  -3.1098  -3.0659  -3.0539  -3.0028  -2.9813  -2.9378
    -2.9327  -2.8662  -2.8391  -2.8014  -2.6885  -2.6503  -2.5779  -2.5432
    -2.4204  -2.4162  -2.3807  -2.3302  -2.2689  -2.2247  -2.1280  -2.1131
    -2.0853  -2.0647  -2.0376  -2.0209  -2.0153  -2.0104  -1.9574  -1.9483
    -1.9348  -1.8776  -1.8341  -1.8073  -1.7888  -1.7513  -1.7496  -1.5651
    -1.2232  -0.8951  -0.6659  -0.6479  -0.2009   0.0572   0.5055   0.8853
     1.0221   1.6969   2.1728   2.4262   3.3267   3.9753

          k = 0.0000 0.0742 0.0000 ( 14316 PWs)   bands (ev):

  -113.0056-113.0019-112.8980-112.8517-112.8479-112.8281-112.6219-112.6018
  -112.5980-112.5924-112.4621-112.4521 -70.4923 -70.4678 -70.3657 -70.3610
   -70.3321 -70.3068 -70.2973 -70.2965 -70.2905 -70.2789 -70.2492 -70.2472
   -70.2433 -70.2383 -70.2250 -70.2239 -70.2208 -70.2166 -70.0596 -70.0549
   -70.0419 -70.0231 -70.0177 -70.0061 -70.0029 -69.9936 -69.9750 -69.9549
   -69.9513 -69.9411 -69.9152 -69.8718 -69.8678 -69.8595 -69.8319 -69.8199
   -12.9942  -7.6532  -5.7883  -5.6647  -4.7243  -4.6711  -4.6336  -4.6288
    -4.4210  -4.4106  -4.2472  -4.1495  -4.1048  -4.0331  -3.9359  -3.8482
    -3.6950  -3.6371  -3.6060  -3.5450  -3.5157  -3.4358  -3.3403  -3.3076
    -3.2264  -3.1966  -3.1931  -3.1099  -3.0941  -3.0546  -2.9991  -2.9492
    -2.9472  -2.8953  -2.8706  -2.8692  -2.7962  -2.7616  -2.7463  -2.6617
    -2.6003  -2.5983  -2.5715  -2.5247  -2.5206  -2.4189  -2.4118  -2.4059
    -2.3658  -2.2517  -2.2128  -2.1948  -2.1766  -2.1319  -2.1121  -2.0652
    -2.0451  -2.0213  -2.0045  -1.9360  -1.8733  -1.8464  -1.8424  -1.7801
    -1.6500  -0.9389  -0.8049  -0.4773  -0.2300  -0.0469   0.2556   1.1752
     1.2125   1.9200   2.4591   3.4573   3.8326   4.5762

          k = 0.0000-0.1114 0.0000 ( 14294 PWs)   bands (ev):

  -113.0056-113.0019-112.8979-112.8516-112.8479-112.8281-112.6218-112.6017
  -112.5980-112.5926-112.4621-112.4521 -70.4922 -70.4678 -70.3652 -70.3608
   -70.3319 -70.3058 -70.2966 -70.2945 -70.2872 -70.2766 -70.2495 -70.2488
   -70.2431 -70.2383 -70.2312 -70.2236 -70.2209 -70.2184 -70.0567 -70.0440
   -70.0430 -70.0238 -70.0203 -70.0122 -70.0046 -69.9955 -69.9750 -69.9548
   -69.9513 -69.9412 -69.9154 -69.8723 -69.8678 -69.8598 -69.8319 -69.8199
   -12.9859  -6.7344  -6.6973  -5.1557  -5.0875  -4.5419  -4.5306  -4.3468
    -4.3061  -4.2824  -4.2418  -4.0200  -4.0192  -3.9272  -3.8234  -3.7762
    -3.7072  -3.6355  -3.6114  -3.5781  -3.5422  -3.5328  -3.3953  -3.3658
    -3.2938  -3.2454  -3.2094  -3.1194  -3.1127  -3.0976  -3.0349  -3.0116
    -3.0091  -2.9613  -2.9175  -2.9115  -2.8847  -2.8508  -2.8477  -2.8325
    -2.7930  -2.7442  -2.6394  -2.6033  -2.5531  -2.4943  -2.4869  -2.4335
    -2.4133  -2.4102  -2.3431  -2.2818  -2.2776  -2.2329  -2.1869  -2.1727
    -2.0917  -2.0518  -1.9897  -1.9568  -1.9044  -1.8677  -1.8496  -1.8418
    -1.7749  -0.8537  -0.7087  -0.5957  -0.2140  -0.1368   0.5873   0.9539
     1.2758   1.8384   3.1590   3.2569   3.9383   4.8723

          k = 0.0321-0.0186 0.0000 ( 14383 PWs)   bands (ev):

  -113.0054-113.0021-112.8981-112.8515-112.8481-112.8279-112.6221-112.6017
  -112.5982-112.5920-112.4620-112.4521 -70.4907 -70.4694 -70.3669 -70.3620
   -70.3311 -70.3096 -70.3039 -70.2991 -70.2922 -70.2836 -70.2506 -70.2431
   -70.2406 -70.2386 -70.2253 -70.2207 -70.2158 -70.2129 -70.0663 -70.0631
   -70.0490 -70.0164 -70.0135 -70.0085 -69.9936 -69.9892 -69.9752 -69.9547
   -69.9515 -69.9409 -69.9113 -69.8709 -69.8705 -69.8586 -69.8318 -69.8200
   -13.0096  -8.2625  -6.2904  -5.0313  -5.0082  -4.7752  -4.7584  -4.6781
    -4.5956  -4.5691  -4.3405  -4.2846  -4.2382  -4.1889  -4.1452  -4.1035
    -3.7015  -3.6909  -3.6326  -3.5555  -3.3295  -3.2865  -3.2730  -3.2292
    -3.2110  -3.1832  -3.1065  -3.0911  -3.0376  -3.0136  -2.9841  -2.9570
    -2.9307  -2.8584  -2.8332  -2.7985  -2.7269  -2.6206  -2.5732  -2.4906
    -2.4254  -2.3951  -2.3822  -2.3364  -2.2669  -2.2374  -2.1703  -2.1161
    -2.0914  -2.0686  -2.0360  -2.0171  -1.9983  -1.9636  -1.9578  -1.9390
    -1.9168  -1.9086  -1.8811  -1.8271  -1.7808  -1.7552  -1.7370  -1.4474
    -1.2560  -0.9759  -0.8409  -0.4788  -0.1536  -0.0013   0.3403   0.8919
     1.3093   1.6381   2.1846   2.4704   3.2032   3.9727

          k = 0.0321 0.0186 0.0000 ( 14383 PWs)   bands (ev):

  -113.0054-113.0021-112.8981-112.8515-112.8481-112.8279-112.6221-112.6017
  -112.5982-112.5920-112.4620-112.4521 -70.4907 -70.4694 -70.3669 -70.3620
   -70.3311 -70.3096 -70.3039 -70.2991 -70.2922 -70.2836 -70.2507 -70.2431
   -70.2406 -70.2386 -70.2253 -70.2207 -70.2158 -70.2128 -70.0664 -70.0631
   -70.0490 -70.0163 -70.0135 -70.0086 -69.9937 -69.9890 -69.9752 -69.9547
   -69.9515 -69.9409 -69.9113 -69.8709 -69.8705 -69.8586 -69.8318 -69.8200
   -13.0096  -8.2625  -6.2904  -5.0313  -5.0082  -4.7752  -4.7584  -4.6781
    -4.5956  -4.5691  -4.3405  -4.2846  -4.2382  -4.1889  -4.1452  -4.1035
    -3.7014  -3.6909  -3.6326  -3.5555  -3.3295  -3.2865  -3.2730  -3.2292
    -3.2110  -3.1832  -3.1065  -3.0911  -3.0376  -3.0136  -2.9841  -2.9570
    -2.9307  -2.8585  -2.8332  -2.7985  -2.7268  -2.6206  -2.5731  -2.4906
    -2.4254  -2.3951  -2.3822  -2.3364  -2.2669  -2.2374  -2.1703  -2.1161
    -2.0914  -2.0686  -2.0360  -2.0171  -1.9983  -1.9636  -1.9578  -1.9390
    -1.9168  -1.9086  -1.8811  -1.8271  -1.7808  -1.7552  -1.7370  -1.4474
    -1.2560  -0.9759  -0.8409  -0.4788  -0.1536  -0.0013   0.3403   0.8919
     1.3093   1.6381   2.1846   2.4704   3.2032   3.9727

          k = 0.0321 0.0557 0.0000 ( 14335 PWs)   bands (ev):

  -113.0054-113.0021-112.8980-112.8514-112.8481-112.8280-112.6219-112.6016
  -112.5983-112.5922-112.4620-112.4521 -70.4906 -70.4693 -70.3660 -70.3616
   -70.3306 -70.3083 -70.3000 -70.2971 -70.2915 -70.2792 -70.2521 -70.2431
   -70.2429 -70.2385 -70.2258 -70.2221 -70.2205 -70.2151 -70.0616 -70.0572
   -70.0435 -70.0230 -70.0129 -70.0093 -70.0000 -69.9921 -69.9751 -69.9547
   -69.9516 -69.9410 -69.9118 -69.8713 -69.8708 -69.8592 -69.8318 -69.8200
   -12.9971  -7.8540  -5.9449  -5.1711  -5.1453  -4.7727  -4.6074  -4.5893
    -4.4891  -4.4182  -4.2356  -4.2073  -4.1435  -4.0630  -3.9952  -3.9277
    -3.6962  -3.6717  -3.6055  -3.5616  -3.4448  -3.3734  -3.2909  -3.2816
    -3.2255  -3.1993  -3.1594  -3.1121  -3.0734  -3.0432  -3.0007  -2.9739
    -2.9491  -2.9241  -2.9093  -2.8247  -2.7426  -2.7171  -2.6749  -2.6376
    -2.5449  -2.5099  -2.4731  -2.4441  -2.4312  -2.4125  -2.3735  -2.3120
    -2.2887  -2.2316  -2.1989  -2.1550  -2.1494  -2.0931  -2.0758  -2.0059
    -1.9885  -1.9468  -1.9266  -1.9108  -1.8823  -1.8651  -1.8342  -1.5389
    -1.4977  -1.1700  -0.9984  -0.9604  -0.1568   0.1876   0.4760   1.1519
     1.6291   2.1213   2.2793   2.5937   3.6662   4.3845

          k = 0.0321-0.1299 0.0000 ( 14299 PWs)   bands (ev):

  -113.0054-113.0021-112.8979-112.8514-112.8481-112.8281-112.6218-112.6015
  -112.5983-112.5925-112.4620-112.4521 -70.4904 -70.4693 -70.3651 -70.3613
   -70.3302 -70.3070 -70.2969 -70.2949 -70.2887 -70.2744 -70.2531 -70.2470
   -70.2428 -70.2387 -70.2283 -70.2255 -70.2208 -70.2186 -70.0556 -70.0484
   -70.0383 -70.0278 -70.0190 -70.0088 -70.0060 -69.9960 -69.9750 -69.9546
   -69.9516 -69.9412 -69.9122 -69.8720 -69.8709 -69.8597 -69.8318 -69.8200
   -12.9847  -7.0751  -6.0536  -5.3438  -5.2410  -4.7781  -4.4797  -4.3732
    -4.2272  -4.1989  -4.1401  -4.0234  -4.0101  -3.9216  -3.8351  -3.7734
    -3.7220  -3.6602  -3.6104  -3.5970  -3.5564  -3.4974  -3.4399  -3.3901
    -3.3336  -3.2688  -3.2047  -3.1733  -3.1316  -3.0876  -3.0699  -3.0427
    -3.0106  -2.9826  -2.9628  -2.9186  -2.9055  -2.8267  -2.8107  -2.7987
    -2.7456  -2.7033  -2.6491  -2.5713  -2.5301  -2.4979  -2.4247  -2.4077
    -2.3989  -2.3203  -2.3132  -2.2769  -2.2189  -2.1896  -2.1746  -2.0717
    -2.0424  -2.0177  -1.9665  -1.9482  -1.9156  -1.8960  -1.8846  -1.8402
    -1.6783  -1.4381  -1.0941  -0.7193  -0.3705   0.1647   0.7590   1.3183
     1.6582   2.5160   2.7175   3.3391   3.8501   4.6087

          k = 0.0321-0.0928 0.0000 ( 14299 PWs)   bands (ev):

  -113.0054-113.0021-112.8979-112.8514-112.8481-112.8281-112.6218-112.6015
  -112.5982-112.5925-112.4620-112.4521 -70.4904 -70.4693 -70.3651 -70.3613
   -70.3302 -70.3070 -70.2968 -70.2949 -70.2887 -70.2745 -70.2532 -70.2469
   -70.2429 -70.2386 -70.2283 -70.2255 -70.2208 -70.2187 -70.0555 -70.0483
   -70.0384 -70.0282 -70.0186 -70.0088 -70.0060 -69.9961 -69.9750 -69.9546
   -69.9515 -69.9412 -69.9122 -69.8720 -69.8709 -69.8597 -69.8318 -69.8200
   -12.9847  -7.0751  -6.0536  -5.3438  -5.2410  -4.7781  -4.4797  -4.3732
    -4.2272  -4.1989  -4.1401  -4.0234  -4.0101  -3.9216  -3.8351  -3.7734
    -3.7220  -3.6602  -3.6103  -3.5970  -3.5564  -3.4973  -3.4399  -3.3901
    -3.3336  -3.2688  -3.2046  -3.1733  -3.1317  -3.0876  -3.0699  -3.0426
    -3.0106  -2.9826  -2.9628  -2.9185  -2.9055  -2.8267  -2.8106  -2.7987
    -2.7455  -2.7034  -2.6491  -2.5713  -2.5302  -2.4979  -2.4246  -2.4077
    -2.3989  -2.3203  -2.3132  -2.2769  -2.2189  -2.1896  -2.1746  -2.0717
    -2.0424  -2.0177  -1.9665  -1.9482  -1.9156  -1.8960  -1.8847  -1.8402
    -1.6783  -1.4381  -1.0941  -0.7193  -0.3705   0.1647   0.7590   1.3183
     1.6582   2.5160   2.7175   3.3391   3.8501   4.6086

          k = 0.0321-0.0557 0.0000 ( 14335 PWs)   bands (ev):

  -113.0054-113.0021-112.8980-112.8515-112.8481-112.8280-112.6219-112.6016
  -112.5982-112.5922-112.4620-112.4521 -70.4906 -70.4693 -70.3660 -70.3616
   -70.3306 -70.3083 -70.2999 -70.2972 -70.2915 -70.2793 -70.2522 -70.2430
   -70.2430 -70.2384 -70.2258 -70.2221 -70.2205 -70.2152 -70.0615 -70.0573
   -70.0435 -70.0232 -70.0127 -70.0093 -69.9999 -69.9923 -69.9751 -69.9547
   -69.9515 -69.9410 -69.9118 -69.8713 -69.8708 -69.8592 -69.8318 -69.8200
   -12.9971  -7.8540  -5.9449  -5.1711  -5.1453  -4.7727  -4.6074  -4.5893
    -4.4891  -4.4182  -4.2356  -4.2073  -4.1435  -4.0630  -3.9952  -3.9277
    -3.6962  -3.6718  -3.6055  -3.5616  -3.4448  -3.3734  -3.2910  -3.2816
    -3.2256  -3.1993  -3.1594  -3.1122  -3.0734  -3.0432  -3.0007  -2.9739
    -2.9491  -2.9240  -2.9093  -2.8247  -2.7425  -2.7171  -2.6749  -2.6376
    -2.5449  -2.5099  -2.4731  -2.4441  -2.4311  -2.4125  -2.3735  -2.3120
    -2.2887  -2.2316  -2.1989  -2.1550  -2.1495  -2.0931  -2.0758  -2.0059
    -1.9885  -1.9468  -1.9266  -1.9108  -1.8823  -1.8651  -1.8342  -1.5390
    -1.4977  -1.1700  -0.9984  -0.9604  -0.1569   0.1876   0.4760   1.1519
     1.6291   2.1213   2.2793   2.5937   3.6662   4.3847

          k = 0.0643-0.0371 0.0000 ( 14316 PWs)   bands (ev):

  -113.0047-113.0028-112.8980-112.8508-112.8488-112.8280-112.6219-112.6011
  -112.5988-112.5922-112.4618-112.4523 -70.4858 -70.4735 -70.3654 -70.3626
   -70.3259 -70.3120 -70.3013 -70.2958 -70.2915 -70.2755 -70.2549 -70.2422
   -70.2410 -70.2389 -70.2308 -70.2230 -70.2206 -70.2144 -70.0615 -70.0533
   -70.0409 -70.0231 -70.0159 -70.0086 -70.0050 -69.9914 -69.9751 -69.9541
   -69.9521 -69.9410 -69.9031 -69.8795 -69.8709 -69.8591 -69.8317 -69.8201
   -12.9904  -7.6585  -5.7980  -5.6817  -4.7494  -4.6533  -4.6370  -4.6130
    -4.4278  -4.3869  -4.2309  -4.1249  -4.1058  -4.0197  -3.9164  -3.8796
    -3.7034  -3.6703  -3.5968  -3.5720  -3.4677  -3.3869  -3.3699  -3.3427
    -3.2671  -3.2375  -3.1637  -3.1454  -3.0990  -3.0457  -3.0161  -2.9378
    -2.9205  -2.8954  -2.8924  -2.8591  -2.8242  -2.7211  -2.6624  -2.6353
    -2.6222  -2.6047  -2.5585  -2.5373  -2.4534  -2.4271  -2.4171  -2.3917
    -2.3394  -2.2580  -2.2092  -2.1912  -2.1761  -2.1406  -2.1002  -2.0875
    -2.0542  -2.0146  -1.9982  -1.9328  -1.9142  -1.8912  -1.8464  -1.8110
    -1.6672  -1.0508  -0.7797  -0.4415  -0.2398  -0.0733   0.3132   1.0958
     1.3379   2.0401   2.4056   3.5176   3.7988   4.5864

          k = 0.0643-0.0000 0.0000 ( 14335 PWs)   bands (ev):

  -113.0047-113.0028-112.8980-112.8508-112.8488-112.8279-112.6220-112.6011
  -112.5989-112.5921-112.4618-112.4523 -70.4859 -70.4735 -70.3658 -70.3626
   -70.3261 -70.3121 -70.3017 -70.2978 -70.2920 -70.2770 -70.2544 -70.2422
   -70.2396 -70.2387 -70.2318 -70.2206 -70.2188 -70.2150 -70.0627 -70.0564
   -70.0430 -70.0215 -70.0133 -70.0110 -70.0008 -69.9909 -69.9751 -69.9541
   -69.9522 -69.9410 -69.9029 -69.8795 -69.8707 -69.8589 -69.8317 -69.8201
   -12.9946  -7.8572  -5.9442  -5.1903  -5.1535  -4.7559  -4.6379  -4.5858
    -4.4795  -4.3939  -4.2438  -4.1762  -4.1541  -4.0660  -3.9729  -3.9504
    -3.7126  -3.6530  -3.6005  -3.5899  -3.4300  -3.3378  -3.3101  -3.3028
    -3.2378  -3.2104  -3.1890  -3.1189  -3.0783  -3.0464  -2.9884  -2.9622
    -2.9543  -2.9256  -2.8664  -2.8470  -2.7848  -2.6831  -2.6345  -2.5922
    -2.5621  -2.5270  -2.4654  -2.4376  -2.4206  -2.3985  -2.3710  -2.3384
    -2.2915  -2.2422  -2.1868  -2.1473  -2.1046  -2.1015  -2.0392  -2.0310
    -1.9973  -1.9690  -1.9390  -1.9108  -1.8927  -1.8680  -1.8533  -1.4927
    -1.4771  -1.2555  -0.9570  -0.9359  -0.2127  -0.0965   0.6764   1.1854
     1.8818   2.0146   2.2072   2.8662   3.3018   4.3713

          k = 0.0643 0.0371 0.0000 ( 14316 PWs)   bands (ev):

  -113.0047-113.0028-112.8980-112.8508-112.8488-112.8280-112.6219-112.6010
  -112.5990-112.5921-112.4618-112.4523 -70.4858 -70.4735 -70.3654 -70.3626
   -70.3259 -70.3120 -70.3013 -70.2958 -70.2915 -70.2754 -70.2550 -70.2421
   -70.2410 -70.2389 -70.2309 -70.2231 -70.2206 -70.2143 -70.0616 -70.0532
   -70.0408 -70.0231 -70.0157 -70.0089 -70.0051 -69.9912 -69.9751 -69.9541
   -69.9522 -69.9410 -69.9031 -69.8795 -69.8709 -69.8591 -69.8317 -69.8201
   -12.9904  -7.6585  -5.7980  -5.6817  -4.7494  -4.6533  -4.6370  -4.6130
    -4.4279  -4.3869  -4.2309  -4.1249  -4.1058  -4.0197  -3.9164  -3.8796
    -3.7034  -3.6702  -3.5969  -3.5720  -3.4677  -3.3869  -3.3699  -3.3427
    -3.2672  -3.2376  -3.1637  -3.1454  -3.0990  -3.0456  -3.0161  -2.9378
    -2.9205  -2.8954  -2.8924  -2.8590  -2.8242  -2.7210  -2.6624  -2.6353
    -2.6223  -2.6047  -2.5585  -2.5373  -2.4534  -2.4272  -2.4171  -2.3917
    -2.3394  -2.2580  -2.2092  -2.1912  -2.1761  -2.1406  -2.1003  -2.0875
    -2.0542  -2.0146  -1.9982  -1.9328  -1.9142  -1.8912  -1.8465  -1.8109
    -1.6672  -1.0508  -0.7797  -0.4415  -0.2398  -0.0733   0.3132   1.0958
     1.3379   2.0401   2.4056   3.5176   3.7988   4.5864

          k = 0.0643-0.1485 0.0000 ( 14299 PWs)   bands (ev):

  -113.0047-113.0028-112.8980-112.8507-112.8489-112.8280-112.6218-112.6008
  -112.5991-112.5923-112.4618-112.4523 -70.4857 -70.4735 -70.3647 -70.3625
   -70.3255 -70.3117 -70.2988 -70.2941 -70.2899 -70.2709 -70.2573 -70.2439
   -70.2420 -70.2393 -70.2306 -70.2264 -70.2207 -70.2168 -70.0571 -70.0471
   -70.0364 -70.0292 -70.0165 -70.0112 -70.0081 -69.9942 -69.9750 -69.9540
   -69.9522 -69.9411 -69.9034 -69.8794 -69.8714 -69.8595 -69.8317 -69.8201
   -12.9821  -7.0802  -6.0718  -5.3459  -5.2306  -4.7834  -4.4701  -4.3540
    -4.2491  -4.1888  -4.1058  -4.0151  -3.9854  -3.9173  -3.8333  -3.7888
    -3.7148  -3.6632  -3.6512  -3.5998  -3.5602  -3.5045  -3.4258  -3.4122
    -3.3400  -3.3127  -3.2152  -3.1934  -3.1164  -3.1050  -3.0642  -3.0359
    -2.9978  -2.9821  -2.9531  -2.9141  -2.8631  -2.8266  -2.8110  -2.7660
    -2.7518  -2.6972  -2.6749  -2.5569  -2.5229  -2.4755  -2.4310  -2.3922
    -2.3724  -2.3380  -2.3291  -2.2762  -2.2275  -2.1863  -2.1467  -2.0722
    -2.0539  -1.9966  -1.9913  -1.9652  -1.9381  -1.9260  -1.8859  -1.8673
    -1.6924  -1.4162  -1.0065  -0.9038  -0.2912   0.2068   0.7190   1.3869
     1.6569   2.4820   2.7409   3.3820   3.9516   4.4521

          k = 0.0643-0.1114 0.0000 ( 14310 PWs)   bands (ev):

  -113.0047-113.0028-112.8979-112.8507-112.8489-112.8281-112.6218-112.6008
  -112.5991-112.5924-112.4618-112.4523 -70.4856 -70.4735 -70.3643 -70.3624
   -70.3253 -70.3115 -70.2958 -70.2946 -70.2898 -70.2669 -70.2587 -70.2471
   -70.2419 -70.2397 -70.2310 -70.2235 -70.2211 -70.2205 -70.0507 -70.0489
   -70.0303 -70.0291 -70.0274 -70.0090 -70.0072 -69.9975 -69.9749 -69.9540
   -69.9522 -69.9411 -69.9036 -69.8794 -69.8716 -69.8596 -69.8317 -69.8201
   -12.9780  -6.2290  -6.1999  -6.1697  -4.8337  -4.8076  -4.7291  -4.0753
    -4.0451  -4.0229  -3.9808  -3.9657  -3.9491  -3.8846  -3.8484  -3.7885
    -3.7709  -3.7498  -3.7414  -3.6822  -3.5292  -3.5163  -3.4476  -3.4012
    -3.3498  -3.3158  -3.2942  -3.2676  -3.2458  -3.2254  -3.2211  -3.1239
    -3.0734  -3.0557  -2.9777  -2.9430  -2.8966  -2.8549  -2.8402  -2.8272
    -2.7829  -2.7349  -2.5941  -2.5706  -2.5013  -2.4631  -2.4290  -2.3774
    -2.3627  -2.3174  -2.3051  -2.2582  -2.2017  -2.1007  -2.0631  -2.0410
    -2.0273  -2.0086  -2.0039  -1.9714  -1.9663  -1.9600  -1.9275  -1.9201
    -1.7256  -1.6851  -1.5920  -0.7525  -0.3830  -0.0367   1.2262   1.3674
     1.9900   3.3832   3.4310   3.6960   3.9494   4.0318

          k = 0.0643-0.0742 0.0000 ( 14299 PWs)   bands (ev):

  -113.0047-113.0028-112.8980-112.8508-112.8488-112.8281-112.6218-112.6010
  -112.5989-112.5923-112.4618-112.4523 -70.4857 -70.4735 -70.3647 -70.3625
   -70.3255 -70.3117 -70.2987 -70.2942 -70.2899 -70.2710 -70.2572 -70.2439
   -70.2420 -70.2393 -70.2305 -70.2264 -70.2207 -70.2169 -70.0570 -70.0471
   -70.0367 -70.0294 -70.0163 -70.0111 -70.0079 -69.9944 -69.9750 -69.9541
   -69.9522 -69.9411 -69.9034 -69.8794 -69.8714 -69.8595 -69.8317 -69.8201
   -12.9821  -7.0802  -6.0718  -5.3459  -5.2306  -4.7834  -4.4701  -4.3540
    -4.2491  -4.1888  -4.1058  -4.0151  -3.9854  -3.9173  -3.8333  -3.7888
    -3.7148  -3.6632  -3.6512  -3.5998  -3.5602  -3.5045  -3.4258  -3.4122
    -3.3400  -3.3128  -3.2152  -3.1934  -3.1165  -3.1050  -3.0642  -3.0358
    -2.9978  -2.9821  -2.9531  -2.9141  -2.8631  -2.8266  -2.8110  -2.7660
    -2.7518  -2.6971  -2.6749  -2.5569  -2.5229  -2.4755  -2.4310  -2.3922
    -2.3724  -2.3380  -2.3290  -2.2762  -2.2275  -2.1863  -2.1467  -2.0722
    -2.0539  -1.9966  -1.9913  -1.9652  -1.9381  -1.9261  -1.8859  -1.8674
    -1.6924  -1.4162  -1.0065  -0.9038  -0.2912   0.2068   0.7190   1.3869
     1.6569   2.4820   2.7409   3.3820   3.9516   4.4521

          k =-0.0964 0.0557 0.0000 ( 14294 PWs)   bands (ev):

  -113.0039-113.0036-112.8980-112.8501-112.8495-112.8280-112.6218-112.6006
  -112.5994-112.5922-112.4617-112.4524 -70.4795 -70.4793 -70.3639 -70.3637
   -70.3196 -70.3178 -70.3001 -70.2935 -70.2897 -70.2703 -70.2569 -70.2437
   -70.2409 -70.2403 -70.2322 -70.2274 -70.2206 -70.2152 -70.0588 -70.0427
   -70.0408 -70.0228 -70.0173 -70.0171 -70.0077 -69.9927 -69.9750 -69.9536
   -69.9527 -69.9411 -69.8933 -69.8894 -69.8711 -69.8593 -69.8316 -69.8202
   -12.9808  -6.7590  -6.6993  -5.1981  -5.0613  -4.5616  -4.5154  -4.3132
    -4.2765  -4.2673  -4.2467  -3.9835  -3.9523  -3.8782  -3.8588  -3.8041
    -3.7160  -3.6527  -3.5987  -3.5693  -3.5341  -3.5281  -3.4917  -3.4262
    -3.3676  -3.3528  -3.2023  -3.1291  -3.0911  -3.0392  -3.0224  -2.9955
    -2.9847  -2.9219  -2.9099  -2.8801  -2.8627  -2.8534  -2.8372  -2.8262
    -2.8102  -2.7268  -2.6212  -2.6083  -2.5506  -2.5277  -2.4320  -2.4050
    -2.3805  -2.3496  -2.3282  -2.3032  -2.2882  -2.2490  -2.2158  -2.2060
    -2.1278  -2.1117  -1.9629  -1.9324  -1.9140  -1.9089  -1.8846  -1.8142
    -1.8049  -1.0342  -0.7448  -0.4779  -0.1601  -0.1258   0.6034   0.9777
     1.3581   1.7812   3.1087   3.5207   3.9192   4.6721

          k =-0.0964 0.0928 0.0000 ( 14299 PWs)   bands (ev):

  -113.0039-113.0036-112.8980-112.8500-112.8496-112.8280-112.6218-112.6004
  -112.5995-112.5922-112.4617-112.4524 -70.4796 -70.4793 -70.3641 -70.3635
   -70.3196 -70.3178 -70.2988 -70.2942 -70.2909 -70.2684 -70.2591 -70.2423
   -70.2408 -70.2404 -70.2348 -70.2232 -70.2206 -70.2172 -70.0574 -70.0472
   -70.0362 -70.0267 -70.0196 -70.0115 -70.0074 -69.9939 -69.9750 -69.9535
   -69.9528 -69.9411 -69.8933 -69.8894 -69.8711 -69.8593 -69.8316 -69.8202
   -12.9808  -7.0844  -6.0694  -5.3465  -5.2357  -4.7922  -4.4802  -4.3328
    -4.2271  -4.1849  -4.1319  -3.9967  -3.9794  -3.9194  -3.8436  -3.7752
    -3.7024  -3.6763  -3.6395  -3.5961  -3.5566  -3.5294  -3.4572  -3.4214
    -3.3639  -3.3145  -3.2200  -3.2031  -3.1226  -3.0723  -3.0546  -3.0375
    -3.0008  -2.9873  -2.9376  -2.8990  -2.8715  -2.8264  -2.8031  -2.7543
    -2.7264  -2.7119  -2.6743  -2.5418  -2.5299  -2.4610  -2.4483  -2.4034
    -2.3900  -2.3477  -2.3073  -2.2655  -2.2316  -2.1979  -2.1252  -2.0918
    -2.0564  -1.9983  -1.9836  -1.9601  -1.9327  -1.9119  -1.8862  -1.8700
    -1.6972  -1.4032  -1.0726  -0.8716  -0.3017   0.0995   0.9152   1.2628
     1.6540   2.5666   2.9108   3.2586   3.8257   4.4714

          k =-0.0964 0.1299 0.0000 ( 14299 PWs)   bands (ev):

  -113.0039-113.0036-112.8980-112.8499-112.8497-112.8280-112.6218-112.6002
  -112.5998-112.5922-112.4617-112.4524 -70.4796 -70.4793 -70.3641 -70.3635
   -70.3196 -70.3178 -70.2989 -70.2941 -70.2909 -70.2682 -70.2593 -70.2420
   -70.2409 -70.2403 -70.2350 -70.2233 -70.2206 -70.2171 -70.0575 -70.0471
   -70.0360 -70.0269 -70.0193 -70.0117 -70.0075 -69.9937 -69.9750 -69.9533
   -69.9529 -69.9411 -69.8933 -69.8894 -69.8711 -69.8593 -69.8316 -69.8202
   -12.9808  -7.0844  -6.0694  -5.3465  -5.2357  -4.7922  -4.4802  -4.3328
    -4.2271  -4.1849  -4.1319  -3.9968  -3.9794  -3.9194  -3.8436  -3.7752
    -3.7024  -3.6763  -3.6396  -3.5960  -3.5566  -3.5294  -3.4572  -3.4214
    -3.3639  -3.3146  -3.2200  -3.2031  -3.1226  -3.0723  -3.0546  -3.0375
    -3.0008  -2.9872  -2.9376  -2.8991  -2.8715  -2.8264  -2.8030  -2.7543
    -2.7264  -2.7119  -2.6743  -2.5418  -2.5299  -2.4610  -2.4483  -2.4034
    -2.3900  -2.3477  -2.3073  -2.2655  -2.2316  -2.1979  -2.1252  -2.0918
    -2.0564  -1.9983  -1.9836  -1.9601  -1.9327  -1.9119  -1.8862  -1.8699
    -1.6973  -1.4032  -1.0726  -0.8716  -0.3017   0.0995   0.9152   1.2628
     1.6540   2.5665   2.9109   3.2586   3.8257   4.4714

          k =-0.0964-0.0557 0.0000 ( 14294 PWs)   bands (ev):

  -113.0039-113.0036-112.8980-112.8499-112.8497-112.8280-112.6218-112.6000
  -112.6000-112.5922-112.4617-112.4524 -70.4796 -70.4793 -70.3640 -70.3636
   -70.3196 -70.3178 -70.3002 -70.2935 -70.2897 -70.2701 -70.2572 -70.2434
   -70.2406 -70.2406 -70.2325 -70.2274 -70.2206 -70.2151 -70.0589 -70.0427
   -70.0405 -70.0223 -70.0179 -70.0170 -70.0081 -69.9925 -69.9750 -69.9532
   -69.9530 -69.9410 -69.8933 -69.8894 -69.8711 -69.8593 -69.8316 -69.8202
   -12.9808  -6.7590  -6.6993  -5.1980  -5.0613  -4.5616  -4.5154  -4.3132
    -4.2765  -4.2674  -4.2467  -3.9835  -3.9522  -3.8783  -3.8588  -3.8041
    -3.7159  -3.6527  -3.5987  -3.5693  -3.5340  -3.5282  -3.4917  -3.4262
    -3.3676  -3.3528  -3.2023  -3.1291  -3.0911  -3.0393  -3.0222  -2.9955
    -2.9847  -2.9218  -2.9099  -2.8801  -2.8627  -2.8534  -2.8372  -2.8262
    -2.8101  -2.7269  -2.6213  -2.6082  -2.5506  -2.5277  -2.4320  -2.4050
    -2.3805  -2.3497  -2.3281  -2.3033  -2.2881  -2.2490  -2.2157  -2.2060
    -2.1279  -2.1116  -1.9628  -1.9324  -1.9140  -1.9089  -1.8847  -1.8143
    -1.8048  -1.0342  -0.7448  -0.4779  -0.1601  -0.1258   0.6034   0.9776
     1.3581   1.7812   3.1087   3.5207   3.9192   4.6721

     the Fermi energy is    -0.2521 ev

!    total energy              =   -4879.35481580 Ry
     Harris-Foulkes estimate   =   -4879.35480752 Ry
     estimated scf accuracy    <       0.00000980 Ry

     The total energy is the sum of the following terms:

     one-electron contribution =  -37736.22550599 Ry
     hartree contribution      =   18879.31613703 Ry
     xc contribution           =    -485.25817387 Ry
     ewald contribution        =   14462.84390618 Ry
     electric field correction =       0.00064619 Ry
     smearing contrib. (-TS)   =      -0.03182534 Ry

     convergence has been achieved in  25 iterations
 
 BEEF-vdW xc energy contributions
           1 :   -429.934199003820     
           2 :    389.672462617640     
           3 :   -321.507998033312     
           4 :    244.227551244409     
           5 :   -174.890668286339     
           6 :    122.728413955276     
           7 :   -87.7256431259364     
           8 :    63.8017510947323     
           9 :   -44.1100551048411     
          10 :    25.1887841845412     
          11 :   -7.89684060637336     
          12 :   -4.70466300695523     
          13 :    10.5395297414461     
          14 :   -10.4611082037821     
          15 :    7.82026391790839     
          16 :   -6.27978452348748     
          17 :    7.58554372720005     
          18 :   -10.8191137178116     
          19 :    13.4830210639328     
          20 :   -13.5064995425827     
          21 :    10.7275368756450     
          22 :   -6.89776541990574     
          23 :    4.34263793935554     
          24 :   -4.31795258417924     
          25 :    6.22549380313257     
          26 :   -8.16980464107519     
          27 :    8.37520600233643     
          28 :   -6.42645946292566     
          29 :    3.48228139975231     
          30 :   -1.37163814066781     
          31 :   -34.3909022191128     
          32 :   -23.4884121687811     

     Forces acting on atoms (Ry/au):


     negative rho (up, down):  1.190E-03 0.000E+00
     atom    1 type  1   force =    -0.00001803    0.00056896    0.00712819
     atom    2 type  1   force =     0.00001585   -0.00039084    0.00456950
     atom    3 type  1   force =    -0.00100959   -0.00018399    0.00551249
     atom    4 type  1   force =     0.00103848   -0.00018715    0.00484732
     atom    5 type  1   force =    -0.00163061   -0.00031427   -0.00198904
     atom    6 type  1   force =     0.00162052   -0.00025242   -0.00203143
     atom    7 type  1   force =     0.00003448    0.00250545    0.00237386
     atom    8 type  1   force =    -0.00003313   -0.00148862   -0.00772634
     atom    9 type  1   force =     0.01446742   -0.00177905    0.04460684
     atom   10 type  1   force =    -0.01447770   -0.00178597    0.04463264
     atom   11 type  1   force =    -0.00000797   -0.00895736    0.00968349
     atom   12 type  1   force =     0.00000346    0.00928349    0.00917053
     atom   13 type  2   force =    -0.00000317    0.00298177   -0.12077806

     Total force =     0.139096     Total SCF correction =     0.007102


     entering subroutine stress ...


     negative rho (up, down):  1.190E-03 0.000E+00
          total   stress  (Ry/bohr**3)                   (kbar)     P=  -18.59
  -0.00011501  -0.00000000   0.00000001        -16.92     -0.00      0.00
  -0.00000000  -0.00012616   0.00000239         -0.00    -18.56      0.35
   0.00000001   0.00000239  -0.00013804          0.00      0.35    -20.31


     BFGS Geometry Optimization

     number of scf cycles    =   1
     number of bfgs steps    =   0

     energy   new            =   -4879.3548157969 Ry

     new trust radius        =       0.1208148623 bohr
     new conv_thr            =       0.0000099958 Ry


ATOMIC_POSITIONS (crystal)
Cu1      0.166666667   0.166666667   0.412653782    0   0   0
Cu1      0.666666667   0.166666667   0.412653782    0   0   0
Cu1      0.166666667   0.666666667   0.412653782    0   0   0
Cu1      0.666666667   0.666666667   0.412653782    0   0   0
Cu1      0.833333333   0.333333333   0.500000000    0   0   0
Cu1      0.333333333   0.333333333   0.500000000    0   0   0
Cu1      0.833333333   0.833333333   0.500000000    0   0   0
Cu1      0.333333333   0.833333333   0.500000000    0   0   0
Cu1      0.001581416  -0.000209664   0.588320284
Cu1      0.498627606  -0.000210480   0.588320848
Cu1      0.000527007   0.498944358   0.587557674
Cu1      0.499453314   0.501094077   0.587546472
N1       0.249823973   0.000351407   0.647535362



     Writing output data file calc.save
     Check: negative starting charge=   -0.000124
     NEW-OLD atomic charge density approx. for the potential
     Check: negative starting charge=   -0.000126

     negative rho (up, down):  1.175E-03 0.000E+00
 
     Adding external electric field

     Computed dipole along edir(3) : 
        Dipole               -0.3344 Ry au,         -0.8499 Debye
        Dipole field         -0.0011 Ry au
 
        Potential amp.        0.0986 Ry
        Total length         44.6496 bohr
 

     total cpu time spent up to now is      575.9 secs

     per-process dynamical memory:    90.7 Mb

     Self-consistent Calculation

     iteration #  1     ecut=    36.75 Ry     beta=0.30
     Davidson diagonalization with overlap
     ethr =  1.00E-06,  avg # of iterations =  4.2

     negative rho (up, down):  1.135E-03 0.000E+00
 
     Adding external electric field

     Computed dipole along edir(3) : 
        Dipole               -1.6407 Ry au,         -4.1702 Debye
        Dipole field         -0.0054 Ry au
 
        Potential amp.        0.4836 Ry
        Total length         44.6496 bohr
 

     total cpu time spent up to now is      602.6 secs

     total energy              =   -4879.22149432 Ry
     Harris-Foulkes estimate   =   -4879.37501172 Ry
     estimated scf accuracy    <       0.32581238 Ry

     iteration #  2     ecut=    36.75 Ry     beta=0.30
     Davidson diagonalization with overlap
     ethr =  1.40E-04,  avg # of iterations =  6.0

     negative rho (up, down):  1.148E-03 0.000E+00
 
     Adding external electric field

     Computed dipole along edir(3) : 
        Dipole               -0.3504 Ry au,         -0.8907 Debye
        Dipole field         -0.0012 Ry au
 
        Potential amp.        0.1033 Ry
        Total length         44.6496 bohr
 

     total cpu time spent up to now is      622.2 secs

     total energy              =   -4878.66689573 Ry
     Harris-Foulkes estimate   =   -4880.24656169 Ry
     estimated scf accuracy    <      29.18184729 Ry

     iteration #  3     ecut=    36.75 Ry     beta=0.30
     Davidson diagonalization with overlap
     ethr =  1.40E-04,  avg # of iterations =  4.0

     negative rho (up, down):  1.145E-03 0.000E+00
 
     Adding external electric field

     Computed dipole along edir(3) : 
        Dipole               -0.4102 Ry au,         -1.0426 Debye
        Dipole field         -0.0014 Ry au
 
        Potential amp.        0.1209 Ry
        Total length         44.6496 bohr
 

     total cpu time spent up to now is      641.1 secs

     total energy              =   -4879.36106790 Ry
     Harris-Foulkes estimate   =   -4879.38404604 Ry
     estimated scf accuracy    <       0.14972742 Ry

     iteration #  4     ecut=    36.75 Ry     beta=0.30
     Davidson diagonalization with overlap
     ethr =  6.43E-05,  avg # of iterations =  3.5

     negative rho (up, down):  1.153E-03 0.000E+00
 
     Adding external electric field

     Computed dipole along edir(3) : 
        Dipole               -0.4139 Ry au,         -1.0519 Debye
        Dipole field         -0.0014 Ry au
 
        Potential amp.        0.1220 Ry
        Total length         44.6496 bohr
 

     total cpu time spent up to now is      657.8 secs

     total energy              =   -4879.37133090 Ry
     Harris-Foulkes estimate   =   -4879.37176239 Ry
     estimated scf accuracy    <       0.00189323 Ry

     iteration #  5     ecut=    36.75 Ry     beta=0.30
     Davidson diagonalization with overlap
     ethr =  8.13E-07,  avg # of iterations =  5.0

     negative rho (up, down):  1.159E-03 0.000E+00
 
     Adding external electric field

     Computed dipole along edir(3) : 
        Dipole               -0.4188 Ry au,         -1.0644 Debye
        Dipole field         -0.0014 Ry au
 
        Potential amp.        0.1234 Ry
        Total length         44.6496 bohr
 

     total cpu time spent up to now is      678.9 secs

     total energy              =   -4879.37167404 Ry
     Harris-Foulkes estimate   =   -4879.37181996 Ry
     estimated scf accuracy    <       0.00055065 Ry

     iteration #  6     ecut=    36.75 Ry     beta=0.30
     Davidson diagonalization with overlap
     ethr =  2.36E-07,  avg # of iterations =  2.2

     negative rho (up, down):  1.168E-03 0.000E+00
 
     Adding external electric field

     Computed dipole along edir(3) : 
        Dipole               -0.4169 Ry au,         -1.0597 Debye
        Dipole field         -0.0014 Ry au
 
        Potential amp.        0.1229 Ry
        Total length         44.6496 bohr
 

     total cpu time spent up to now is      694.7 secs

     total energy              =   -4879.37167434 Ry
     Harris-Foulkes estimate   =   -4879.37173885 Ry
     estimated scf accuracy    <       0.00018437 Ry

     iteration #  7     ecut=    36.75 Ry     beta=0.30
     Davidson diagonalization with overlap
     ethr =  7.91E-08,  avg # of iterations =  2.5

     negative rho (up, down):  1.180E-03 0.000E+00
 
     Adding external electric field

     Computed dipole along edir(3) : 
        Dipole               -0.4159 Ry au,         -1.0572 Debye
        Dipole field         -0.0014 Ry au
 
        Potential amp.        0.1226 Ry
        Total length         44.6496 bohr
 

     total cpu time spent up to now is      711.8 secs

     total energy              =   -4879.37169822 Ry
     Harris-Foulkes estimate   =   -4879.37171392 Ry
     estimated scf accuracy    <       0.00006754 Ry

     iteration #  8     ecut=    36.75 Ry     beta=0.30
     Davidson diagonalization with overlap
     ethr =  2.90E-08,  avg # of iterations =  2.1

     negative rho (up, down):  1.189E-03 0.000E+00
 
     Adding external electric field

     Computed dipole along edir(3) : 
        Dipole               -0.4156 Ry au,         -1.0564 Debye
        Dipole field         -0.0014 Ry au
 
        Potential amp.        0.1225 Ry
        Total length         44.6496 bohr
 

     total cpu time spent up to now is      727.3 secs

     total energy              =   -4879.37170346 Ry
     Harris-Foulkes estimate   =   -4879.37170559 Ry
     estimated scf accuracy    <       0.00001260 Ry

     iteration #  9     ecut=    36.75 Ry     beta=0.30
     Davidson diagonalization with overlap
     ethr =  5.41E-09,  avg # of iterations =  2.1

     negative rho (up, down):  1.213E-03 0.000E+00

     negative rho (up, down):  1.213E-03 0.000E+00

     negative rho (up, down):  1.213E-03 0.000E+00

     negative rho (up, down):  1.213E-03 0.000E+00

     negative rho (up, down):  1.213E-03 0.000E+00

     negative rho (up, down):  1.213E-03 0.000E+00

     negative rho (up, down):  1.213E-03 0.000E+00

     negative rho (up, down):  1.213E-03 0.000E+00

     negative rho (up, down):  1.213E-03 0.000E+00

     negative rho (up, down):  1.213E-03 0.000E+00

     negative rho (up, down):  1.213E-03 0.000E+00

     negative rho (up, down):  1.213E-03 0.000E+00

     negative rho (up, down):  1.213E-03 0.000E+00

     negative rho (up, down):  1.213E-03 0.000E+00

     negative rho (up, down):  1.213E-03 0.000E+00

     negative rho (up, down):  1.213E-03 0.000E+00

     negative rho (up, down):  1.213E-03 0.000E+00

     negative rho (up, down):  1.213E-03 0.000E+00

     negative rho (up, down):  1.213E-03 0.000E+00

     negative rho (up, down):  1.213E-03 0.000E+00

     negative rho (up, down):  1.213E-03 0.000E+00

     negative rho (up, down):  1.213E-03 0.000E+00

     negative rho (up, down):  1.213E-03 0.000E+00

     negative rho (up, down):  1.213E-03 0.000E+00

     negative rho (up, down):  1.213E-03 0.000E+00

     negative rho (up, down):  1.213E-03 0.000E+00

     negative rho (up, down):  1.213E-03 0.000E+00

     negative rho (up, down):  1.213E-03 0.000E+00

     negative rho (up, down):  1.213E-03 0.000E+00

     negative rho (up, down):  1.213E-03 0.000E+00

     negative rho (up, down):  1.213E-03 0.000E+00

     negative rho (up, down):  1.213E-03 0.000E+00

     negative rho (up, down):  1.213E-03 0.000E+00

     negative rho (up, down):  1.213E-03 0.000E+00

     negative rho (up, down):  1.213E-03 0.000E+00
 
     Adding external electric field

     Computed dipole along edir(3) : 
        Dipole               -0.4168 Ry au,         -1.0594 Debye
        Dipole field         -0.0014 Ry au
 
        Potential amp.        0.1228 Ry
        Total length         44.6496 bohr
 

     total cpu time spent up to now is      776.5 secs

     End of self-consistent calculation

          k = 0.0000 0.0000 0.0000 ( 14321 PWs)   bands (ev):

  -113.0598-113.0560-112.8412-112.7965-112.7926-112.7729-112.5775-112.5543
  -112.5503-112.5446-112.4228-112.4129 -70.5718 -70.5457 -70.4074 -70.4020
   -70.3680 -70.3406 -70.2504 -70.2498 -70.2358 -70.2329 -70.1944 -70.1882
   -70.1855 -70.1830 -70.1681 -70.1665 -70.1579 -70.1576 -70.0221 -70.0207
   -70.0042 -69.9670 -69.9667 -69.9602 -69.9422 -69.9402 -69.9319 -69.9074
   -69.9037 -69.8937 -69.8748 -69.8321 -69.8280 -69.8202 -69.7927 -69.7810
   -13.2850  -8.4045  -6.4138  -5.1346  -4.8111  -4.7778  -4.7548  -4.7081
    -4.6256  -4.5960  -4.3934  -4.3317  -4.2364  -4.2063  -4.1889  -4.1884
    -3.7919  -3.7192  -3.6948  -3.5404  -3.3642  -3.2669  -3.2251  -3.2042
    -3.1144  -3.1113  -3.0723  -3.0398  -3.0058  -2.9575  -2.9356  -2.9181
    -2.8671  -2.8622  -2.7339  -2.6673  -2.6510  -2.5164  -2.4952  -2.4629
    -2.3463  -2.3347  -2.2659  -2.2415  -2.1543  -2.1016  -2.0640  -1.9737
    -1.9578  -1.9385  -1.9030  -1.8853  -1.8825  -1.8675  -1.8596  -1.8247
    -1.8196  -1.8118  -1.6999  -1.6278  -1.6270  -1.6168  -1.6084  -1.3762
    -1.1332  -0.9316  -0.4877  -0.0371   0.1607   0.2212   0.5861   0.9912
     1.1920   1.2403   1.3945   2.0581   2.9187   3.8414

          k = 0.0000 0.0371 0.0000 ( 14383 PWs)   bands (ev):

  -113.0598-113.0560-112.8412-112.7964-112.7926-112.7730-112.5774-112.5543
  -112.5503-112.5448-112.4228-112.4129 -70.5717 -70.5457 -70.4069 -70.4018
   -70.3679 -70.3405 -70.2483 -70.2472 -70.2356 -70.2303 -70.1944 -70.1884
   -70.1875 -70.1830 -70.1685 -70.1666 -70.1614 -70.1591 -70.0186 -70.0183
   -70.0012 -69.9698 -69.9673 -69.9606 -69.9444 -69.9433 -69.9319 -69.9074
   -69.9037 -69.8938 -69.8751 -69.8326 -69.8281 -69.8205 -69.7927 -69.7810
   -13.2767  -8.1968  -6.2353  -5.0001  -4.9354  -4.7472  -4.7262  -4.6522
    -4.5991  -4.5324  -4.3426  -4.2812  -4.1994  -4.1521  -4.1075  -4.0743
    -3.7852  -3.7066  -3.6662  -3.5272  -3.3802  -3.2536  -3.2232  -3.1957
    -3.1781  -3.1342  -3.0643  -3.0273  -3.0198  -2.9752  -2.9655  -2.8986
    -2.8939  -2.8322  -2.8040  -2.7622  -2.6915  -2.6358  -2.5435  -2.5312
    -2.3819  -2.3784  -2.3444  -2.2908  -2.2236  -2.1853  -2.1015  -2.0716
    -2.0633  -2.0251  -2.0112  -1.9901  -1.9763  -1.9703  -1.9135  -1.9077
    -1.8937  -1.8405  -1.7932  -1.7702  -1.7626  -1.7135  -1.7037  -1.5527
    -1.1482  -0.8682  -0.6526  -0.6356  -0.1552   0.1173   0.5785   0.9547
     1.0723   1.7431   2.2185   2.4979   3.4513   4.0465

          k = 0.0000 0.0742 0.0000 ( 14316 PWs)   bands (ev):

  -113.0598-113.0560-112.8411-112.7964-112.7926-112.7731-112.5773-112.5541
  -112.5503-112.5451-112.4228-112.4129 -70.5715 -70.5456 -70.4059 -70.4013
   -70.3676 -70.3404 -70.2448 -70.2401 -70.2345 -70.2247 -70.1946 -70.1923
   -70.1879 -70.1830 -70.1709 -70.1691 -70.1667 -70.1618 -70.0139 -70.0085
   -69.9942 -69.9762 -69.9705 -69.9596 -69.9552 -69.9459 -69.9317 -69.9073
   -69.9037 -69.8940 -69.8756 -69.8334 -69.8282 -69.8212 -69.7927 -69.7810
   -13.2601  -7.5903  -5.7448  -5.6043  -4.7011  -4.6508  -4.5940  -4.5929
    -4.4155  -4.3792  -4.2433  -4.1463  -4.0816  -4.0064  -3.9153  -3.8464
    -3.7188  -3.6743  -3.5929  -3.5160  -3.4991  -3.4091  -3.2986  -3.2723
    -3.1964  -3.1900  -3.1679  -3.1056  -3.0635  -3.0191  -2.9621  -2.9222
    -2.9140  -2.8590  -2.8397  -2.8324  -2.7699  -2.7470  -2.7131  -2.6410
    -2.5728  -2.5603  -2.5309  -2.5122  -2.4790  -2.3789  -2.3741  -2.3682
    -2.3349  -2.2187  -2.1670  -2.1504  -2.1399  -2.0963  -2.0687  -2.0142
    -2.0109  -1.9858  -1.9640  -1.8989  -1.8299  -1.8057  -1.8004  -1.7361
    -1.6156  -0.8743  -0.8153  -0.4456  -0.1784   0.0226   0.3011   1.2523
     1.2739   1.9934   2.4946   3.5165   3.9058   4.6423

          k = 0.0000-0.1114 0.0000 ( 14294 PWs)   bands (ev):

  -113.0598-113.0560-112.8411-112.7964-112.7926-112.7732-112.5772-112.5540
  -112.5503-112.5453-112.4228-112.4129 -70.5714 -70.5456 -70.4054 -70.4011
   -70.3675 -70.3404 -70.2430 -70.2375 -70.2317 -70.2223 -70.1949 -70.1938
   -70.1878 -70.1830 -70.1773 -70.1688 -70.1668 -70.1636 -70.0111 -69.9981
   -69.9953 -69.9762 -69.9730 -69.9645 -69.9583 -69.9476 -69.9316 -69.9072
   -69.9037 -69.8941 -69.8758 -69.8338 -69.8282 -69.8215 -69.7927 -69.7810
   -13.2518  -6.6817  -6.6289  -5.1284  -5.0443  -4.5040  -4.5017  -4.3535
    -4.2808  -4.2774  -4.2037  -4.0674  -4.0189  -3.8875  -3.8125  -3.7533
    -3.6784  -3.6505  -3.5832  -3.5467  -3.4991  -3.4923  -3.3698  -3.3515
    -3.2922  -3.2659  -3.1972  -3.1030  -3.0948  -3.0770  -3.0034  -2.9940
    -2.9701  -2.9335  -2.8746  -2.8690  -2.8443  -2.8134  -2.8019  -2.7942
    -2.7531  -2.7095  -2.6210  -2.5608  -2.5397  -2.4835  -2.4494  -2.3960
    -2.3835  -2.3638  -2.2981  -2.2364  -2.2318  -2.1988  -2.1490  -2.1323
    -2.0483  -2.0174  -1.9473  -1.9195  -1.8483  -1.8205  -1.8070  -1.8006
    -1.7295  -0.8699  -0.6594  -0.5557  -0.1616  -0.0683   0.6103   1.0432
     1.3405   1.9380   3.1786   3.2879   4.0129   4.9918

          k = 0.0321-0.0186 0.0000 ( 14383 PWs)   bands (ev):

  -113.0596-113.0562-112.8412-112.7962-112.7929-112.7729-112.5774-112.5541
  -112.5505-112.5447-112.4227-112.4130 -70.5699 -70.5472 -70.4068 -70.4022
   -70.3663 -70.3425 -70.2489 -70.2469 -70.2356 -70.2297 -70.1960 -70.1879
   -70.1856 -70.1833 -70.1703 -70.1665 -70.1612 -70.1585 -70.0199 -70.0171
   -70.0011 -69.9697 -69.9667 -69.9615 -69.9461 -69.9415 -69.9319 -69.9072
   -69.9039 -69.8938 -69.8718 -69.8323 -69.8312 -69.8204 -69.7926 -69.7810
   -13.2751  -8.1983  -6.2355  -4.9954  -4.9708  -4.7509  -4.7145  -4.6641
    -4.5687  -4.5371  -4.3375  -4.2773  -4.1986  -4.1635  -4.1084  -4.0692
    -3.8016  -3.6841  -3.6720  -3.5477  -3.3274  -3.2616  -3.2333  -3.1965
    -3.1758  -3.1530  -3.0658  -3.0424  -3.0097  -2.9844  -2.9560  -2.9151
    -2.8928  -2.8259  -2.8000  -2.7612  -2.7225  -2.5965  -2.5551  -2.4757
    -2.3850  -2.3528  -2.3425  -2.2988  -2.2237  -2.2057  -2.1521  -2.0828
    -2.0597  -2.0287  -2.0071  -1.9753  -1.9558  -1.9243  -1.9191  -1.9023
    -1.8750  -1.8729  -1.8448  -1.7931  -1.7414  -1.7132  -1.7015  -1.4130
    -1.2045  -0.9636  -0.8226  -0.4496  -0.1060   0.0472   0.4037   0.9462
     1.3880   1.6825   2.2244   2.5617   3.3225   4.0444

          k = 0.0321 0.0186 0.0000 ( 14383 PWs)   bands (ev):

  -113.0596-113.0562-112.8412-112.7962-112.7929-112.7729-112.5774-112.5541
  -112.5505-112.5447-112.4227-112.4130 -70.5699 -70.5472 -70.4068 -70.4022
   -70.3663 -70.3425 -70.2489 -70.2469 -70.2356 -70.2297 -70.1960 -70.1879
   -70.1856 -70.1833 -70.1703 -70.1665 -70.1612 -70.1584 -70.0199 -70.0171
   -70.0010 -69.9696 -69.9667 -69.9615 -69.9462 -69.9415 -69.9319 -69.9072
   -69.9040 -69.8938 -69.8718 -69.8323 -69.8312 -69.8204 -69.7926 -69.7810
   -13.2751  -8.1983  -6.2355  -4.9954  -4.9708  -4.7509  -4.7145  -4.6641
    -4.5687  -4.5371  -4.3375  -4.2773  -4.1986  -4.1635  -4.1084  -4.0692
    -3.8016  -3.6841  -3.6720  -3.5477  -3.3274  -3.2616  -3.2333  -3.1966
    -3.1758  -3.1530  -3.0658  -3.0424  -3.0097  -2.9844  -2.9560  -2.9151
    -2.8928  -2.8259  -2.8000  -2.7612  -2.7225  -2.5965  -2.5550  -2.4757
    -2.3851  -2.3528  -2.3424  -2.2988  -2.2237  -2.2058  -2.1521  -2.0828
    -2.0597  -2.0286  -2.0071  -1.9753  -1.9558  -1.9243  -1.9191  -1.9023
    -1.8750  -1.8729  -1.8448  -1.7931  -1.7414  -1.7132  -1.7015  -1.4130
    -1.2045  -0.9636  -0.8226  -0.4496  -0.1060   0.0472   0.4037   0.9462
     1.3880   1.6825   2.2244   2.5617   3.3225   4.0444

          k = 0.0321 0.0557 0.0000 ( 14335 PWs)   bands (ev):

  -113.0596-113.0562-112.8412-112.7962-112.7929-112.7730-112.5773-112.5539
  -112.5506-112.5449-112.4227-112.4130 -70.5697 -70.5472 -70.4061 -70.4018
   -70.3661 -70.3424 -70.2459 -70.2421 -70.2352 -70.2252 -70.1975 -70.1881
   -70.1876 -70.1832 -70.1709 -70.1677 -70.1665 -70.1605 -70.0155 -70.0111
   -69.9956 -69.9762 -69.9660 -69.9625 -69.9523 -69.9446 -69.9318 -69.9071
   -69.9040 -69.8939 -69.8722 -69.8329 -69.8313 -69.8209 -69.7926 -69.7810
   -13.2626  -7.7908  -5.8964  -5.1304  -5.0924  -4.7451  -4.5917  -4.5663
    -4.4607  -4.3939  -4.2406  -4.1825  -4.1149  -4.0398  -3.9748  -3.9009
    -3.7759  -3.6750  -3.6144  -3.5400  -3.4224  -3.3536  -3.2712  -3.2472
    -3.1890  -3.1684  -3.1306  -3.0841  -3.0434  -3.0230  -2.9701  -2.9312
    -2.9219  -2.8834  -2.8761  -2.7970  -2.7183  -2.6908  -2.6559  -2.6124
    -2.5219  -2.4703  -2.4424  -2.4098  -2.3948  -2.3817  -2.3398  -2.2688
    -2.2509  -2.1923  -2.1530  -2.1181  -2.1110  -2.0627  -2.0392  -1.9620
    -1.9437  -1.9062  -1.8933  -1.8745  -1.8411  -1.8215  -1.7915  -1.5173
    -1.4644  -1.1463  -0.9768  -0.8899  -0.1238   0.2591   0.5544   1.2079
     1.6618   2.1722   2.3248   2.6642   3.7909   4.4519

          k = 0.0321-0.1299 0.0000 ( 14299 PWs)   bands (ev):

  -113.0595-113.0562-112.8411-112.7961-112.7929-112.7732-112.5772-112.5538
  -112.5506-112.5452-112.4227-112.4130 -70.5696 -70.5472 -70.4053 -70.4015
   -70.3659 -70.3424 -70.2421 -70.2381 -70.2331 -70.2202 -70.1987 -70.1920
   -70.1875 -70.1834 -70.1740 -70.1708 -70.1667 -70.1639 -70.0098 -70.0023
   -69.9907 -69.9806 -69.9716 -69.9616 -69.9592 -69.9482 -69.9317 -69.9070
   -69.9040 -69.8941 -69.8726 -69.8335 -69.8313 -69.8214 -69.7926 -69.7811
   -13.2502  -7.0143  -5.9960  -5.3066  -5.1964  -4.7495  -4.4578  -4.3682
    -4.2269  -4.1797  -4.1264  -4.0325  -3.9954  -3.8955  -3.8225  -3.7600
    -3.7264  -3.6384  -3.5819  -3.5535  -3.5332  -3.4757  -3.4121  -3.3844
    -3.3220  -3.2554  -3.2006  -3.1464  -3.1100  -3.0703  -3.0352  -3.0152
    -2.9712  -2.9488  -2.9310  -2.8902  -2.8774  -2.7934  -2.7681  -2.7607
    -2.7101  -2.6587  -2.6077  -2.5597  -2.5094  -2.4677  -2.3850  -2.3781
    -2.3588  -2.2779  -2.2696  -2.2346  -2.1824  -2.1489  -2.1365  -2.0376
    -2.0036  -1.9752  -1.9312  -1.9040  -1.8748  -1.8531  -1.8422  -1.7956
    -1.6337  -1.4153  -1.0746  -0.6645  -0.3244   0.2416   0.8186   1.3735
     1.7172   2.5838   2.7630   3.3914   3.9055   4.6786

          k = 0.0321-0.0928 0.0000 ( 14299 PWs)   bands (ev):

  -113.0595-113.0562-112.8411-112.7961-112.7929-112.7732-112.5772-112.5538
  -112.5506-112.5452-112.4227-112.4130 -70.5696 -70.5472 -70.4053 -70.4015
   -70.3659 -70.3424 -70.2421 -70.2381 -70.2331 -70.2202 -70.1987 -70.1919
   -70.1875 -70.1834 -70.1740 -70.1708 -70.1667 -70.1639 -70.0098 -70.0023
   -69.9907 -69.9807 -69.9714 -69.9616 -69.9592 -69.9483 -69.9317 -69.9070
   -69.9040 -69.8941 -69.8726 -69.8335 -69.8313 -69.8214 -69.7926 -69.7811
   -13.2502  -7.0143  -5.9960  -5.3066  -5.1964  -4.7495  -4.4578  -4.3682
    -4.2269  -4.1797  -4.1264  -4.0325  -3.9954  -3.8955  -3.8225  -3.7600
    -3.7263  -3.6384  -3.5819  -3.5535  -3.5332  -3.4757  -3.4121  -3.3844
    -3.3219  -3.2554  -3.2006  -3.1464  -3.1100  -3.0703  -3.0352  -3.0152
    -2.9712  -2.9488  -2.9310  -2.8902  -2.8774  -2.7934  -2.7681  -2.7607
    -2.7101  -2.6587  -2.6077  -2.5597  -2.5094  -2.4677  -2.3850  -2.3781
    -2.3589  -2.2779  -2.2696  -2.2346  -2.1825  -2.1489  -2.1365  -2.0376
    -2.0036  -1.9752  -1.9312  -1.9040  -1.8748  -1.8531  -1.8422  -1.7956
    -1.6337  -1.4153  -1.0746  -0.6645  -0.3244   0.2416   0.8186   1.3735
     1.7172   2.5838   2.7630   3.3914   3.9055   4.6786

          k = 0.0321-0.0557 0.0000 ( 14335 PWs)   bands (ev):

  -113.0596-113.0562-112.8412-112.7962-112.7929-112.7730-112.5773-112.5540
  -112.5506-112.5449-112.4227-112.4130 -70.5697 -70.5472 -70.4061 -70.4018
   -70.3661 -70.3424 -70.2459 -70.2421 -70.2352 -70.2252 -70.1976 -70.1881
   -70.1876 -70.1832 -70.1709 -70.1677 -70.1665 -70.1605 -70.0155 -70.0112
   -69.9956 -69.9763 -69.9659 -69.9625 -69.9523 -69.9446 -69.9318 -69.9071
   -69.9039 -69.8939 -69.8722 -69.8329 -69.8313 -69.8209 -69.7926 -69.7810
   -13.2626  -7.7908  -5.8964  -5.1304  -5.0924  -4.7451  -4.5917  -4.5663
    -4.4607  -4.3939  -4.2406  -4.1825  -4.1148  -4.0398  -3.9748  -3.9009
    -3.7758  -3.6750  -3.6144  -3.5400  -3.4224  -3.3536  -3.2712  -3.2472
    -3.1890  -3.1684  -3.1306  -3.0841  -3.0434  -3.0230  -2.9701  -2.9312
    -2.9219  -2.8834  -2.8761  -2.7970  -2.7183  -2.6909  -2.6559  -2.6124
    -2.5219  -2.4703  -2.4424  -2.4098  -2.3948  -2.3816  -2.3398  -2.2688
    -2.2509  -2.1923  -2.1530  -2.1181  -2.1111  -2.0627  -2.0392  -1.9620
    -1.9437  -1.9062  -1.8933  -1.8745  -1.8411  -1.8215  -1.7915  -1.5173
    -1.4644  -1.1463  -0.9768  -0.8899  -0.1238   0.2591   0.5544   1.2079
     1.6618   2.1722   2.3248   2.6642   3.7909   4.4520

          k = 0.0643-0.0371 0.0000 ( 14316 PWs)   bands (ev):

[...]
     1.9404   2.3817   2.4501   3.2354   4.1589   4.6979

          k = 0.0643 0.0371 0.0000 ( 14316 PWs)   bands (ev):

  -112.9364-112.9314-112.9302-112.6225-112.5633-112.5602-112.5588-112.3610
  -112.3186-112.3155-112.3143-112.2267 -70.4950 -70.4640 -70.4570 -70.2704
   -70.2659 -70.2492 -70.2250 -70.2097 -70.2059 -70.0239 -70.0222 -70.0167
   -70.0046 -69.9763 -69.9661 -69.9530 -69.9493 -69.9452 -69.9448 -69.9437
   -69.9404 -69.7931 -69.7861 -69.7576 -69.7461 -69.7390 -69.7323 -69.7207
   -69.7193 -69.7086 -69.6697 -69.6666 -69.6653 -69.6520 -69.6512 -69.6034
   -14.1362  -7.4011  -5.7753  -5.4225  -4.9002  -4.8980  -4.6041  -4.4286
    -4.3413  -4.2718  -4.1353  -4.0577  -3.9777  -3.8873  -3.8331  -3.7783
    -3.6809  -3.6175  -3.4427  -3.3928  -3.3787  -3.3316  -3.2321  -3.1539
    -3.1523  -3.1049  -3.0022  -2.9359  -2.9327  -2.8943  -2.8431  -2.8065
    -2.7527  -2.7228  -2.6950  -2.6844  -2.6536  -2.5729  -2.4737  -2.4549
    -2.4442  -2.3951  -2.3570  -2.3360  -2.3281  -2.2822  -2.2086  -2.1801
    -2.1508  -2.0547  -2.0334  -1.9759  -1.9591  -1.9192  -1.9138  -1.8806
    -1.7992  -1.7587  -1.7448  -1.7311  -1.6934  -1.6463  -1.6394  -1.5845
    -1.4076  -0.7962  -0.7167  -0.2733   0.1474   0.2275   0.5331   1.5914
     1.7537   2.4117   2.7022   3.9542   4.1658   4.8930

          k = 0.0643-0.1485 0.0000 ( 14299 PWs)   bands (ev):

  -112.9360-112.9319-112.9301-112.6225-112.5627-112.5608-112.5589-112.3609
  -112.3180-112.3162-112.3143-112.2267 -70.4905 -70.4687 -70.4562 -70.2698
   -70.2640 -70.2513 -70.2231 -70.2119 -70.2062 -70.0238 -70.0195 -70.0140
   -69.9986 -69.9814 -69.9633 -69.9588 -69.9486 -69.9463 -69.9454 -69.9444
   -69.9422 -69.7896 -69.7821 -69.7555 -69.7472 -69.7388 -69.7333 -69.7263
   -69.7193 -69.7107 -69.6691 -69.6673 -69.6653 -69.6521 -69.6515 -69.6034
   -14.1226  -6.8643  -5.9405  -5.3709  -5.1036  -4.7963  -4.6319  -4.4063
    -4.2449  -4.1120  -4.0274  -3.9305  -3.8502  -3.7879  -3.7289  -3.6487
    -3.6200  -3.5637  -3.5372  -3.4236  -3.3792  -3.3515  -3.3358  -3.2830
    -3.2489  -3.1699  -3.1225  -3.0739  -3.0216  -2.9707  -2.8797  -2.8441
    -2.8027  -2.7794  -2.7362  -2.7111  -2.6781  -2.6210  -2.5791  -2.5516
    -2.5194  -2.4851  -2.4434  -2.3851  -2.3643  -2.2889  -2.2736  -2.2562
    -2.1645  -2.1233  -2.1097  -2.0913  -2.0004  -1.9765  -1.9277  -1.8998
    -1.8405  -1.8008  -1.7772  -1.7236  -1.6986  -1.6803  -1.6487  -1.6117
    -1.4066  -1.2466  -0.8921  -0.6519   0.0434   0.6023   1.1233   1.6013
     2.0389   2.9349   3.1366   3.7106   4.1915   4.9181

          k = 0.0643-0.1114 0.0000 ( 14310 PWs)   bands (ev):

  -112.9357-112.9322-112.9301-112.6225-112.5619-112.5616-112.5589-112.3609
  -112.3172-112.3171-112.3143-112.2267 -70.4874 -70.4719 -70.4559 -70.2695
   -70.2627 -70.2526 -70.2219 -70.2131 -70.2064 -70.0238 -70.0156 -70.0154
   -69.9899 -69.9896 -69.9618 -69.9606 -69.9479 -69.9473 -69.9455 -69.9453
   -69.9435 -69.7843 -69.7840 -69.7515 -69.7461 -69.7459 -69.7295 -69.7294
   -69.7193 -69.7127 -69.6683 -69.6681 -69.6653 -69.6520 -69.6518 -69.6034
   -14.1159  -6.2125  -6.0254  -5.8711  -5.0547  -4.9000  -4.5270  -4.4073
    -4.1998  -4.0984  -3.8274  -3.7930  -3.7246  -3.7119  -3.6721  -3.6543
    -3.5788  -3.5221  -3.5116  -3.5023  -3.4332  -3.4268  -3.3867  -3.3592
    -3.2878  -3.2793  -3.1074  -3.1021  -3.0999  -3.0494  -2.9814  -2.9731
    -2.9717  -2.8605  -2.7357  -2.7024  -2.6650  -2.6551  -2.6288  -2.6166
    -2.5260  -2.5121  -2.4547  -2.3759  -2.3626  -2.2377  -2.2335  -2.2276
    -2.1787  -2.1394  -2.0627  -2.0146  -2.0074  -1.9478  -1.9264  -1.9086
    -1.8231  -1.7937  -1.7572  -1.7491  -1.7380  -1.7180  -1.6937  -1.6811
    -1.5051  -1.4538  -1.1466  -0.7272  -0.0781   0.5825   1.5113   1.7021
     2.5238   3.6357   3.7326   3.8385   4.0011   4.3149

          k = 0.0643-0.0742 0.0000 ( 14299 PWs)   bands (ev):

  -112.9360-112.9319-112.9301-112.6225-112.5627-112.5608-112.5589-112.3609
  -112.3180-112.3162-112.3143-112.2267 -70.4906 -70.4687 -70.4562 -70.2698
   -70.2640 -70.2512 -70.2231 -70.2119 -70.2062 -70.0238 -70.0195 -70.0140
   -69.9986 -69.9814 -69.9633 -69.9588 -69.9486 -69.9463 -69.9454 -69.9444
   -69.9422 -69.7896 -69.7821 -69.7555 -69.7472 -69.7388 -69.7333 -69.7263
   -69.7193 -69.7107 -69.6691 -69.6673 -69.6653 -69.6521 -69.6515 -69.6034
   -14.1226  -6.8643  -5.9405  -5.3709  -5.1036  -4.7963  -4.6319  -4.4064
    -4.2449  -4.1119  -4.0274  -3.9305  -3.8502  -3.7879  -3.7289  -3.6487
    -3.6200  -3.5637  -3.5372  -3.4236  -3.3792  -3.3515  -3.3358  -3.2830
    -3.2489  -3.1699  -3.1225  -3.0739  -3.0216  -2.9707  -2.8797  -2.8441
    -2.8027  -2.7794  -2.7362  -2.7111  -2.6781  -2.6210  -2.5791  -2.5516
    -2.5194  -2.4851  -2.4434  -2.3851  -2.3643  -2.2889  -2.2736  -2.2562
    -2.1645  -2.1233  -2.1097  -2.0913  -2.0004  -1.9765  -1.9277  -1.8998
    -1.8405  -1.8008  -1.7772  -1.7236  -1.6986  -1.6803  -1.6487  -1.6117
    -1.4066  -1.2466  -0.8921  -0.6519   0.0434   0.6023   1.1232   1.6014
     2.0389   2.9349   3.1366   3.7106   4.1915   4.9181

          k =-0.0964 0.0557 0.0000 ( 14294 PWs)   bands (ev):

  -112.9361-112.9316-112.9304-112.6225-112.5626-112.5609-112.5588-112.3609
  -112.3180-112.3162-112.3143-112.2267 -70.4909 -70.4676 -70.4569 -70.2700
   -70.2636 -70.2514 -70.2232 -70.2119 -70.2061 -70.0238 -70.0206 -70.0124
   -69.9997 -69.9790 -69.9652 -69.9594 -69.9485 -69.9462 -69.9459 -69.9445
   -69.9411 -69.7910 -69.7795 -69.7595 -69.7408 -69.7399 -69.7324 -69.7308
   -69.7193 -69.7095 -69.6691 -69.6673 -69.6653 -69.6523 -69.6513 -69.6034
   -14.1225  -6.6416  -6.4113  -5.3636  -4.8108  -4.8052  -4.5809  -4.2983
    -4.2276  -4.1437  -4.0494  -3.9984  -3.8802  -3.8011  -3.7039  -3.6882
    -3.6038  -3.5714  -3.5398  -3.5134  -3.3394  -3.3168  -3.2954  -3.2839
    -3.2327  -3.2042  -3.1290  -3.0649  -3.0187  -2.9215  -2.8481  -2.8229
    -2.8029  -2.7106  -2.6894  -2.6816  -2.6599  -2.6164  -2.6145  -2.5767
    -2.5448  -2.5298  -2.4256  -2.4149  -2.3512  -2.3458  -2.3060  -2.2856
    -2.2435  -2.1730  -2.1088  -2.1061  -2.0548  -1.9815  -1.9592  -1.9489
    -1.9188  -1.9037  -1.8034  -1.7126  -1.6766  -1.6509  -1.6088  -1.5813
    -1.4596  -0.8627  -0.8078  -0.2454   0.1601   0.3366   0.7321   1.3700
     1.8317   2.5277   3.3200   3.5487   4.4819   5.3783

          k =-0.0964 0.0928 0.0000 ( 14299 PWs)   bands (ev):

  -112.9361-112.9315-112.9304-112.6225-112.5626-112.5609-112.5588-112.3609
  -112.3180-112.3162-112.3143-112.2267 -70.4908 -70.4678 -70.4568 -70.2700
   -70.2636 -70.2514 -70.2232 -70.2115 -70.2064 -70.0238 -70.0194 -70.0141
   -69.9985 -69.9815 -69.9633 -69.9587 -69.9485 -69.9464 -69.9454 -69.9443
   -69.9422 -69.7896 -69.7821 -69.7555 -69.7471 -69.7389 -69.7333 -69.7263
   -69.7193 -69.7107 -69.6690 -69.6673 -69.6653 -69.6522 -69.6514 -69.6034
   -14.1226  -6.8644  -5.9406  -5.3716  -5.1029  -4.7958  -4.6334  -4.4058
    -4.2438  -4.1123  -4.0279  -3.9299  -3.8490  -3.7885  -3.7286  -3.6497
    -3.6208  -3.5621  -3.5369  -3.4237  -3.3786  -3.3510  -3.3355  -3.2837
    -3.2511  -3.1696  -3.1241  -3.0719  -3.0210  -2.9720  -2.8798  -2.8446
    -2.8037  -2.7806  -2.7367  -2.7112  -2.6788  -2.6202  -2.5786  -2.5513
    -2.5189  -2.4858  -2.4434  -2.3851  -2.3641  -2.2891  -2.2725  -2.2566
    -2.1645  -2.1227  -2.1085  -2.0916  -2.0000  -1.9764  -1.9278  -1.9002
    -1.8403  -1.8009  -1.7772  -1.7234  -1.6988  -1.6804  -1.6486  -1.6113
    -1.4063  -1.2459  -0.8929  -0.6523   0.0432   0.6014   1.1259   1.5993
     2.0386   2.9365   3.1357   3.7125   4.1916   4.9147

          k =-0.0964 0.1299 0.0000 ( 14299 PWs)   bands (ev):

  -112.9361-112.9315-112.9304-112.6225-112.5626-112.5609-112.5588-112.3609
  -112.3180-112.3162-112.3143-112.2267 -70.4908 -70.4679 -70.4568 -70.2700
   -70.2636 -70.2514 -70.2232 -70.2115 -70.2064 -70.0238 -70.0194 -70.0141
   -69.9985 -69.9815 -69.9633 -69.9587 -69.9485 -69.9464 -69.9455 -69.9443
   -69.9422 -69.7896 -69.7821 -69.7555 -69.7471 -69.7389 -69.7333 -69.7263
   -69.7193 -69.7107 -69.6690 -69.6673 -69.6653 -69.6522 -69.6514 -69.6034
   -14.1226  -6.8644  -5.9406  -5.3716  -5.1029  -4.7958  -4.6334  -4.4058
    -4.2438  -4.1123  -4.0279  -3.9299  -3.8490  -3.7885  -3.7286  -3.6497
    -3.6208  -3.5621  -3.5369  -3.4237  -3.3786  -3.3510  -3.3355  -3.2837
    -3.2511  -3.1696  -3.1241  -3.0719  -3.0210  -2.9720  -2.8798  -2.8446
    -2.8037  -2.7806  -2.7367  -2.7112  -2.6788  -2.6202  -2.5786  -2.5513
    -2.5189  -2.4858  -2.4434  -2.3851  -2.3641  -2.2891  -2.2725  -2.2566
    -2.1645  -2.1227  -2.1085  -2.0916  -2.0000  -1.9764  -1.9278  -1.9002
    -1.8403  -1.8009  -1.7772  -1.7233  -1.6988  -1.6804  -1.6486  -1.6113
    -1.4063  -1.2459  -0.8929  -0.6523   0.0433   0.6014   1.1259   1.5993
     2.0386   2.9365   3.1357   3.7125   4.1916   4.9147

          k =-0.0964-0.0557 0.0000 ( 14294 PWs)   bands (ev):

  -112.9361-112.9315-112.9304-112.6225-112.5626-112.5609-112.5588-112.3609
  -112.3180-112.3162-112.3143-112.2267 -70.4909 -70.4677 -70.4569 -70.2700
   -70.2636 -70.2514 -70.2232 -70.2118 -70.2061 -70.0238 -70.0206 -70.0124
   -69.9997 -69.9790 -69.9652 -69.9594 -69.9485 -69.9462 -69.9459 -69.9445
   -69.9411 -69.7910 -69.7795 -69.7595 -69.7408 -69.7399 -69.7324 -69.7308
   -69.7193 -69.7095 -69.6691 -69.6673 -69.6653 -69.6523 -69.6513 -69.6034
   -14.1225  -6.6417  -6.4113  -5.3637  -4.8108  -4.8052  -4.5809  -4.2983
    -4.2276  -4.1437  -4.0494  -3.9984  -3.8802  -3.8012  -3.7039  -3.6882
    -3.6038  -3.5714  -3.5398  -3.5134  -3.3394  -3.3168  -3.2953  -3.2839
    -3.2327  -3.2042  -3.1290  -3.0649  -3.0187  -2.9215  -2.8481  -2.8229
    -2.8029  -2.7106  -2.6894  -2.6816  -2.6599  -2.6164  -2.6145  -2.5767
    -2.5448  -2.5298  -2.4256  -2.4149  -2.3513  -2.3458  -2.3060  -2.2856
    -2.2435  -2.1730  -2.1088  -2.1061  -2.0548  -1.9815  -1.9592  -1.9489
    -1.9188  -1.9037  -1.8034  -1.7126  -1.6766  -1.6509  -1.6089  -1.5812
    -1.4597  -0.8628  -0.8078  -0.2454   0.1601   0.3367   0.7321   1.3700
     1.8317   2.5278   3.3200   3.5487   4.4819   5.3783

     the Fermi energy is     0.0435 ev

!    total energy              =   -4879.44086546 Ry
     Harris-Foulkes estimate   =   -4879.44086535 Ry
     estimated scf accuracy    <       0.00000005 Ry

     The total energy is the sum of the following terms:

     one-electron contribution =  -37957.16418923 Ry
     hartree contribution      =   18990.87185807 Ry
     xc contribution           =    -485.46589158 Ry
     ewald contribution        =   14572.34267379 Ry
     electric field correction =       0.00021032 Ry
     smearing contrib. (-TS)   =      -0.02552683 Ry

     convergence has been achieved in   8 iterations
 
 BEEF-vdW xc energy contributions
           1 :   -430.164475078435     
           2 :    390.022128815367     
           3 :   -321.968149911742     
           4 :    244.660919942081     
           5 :   -175.135481678260     
           6 :    122.708916298399     
           7 :   -87.4982621677819     
           8 :    63.5123391638252     
           9 :   -43.8974699048565     
          10 :    25.1040745220477     
          11 :   -7.89024816163561     
          12 :   -4.72640531787698     
          13 :    10.6303385261879     
          14 :   -10.5905977792264     
          15 :    7.89934275374929     
          16 :   -6.23245512987415     
          17 :    7.41118722060452     
          18 :   -10.6011762032317     
          19 :    13.3381781417718     
          20 :   -13.5095838656300     
          21 :    10.8642053237758     
          22 :   -7.07676920734644     
          23 :    4.45790997464513     
          24 :   -4.31779405550475     
          25 :    6.14164625495630     
          26 :   -8.08849457942694     
          27 :    8.37327003653974     
          28 :   -6.51520999094078     
          29 :    3.59599581392257     
          30 :   -1.41161639968374     
          31 :   -34.4080172729466     
          32 :   -23.5274395811376     

     Forces acting on atoms (Ry/au):


     negative rho (up, down):  1.314E-03 0.000E+00
     atom    1 type  1   force =    -0.00000172    0.00001671    0.00318168
     atom    2 type  1   force =     0.00000047   -0.00060918    0.00278659
     atom    3 type  1   force =    -0.00054714    0.00031417    0.00279365
     atom    4 type  1   force =     0.00054642    0.00031316    0.00278992
     atom    5 type  1   force =    -0.00023874    0.00016598   -0.00468336
     atom    6 type  1   force =     0.00023846    0.00018231   -0.00469239
     atom    7 type  1   force =     0.00001477   -0.00045300    0.00367085
     atom    8 type  1   force =    -0.00001322   -0.00050200   -0.00464110
     atom    9 type  1   force =     0.00182873    0.00040132    0.00046138
     atom   10 type  1   force =    -0.00185164    0.00040697    0.00047249
     atom   11 type  1   force =    -0.00000009    0.00012765   -0.00034411
     atom   12 type  1   force =     0.00000240    0.00030005    0.00010056
     atom   13 type  2   force =     0.00002130   -0.00066414   -0.00189616

     Total force =     0.003436     Total SCF correction =     0.000362
     SCF correction compared to forces is large: reduce conv_thr to get better values


     entering subroutine stress ...


     negative rho (up, down):  1.314E-03 0.000E+00
          total   stress  (Ry/bohr**3)                   (kbar)     P=  -17.86
  -0.00012896   0.00000002   0.00000002        -18.97      0.00      0.00
   0.00000002  -0.00012959   0.00000020          0.00    -19.06      0.03
   0.00000002   0.00000020  -0.00010576          0.00      0.03    -15.56


     bfgs converged in  44 scf cycles and  43 bfgs steps
     (criteria: energy <  1.0E+00, force <  1.9E-03)

     End of BFGS Geometry Optimization

     Final energy   =   -4879.4408654640 Ry
Begin final coordinates

ATOMIC_POSITIONS (crystal)
Cu1      0.166666667   0.166666667   0.412653782    0   0   0
Cu1      0.666666667   0.166666667   0.412653782    0   0   0
Cu1      0.166666667   0.666666667   0.412653782    0   0   0
Cu1      0.666666667   0.666666667   0.412653782    0   0   0
Cu1      0.833333333   0.333333333   0.500000000    0   0   0
Cu1      0.333333333   0.333333333   0.500000000    0   0   0
Cu1      0.833333333   0.833333333   0.500000000    0   0   0
Cu1      0.333333333   0.833333333   0.500000000    0   0   0
Cu1     -0.006062060  -0.006874092   0.588136439
Cu1      0.512940824  -0.006869345   0.588136292
Cu1     -0.005228539   0.510460636   0.588260367
Cu1      0.500424890   0.499154981   0.584933752
N1       0.167429286   0.165122318   0.629516943
End final coordinates



     Writing output data file calc.save
 
     init_run     :      8.36s CPU      8.68s WALL (       1 calls)
     electrons    :   9830.61s CPU  10407.11s WALL (      44 calls)
     update_pot   :     90.05s CPU     95.70s WALL (      43 calls)
     forces       :    494.69s CPU    530.67s WALL (      44 calls)
     stress       :   1567.94s CPU   1659.11s WALL (      44 calls)

     Called by init_run:
     wfcinit      :      3.74s CPU      3.80s WALL (       1 calls)
     potinit      :      1.29s CPU      1.42s WALL (       1 calls)

     Called by electrons:
     c_bands      :   4704.99s CPU   4876.10s WALL (     484 calls)
     sum_band     :   1716.31s CPU   1822.17s WALL (     484 calls)
     v_of_rho     :    532.99s CPU    575.85s WALL (     525 calls)
     newd         :   1396.84s CPU   1446.26s WALL (     525 calls)
     mix_rho      :     19.08s CPU     19.73s WALL (     484 calls)
     vdW_energy   :    327.82s CPU    361.34s WALL (    2109 calls)
     vdW_ffts     :    752.97s CPU    810.03s WALL (    4306 calls)
     vdW_v        :    305.44s CPU    323.65s WALL (    2109 calls)

     Called by c_bands:
     init_us_2    :     20.87s CPU     21.01s WALL (    5285 calls)
     cegterg      :   4487.24s CPU   4614.06s WALL (    2420 calls)

     Called by *egterg:
     h_psi        :   2490.69s CPU   2553.02s WALL (    9609 calls)
     s_psi        :    258.12s CPU    258.62s WALL (    9609 calls)
     g_psi        :     17.15s CPU     17.19s WALL (    7184 calls)
     cdiaghg      :    642.09s CPU    646.91s WALL (    9374 calls)

     Called by h_psi:
     add_vuspsi   :    262.59s CPU    263.22s WALL (    9609 calls)

     General routines
     calbec       :    427.43s CPU    441.16s WALL (   12469 calls)
     fft          :   1191.85s CPU   1322.02s WALL (  127237 calls)
     ffts         :      1.48s CPU      1.66s WALL (    1009 calls)
     fftw         :   1558.72s CPU   1630.27s WALL ( 1792090 calls)
     interpolate  :     12.10s CPU     12.62s WALL (    1009 calls)
     davcio       :      0.00s CPU      0.03s WALL (       5 calls)
 
     Parallel routines
     fft_scatter  :   1593.88s CPU   1784.85s WALL ( 1920336 calls)
 
     PWSCF        :     3h22m CPU        3h34m WALL

 
   This run was terminated on:  15:17:40   2May2018            

=------------------------------------------------------------------------------=
   JOB DONE.
=------------------------------------------------------------------------------=
Job  /afs/slac/g/suncat/bin/suncat-tsmpirun -x LD_LIBRARY_PATH -wdir /scratch/qe585058_z4IaG pw.x -npool 4 -in pw.inp

TID   HOST_NAME   COMMAND_LINE            STATUS            TERMINATION_TIME
===== ========== ================  =======================  ===================
00000 suncat0192 pw.x -npool 4 -i  Done                     05/02/2018 15:17:40
00001 suncat0192 pw.x -npool 4 -i  Done                     05/02/2018 15:17:40
00002 suncat0192 pw.x -npool 4 -i  Done                     05/02/2018 15:17:40
00003 suncat0192 pw.x -npool 4 -i  Done                     05/02/2018 15:17:40
00004 suncat0192 pw.x -npool 4 -i  Done                     05/02/2018 15:17:40
00005 suncat0192 pw.x -npool 4 -i  Done                     05/02/2018 15:17:40
00006 suncat0192 pw.x -npool 4 -i  Done                     05/02/2018 15:17:40
00007 suncat0192 pw.x -npool 4 -i  Done                     05/02/2018 15:17:40
00008 suncat0002 pw.x -npool 4 -i  Done                     05/02/2018 15:17:40
00009 suncat0002 pw.x -npool 4 -i  Done                     05/02/2018 15:17:40
00010 suncat0002 pw.x -npool 4 -i  Done                     05/02/2018 15:17:40
00011 suncat0002 pw.x -npool 4 -i  Done                     05/02/2018 15:17:40
00012 suncat0002 pw.x -npool 4 -i  Done                     05/02/2018 15:17:40
00013 suncat0002 pw.x -npool 4 -i  Done                     05/02/2018 15:17:40
00014 suncat0002 pw.x -npool 4 -i  Done                     05/02/2018 15:17:40
00015 suncat0002 pw.x -npool 4 -i  Done                     05/02/2018 15:17:40
00016 suncat0177 pw.x -npool 4 -i  Done                     05/02/2018 15:17:40
00017 suncat0177 pw.x -npool 4 -i  Done                     05/02/2018 15:17:40
00018 suncat0177 pw.x -npool 4 -i  Done                     05/02/2018 15:17:40
00019 suncat0177 pw.x -npool 4 -i  Done                     05/02/2018 15:17:40
00020 suncat0177 pw.x -npool 4 -i  Done                     05/02/2018 15:17:40
00021 suncat0177 pw.x -npool 4 -i  Done                     05/02/2018 15:17:40
00022 suncat0177 pw.x -npool 4 -i  Done                     05/02/2018 15:17:40
00023 suncat0177 pw.x -npool 4 -i  Done                     05/02/2018 15:17:40
00024 suncat0282 pw.x -npool 4 -i  Done                     05/02/2018 15:17:40
00025 suncat0282 pw.x -npool 4 -i  Done                     05/02/2018 15:17:40
00026 suncat0282 pw.x -npool 4 -i  Done                     05/02/2018 15:17:40
00027 suncat0282 pw.x -npool 4 -i  Done                     05/02/2018 15:17:40
00028 suncat0282 pw.x -npool 4 -i  Done                     05/02/2018 15:17:40
00029 suncat0282 pw.x -npool 4 -i  Done                     05/02/2018 15:17:40
00030 suncat0282 pw.x -npool 4 -i  Done                     05/02/2018 15:17:40
00031 suncat0282 pw.x -npool 4 -i  Done                     05/02/2018 15:17:40
