  python dir          : /u/if/mamunm/src/espresso
  espresso dir        : /nfs/slac/g/suncatfs/sw/espv18/espresso-dynpy-beef/bin
  pseudo dir          : /u/if/mamunm/psp/gbrv1.5pbe
  ase-espresso py git : GITVERSION



     Program PWSCF v.5.1rc2 (svn rev. 11289) starts on 22Apr2018 at 20:23:57 

     This program is part of the open-source Quantum ESPRESSO suite
     for quantum simulation of materials; please cite
         "P. Giannozzi et al., J. Phys.:Condens. Matter 21 395502 (2009);
          URL http://www.quantum-espresso.org", 
     in publications or presentations arising from this work. More details at
     http://www.quantum-espresso.org/quote

     Parallel version (MPI), running on    32 processors
     K-points division:     npool     =       4
     R & G space division:  proc/nbgrp/npool/nimage =       8
     Reading input from pw.inp
     Message from routine read_cards :
     DEPRECATED: no units specified in CELL_PARAMETERS card

     Current dimensions of program PWSCF are:
     Max number of different atomic species (ntypx) = 10
     Max number of k-points (npk) =  40000
     Max angular momentum in pseudopotentials (lmaxx) =  3
     Presently stress not available with electric field


     **************************************************************************
     Initializing libbeef V0.1.1 with the BEEF-vdW functional.
     Citation: Wellendorff et al., PRB 85, 235149 (2012).
     **************************************************************************


     IMPORTANT: XC functional enforced from input :
     Exchange-correlation      = BEEF-VDW ( 1  4 27 13 2)
     Any further DFT definition will be discarded
     Please, verify this is what you really want


     Subspace diagonalization in iterative solution of the eigenvalue problem:
     a serial algorithm will be used

 
     Parallelization info
     --------------------
     sticks:   dense  smooth     PW     G-vecs:    dense   smooth      PW
     Min         469     188     53                90947    23011    3531
     Max         471     189     55                90959    23054    3542
     Sum        3757    1507    433               727599   184247   28311
 


     bravais-lattice index     =            0
     lattice parameter (alat)  =       1.8897  a.u.
     unit-cell volume          =    6116.8020 (a.u.)^3
     number of atoms/cell      =           14
     number of atomic types    =            3
     number of electrons       =       137.00
     number of Kohn-Sham states=           78
     kinetic-energy cutoff     =      36.7493  Ry
     charge density cutoff     =     367.4932  Ry
     convergence threshold     =      1.0E-05
     mixing beta               =       0.3000
     number of iterations used =           10  plain     mixing
     Exchange-correlation      = BEEF-VDW ( 1  4 27 13 2)
     nstep                     =           50


     celldm(1)=   1.889726  celldm(2)=   0.000000  celldm(3)=   0.000000
     celldm(4)=   0.000000  celldm(5)=   0.000000  celldm(6)=   0.000000

     crystal axes: (cart. coord. in units of alat)
               a(1) = (   6.437465   0.000000   0.000000 )  
               a(2) = (   3.218732   5.575008   0.000000 )  
               a(3) = (   0.000000   0.000000  25.256168 )  

     reciprocal axes: (cart. coord. in units 2 pi/alat)
               b(1) = (  0.155341 -0.089686  0.000000 )  
               b(2) = (  0.000000  0.179372  0.000000 )  
               b(3) = (  0.000000  0.000000  0.039594 )  


     PseudoPot. # 1 for Sc read from file:
     /u/if/mamunm/psp/gbrv1.5pbe/Sc.UPF
     MD5 check sum: db30a2753ba66ef00f23801d899b7e7f
     Pseudo is Ultrasoft + core correction, Zval = 11.0
     Generated by new atomic code, or converted to UPF format
     Using radial grid of  849 points,  6 beta functions with: 
                l(1) =   0
                l(2) =   0
                l(3) =   1
                l(4) =   1
                l(5) =   2
                l(6) =   2
     Q(r) pseudized with  6 coefficients,  rinner =    1.200   1.200   1.200
                                                       1.200   1.200

     PseudoPot. # 2 for C  read from file:
     /u/if/mamunm/psp/gbrv1.5pbe/C.UPF
     MD5 check sum: d1aef80898a10debaa0f26306b886e00
     Pseudo is Ultrasoft + core correction, Zval =  4.0
     Generated by new atomic code, or converted to UPF format
     Using radial grid of  721 points,  4 beta functions with: 
                l(1) =   0
                l(2) =   0
                l(3) =   1
                l(4) =   1
     Q(r) pseudized with  8 coefficients,  rinner =    1.100   1.100   1.100


     PseudoPot. # 3 for H  read from file:
     /u/if/mamunm/psp/gbrv1.5pbe/H.UPF
     MD5 check sum: 761ae9a214b05c3daf00ab9f6b793d6f
     Pseudo is Ultrasoft, Zval =  1.0
     Generated by new atomic code, or converted to UPF format
     Using radial grid of  615 points,  2 beta functions with: 
                l(1) =   0
                l(2) =   0
     Q(r) pseudized with  8 coefficients,  rinner =    0.700

     vdW kernel table read from file vdW_kernel_table
     MD5 check sum: 095c7af220d748ca6e76c0b4c6cfb241

     atomic species   valence    mass     pseudopotential
        Sc1           11.00    44.95591     Sc( 1.00)
        C1             4.00    12.01100     C ( 1.00)
        H1             1.00     1.00800     H ( 1.00)

     No symmetry found



   Cartesian axes

     site n.     atom                  positions (alat units)
         1           Sc1 tau(   1) = (   1.6093662   0.9291680  10.0000000  )
         2           Sc1 tau(   2) = (   4.8280986   0.9291680  10.0000000  )
         3           Sc1 tau(   3) = (   3.2187324   3.7166720  10.0000000  )
         4           Sc1 tau(   4) = (   6.4374648   3.7166720  10.0000000  )
         5           Sc1 tau(   5) = (   6.4374648   1.8583360  12.6280840  )
         6           Sc1 tau(   6) = (   3.2187324   1.8583360  12.6280840  )
         7           Sc1 tau(   7) = (   8.0468310   4.6458400  12.6280840  )
         8           Sc1 tau(   8) = (   4.8280986   4.6458400  12.6280840  )
         9           Sc1 tau(   9) = (   0.0000000   0.0000000  15.2561680  )
        10           Sc1 tau(  10) = (   3.2187324   0.0000000  15.2561680  )
        11           Sc1 tau(  11) = (   1.6093662   2.7875040  15.2561680  )
        12           Sc1 tau(  12) = (   4.8280986   2.7875040  15.2561680  )
        13           C1  tau(  13) = (   1.6093662   0.9291680  16.8551680  )
        14           H1  tau(  14) = (   1.6093662   0.9291680  17.9551680  )

     number of k points=    20  Fermi-Dirac smearing, width (Ry)=  0.0110
                       cart. coord. in units 2pi/alat
        k(    1) = (   0.0000000   0.0000000   0.0000000), wk =   0.0555556
        k(    2) = (   0.0000000   0.0298953   0.0000000), wk =   0.1111111
        k(    3) = (   0.0000000   0.0597906   0.0000000), wk =   0.1111111
        k(    4) = (   0.0000000  -0.0896860   0.0000000), wk =   0.0555556
        k(    5) = (   0.0258901  -0.0149477   0.0000000), wk =   0.1111111
        k(    6) = (   0.0258901   0.0149477   0.0000000), wk =   0.1111111
        k(    7) = (   0.0258901   0.0448430   0.0000000), wk =   0.1111111
        k(    8) = (   0.0258901  -0.1046336   0.0000000), wk =   0.1111111
        k(    9) = (   0.0258901  -0.0747383   0.0000000), wk =   0.1111111
        k(   10) = (   0.0258901  -0.0448430   0.0000000), wk =   0.1111111
        k(   11) = (   0.0517802  -0.0298953   0.0000000), wk =   0.1111111
        k(   12) = (   0.0517802   0.0000000   0.0000000), wk =   0.1111111
        k(   13) = (   0.0517802   0.0298953   0.0000000), wk =   0.1111111
        k(   14) = (   0.0517802  -0.1195813   0.0000000), wk =   0.1111111
        k(   15) = (   0.0517802  -0.0896860   0.0000000), wk =   0.1111111
        k(   16) = (   0.0517802  -0.0597906   0.0000000), wk =   0.1111111
        k(   17) = (  -0.0776703   0.0448430   0.0000000), wk =   0.0555556
        k(   18) = (  -0.0776703   0.0747383   0.0000000), wk =   0.1111111
        k(   19) = (  -0.0776703   0.1046336   0.0000000), wk =   0.1111111
        k(   20) = (  -0.0776703  -0.0448430   0.0000000), wk =   0.0555556

     Dense  grid:   727599 G-vectors     FFT dimensions: (  75,  75, 300)

     Smooth grid:   184247 G-vectors     FFT dimensions: (  48,  48, 192)

     Largest allocated arrays     est. size (Mb)     dimensions
        Kohn-Sham Wavefunctions         3.47 Mb     (    2914,   78)
        NL pseudopotentials            10.05 Mb     (    2914,  226)
        Each V/rho on FFT grid          3.26 Mb     (  213750)
        Each G-vector array             0.69 Mb     (   90950)
        G-vector shells                 0.18 Mb     (   23259)
     Largest temporary arrays     est. size (Mb)     dimensions
        Auxiliary wavefunctions        13.87 Mb     (    2914,  312)
        Each subspace H/S matrix        1.49 Mb     (     312,  312)
        Each <psi_i|beta_j> matrix      0.27 Mb     (     226,   78)
        Arrays for rho mixing          32.62 Mb     (  213750,   10)

     Initial potential from superposition of free atoms
     Check: negative starting charge=   -0.000264

     starting charge  136.97112, renormalised to  137.00000

     negative rho (up, down):  2.638E-04 0.000E+00


     ************************************************************************
     *
     * You are using vdW-DF for exchange-correlation in this calculation.
     * Please cite the following three references that made this development
     * possible:
     *
     *   M. Dion, H. Rydberg, E. Schroder, D. C. Langreth, and
     *   B. I. Lundqvist, Phys. Rev. Lett. 92, 246401 (2004).
     *
     *   T. Thonhauser, V. R. Cooper, S. Li, A. Puzder, P. Hyldgaard, and
     *   D. C. Langreth, Phys. Rev. B 76, 125112 (2007).
     *
     *   G. Roman-Perez and J. M. Soler, Phys. Rev. Lett. 103, 096102 (2009).
     *
     *
     * If you are using vdW-DF2, please also cite:
     *
     *   K. Lee, E. D. Murray, L. Kong, B. I. Lundqvist, and
     *   D. C. Langreth, Phys. Rev. B 82, 081101(R) (2010).
     *
     *
     * If you are calculating the stress with vdW-DF, please also cite:
     *
     *   R. Sabatini, E. Kucukbenli, B. Kolb, T. Thonhauser, and
     *   S. de Gironcoli, J. Phys.: Condens. Matter 24, 424209 (2012).
     *
     ************************************************************************

     Carrying out vdW-DF run using the following parameters:

     Nqs =      20    Nr_points =    1024   r_max =   100.000
     q_mesh =
               0.00001000     0.04494208     0.09755937     0.15916263
               0.23128650     0.31572767     0.41458969     0.53033537
               0.66584808     0.82450364     1.01025438     1.22772762
               1.48234092     1.78043706     2.12944203     2.53805004
               3.01644009     3.57652955     4.23227104     5.00000000

     Gradients computed in reciprocal space

     ************************************************************************


 
     Adding external electric field

     Computed dipole along edir(3) : 
        Dipole               -0.0084 Ry au,         -0.0215 Debye
        Dipole field         -0.0000 Ry au
 
        Potential amp.        0.0016 Ry
        Total length         46.5341 bohr
 
     Starting wfc are  161 randomized atomic wfcs

     total cpu time spent up to now is       16.4 secs

     per-process dynamical memory:    99.2 Mb

     Self-consistent Calculation

     iteration #  1     ecut=    36.75 Ry     beta=0.30
     Davidson diagonalization with overlap
     ethr =  1.00E-02,  avg # of iterations =  2.0

     negative rho (up, down):  1.870E-04 0.000E+00
 
     Adding external electric field

     Computed dipole along edir(3) : 
        Dipole               -5.7497 Ry au,        -14.6143 Debye
        Dipole field         -0.0118 Ry au
 
        Potential amp.        1.0993 Ry
        Total length         46.5341 bohr
 

     total cpu time spent up to now is       36.0 secs

     total energy              =   -1147.47756867 Ry
     Harris-Foulkes estimate   =   -1150.99840769 Ry
     estimated scf accuracy    <       7.57474303 Ry

     iteration #  2     ecut=    36.75 Ry     beta=0.30
     Davidson diagonalization with overlap
     ethr =  5.53E-03,  avg # of iterations =  9.8

     negative rho (up, down):  3.309E-04 0.000E+00
 
     Adding external electric field

     Computed dipole along edir(3) : 
        Dipole                1.3298 Ry au,          3.3801 Debye
        Dipole field          0.0027 Ry au
 
        Potential amp.       -0.2543 Ry
        Total length         46.5341 bohr
 

     total cpu time spent up to now is       65.5 secs

     total energy              =   -1140.51142624 Ry
     Harris-Foulkes estimate   =   -1166.67546092 Ry
     estimated scf accuracy    <     510.07830696 Ry

     iteration #  3     ecut=    36.75 Ry     beta=0.30
     Davidson diagonalization with overlap
     ethr =  5.53E-03,  avg # of iterations =  9.6

     negative rho (up, down):  3.519E-04 0.000E+00
 
     Adding external electric field

     Computed dipole along edir(3) : 
        Dipole                0.0263 Ry au,          0.0669 Debye
        Dipole field          0.0001 Ry au
 
        Potential amp.       -0.0050 Ry
        Total length         46.5341 bohr
 

     total cpu time spent up to now is       96.1 secs

     total energy              =   -1147.01241807 Ry
     Harris-Foulkes estimate   =   -1154.00816646 Ry
     estimated scf accuracy    <     190.70929025 Ry

     iteration #  4     ecut=    36.75 Ry     beta=0.30
     Davidson diagonalization with overlap
     ethr =  5.53E-03,  avg # of iterations =  6.5

     negative rho (up, down):  2.246E-04 0.000E+00
 
     Adding external electric field

     Computed dipole along edir(3) : 
        Dipole               -0.0180 Ry au,         -0.0459 Debye
        Dipole field         -0.0000 Ry au
 
        Potential amp.        0.0034 Ry
        Total length         46.5341 bohr
 

     total cpu time spent up to now is      120.0 secs

     total energy              =   -1150.31534268 Ry
     Harris-Foulkes estimate   =   -1150.40705492 Ry
     estimated scf accuracy    <       0.73256252 Ry

     iteration #  5     ecut=    36.75 Ry     beta=0.30
     Davidson diagonalization with overlap
     ethr =  5.35E-04,  avg # of iterations =  9.2

     negative rho (up, down):  1.542E-04 0.000E+00
 
     Adding external electric field

     Computed dipole along edir(3) : 
        Dipole               -0.1961 Ry au,         -0.4984 Debye
        Dipole field         -0.0004 Ry au
 
        Potential amp.        0.0375 Ry
        Total length         46.5341 bohr
 

     total cpu time spent up to now is      146.3 secs

     total energy              =   -1150.36541552 Ry
     Harris-Foulkes estimate   =   -1150.43270101 Ry
     estimated scf accuracy    <       1.42591136 Ry

     iteration #  6     ecut=    36.75 Ry     beta=0.30
     Davidson diagonalization with overlap
     ethr =  5.35E-04,  avg # of iterations =  3.6

     negative rho (up, down):  1.329E-04 0.000E+00
 
     Adding external electric field

     Computed dipole along edir(3) : 
        Dipole               -0.1481 Ry au,         -0.3764 Debye
        Dipole field         -0.0003 Ry au
 
        Potential amp.        0.0283 Ry
        Total length         46.5341 bohr
 

     total cpu time spent up to now is      166.7 secs

     total energy              =   -1150.37100153 Ry
     Harris-Foulkes estimate   =   -1150.39641394 Ry
     estimated scf accuracy    <       0.20207603 Ry

     iteration #  7     ecut=    36.75 Ry     beta=0.30
     Davidson diagonalization with overlap
     ethr =  1.48E-04,  avg # of iterations =  8.9

     negative rho (up, down):  1.565E-04 0.000E+00
 
     Adding external electric field

     Computed dipole along edir(3) : 
        Dipole               -0.1698 Ry au,         -0.4315 Debye
        Dipole field         -0.0003 Ry au
 
        Potential amp.        0.0325 Ry
        Total length         46.5341 bohr
 

     total cpu time spent up to now is      191.1 secs

     total energy              =   -1150.38500986 Ry
     Harris-Foulkes estimate   =   -1150.39334544 Ry
     estimated scf accuracy    <       0.12179273 Ry

     iteration #  8     ecut=    36.75 Ry     beta=0.30
     Davidson diagonalization with overlap
     ethr =  8.89E-05,  avg # of iterations =  3.4

     negative rho (up, down):  1.604E-04 0.000E+00
 
     Adding external electric field

     Computed dipole along edir(3) : 
        Dipole               -0.1779 Ry au,         -0.4523 Debye
        Dipole field         -0.0004 Ry au
 
        Potential amp.        0.0340 Ry
        Total length         46.5341 bohr
 

     total cpu time spent up to now is      211.5 secs

     total energy              =   -1150.37921805 Ry
     Harris-Foulkes estimate   =   -1150.38790412 Ry
     estimated scf accuracy    <       0.04178171 Ry

     iteration #  9     ecut=    36.75 Ry     beta=0.30
     Davidson diagonalization with overlap
     ethr =  3.05E-05,  avg # of iterations =  9.6

     negative rho (up, down):  1.743E-04 0.000E+00
 
     Adding external electric field

     Computed dipole along edir(3) : 
        Dipole               -0.1842 Ry au,         -0.4681 Debye
        Dipole field         -0.0004 Ry au
 
        Potential amp.        0.0352 Ry
        Total length         46.5341 bohr
 

     total cpu time spent up to now is      238.3 secs

     total energy              =   -1150.38682538 Ry
     Harris-Foulkes estimate   =   -1150.38864203 Ry
     estimated scf accuracy    <       0.08202555 Ry

     iteration # 10     ecut=    36.75 Ry     beta=0.30
     Davidson diagonalization with overlap
     ethr =  3.05E-05,  avg # of iterations =  1.5

     negative rho (up, down):  1.676E-04 0.000E+00
 
     Adding external electric field

     Computed dipole along edir(3) : 
        Dipole               -0.2030 Ry au,         -0.5160 Debye
        Dipole field         -0.0004 Ry au
 
        Potential amp.        0.0388 Ry
        Total length         46.5341 bohr
 

     total cpu time spent up to now is      258.0 secs

     total energy              =   -1150.38253622 Ry
     Harris-Foulkes estimate   =   -1150.38790052 Ry
     estimated scf accuracy    <       0.08729915 Ry

     iteration # 11     ecut=    36.75 Ry     beta=0.30
     Davidson diagonalization with overlap
     ethr =  3.05E-05,  avg # of iterations =  6.7

     negative rho (up, down):  1.643E-04 0.000E+00
 
     Adding external electric field

     Computed dipole along edir(3) : 
        Dipole               -0.2013 Ry au,         -0.5116 Debye
        Dipole field         -0.0004 Ry au
 
        Potential amp.        0.0385 Ry
        Total length         46.5341 bohr
 

     total cpu time spent up to now is      281.2 secs

     total energy              =   -1150.38619916 Ry
     Harris-Foulkes estimate   =   -1150.38667694 Ry
     estimated scf accuracy    <       0.00389546 Ry

     iteration # 12     ecut=    36.75 Ry     beta=0.30
     Davidson diagonalization with overlap
     ethr =  2.84E-06,  avg # of iterations =  9.3

     negative rho (up, down):  1.678E-04 0.000E+00
 
     Adding external electric field

     Computed dipole along edir(3) : 
        Dipole               -0.2037 Ry au,         -0.5178 Debye
        Dipole field         -0.0004 Ry au
 
        Potential amp.        0.0389 Ry
        Total length         46.5341 bohr
 

     total cpu time spent up to now is      306.7 secs

     total energy              =   -1150.38612379 Ry
     Harris-Foulkes estimate   =   -1150.38671711 Ry
     estimated scf accuracy    <       0.00595358 Ry

     iteration # 13     ecut=    36.75 Ry     beta=0.30
     Davidson diagonalization with overlap
     ethr =  2.84E-06,  avg # of iterations =  6.0

     negative rho (up, down):  1.727E-04 0.000E+00
 
     Adding external electric field

     Computed dipole along edir(3) : 
        Dipole               -0.2166 Ry au,         -0.5506 Debye
        Dipole field         -0.0004 Ry au
 
        Potential amp.        0.0414 Ry
        Total length         46.5341 bohr
 

     total cpu time spent up to now is      329.6 secs

     total energy              =   -1150.38649323 Ry
     Harris-Foulkes estimate   =   -1150.38661078 Ry
     estimated scf accuracy    <       0.00193008 Ry

     iteration # 14     ecut=    36.75 Ry     beta=0.30
     Davidson diagonalization with overlap
     ethr =  1.41E-06,  avg # of iterations =  5.8

     negative rho (up, down):  1.861E-04 0.000E+00
 
     Adding external electric field

     Computed dipole along edir(3) : 
        Dipole               -0.2154 Ry au,         -0.5474 Debye
        Dipole field         -0.0004 Ry au
 
        Potential amp.        0.0412 Ry
        Total length         46.5341 bohr
 

     total cpu time spent up to now is      352.3 secs

     total energy              =   -1150.38646664 Ry
     Harris-Foulkes estimate   =   -1150.38666768 Ry
     estimated scf accuracy    <       0.00214974 Ry

     iteration # 15     ecut=    36.75 Ry     beta=0.30
     Davidson diagonalization with overlap
     ethr =  1.41E-06,  avg # of iterations =  5.1

     negative rho (up, down):  1.914E-04 0.000E+00
 
     Adding external electric field

     Computed dipole along edir(3) : 
        Dipole               -0.2156 Ry au,         -0.5480 Debye
        Dipole field         -0.0004 Ry au
 
        Potential amp.        0.0412 Ry
        Total length         46.5341 bohr
 

     total cpu time spent up to now is      374.2 secs

     total energy              =   -1150.38657758 Ry
     Harris-Foulkes estimate   =   -1150.38659216 Ry
     estimated scf accuracy    <       0.00043358 Ry

     iteration # 16     ecut=    36.75 Ry     beta=0.30
     Davidson diagonalization with overlap
     ethr =  3.16E-07,  avg # of iterations =  8.2

     negative rho (up, down):  1.922E-04 0.000E+00
 
     Adding external electric field

     Computed dipole along edir(3) : 
        Dipole               -0.2166 Ry au,         -0.5506 Debye
        Dipole field         -0.0004 Ry au
 
        Potential amp.        0.0414 Ry
        Total length         46.5341 bohr
 

     total cpu time spent up to now is      398.9 secs

     total energy              =   -1150.38660039 Ry
     Harris-Foulkes estimate   =   -1150.38661758 Ry
     estimated scf accuracy    <       0.00007838 Ry

     iteration # 17     ecut=    36.75 Ry     beta=0.30
     Davidson diagonalization with overlap
     ethr =  5.72E-08,  avg # of iterations =  5.8

     negative rho (up, down):  1.951E-04 0.000E+00
 
     Adding external electric field

     Computed dipole along edir(3) : 
        Dipole               -0.2160 Ry au,         -0.5491 Debye
        Dipole field         -0.0004 Ry au
 
        Potential amp.        0.0413 Ry
        Total length         46.5341 bohr
 

     total cpu time spent up to now is      423.1 secs

     total energy              =   -1150.38661253 Ry
     Harris-Foulkes estimate   =   -1150.38661357 Ry
     estimated scf accuracy    <       0.00002541 Ry

     iteration # 18     ecut=    36.75 Ry     beta=0.30
     Davidson diagonalization with overlap
     ethr =  1.85E-08,  avg # of iterations =  7.5

     negative rho (up, down):  1.954E-04 0.000E+00

     negative rho (up, down):  1.954E-04 0.000E+00

     negative rho (up, down):  1.954E-04 0.000E+00

     negative rho (up, down):  1.954E-04 0.000E+00

     negative rho (up, down):  1.954E-04 0.000E+00

     negative rho (up, down):  1.954E-04 0.000E+00

     negative rho (up, down):  1.954E-04 0.000E+00

     negative rho (up, down):  1.954E-04 0.000E+00

     negative rho (up, down):  1.954E-04 0.000E+00

     negative rho (up, down):  1.954E-04 0.000E+00

     negative rho (up, down):  1.954E-04 0.000E+00

     negative rho (up, down):  1.954E-04 0.000E+00

     negative rho (up, down):  1.954E-04 0.000E+00

     negative rho (up, down):  1.954E-04 0.000E+00

     negative rho (up, down):  1.954E-04 0.000E+00

     negative rho (up, down):  1.954E-04 0.000E+00

     negative rho (up, down):  1.954E-04 0.000E+00

     negative rho (up, down):  1.954E-04 0.000E+00

     negative rho (up, down):  1.954E-04 0.000E+00

     negative rho (up, down):  1.954E-04 0.000E+00

     negative rho (up, down):  1.954E-04 0.000E+00

     negative rho (up, down):  1.954E-04 0.000E+00

     negative rho (up, down):  1.954E-04 0.000E+00

     negative rho (up, down):  1.954E-04 0.000E+00

     negative rho (up, down):  1.954E-04 0.000E+00

     negative rho (up, down):  1.954E-04 0.000E+00

     negative rho (up, down):  1.954E-04 0.000E+00

     negative rho (up, down):  1.954E-04 0.000E+00

     negative rho (up, down):  1.954E-04 0.000E+00

     negative rho (up, down):  1.954E-04 0.000E+00

     negative rho (up, down):  1.954E-04 0.000E+00

     negative rho (up, down):  1.954E-04 0.000E+00

     negative rho (up, down):  1.954E-04 0.000E+00

     negative rho (up, down):  1.954E-04 0.000E+00

     negative rho (up, down):  1.954E-04 0.000E+00
 
     Adding external electric field

     Computed dipole along edir(3) : 
        Dipole               -0.2199 Ry au,         -0.5588 Debye
        Dipole field         -0.0005 Ry au
 
        Potential amp.        0.0420 Ry
        Total length         46.5341 bohr
 

     total cpu time spent up to now is      508.3 secs

     End of self-consistent calculation

          k = 0.0000 0.0000 0.0000 ( 23031 PWs)   bands (ev):

   -49.6576 -49.6197 -49.5740 -49.5739 -49.5734 -49.4239 -49.3911 -49.3905
   -49.1684 -49.1267 -49.1061 -49.1059 -28.3719 -28.3338 -28.3322 -28.3320
   -28.2985 -28.2863 -28.2862 -28.2420 -28.2415 -28.2402 -28.2052 -28.0756
   -28.0752 -28.0736 -28.0733 -28.0716 -28.0121 -27.9943 -27.9943 -27.9688
   -27.9686 -27.9160 -27.8842 -27.8842 -27.8749 -27.7849 -27.7845 -27.7232
   -27.7020 -27.6850 -27.6848 -27.6498 -27.6497 -27.6367 -27.5671 -27.5671
    -9.6479  -4.4763  -3.7325  -2.7920  -1.7601  -1.2442  -1.2442  -1.1354
    -1.1354  -1.1197  -0.9954  -0.8997  -0.8996  -0.5759  -0.2233  -0.2233
    -0.1700  -0.0735  -0.0734   0.1890   0.1890   0.2530   0.4250   0.8288
     0.9580   0.9708   0.9709   1.0494   1.3253   1.3254

          k = 0.0000 0.0299 0.0000 ( 23008 PWs)   bands (ev):

   -49.6574 -49.6166 -49.5769 -49.5740 -49.5735 -49.4222 -49.3931 -49.3905
   -49.1662 -49.1269 -49.1078 -49.1060 -28.3708 -28.3210 -28.3196 -28.3109
   -28.2945 -28.2781 -28.2699 -28.2441 -28.2412 -28.2397 -28.1941 -28.0871
   -28.0863 -28.0796 -28.0736 -28.0676 -28.0191 -28.0037 -27.9996 -27.9798
   -27.9669 -27.9232 -27.8766 -27.8755 -27.8604 -27.8018 -27.7862 -27.7196
   -27.7002 -27.6856 -27.6844 -27.6625 -27.6551 -27.6382 -27.5890 -27.5722
    -9.6454  -4.3324  -3.6430  -2.7149  -1.6982  -1.5385  -1.2449  -1.2448
    -1.1262  -1.0996  -0.9270  -0.7498  -0.6988  -0.4679  -0.1773  -0.1553
    -0.1297  -0.0627  -0.0427   0.1909   0.1932   0.3270   0.4393   0.7689
     0.8487   0.8908   0.9007   1.0371   1.2683   1.2763

          k = 0.0000 0.0598 0.0000 ( 22962 PWs)   bands (ev):

   -49.6568 -49.6082 -49.5853 -49.5740 -49.5735 -49.4175 -49.3984 -49.3905
   -49.1614 -49.1277 -49.1119 -49.1061 -28.3688 -28.2906 -28.2894 -28.2836
   -28.2602 -28.2584 -28.2468 -28.2397 -28.2393 -28.2279 -28.1688 -28.1190
   -28.1182 -28.0931 -28.0814 -28.0723 -28.0534 -28.0156 -28.0140 -27.9777
   -27.9653 -27.9365 -27.8732 -27.8585 -27.8326 -27.8012 -27.7879 -27.7154
   -27.6976 -27.6946 -27.6856 -27.6835 -27.6806 -27.6473 -27.6270 -27.5855
    -9.6402  -3.9469  -3.4284  -2.5232  -2.2377  -1.5649  -1.2741  -1.2496
    -1.1507  -0.9358  -0.7640  -0.5509  -0.5025  -0.2449  -0.1425  -0.0451
     0.0063   0.0738   0.0869   0.2905   0.2946   0.3896   0.4707   0.6729
     0.6835   0.6837   0.7173   0.9360   1.0251   1.0323

          k = 0.0000-0.0897 0.0000 ( 23032 PWs)   bands (ev):

   -49.6565 -49.5970 -49.5965 -49.5740 -49.5735 -49.4138 -49.4025 -49.3905
   -49.1586 -49.1284 -49.1140 -49.1061 -28.3678 -28.2703 -28.2695 -28.2693
   -28.2683 -28.2500 -28.2388 -28.2382 -28.2003 -28.1677 -28.1669 -28.1541
   -28.1399 -28.1397 -28.1018 -28.0721 -28.0379 -28.0346 -28.0328 -27.9668
   -27.9550 -27.9416 -27.9005 -27.8479 -27.8159 -27.7863 -27.7453 -27.7246
   -27.7132 -27.7054 -27.6985 -27.6938 -27.6871 -27.6826 -27.6150 -27.5978
    -9.6377  -3.6512  -3.1290  -2.9301  -2.1834  -1.8119  -1.2452  -1.2032
    -1.0245  -0.8132  -0.7217  -0.5323  -0.4466  -0.2442   0.0851   0.0854
     0.1306   0.1960   0.2093   0.2532   0.4088   0.4119   0.4679   0.5174
     0.5533   0.6502   0.7846   0.8090   0.8323   0.8413

          k = 0.0259-0.0149 0.0000 ( 23008 PWs)   bands (ev):

   -49.6574 -49.6166 -49.5769 -49.5739 -49.5736 -49.4222 -49.3927 -49.3910
   -49.1662 -49.1269 -49.1080 -49.1059 -28.3708 -28.3208 -28.3197 -28.3109
   -28.2945 -28.2780 -28.2700 -28.2442 -28.2409 -28.2400 -28.1942 -28.0873
   -28.0862 -28.0792 -28.0739 -28.0676 -28.0191 -28.0038 -27.9996 -27.9800
   -27.9668 -27.9231 -27.8767 -27.8754 -27.8604 -27.8014 -27.7866 -27.7196
   -27.7002 -27.6857 -27.6843 -27.6625 -27.6550 -27.6382 -27.5890 -27.5721
    -9.6454  -4.3324  -3.6430  -2.7149  -1.6982  -1.5385  -1.2449  -1.2448
    -1.1261  -1.0996  -0.9270  -0.7498  -0.6988  -0.4679  -0.1773  -0.1553
    -0.1297  -0.0627  -0.0427   0.1909   0.1931   0.3271   0.4393   0.7689
     0.8487   0.8909   0.9006   1.0372   1.2683   1.2763

          k = 0.0259 0.0149 0.0000 ( 23008 PWs)   bands (ev):

   -49.6574 -49.6166 -49.5769 -49.5740 -49.5735 -49.4222 -49.3928 -49.3908
   -49.1662 -49.1269 -49.1079 -49.1059 -28.3708 -28.3207 -28.3198 -28.3109
   -28.2945 -28.2780 -28.2700 -28.2442 -28.2408 -28.2401 -28.1942 -28.0873
   -28.0861 -28.0794 -28.0738 -28.0676 -28.0191 -28.0038 -27.9996 -27.9800
   -27.9669 -27.9231 -27.8766 -27.8754 -27.8604 -27.8015 -27.7865 -27.7196
   -27.7002 -27.6857 -27.6843 -27.6625 -27.6550 -27.6382 -27.5890 -27.5721
    -9.6454  -4.3324  -3.6430  -2.7149  -1.6982  -1.5385  -1.2449  -1.2448
    -1.1261  -1.0997  -0.9270  -0.7498  -0.6988  -0.4679  -0.1773  -0.1553
    -0.1297  -0.0627  -0.0427   0.1909   0.1931   0.3271   0.4393   0.7689
     0.8487   0.8909   0.9006   1.0372   1.2683   1.2763

          k = 0.0259 0.0448 0.0000 ( 23004 PWs)   bands (ev):

   -49.6569 -49.6109 -49.5797 -49.5794 -49.5711 -49.4189 -49.3968 -49.3906
   -49.1628 -49.1272 -49.1115 -49.1056 -28.3693 -28.3042 -28.2872 -28.2823
   -28.2810 -28.2629 -28.2486 -28.2464 -28.2409 -28.2360 -28.1753 -28.1276
   -28.0909 -28.0753 -28.0743 -28.0711 -28.0604 -28.0108 -28.0023 -27.9922
   -27.9596 -27.9363 -27.8667 -27.8638 -27.8344 -27.8152 -27.7886 -27.7160
   -27.6983 -27.6965 -27.6861 -27.6834 -27.6494 -27.6447 -27.6267 -27.5828
    -9.6415  -4.0652  -3.4916  -2.5641  -1.8426  -1.7937  -1.4808  -1.2495
    -1.0952  -0.8096  -0.8060  -0.5846  -0.5215  -0.3450  -0.1605  -0.0970
    -0.0231   0.0049   0.0748   0.2179   0.2957   0.4148   0.4301   0.6973
     0.6985   0.7040   0.8525   0.9690   1.0396   1.1507

          k = 0.0259-0.1046 0.0000 ( 23012 PWs)   bands (ev):

   -49.6565 -49.6010 -49.5895 -49.5811 -49.5696 -49.4137 -49.4027 -49.3904
   -49.1587 -49.1271 -49.1163 -49.1050 -28.3678 -28.2742 -28.2721 -28.2600
   -28.2549 -28.2441 -28.2428 -28.2335 -28.2136 -28.2085 -28.1747 -28.1518
   -28.1305 -28.1077 -28.0928 -28.0701 -28.0543 -28.0312 -28.0302 -27.9762
   -27.9592 -27.9388 -27.8903 -27.8472 -27.8086 -27.7894 -27.7701 -27.7381
   -27.7138 -27.6966 -27.6928 -27.6883 -27.6827 -27.6611 -27.6281 -27.6011
    -9.6377  -3.6882  -3.2149  -2.5968  -2.2092  -1.9279  -1.6229  -1.2226
    -0.9815  -0.6895  -0.5771  -0.4632  -0.3563  -0.2162  -0.0807  -0.0324
     0.1206   0.1610   0.2542   0.3114   0.3898   0.4356   0.5073   0.5661
     0.6202   0.6620   0.6784   0.7983   0.8206   0.8857

          k = 0.0259-0.0747 0.0000 ( 23012 PWs)   bands (ev):

   -49.6565 -49.6010 -49.5895 -49.5811 -49.5696 -49.4137 -49.4026 -49.3905
   -49.1587 -49.1271 -49.1163 -49.1050 -28.3678 -28.2742 -28.2721 -28.2600
   -28.2549 -28.2441 -28.2428 -28.2335 -28.2136 -28.2085 -28.1747 -28.1518
   -28.1305 -28.1076 -28.0928 -28.0701 -28.0543 -28.0312 -28.0303 -27.9762
   -27.9591 -27.9387 -27.8903 -27.8472 -27.8086 -27.7894 -27.7701 -27.7381
   -27.7138 -27.6966 -27.6928 -27.6883 -27.6827 -27.6611 -27.6281 -27.6011
    -9.6377  -3.6882  -3.2149  -2.5968  -2.2092  -1.9279  -1.6229  -1.2226
    -0.9815  -0.6895  -0.5771  -0.4632  -0.3563  -0.2162  -0.0807  -0.0324
     0.1206   0.1610   0.2542   0.3114   0.3898   0.4356   0.5072   0.5661
     0.6202   0.6620   0.6784   0.7983   0.8206   0.8857

          k = 0.0259-0.0448 0.0000 ( 23004 PWs)   bands (ev):

   -49.6569 -49.6109 -49.5798 -49.5793 -49.5711 -49.4189 -49.3967 -49.3907
   -49.1628 -49.1272 -49.1116 -49.1055 -28.3693 -28.3042 -28.2872 -28.2822
   -28.2810 -28.2628 -28.2486 -28.2464 -28.2409 -28.2360 -28.1753 -28.1276
   -28.0908 -28.0753 -28.0743 -28.0712 -28.0604 -28.0108 -28.0024 -27.9923
   -27.9595 -27.9362 -27.8667 -27.8638 -27.8344 -27.8152 -27.7887 -27.7160
   -27.6983 -27.6965 -27.6861 -27.6834 -27.6494 -27.6447 -27.6267 -27.5828
    -9.6415  -4.0652  -3.4916  -2.5641  -1.8426  -1.7937  -1.4808  -1.2495
    -1.0952  -0.8096  -0.8059  -0.5846  -0.5215  -0.3450  -0.1605  -0.0970
    -0.0231   0.0049   0.0748   0.2179   0.2957   0.4148   0.4301   0.6973
     0.6985   0.7040   0.8525   0.9690   1.0395   1.1508

          k = 0.0518-0.0299 0.0000 ( 22962 PWs)   bands (ev):

   -49.6568 -49.6082 -49.5853 -49.5739 -49.5736 -49.4177 -49.3977 -49.3910
   -49.1614 -49.1276 -49.1121 -49.1059 -28.3688 -28.2903 -28.2896 -28.2836
   -28.2601 -28.2584 -28.2468 -28.2396 -28.2394 -28.2280 -28.1690 -28.1192
   -28.1180 -28.0925 -28.0814 -28.0727 -28.0533 -28.0160 -28.0140 -27.9778
   -27.9655 -27.9361 -27.8728 -27.8587 -27.8325 -27.8011 -27.7883 -27.7154
   -27.6976 -27.6946 -27.6857 -27.6834 -27.6805 -27.6473 -27.6271 -27.5854
    -9.6402  -3.9469  -3.4284  -2.5232  -2.2377  -1.5649  -1.2741  -1.2496
    -1.1508  -0.9358  -0.7640  -0.5509  -0.5025  -0.2449  -0.1425  -0.0452
     0.0063   0.0738   0.0869   0.2905   0.2946   0.3896   0.4707   0.6730
     0.6835   0.6836   0.7173   0.9360   1.0252   1.0321

          k = 0.0518 0.0000 0.0000 ( 23004 PWs)   bands (ev):

   -49.6569 -49.6109 -49.5798 -49.5793 -49.5711 -49.4190 -49.3964 -49.3909
   -49.1628 -49.1272 -49.1117 -49.1055 -28.3693 -28.3042 -28.2872 -28.2823
   -28.2809 -28.2628 -28.2485 -28.2466 -28.2408 -28.2360 -28.1754 -28.1276
   -28.0906 -28.0754 -28.0743 -28.0714 -28.0604 -28.0108 -28.0026 -27.9924
   -27.9593 -27.9361 -27.8667 -27.8637 -27.8344 -27.8150 -27.7889 -27.7159
   -27.6983 -27.6965 -27.6862 -27.6833 -27.6494 -27.6448 -27.6266 -27.5828
    -9.6415  -4.0652  -3.4916  -2.5640  -1.8425  -1.7937  -1.4808  -1.2495
    -1.0952  -0.8096  -0.8059  -0.5846  -0.5215  -0.3450  -0.1605  -0.0970
    -0.0231   0.0049   0.0748   0.2179   0.2957   0.4148   0.4301   0.6973
     0.6985   0.7040   0.8525   0.9690   1.0396   1.1508

          k = 0.0518 0.0299 0.0000 ( 22962 PWs)   bands (ev):

   -49.6568 -49.6082 -49.5853 -49.5740 -49.5735 -49.4177 -49.3979 -49.3909
   -49.1614 -49.1277 -49.1120 -49.1060 -28.3688 -28.2902 -28.2897 -28.2836
   -28.2601 -28.2584 -28.2468 -28.2397 -28.2392 -28.2280 -28.1689 -28.1193
   -28.1179 -28.0927 -28.0814 -28.0726 -28.0533 -28.0159 -28.0140 -27.9778
   -27.9654 -27.9362 -27.8729 -27.8586 -27.8325 -27.8011 -27.7882 -27.7154
   -27.6976 -27.6946 -27.6857 -27.6834 -27.6806 -27.6473 -27.6271 -27.5855
    -9.6402  -3.9469  -3.4284  -2.5232  -2.2377  -1.5649  -1.2741  -1.2496
    -1.1507  -0.9358  -0.7640  -0.5509  -0.5025  -0.2449  -0.1424  -0.0452
     0.0063   0.0738   0.0869   0.2905   0.2946   0.3896   0.4707   0.6730
     0.6835   0.6836   0.7173   0.9360   1.0251   1.0323

          k = 0.0518-0.1196 0.0000 ( 23012 PWs)   bands (ev):

   -49.6565 -49.6010 -49.5895 -49.5811 -49.5696 -49.4139 -49.4023 -49.3906
   -49.1588 -49.1270 -49.1164 -49.1050 -28.3678 -28.2742 -28.2721 -28.2600
   -28.2549 -28.2440 -28.2428 -28.2335 -28.2137 -28.2086 -28.1747 -28.1520
   -28.1305 -28.1074 -28.0928 -28.0702 -28.0543 -28.0313 -28.0303 -27.9761
   -27.9594 -27.9385 -27.8900 -27.8473 -27.8085 -27.7896 -27.7700 -27.7381
   -27.7138 -27.6965 -27.6928 -27.6884 -27.6827 -27.6611 -27.6281 -27.6010
    -9.6377  -3.6882  -3.2148  -2.5968  -2.2091  -1.9279  -1.6230  -1.2226
    -0.9815  -0.6895  -0.5771  -0.4632  -0.3563  -0.2162  -0.0807  -0.0324
     0.1206   0.1610   0.2542   0.3114   0.3898   0.4356   0.5073   0.5661
     0.6201   0.6620   0.6784   0.7983   0.8206   0.8857

          k = 0.0518-0.0897 0.0000 ( 23028 PWs)   bands (ev):

   -49.6564 -49.5913 -49.5912 -49.5906 -49.5680 -49.4087 -49.4079 -49.3904
   -49.1574 -49.1229 -49.1227 -49.1042 -28.3673 -28.2621 -28.2617 -28.2610
   -28.2349 -28.2317 -28.2272 -28.2191 -28.2184 -28.1925 -28.1922 -28.1907
   -28.1303 -28.1237 -28.0693 -28.0617 -28.0601 -28.0592 -28.0352 -27.9761
   -27.9719 -27.9212 -27.9036 -27.8387 -27.7944 -27.7744 -27.7536 -27.7528
   -27.7455 -27.7115 -27.6921 -27.6898 -27.6825 -27.6359 -27.6351 -27.6231
    -9.6365  -3.5786  -2.7499  -2.7191  -2.5671  -1.8401  -1.8115  -1.4313
    -0.8271  -0.7113  -0.2837  -0.2449  -0.2102  -0.2072  -0.1770  -0.1769
     0.2356   0.2921   0.3129   0.3161   0.3998   0.4629   0.5413   0.5867
     0.6013   0.6205   0.6375   0.6803   0.8063   0.8096

          k = 0.0518-0.0598 0.0000 ( 23012 PWs)   bands (ev):

   -49.6565 -49.6010 -49.5895 -49.5811 -49.5696 -49.4140 -49.4021 -49.3907
   -49.1588 -49.1270 -49.1165 -49.1049 -28.3678 -28.2742 -28.2721 -28.2601
   -28.2549 -28.2440 -28.2427 -28.2335 -28.2137 -28.2086 -28.1747 -28.1521
   -28.1305 -28.1072 -28.0928 -28.0703 -28.0543 -28.0313 -28.0304 -27.9762
   -27.9594 -27.9384 -27.8899 -27.8474 -27.8085 -27.7897 -27.7700 -27.7381
   -27.7138 -27.6965 -27.6928 -27.6884 -27.6827 -27.6611 -27.6282 -27.6010
    -9.6377  -3.6882  -3.2149  -2.5968  -2.2091  -1.9279  -1.6229  -1.2226
    -0.9815  -0.6895  -0.5771  -0.4632  -0.3563  -0.2162  -0.0807  -0.0324
     0.1206   0.1610   0.2542   0.3114   0.3898   0.4356   0.5073   0.5661
     0.6201   0.6620   0.6784   0.7983   0.8206   0.8857

          k =-0.0777 0.0448 0.0000 ( 23032 PWs)   bands (ev):

   -49.6565 -49.5969 -49.5967 -49.5739 -49.5736 -49.4143 -49.4015 -49.3910
   -49.1586 -49.1283 -49.1143 -49.1059 -28.3678 -28.2699 -28.2696 -28.2694
   -28.2684 -28.2499 -28.2385 -28.2385 -28.2003 -28.1674 -28.1672 -28.1544
   -28.1402 -28.1394 -28.1010 -28.0725 -28.0384 -28.0343 -28.0332 -27.9672
   -27.9553 -27.9409 -27.8997 -27.8481 -27.8157 -27.7867 -27.7453 -27.7245
   -27.7133 -27.7056 -27.6984 -27.6937 -27.6873 -27.6825 -27.6152 -27.5977
    -9.6377  -3.6512  -3.1290  -2.9302  -2.1834  -1.8119  -1.2452  -1.2032
    -1.0245  -0.8132  -0.7217  -0.5323  -0.4466  -0.2442   0.0852   0.0853
     0.1306   0.1960   0.2092   0.2533   0.4087   0.4120   0.4679   0.5174
     0.5533   0.6503   0.7846   0.8089   0.8322   0.8413

          k =-0.0777 0.0747 0.0000 ( 23012 PWs)   bands (ev):

   -49.6565 -49.6010 -49.5895 -49.5811 -49.5696 -49.4140 -49.4020 -49.3908
   -49.1588 -49.1269 -49.1165 -49.1049 -28.3678 -28.2742 -28.2721 -28.2600
   -28.2549 -28.2440 -28.2427 -28.2335 -28.2136 -28.2086 -28.1747 -28.1522
   -28.1305 -28.1071 -28.0928 -28.0703 -28.0543 -28.0314 -28.0305 -27.9763
   -27.9592 -27.9383 -27.8899 -27.8474 -27.8085 -27.7897 -27.7701 -27.7381
   -27.7138 -27.6966 -27.6928 -27.6885 -27.6826 -27.6611 -27.6282 -27.6010
    -9.6377  -3.6882  -3.2148  -2.5968  -2.2091  -1.9279  -1.6230  -1.2226
    -0.9815  -0.6895  -0.5771  -0.4632  -0.3563  -0.2162  -0.0807  -0.0324
     0.1206   0.1610   0.2542   0.3114   0.3898   0.4356   0.5073   0.5661
     0.6201   0.6620   0.6784   0.7983   0.8206   0.8857

          k =-0.0777 0.1046 0.0000 ( 23012 PWs)   bands (ev):

   -49.6565 -49.6010 -49.5895 -49.5811 -49.5696 -49.4140 -49.4021 -49.3907
   -49.1588 -49.1270 -49.1165 -49.1049 -28.3678 -28.2742 -28.2721 -28.2600
   -28.2549 -28.2440 -28.2428 -28.2335 -28.2136 -28.2086 -28.1747 -28.1521
   -28.1305 -28.1073 -28.0928 -28.0703 -28.0543 -28.0314 -28.0304 -27.9763
   -27.9591 -27.9384 -27.8900 -27.8473 -27.8086 -27.7896 -27.7701 -27.7381
   -27.7138 -27.6966 -27.6928 -27.6884 -27.6827 -27.6611 -27.6281 -27.6010
    -9.6377  -3.6882  -3.2148  -2.5968  -2.2091  -1.9279  -1.6230  -1.2226
    -0.9815  -0.6895  -0.5771  -0.4632  -0.3563  -0.2162  -0.0807  -0.0324
     0.1206   0.1610   0.2542   0.3114   0.3898   0.4356   0.5072   0.5661
     0.6201   0.6620   0.6784   0.7983   0.8206   0.8856

          k =-0.0777-0.0448 0.0000 ( 23032 PWs)   bands (ev):

   -49.6565 -49.5970 -49.5965 -49.5740 -49.5735 -49.4141 -49.4018 -49.3909
   -49.1586 -49.1284 -49.1142 -49.1060 -28.3678 -28.2698 -28.2697 -28.2694
   -28.2684 -28.2500 -28.2387 -28.2383 -28.2003 -28.1674 -28.1673 -28.1543
   -28.1403 -28.1393 -28.1012 -28.0724 -28.0382 -28.0342 -28.0333 -27.9671
   -27.9552 -27.9411 -27.8999 -27.8480 -27.8158 -27.7866 -27.7453 -27.7245
   -27.7132 -27.7055 -27.6984 -27.6937 -27.6873 -27.6825 -27.6152 -27.5977
    -9.6377  -3.6512  -3.1289  -2.9302  -2.1833  -1.8120  -1.2452  -1.2032
    -1.0245  -0.8132  -0.7217  -0.5323  -0.4466  -0.2442   0.0853   0.0853
     0.1306   0.1960   0.2092   0.2533   0.4087   0.4120   0.4679   0.5174
     0.5533   0.6503   0.7846   0.8090   0.8323   0.8413

     the Fermi energy is     0.3319 ev

!    total energy              =   -1150.38660800 Ry
     Harris-Foulkes estimate   =   -1150.38661200 Ry
     estimated scf accuracy    <       0.00000960 Ry

     The total energy is the sum of the following terms:

     one-electron contribution =   -7321.67220505 Ry
     hartree contribution      =    3644.26396668 Ry
     xc contribution           =    -170.70503014 Ry
     ewald contribution        =    2697.85840085 Ry
     electric field correction =       0.00009931 Ry
     smearing contrib. (-TS)   =      -0.13183966 Ry

     convergence has been achieved in  18 iterations
 
 BEEF-vdW xc energy contributions
           1 :   -144.618891665363     
           2 :    127.247284818836     
           3 :   -100.191351997372     
           4 :    73.9098629380439     
           5 :   -55.7238539006217     
           6 :    46.8872295142320     
           7 :   -43.8682176550976     
           8 :    42.0565005178260     
           9 :   -38.9204833404803     
          10 :    34.7441715354862     
          11 :   -31.1856144981331     
          12 :    29.3095637279594     
          13 :   -28.6943331087860     
          14 :    28.0387255499724     
          15 :   -26.4436709338513     
          16 :    24.1466980278277     
          17 :   -22.1471806321202     
          18 :    21.1956439354828     
          19 :   -21.1248750274118     
          20 :    21.0811447274720     
          21 :   -20.3444299676275     
          22 :    18.9400866834345     
          23 :   -17.5277193852486     
          24 :    16.7469789432857     
          25 :   -16.6543751258566     
          26 :    16.7332608606230     
          27 :   -16.4079255265452     
          28 :    15.5573184721302     
          29 :   -14.5736377580504     
          30 :    13.9565362570646     
          31 :   -17.1393754786628     
          32 :   -12.2862880974758     

     Forces acting on atoms (Ry/au):


     negative rho (up, down):  1.954E-04 0.000E+00
     atom    1 type  1   force =     0.00001861   -0.00003247    0.00137126
     atom    2 type  1   force =    -0.00001654   -0.00096107    0.00236099
     atom    3 type  1   force =    -0.00080782    0.00048880    0.00243255
     atom    4 type  1   force =     0.00080843    0.00050915    0.00242020
     atom    5 type  1   force =    -0.00276413    0.00150891   -0.00168216
     atom    6 type  1   force =     0.00276734    0.00154561   -0.00170863
     atom    7 type  1   force =     0.00003118    0.00007171   -0.01005234
     atom    8 type  1   force =    -0.00002831   -0.00311895   -0.00163179
     atom    9 type  1   force =     0.04839660    0.02792413    0.03397230
     atom   10 type  1   force =    -0.04840160    0.02793972    0.03398298
     atom   11 type  1   force =     0.00001257   -0.05589930    0.03399575
     atom   12 type  1   force =    -0.00001029    0.00001398    0.00710394
     atom   13 type  2   force =    -0.00000655    0.00000994   -0.09961921
     atom   14 type  3   force =     0.00000051   -0.00000016   -0.00294583

     Total force =     0.151056     Total SCF correction =     0.001942


     entering subroutine stress ...


     negative rho (up, down):  1.954E-04 0.000E+00
          total   stress  (Ry/bohr**3)                   (kbar)     P=   -3.00
  -0.00000075  -0.00000000  -0.00000000         -0.11     -0.00     -0.00
  -0.00000000  -0.00000076   0.00000001         -0.00     -0.11      0.00
  -0.00000000   0.00000001  -0.00005965         -0.00      0.00     -8.77


     BFGS Geometry Optimization

     number of scf cycles    =   1
     number of bfgs steps    =   0

     energy   new            =   -1150.3866080001 Ry

     new trust radius        =       0.0996192126 bohr
     new conv_thr            =       0.0000099958 Ry


ATOMIC_POSITIONS (crystal)
Sc1      0.166666667   0.166666667   0.395942884    0   0   0
Sc1      0.666666667   0.166666667   0.395942884    0   0   0
Sc1      0.166666667   0.666666667   0.395942884    0   0   0
Sc1      0.666666667   0.666666667   0.395942884    0   0   0
Sc1      0.833333333   0.333333333   0.500000000    0   0   0
Sc1      0.333333333   0.333333333   0.500000000    0   0   0
Sc1      0.833333333   0.833333333   0.500000000    0   0   0
Sc1      0.333333333   0.833333333   0.500000000    0   0   0
Sc1      0.002653060   0.002650546   0.604768917
Sc1      0.494695243   0.002652025   0.604769140
Sc1      0.002654001   0.494694064   0.604769408
Sc1      0.499998491   0.500001327   0.604205960
C1       0.166665657   0.166667610   0.665281122
H1       0.166666716   0.166666652   0.710860378



     Writing output data file calc.save
     Check: negative starting charge=   -0.000264
     NEW-OLD atomic charge density approx. for the potential
     Check: negative starting charge=   -0.000262

     negative rho (up, down):  1.715E-04 0.000E+00
 
     Adding external electric field

     Computed dipole along edir(3) : 
        Dipole               -0.2196 Ry au,         -0.5582 Debye
        Dipole field         -0.0005 Ry au
 
        Potential amp.        0.0420 Ry
        Total length         46.5341 bohr
 

     total cpu time spent up to now is      584.1 secs

     per-process dynamical memory:    88.0 Mb

     Self-consistent Calculation

     iteration #  1     ecut=    36.75 Ry     beta=0.30
     Davidson diagonalization with overlap
     ethr =  1.00E-06,  avg # of iterations = 14.4

     negative rho (up, down):  1.715E-04 0.000E+00
 
     Adding external electric field

     Computed dipole along edir(3) : 
        Dipole               -0.0692 Ry au,         -0.1758 Debye
        Dipole field         -0.0001 Ry au
 
        Potential amp.        0.0132 Ry
        Total length         46.5341 bohr
 

     total cpu time spent up to now is      623.6 secs

     total energy              =   -1150.40195304 Ry
     Harris-Foulkes estimate   =   -1150.40679696 Ry
     estimated scf accuracy    <       0.01143838 Ry

     iteration #  2     ecut=    36.75 Ry     beta=0.30
     Davidson diagonalization with overlap
     ethr =  8.35E-06,  avg # of iterations =  8.7

     negative rho (up, down):  2.257E-04 0.000E+00
 
     Adding external electric field

     Computed dipole along edir(3) : 
        Dipole               -0.2430 Ry au,         -0.6176 Debye
        Dipole field         -0.0005 Ry au
 
        Potential amp.        0.0465 Ry
        Total length         46.5341 bohr
 

     total cpu time spent up to now is      652.9 secs

     total energy              =   -1150.38611068 Ry
     Harris-Foulkes estimate   =   -1150.41843396 Ry
     estimated scf accuracy    <       1.11757625 Ry

     iteration #  3     ecut=    36.75 Ry     beta=0.30
     Davidson diagonalization with overlap
     ethr =  8.35E-06,  avg # of iterations =  9.1

     negative rho (up, down):  2.543E-04 0.000E+00
 
     Adding external electric field

     Computed dipole along edir(3) : 
        Dipole               -0.1752 Ry au,         -0.4454 Debye
        Dipole field         -0.0004 Ry au
 
        Potential amp.        0.0335 Ry
        Total length         46.5341 bohr
 

     total cpu time spent up to now is      681.6 secs

     total energy              =   -1150.39970319 Ry
     Harris-Foulkes estimate   =   -1150.40877999 Ry
     estimated scf accuracy    <       0.26640168 Ry

     iteration #  4     ecut=    36.75 Ry     beta=0.30
     Davidson diagonalization with overlap
     ethr =  8.35E-06,  avg # of iterations =  9.2

     negative rho (up, down):  2.597E-04 0.000E+00
 
     Adding external electric field

     Computed dipole along edir(3) : 
        Dipole               -0.1756 Ry au,         -0.4462 Debye
        Dipole field         -0.0004 Ry au
 
        Potential amp.        0.0336 Ry
        Total length         46.5341 bohr
 

     total cpu time spent up to now is      709.3 secs

     total energy              =   -1150.40369511 Ry
     Harris-Foulkes estimate   =   -1150.40577646 Ry
     estimated scf accuracy    <       0.01941069 Ry

     iteration #  5     ecut=    36.75 Ry     beta=0.30
     Davidson diagonalization with overlap
     ethr =  8.35E-06,  avg # of iterations =  7.2

     negative rho (up, down):  2.411E-04 0.000E+00
 
     Adding external electric field

     Computed dipole along edir(3) : 
        Dipole               -0.1804 Ry au,         -0.4587 Debye
        Dipole field         -0.0004 Ry au
 
        Potential amp.        0.0345 Ry
        Total length         46.5341 bohr
 

     total cpu time spent up to now is      733.9 secs

     total energy              =   -1150.40461361 Ry
     Harris-Foulkes estimate   =   -1150.40507082 Ry
     estimated scf accuracy    <       0.00304921 Ry

     iteration #  6     ecut=    36.75 Ry     beta=0.30
     Davidson diagonalization with overlap
     ethr =  2.23E-06,  avg # of iterations =  5.5

     negative rho (up, down):  2.148E-04 0.000E+00
 
     Adding external electric field

     Computed dipole along edir(3) : 
        Dipole               -0.1874 Ry au,         -0.4762 Debye
        Dipole field         -0.0004 Ry au
 
        Potential amp.        0.0358 Ry
        Total length         46.5341 bohr
 

     total cpu time spent up to now is      757.7 secs

     total energy              =   -1150.40486386 Ry
     Harris-Foulkes estimate   =   -1150.40489840 Ry
     estimated scf accuracy    <       0.00025747 Ry

     iteration #  7     ecut=    36.75 Ry     beta=0.30
     Davidson diagonalization with overlap
     ethr =  1.88E-07,  avg # of iterations =  9.2

     negative rho (up, down):  1.979E-04 0.000E+00
 
     Adding external electric field

     Computed dipole along edir(3) : 
        Dipole               -0.1858 Ry au,         -0.4723 Debye
        Dipole field         -0.0004 Ry au
 
        Potential amp.        0.0355 Ry
        Total length         46.5341 bohr
 

     total cpu time spent up to now is      786.2 secs

     total energy              =   -1150.40491625 Ry
     Harris-Foulkes estimate   =   -1150.40492248 Ry
     estimated scf accuracy    <       0.00008202 Ry

     iteration #  8     ecut=    36.75 Ry     beta=0.30
     Davidson diagonalization with overlap
     ethr =  5.99E-08,  avg # of iterations =  3.9

     negative rho (up, down):  1.952E-04 0.000E+00
 
     Adding external electric field

     Computed dipole along edir(3) : 
        Dipole               -0.1881 Ry au,         -0.4782 Debye
        Dipole field         -0.0004 Ry au
 
        Potential amp.        0.0360 Ry
        Total length         46.5341 bohr
 

     total cpu time spent up to now is      809.0 secs

     total energy              =   -1150.40492603 Ry
     Harris-Foulkes estimate   =   -1150.40492329 Ry
     estimated scf accuracy    <       0.00002501 Ry

     iteration #  9     ecut=    36.75 Ry     beta=0.30
     Davidson diagonalization with overlap
     ethr =  1.83E-08,  avg # of iterations =  4.7

     negative rho (up, down):  1.983E-04 0.000E+00

     negative rho (up, down):  1.983E-04 0.000E+00

     negative rho (up, down):  1.983E-04 0.000E+00

     negative rho (up, down):  1.983E-04 0.000E+00

     negative rho (up, down):  1.983E-04 0.000E+00

     negative rho (up, down):  1.983E-04 0.000E+00

     negative rho (up, down):  1.983E-04 0.000E+00

     negative rho (up, down):  1.983E-04 0.000E+00

     negative rho (up, down):  1.983E-04 0.000E+00

     negative rho (up, down):  1.983E-04 0.000E+00

     negative rho (up, down):  1.983E-04 0.000E+00

     negative rho (up, down):  1.983E-04 0.000E+00

     negative rho (up, down):  1.983E-04 0.000E+00

     negative rho (up, down):  1.983E-04 0.000E+00

     negative rho (up, down):  1.983E-04 0.000E+00

     negative rho (up, down):  1.983E-04 0.000E+00

     negative rho (up, down):  1.983E-04 0.000E+00

     negative rho (up, down):  1.983E-04 0.000E+00

     negative rho (up, down):  1.983E-04 0.000E+00

     negative rho (up, down):  1.983E-04 0.000E+00

     negative rho (up, down):  1.983E-04 0.000E+00

     negative rho (up, down):  1.983E-04 0.000E+00

     negative rho (up, down):  1.983E-04 0.000E+00

     negative rho (up, down):  1.983E-04 0.000E+00

     negative rho (up, down):  1.983E-04 0.000E+00

     negative rho (up, down):  1.983E-04 0.000E+00

     negative rho (up, down):  1.983E-04 0.000E+00

     negative rho (up, down):  1.983E-04 0.000E+00

     negative rho (up, down):  1.983E-04 0.000E+00

     negative rho (up, down):  1.983E-04 0.000E+00

     negative rho (up, down):  1.983E-04 0.000E+00

     negative rho (up, down):  1.983E-04 0.000E+00

     negative rho (up, down):  1.983E-04 0.000E+00

     negative rho (up, down):  1.983E-04 0.000E+00

     negative rho (up, down):  1.983E-04 0.000E+00
 
     Adding external electric field

     Computed dipole along edir(3) : 
        Dipole               -0.1848 Ry au,         -0.4697 Debye
        Dipole field         -0.0004 Ry au
 
        Potential amp.        0.0353 Ry
        Total length         46.5341 bohr
 

     total cpu time spent up to now is      894.0 secs

     End of self-consistent calculation

          k = 0.0000 0.0000 0.0000 ( 23031 PWs)   bands (ev):

   -49.6329 -49.5840 -49.5413 -49.5373 -49.5347 -49.3742 -49.3406 -49.3397
   -49.1601 -49.1030 -49.0773 -49.0767 -28.3509 -28.2981 -28.2969 -28.2962
   -28.2632 -28.2541 -28.2539 -28.2082 -28.2056 -28.2031 -28.1626 -28.0390
   -28.0379 -28.0345 -28.0291 -28.0285 -27.9657 -27.9585 -27.9584 -27.9287
   -27.9283 -27.8671 -27.8605 -27.8603 -27.8454 -27.7366 -27.7360 -27.7208
   -27.6719 -27.6543 -27.6537 -27.6300 -27.6299 -27.6082 -27.5414 -27.5412
    -9.4559  -4.4367  -3.7136  -2.7874  -1.7462  -1.2617  -1.2616  -1.1047
    -1.1046  -1.0837  -0.9592  -0.8784  -0.8781  -0.5293  -0.1892  -0.1891
    -0.1309  -0.0710  -0.0709   0.2184   0.2185   0.3075   0.4588   0.8450
     0.9906   1.0053   1.0056   1.1055   1.3482   1.3482

          k = 0.0000 0.0299 0.0000 ( 23008 PWs)   bands (ev):

   -49.6326 -49.5810 -49.5432 -49.5373 -49.5359 -49.3724 -49.3427 -49.3397
   -49.1587 -49.1024 -49.0791 -49.0768 -28.3500 -28.2849 -28.2845 -28.2753
   -28.2592 -28.2463 -28.2381 -28.2098 -28.2048 -28.2036 -28.1515 -28.0514
   -28.0502 -28.0333 -28.0317 -28.0269 -27.9828 -27.9638 -27.9576 -27.9375
   -27.9260 -27.8748 -27.8530 -27.8515 -27.8312 -27.7592 -27.7381 -27.7129
   -27.6699 -27.6551 -27.6533 -27.6430 -27.6327 -27.6119 -27.5630 -27.5462
    -9.4526  -4.2944  -3.6279  -2.7076  -1.6833  -1.5139  -1.2476  -1.2379
    -1.0945  -1.0848  -0.8944  -0.7328  -0.6874  -0.4281  -0.1488  -0.1210
    -0.1069  -0.0384  -0.0381   0.2248   0.2273   0.3815   0.4731   0.7879
     0.8834   0.9247   0.9355   1.0901   1.2998   1.3019

          k = 0.0000 0.0598 0.0000 ( 22962 PWs)   bands (ev):

   -49.6321 -49.5727 -49.5503 -49.5374 -49.5372 -49.3678 -49.3478 -49.3397
   -49.1560 -49.1007 -49.0837 -49.0768 -28.3482 -28.2545 -28.2544 -28.2482
   -28.2294 -28.2233 -28.2115 -28.2036 -28.2032 -28.1979 -28.1263 -28.0836
   -28.0821 -28.0474 -28.0446 -28.0250 -28.0175 -27.9782 -27.9695 -27.9311
   -27.9220 -27.8887 -27.8363 -27.8358 -27.8017 -27.7764 -27.7415 -27.7079
   -27.6764 -27.6657 -27.6562 -27.6545 -27.6516 -27.6201 -27.6047 -27.5588
    -9.4462  -3.9168  -3.4179  -2.5052  -2.2095  -1.5515  -1.2503  -1.2372
    -1.1199  -0.9434  -0.7472  -0.5403  -0.4981  -0.2372  -0.1127  -0.0148
     0.0362   0.1007   0.1258   0.3246   0.3323   0.4189   0.5240   0.7017
     0.7158   0.7185   0.7538   0.9861   1.0555   1.0708

          k = 0.0000-0.0897 0.0000 ( 23032 PWs)   bands (ev):

   -49.6318 -49.5623 -49.5604 -49.5375 -49.5373 -49.3642 -49.3517 -49.3397
   -49.1545 -49.0992 -49.0866 -49.0768 -28.3473 -28.2349 -28.2347 -28.2336
   -28.2326 -28.2197 -28.2026 -28.2023 -28.1734 -28.1321 -28.1309 -28.1123
   -28.1038 -28.1034 -28.0550 -28.0243 -27.9980 -27.9978 -27.9892 -27.9215
   -27.9073 -27.8949 -27.8580 -27.8247 -27.7862 -27.7423 -27.7368 -27.7092
   -27.6907 -27.6788 -27.6695 -27.6632 -27.6574 -27.6517 -27.5957 -27.5686
    -9.4430  -3.6424  -3.0970  -2.9060  -2.1632  -1.7901  -1.2296  -1.1776
    -1.0085  -0.8341  -0.6970  -0.5084  -0.4423  -0.2621   0.1198   0.1205
     0.1686   0.2265   0.2393   0.2854   0.4429   0.4481   0.5065   0.5473
     0.5910   0.6841   0.8370   0.8431   0.8700   0.8754

          k = 0.0259-0.0149 0.0000 ( 23008 PWs)   bands (ev):

   -49.6326 -49.5810 -49.5427 -49.5385 -49.5352 -49.3725 -49.3420 -49.3403
   -49.1587 -49.1024 -49.0791 -49.0768 -28.3500 -28.2854 -28.2839 -28.2753
   -28.2592 -28.2461 -28.2383 -28.2094 -28.2059 -28.2028 -28.1515 -28.0522
   -28.0494 -28.0328 -28.0318 -28.0274 -27.9828 -27.9637 -27.9577 -27.9377
   -27.9257 -27.8746 -27.8531 -27.8515 -27.8312 -27.7588 -27.7386 -27.7128
   -27.6699 -27.6551 -27.6533 -27.6430 -27.6327 -27.6119 -27.5630 -27.5462
    -9.4526  -4.2944  -3.6279  -2.7076  -1.6833  -1.5139  -1.2476  -1.2379
    -1.0944  -1.0848  -0.8944  -0.7329  -0.6873  -0.4280  -0.1488  -0.1210
    -0.1069  -0.0384  -0.0382   0.2247   0.2274   0.3815   0.4731   0.7879
     0.8834   0.9251   0.9352   1.0902   1.2999   1.3018

          k = 0.0259 0.0149 0.0000 ( 23008 PWs)   bands (ev):

   -49.6326 -49.5810 -49.5425 -49.5389 -49.5350 -49.3725 -49.3421 -49.3403
   -49.1587 -49.1025 -49.0786 -49.0773 -28.3500 -28.2856 -28.2837 -28.2753
   -28.2592 -28.2462 -28.2382 -28.2092 -28.2064 -28.2026 -28.1515 -28.0523
   -28.0492 -28.0328 -28.0318 -28.0274 -27.9828 -27.9637 -27.9577 -27.9377
   -27.9257 -27.8746 -27.8529 -27.8517 -27.8312 -27.7588 -27.7386 -27.7128
   -27.6700 -27.6546 -27.6537 -27.6429 -27.6330 -27.6117 -27.5628 -27.5464
    -9.4526  -4.2944  -3.6279  -2.7076  -1.6833  -1.5139  -1.2476  -1.2379
    -1.0944  -1.0848  -0.8944  -0.7329  -0.6873  -0.4280  -0.1488  -0.1209
    -0.1069  -0.0384  -0.0382   0.2247   0.2274   0.3815   0.4731   0.7879
     0.8834   0.9251   0.9351   1.0902   1.2999   1.3018

          k = 0.0259 0.0448 0.0000 ( 23004 PWs)   bands (ev):

   -49.6322 -49.5754 -49.5461 -49.5417 -49.5344 -49.3692 -49.3461 -49.3399
   -49.1567 -49.1012 -49.0824 -49.0768 -28.3487 -28.2687 -28.2518 -28.2463
   -28.2459 -28.2317 -28.2159 -28.2102 -28.2081 -28.2001 -28.1326 -28.0919
   -28.0451 -28.0390 -28.0372 -28.0253 -28.0241 -27.9749 -27.9576 -27.9457
   -27.9174 -27.8876 -27.8416 -27.8343 -27.8056 -27.7820 -27.7423 -27.7082
   -27.6755 -27.6669 -27.6556 -27.6528 -27.6285 -27.6199 -27.5988 -27.5568
    -9.4478  -4.0316  -3.4812  -2.5508  -1.8192  -1.7625  -1.4634  -1.2418
    -1.0893  -0.8136  -0.7713  -0.5602  -0.5277  -0.3115  -0.1424  -0.0693
     0.0104   0.0253   0.1056   0.2552   0.3290   0.4480   0.4859   0.7213
     0.7325   0.7388   0.8861   1.0177   1.0780   1.1811

          k = 0.0259-0.1046 0.0000 ( 23012 PWs)   bands (ev):

   -49.6318 -49.5656 -49.5543 -49.5444 -49.5332 -49.3642 -49.3518 -49.3397
   -49.1546 -49.0986 -49.0878 -49.0763 -28.3474 -28.2390 -28.2366 -28.2252
   -28.2199 -28.2121 -28.2079 -28.1975 -28.1836 -28.1750 -28.1390 -28.1101
   -28.0944 -28.0615 -28.0550 -28.0231 -28.0184 -27.9952 -27.9825 -27.9308
   -27.9122 -27.8916 -27.8478 -27.8224 -27.7799 -27.7594 -27.7412 -27.7137
   -27.7046 -27.6701 -27.6631 -27.6579 -27.6521 -27.6351 -27.6060 -27.5737
    -9.4430  -3.6742  -3.1940  -2.5673  -2.1887  -1.8998  -1.6034  -1.2152
    -0.9695  -0.7047  -0.5509  -0.4635  -0.3330  -0.2138  -0.0462  -0.0013
     0.1542   0.1872   0.2911   0.3406   0.4251   0.4695   0.5404   0.6051
     0.6503   0.6966   0.7165   0.8324   0.8699   0.9169

          k = 0.0259-0.0747 0.0000 ( 23012 PWs)   bands (ev):

   -49.6318 -49.5656 -49.5544 -49.5443 -49.5332 -49.3642 -49.3517 -49.3397
   -49.1546 -49.0984 -49.0880 -49.0762 -28.3474 -28.2390 -28.2366 -28.2253
   -28.2198 -28.2121 -28.2078 -28.1975 -28.1836 -28.1750 -28.1390 -28.1101
   -28.0944 -28.0615 -28.0550 -28.0231 -28.0184 -27.9952 -27.9825 -27.9308
   -27.9122 -27.8916 -27.8478 -27.8224 -27.7799 -27.7595 -27.7411 -27.7135
   -27.7046 -27.6705 -27.6630 -27.6581 -27.6520 -27.6350 -27.6059 -27.5736
    -9.4430  -3.6742  -3.1940  -2.5673  -2.1887  -1.8998  -1.6034  -1.2152
    -0.9695  -0.7047  -0.5509  -0.4635  -0.3330  -0.2138  -0.0462  -0.0013
     0.1542   0.1871   0.2911   0.3406   0.4251   0.4695   0.5404   0.6051
     0.6503   0.6966   0.7165   0.8324   0.8700   0.9168

          k = 0.0259-0.0448 0.0000 ( 23004 PWs)   bands (ev):

   -49.6322 -49.5753 -49.5464 -49.5412 -49.5345 -49.3692 -49.3461 -49.3399
   -49.1567 -49.1011 -49.0829 -49.0765 -28.3487 -28.2686 -28.2518 -28.2464
   -28.2458 -28.2316 -28.2160 -28.2102 -28.2078 -28.2003 -28.1327 -28.0919
   -28.0451 -28.0390 -28.0371 -28.0254 -28.0241 -27.9749 -27.9576 -27.9457
   -27.9174 -27.8876 -27.8417 -27.8343 -27.8055 -27.7820 -27.7424 -27.7082
   -27.6753 -27.6668 -27.6560 -27.6524 -27.6285 -27.6202 -27.5988 -27.5567
    -9.4478  -4.0316  -3.4812  -2.5508  -1.8191  -1.7625  -1.4634  -1.2418
    -1.0893  -0.8136  -0.7713  -0.5602  -0.5277  -0.3115  -0.1424  -0.0693
     0.0104   0.0253   0.1056   0.2553   0.3290   0.4480   0.4859   0.7213
     0.7326   0.7388   0.8861   1.0176   1.0780   1.1812

          k = 0.0518-0.0299 0.0000 ( 22962 PWs)   bands (ev):

   -49.6321 -49.5728 -49.5498 -49.5395 -49.5355 -49.3681 -49.3469 -49.3404
   -49.1560 -49.1007 -49.0837 -49.0768 -28.3482 -28.2556 -28.2532 -28.2483
   -28.2293 -28.2231 -28.2113 -28.2056 -28.2015 -28.1981 -28.1265 -28.0846
   -28.0810 -28.0469 -28.0443 -28.0255 -28.0176 -27.9782 -27.9700 -27.9312
   -27.9221 -27.8881 -27.8360 -27.8359 -27.8016 -27.7762 -27.7421 -27.7079
   -27.6764 -27.6657 -27.6562 -27.6545 -27.6516 -27.6201 -27.6047 -27.5587
    -9.4462  -3.9168  -3.4179  -2.5052  -2.2095  -1.5516  -1.2502  -1.2373
    -1.1199  -0.9434  -0.7472  -0.5403  -0.4981  -0.2372  -0.1125  -0.0151
     0.0362   0.1008   0.1257   0.3245   0.3324   0.4189   0.5240   0.7017
     0.7162   0.7179   0.7538   0.9862   1.0554   1.0709

          k = 0.0518 0.0000 0.0000 ( 23004 PWs)   bands (ev):

   -49.6322 -49.5754 -49.5449 -49.5431 -49.5341 -49.3694 -49.3455 -49.3404
   -49.1567 -49.1012 -49.0825 -49.0768 -28.3487 -28.2687 -28.2519 -28.2465
   -28.2456 -28.2316 -28.2155 -28.2107 -28.2082 -28.1999 -28.1328 -28.0919
   -28.0446 -28.0389 -28.0373 -28.0254 -28.0244 -27.9749 -27.9580 -27.9460
   -27.9169 -27.8874 -27.8416 -27.8343 -27.8056 -27.7817 -27.7428 -27.7082
   -27.6755 -27.6669 -27.6556 -27.6527 -27.6285 -27.6199 -27.5988 -27.5568
    -9.4478  -4.0316  -3.4812  -2.5508  -1.8191  -1.7626  -1.4633  -1.2419
    -1.0893  -0.8136  -0.7713  -0.5602  -0.5277  -0.3115  -0.1423  -0.0693
     0.0104   0.0254   0.1056   0.2552   0.3290   0.4480   0.4860   0.7213
     0.7325   0.7389   0.8861   1.0177   1.0779   1.1811

          k = 0.0518 0.0299 0.0000 ( 22962 PWs)   bands (ev):

   -49.6321 -49.5728 -49.5495 -49.5400 -49.5351 -49.3681 -49.3470 -49.3403
   -49.1560 -49.1009 -49.0830 -49.0773 -28.3482 -28.2560 -28.2528 -28.2483
   -28.2293 -28.2230 -28.2113 -28.2061 -28.2011 -28.1981 -28.1265 -28.0848
   -28.0807 -28.0469 -28.0444 -28.0255 -28.0176 -27.9781 -27.9700 -27.9312
   -27.9221 -27.8881 -27.8361 -27.8357 -27.8018 -27.7763 -27.7420 -27.7079
   -27.6762 -27.6659 -27.6556 -27.6549 -27.6520 -27.6199 -27.6044 -27.5590
    -9.4462  -3.9168  -3.4179  -2.5052  -2.2095  -1.5516  -1.2502  -1.2373
    -1.1199  -0.9434  -0.7473  -0.5404  -0.4980  -0.2371  -0.1125  -0.0152
     0.0362   0.1008   0.1257   0.3245   0.3324   0.4189   0.5240   0.7017
     0.7163   0.7178   0.7538   0.9862   1.0553   1.0708

          k = 0.0518-0.1196 0.0000 ( 23012 PWs)   bands (ev):

   -49.6318 -49.5659 -49.5535 -49.5451 -49.5330 -49.3645 -49.3512 -49.3400
   -49.1545 -49.0988 -49.0873 -49.0765 -28.3474 -28.2391 -28.2367 -28.2246
   -28.2198 -28.2122 -28.2082 -28.1973 -28.1836 -28.1750 -28.1391 -28.1104
   -28.0943 -28.0612 -28.0547 -28.0233 -28.0185 -27.9951 -27.9828 -27.9307
   -27.9126 -27.8911 -27.8473 -27.8223 -27.7801 -27.7596 -27.7412 -27.7136
   -27.7045 -27.6703 -27.6633 -27.6576 -27.6523 -27.6350 -27.6056 -27.5739
    -9.4430  -3.6743  -3.1939  -2.5675  -2.1885  -1.8998  -1.6036  -1.2151
    -0.9694  -0.7048  -0.5508  -0.4636  -0.3329  -0.2137  -0.0465  -0.0010
     0.1541   0.1871   0.2911   0.3407   0.4252   0.4695   0.5404   0.6050
     0.6501   0.6967   0.7167   0.8323   0.8700   0.9167

          k = 0.0518-0.0897 0.0000 ( 23028 PWs)   bands (ev):

   -49.6317 -49.5591 -49.5546 -49.5522 -49.5316 -49.3612 -49.3549 -49.3398
   -49.1539 -49.0941 -49.0935 -49.0758 -28.3469 -28.2298 -28.2256 -28.2230
   -28.2007 -28.1958 -28.1915 -28.1905 -28.1888 -28.1579 -28.1567 -28.1538
   -28.0938 -28.0693 -28.0268 -28.0250 -28.0240 -28.0207 -27.9863 -27.9330
   -27.9216 -27.8685 -27.8657 -27.8063 -27.7771 -27.7402 -27.7287 -27.7278
   -27.7196 -27.7011 -27.6617 -27.6592 -27.6519 -27.6127 -27.6120 -27.5939
    -9.4414  -3.5758  -2.7199  -2.6865  -2.5403  -1.8244  -1.7916  -1.4083
    -0.8479  -0.7122  -0.2543  -0.2350  -0.2146  -0.1858  -0.1441  -0.1423
     0.2672   0.3288   0.3291   0.3469   0.4264   0.5025   0.5680   0.6213
     0.6334   0.6635   0.6653   0.7055   0.8408   0.8797

          k = 0.0518-0.0598 0.0000 ( 23012 PWs)   bands (ev):

   -49.6318 -49.5658 -49.5539 -49.5448 -49.5331 -49.3645 -49.3511 -49.3400
   -49.1546 -49.0984 -49.0880 -49.0762 -28.3474 -28.2391 -28.2367 -28.2249
   -28.2197 -28.2121 -28.2081 -28.1974 -28.1836 -28.1750 -28.1391 -28.1104
   -28.0943 -28.0612 -28.0547 -28.0233 -28.0185 -27.9951 -27.9828 -27.9307
   -27.9126 -27.8911 -27.8473 -27.8225 -27.7799 -27.7596 -27.7412 -27.7135
   -27.7045 -27.6705 -27.6630 -27.6582 -27.6519 -27.6350 -27.6059 -27.5736
    -9.4430  -3.6743  -3.1939  -2.5674  -2.1886  -1.8999  -1.6036  -1.2151
    -0.9695  -0.7048  -0.5508  -0.4636  -0.3330  -0.2137  -0.0464  -0.0011
     0.1541   0.1871   0.2911   0.3407   0.4252   0.4696   0.5404   0.6050
     0.6502   0.6966   0.7167   0.8323   0.8700   0.9168

          k =-0.0777 0.0448 0.0000 ( 23032 PWs)   bands (ev):

   -49.6318 -49.5635 -49.5589 -49.5396 -49.5355 -49.3648 -49.3505 -49.3404
   -49.1545 -49.0992 -49.0866 -49.0768 -28.3473 -28.2362 -28.2356 -28.2323
   -28.2314 -28.2197 -28.2045 -28.2006 -28.1734 -28.1333 -28.1298 -28.1129
   -28.1054 -28.1018 -28.0539 -28.0249 -27.9995 -27.9964 -27.9898 -27.9220
   -27.9078 -27.8940 -27.8569 -27.8249 -27.7861 -27.7429 -27.7367 -27.7091
   -27.6907 -27.6788 -27.6695 -27.6632 -27.6574 -27.6517 -27.5958 -27.5686
    -9.4430  -3.6424  -3.0968  -2.9063  -2.1629  -1.7903  -1.2296  -1.1776
    -1.0083  -0.8341  -0.6971  -0.5085  -0.4422  -0.2620   0.1194   0.1209
     0.1685   0.2265   0.2391   0.2857   0.4428   0.4484   0.5067   0.5470
     0.5911   0.6841   0.8371   0.8431   0.8700   0.8752

          k =-0.0777 0.0747 0.0000 ( 23012 PWs)   bands (ev):

   -49.6318 -49.5659 -49.5535 -49.5452 -49.5330 -49.3647 -49.3508 -49.3402
   -49.1546 -49.0985 -49.0878 -49.0763 -28.3474 -28.2391 -28.2367 -28.2245
   -28.2200 -28.2121 -28.2082 -28.1973 -28.1836 -28.1751 -28.1390 -28.1105
   -28.0944 -28.0611 -28.0546 -28.0234 -28.0184 -27.9951 -27.9830 -27.9310
   -27.9122 -27.8910 -27.8473 -27.8225 -27.7799 -27.7595 -27.7414 -27.7138
   -27.7046 -27.6701 -27.6631 -27.6579 -27.6521 -27.6351 -27.6060 -27.5736
    -9.4430  -3.6743  -3.1939  -2.5674  -2.1886  -1.8997  -1.6036  -1.2152
    -0.9694  -0.7048  -0.5509  -0.4636  -0.3329  -0.2137  -0.0464  -0.0011
     0.1542   0.1872   0.2911   0.3407   0.4251   0.4695   0.5404   0.6052
     0.6501   0.6967   0.7166   0.8324   0.8699   0.9168

          k =-0.0777 0.1046 0.0000 ( 23012 PWs)   bands (ev):

   -49.6318 -49.5659 -49.5533 -49.5454 -49.5329 -49.3646 -49.3509 -49.3402
   -49.1545 -49.0988 -49.0873 -49.0765 -28.3474 -28.2392 -28.2367 -28.2243
   -28.2200 -28.2121 -28.2083 -28.1972 -28.1836 -28.1751 -28.1390 -28.1105
   -28.0944 -28.0611 -28.0547 -28.0234 -28.0185 -27.9951 -27.9830 -27.9310
   -27.9122 -27.8910 -27.8473 -27.8223 -27.7802 -27.7596 -27.7413 -27.7136
   -27.7045 -27.6704 -27.6633 -27.6576 -27.6523 -27.6350 -27.6056 -27.5739
    -9.4430  -3.6743  -3.1939  -2.5675  -2.1886  -1.8997  -1.6037  -1.2152
    -0.9693  -0.7048  -0.5509  -0.4636  -0.3329  -0.2138  -0.0464  -0.0010
     0.1542   0.1871   0.2911   0.3407   0.4252   0.4695   0.5404   0.6051
     0.6501   0.6968   0.7165   0.8324   0.8700   0.9167

          k =-0.0777-0.0448 0.0000 ( 23032 PWs)   bands (ev):

   -49.6318 -49.5638 -49.5584 -49.5402 -49.5352 -49.3648 -49.3505 -49.3404
   -49.1545 -49.0997 -49.0857 -49.0773 -28.3473 -28.2366 -28.2359 -28.2319
   -28.2309 -28.2197 -28.2050 -28.2003 -28.1734 -28.1336 -28.1294 -28.1129
   -28.1058 -28.1015 -28.0540 -28.0248 -27.9999 -27.9960 -27.9898 -27.9219
   -27.9078 -27.8940 -27.8570 -27.8246 -27.7866 -27.7428 -27.7367 -27.7092
   -27.6910 -27.6780 -27.6699 -27.6636 -27.6566 -27.6521 -27.5952 -27.5691
    -9.4430  -3.6424  -3.0967  -2.9064  -2.1628  -1.7904  -1.2296  -1.1775
    -1.0082  -0.8341  -0.6973  -0.5085  -0.4421  -0.2620   0.1193   0.1210
     0.1686   0.2266   0.2391   0.2857   0.4429   0.4484   0.5068   0.5468
     0.5912   0.6841   0.8371   0.8432   0.8700   0.8751

     the Fermi energy is     0.3658 ev

!    total energy              =   -1150.40492755 Ry
     Harris-Foulkes estimate   =   -1150.40493201 Ry
     estimated scf accuracy    <       0.00000884 Ry

     The total energy is the sum of the following terms:

     one-electron contribution =   -7316.13511206 Ry
     hartree contribution      =    3641.62250932 Ry
     xc contribution           =    -170.70584512 Ry
     ewald contribution        =    2694.94400558 Ry
     electric field correction =       0.00007014 Ry
     smearing contrib. (-TS)   =      -0.13055541 Ry

     convergence has been achieved in   9 iterations
 
 BEEF-vdW xc energy contributions
           1 :   -144.623001237912     
           2 :    127.262455440492     
           3 :   -100.221837593600     
           4 :    73.9506744027301     
           5 :   -55.7627131252092     
           6 :    46.9103186985000     
           7 :   -43.8679875669550     
           8 :    42.0360491122593     
           9 :   -38.8905169441979     
          10 :    34.7151925940719     
          11 :   -31.1621330252678     
          12 :    29.2904431150170     
          13 :   -28.6774327547869     
          14 :    28.0259318750230     
          15 :   -26.4429600626962     
          16 :    24.1672765169189     
          17 :   -22.1897444431148     
          18 :    21.2478359657511     
          19 :   -21.1677435200450     
          20 :    21.1020648293388     
          21 :   -20.3462955096720     
          22 :    18.9386343072296     
          23 :   -17.5390216216410     
          24 :    16.7755604998371     
          25 :   -16.6913791400191     
          26 :    16.7654929321345     
          27 :   -16.4292683231502     
          28 :    15.5719601579270     
          29 :   -14.5879635982307     
          30 :    13.9675183747228     
          31 :   -17.1398756504800     
          32 :   -12.2893896123923     

     Forces acting on atoms (Ry/au):


     negative rho (up, down):  1.983E-04 0.000E+00
     atom    1 type  1   force =     0.00005602   -0.00000129    0.00136467
     atom    2 type  1   force =    -0.00006476   -0.00113392    0.00242571
     atom    3 type  1   force =    -0.00099082    0.00053836    0.00255212
     atom    4 type  1   force =     0.00097960    0.00061326    0.00253943
     atom    5 type  1   force =    -0.00268539    0.00101207   -0.00106635
     atom    6 type  1   force =     0.00267416    0.00108492   -0.00111874
     atom    7 type  1   force =     0.00006115    0.00051301   -0.00863266
     atom    8 type  1   force =    -0.00007273   -0.00261158   -0.00076344
     atom    9 type  1   force =     0.03799374    0.02191141    0.02923859
     atom   10 type  1   force =    -0.03796270    0.02200505    0.02921132
     atom   11 type  1   force =     0.00009797   -0.04392856    0.02932109
     atom   12 type  1   force =    -0.00007285   -0.00000563    0.00508903
     atom   13 type  2   force =    -0.00000774    0.00000691   -0.03362635
     atom   14 type  3   force =    -0.00000567   -0.00000401   -0.05653442

     Total force =     0.112692     Total SCF correction =     0.002311


     entering subroutine stress ...


     negative rho (up, down):  1.983E-04 0.000E+00
          total   stress  (Ry/bohr**3)                   (kbar)     P=   -3.53
   0.00000192  -0.00000000  -0.00000000          0.28     -0.00     -0.00
  -0.00000000   0.00000192   0.00000001         -0.00      0.28      0.00
  -0.00000000   0.00000001  -0.00007582         -0.00      0.00    -11.15


     number of scf cycles    =   2
     number of bfgs steps    =   1

     energy   old            =   -1150.3866080001 Ry
     energy   new            =   -1150.4049275544 Ry

     CASE: energy  _new < energy  _old

     new trust radius        =       0.1095811338 bohr
     new conv_thr            =       0.0000001000 Ry


ATOMIC_POSITIONS (crystal)
Sc1      0.166666667   0.166666667   0.395942884    0   0   0
Sc1      0.666666667   0.166666667   0.395942884    0   0   0
Sc1      0.166666667   0.666666667   0.395942884    0   0   0
Sc1      0.666666667   0.666666667   0.395942884    0   0   0
Sc1      0.833333333   0.333333333   0.500000000    0   0   0
Sc1      0.333333333   0.333333333   0.500000000    0   0   0
Sc1      0.833333333   0.833333333   0.500000000    0   0   0
Sc1      0.333333333   0.833333333   0.500000000    0   0   0
Sc1      0.007021272   0.007012681   0.606011020
Sc1      0.485961709   0.007026690   0.606010637
Sc1      0.007035359   0.485953675   0.606014075
Sc1      0.499990080   0.500001452   0.604437638
C1       0.166663770   0.166669053   0.663065255
H1       0.166666386   0.166666145   0.709274579



     Writing output data file calc.save
     Check: negative starting charge=   -0.000262
     NEW-OLD atomic charge density approx. for the potential
     Check: negative starting charge=   -0.000262

     negative rho (up, down):  1.871E-04 0.000E+00
 
     Adding external electric field

     Computed dipole along edir(3) : 
        Dipole               -0.1843 Ry au,         -0.4685 Debye
        Dipole field         -0.0004 Ry au
 
        Potential amp.        0.0352 Ry
        Total length         46.5341 bohr
 

     total cpu time spent up to now is      976.1 secs

     per-process dynamical memory:    88.0 Mb

     Self-consistent Calculation

     iteration #  1     ecut=    36.75 Ry     beta=0.30
     Davidson diagonalization with overlap
     ethr =  1.00E-06,  avg # of iterations = 16.9

     negative rho (up, down):  1.775E-04 0.000E+00
 
     Adding external electric field

     Computed dipole along edir(3) : 
        Dipole               -0.0913 Ry au,         -0.2320 Debye
        Dipole field         -0.0002 Ry au
 
        Potential amp.        0.0175 Ry
        Total length         46.5341 bohr
 

     total cpu time spent up to now is     1020.8 secs

     total energy              =   -1150.41625376 Ry
     Harris-Foulkes estimate   =   -1150.42963976 Ry
     estimated scf accuracy    <       0.03105812 Ry

     iteration #  2     ecut=    36.75 Ry     beta=0.30
     Davidson diagonalization with overlap
     ethr =  2.27E-05,  avg # of iterations =  7.8

     negative rho (up, down):  2.387E-04 0.000E+00
 
     Adding external electric field

     Computed dipole along edir(3) : 
        Dipole               -0.3411 Ry au,         -0.8671 Debye
        Dipole field         -0.0007 Ry au
 
        Potential amp.        0.0652 Ry
        Total length         46.5341 bohr
 

     total cpu time spent up to now is     1049.6 secs

     total energy              =   -1150.39747262 Ry
     Harris-Foulkes estimate   =   -1150.43810805 Ry
     estimated scf accuracy    <       0.58676941 Ry

     iteration #  3     ecut=    36.75 Ry     beta=0.30
     Davidson diagonalization with overlap
     ethr =  2.27E-05,  avg # of iterations =  8.5

     negative rho (up, down):  3.010E-04 0.000E+00
 
     Adding external electric field

     Computed dipole along edir(3) : 
        Dipole               -0.1073 Ry au,         -0.2727 Debye
        Dipole field         -0.0002 Ry au
 
        Potential amp.        0.0205 Ry
        Total length         46.5341 bohr
 

     total cpu time spent up to now is     1078.2 secs

     total energy              =   -1150.38698933 Ry
     Harris-Foulkes estimate   =   -1150.45437254 Ry
     estimated scf accuracy    <       3.12523315 Ry

     iteration #  4     ecut=    36.75 Ry     beta=0.30
     Davidson diagonalization with overlap
     ethr =  2.27E-05,  avg # of iterations =  9.8

     negative rho (up, down):  3.029E-04 0.000E+00
 
     Adding external electric field

     Computed dipole along edir(3) : 
        Dipole               -0.1136 Ry au,         -0.2887 Debye
        Dipole field         -0.0002 Ry au
 
        Potential amp.        0.0217 Ry
        Total length         46.5341 bohr
 

     total cpu time spent up to now is     1107.3 secs

     total energy              =   -1150.42077303 Ry
     Harris-Foulkes estimate   =   -1150.42816268 Ry
     estimated scf accuracy    <       0.11084838 Ry

     iteration #  5     ecut=    36.75 Ry     beta=0.30
     Davidson diagonalization with overlap
     ethr =  2.27E-05,  avg # of iterations =  9.0

     negative rho (up, down):  2.757E-04 0.000E+00
 
     Adding external electric field

     Computed dipole along edir(3) : 
        Dipole               -0.1271 Ry au,         -0.3230 Debye
        Dipole field         -0.0003 Ry au
 
        Potential amp.        0.0243 Ry
        Total length         46.5341 bohr
 

     total cpu time spent up to now is     1134.0 secs

     total energy              =   -1150.42428289 Ry
     Harris-Foulkes estimate   =   -1150.42471630 Ry
     estimated scf accuracy    <       0.00266244 Ry

     iteration #  6     ecut=    36.75 Ry     beta=0.30
     Davidson diagonalization with overlap
     ethr =  1.94E-06,  avg # of iterations =  9.2

     negative rho (up, down):  2.524E-04 0.000E+00
 
     Adding external electric field

     Computed dipole along edir(3) : 
        Dipole               -0.1321 Ry au,         -0.3357 Debye
        Dipole field         -0.0003 Ry au
 
        Potential amp.        0.0253 Ry
        Total length         46.5341 bohr
 

[...]
   -27.5259 -27.5154 -27.5107 -27.5025 -27.4949 -27.4775 -27.4694 -27.4309
    -9.8150  -3.8392  -3.0888  -2.4371  -2.0902  -1.7802  -1.5065  -1.2356
    -0.9473  -0.7030  -0.4814  -0.3656  -0.1896  -0.1138   0.1221   0.1556
     0.3098   0.3338   0.4548   0.4820   0.5844   0.6282   0.6927   0.7578
     0.7820   0.8493   0.8885   0.9859   1.0262   1.0627

          k = 0.0259-0.0747 0.0000 ( 23012 PWs)   bands (ev):

   -49.4540 -49.4086 -49.3947 -49.3851 -49.3734 -49.1018 -49.0804 -49.0697
   -49.0571 -48.9558 -48.9448 -48.9336 -28.1835 -28.0811 -28.0784 -28.0654
   -28.0592 -28.0486 -28.0370 -28.0282 -28.0180 -28.0020 -27.9807 -27.9375
   -27.8995 -27.8762 -27.8605 -27.8365 -27.8080 -27.7837 -27.7437 -27.7168
   -27.7015 -27.6817 -27.6588 -27.6424 -27.6308 -27.6207 -27.5756 -27.5337
   -27.5260 -27.5153 -27.5108 -27.5025 -27.4949 -27.4775 -27.4694 -27.4309
    -9.8150  -3.8392  -3.0888  -2.4371  -2.0902  -1.7802  -1.5065  -1.2356
    -0.9474  -0.7030  -0.4814  -0.3656  -0.1896  -0.1138   0.1221   0.1556
     0.3099   0.3338   0.4548   0.4821   0.5843   0.6282   0.6927   0.7579
     0.7820   0.8493   0.8885   0.9859   1.0261   1.0627

          k = 0.0259-0.0448 0.0000 ( 23004 PWs)   bands (ev):

   -49.4543 -49.4173 -49.3886 -49.3813 -49.3745 -49.1057 -49.0758 -49.0698
   -49.0583 -48.9598 -48.9396 -48.9338 -28.1848 -28.1104 -28.0930 -28.0881
   -28.0869 -28.0559 -28.0483 -28.0425 -28.0398 -28.0252 -27.9337 -27.8978
   -27.8818 -27.8795 -27.8657 -27.8164 -27.8000 -27.7894 -27.7393 -27.7313
   -27.7213 -27.6856 -27.6695 -27.6613 -27.6282 -27.6226 -27.5454 -27.5236
   -27.5154 -27.5121 -27.5010 -27.4893 -27.4813 -27.4693 -27.4550 -27.4160
    -9.8213  -4.0426  -3.5034  -2.4602  -1.7450  -1.6298  -1.3793  -1.2738
    -1.0706  -0.7360  -0.6211  -0.5182  -0.4167  -0.1302  -0.0155   0.0686
     0.1570   0.1820   0.2747   0.4243   0.4776   0.5949   0.7007   0.8232
     0.8901   0.9010   1.0409   1.1641   1.2571   1.2925

          k = 0.0518-0.0299 0.0000 ( 22962 PWs)   bands (ev):

   -49.4542 -49.4148 -49.3916 -49.3798 -49.3755 -49.1046 -49.0771 -49.0698
   -49.0578 -48.9588 -48.9407 -48.9339 -28.1843 -28.0979 -28.0941 -28.0895
   -28.0641 -28.0534 -28.0451 -28.0421 -28.0398 -28.0143 -27.9270 -27.9220
   -27.8936 -27.8851 -27.8593 -27.8196 -27.8020 -27.7875 -27.7419 -27.7231
   -27.7197 -27.6773 -27.6715 -27.6526 -27.6290 -27.6264 -27.5488 -27.5251
   -27.5174 -27.5141 -27.5104 -27.4976 -27.4770 -27.4755 -27.4647 -27.4170
    -9.8192  -3.9704  -3.4078  -2.4135  -2.0641  -1.5192  -1.3146  -1.1283
    -0.9560  -0.9043  -0.6899  -0.4349  -0.4079  -0.1376   0.0515   0.1260
     0.1933   0.2588   0.3040   0.4755   0.5040   0.5633   0.7153   0.8161
     0.8726   0.8778   0.9193   1.1192   1.2210   1.2406

          k = 0.0518 0.0000 0.0000 ( 23004 PWs)   bands (ev):

   -49.4543 -49.4173 -49.3887 -49.3813 -49.3745 -49.1057 -49.0758 -49.0698
   -49.0583 -48.9598 -48.9396 -48.9338 -28.1848 -28.1104 -28.0930 -28.0881
   -28.0869 -28.0559 -28.0483 -28.0425 -28.0398 -28.0252 -27.9337 -27.8978
   -27.8818 -27.8795 -27.8657 -27.8164 -27.8000 -27.7894 -27.7393 -27.7314
   -27.7213 -27.6856 -27.6695 -27.6613 -27.6282 -27.6226 -27.5454 -27.5236
   -27.5154 -27.5121 -27.5010 -27.4893 -27.4814 -27.4693 -27.4550 -27.4160
    -9.8213  -4.0426  -3.5034  -2.4602  -1.7450  -1.6299  -1.3793  -1.2738
    -1.0706  -0.7360  -0.6211  -0.5182  -0.4167  -0.1302  -0.0155   0.0686
     0.1570   0.1820   0.2747   0.4243   0.4776   0.5949   0.7007   0.8232
     0.8901   0.9010   1.0409   1.1641   1.2571   1.2925

          k = 0.0518 0.0299 0.0000 ( 22962 PWs)   bands (ev):

   -49.4542 -49.4148 -49.3915 -49.3798 -49.3755 -49.1046 -49.0771 -49.0699
   -49.0578 -48.9589 -48.9407 -48.9340 -28.1843 -28.0979 -28.0941 -28.0895
   -28.0640 -28.0534 -28.0452 -28.0421 -28.0398 -28.0143 -27.9270 -27.9220
   -27.8936 -27.8851 -27.8593 -27.8196 -27.8019 -27.7876 -27.7420 -27.7231
   -27.7197 -27.6773 -27.6715 -27.6526 -27.6290 -27.6264 -27.5488 -27.5251
   -27.5175 -27.5140 -27.5105 -27.4975 -27.4769 -27.4755 -27.4647 -27.4170
    -9.8192  -3.9704  -3.4078  -2.4135  -2.0641  -1.5193  -1.3146  -1.1283
    -0.9560  -0.9043  -0.6899  -0.4349  -0.4078  -0.1376   0.0515   0.1260
     0.1932   0.2588   0.3040   0.4755   0.5040   0.5633   0.7152   0.8161
     0.8726   0.8778   0.9193   1.1191   1.2210   1.2406

          k = 0.0518-0.1196 0.0000 ( 23012 PWs)   bands (ev):

   -49.4540 -49.4086 -49.3947 -49.3851 -49.3734 -49.1018 -49.0803 -49.0697
   -49.0571 -48.9558 -48.9448 -48.9336 -28.1835 -28.0811 -28.0784 -28.0654
   -28.0593 -28.0486 -28.0370 -28.0283 -28.0180 -28.0020 -27.9807 -27.9375
   -27.8995 -27.8762 -27.8605 -27.8365 -27.8079 -27.7837 -27.7437 -27.7168
   -27.7014 -27.6816 -27.6588 -27.6424 -27.6308 -27.6207 -27.5756 -27.5336
   -27.5259 -27.5154 -27.5107 -27.5025 -27.4949 -27.4775 -27.4694 -27.4309
    -9.8150  -3.8392  -3.0888  -2.4371  -2.0902  -1.7802  -1.5065  -1.2356
    -0.9474  -0.7030  -0.4814  -0.3656  -0.1896  -0.1139   0.1221   0.1556
     0.3099   0.3338   0.4548   0.4821   0.5843   0.6282   0.6927   0.7578
     0.7820   0.8493   0.8885   0.9859   1.0263   1.0626

          k = 0.0518-0.0897 0.0000 ( 23028 PWs)   bands (ev):

   -49.4539 -49.4041 -49.3929 -49.3928 -49.3721 -49.0999 -49.0825 -49.0696
   -49.0567 -48.9508 -48.9505 -48.9332 -28.1831 -28.0743 -28.0641 -28.0622
   -28.0407 -28.0349 -28.0335 -28.0120 -28.0074 -27.9997 -27.9987 -27.9938
   -27.8695 -27.8684 -27.8675 -27.8612 -27.8106 -27.7835 -27.7403 -27.7103
   -27.7070 -27.6673 -27.6589 -27.6499 -27.6309 -27.5900 -27.5862 -27.5745
   -27.5287 -27.5177 -27.5109 -27.4990 -27.4822 -27.4765 -27.4760 -27.4489
    -9.8129  -3.7840  -2.5983  -2.5374  -2.3905  -1.7809  -1.7159  -1.2478
    -0.9590  -0.7563  -0.1720  -0.1622  -0.1029  -0.0365   0.0272   0.0538
     0.3931   0.4559   0.4938   0.5030   0.5662   0.6583   0.7051   0.7781
     0.7875   0.8183   0.8245   0.8317   0.9941   1.0174

          k = 0.0518-0.0598 0.0000 ( 23012 PWs)   bands (ev):

   -49.4540 -49.4086 -49.3947 -49.3851 -49.3734 -49.1018 -49.0804 -49.0697
   -49.0571 -48.9558 -48.9449 -48.9336 -28.1835 -28.0811 -28.0784 -28.0654
   -28.0592 -28.0486 -28.0370 -28.0283 -28.0180 -28.0020 -27.9807 -27.9375
   -27.8995 -27.8762 -27.8605 -27.8365 -27.8080 -27.7837 -27.7437 -27.7168
   -27.7015 -27.6817 -27.6588 -27.6424 -27.6308 -27.6207 -27.5756 -27.5337
   -27.5259 -27.5153 -27.5108 -27.5025 -27.4949 -27.4775 -27.4694 -27.4309
    -9.8150  -3.8392  -3.0888  -2.4371  -2.0902  -1.7802  -1.5064  -1.2355
    -0.9474  -0.7030  -0.4814  -0.3656  -0.1896  -0.1138   0.1221   0.1556
     0.3099   0.3338   0.4548   0.4820   0.5843   0.6282   0.6927   0.7579
     0.7820   0.8493   0.8885   0.9859   1.0261   1.0627

          k =-0.0777 0.0448 0.0000 ( 23032 PWs)   bands (ev):

   -49.4540 -49.4072 -49.3986 -49.3805 -49.3756 -49.1018 -49.0802 -49.0698
   -49.0570 -48.9562 -48.9441 -48.9339 -28.1835 -28.0787 -28.0783 -28.0730
   -28.0707 -28.0452 -28.0400 -28.0337 -27.9953 -27.9765 -27.9693 -27.9481
   -27.9428 -27.8785 -27.8422 -27.8368 -27.8080 -27.7837 -27.7493 -27.7157
   -27.6987 -27.6713 -27.6645 -27.6408 -27.6335 -27.6229 -27.5540 -27.5368
   -27.5275 -27.5273 -27.5117 -27.5109 -27.5051 -27.4758 -27.4624 -27.4243
    -9.8150  -3.8296  -2.9564  -2.7760  -2.0887  -1.6533  -1.2790  -1.1021
    -0.9120  -0.8599  -0.5662  -0.3517  -0.3370  -0.2610   0.2788   0.2810
     0.3432   0.3785   0.3806   0.4423   0.6033   0.6068   0.6724   0.7049
     0.7398   0.8210   0.9738   1.0264   1.0422   1.0506

          k =-0.0777 0.0747 0.0000 ( 23012 PWs)   bands (ev):

   -49.4540 -49.4086 -49.3947 -49.3851 -49.3734 -49.1018 -49.0804 -49.0697
   -49.0571 -48.9558 -48.9449 -48.9336 -28.1835 -28.0811 -28.0784 -28.0654
   -28.0592 -28.0486 -28.0370 -28.0283 -28.0180 -28.0020 -27.9807 -27.9375
   -27.8995 -27.8762 -27.8605 -27.8365 -27.8080 -27.7837 -27.7437 -27.7168
   -27.7014 -27.6817 -27.6588 -27.6424 -27.6308 -27.6207 -27.5756 -27.5337
   -27.5260 -27.5153 -27.5108 -27.5025 -27.4949 -27.4775 -27.4694 -27.4309
    -9.8150  -3.8392  -3.0888  -2.4371  -2.0902  -1.7802  -1.5065  -1.2356
    -0.9473  -0.7030  -0.4814  -0.3656  -0.1896  -0.1138   0.1221   0.1556
     0.3099   0.3338   0.4548   0.4820   0.5844   0.6282   0.6927   0.7578
     0.7820   0.8493   0.8885   0.9859   1.0261   1.0627

          k =-0.0777 0.1046 0.0000 ( 23012 PWs)   bands (ev):

   -49.4540 -49.4086 -49.3947 -49.3851 -49.3734 -49.1018 -49.0803 -49.0697
   -49.0571 -48.9558 -48.9448 -48.9336 -28.1835 -28.0811 -28.0784 -28.0654
   -28.0592 -28.0486 -28.0370 -28.0283 -28.0180 -28.0020 -27.9807 -27.9375
   -27.8995 -27.8762 -27.8605 -27.8365 -27.8079 -27.7837 -27.7437 -27.7168
   -27.7014 -27.6817 -27.6588 -27.6424 -27.6308 -27.6207 -27.5756 -27.5337
   -27.5260 -27.5153 -27.5108 -27.5025 -27.4949 -27.4775 -27.4694 -27.4309
    -9.8150  -3.8392  -3.0888  -2.4371  -2.0902  -1.7802  -1.5065  -1.2356
    -0.9474  -0.7030  -0.4814  -0.3656  -0.1896  -0.1139   0.1220   0.1556
     0.3099   0.3338   0.4547   0.4821   0.5843   0.6282   0.6927   0.7578
     0.7820   0.8493   0.8885   0.9859   1.0262   1.0626

          k =-0.0777-0.0448 0.0000 ( 23032 PWs)   bands (ev):

   -49.4540 -49.4072 -49.3986 -49.3805 -49.3755 -49.1018 -49.0801 -49.0699
   -49.0570 -48.9562 -48.9440 -48.9340 -28.1835 -28.0787 -28.0783 -28.0730
   -28.0706 -28.0452 -28.0400 -28.0337 -27.9953 -27.9765 -27.9693 -27.9481
   -27.9428 -27.8785 -27.8423 -27.8367 -27.8079 -27.7837 -27.7493 -27.7156
   -27.6987 -27.6713 -27.6645 -27.6409 -27.6335 -27.6229 -27.5540 -27.5368
   -27.5275 -27.5273 -27.5117 -27.5110 -27.5050 -27.4758 -27.4623 -27.4244
    -9.8150  -3.8295  -2.9564  -2.7760  -2.0888  -1.6533  -1.2790  -1.1022
    -0.9120  -0.8598  -0.5662  -0.3517  -0.3370  -0.2610   0.2788   0.2810
     0.3431   0.3786   0.3807   0.4423   0.6033   0.6068   0.6723   0.7049
     0.7397   0.8210   0.9737   1.0264   1.0421   1.0507

     the Fermi energy is     0.5217 ev

!    total energy              =   -1150.44273169 Ry
     Harris-Foulkes estimate   =   -1150.44273168 Ry
     estimated scf accuracy    <       0.00000004 Ry

     The total energy is the sum of the following terms:

     one-electron contribution =   -7324.18759538 Ry
     hartree contribution      =    3646.42546660 Ry
     xc contribution           =    -170.91875091 Ry
     ewald contribution        =    2698.36821611 Ry
     electric field correction =       0.00000339 Ry
     smearing contrib. (-TS)   =      -0.13007150 Ry

     convergence has been achieved in   9 iterations
 
 BEEF-vdW xc energy contributions
           1 :   -144.829002859520     
           2 :    127.498592426672     
           3 :   -100.488041287083     
           4 :    74.2138675983800     
           5 :   -55.9711518731402     
           6 :    47.0166799959399     
           7 :   -43.8566326244541     
           8 :    41.9373302915178     
           9 :   -38.7661959839755     
          10 :    34.6183842744484     
          11 :   -31.1004363953013     
          12 :    29.2249508807736     
          13 :   -28.5624985707803     
          14 :    27.8572695690449     
          15 :   -26.2713603868872     
          16 :    24.0631491698698     
          17 :   -22.1864047135975     
          18 :    21.3125391340567     
          19 :   -21.2266584618339     
          20 :    21.0973325965713     
          21 :   -20.2756331974908     
          22 :    18.8450788389521     
          23 :   -17.4635313838329     
          24 :    16.7181503243106     
          25 :   -16.6159204384624     
          26 :    16.6402977843416     
          27 :   -16.2629106982548     
          28 :    15.4104712354900     
          29 :   -14.4776227940833     
          30 :    13.9195975887635     
          31 :   -17.1532893346573     
          32 :   -12.3092846611447     

     Forces acting on atoms (Ry/au):


     negative rho (up, down):  2.033E-04 0.000E+00
     atom    1 type  1   force =    -0.00000699    0.00000233    0.00146169
     atom    2 type  1   force =     0.00000893   -0.00166428    0.00303013
     atom    3 type  1   force =    -0.00144220    0.00083647    0.00302717
     atom    4 type  1   force =     0.00144341    0.00082687    0.00303744
     atom    5 type  1   force =    -0.00227876    0.00129682   -0.00069532
     atom    6 type  1   force =     0.00227484    0.00130616   -0.00070284
     atom    7 type  1   force =     0.00000891    0.00001138   -0.00866634
     atom    8 type  1   force =    -0.00000993   -0.00261735   -0.00069475
     atom    9 type  1   force =    -0.00002286    0.00000592    0.00003580
     atom   10 type  1   force =     0.00001545   -0.00003906    0.00003896
     atom   11 type  1   force =    -0.00004242    0.00004243    0.00002681
     atom   12 type  1   force =     0.00004018    0.00000202    0.00009936
     atom   13 type  2   force =     0.00001521   -0.00000740    0.00001737
     atom   14 type  3   force =    -0.00000375   -0.00000231   -0.00001548

     Total force =     0.000148     Total SCF correction =     0.000238
     SCF correction compared to forces is large: reduce conv_thr to get better values


     entering subroutine stress ...


     negative rho (up, down):  2.033E-04 0.000E+00
          total   stress  (Ry/bohr**3)                   (kbar)     P=    3.25
   0.00003902   0.00000001   0.00000000          5.74      0.00      0.00
   0.00000001   0.00003901  -0.00000000          0.00      5.74     -0.00
   0.00000000  -0.00000000  -0.00001172          0.00     -0.00     -1.72


     bfgs converged in  17 scf cycles and  16 bfgs steps
     (criteria: energy <  1.0E+00, force <  1.9E-03)

     End of BFGS Geometry Optimization

     Final energy   =   -1150.4427316896 Ry
Begin final coordinates

ATOMIC_POSITIONS (crystal)
Sc1      0.166666667   0.166666667   0.395942884    0   0   0
Sc1      0.666666667   0.166666667   0.395942884    0   0   0
Sc1      0.166666667   0.666666667   0.395942884    0   0   0
Sc1      0.666666667   0.666666667   0.395942884    0   0   0
Sc1      0.833333333   0.333333333   0.500000000    0   0   0
Sc1      0.333333333   0.333333333   0.500000000    0   0   0
Sc1      0.833333333   0.833333333   0.500000000    0   0   0
Sc1      0.333333333   0.833333333   0.500000000    0   0   0
Sc1      0.006857488   0.006839449   0.606996430
Sc1      0.486276047   0.006880637   0.606993332
Sc1      0.006890015   0.486274942   0.606996700
Sc1      0.499980010   0.500000543   0.603812980
C1       0.166654574   0.166658812   0.655471891
H1       0.166670482   0.166670692   0.699157502
End final coordinates



     Writing output data file calc.save
 
     init_run     :     14.78s CPU     15.45s WALL (       1 calls)
     electrons    :   6426.60s CPU   6975.40s WALL (      17 calls)
     update_pot   :     59.18s CPU     62.91s WALL (      16 calls)
     forces       :    315.04s CPU    334.56s WALL (      17 calls)
     stress       :    929.86s CPU    993.50s WALL (      17 calls)

     Called by init_run:
     wfcinit      :      6.01s CPU      6.13s WALL (       1 calls)
     potinit      :      2.56s CPU      2.90s WALL (       1 calls)

     Called by electrons:
     c_bands      :   2593.76s CPU   2837.37s WALL (     216 calls)
     sum_band     :   1227.47s CPU   1324.14s WALL (     216 calls)
     v_of_rho     :    426.23s CPU    464.13s WALL (     231 calls)
     newd         :   1116.36s CPU   1133.88s WALL (     231 calls)
     mix_rho      :     15.41s CPU     15.80s WALL (     216 calls)
     vdW_energy   :    219.69s CPU    242.06s WALL (     843 calls)
     vdW_ffts     :    566.49s CPU    589.29s WALL (    1720 calls)
     vdW_v        :    228.84s CPU    234.53s WALL (     843 calls)

     Called by c_bands:
     init_us_2    :     15.33s CPU     15.43s WALL (    2335 calls)
     cegterg      :   2133.52s CPU   2192.73s WALL (    1080 calls)

     Called by *egterg:
     h_psi        :   1383.27s CPU   1414.56s WALL (    7582 calls)
     s_psi        :    139.46s CPU    139.76s WALL (    7582 calls)
     g_psi        :      8.91s CPU      8.96s WALL (    6497 calls)
     cdiaghg      :    206.48s CPU    207.72s WALL (    7487 calls)

     Called by h_psi:
     add_vuspsi   :    142.83s CPU    143.20s WALL (    7582 calls)

     General routines
     calbec       :    209.53s CPU    213.16s WALL (    8832 calls)
     fft          :    896.73s CPU    965.78s WALL (   51021 calls)
     ffts         :      1.01s CPU      1.07s WALL (     447 calls)
     fftw         :    818.82s CPU    850.77s WALL (  548654 calls)
     interpolate  :      9.52s CPU     10.04s WALL (     447 calls)
     davcio       :      0.00s CPU      0.03s WALL (       5 calls)
 
     Parallel routines
     fft_scatter  :   1031.69s CPU   1130.93s WALL (  600122 calls)
 
     PWSCF        :     2h10m CPU        2h21m WALL

 
   This run was terminated on:  22:45:16  22Apr2018            

=------------------------------------------------------------------------------=
   JOB DONE.
=------------------------------------------------------------------------------=
Job  /afs/slac/g/suncat/bin/suncat-tsmpirun -x LD_LIBRARY_PATH -wdir /scratch/qe309140_wf27P pw.x -npool 4 -in pw.inp

TID   HOST_NAME   COMMAND_LINE            STATUS            TERMINATION_TIME
===== ========== ================  =======================  ===================
00000 suncat0226 pw.x -npool 4 -i  Done                     04/22/2018 22:45:16
00001 suncat0226 pw.x -npool 4 -i  Done                     04/22/2018 22:45:16
00002 suncat0226 pw.x -npool 4 -i  Done                     04/22/2018 22:45:16
00003 suncat0226 pw.x -npool 4 -i  Done                     04/22/2018 22:45:16
00004 suncat0226 pw.x -npool 4 -i  Done                     04/22/2018 22:45:16
00005 suncat0226 pw.x -npool 4 -i  Done                     04/22/2018 22:45:16
00006 suncat0226 pw.x -npool 4 -i  Done                     04/22/2018 22:45:16
00007 suncat0226 pw.x -npool 4 -i  Done                     04/22/2018 22:45:16
00008 suncat0225 pw.x -npool 4 -i  Done                     04/22/2018 22:45:16
00009 suncat0225 pw.x -npool 4 -i  Done                     04/22/2018 22:45:16
00010 suncat0225 pw.x -npool 4 -i  Done                     04/22/2018 22:45:16
00011 suncat0225 pw.x -npool 4 -i  Done                     04/22/2018 22:45:16
00012 suncat0225 pw.x -npool 4 -i  Done                     04/22/2018 22:45:16
00013 suncat0225 pw.x -npool 4 -i  Done                     04/22/2018 22:45:16
00014 suncat0225 pw.x -npool 4 -i  Done                     04/22/2018 22:45:16
00015 suncat0225 pw.x -npool 4 -i  Done                     04/22/2018 22:45:16
00016 suncat0221 pw.x -npool 4 -i  Done                     04/22/2018 22:45:16
00017 suncat0221 pw.x -npool 4 -i  Done                     04/22/2018 22:45:16
00018 suncat0221 pw.x -npool 4 -i  Done                     04/22/2018 22:45:16
00019 suncat0221 pw.x -npool 4 -i  Done                     04/22/2018 22:45:16
00020 suncat0221 pw.x -npool 4 -i  Done                     04/22/2018 22:45:16
00021 suncat0221 pw.x -npool 4 -i  Done                     04/22/2018 22:45:16
00022 suncat0221 pw.x -npool 4 -i  Done                     04/22/2018 22:45:16
00023 suncat0221 pw.x -npool 4 -i  Done                     04/22/2018 22:45:16
00024 suncat0215 pw.x -npool 4 -i  Done                     04/22/2018 22:45:16
00025 suncat0215 pw.x -npool 4 -i  Done                     04/22/2018 22:45:16
00026 suncat0215 pw.x -npool 4 -i  Done                     04/22/2018 22:45:16
00027 suncat0215 pw.x -npool 4 -i  Done                     04/22/2018 22:45:16
00028 suncat0215 pw.x -npool 4 -i  Done                     04/22/2018 22:45:16
00029 suncat0215 pw.x -npool 4 -i  Done                     04/22/2018 22:45:16
00030 suncat0215 pw.x -npool 4 -i  Done                     04/22/2018 22:45:16
00031 suncat0215 pw.x -npool 4 -i  Done                     04/22/2018 22:45:16
