  python dir          : /u/if/mamunm/src/espresso
  espresso dir        : /nfs/slac/g/suncatfs/sw/espv18/espresso-dynpy-beef/bin
  pseudo dir          : /u/if/mamunm/psp/gbrv1.5pbe
  ase-espresso py git : GITVERSION



     Program PWSCF v.5.1rc2 (svn rev. 11289) starts on  3May2018 at  1: 8:16 

     This program is part of the open-source Quantum ESPRESSO suite
     for quantum simulation of materials; please cite
         "P. Giannozzi et al., J. Phys.:Condens. Matter 21 395502 (2009);
          URL http://www.quantum-espresso.org", 
     in publications or presentations arising from this work. More details at
     http://www.quantum-espresso.org/quote

     Parallel version (MPI), running on    32 processors
     K-points division:     npool     =       4
     R & G space division:  proc/nbgrp/npool/nimage =       8
     Reading input from pw.inp
     Message from routine read_cards :
     DEPRECATED: no units specified in CELL_PARAMETERS card

     Current dimensions of program PWSCF are:
     Max number of different atomic species (ntypx) = 10
     Max number of k-points (npk) =  40000
     Max angular momentum in pseudopotentials (lmaxx) =  3
     Presently stress not available with electric field


     **************************************************************************
     Initializing libbeef V0.1.1 with the BEEF-vdW functional.
     Citation: Wellendorff et al., PRB 85, 235149 (2012).
     **************************************************************************


     IMPORTANT: XC functional enforced from input :
     Exchange-correlation      = BEEF-VDW ( 1  4 27 13 2)
     Any further DFT definition will be discarded
     Please, verify this is what you really want


     Subspace diagonalization in iterative solution of the eigenvalue problem:
     a serial algorithm will be used

 
     Parallelization info
     --------------------
     sticks:   dense  smooth     PW     G-vecs:    dense   smooth      PW
     Min         579     230     64               114907    29014    4366
     Max         580     231     66               114920    29056    4372
     Sum        4639    1843    517               919335   232275   34949
 


     bravais-lattice index     =            0
     lattice parameter (alat)  =       1.8897  a.u.
     unit-cell volume          =    7725.1200 (a.u.)^3
     number of atoms/cell      =           13
     number of atomic types    =            2
     number of electrons       =       138.00
     number of Kohn-Sham states=           79
     kinetic-energy cutoff     =      36.7493  Ry
     charge density cutoff     =     367.4932  Ry
     convergence threshold     =      1.0E-05
     mixing beta               =       0.3000
     number of iterations used =           10  plain     mixing
     Exchange-correlation      = BEEF-VDW ( 1  4 27 13 2)
     nstep                     =           50


     celldm(1)=   1.889726  celldm(2)=   0.000000  celldm(3)=   0.000000
     celldm(4)=   0.000000  celldm(5)=   0.000000  celldm(6)=   0.000000

     crystal axes: (cart. coord. in units of alat)
               a(1) = (   7.152277   0.000000   0.000000 )  
               a(2) = (   3.576139   6.194054   0.000000 )  
               a(3) = (   0.000000   0.000000  25.839810 )  

     reciprocal axes: (cart. coord. in units 2 pi/alat)
               b(1) = (  0.139816 -0.080723  0.000000 )  
               b(2) = (  0.000000  0.161445  0.000000 )  
               b(3) = (  0.000000  0.000000  0.038700 )  


     PseudoPot. # 1 for Y  read from file:
     /u/if/mamunm/psp/gbrv1.5pbe/Y.UPF
     MD5 check sum: d034151ed7554c50b6e82763ed42c788
     Pseudo is Ultrasoft + core correction, Zval = 11.0
     Generated by new atomic code, or converted to UPF format
     Using radial grid of  885 points,  6 beta functions with: 
                l(1) =   0
                l(2) =   0
                l(3) =   1
                l(4) =   1
                l(5) =   2
                l(6) =   2
     Q(r) pseudized with  8 coefficients,  rinner =    1.200   1.200   1.200
                                                       1.200   1.200

     PseudoPot. # 2 for O  read from file:
     /u/if/mamunm/psp/gbrv1.5pbe/O.UPF
     MD5 check sum: 734c27235a0248c51dbae37a1fbe46ec
     Pseudo is Ultrasoft + core correction, Zval =  6.0
     Generated by new atomic code, or converted to UPF format
     Using radial grid of  737 points,  5 beta functions with: 
                l(1) =   0
                l(2) =   0
                l(3) =   1
                l(4) =   1
                l(5) =   2
     Q(r) pseudized with  8 coefficients,  rinner =    0.900   0.900   0.900
                                                       0.900   0.900

     vdW kernel table read from file vdW_kernel_table
     MD5 check sum: 095c7af220d748ca6e76c0b4c6cfb241

     atomic species   valence    mass     pseudopotential
        Y1            11.00    88.90584     Y ( 1.00)
        O1             6.00    15.99900     O ( 1.00)

     No symmetry found



   Cartesian axes

     site n.     atom                  positions (alat units)
         1           Y1  tau(   1) = (   1.7880693   1.0323423  10.0000000  )
         2           Y1  tau(   2) = (   5.3642080   1.0323423  10.0000000  )
         3           Y1  tau(   3) = (   3.5761386   4.1293692  10.0000000  )
         4           Y1  tau(   4) = (   7.1522773   4.1293692  10.0000000  )
         5           Y1  tau(   5) = (   7.1522773   2.0646846  12.9199050  )
         6           Y1  tau(   6) = (   3.5761386   2.0646846  12.9199050  )
         7           Y1  tau(   7) = (   8.9403466   5.1617115  12.9199050  )
         8           Y1  tau(   8) = (   5.3642080   5.1617115  12.9199050  )
         9           Y1  tau(   9) = (   0.0000000   0.0000000  15.8398100  )
        10           Y1  tau(  10) = (   3.5761386   0.0000000  15.8398100  )
        11           Y1  tau(  11) = (   1.7880693   3.0970269  15.8398100  )
        12           Y1  tau(  12) = (   5.3642080   3.0970269  15.8398100  )
        13           O1  tau(  13) = (   3.5761386   2.0646846  17.5038100  )

     number of k points=    20  Fermi-Dirac smearing, width (Ry)=  0.0110
                       cart. coord. in units 2pi/alat
        k(    1) = (   0.0000000   0.0000000   0.0000000), wk =   0.0555556
        k(    2) = (   0.0000000   0.0269075   0.0000000), wk =   0.1111111
        k(    3) = (   0.0000000   0.0538151   0.0000000), wk =   0.1111111
        k(    4) = (   0.0000000  -0.0807226   0.0000000), wk =   0.0555556
        k(    5) = (   0.0233026  -0.0134538   0.0000000), wk =   0.1111111
        k(    6) = (   0.0233026   0.0134538   0.0000000), wk =   0.1111111
        k(    7) = (   0.0233026   0.0403613   0.0000000), wk =   0.1111111
        k(    8) = (   0.0233026  -0.0941763   0.0000000), wk =   0.1111111
        k(    9) = (   0.0233026  -0.0672688   0.0000000), wk =   0.1111111
        k(   10) = (   0.0233026  -0.0403613   0.0000000), wk =   0.1111111
        k(   11) = (   0.0466052  -0.0269075   0.0000000), wk =   0.1111111
        k(   12) = (   0.0466052   0.0000000   0.0000000), wk =   0.1111111
        k(   13) = (   0.0466052   0.0269075   0.0000000), wk =   0.1111111
        k(   14) = (   0.0466052  -0.1076301   0.0000000), wk =   0.1111111
        k(   15) = (   0.0466052  -0.0807226   0.0000000), wk =   0.1111111
        k(   16) = (   0.0466052  -0.0538151   0.0000000), wk =   0.1111111
        k(   17) = (  -0.0699078   0.0403613   0.0000000), wk =   0.0555556
        k(   18) = (  -0.0699078   0.0672688   0.0000000), wk =   0.1111111
        k(   19) = (  -0.0699078   0.0941763   0.0000000), wk =   0.1111111
        k(   20) = (  -0.0699078  -0.0403613   0.0000000), wk =   0.0555556

     Dense  grid:   919335 G-vectors     FFT dimensions: (  90,  90, 300)

     Smooth grid:   232275 G-vectors     FFT dimensions: (  54,  54, 192)

     Largest allocated arrays     est. size (Mb)     dimensions
        Kohn-Sham Wavefunctions         4.44 Mb     (    3683,   79)
        NL pseudopotentials            12.87 Mb     (    3683,  229)
        Each V/rho on FFT grid          4.70 Mb     (  307800)
        Each G-vector array             0.88 Mb     (  114920)
        G-vector shells                 0.22 Mb     (   29028)
     Largest temporary arrays     est. size (Mb)     dimensions
        Auxiliary wavefunctions        17.76 Mb     (    3683,  316)
        Each subspace H/S matrix        1.52 Mb     (     316,  316)
        Each <psi_i|beta_j> matrix      0.28 Mb     (     229,   79)
        Arrays for rho mixing          46.97 Mb     (  307800,   10)

     Initial potential from superposition of free atoms
     Check: negative starting charge=   -0.000692

     starting charge  137.94637, renormalised to  138.00000

     negative rho (up, down):  6.920E-04 0.000E+00


     ************************************************************************
     *
     * You are using vdW-DF for exchange-correlation in this calculation.
     * Please cite the following three references that made this development
     * possible:
     *
     *   M. Dion, H. Rydberg, E. Schroder, D. C. Langreth, and
     *   B. I. Lundqvist, Phys. Rev. Lett. 92, 246401 (2004).
     *
     *   T. Thonhauser, V. R. Cooper, S. Li, A. Puzder, P. Hyldgaard, and
     *   D. C. Langreth, Phys. Rev. B 76, 125112 (2007).
     *
     *   G. Roman-Perez and J. M. Soler, Phys. Rev. Lett. 103, 096102 (2009).
     *
     *
     * If you are using vdW-DF2, please also cite:
     *
     *   K. Lee, E. D. Murray, L. Kong, B. I. Lundqvist, and
     *   D. C. Langreth, Phys. Rev. B 82, 081101(R) (2010).
     *
     *
     * If you are calculating the stress with vdW-DF, please also cite:
     *
     *   R. Sabatini, E. Kucukbenli, B. Kolb, T. Thonhauser, and
     *   S. de Gironcoli, J. Phys.: Condens. Matter 24, 424209 (2012).
     *
     ************************************************************************

     Carrying out vdW-DF run using the following parameters:

     Nqs =      20    Nr_points =    1024   r_max =   100.000
     q_mesh =
               0.00001000     0.04494208     0.09755937     0.15916263
               0.23128650     0.31572767     0.41458969     0.53033537
               0.66584808     0.82450364     1.01025438     1.22772762
               1.48234092     1.78043706     2.12944203     2.53805004
               3.01644009     3.57652955     4.23227104     5.00000000

     Gradients computed in reciprocal space

     ************************************************************************


 
     Adding external electric field

     Computed dipole along edir(3) : 
        Dipole               -0.0202 Ry au,         -0.0513 Debye
        Dipole field         -0.0000 Ry au
 
        Potential amp.        0.0031 Ry
        Total length         47.6094 bohr
 
     Starting wfc are  160 randomized atomic wfcs

     total cpu time spent up to now is       21.4 secs

     per-process dynamical memory:   118.1 Mb

     Self-consistent Calculation

     iteration #  1     ecut=    36.75 Ry     beta=0.30
     Davidson diagonalization with overlap
     ethr =  1.00E-02,  avg # of iterations =  2.0

     negative rho (up, down):  3.331E-04 0.000E+00
 
     Adding external electric field

     Computed dipole along edir(3) : 
        Dipole               -4.1273 Ry au,        -10.4905 Debye
        Dipole field         -0.0067 Ry au
 
        Potential amp.        0.6393 Ry
        Total length         47.6094 bohr
 

     total cpu time spent up to now is       48.3 secs

     total energy              =   -1155.01566276 Ry
     Harris-Foulkes estimate   =   -1157.52100565 Ry
     estimated scf accuracy    <       5.41805013 Ry

     iteration #  2     ecut=    36.75 Ry     beta=0.30
     Davidson diagonalization with overlap
     ethr =  3.93E-03,  avg # of iterations = 10.2

     negative rho (up, down):  3.526E-04 0.000E+00
 
     Adding external electric field

     Computed dipole along edir(3) : 
        Dipole                2.3063 Ry au,          5.8620 Debye
        Dipole field          0.0038 Ry au
 
        Potential amp.       -0.3572 Ry
        Total length         47.6094 bohr
 

     total cpu time spent up to now is       87.1 secs

     total energy              =   -1146.43303847 Ry
     Harris-Foulkes estimate   =   -1164.63842985 Ry
     estimated scf accuracy    <     439.55503759 Ry

     iteration #  3     ecut=    36.75 Ry     beta=0.30
     Davidson diagonalization with overlap
     ethr =  3.93E-03,  avg # of iterations =  9.0

     negative rho (up, down):  1.755E-04 0.000E+00
 
     Adding external electric field

     Computed dipole along edir(3) : 
        Dipole                0.6789 Ry au,          1.7255 Debye
        Dipole field          0.0011 Ry au
 
        Potential amp.       -0.1052 Ry
        Total length         47.6094 bohr
 

     total cpu time spent up to now is      127.0 secs

     total energy              =   -1154.05630944 Ry
     Harris-Foulkes estimate   =   -1160.90699152 Ry
     estimated scf accuracy    <     186.66635903 Ry

     iteration #  4     ecut=    36.75 Ry     beta=0.30
     Davidson diagonalization with overlap
     ethr =  3.93E-03,  avg # of iterations =  6.8

     negative rho (up, down):  1.184E-04 0.000E+00
 
     Adding external electric field

     Computed dipole along edir(3) : 
        Dipole                0.5675 Ry au,          1.4424 Debye
        Dipole field          0.0009 Ry au
 
        Potential amp.       -0.0879 Ry
        Total length         47.6094 bohr
 

     total cpu time spent up to now is      159.9 secs

     total energy              =   -1156.93876733 Ry
     Harris-Foulkes estimate   =   -1157.02738621 Ry
     estimated scf accuracy    <       1.86044932 Ry

     iteration #  5     ecut=    36.75 Ry     beta=0.30
     Davidson diagonalization with overlap
     ethr =  1.35E-03,  avg # of iterations =  4.8

     negative rho (up, down):  9.573E-05 0.000E+00
 
     Adding external electric field

     Computed dipole along edir(3) : 
        Dipole                0.1930 Ry au,          0.4906 Debye
        Dipole field          0.0003 Ry au
 
        Potential amp.       -0.0299 Ry
        Total length         47.6094 bohr
 

     total cpu time spent up to now is      190.6 secs

     total energy              =   -1156.93023582 Ry
     Harris-Foulkes estimate   =   -1156.98231540 Ry
     estimated scf accuracy    <       0.58311311 Ry

     iteration #  6     ecut=    36.75 Ry     beta=0.30
     Davidson diagonalization with overlap
     ethr =  4.23E-04,  avg # of iterations =  7.8

     negative rho (up, down):  1.049E-04 0.000E+00
 
     Adding external electric field

     Computed dipole along edir(3) : 
        Dipole                0.0293 Ry au,          0.0745 Debye
        Dipole field          0.0000 Ry au
 
        Potential amp.       -0.0045 Ry
        Total length         47.6094 bohr
 

     total cpu time spent up to now is      221.5 secs

     total energy              =   -1156.93877466 Ry
     Harris-Foulkes estimate   =   -1156.95770355 Ry
     estimated scf accuracy    <       0.41926640 Ry

     iteration #  7     ecut=    36.75 Ry     beta=0.30
     Davidson diagonalization with overlap
     ethr =  3.04E-04,  avg # of iterations =  4.1

     negative rho (up, down):  1.231E-04 0.000E+00
 
     Adding external electric field

     Computed dipole along edir(3) : 
        Dipole               -0.0416 Ry au,         -0.1058 Debye
        Dipole field         -0.0001 Ry au
 
        Potential amp.        0.0064 Ry
        Total length         47.6094 bohr
 

     total cpu time spent up to now is      251.1 secs

     total energy              =   -1156.94799479 Ry
     Harris-Foulkes estimate   =   -1156.95056993 Ry
     estimated scf accuracy    <       0.05057833 Ry

     iteration #  8     ecut=    36.75 Ry     beta=0.30
     Davidson diagonalization with overlap
     ethr =  3.67E-05,  avg # of iterations =  9.9

     negative rho (up, down):  1.407E-04 0.000E+00
 
     Adding external electric field

     Computed dipole along edir(3) : 
        Dipole               -0.0611 Ry au,         -0.1553 Debye
        Dipole field         -0.0001 Ry au
 
        Potential amp.        0.0095 Ry
        Total length         47.6094 bohr
 

     total cpu time spent up to now is      287.1 secs

     total energy              =   -1156.95344037 Ry
     Harris-Foulkes estimate   =   -1156.95470558 Ry
     estimated scf accuracy    <       0.02538465 Ry

     iteration #  9     ecut=    36.75 Ry     beta=0.30
     Davidson diagonalization with overlap
     ethr =  1.84E-05,  avg # of iterations =  1.6

     negative rho (up, down):  1.748E-04 0.000E+00
 
     Adding external electric field

     Computed dipole along edir(3) : 
        Dipole               -0.3073 Ry au,         -0.7811 Debye
        Dipole field         -0.0005 Ry au
 
        Potential amp.        0.0476 Ry
        Total length         47.6094 bohr
 

     total cpu time spent up to now is      314.0 secs

     total energy              =   -1156.95158393 Ry
     Harris-Foulkes estimate   =   -1156.95388898 Ry
     estimated scf accuracy    <       0.02271902 Ry

     iteration # 10     ecut=    36.75 Ry     beta=0.30
     Davidson diagonalization with overlap
     ethr =  1.65E-05,  avg # of iterations =  5.8

     negative rho (up, down):  1.877E-04 0.000E+00
 
     Adding external electric field

     Computed dipole along edir(3) : 
        Dipole               -0.3552 Ry au,         -0.9027 Debye
        Dipole field         -0.0006 Ry au
 
        Potential amp.        0.0550 Ry
        Total length         47.6094 bohr
 

     total cpu time spent up to now is      344.5 secs

     total energy              =   -1156.95134435 Ry
     Harris-Foulkes estimate   =   -1156.95361576 Ry
     estimated scf accuracy    <       0.04399141 Ry

     iteration # 11     ecut=    36.75 Ry     beta=0.30
     Davidson diagonalization with overlap
     ethr =  1.65E-05,  avg # of iterations =  2.0

     negative rho (up, down):  2.087E-04 0.000E+00
 
     Adding external electric field

     Computed dipole along edir(3) : 
        Dipole               -0.3664 Ry au,         -0.9314 Debye
        Dipole field         -0.0006 Ry au
 
        Potential amp.        0.0568 Ry
        Total length         47.6094 bohr
 

     total cpu time spent up to now is      371.4 secs

     total energy              =   -1156.95240271 Ry
     Harris-Foulkes estimate   =   -1156.95231034 Ry
     estimated scf accuracy    <       0.00443939 Ry

     iteration # 12     ecut=    36.75 Ry     beta=0.30
     Davidson diagonalization with overlap
     ethr =  3.22E-06,  avg # of iterations =  6.8

     negative rho (up, down):  2.156E-04 0.000E+00
 
     Adding external electric field

     Computed dipole along edir(3) : 
        Dipole               -0.3897 Ry au,         -0.9904 Debye
        Dipole field         -0.0006 Ry au
 
        Potential amp.        0.0604 Ry
        Total length         47.6094 bohr
 

     total cpu time spent up to now is      403.7 secs

     total energy              =   -1156.95251751 Ry
     Harris-Foulkes estimate   =   -1156.95293544 Ry
     estimated scf accuracy    <       0.00684747 Ry

     iteration # 13     ecut=    36.75 Ry     beta=0.30
     Davidson diagonalization with overlap
     ethr =  3.22E-06,  avg # of iterations =  2.7

     negative rho (up, down):  2.256E-04 0.000E+00
 
     Adding external electric field

     Computed dipole along edir(3) : 
        Dipole               -0.3999 Ry au,         -1.0165 Debye
        Dipole field         -0.0007 Ry au
 
        Potential amp.        0.0619 Ry
        Total length         47.6094 bohr
 

     total cpu time spent up to now is      430.9 secs

     total energy              =   -1156.95275498 Ry
     Harris-Foulkes estimate   =   -1156.95273014 Ry
     estimated scf accuracy    <       0.00028880 Ry

     iteration # 14     ecut=    36.75 Ry     beta=0.30
     Davidson diagonalization with overlap
     ethr =  2.09E-07,  avg # of iterations =  8.5

     negative rho (up, down):  2.344E-04 0.000E+00
 
     Adding external electric field

     Computed dipole along edir(3) : 
        Dipole               -0.4050 Ry au,         -1.0294 Debye
        Dipole field         -0.0007 Ry au
 
        Potential amp.        0.0627 Ry
        Total length         47.6094 bohr
 

     total cpu time spent up to now is      468.7 secs

     total energy              =   -1156.95282321 Ry
     Harris-Foulkes estimate   =   -1156.95284880 Ry
     estimated scf accuracy    <       0.00040569 Ry

     iteration # 15     ecut=    36.75 Ry     beta=0.30
     Davidson diagonalization with overlap
     ethr =  2.09E-07,  avg # of iterations =  5.5

     negative rho (up, down):  2.455E-04 0.000E+00
 
     Adding external electric field

     Computed dipole along edir(3) : 
        Dipole               -0.4046 Ry au,         -1.0283 Debye
        Dipole field         -0.0007 Ry au
 
        Potential amp.        0.0627 Ry
        Total length         47.6094 bohr
 

     total cpu time spent up to now is      499.8 secs

     total energy              =   -1156.95284474 Ry
     Harris-Foulkes estimate   =   -1156.95285085 Ry
     estimated scf accuracy    <       0.00022441 Ry

     iteration # 16     ecut=    36.75 Ry     beta=0.30
     Davidson diagonalization with overlap
     ethr =  1.63E-07,  avg # of iterations =  1.2

     negative rho (up, down):  2.610E-04 0.000E+00

     negative rho (up, down):  2.610E-04 0.000E+00

     negative rho (up, down):  2.610E-04 0.000E+00

     negative rho (up, down):  2.610E-04 0.000E+00

     negative rho (up, down):  2.610E-04 0.000E+00

     negative rho (up, down):  2.610E-04 0.000E+00

     negative rho (up, down):  2.610E-04 0.000E+00

     negative rho (up, down):  2.610E-04 0.000E+00

     negative rho (up, down):  2.610E-04 0.000E+00

     negative rho (up, down):  2.610E-04 0.000E+00

     negative rho (up, down):  2.610E-04 0.000E+00

     negative rho (up, down):  2.610E-04 0.000E+00

     negative rho (up, down):  2.610E-04 0.000E+00

     negative rho (up, down):  2.610E-04 0.000E+00

     negative rho (up, down):  2.610E-04 0.000E+00

     negative rho (up, down):  2.610E-04 0.000E+00

     negative rho (up, down):  2.610E-04 0.000E+00

     negative rho (up, down):  2.610E-04 0.000E+00

     negative rho (up, down):  2.610E-04 0.000E+00

     negative rho (up, down):  2.610E-04 0.000E+00

     negative rho (up, down):  2.610E-04 0.000E+00

     negative rho (up, down):  2.610E-04 0.000E+00

     negative rho (up, down):  2.610E-04 0.000E+00

     negative rho (up, down):  2.610E-04 0.000E+00

     negative rho (up, down):  2.610E-04 0.000E+00

     negative rho (up, down):  2.610E-04 0.000E+00

     negative rho (up, down):  2.610E-04 0.000E+00

     negative rho (up, down):  2.610E-04 0.000E+00

     negative rho (up, down):  2.610E-04 0.000E+00

     negative rho (up, down):  2.610E-04 0.000E+00

     negative rho (up, down):  2.610E-04 0.000E+00

     negative rho (up, down):  2.610E-04 0.000E+00

     negative rho (up, down):  2.610E-04 0.000E+00

     negative rho (up, down):  2.610E-04 0.000E+00

     negative rho (up, down):  2.610E-04 0.000E+00
 
     Adding external electric field

     Computed dipole along edir(3) : 
        Dipole               -0.4230 Ry au,         -1.0752 Debye
        Dipole field         -0.0007 Ry au
 
        Potential amp.        0.0655 Ry
        Total length         47.6094 bohr
 

     total cpu time spent up to now is      611.3 secs

     End of self-consistent calculation

          k = 0.0000 0.0000 0.0000 ( 28997 PWs)   bands (ev):

   -42.7318 -42.6005 -42.5616 -42.5551 -42.5549 -42.5447 -42.5146 -42.5146
   -42.0528 -42.0131 -42.0131 -42.0025 -22.7995 -22.7568 -22.7568 -22.7048
   -22.7047 -22.7030 -22.6572 -22.6333 -22.5682 -22.5630 -22.5628 -22.5243
   -22.5009 -22.5008 -22.3974 -22.3974 -22.3810 -22.3809 -22.3793 -22.3603
   -22.2812 -22.2812 -22.2300 -22.2300 -22.1684 -22.1627 -22.1627 -21.9654
   -21.9408 -21.9408 -21.9325 -21.8762 -21.8657 -21.8657 -21.7720 -21.7720
   -15.3314  -3.5277  -2.6042  -1.6594  -1.5356  -1.5356  -1.3293  -0.8435
    -0.7848  -0.7848  -0.7303  -0.7303  -0.6579  -0.3200  -0.3200  -0.0534
     0.0806   0.0806   0.1351   0.5604   0.5649   0.5649   0.9321   1.3254
     1.4295   1.4379   1.4380   1.6044   1.6896   1.6896   1.9567

          k = 0.0000 0.0269 0.0000 ( 29019 PWs)   bands (ev):

   -42.7315 -42.5977 -42.5628 -42.5567 -42.5550 -42.5431 -42.5165 -42.5146
   -42.0501 -42.0151 -42.0131 -42.0032 -22.7982 -22.7447 -22.7341 -22.6896
   -22.6880 -22.6774 -22.6436 -22.6252 -22.5688 -22.5630 -22.5610 -22.5193
   -22.5062 -22.5014 -22.4165 -22.3994 -22.3979 -22.3956 -22.3740 -22.3676
   -22.3111 -22.2879 -22.2560 -22.2342 -22.1536 -22.1502 -22.1416 -21.9621
   -21.9413 -21.9401 -21.9321 -21.8895 -21.8815 -21.8619 -21.8005 -21.7786
   -15.3306  -3.3811  -2.4686  -1.5742  -1.5422  -1.5093  -1.2453  -1.0153
    -0.7829  -0.7551  -0.6930  -0.6221  -0.5339  -0.2559  -0.1913   0.0039
     0.1456   0.1614   0.2281   0.5776   0.6025   0.6288   0.9456   1.2377
     1.2958   1.3632   1.3655   1.5518   1.6344   1.6401   1.8292

          k = 0.0000 0.0538 0.0000 ( 29058 PWs)   bands (ev):

   -42.7308 -42.5902 -42.5687 -42.5584 -42.5550 -42.5391 -42.5212 -42.5146
   -42.0426 -42.0217 -42.0131 -42.0042 -22.7957 -22.7172 -22.6750 -22.6528
   -22.6496 -22.6207 -22.6071 -22.5959 -22.5752 -22.5611 -22.5573 -22.5202
   -22.5052 -22.5031 -22.4574 -22.4386 -22.4363 -22.4140 -22.3909 -22.3713
   -22.3559 -22.3234 -22.3062 -22.2437 -22.1202 -22.1176 -22.0755 -21.9552
   -21.9436 -21.9405 -21.9312 -21.9256 -21.9191 -21.8769 -21.8449 -21.7965
   -15.3290  -2.9670  -2.1093  -1.7685  -1.4583  -1.4097  -1.3461  -0.9521
    -0.7613  -0.6731  -0.6509  -0.3757  -0.3257  -0.1416   0.1607   0.2093
     0.3333   0.3695   0.4461   0.6694   0.6784   0.7720   0.8815   1.0730
     1.1076   1.1187   1.1517   1.3801   1.3982   1.4291   1.5193

          k = 0.0000-0.0807 0.0000 ( 29048 PWs)   bands (ev):

   -42.7305 -42.5821 -42.5764 -42.5588 -42.5550 -42.5359 -42.5247 -42.5146
   -42.0344 -42.0296 -42.0131 -42.0046 -22.7945 -22.7013 -22.6280 -22.6257
   -22.6196 -22.6003 -22.5967 -22.5882 -22.5597 -22.5553 -22.5309 -22.5204
   -22.5051 -22.4992 -22.4946 -22.4652 -22.4623 -22.4448 -22.4272 -22.3815
   -22.3687 -22.3334 -22.3289 -22.2490 -22.0975 -22.0944 -21.9831 -21.9760
   -21.9561 -21.9502 -21.9462 -21.9428 -21.9353 -21.9304 -21.8217 -21.8200
   -15.3283  -2.3942  -2.3425  -1.7329  -1.6096  -1.4337  -1.2097  -1.0479
    -0.6278  -0.6268  -0.4454  -0.2996  -0.2006  -0.1847   0.4625   0.4695
     0.5024   0.5541   0.5896   0.6197   0.7755   0.7768   0.8484   0.8780
     0.9284   0.9941   1.1907   1.2193   1.2443   1.2652   1.3193

          k = 0.0233-0.0135 0.0000 ( 29019 PWs)   bands (ev):

   -42.7315 -42.5977 -42.5628 -42.5567 -42.5549 -42.5431 -42.5165 -42.5146
   -42.0501 -42.0151 -42.0131 -42.0032 -22.7982 -22.7447 -22.7341 -22.6897
   -22.6880 -22.6774 -22.6436 -22.6252 -22.5688 -22.5630 -22.5610 -22.5193
   -22.5062 -22.5014 -22.4165 -22.3994 -22.3979 -22.3956 -22.3740 -22.3676
   -22.3111 -22.2879 -22.2560 -22.2342 -22.1536 -22.1501 -22.1416 -21.9621
   -21.9413 -21.9401 -21.9321 -21.8895 -21.8815 -21.8619 -21.8005 -21.7786
   -15.3306  -3.3811  -2.4686  -1.5741  -1.5422  -1.5093  -1.2453  -1.0153
    -0.7828  -0.7551  -0.6930  -0.6221  -0.5339  -0.2558  -0.1913   0.0039
     0.1456   0.1614   0.2281   0.5776   0.6025   0.6288   0.9456   1.2377
     1.2958   1.3632   1.3655   1.5518   1.6345   1.6402   1.8292

          k = 0.0233 0.0135 0.0000 ( 29019 PWs)   bands (ev):

   -42.7315 -42.5977 -42.5629 -42.5565 -42.5551 -42.5431 -42.5165 -42.5146
   -42.0501 -42.0152 -42.0131 -42.0032 -22.7982 -22.7447 -22.7341 -22.6896
   -22.6881 -22.6774 -22.6436 -22.6252 -22.5688 -22.5628 -22.5611 -22.5193
   -22.5062 -22.5014 -22.4165 -22.3994 -22.3978 -22.3957 -22.3740 -22.3676
   -22.3111 -22.2879 -22.2560 -22.2342 -22.1535 -22.1502 -22.1416 -21.9621
   -21.9413 -21.9401 -21.9321 -21.8895 -21.8815 -21.8619 -21.8005 -21.7786
   -15.3306  -3.3811  -2.4686  -1.5741  -1.5422  -1.5093  -1.2453  -1.0153
    -0.7829  -0.7551  -0.6929  -0.6222  -0.5339  -0.2558  -0.1913   0.0039
     0.1456   0.1614   0.2281   0.5776   0.6025   0.6288   0.9456   1.2377
     1.2958   1.3631   1.3655   1.5518   1.6344   1.6402   1.8293

          k = 0.0233 0.0404 0.0000 ( 29087 PWs)   bands (ev):

   -42.7310 -42.5925 -42.5655 -42.5603 -42.5539 -42.5403 -42.5200 -42.5145
   -42.0449 -42.0184 -42.0146 -42.0036 -22.7964 -22.7223 -22.6950 -22.6691
   -22.6416 -22.6406 -22.6260 -22.6056 -22.5712 -22.5659 -22.5561 -22.5172
   -22.5076 -22.5017 -22.4539 -22.4489 -22.3943 -22.3834 -22.3828 -22.3818
   -22.3642 -22.3020 -22.2991 -22.2439 -22.1349 -22.1100 -22.1086 -21.9570
   -21.9435 -21.9397 -21.9332 -21.9313 -21.8737 -21.8677 -21.8513 -21.7924
   -15.3294  -3.0999  -2.2180  -1.5831  -1.5399  -1.4076  -1.1863  -1.1268
    -0.9787  -0.6604  -0.6029  -0.4143  -0.3240  -0.1130  -0.0026   0.1257
     0.2710   0.3121   0.3836   0.6325   0.6819   0.7170   0.9243   1.1082
     1.1344   1.1541   1.3110   1.4213   1.4559   1.5120   1.5254

          k = 0.0233-0.0942 0.0000 ( 29098 PWs)   bands (ev):

   -42.7305 -42.5839 -42.5722 -42.5636 -42.5527 -42.5357 -42.5252 -42.5144
   -42.0363 -42.0255 -42.0165 -42.0033 -22.7945 -22.6922 -22.6412 -22.6292
   -22.6061 -22.6035 -22.5892 -22.5762 -22.5673 -22.5541 -22.5510 -22.5346
   -22.5113 -22.5064 -22.4985 -22.4708 -22.4527 -22.4218 -22.4058 -22.3795
   -22.3576 -22.3532 -22.3275 -22.2564 -22.1000 -22.0737 -22.0317 -21.9909
   -21.9507 -21.9455 -21.9397 -21.9346 -21.9302 -21.8930 -21.8460 -21.8174
   -15.3283  -2.5872  -1.9709  -1.8003  -1.5396  -1.4696  -1.2513  -1.1463
    -0.9028  -0.5869  -0.4822  -0.1549  -0.0904  -0.0013   0.2813   0.3449
     0.4713   0.5043   0.5957   0.6954   0.7560   0.7982   0.8610   0.9408
     0.9866   1.0473   1.0901   1.2092   1.2482   1.2649   1.3148

          k = 0.0233-0.0673 0.0000 ( 29098 PWs)   bands (ev):

   -42.7305 -42.5839 -42.5721 -42.5636 -42.5527 -42.5357 -42.5252 -42.5144
   -42.0363 -42.0254 -42.0165 -42.0033 -22.7945 -22.6922 -22.6412 -22.6292
   -22.6061 -22.6035 -22.5892 -22.5762 -22.5673 -22.5542 -22.5510 -22.5346
   -22.5112 -22.5064 -22.4985 -22.4708 -22.4527 -22.4217 -22.4058 -22.3795
   -22.3576 -22.3532 -22.3275 -22.2564 -22.1000 -22.0737 -22.0317 -21.9909
   -21.9508 -21.9455 -21.9397 -21.9346 -21.9302 -21.8930 -21.8460 -21.8174
   -15.3283  -2.5872  -1.9709  -1.8003  -1.5396  -1.4696  -1.2513  -1.1463
    -0.9028  -0.5869  -0.4822  -0.1549  -0.0904  -0.0013   0.2813   0.3449
     0.4713   0.5043   0.5957   0.6954   0.7560   0.7982   0.8610   0.9408
     0.9866   1.0473   1.0901   1.2092   1.2482   1.2649   1.3148

          k = 0.0233-0.0404 0.0000 ( 29087 PWs)   bands (ev):

   -42.7310 -42.5925 -42.5654 -42.5605 -42.5538 -42.5403 -42.5199 -42.5145
   -42.0449 -42.0184 -42.0146 -42.0036 -22.7964 -22.7222 -22.6950 -22.6691
   -22.6416 -22.6406 -22.6260 -22.6057 -22.5710 -22.5661 -22.5561 -22.5172
   -22.5076 -22.5017 -22.4539 -22.4489 -22.3943 -22.3834 -22.3827 -22.3818
   -22.3642 -22.3020 -22.2990 -22.2439 -22.1349 -22.1100 -22.1086 -21.9570
   -21.9435 -21.9398 -21.9332 -21.9313 -21.8737 -21.8677 -21.8514 -21.7924
   -15.3294  -3.0999  -2.2180  -1.5831  -1.5399  -1.4076  -1.1863  -1.1268
    -0.9787  -0.6604  -0.6029  -0.4143  -0.3240  -0.1130  -0.0026   0.1257
     0.2710   0.3121   0.3836   0.6325   0.6818   0.7170   0.9243   1.1082
     1.1344   1.1541   1.3110   1.4213   1.4559   1.5120   1.5254

          k = 0.0466-0.0269 0.0000 ( 29058 PWs)   bands (ev):

   -42.7308 -42.5902 -42.5687 -42.5585 -42.5549 -42.5391 -42.5212 -42.5146
   -42.0426 -42.0217 -42.0131 -42.0042 -22.7957 -22.7172 -22.6750 -22.6528
   -22.6495 -22.6207 -22.6071 -22.5959 -22.5752 -22.5612 -22.5573 -22.5202
   -22.5052 -22.5032 -22.4574 -22.4387 -22.4363 -22.4140 -22.3909 -22.3712
   -22.3558 -22.3234 -22.3062 -22.2437 -22.1202 -22.1176 -22.0755 -21.9552
   -21.9436 -21.9405 -21.9312 -21.9256 -21.9192 -21.8769 -21.8449 -21.7965
   -15.3290  -2.9670  -2.1093  -1.7685  -1.4583  -1.4097  -1.3460  -0.9521
    -0.7613  -0.6731  -0.6509  -0.3757  -0.3257  -0.1416   0.1607   0.2093
     0.3333   0.3695   0.4461   0.6694   0.6784   0.7720   0.8815   1.0730
     1.1076   1.1187   1.1517   1.3801   1.3982   1.4291   1.5193

          k = 0.0466 0.0000 0.0000 ( 29087 PWs)   bands (ev):

   -42.7310 -42.5925 -42.5655 -42.5604 -42.5538 -42.5403 -42.5200 -42.5145
   -42.0449 -42.0184 -42.0146 -42.0037 -22.7964 -22.7222 -22.6950 -22.6691
   -22.6416 -22.6406 -22.6260 -22.6057 -22.5711 -22.5660 -22.5561 -22.5172
   -22.5076 -22.5017 -22.4539 -22.4489 -22.3943 -22.3834 -22.3827 -22.3818
   -22.3642 -22.3020 -22.2991 -22.2439 -22.1349 -22.1100 -22.1086 -21.9570
   -21.9435 -21.9398 -21.9332 -21.9313 -21.8737 -21.8677 -21.8514 -21.7924
   -15.3294  -3.0999  -2.2180  -1.5831  -1.5399  -1.4076  -1.1863  -1.1268
    -0.9787  -0.6604  -0.6029  -0.4143  -0.3240  -0.1130  -0.0026   0.1257
     0.2710   0.3121   0.3836   0.6325   0.6819   0.7170   0.9243   1.1082
     1.1344   1.1541   1.3110   1.4213   1.4559   1.5120   1.5254

          k = 0.0466 0.0269 0.0000 ( 29058 PWs)   bands (ev):

   -42.7308 -42.5902 -42.5688 -42.5582 -42.5551 -42.5391 -42.5212 -42.5146
   -42.0426 -42.0217 -42.0131 -42.0042 -22.7957 -22.7172 -22.6750 -22.6527
   -22.6497 -22.6207 -22.6071 -22.5959 -22.5752 -22.5609 -22.5574 -22.5202
   -22.5052 -22.5031 -22.4574 -22.4385 -22.4364 -22.4140 -22.3909 -22.3713
   -22.3558 -22.3234 -22.3062 -22.2436 -22.1201 -22.1177 -22.0755 -21.9552
   -21.9437 -21.9404 -21.9312 -21.9256 -21.9192 -21.8769 -21.8449 -21.7965
   -15.3290  -2.9670  -2.1093  -1.7685  -1.4583  -1.4097  -1.3461  -0.9521
    -0.7613  -0.6731  -0.6509  -0.3757  -0.3257  -0.1416   0.1607   0.2093
     0.3333   0.3695   0.4461   0.6694   0.6784   0.7720   0.8815   1.0730
     1.1076   1.1187   1.1517   1.3801   1.3982   1.4291   1.5194

          k = 0.0466-0.1076 0.0000 ( 29098 PWs)   bands (ev):

   -42.7305 -42.5839 -42.5722 -42.5635 -42.5527 -42.5357 -42.5252 -42.5144
   -42.0363 -42.0255 -42.0165 -42.0034 -22.7945 -22.6922 -22.6412 -22.6292
   -22.6061 -22.6035 -22.5892 -22.5762 -22.5673 -22.5542 -22.5510 -22.5346
   -22.5113 -22.5064 -22.4985 -22.4708 -22.4527 -22.4218 -22.4059 -22.3795
   -22.3576 -22.3532 -22.3275 -22.2564 -22.1000 -22.0737 -22.0317 -21.9909
   -21.9507 -21.9455 -21.9397 -21.9346 -21.9302 -21.8930 -21.8460 -21.8174
   -15.3283  -2.5872  -1.9709  -1.8003  -1.5396  -1.4696  -1.2513  -1.1463
    -0.9028  -0.5869  -0.4822  -0.1549  -0.0904  -0.0013   0.2813   0.3449
     0.4713   0.5043   0.5957   0.6954   0.7560   0.7982   0.8610   0.9408
     0.9866   1.0473   1.0901   1.2092   1.2482   1.2649   1.3148

          k = 0.0466-0.0807 0.0000 ( 29103 PWs)   bands (ev):

   -42.7304 -42.5787 -42.5712 -42.5710 -42.5514 -42.5308 -42.5305 -42.5142
   -42.0291 -42.0290 -42.0211 -42.0025 -22.7939 -22.6541 -22.6515 -22.5934
   -22.5875 -22.5848 -22.5821 -22.5746 -22.5575 -22.5494 -22.5463 -22.5311
   -22.5280 -22.5278 -22.5079 -22.4991 -22.4642 -22.4534 -22.3698 -22.3664
   -22.3663 -22.3648 -22.3613 -22.2690 -22.0547 -22.0541 -22.0138 -22.0067
   -22.0046 -21.9474 -21.9434 -21.9415 -21.9298 -21.8543 -21.8542 -21.8522
   -15.3279  -2.0704  -2.0180  -1.9973  -1.5137  -1.4955  -1.4511  -1.0286
    -0.8835  -0.8626  -0.1150  -0.0969   0.1018   0.2107   0.2423   0.2478
     0.5735   0.5804   0.6778   0.6803   0.7667   0.8228   0.9037   0.9114
     0.9472   0.9497   0.9872   1.1215   1.1663   1.2482   1.2713

          k = 0.0466-0.0538 0.0000 ( 29098 PWs)   bands (ev):

   -42.7305 -42.5839 -42.5721 -42.5637 -42.5526 -42.5357 -42.5251 -42.5144
   -42.0363 -42.0254 -42.0165 -42.0033 -22.7945 -22.6922 -22.6412 -22.6292
   -22.6061 -22.6035 -22.5892 -22.5762 -22.5674 -22.5542 -22.5510 -22.5345
   -22.5112 -22.5064 -22.4985 -22.4708 -22.4527 -22.4218 -22.4059 -22.3794
   -22.3576 -22.3532 -22.3275 -22.2564 -22.1000 -22.0737 -22.0317 -21.9909
   -21.9508 -21.9455 -21.9397 -21.9346 -21.9302 -21.8930 -21.8460 -21.8174
   -15.3283  -2.5872  -1.9709  -1.8003  -1.5396  -1.4696  -1.2513  -1.1463
    -0.9028  -0.5869  -0.4822  -0.1549  -0.0904  -0.0013   0.2813   0.3449
     0.4713   0.5043   0.5957   0.6954   0.7560   0.7982   0.8610   0.9408
     0.9866   1.0473   1.0901   1.2092   1.2482   1.2649   1.3148

          k =-0.0699 0.0404 0.0000 ( 29048 PWs)   bands (ev):

   -42.7305 -42.5822 -42.5764 -42.5588 -42.5549 -42.5360 -42.5247 -42.5146
   -42.0344 -42.0296 -42.0131 -42.0046 -22.7945 -22.7013 -22.6280 -22.6256
   -22.6196 -22.6003 -22.5967 -22.5882 -22.5598 -22.5553 -22.5309 -22.5204
   -22.5051 -22.4993 -22.4946 -22.4653 -22.4623 -22.4448 -22.4272 -22.3814
   -22.3687 -22.3335 -22.3288 -22.2490 -22.0975 -22.0944 -21.9831 -21.9760
   -21.9561 -21.9502 -21.9462 -21.9428 -21.9353 -21.9304 -21.8217 -21.8200
   -15.3283  -2.3942  -2.3425  -1.7329  -1.6096  -1.4337  -1.2097  -1.0479
    -0.6278  -0.6268  -0.4454  -0.2996  -0.2006  -0.1847   0.4625   0.4696
     0.5024   0.5541   0.5896   0.6197   0.7755   0.7767   0.8484   0.8780
     0.9284   0.9941   1.1907   1.2193   1.2443   1.2652   1.3192

          k =-0.0699 0.0673 0.0000 ( 29098 PWs)   bands (ev):

   -42.7305 -42.5839 -42.5721 -42.5636 -42.5527 -42.5357 -42.5251 -42.5144
   -42.0363 -42.0255 -42.0165 -42.0033 -22.7945 -22.6922 -22.6412 -22.6292
   -22.6061 -22.6035 -22.5892 -22.5762 -22.5674 -22.5541 -22.5510 -22.5345
   -22.5113 -22.5064 -22.4985 -22.4708 -22.4527 -22.4218 -22.4059 -22.3794
   -22.3576 -22.3532 -22.3275 -22.2564 -22.1000 -22.0737 -22.0317 -21.9909
   -21.9507 -21.9455 -21.9397 -21.9346 -21.9302 -21.8930 -21.8460 -21.8174
   -15.3283  -2.5872  -1.9709  -1.8003  -1.5396  -1.4696  -1.2513  -1.1463
    -0.9028  -0.5869  -0.4822  -0.1549  -0.0904  -0.0013   0.2813   0.3449
     0.4713   0.5043   0.5957   0.6954   0.7560   0.7982   0.8610   0.9408
     0.9866   1.0473   1.0901   1.2092   1.2482   1.2649   1.3148

          k =-0.0699 0.0942 0.0000 ( 29098 PWs)   bands (ev):

   -42.7305 -42.5839 -42.5722 -42.5635 -42.5527 -42.5357 -42.5252 -42.5144
   -42.0363 -42.0255 -42.0165 -42.0034 -22.7945 -22.6922 -22.6412 -22.6292
   -22.6061 -22.6035 -22.5892 -22.5762 -22.5673 -22.5542 -22.5510 -22.5346
   -22.5113 -22.5064 -22.4985 -22.4708 -22.4527 -22.4218 -22.4058 -22.3795
   -22.3576 -22.3532 -22.3275 -22.2564 -22.1000 -22.0737 -22.0317 -21.9909
   -21.9507 -21.9455 -21.9397 -21.9346 -21.9302 -21.8930 -21.8460 -21.8174
   -15.3283  -2.5872  -1.9709  -1.8003  -1.5396  -1.4696  -1.2513  -1.1463
    -0.9028  -0.5869  -0.4822  -0.1549  -0.0904  -0.0013   0.2813   0.3449
     0.4713   0.5043   0.5957   0.6953   0.7560   0.7982   0.8610   0.9408
     0.9866   1.0473   1.0901   1.2092   1.2482   1.2649   1.3148

          k =-0.0699-0.0404 0.0000 ( 29048 PWs)   bands (ev):

   -42.7305 -42.5820 -42.5766 -42.5586 -42.5551 -42.5359 -42.5248 -42.5146
   -42.0343 -42.0297 -42.0131 -42.0046 -22.7945 -22.7013 -22.6279 -22.6258
   -22.6196 -22.6003 -22.5967 -22.5883 -22.5595 -22.5555 -22.5309 -22.5205
   -22.5051 -22.4991 -22.4948 -22.4650 -22.4624 -22.4448 -22.4272 -22.3815
   -22.3687 -22.3333 -22.3290 -22.2489 -22.0974 -22.0944 -21.9830 -21.9760
   -21.9561 -21.9502 -21.9462 -21.9428 -21.9353 -21.9304 -21.8217 -21.8201
   -15.3283  -2.3942  -2.3425  -1.7329  -1.6096  -1.4337  -1.2098  -1.0478
    -0.6278  -0.6268  -0.4454  -0.2996  -0.2006  -0.1847   0.4625   0.4695
     0.5024   0.5541   0.5895   0.6197   0.7755   0.7768   0.8484   0.8780
     0.9284   0.9941   1.1907   1.2193   1.2443   1.2652   1.3192

     the Fermi energy is     0.7436 ev

!    total energy              =   -1156.95285132 Ry
     Harris-Foulkes estimate   =   -1156.95282701 Ry
     estimated scf accuracy    <       0.00000781 Ry

     The total energy is the sum of the following terms:

     one-electron contribution =   -5596.85715821 Ry
     hartree contribution      =    2792.47817030 Ry
     xc contribution           =    -346.32694747 Ry
     ewald contribution        =    1993.87407068 Ry
     electric field correction =       0.00029109 Ry
     smearing contrib. (-TS)   =      -0.12127772 Ry

     convergence has been achieved in  16 iterations
 
 BEEF-vdW xc energy contributions
           1 :   -301.951111931560     
           2 :    270.947411502017     
           3 :   -217.678771977149     
           4 :    155.349182837802     
           5 :   -96.1387112612830     
           6 :    47.6074739934096     
           7 :   -12.2414340542398     
           8 :   -10.7178251215336     
           9 :    23.0041159850159     
          10 :   -26.0878053851304     
          11 :    21.2940449008445     
          12 :   -10.6208798434340     
          13 :   -2.74755079427945     
          14 :    14.8679707940277     
          15 :   -22.2835013748551     
          16 :    23.3086437076327     
          17 :   -18.5129366128700     
          18 :    10.1332064272495     
          19 :  -0.882444813956340     
          20 :   -7.08170030037974     
          21 :    12.5518480081357     
          22 :   -15.0981000954187     
          23 :    14.7334912361124     
          24 :   -11.7689335989689     
          25 :    6.89420750030195     
          26 :   -1.25440112986291     
          27 :   -3.72925875900671     
          28 :    6.81836898301992     
          29 :   -7.45264620986541     
          30 :    5.95329847596906     
          31 :   -28.9646678488053     
          32 :   -19.7700689208414     

     Forces acting on atoms (Ry/au):


     negative rho (up, down):  2.610E-04 0.000E+00
     atom    1 type  1   force =     0.00037407    0.00021435    0.00390951
     atom    2 type  1   force =    -0.00034950    0.00022671    0.00391091
     atom    3 type  1   force =     0.00001153   -0.00043194    0.00391287
     atom    4 type  1   force =    -0.00004040    0.00000581    0.00328975
     atom    5 type  1   force =     0.00000558   -0.00296958    0.00280465
     atom    6 type  1   force =    -0.00001192    0.00002900   -0.01345650
     atom    7 type  1   force =     0.00260046    0.00148262    0.00279318
     atom    8 type  1   force =    -0.00258524    0.00146340    0.00278443
     atom    9 type  1   force =    -0.00001881    0.00000086   -0.01257774
     atom   10 type  1   force =     0.00000535    0.05429573    0.04927664
     atom   11 type  1   force =     0.04703047   -0.02714815    0.04927905
     atom   12 type  1   force =    -0.04702417   -0.02716445    0.04928371
     atom   13 type  2   force =     0.00000259   -0.00000436   -0.14521046

     Total force =     0.193328     Total SCF correction =     0.004504


     entering subroutine stress ...


     negative rho (up, down):  2.610E-04 0.000E+00
          total   stress  (Ry/bohr**3)                   (kbar)     P=   -7.82
  -0.00003805   0.00000000  -0.00000001         -5.60      0.00     -0.00
   0.00000000  -0.00003803  -0.00000001          0.00     -5.59     -0.00
  -0.00000001  -0.00000001  -0.00008342         -0.00     -0.00    -12.27


     BFGS Geometry Optimization

     number of scf cycles    =   1
     number of bfgs steps    =   0

     energy   new            =   -1156.9528513248 Ry

     new trust radius        =       0.1452104641 bohr
     new conv_thr            =       0.0000099958 Ry


ATOMIC_POSITIONS (crystal)
Y1       0.166666667   0.166666667   0.386999750    0   0   0
Y1       0.666666667   0.166666667   0.386999750    0   0   0
Y1       0.166666667   0.666666667   0.386999750    0   0   0
Y1       0.666666667   0.666666667   0.386999750    0   0   0
Y1       0.833333333   0.333333333   0.500000000    0   0   0
Y1       0.333333333   0.333333333   0.500000000    0   0   0
Y1       0.833333333   0.833333333   0.500000000    0   0   0
Y1       0.333333333   0.833333333   0.500000000    0   0   0
Y1      -0.000001428   0.000000074   0.612742668
Y1       0.497681069   0.004638653   0.614009393
Y1       0.004639330   0.497680649   0.614009443
Y1       0.497681183   0.497679257   0.614009538
O1       0.333333711   0.333332961   0.674423222



     Writing output data file calc.save
     Check: negative starting charge=   -0.000692
     NEW-OLD atomic charge density approx. for the potential
     Check: negative starting charge=   -0.000697

     negative rho (up, down):  6.736E-04 0.000E+00
 
     Adding external electric field

     Computed dipole along edir(3) : 
        Dipole               -0.4224 Ry au,         -1.0737 Debye
        Dipole field         -0.0007 Ry au
 
        Potential amp.        0.0654 Ry
        Total length         47.6094 bohr
 

     total cpu time spent up to now is      736.9 secs

     per-process dynamical memory:   107.7 Mb

     Self-consistent Calculation

     iteration #  1     ecut=    36.75 Ry     beta=0.30
     Davidson diagonalization with overlap
     ethr =  1.00E-06,  avg # of iterations = 13.4

     negative rho (up, down):  3.953E-04 0.000E+00
 
     Adding external electric field

     Computed dipole along edir(3) : 
        Dipole                0.3790 Ry au,          0.9634 Debye
        Dipole field          0.0006 Ry au
 
        Potential amp.       -0.0587 Ry
        Total length         47.6094 bohr
 

     total cpu time spent up to now is      794.1 secs

     total energy              =   -1156.97103375 Ry
     Harris-Foulkes estimate   =   -1156.99105091 Ry
     estimated scf accuracy    <       0.04085553 Ry

     iteration #  2     ecut=    36.75 Ry     beta=0.30
     Davidson diagonalization with overlap
     ethr =  2.96E-05,  avg # of iterations =  8.7

     negative rho (up, down):  2.833E-04 0.000E+00
 
     Adding external electric field

     Computed dipole along edir(3) : 
        Dipole               -0.3529 Ry au,         -0.8970 Debye
        Dipole field         -0.0006 Ry au
 
        Potential amp.        0.0547 Ry
        Total length         47.6094 bohr
 

     total cpu time spent up to now is      833.5 secs

     total energy              =   -1156.75517373 Ry
     Harris-Foulkes estimate   =   -1157.22614335 Ry
     estimated scf accuracy    <      19.58727658 Ry

     iteration #  3     ecut=    36.75 Ry     beta=0.30
     Davidson diagonalization with overlap
     ethr =  2.96E-05,  avg # of iterations =  9.3

     negative rho (up, down):  2.510E-04 0.000E+00
 
     Adding external electric field

     Computed dipole along edir(3) : 
        Dipole               -0.3495 Ry au,         -0.8883 Debye
        Dipole field         -0.0006 Ry au
 
        Potential amp.        0.0541 Ry
        Total length         47.6094 bohr
 

     total cpu time spent up to now is      874.7 secs

     total energy              =   -1156.98823756 Ry
     Harris-Foulkes estimate   =   -1156.98961260 Ry
     estimated scf accuracy    <       0.00577704 Ry

     iteration #  4     ecut=    36.75 Ry     beta=0.30
     Davidson diagonalization with overlap
     ethr =  4.19E-06,  avg # of iterations = 10.7

     negative rho (up, down):  2.511E-04 0.000E+00
 
     Adding external electric field

     Computed dipole along edir(3) : 
        Dipole               -0.3299 Ry au,         -0.8386 Debye
        Dipole field         -0.0005 Ry au
 
        Potential amp.        0.0511 Ry
        Total length         47.6094 bohr
 

     total cpu time spent up to now is      914.6 secs

     total energy              =   -1156.98839461 Ry
     Harris-Foulkes estimate   =   -1156.98975048 Ry
     estimated scf accuracy    <       0.01427830 Ry

     iteration #  5     ecut=    36.75 Ry     beta=0.30
     Davidson diagonalization with overlap
     ethr =  4.19E-06,  avg # of iterations =  7.7

     negative rho (up, down):  1.966E-04 0.000E+00
 
     Adding external electric field

     Computed dipole along edir(3) : 
        Dipole               -0.3252 Ry au,         -0.8267 Debye
        Dipole field         -0.0005 Ry au
 
        Potential amp.        0.0504 Ry
        Total length         47.6094 bohr
 

     total cpu time spent up to now is      948.9 secs

     total energy              =   -1156.98900795 Ry
     Harris-Foulkes estimate   =   -1156.98916009 Ry
     estimated scf accuracy    <       0.00080337 Ry

     iteration #  6     ecut=    36.75 Ry     beta=0.30
     Davidson diagonalization with overlap
     ethr =  5.82E-07,  avg # of iterations =  6.6

     negative rho (up, down):  1.953E-04 0.000E+00
 
     Adding external electric field

     Computed dipole along edir(3) : 
        Dipole               -0.3199 Ry au,         -0.8132 Debye
        Dipole field         -0.0005 Ry au
 
        Potential amp.        0.0496 Ry
        Total length         47.6094 bohr
 

     total cpu time spent up to now is      984.2 secs

     total energy              =   -1156.98909585 Ry
     Harris-Foulkes estimate   =   -1156.98911700 Ry
     estimated scf accuracy    <       0.00010168 Ry

     iteration #  7     ecut=    36.75 Ry     beta=0.30
     Davidson diagonalization with overlap
     ethr =  7.37E-08,  avg # of iterations =  8.6

     negative rho (up, down):  2.067E-04 0.000E+00
 
     Adding external electric field

     Computed dipole along edir(3) : 
        Dipole               -0.3202 Ry au,         -0.8140 Debye
        Dipole field         -0.0005 Ry au
 
        Potential amp.        0.0496 Ry
        Total length         47.6094 bohr
 

     total cpu time spent up to now is     1021.7 secs

     total energy              =   -1156.98911714 Ry
     Harris-Foulkes estimate   =   -1156.98911252 Ry
     estimated scf accuracy    <       0.00002592 Ry

     iteration #  8     ecut=    36.75 Ry     beta=0.30
     Davidson diagonalization with overlap
     ethr =  1.88E-08,  avg # of iterations =  3.2

     negative rho (up, down):  2.576E-04 0.000E+00

     negative rho (up, down):  2.576E-04 0.000E+00

     negative rho (up, down):  2.576E-04 0.000E+00

     negative rho (up, down):  2.576E-04 0.000E+00

     negative rho (up, down):  2.576E-04 0.000E+00

     negative rho (up, down):  2.576E-04 0.000E+00

     negative rho (up, down):  2.576E-04 0.000E+00

     negative rho (up, down):  2.576E-04 0.000E+00

     negative rho (up, down):  2.576E-04 0.000E+00

     negative rho (up, down):  2.576E-04 0.000E+00

     negative rho (up, down):  2.576E-04 0.000E+00

     negative rho (up, down):  2.576E-04 0.000E+00

     negative rho (up, down):  2.576E-04 0.000E+00

     negative rho (up, down):  2.576E-04 0.000E+00

     negative rho (up, down):  2.576E-04 0.000E+00

     negative rho (up, down):  2.576E-04 0.000E+00

     negative rho (up, down):  2.576E-04 0.000E+00

     negative rho (up, down):  2.576E-04 0.000E+00

     negative rho (up, down):  2.576E-04 0.000E+00

     negative rho (up, down):  2.576E-04 0.000E+00

     negative rho (up, down):  2.576E-04 0.000E+00

     negative rho (up, down):  2.576E-04 0.000E+00

     negative rho (up, down):  2.576E-04 0.000E+00

     negative rho (up, down):  2.576E-04 0.000E+00

     negative rho (up, down):  2.576E-04 0.000E+00

     negative rho (up, down):  2.576E-04 0.000E+00

     negative rho (up, down):  2.576E-04 0.000E+00

     negative rho (up, down):  2.576E-04 0.000E+00

     negative rho (up, down):  2.576E-04 0.000E+00

     negative rho (up, down):  2.576E-04 0.000E+00

     negative rho (up, down):  2.576E-04 0.000E+00

     negative rho (up, down):  2.576E-04 0.000E+00

     negative rho (up, down):  2.576E-04 0.000E+00

     negative rho (up, down):  2.576E-04 0.000E+00

     negative rho (up, down):  2.576E-04 0.000E+00
 
     Adding external electric field

     Computed dipole along edir(3) : 
        Dipole               -0.3429 Ry au,         -0.8715 Debye
        Dipole field         -0.0006 Ry au
 
        Potential amp.        0.0531 Ry
        Total length         47.6094 bohr
 

     total cpu time spent up to now is     1137.0 secs

     End of self-consistent calculation

          k = 0.0000 0.0000 0.0000 ( 28997 PWs)   bands (ev):

   -42.6393 -42.5278 -42.4878 -42.4832 -42.4832 -42.4827 -42.4524 -42.4524
   -41.9962 -41.9584 -41.9583 -41.9346 -22.7091 -22.6796 -22.6796 -22.6329
   -22.6321 -22.6321 -22.6028 -22.5631 -22.4965 -22.4916 -22.4916 -22.4682
   -22.4364 -22.4364 -22.3257 -22.3257 -22.3087 -22.3087 -22.3077 -22.2998
   -22.2092 -22.2092 -22.1668 -22.1668 -22.1107 -22.1028 -22.1028 -21.9106
   -21.8867 -21.8866 -21.8618 -21.8203 -21.8045 -21.8045 -21.7122 -21.7121
   -15.5678  -3.4583  -2.5529  -1.7791  -1.7791  -1.7362  -1.3634  -0.7734
    -0.7176  -0.7176  -0.6694  -0.6694  -0.5902  -0.2661  -0.2661   0.0112
     0.1549   0.1550   0.2117   0.6321   0.6345   0.6345   1.0031   1.3723
     1.4946   1.5072   1.5072   1.6691   1.7376   1.7376   2.0311

          k = 0.0000 0.0269 0.0000 ( 29019 PWs)   bands (ev):

   -42.6389 -42.5249 -42.4892 -42.4847 -42.4832 -42.4813 -42.4542 -42.4524
   -41.9935 -41.9603 -41.9583 -41.9353 -22.7076 -22.6668 -22.6566 -22.6170
   -22.6170 -22.6060 -22.5862 -22.5569 -22.4966 -22.4913 -22.4897 -22.4649
   -22.4417 -22.4371 -22.3452 -22.3293 -22.3256 -22.3242 -22.3063 -22.3014
   -22.2391 -22.2159 -22.1929 -22.1709 -22.0956 -22.0902 -22.0823 -21.9072
   -21.8870 -21.8859 -21.8614 -21.8329 -21.8202 -21.8016 -21.7406 -21.7187
   -15.5667  -3.3129  -2.4247  -1.7847  -1.7589  -1.6692  -1.2434  -0.9597
    -0.7147  -0.6887  -0.6387  -0.5612  -0.4732  -0.1948  -0.1315   0.0716
     0.2165   0.2355   0.3070   0.6522   0.6716   0.6991   1.0167   1.2850
     1.3614   1.4320   1.4360   1.6164   1.6863   1.6879   1.9070

          k = 0.0000 0.0538 0.0000 ( 29058 PWs)   bands (ev):

   -42.6381 -42.5172 -42.4959 -42.4857 -42.4832 -42.4776 -42.4588 -42.4524
   -41.9865 -41.9662 -41.9583 -41.9366 -22.7046 -22.6374 -22.5974 -22.5800
   -22.5781 -22.5534 -22.5395 -22.5290 -22.5032 -22.4886 -22.4857 -22.4564
   -22.4518 -22.4393 -22.3916 -22.3662 -22.3649 -22.3515 -22.3192 -22.3036
   -22.2838 -22.2598 -22.2342 -22.1805 -22.0625 -22.0571 -22.0166 -21.9003
   -21.8889 -21.8857 -21.8695 -21.8611 -21.8573 -21.8165 -21.7854 -21.7365
   -15.5645  -2.9038  -2.1097  -1.8490  -1.7195  -1.5318  -1.4142  -0.9056
    -0.7317  -0.6064  -0.5900  -0.3124  -0.2635  -0.0776   0.2269   0.2806
     0.4009   0.4428   0.5245   0.7479   0.7486   0.8461   0.9497   1.1289
     1.1757   1.1913   1.2220   1.4260   1.4567   1.4958   1.5886

          k = 0.0000-0.0807 0.0000 ( 29048 PWs)   bands (ev):

   -42.6377 -42.5083 -42.5047 -42.4859 -42.4832 -42.4747 -42.4620 -42.4524
   -41.9796 -41.9725 -41.9583 -41.9371 -22.7030 -22.6199 -22.5553 -22.5550
   -22.5431 -22.5306 -22.5224 -22.5185 -22.4867 -22.4836 -22.4711 -22.4567
   -22.4416 -22.4267 -22.4238 -22.4017 -22.3931 -22.3914 -22.3671 -22.3115
   -22.2995 -22.2604 -22.2578 -22.1860 -22.0405 -22.0331 -21.9270 -21.9156
   -21.9000 -21.8953 -21.8898 -21.8811 -21.8794 -21.8601 -21.7649 -21.7573
   -15.5634  -2.3676  -2.2852  -1.8171  -1.7003  -1.7003  -1.2767  -1.0876
    -0.5597  -0.5589  -0.3892  -0.2495  -0.1374  -0.1173   0.5325   0.5400
     0.5750   0.6242   0.6605   0.6923   0.8458   0.8461   0.9233   0.9466
     0.9960   1.0784   1.2514   1.2882   1.3230   1.3417   1.3620

          k = 0.0233-0.0135 0.0000 ( 29019 PWs)   bands (ev):

   -42.6389 -42.5249 -42.4892 -42.4847 -42.4832 -42.4813 -42.4543 -42.4524
   -41.9935 -41.9603 -41.9583 -41.9353 -22.7076 -22.6668 -22.6566 -22.6170
   -22.6170 -22.6060 -22.5862 -22.5569 -22.4966 -22.4914 -22.4896 -22.4649
   -22.4417 -22.4371 -22.3452 -22.3293 -22.3256 -22.3242 -22.3063 -22.3014
   -22.2391 -22.2159 -22.1929 -22.1709 -22.0956 -22.0902 -22.0823 -21.9072
   -21.8870 -21.8859 -21.8614 -21.8329 -21.8202 -21.8016 -21.7406 -21.7187
   -15.5667  -3.3129  -2.4247  -1.7847  -1.7589  -1.6692  -1.2434  -0.9597
    -0.7147  -0.6887  -0.6387  -0.5612  -0.4732  -0.1948  -0.1315   0.0716
     0.2165   0.2355   0.3070   0.6522   0.6716   0.6991   1.0167   1.2850
     1.3614   1.4320   1.4360   1.6164   1.6863   1.6879   1.9070

          k = 0.0233 0.0135 0.0000 ( 29019 PWs)   bands (ev):

   -42.6389 -42.5249 -42.4892 -42.4847 -42.4832 -42.4813 -42.4543 -42.4524
   -41.9935 -41.9603 -41.9584 -41.9353 -22.7076 -22.6668 -22.6566 -22.6170
   -22.6169 -22.6060 -22.5862 -22.5569 -22.4966 -22.4914 -22.4896 -22.4649
   -22.4417 -22.4371 -22.3452 -22.3293 -22.3256 -22.3242 -22.3063 -22.3014
   -22.2391 -22.2159 -22.1930 -22.1709 -22.0956 -22.0902 -22.0823 -21.9072
   -21.8870 -21.8859 -21.8614 -21.8329 -21.8201 -21.8016 -21.7406 -21.7187
   -15.5667  -3.3129  -2.4247  -1.7847  -1.7589  -1.6692  -1.2434  -0.9597
    -0.7147  -0.6887  -0.6387  -0.5612  -0.4732  -0.1948  -0.1315   0.0716
     0.2165   0.2356   0.3070   0.6522   0.6716   0.6991   1.0167   1.2850
     1.3614   1.4320   1.4360   1.6164   1.6863   1.6879   1.9070

          k = 0.0233 0.0404 0.0000 ( 29087 PWs)   bands (ev):

   -42.6383 -42.5197 -42.4920 -42.4886 -42.4818 -42.4786 -42.4577 -42.4523
   -41.9887 -41.9637 -41.9590 -41.9362 -22.7053 -22.6434 -22.6162 -22.5970
   -22.5716 -22.5685 -22.5594 -22.5432 -22.4985 -22.4944 -22.4843 -22.4566
   -22.4522 -22.4377 -22.3851 -22.3769 -22.3285 -22.3171 -22.3107 -22.3103
   -22.2925 -22.2360 -22.2300 -22.1805 -22.0760 -22.0509 -22.0495 -21.9022
   -21.8885 -21.8852 -21.8752 -21.8608 -21.8153 -21.8071 -21.7909 -21.7325
   -15.5650  -3.0347  -2.1976  -1.7818  -1.7563  -1.5607  -1.1392  -1.0878
    -0.9488  -0.6098  -0.5553  -0.3440  -0.2580  -0.0482   0.0618   0.1958
     0.3390   0.3858   0.4634   0.7094   0.7507   0.7914   0.9939   1.1608
     1.2029   1.2231   1.3786   1.4663   1.5151   1.5802   1.5950

          k = 0.0233-0.0942 0.0000 ( 29098 PWs)   bands (ev):

   -42.6377 -42.5107 -42.4996 -42.4913 -42.4805 -42.4745 -42.4625 -42.4522
   -41.9808 -41.9699 -41.9601 -41.9368 -22.7031 -22.6110 -22.5603 -22.5560
   -22.5357 -22.5317 -22.5225 -22.5086 -22.4956 -22.4823 -22.4792 -22.4704
   -22.4480 -22.4423 -22.4321 -22.4176 -22.3817 -22.3617 -22.3341 -22.3121
   -22.2874 -22.2844 -22.2556 -22.1932 -22.0412 -22.0145 -21.9730 -21.9318
   -21.8960 -21.8903 -21.8846 -21.8760 -21.8603 -21.8326 -21.7865 -21.7573
   -15.5634  -2.5343  -2.0021  -1.8328  -1.7399  -1.5942  -1.3264  -1.1396
    -0.8898  -0.5326  -0.4349  -0.0818  -0.0320   0.0686   0.3485   0.4149
     0.5405   0.5748   0.6753   0.7688   0.8236   0.8688   0.9295   1.0121
     1.0536   1.1230   1.1596   1.2455   1.3177   1.3343   1.3828

          k = 0.0233-0.0673 0.0000 ( 29098 PWs)   bands (ev):

   -42.6377 -42.5107 -42.4996 -42.4913 -42.4805 -42.4745 -42.4625 -42.4522
   -41.9808 -41.9699 -41.9601 -41.9368 -22.7031 -22.6110 -22.5603 -22.5560
   -22.5357 -22.5317 -22.5225 -22.5086 -22.4956 -22.4823 -22.4792 -22.4704
   -22.4480 -22.4423 -22.4321 -22.4176 -22.3817 -22.3617 -22.3341 -22.3121
   -22.2874 -22.2844 -22.2556 -22.1932 -22.0412 -22.0145 -21.9730 -21.9318
   -21.8960 -21.8903 -21.8846 -21.8760 -21.8603 -21.8326 -21.7865 -21.7573
   -15.5634  -2.5343  -2.0021  -1.8328  -1.7399  -1.5942  -1.3264  -1.1396
    -0.8898  -0.5326  -0.4349  -0.0818  -0.0320   0.0686   0.3485   0.4149
     0.5405   0.5748   0.6753   0.7688   0.8236   0.8688   0.9295   1.0121
     1.0536   1.1230   1.1596   1.2455   1.3177   1.3343   1.3828

          k = 0.0233-0.0404 0.0000 ( 29087 PWs)   bands (ev):

   -42.6383 -42.5197 -42.4920 -42.4886 -42.4818 -42.4786 -42.4576 -42.4523
   -41.9887 -41.9637 -41.9590 -41.9362 -22.7053 -22.6434 -22.6162 -22.5970
   -22.5715 -22.5685 -22.5594 -22.5432 -22.4985 -22.4944 -22.4843 -22.4566
   -22.4521 -22.4377 -22.3852 -22.3769 -22.3285 -22.3171 -22.3107 -22.3103
   -22.2925 -22.2360 -22.2300 -22.1806 -22.0760 -22.0509 -22.0495 -21.9022
   -21.8885 -21.8851 -21.8752 -21.8608 -21.8153 -21.8071 -21.7909 -21.7325
   -15.5650  -3.0347  -2.1976  -1.7818  -1.7563  -1.5607  -1.1392  -1.0878
    -0.9488  -0.6098  -0.5553  -0.3440  -0.2580  -0.0482   0.0618   0.1958
     0.3391   0.3858   0.4634   0.7094   0.7507   0.7914   0.9939   1.1608
     1.2029   1.2231   1.3785   1.4663   1.5151   1.5802   1.5950

          k = 0.0466-0.0269 0.0000 ( 29058 PWs)   bands (ev):

   -42.6381 -42.5172 -42.4959 -42.4857 -42.4832 -42.4776 -42.4588 -42.4524
   -41.9865 -41.9662 -41.9583 -41.9366 -22.7046 -22.6374 -22.5974 -22.5800
   -22.5780 -22.5534 -22.5394 -22.5290 -22.5032 -22.4887 -22.4857 -22.4564
   -22.4518 -22.4393 -22.3916 -22.3662 -22.3649 -22.3515 -22.3192 -22.3036
   -22.2838 -22.2598 -22.2342 -22.1805 -22.0625 -22.0571 -22.0166 -21.9003
   -21.8889 -21.8857 -21.8695 -21.8611 -21.8573 -21.8165 -21.7854 -21.7365
   -15.5645  -2.9038  -2.1097  -1.8490  -1.7195  -1.5318  -1.4142  -0.9056
    -0.7317  -0.6064  -0.5900  -0.3124  -0.2635  -0.0776   0.2269   0.2806
     0.4009   0.4428   0.5245   0.7479   0.7486   0.8461   0.9497   1.1289
     1.1757   1.1912   1.2220   1.4260   1.4567   1.4958   1.5886

          k = 0.0466 0.0000 0.0000 ( 29087 PWs)   bands (ev):

   -42.6383 -42.5197 -42.4920 -42.4886 -42.4818 -42.4786 -42.4577 -42.4523
   -41.9887 -41.9637 -41.9590 -41.9362 -22.7053 -22.6434 -22.6162 -22.5970
   -22.5716 -22.5685 -22.5594 -22.5432 -22.4985 -22.4944 -22.4843 -22.4566
   -22.4522 -22.4377 -22.3851 -22.3769 -22.3285 -22.3171 -22.3107 -22.3103
   -22.2925 -22.2360 -22.2300 -22.1805 -22.0760 -22.0509 -22.0495 -21.9022
   -21.8885 -21.8852 -21.8752 -21.8608 -21.8153 -21.8071 -21.7909 -21.7325
   -15.5650  -3.0347  -2.1976  -1.7818  -1.7563  -1.5607  -1.1392  -1.0878
    -0.9488  -0.6098  -0.5553  -0.3440  -0.2580  -0.0482   0.0618   0.1958
     0.3390   0.3858   0.4634   0.7094   0.7507   0.7914   0.9939   1.1608
     1.2029   1.2231   1.3786   1.4663   1.5151   1.5802   1.5950

          k = 0.0466 0.0269 0.0000 ( 29058 PWs)   bands (ev):

   -42.6381 -42.5172 -42.4958 -42.4858 -42.4832 -42.4775 -42.4589 -42.4524
   -41.9865 -41.9662 -41.9584 -41.9366 -22.7046 -22.6374 -22.5974 -22.5800
   -22.5780 -22.5533 -22.5395 -22.5290 -22.5032 -22.4887 -22.4857 -22.4564
   -22.4518 -22.4393 -22.3916 -22.3662 -22.3649 -22.3515 -22.3192 -22.3036
   -22.2838 -22.2598 -22.2342 -22.1805 -22.0625 -22.0571 -22.0166 -21.9003
   -21.8889 -21.8857 -21.8695 -21.8611 -21.8573 -21.8165 -21.7854 -21.7365
   -15.5645  -2.9038  -2.1097  -1.8490  -1.7195  -1.5318  -1.4142  -0.9056
    -0.7317  -0.6064  -0.5900  -0.3124  -0.2635  -0.0776   0.2269   0.2806
     0.4009   0.4428   0.5245   0.7479   0.7486   0.8461   0.9497   1.1289
     1.1757   1.1912   1.2220   1.4260   1.4567   1.4958   1.5886

          k = 0.0466-0.1076 0.0000 ( 29098 PWs)   bands (ev):

   -42.6377 -42.5107 -42.4996 -42.4913 -42.4805 -42.4745 -42.4626 -42.4522
   -41.9808 -41.9699 -41.9601 -41.9368 -22.7031 -22.6110 -22.5603 -22.5559
   -22.5357 -22.5317 -22.5225 -22.5086 -22.4956 -22.4823 -22.4792 -22.4705
   -22.4480 -22.4422 -22.4321 -22.4176 -22.3817 -22.3617 -22.3341 -22.3122
   -22.2874 -22.2844 -22.2556 -22.1932 -22.0412 -22.0145 -21.9730 -21.9318
   -21.8960 -21.8903 -21.8846 -21.8760 -21.8603 -21.8326 -21.7865 -21.7573
   -15.5634  -2.5343  -2.0021  -1.8328  -1.7399  -1.5942  -1.3264  -1.1396
    -0.8898  -0.5326  -0.4349  -0.0818  -0.0319   0.0686   0.3485   0.4149
     0.5405   0.5748   0.6753   0.7688   0.8236   0.8688   0.9295   1.0121
     1.0536   1.1230   1.1596   1.2455   1.3177   1.3343   1.3828

          k = 0.0466-0.0807 0.0000 ( 29103 PWs)   bands (ev):

   -42.6376 -42.5044 -42.4993 -42.4993 -42.4791 -42.4715 -42.4660 -42.4520
   -41.9743 -41.9743 -41.9623 -41.9368 -22.7023 -22.5701 -22.5667 -22.5212
   -22.5195 -22.5131 -22.5101 -22.5025 -22.4986 -22.4789 -22.4746 -22.4604
   -22.4567 -22.4565 -22.4483 -22.4345 -22.4229 -22.3868 -22.3116 -22.2939
   -22.2938 -22.2929 -22.2886 -22.2058 -21.9957 -21.9954 -21.9584 -21.9450
   -21.9436 -21.8927 -21.8899 -21.8855 -21.8600 -21.7953 -21.7928 -21.7928
   -15.5629  -2.1031  -1.9907  -1.9710  -1.6649  -1.6077  -1.5775  -1.0250
    -0.8723  -0.8624  -0.0491  -0.0376   0.1620   0.2779   0.3168   0.3171
     0.6452   0.6517   0.7468   0.7508   0.8309   0.9029   0.9535   0.9717
     1.0157   1.0289   1.0672   1.1679   1.2665   1.2959   1.3413

          k = 0.0466-0.0538 0.0000 ( 29098 PWs)   bands (ev):

   -42.6377 -42.5107 -42.4996 -42.4913 -42.4805 -42.4745 -42.4625 -42.4522
   -41.9808 -41.9699 -41.9601 -41.9368 -22.7031 -22.6110 -22.5603 -22.5560
   -22.5357 -22.5317 -22.5225 -22.5086 -22.4956 -22.4823 -22.4792 -22.4705
   -22.4480 -22.4423 -22.4321 -22.4176 -22.3817 -22.3617 -22.3341 -22.3121
   -22.2874 -22.2844 -22.2556 -22.1932 -22.0412 -22.0145 -21.9730 -21.9318
   -21.8960 -21.8903 -21.8846 -21.8760 -21.8603 -21.8326 -21.7865 -21.7573
   -15.5634  -2.5343  -2.0021  -1.8328  -1.7399  -1.5942  -1.3264  -1.1396
    -0.8898  -0.5326  -0.4349  -0.0818  -0.0319   0.0686   0.3485   0.4149
     0.5405   0.5748   0.6753   0.7688   0.8236   0.8688   0.9295   1.0121
     1.0536   1.1230   1.1596   1.2455   1.3177   1.3343   1.3828

          k =-0.0699 0.0404 0.0000 ( 29048 PWs)   bands (ev):

   -42.6377 -42.5083 -42.5047 -42.4859 -42.4832 -42.4747 -42.4621 -42.4524
   -41.9796 -41.9725 -41.9583 -41.9371 -22.7030 -22.6199 -22.5553 -22.5550
   -22.5431 -22.5306 -22.5224 -22.5185 -22.4867 -22.4836 -22.4711 -22.4567
   -22.4416 -22.4267 -22.4238 -22.4017 -22.3931 -22.3914 -22.3671 -22.3115
   -22.2996 -22.2604 -22.2578 -22.1859 -22.0405 -22.0331 -21.9270 -21.9156
   -21.9000 -21.8953 -21.8898 -21.8811 -21.8794 -21.8601 -21.7649 -21.7573
   -15.5634  -2.3676  -2.2852  -1.8171  -1.7003  -1.7003  -1.2767  -1.0876
    -0.5597  -0.5589  -0.3892  -0.2495  -0.1374  -0.1173   0.5325   0.5400
     0.5749   0.6242   0.6605   0.6923   0.8458   0.8461   0.9233   0.9466
     0.9960   1.0784   1.2514   1.2882   1.3230   1.3417   1.3620

          k =-0.0699 0.0673 0.0000 ( 29098 PWs)   bands (ev):

   -42.6377 -42.5107 -42.4996 -42.4913 -42.4805 -42.4745 -42.4626 -42.4522
   -41.9808 -41.9699 -41.9601 -41.9368 -22.7031 -22.6110 -22.5603 -22.5560
   -22.5357 -22.5317 -22.5225 -22.5086 -22.4956 -22.4823 -22.4792 -22.4705
   -22.4480 -22.4423 -22.4321 -22.4176 -22.3817 -22.3617 -22.3341 -22.3121
   -22.2874 -22.2844 -22.2556 -22.1932 -22.0412 -22.0145 -21.9730 -21.9318
   -21.8960 -21.8903 -21.8846 -21.8760 -21.8603 -21.8326 -21.7865 -21.7573
   -15.5634  -2.5343  -2.0021  -1.8328  -1.7399  -1.5942  -1.3264  -1.1396
    -0.8898  -0.5326  -0.4349  -0.0818  -0.0319   0.0686   0.3485   0.4149
     0.5405   0.5748   0.6753   0.7688   0.8236   0.8688   0.9295   1.0121
     1.0536   1.1230   1.1596   1.2455   1.3177   1.3343   1.3828

          k =-0.0699 0.0942 0.0000 ( 29098 PWs)   bands (ev):

   -42.6377 -42.5107 -42.4996 -42.4913 -42.4805 -42.4745 -42.4626 -42.4522
   -41.9808 -41.9699 -41.9601 -41.9368 -22.7031 -22.6110 -22.5603 -22.5560
   -22.5357 -22.5317 -22.5225 -22.5086 -22.4956 -22.4823 -22.4792 -22.4705
   -22.4480 -22.4422 -22.4321 -22.4176 -22.3817 -22.3617 -22.3341 -22.3122
   -22.2874 -22.2844 -22.2556 -22.1932 -22.0412 -22.0145 -21.9730 -21.9318
   -21.8960 -21.8903 -21.8846 -21.8760 -21.8603 -21.8326 -21.7865 -21.7573
   -15.5634  -2.5343  -2.0021  -1.8328  -1.7399  -1.5942  -1.3264  -1.1396
    -0.8898  -0.5326  -0.4349  -0.0818  -0.0319   0.0686   0.3485   0.4149
     0.5405   0.5748   0.6753   0.7688   0.8236   0.8688   0.9295   1.0121
     1.0536   1.1230   1.1596   1.2455   1.3177   1.3343   1.3828

          k =-0.0699-0.0404 0.0000 ( 29048 PWs)   bands (ev):

   -42.6377 -42.5083 -42.5046 -42.4859 -42.4832 -42.4747 -42.4621 -42.4524
   -41.9796 -41.9725 -41.9584 -41.9371 -22.7030 -22.6199 -22.5553 -22.5550
   -22.5431 -22.5306 -22.5224 -22.5185 -22.4868 -22.4836 -22.4711 -22.4567
   -22.4416 -22.4267 -22.4238 -22.4017 -22.3931 -22.3914 -22.3671 -22.3115
   -22.2996 -22.2604 -22.2578 -22.1859 -22.0405 -22.0330 -21.9270 -21.9155
   -21.9001 -21.8953 -21.8898 -21.8811 -21.8794 -21.8601 -21.7650 -21.7573
   -15.5634  -2.3676  -2.2852  -1.8171  -1.7003  -1.7003  -1.2767  -1.0876
    -0.5597  -0.5589  -0.3892  -0.2495  -0.1374  -0.1173   0.5325   0.5400
     0.5749   0.6242   0.6605   0.6923   0.8458   0.8461   0.9233   0.9466
     0.9960   1.0784   1.2514   1.2882   1.3230   1.3417   1.3620

     the Fermi energy is     0.8140 ev

!    total energy              =   -1156.98911956 Ry
     Harris-Foulkes estimate   =   -1156.98909467 Ry
     estimated scf accuracy    <       0.00000799 Ry

     The total energy is the sum of the following terms:

     one-electron contribution =   -5597.39431193 Ry
     hartree contribution      =    2792.97155539 Ry
     xc contribution           =    -346.34946380 Ry
     ewald contribution        =    1993.90506064 Ry
     electric field correction =       0.00019123 Ry
     smearing contrib. (-TS)   =      -0.12215109 Ry

     convergence has been achieved in   8 iterations
 
 BEEF-vdW xc energy contributions
           1 :   -301.975597667331     
           2 :    270.981584614931     
           3 :   -217.718970859403     
           4 :    155.381954651822     
           5 :   -96.1528581688078     
           6 :    47.6001613978282     
           7 :   -12.2164438892787     
           8 :   -10.7534500796722     
           9 :    23.0405083378845     
          10 :   -26.1128821247514     
          11 :    21.2985544848605     
          12 :   -10.6053538824912     
          13 :   -2.77101445980384     
          14 :    14.8826727730242     
          15 :   -22.2791410245445     
          16 :    23.2876607404340     
          17 :   -18.4882274185113     
          18 :    10.1191798515486     
          19 :  -0.885043701355812     
          20 :   -7.06863741292909     
          21 :    12.5407037959617     
          22 :   -15.0970257280687     
          23 :    14.7402958544021     
          24 :   -11.7744863018762     
          25 :    6.89151765064310     
          26 :   -1.24458372416979     
          27 :   -3.73885113796678     
          28 :    6.82062950249724     
          29 :   -7.44487847431816     
          30 :    5.93585002415381     
          31 :   -28.9659793295089     
          32 :   -19.7732058871116     

     Forces acting on atoms (Ry/au):


     negative rho (up, down):  2.576E-04 0.000E+00
     atom    1 type  1   force =     0.00025211    0.00015267    0.00481326
     atom    2 type  1   force =    -0.00025323    0.00014832    0.00480613
     atom    3 type  1   force =     0.00000315   -0.00029591    0.00480378
     atom    4 type  1   force =    -0.00000342   -0.00000047    0.00493647
     atom    5 type  1   force =    -0.00000407   -0.00293486    0.00272078
     atom    6 type  1   force =     0.00000098    0.00000326   -0.01382597
     atom    7 type  1   force =     0.00254402    0.00147151    0.00271296
     atom    8 type  1   force =    -0.00253689    0.00145934    0.00273183
     atom    9 type  1   force =     0.00000016    0.00000584   -0.01326355
     atom   10 type  1   force =    -0.00000164    0.04811407    0.04637481
     atom   11 type  1   force =     0.04166926   -0.02405803    0.04638354
     atom   12 type  1   force =    -0.04166913   -0.02406391    0.04636936
     atom   13 type  2   force =    -0.00000130   -0.00000185   -0.13956340

     Total force =     0.181801     Total SCF correction =     0.005545


     entering subroutine stress ...


     negative rho (up, down):  2.576E-04 0.000E+00
          total   stress  (Ry/bohr**3)                   (kbar)     P=   -7.79
  -0.00003899   0.00000000   0.00000000         -5.74      0.00      0.00
   0.00000000  -0.00003899  -0.00000000          0.00     -5.74     -0.00
   0.00000000  -0.00000000  -0.00008091          0.00     -0.00    -11.90


     number of scf cycles    =   2
     number of bfgs steps    =   1

     energy   old            =   -1156.9528513248 Ry
     energy   new            =   -1156.9891195637 Ry

     CASE: energy  _new < energy  _old


     WARNING: bfgs curvature condition failed, Theta= 0.851
     new trust radius        =       0.1597315106 bohr
     new conv_thr            =       0.0000001000 Ry


ATOMIC_POSITIONS (crystal)
Y1       0.166666667   0.166666667   0.386999750    0   0   0
Y1       0.666666667   0.166666667   0.386999750    0   0   0
Y1       0.166666667   0.666666667   0.386999750    0   0   0
Y1       0.666666667   0.666666667   0.386999750    0   0   0
Y1       0.833333333   0.333333333   0.500000000    0   0   0
Y1       0.333333333   0.333333333   0.500000000    0   0   0
Y1       0.833333333   0.833333333   0.500000000    0   0   0
Y1       0.333333333   0.833333333   0.500000000    0   0   0
Y1      -0.000002158   0.000000473   0.612441484
Y1       0.495258818   0.009483282   0.615104483
Y1       0.009484321   0.495258262   0.615104684
Y1       0.495259222   0.495255958   0.615104601
O1       0.333333845   0.333332699   0.671152057



     Writing output data file calc.save
     Check: negative starting charge=   -0.000697
     NEW-OLD atomic charge density approx. for the potential
     Check: negative starting charge=   -0.000675

     negative rho (up, down):  6.971E-04 0.000E+00
 
     Adding external electric field

     Computed dipole along edir(3) : 
        Dipole               -0.3422 Ry au,         -0.8698 Debye
        Dipole field         -0.0006 Ry au
 
        Potential amp.        0.0530 Ry
        Total length         47.6094 bohr
 

     total cpu time spent up to now is     1255.7 secs

     per-process dynamical memory:   107.7 Mb

     Self-consistent Calculation

     iteration #  1     ecut=    36.75 Ry     beta=0.30
     Davidson diagonalization with overlap
     c_bands:  2 eigenvalues not converged
     ethr =  1.00E-06,  avg # of iterations = 14.5

     negative rho (up, down):  4.006E-04 0.000E+00
 
     Adding external electric field

     Computed dipole along edir(3) : 
        Dipole                0.4443 Ry au,          1.1294 Debye
        Dipole field          0.0007 Ry au
 
        Potential amp.       -0.0688 Ry
        Total length         47.6094 bohr
 

     total cpu time spent up to now is     1314.7 secs

     total energy              =   -1157.00848179 Ry
     Harris-Foulkes estimate   =   -1157.02731814 Ry
     estimated scf accuracy    <       0.03918293 Ry

     iteration #  2     ecut=    36.75 Ry     beta=0.30
     Davidson diagonalization with overlap
     ethr =  2.84E-05,  avg # of iterations =  8.8

     negative rho (up, down):  2.811E-04 0.000E+00
 
     Adding external electric field

     Computed dipole along edir(3) : 
        Dipole               -0.2578 Ry au,         -0.6552 Debye
        Dipole field         -0.0004 Ry au
 
        Potential amp.        0.0399 Ry
        Total length         47.6094 bohr
 

     total cpu time spent up to now is     1354.6 secs

     total energy              =   -1156.81079501 Ry
     Harris-Foulkes estimate   =   -1157.24566224 Ry
     estimated scf accuracy    <      18.22672920 Ry

     iteration #  3     ecut=    36.75 Ry     beta=0.30
     Davidson diagonalization with overlap
     ethr =  2.84E-05,  avg # of iterations =  9.3

     negative rho (up, down):  2.591E-04 0.000E+00
 
     Adding external electric field

     Computed dipole along edir(3) : 
        Dipole               -0.2637 Ry au,         -0.6703 Debye
        Dipole field         -0.0004 Ry au
 
        Potential amp.        0.0408 Ry
        Total length         47.6094 bohr
 

     total cpu time spent up to now is     1394.9 secs

     total energy              =   -1157.02380093 Ry
     Harris-Foulkes estimate   =   -1157.02601039 Ry
     estimated scf accuracy    <       0.01095879 Ry

     iteration #  4     ecut=    36.75 Ry     beta=0.30
     Davidson diagonalization with overlap
     ethr =  7.94E-06,  avg # of iterations = 10.8

     negative rho (up, down):  2.439E-04 0.000E+00
 
     Adding external electric field

     Computed dipole along edir(3) : 
        Dipole               -0.2444 Ry au,         -0.6212 Debye
        Dipole field         -0.0004 Ry au
 
        Potential amp.        0.0379 Ry
        Total length         47.6094 bohr
 

     total cpu time spent up to now is     1434.2 secs

     total energy              =   -1157.02435080 Ry
     Harris-Foulkes estimate   =   -1157.02602948 Ry
     estimated scf accuracy    <       0.01745035 Ry

     iteration #  5     ecut=    36.75 Ry     beta=0.30
     Davidson diagonalization with overlap
     ethr =  7.94E-06,  avg # of iterations =  3.4

     negative rho (up, down):  1.753E-04 0.000E+00
 
     Adding external electric field

     Computed dipole along edir(3) : 
        Dipole               -0.2383 Ry au,         -0.6058 Debye
        Dipole field         -0.0004 Ry au
 
        Potential amp.        0.0369 Ry
        Total length         47.6094 bohr
 

     total cpu time spent up to now is     1464.5 secs

     total energy              =   -1157.02499935 Ry
     Harris-Foulkes estimate   =   -1157.02515021 Ry
     estimated scf accuracy    <       0.00067382 Ry

     iteration #  6     ecut=    36.75 Ry     beta=0.30
     Davidson diagonalization with overlap
     ethr =  4.88E-07,  avg # of iterations =  9.5

     negative rho (up, down):  1.902E-04 0.000E+00
 
     Adding external electric field

     Computed dipole along edir(3) : 
        Dipole               -0.2327 Ry au,         -0.5916 Debye
        Dipole field         -0.0004 Ry au
 
        Potential amp.        0.0360 Ry
        Total length         47.6094 bohr
 

     total cpu time spent up to now is     1505.1 secs

     total energy              =   -1157.02518160 Ry
     Harris-Foulkes estimate   =   -1157.02526110 Ry
     estimated scf accuracy    <       0.00071944 Ry

     iteration #  7     ecut=    36.75 Ry     beta=0.30
     Davidson diagonalization with overlap
     ethr =  4.88E-07,  avg # of iterations =  1.0

     negative rho (up, down):  1.984E-04 0.000E+00
 
     Adding external electric field

     Computed dipole along edir(3) : 
        Dipole               -0.2345 Ry au,         -0.5959 Debye
        Dipole field         -0.0004 Ry au
 
        Potential amp.        0.0363 Ry
        Total length         47.6094 bohr
 

     total cpu time spent up to now is     1534.0 secs

     total energy              =   -1157.02517325 Ry
     Harris-Foulkes estimate   =   -1157.02520209 Ry
     estimated scf accuracy    <       0.00022879 Ry

     iteration #  8     ecut=    36.75 Ry     beta=0.30
     Davidson diagonalization with overlap
     ethr =  1.66E-07,  avg # of iterations =  8.8

     negative rho (up, down):  2.140E-04 0.000E+00
 
     Adding external electric field

     Computed dipole along edir(3) : 
        Dipole               -0.2350 Ry au,         -0.5972 Debye
        Dipole field         -0.0004 Ry au
 
        Potential amp.        0.0364 Ry
        Total length         47.6094 bohr
 

     total cpu time spent up to now is     1573.0 secs

     total energy              =   -1157.02520828 Ry
     Harris-Foulkes estimate   =   -1157.02522958 Ry
     estimated scf accuracy    <       0.00018551 Ry

     iteration #  9     ecut=    36.75 Ry     beta=0.30
     Davidson diagonalization with overlap
     ethr =  1.34E-07,  avg # of iterations =  1.6

     negative rho (up, down):  2.253E-04 0.000E+00
 
     Adding external electric field

     Computed dipole along edir(3) : 
        Dipole               -0.2367 Ry au,         -0.6016 Debye
        Dipole field         -0.0004 Ry au
 
        Potential amp.        0.0367 Ry
        Total length         47.6094 bohr
 

     total cpu time spent up to now is     1603.7 secs

     total energy              =   -1157.02521231 Ry
     Harris-Foulkes estimate   =   -1157.02521427 Ry
     estimated scf accuracy    <       0.00003035 Ry

     iteration # 10     ecut=    36.75 Ry     beta=0.30
[...]
   -21.6693 -21.6139 -21.5967 -21.5895 -21.5884 -21.5685 -21.5425 -21.4844
   -17.0340  -3.9941  -3.8221  -3.5752  -2.1787  -1.5230  -1.2275  -0.9171
    -0.6744  -0.2865  -0.1816   0.1784   0.2171   0.3112   0.5825   0.6486
     0.7851   0.8012   0.9371   0.9874   1.0366   1.0773   1.1729   1.2373
     1.2973   1.3730   1.4016   1.4186   1.5383   1.5842   1.6450

          k = 0.0233-0.0673 0.0000 ( 29098 PWs)   bands (ev):

   -42.2754 -42.2561 -42.2463 -42.2353 -42.1738 -42.1583 -42.1466 -42.1099
   -41.8470 -41.6863 -41.6759 -41.6653 -22.7732 -22.3165 -22.2981 -22.2886
   -22.2757 -22.2547 -22.2412 -22.2362 -22.2288 -22.2161 -22.2023 -22.1965
   -22.1905 -22.1824 -22.1645 -22.1383 -22.1246 -22.0903 -22.0665 -22.0429
   -22.0113 -22.0108 -21.9675 -21.9194 -21.8333 -21.7961 -21.7862 -21.7259
   -21.6693 -21.6139 -21.5967 -21.5895 -21.5884 -21.5685 -21.5425 -21.4844
   -17.0340  -3.9941  -3.8221  -3.5752  -2.1787  -1.5230  -1.2275  -0.9171
    -0.6744  -0.2865  -0.1816   0.1784   0.2171   0.3112   0.5825   0.6486
     0.7851   0.8012   0.9371   0.9874   1.0366   1.0773   1.1729   1.2373
     1.2973   1.3730   1.4016   1.4186   1.5383   1.5842   1.6450

          k = 0.0233-0.0404 0.0000 ( 29087 PWs)   bands (ev):

   -42.2813 -42.2535 -42.2421 -42.2361 -42.1815 -42.1519 -42.1460 -42.1092
   -41.8475 -41.6906 -41.6708 -41.6654 -22.8167 -22.3561 -22.3298 -22.3238
   -22.3170 -22.2660 -22.2565 -22.2492 -22.2472 -22.2401 -22.2368 -22.1923
   -22.1815 -22.1698 -22.1336 -22.0750 -22.0685 -22.0677 -22.0479 -22.0041
   -22.0006 -21.9863 -21.9547 -21.8971 -21.8599 -21.8365 -21.7986 -21.7607
   -21.6359 -21.6006 -21.5908 -21.5896 -21.5744 -21.5544 -21.5162 -21.4664
   -17.0511  -3.9621  -3.8456  -3.6024  -2.6985  -1.7156  -0.9006  -0.8621
    -0.7068  -0.3630  -0.3094  -0.0988  -0.0238   0.2238   0.3053   0.4311
     0.6208   0.6483   0.7928   0.9587   0.9880   1.0700   1.2440   1.3617
     1.4621   1.4784   1.5833   1.6320   1.6949   1.7866   1.9818

          k = 0.0466-0.0269 0.0000 ( 29058 PWs)   bands (ev):

   -42.2795 -42.2550 -42.2419 -42.2367 -42.1793 -42.1542 -42.1456 -42.1095
   -41.8474 -41.6896 -41.6720 -41.6655 -22.8031 -22.3424 -22.3328 -22.3116
   -22.2919 -22.2674 -22.2473 -22.2447 -22.2399 -22.2389 -22.2266 -22.1972
   -22.1781 -22.1722 -22.1253 -22.1190 -22.0761 -22.0705 -22.0569 -22.0414
   -21.9903 -21.9817 -21.9693 -21.8997 -21.8552 -21.8189 -21.7975 -21.7502
   -21.6395 -21.5997 -21.5992 -21.5901 -21.5850 -21.5431 -21.5421 -21.4674
   -17.0454  -3.9753  -3.8365  -3.5921  -2.5642  -1.5964  -1.2606  -0.6644
    -0.4876  -0.3698  -0.3154  -0.0768  -0.0281   0.2015   0.4535   0.5260
     0.6640   0.7011   0.8171   0.9884   0.9941   1.0964   1.2128   1.3242
     1.4409   1.4433   1.4654   1.5685   1.5999   1.7729   1.8828

          k = 0.0466 0.0000 0.0000 ( 29087 PWs)   bands (ev):

   -42.2813 -42.2535 -42.2421 -42.2361 -42.1815 -42.1519 -42.1460 -42.1092
   -41.8475 -41.6906 -41.6708 -41.6654 -22.8167 -22.3561 -22.3298 -22.3238
   -22.3170 -22.2660 -22.2565 -22.2492 -22.2472 -22.2401 -22.2368 -22.1923
   -22.1815 -22.1698 -22.1336 -22.0750 -22.0685 -22.0677 -22.0479 -22.0041
   -22.0006 -21.9863 -21.9547 -21.8971 -21.8600 -21.8365 -21.7986 -21.7607
   -21.6359 -21.6006 -21.5908 -21.5896 -21.5744 -21.5544 -21.5162 -21.4664
   -17.0510  -3.9621  -3.8456  -3.6024  -2.6985  -1.7156  -0.9006  -0.8621
    -0.7068  -0.3630  -0.3094  -0.0988  -0.0238   0.2238   0.3053   0.4311
     0.6208   0.6483   0.7928   0.9587   0.9880   1.0700   1.2440   1.3617
     1.4621   1.4784   1.5833   1.6320   1.6949   1.7866   1.9818

          k = 0.0466 0.0269 0.0000 ( 29058 PWs)   bands (ev):

   -42.2795 -42.2550 -42.2419 -42.2367 -42.1793 -42.1542 -42.1456 -42.1095
   -41.8474 -41.6896 -41.6720 -41.6655 -22.8031 -22.3424 -22.3328 -22.3116
   -22.2919 -22.2674 -22.2473 -22.2447 -22.2399 -22.2389 -22.2266 -22.1972
   -22.1781 -22.1722 -22.1253 -22.1190 -22.0761 -22.0705 -22.0569 -22.0414
   -21.9903 -21.9817 -21.9693 -21.8996 -21.8552 -21.8189 -21.7975 -21.7502
   -21.6395 -21.5997 -21.5992 -21.5900 -21.5850 -21.5431 -21.5421 -21.4674
   -17.0454  -3.9753  -3.8365  -3.5921  -2.5642  -1.5964  -1.2606  -0.6644
    -0.4876  -0.3698  -0.3154  -0.0768  -0.0281   0.2015   0.4535   0.5260
     0.6640   0.7011   0.8171   0.9884   0.9941   1.0964   1.2128   1.3242
     1.4409   1.4433   1.4654   1.5685   1.5999   1.7729   1.8828

          k = 0.0466-0.1076 0.0000 ( 29098 PWs)   bands (ev):

   -42.2754 -42.2561 -42.2463 -42.2353 -42.1738 -42.1583 -42.1466 -42.1099
   -41.8470 -41.6863 -41.6759 -41.6653 -22.7732 -22.3165 -22.2981 -22.2886
   -22.2757 -22.2547 -22.2412 -22.2362 -22.2288 -22.2161 -22.2023 -22.1965
   -22.1905 -22.1824 -22.1645 -22.1383 -22.1246 -22.0903 -22.0665 -22.0429
   -22.0113 -22.0108 -21.9675 -21.9194 -21.8333 -21.7961 -21.7862 -21.7259
   -21.6693 -21.6139 -21.5967 -21.5896 -21.5884 -21.5685 -21.5426 -21.4844
   -17.0340  -3.9941  -3.8221  -3.5752  -2.1787  -1.5230  -1.2275  -0.9171
    -0.6744  -0.2864  -0.1816   0.1784   0.2171   0.3112   0.5825   0.6486
     0.7851   0.8012   0.9371   0.9874   1.0366   1.0773   1.1729   1.2373
     1.2973   1.3730   1.4015   1.4186   1.5383   1.5842   1.6450

          k = 0.0466-0.0807 0.0000 ( 29103 PWs)   bands (ev):

   -42.2731 -42.2528 -42.2528 -42.2344 -42.1697 -42.1611 -42.1479 -42.1099
   -41.8468 -41.6816 -41.6811 -41.6651 -22.7566 -22.2881 -22.2740 -22.2692
   -22.2689 -22.2612 -22.2343 -22.2258 -22.2201 -22.2194 -22.2115 -22.2068
   -22.2004 -22.1823 -22.1652 -22.1427 -22.1402 -22.1178 -22.0537 -22.0529
   -22.0425 -22.0043 -21.9546 -21.9512 -21.7977 -21.7972 -21.7954 -21.6856
   -21.6760 -21.6725 -21.5954 -21.5895 -21.5883 -21.5482 -21.5469 -21.5057
   -17.0284  -4.0012  -3.8158  -3.5682  -1.6542  -1.5788  -1.5516  -0.8278
    -0.6745  -0.6292   0.1810   0.2122   0.4099   0.5180   0.5601   0.5658
     0.8642   0.8676   0.9688   0.9875   1.0198   1.1325   1.1420   1.1917
     1.2357   1.2759   1.3518   1.4262   1.4925   1.5411   1.5860

          k = 0.0466-0.0538 0.0000 ( 29098 PWs)   bands (ev):

   -42.2754 -42.2561 -42.2463 -42.2353 -42.1738 -42.1583 -42.1466 -42.1099
   -41.8470 -41.6863 -41.6759 -41.6653 -22.7732 -22.3165 -22.2981 -22.2886
   -22.2757 -22.2547 -22.2412 -22.2362 -22.2288 -22.2161 -22.2023 -22.1965
   -22.1905 -22.1824 -22.1645 -22.1383 -22.1246 -22.0903 -22.0665 -22.0429
   -22.0113 -22.0108 -21.9675 -21.9194 -21.8333 -21.7961 -21.7862 -21.7259
   -21.6693 -21.6139 -21.5967 -21.5896 -21.5884 -21.5685 -21.5426 -21.4844
   -17.0340  -3.9941  -3.8221  -3.5752  -2.1787  -1.5230  -1.2275  -0.9171
    -0.6744  -0.2864  -0.1816   0.1784   0.2171   0.3112   0.5825   0.6486
     0.7851   0.8012   0.9371   0.9874   1.0366   1.0773   1.1729   1.2373
     1.2973   1.3730   1.4015   1.4186   1.5383   1.5842   1.6450

          k =-0.0699 0.0404 0.0000 ( 29048 PWs)   bands (ev):

   -42.2749 -42.2582 -42.2433 -42.2367 -42.1733 -42.1598 -42.1456 -42.1100
   -41.8470 -41.6866 -41.6754 -41.6655 -22.7736 -22.3181 -22.3058 -22.2945
   -22.2828 -22.2471 -22.2390 -22.2294 -22.2155 -22.2122 -22.1920 -22.1882
   -22.1777 -22.1723 -22.1713 -22.1478 -22.1437 -22.1018 -22.0911 -22.0320
   -22.0223 -22.0096 -21.9565 -21.9123 -21.8408 -21.7961 -21.7642 -21.7460
   -21.6391 -21.6131 -21.6115 -21.5959 -21.5896 -21.5857 -21.5374 -21.4758
   -17.0340  -3.9972  -3.8201  -3.5740  -1.9875  -1.9137  -1.1281  -0.9294
    -0.3139  -0.2735  -0.1492   0.0153   0.0979   0.1371   0.7406   0.7597
     0.8127   0.8494   0.9240   0.9573   1.0398   1.0521   1.1501   1.1837
     1.2757   1.3332   1.4163   1.4213   1.5529   1.6375   1.6469

          k =-0.0699 0.0673 0.0000 ( 29098 PWs)   bands (ev):

   -42.2754 -42.2561 -42.2463 -42.2353 -42.1738 -42.1583 -42.1466 -42.1099
   -41.8470 -41.6863 -41.6759 -41.6653 -22.7732 -22.3165 -22.2981 -22.2886
   -22.2757 -22.2547 -22.2412 -22.2362 -22.2288 -22.2161 -22.2023 -22.1965
   -22.1905 -22.1824 -22.1645 -22.1383 -22.1246 -22.0903 -22.0665 -22.0429
   -22.0113 -22.0108 -21.9675 -21.9194 -21.8333 -21.7961 -21.7862 -21.7259
   -21.6693 -21.6139 -21.5967 -21.5896 -21.5884 -21.5685 -21.5426 -21.4844
   -17.0340  -3.9941  -3.8221  -3.5752  -2.1787  -1.5230  -1.2275  -0.9171
    -0.6744  -0.2865  -0.1816   0.1784   0.2171   0.3112   0.5825   0.6486
     0.7851   0.8012   0.9371   0.9874   1.0366   1.0773   1.1729   1.2373
     1.2973   1.3730   1.4016   1.4186   1.5383   1.5842   1.6450

          k =-0.0699 0.0942 0.0000 ( 29098 PWs)   bands (ev):

   -42.2754 -42.2561 -42.2463 -42.2353 -42.1738 -42.1583 -42.1466 -42.1099
   -41.8470 -41.6863 -41.6759 -41.6653 -22.7732 -22.3165 -22.2981 -22.2886
   -22.2757 -22.2547 -22.2412 -22.2362 -22.2288 -22.2161 -22.2023 -22.1965
   -22.1905 -22.1824 -22.1645 -22.1383 -22.1246 -22.0903 -22.0665 -22.0429
   -22.0113 -22.0108 -21.9675 -21.9194 -21.8333 -21.7961 -21.7862 -21.7259
   -21.6693 -21.6139 -21.5967 -21.5896 -21.5884 -21.5685 -21.5426 -21.4844
   -17.0340  -3.9941  -3.8221  -3.5752  -2.1787  -1.5230  -1.2275  -0.9171
    -0.6744  -0.2865  -0.1816   0.1784   0.2171   0.3112   0.5825   0.6486
     0.7851   0.8012   0.9371   0.9874   1.0366   1.0773   1.1729   1.2373
     1.2973   1.3730   1.4016   1.4186   1.5383   1.5842   1.6450

          k =-0.0699-0.0404 0.0000 ( 29048 PWs)   bands (ev):

   -42.2749 -42.2582 -42.2433 -42.2367 -42.1733 -42.1598 -42.1456 -42.1100
   -41.8470 -41.6866 -41.6754 -41.6655 -22.7736 -22.3181 -22.3058 -22.2945
   -22.2828 -22.2471 -22.2390 -22.2294 -22.2155 -22.2122 -22.1920 -22.1882
   -22.1777 -22.1723 -22.1713 -22.1478 -22.1437 -22.1018 -22.0911 -22.0320
   -22.0223 -22.0096 -21.9565 -21.9123 -21.8408 -21.7961 -21.7642 -21.7460
   -21.6391 -21.6131 -21.6115 -21.5959 -21.5896 -21.5857 -21.5374 -21.4758
   -17.0340  -3.9972  -3.8201  -3.5740  -1.9875  -1.9137  -1.1281  -0.9294
    -0.3139  -0.2735  -0.1492   0.0153   0.0979   0.1371   0.7406   0.7597
     0.8127   0.8494   0.9240   0.9573   1.0398   1.0521   1.1501   1.1837
     1.2757   1.3332   1.4163   1.4213   1.5529   1.6375   1.6469

     the Fermi energy is     1.0550 ev

!    total energy              =   -1157.11758166 Ry
     Harris-Foulkes estimate   =   -1157.11758170 Ry
     estimated scf accuracy    <       0.00000007 Ry

     The total energy is the sum of the following terms:

     one-electron contribution =   -5744.85558139 Ry
     hartree contribution      =    2867.49335988 Ry
     xc contribution           =    -346.66110153 Ry
     ewald contribution        =    2067.03173325 Ry
     electric field correction =       0.00000009 Ry
     smearing contrib. (-TS)   =      -0.12599197 Ry

     convergence has been achieved in  11 iterations
 
 BEEF-vdW xc energy contributions
           1 :   -302.301660610347     
           2 :    271.416667455106     
           3 :   -218.223727603283     
           4 :    155.801630807173     
           5 :   -96.3534063558512     
           6 :    47.5521812336746     
           7 :   -11.9859866465263     
           8 :   -11.0602726459055     
           9 :    23.3252950120604     
          10 :   -26.3116886007638     
          11 :    21.3993216916178     
          12 :   -10.6515069814719     
          13 :   -2.71004229339678     
          14 :    14.7651871876497     
          15 :   -22.1234867627215     
          16 :    23.1498075239857     
          17 :   -18.4074349979047     
          18 :    10.0846875352490     
          19 :  -0.849567572264903     
          20 :   -7.14725660800792     
          21 :    12.6661854233649     
          22 :   -15.2339170235927     
          23 :    14.8439700527362     
          24 :   -11.8269597805115     
          25 :    6.91431021324206     
          26 :   -1.27907341499531     
          27 :   -3.66625474210201     
          28 :    6.71801450616039     
          29 :   -7.34278196103509     
          30 :    5.85699936990017     
          31 :   -28.9852724560521     
          32 :   -19.8110328739123     

     Forces acting on atoms (Ry/au):


     negative rho (up, down):  2.212E-04 0.000E+00
     atom    1 type  1   force =     0.00197285    0.00113858    0.00525537
     atom    2 type  1   force =    -0.00197288    0.00113877    0.00525534
     atom    3 type  1   force =     0.00000002   -0.00227788    0.00525549
     atom    4 type  1   force =    -0.00000025    0.00000003    0.00544706
     atom    5 type  1   force =     0.00000030    0.00129009   -0.00230199
     atom    6 type  1   force =     0.00000008   -0.00000074   -0.01338779
     atom    7 type  1   force =    -0.00111780   -0.00064494   -0.00230019
     atom    8 type  1   force =     0.00111708   -0.00064493   -0.00230025
     atom    9 type  1   force =     0.00000194   -0.00000550   -0.00033036
     atom   10 type  1   force =    -0.00000051    0.00095492    0.00036124
     atom   11 type  1   force =     0.00083243   -0.00047474    0.00036131
     atom   12 type  1   force =    -0.00083346   -0.00047448    0.00036212
     atom   13 type  2   force =     0.00000020    0.00000082   -0.00167735

     Total force =     0.002463     Total SCF correction =     0.000311
     SCF correction compared to forces is large: reduce conv_thr to get better values


     entering subroutine stress ...


     negative rho (up, down):  2.212E-04 0.000E+00
          total   stress  (Ry/bohr**3)                   (kbar)     P=    0.02
   0.00000934  -0.00000000  -0.00000000          1.37     -0.00     -0.00
  -0.00000000   0.00000934   0.00000000         -0.00      1.37      0.00
  -0.00000000   0.00000000  -0.00001819         -0.00      0.00     -2.68


     bfgs converged in  23 scf cycles and  22 bfgs steps
     (criteria: energy <  1.0E+00, force <  1.9E-03)

     End of BFGS Geometry Optimization

     Final energy   =   -1157.1175816571 Ry
Begin final coordinates

ATOMIC_POSITIONS (crystal)
Y1       0.166666667   0.166666667   0.386999750    0   0   0
Y1       0.666666667   0.166666667   0.386999750    0   0   0
Y1       0.166666667   0.666666667   0.386999750    0   0   0
Y1       0.666666667   0.666666667   0.386999750    0   0   0
Y1       0.833333333   0.333333333   0.500000000    0   0   0
Y1       0.333333333   0.333333333   0.500000000    0   0   0
Y1       0.833333333   0.833333333   0.500000000    0   0   0
Y1       0.333333333   0.833333333   0.500000000    0   0   0
Y1      -0.000002614   0.000003594   0.604994696
Y1       0.499515853   0.000968129   0.615248782
Y1       0.000967926   0.499512653   0.615248786
Y1       0.499520686   0.499511578   0.615248561
O1       0.333333734   0.333332842   0.639867117
End final coordinates



     Writing output data file calc.save
 
     init_run     :     19.84s CPU     20.45s WALL (       1 calls)
     electrons    :  11318.25s CPU  12235.32s WALL (      23 calls)
     update_pot   :    100.26s CPU    105.19s WALL (      22 calls)
     forces       :    594.12s CPU    647.11s WALL (      23 calls)
     stress       :   1752.94s CPU   1895.81s WALL (      23 calls)

     Called by init_run:
     wfcinit      :      8.27s CPU      8.43s WALL (       1 calls)
     potinit      :      3.17s CPU      3.41s WALL (       1 calls)

     Called by electrons:
     c_bands      :   4306.83s CPU   4617.72s WALL (     267 calls)
     sum_band     :   2208.46s CPU   2395.09s WALL (     267 calls)
     v_of_rho     :    753.37s CPU    813.62s WALL (     290 calls)
     newd         :   1917.94s CPU   1934.41s WALL (     290 calls)
     mix_rho      :     27.91s CPU     28.40s WALL (     267 calls)
     vdW_energy   :    406.27s CPU    449.40s WALL (    1118 calls)
     vdW_ffts     :   1080.45s CPU   1121.88s WALL (    2282 calls)
     vdW_v        :    399.68s CPU    412.64s WALL (    1118 calls)

     Called by c_bands:
     init_us_2    :     27.55s CPU     27.71s WALL (    2905 calls)
     cegterg      :   3735.58s CPU   3821.61s WALL (    1335 calls)

     Called by *egterg:
     h_psi        :   2555.46s CPU   2600.67s WALL (    9380 calls)
     s_psi        :    239.54s CPU    240.29s WALL (    9380 calls)
     g_psi        :     15.07s CPU     15.12s WALL (    8040 calls)
     cdiaghg      :    270.10s CPU    272.07s WALL (    9265 calls)

     Called by h_psi:
     add_vuspsi   :    244.18s CPU    244.77s WALL (    9380 calls)

     General routines
     calbec       :    354.35s CPU    359.95s WALL (   10945 calls)
     fft          :   1660.71s CPU   1764.65s WALL (   67531 calls)
     ffts         :      1.73s CPU      1.85s WALL (     557 calls)
     fftw         :   1429.55s CPU   1481.94s WALL (  689949 calls)
     interpolate  :     17.20s CPU     18.07s WALL (     557 calls)
     davcio       :      0.00s CPU      0.05s WALL (       5 calls)
 
     Parallel routines
     fft_scatter  :   1789.94s CPU   1938.19s WALL (  758037 calls)
 
     PWSCF        :     3h52m CPU        4h11m WALL

 
   This run was terminated on:   5:19:29   3May2018            

=------------------------------------------------------------------------------=
   JOB DONE.
=------------------------------------------------------------------------------=
Job  /afs/slac/g/suncat/bin/suncat-tsmpirun -x LD_LIBRARY_PATH -wdir /scratch/qe576843_1DSuV pw.x -npool 4 -in pw.inp

TID   HOST_NAME   COMMAND_LINE            STATUS            TERMINATION_TIME
===== ========== ================  =======================  ===================
00000 suncat0017 pw.x -npool 4 -i  Done                     05/03/2018 05:19:29
00001 suncat0017 pw.x -npool 4 -i  Done                     05/03/2018 05:19:29
00002 suncat0017 pw.x -npool 4 -i  Done                     05/03/2018 05:19:29
00003 suncat0017 pw.x -npool 4 -i  Done                     05/03/2018 05:19:29
00004 suncat0017 pw.x -npool 4 -i  Done                     05/03/2018 05:19:29
00005 suncat0017 pw.x -npool 4 -i  Done                     05/03/2018 05:19:29
00006 suncat0017 pw.x -npool 4 -i  Done                     05/03/2018 05:19:29
00007 suncat0017 pw.x -npool 4 -i  Done                     05/03/2018 05:19:29
00008 suncat0004 pw.x -npool 4 -i  Done                     05/03/2018 05:19:29
00009 suncat0004 pw.x -npool 4 -i  Done                     05/03/2018 05:19:29
00010 suncat0004 pw.x -npool 4 -i  Done                     05/03/2018 05:19:29
00011 suncat0004 pw.x -npool 4 -i  Done                     05/03/2018 05:19:29
00012 suncat0004 pw.x -npool 4 -i  Done                     05/03/2018 05:19:29
00013 suncat0004 pw.x -npool 4 -i  Done                     05/03/2018 05:19:29
00014 suncat0004 pw.x -npool 4 -i  Done                     05/03/2018 05:19:29
00015 suncat0004 pw.x -npool 4 -i  Done                     05/03/2018 05:19:29
00016 suncat0135 pw.x -npool 4 -i  Done                     05/03/2018 05:19:29
00017 suncat0135 pw.x -npool 4 -i  Done                     05/03/2018 05:19:29
00018 suncat0135 pw.x -npool 4 -i  Done                     05/03/2018 05:19:29
00019 suncat0135 pw.x -npool 4 -i  Done                     05/03/2018 05:19:29
00020 suncat0135 pw.x -npool 4 -i  Done                     05/03/2018 05:19:29
00021 suncat0135 pw.x -npool 4 -i  Done                     05/03/2018 05:19:29
00022 suncat0135 pw.x -npool 4 -i  Done                     05/03/2018 05:19:29
00023 suncat0135 pw.x -npool 4 -i  Done                     05/03/2018 05:19:29
00024 suncat0282 pw.x -npool 4 -i  Done                     05/03/2018 05:19:29
00025 suncat0282 pw.x -npool 4 -i  Done                     05/03/2018 05:19:29
00026 suncat0282 pw.x -npool 4 -i  Done                     05/03/2018 05:19:29
00027 suncat0282 pw.x -npool 4 -i  Done                     05/03/2018 05:19:29
00028 suncat0282 pw.x -npool 4 -i  Done                     05/03/2018 05:19:29
00029 suncat0282 pw.x -npool 4 -i  Done                     05/03/2018 05:19:29
00030 suncat0282 pw.x -npool 4 -i  Done                     05/03/2018 05:19:29
00031 suncat0282 pw.x -npool 4 -i  Done                     05/03/2018 05:19:29
