  python dir          : /u/if/mamunm/src/espresso
  espresso dir        : /nfs/slac/g/suncatfs/sw/espv18/espresso-dynpy-beef/bin
  pseudo dir          : /u/if/mamunm/psp/gbrv1.5pbe
  ase-espresso py git : GITVERSION



     Program PWSCF v.5.1rc2 (svn rev. 11289) starts on 16Apr2018 at 11:11: 5 

     This program is part of the open-source Quantum ESPRESSO suite
     for quantum simulation of materials; please cite
         "P. Giannozzi et al., J. Phys.:Condens. Matter 21 395502 (2009);
          URL http://www.quantum-espresso.org", 
     in publications or presentations arising from this work. More details at
     http://www.quantum-espresso.org/quote

     Parallel version (MPI), running on    32 processors
     K-points division:     npool     =       4
     R & G space division:  proc/nbgrp/npool/nimage =       8
     Reading input from pw.inp
     Message from routine read_cards :
     DEPRECATED: no units specified in CELL_PARAMETERS card

     Current dimensions of program PWSCF are:
     Max number of different atomic species (ntypx) = 10
     Max number of k-points (npk) =  40000
     Max angular momentum in pseudopotentials (lmaxx) =  3
     Presently stress not available with electric field


     **************************************************************************
     Initializing libbeef V0.1.1 with the BEEF-vdW functional.
     Citation: Wellendorff et al., PRB 85, 235149 (2012).
     **************************************************************************


     IMPORTANT: XC functional enforced from input :
     Exchange-correlation      = BEEF-VDW ( 1  4 27 13 2)
     Any further DFT definition will be discarded
     Please, verify this is what you really want


     Subspace diagonalization in iterative solution of the eigenvalue problem:
     a serial algorithm will be used

 
     Parallelization info
     --------------------
     sticks:   dense  smooth     PW     G-vecs:    dense   smooth      PW
     Min         364     144     43                69178    17470    2757
     Max         365     145     44                69192    17513    2766
     Sum        2917    1159    349               553473   139985   22105
 


     bravais-lattice index     =            0
     lattice parameter (alat)  =       1.8897  a.u.
     unit-cell volume          =    4650.5773 (a.u.)^3
     number of atoms/cell      =           14
     number of atomic types    =            3
     number of electrons       =        41.00
     number of Kohn-Sham states=           30
     kinetic-energy cutoff     =      36.7493  Ry
     charge density cutoff     =     367.4932  Ry
     convergence threshold     =      1.0E-05
     mixing beta               =       0.3000
     number of iterations used =           10  plain     mixing
     Exchange-correlation      = BEEF-VDW ( 1  4 27 13 2)
     nstep                     =           50


     celldm(1)=   1.889726  celldm(2)=   0.000000  celldm(3)=   0.000000
     celldm(4)=   0.000000  celldm(5)=   0.000000  celldm(6)=   0.000000

     crystal axes: (cart. coord. in units of alat)
               a(1) = (   5.682886   0.000000   0.000000 )  
               a(2) = (   2.841443   4.921524   0.000000 )  
               a(3) = (   0.000000   0.000000  24.640057 )  

     reciprocal axes: (cart. coord. in units 2 pi/alat)
               b(1) = (  0.175967 -0.101595  0.000000 )  
               b(2) = (  0.000000  0.203189  0.000000 )  
               b(3) = (  0.000000  0.000000  0.040584 )  


     PseudoPot. # 1 for Al read from file:
     /u/if/mamunm/psp/gbrv1.5pbe/Al.UPF
     MD5 check sum: 0a6289f5291fc8f409219462bc851e1f
     Pseudo is Ultrasoft + core correction, Zval =  3.0
     Generated by new atomic code, or converted to UPF format
     Using radial grid of  893 points,  3 beta functions with: 
                l(1) =   0
                l(2) =   1
                l(3) =   2
     Q(r) pseudized with  8 coefficients,  rinner =    0.900   0.900   0.900
                                                       0.900   0.900

     PseudoPot. # 2 for C  read from file:
     /u/if/mamunm/psp/gbrv1.5pbe/C.UPF
     MD5 check sum: d1aef80898a10debaa0f26306b886e00
     Pseudo is Ultrasoft + core correction, Zval =  4.0
     Generated by new atomic code, or converted to UPF format
     Using radial grid of  721 points,  4 beta functions with: 
                l(1) =   0
                l(2) =   0
                l(3) =   1
                l(4) =   1
     Q(r) pseudized with  8 coefficients,  rinner =    1.100   1.100   1.100


     PseudoPot. # 3 for H  read from file:
     /u/if/mamunm/psp/gbrv1.5pbe/H.UPF
     MD5 check sum: 761ae9a214b05c3daf00ab9f6b793d6f
     Pseudo is Ultrasoft, Zval =  1.0
     Generated by new atomic code, or converted to UPF format
     Using radial grid of  615 points,  2 beta functions with: 
                l(1) =   0
                l(2) =   0
     Q(r) pseudized with  8 coefficients,  rinner =    0.700

     vdW kernel table read from file vdW_kernel_table
     MD5 check sum: 095c7af220d748ca6e76c0b4c6cfb241

     atomic species   valence    mass     pseudopotential
        Al1            3.00    26.98154     Al( 1.00)
        C1             4.00    12.01100     C ( 1.00)
        H1             1.00     1.00800     H ( 1.00)

     No symmetry found



   Cartesian axes

     site n.     atom                  positions (alat units)
         1           Al1 tau(   1) = (   1.4207216   0.8202540  10.0000000  )
         2           Al1 tau(   2) = (   4.2621647   0.8202540  10.0000000  )
         3           Al1 tau(   3) = (   2.8414431   3.2810159  10.0000000  )
         4           Al1 tau(   4) = (   5.6828862   3.2810159  10.0000000  )
         5           Al1 tau(   5) = (   5.6828862   1.6405079  12.3200286  )
         6           Al1 tau(   6) = (   2.8414431   1.6405079  12.3200286  )
         7           Al1 tau(   7) = (   7.1036078   4.1012699  12.3200286  )
         8           Al1 tau(   8) = (   4.2621647   4.1012699  12.3200286  )
         9           Al1 tau(   9) = (   0.0000000   0.0000000  14.6400572  )
        10           Al1 tau(  10) = (   2.8414431   0.0000000  14.6400572  )
        11           Al1 tau(  11) = (   1.4207216   2.4607619  14.6400572  )
        12           Al1 tau(  12) = (   4.2621647   2.4607619  14.6400572  )
        13           C1  tau(  13) = (   2.8414431   1.6405079  15.9205572  )
        14           H1  tau(  14) = (   2.8414431   1.6405079  17.0205572  )

     number of k points=    20  Fermi-Dirac smearing, width (Ry)=  0.0110
                       cart. coord. in units 2pi/alat
        k(    1) = (   0.0000000   0.0000000   0.0000000), wk =   0.0555556
        k(    2) = (   0.0000000   0.0338648   0.0000000), wk =   0.1111111
        k(    3) = (   0.0000000   0.0677297   0.0000000), wk =   0.1111111
        k(    4) = (   0.0000000  -0.1015945   0.0000000), wk =   0.0555556
        k(    5) = (   0.0293278  -0.0169324   0.0000000), wk =   0.1111111
        k(    6) = (   0.0293278   0.0169324   0.0000000), wk =   0.1111111
        k(    7) = (   0.0293278   0.0507973   0.0000000), wk =   0.1111111
        k(    8) = (   0.0293278  -0.1185270   0.0000000), wk =   0.1111111
        k(    9) = (   0.0293278  -0.0846621   0.0000000), wk =   0.1111111
        k(   10) = (   0.0293278  -0.0507973   0.0000000), wk =   0.1111111
        k(   11) = (   0.0586556  -0.0338648   0.0000000), wk =   0.1111111
        k(   12) = (   0.0586556   0.0000000   0.0000000), wk =   0.1111111
        k(   13) = (   0.0586556   0.0338648   0.0000000), wk =   0.1111111
        k(   14) = (   0.0586556  -0.1354594   0.0000000), wk =   0.1111111
        k(   15) = (   0.0586556  -0.1015945   0.0000000), wk =   0.1111111
        k(   16) = (   0.0586556  -0.0677297   0.0000000), wk =   0.1111111
        k(   17) = (  -0.0879835   0.0507973   0.0000000), wk =   0.0555556
        k(   18) = (  -0.0879835   0.0846621   0.0000000), wk =   0.1111111
        k(   19) = (  -0.0879835   0.1185270   0.0000000), wk =   0.1111111
        k(   20) = (  -0.0879835  -0.0507973   0.0000000), wk =   0.0555556

     Dense  grid:   553473 G-vectors     FFT dimensions: (  72,  72, 288)

     Smooth grid:   139985 G-vectors     FFT dimensions: (  45,  45, 180)

     Largest allocated arrays     est. size (Mb)     dimensions
        Kohn-Sham Wavefunctions         1.04 Mb     (    2266,   30)
        NL pseudopotentials             4.08 Mb     (    2266,  118)
        Each V/rho on FFT grid          2.85 Mb     (  186624)
        Each G-vector array             0.53 Mb     (   69187)
        G-vector shells                 0.14 Mb     (   18589)
     Largest temporary arrays     est. size (Mb)     dimensions
        Auxiliary wavefunctions         4.15 Mb     (    2266,  120)
        Each subspace H/S matrix        0.22 Mb     (     120,  120)
        Each <psi_i|beta_j> matrix      0.05 Mb     (     118,   30)
        Arrays for rho mixing          28.48 Mb     (  186624,   10)

     Initial potential from superposition of free atoms
     Check: negative starting charge=   -0.000167

     starting charge   40.97037, renormalised to   41.00000

     negative rho (up, down):  1.675E-04 0.000E+00


     ************************************************************************
     *
     * You are using vdW-DF for exchange-correlation in this calculation.
     * Please cite the following three references that made this development
     * possible:
     *
     *   M. Dion, H. Rydberg, E. Schroder, D. C. Langreth, and
     *   B. I. Lundqvist, Phys. Rev. Lett. 92, 246401 (2004).
     *
     *   T. Thonhauser, V. R. Cooper, S. Li, A. Puzder, P. Hyldgaard, and
     *   D. C. Langreth, Phys. Rev. B 76, 125112 (2007).
     *
     *   G. Roman-Perez and J. M. Soler, Phys. Rev. Lett. 103, 096102 (2009).
     *
     *
     * If you are using vdW-DF2, please also cite:
     *
     *   K. Lee, E. D. Murray, L. Kong, B. I. Lundqvist, and
     *   D. C. Langreth, Phys. Rev. B 82, 081101(R) (2010).
     *
     *
     * If you are calculating the stress with vdW-DF, please also cite:
     *
     *   R. Sabatini, E. Kucukbenli, B. Kolb, T. Thonhauser, and
     *   S. de Gironcoli, J. Phys.: Condens. Matter 24, 424209 (2012).
     *
     ************************************************************************

     Carrying out vdW-DF run using the following parameters:

     Nqs =      20    Nr_points =    1024   r_max =   100.000
     q_mesh =
               0.00001000     0.04494208     0.09755937     0.15916263
               0.23128650     0.31572767     0.41458969     0.53033537
               0.66584808     0.82450364     1.01025438     1.22772762
               1.48234092     1.78043706     2.12944203     2.53805004
               3.01644009     3.57652955     4.23227104     5.00000000

     Gradients computed in reciprocal space

     ************************************************************************


 
     Adding external electric field

     Computed dipole along edir(3) : 
        Dipole               -0.0258 Ry au,         -0.0655 Debye
        Dipole field         -0.0001 Ry au
 
        Potential amp.        0.0063 Ry
        Total length         45.3989 bohr
 
     Starting wfc are   53 randomized atomic wfcs

     total cpu time spent up to now is        6.2 secs

     per-process dynamical memory:    62.8 Mb

     Self-consistent Calculation

     iteration #  1     ecut=    36.75 Ry     beta=0.30
     Davidson diagonalization with overlap
     ethr =  1.00E-02,  avg # of iterations =  3.0

     negative rho (up, down):  2.207E-04 0.000E+00
 
     Adding external electric field

     Computed dipole along edir(3) : 
        Dipole               -2.4536 Ry au,         -6.2365 Debye
        Dipole field         -0.0066 Ry au
 
        Potential amp.        0.6020 Ry
        Total length         45.3989 bohr
 

     total cpu time spent up to now is       13.3 secs

     total energy              =     -94.59598917 Ry
     Harris-Foulkes estimate   =     -95.47392173 Ry
     estimated scf accuracy    <       2.03147571 Ry

     iteration #  2     ecut=    36.75 Ry     beta=0.30
     Davidson diagonalization with overlap
     ethr =  4.95E-03,  avg # of iterations =  3.6

     negative rho (up, down):  2.441E-04 0.000E+00
 
     Adding external electric field

     Computed dipole along edir(3) : 
        Dipole                0.4452 Ry au,          1.1316 Debye
        Dipole field          0.0012 Ry au
 
        Potential amp.       -0.1092 Ry
        Total length         45.3989 bohr
 

     total cpu time spent up to now is       20.3 secs

     total energy              =     -92.70814410 Ry
     Harris-Foulkes estimate   =     -96.70041155 Ry
     estimated scf accuracy    <      54.78444917 Ry

     iteration #  3     ecut=    36.75 Ry     beta=0.30
     Davidson diagonalization with overlap
     ethr =  4.95E-03,  avg # of iterations =  4.0

     negative rho (up, down):  2.416E-04 0.000E+00
 
     Adding external electric field

     Computed dipole along edir(3) : 
        Dipole                0.1455 Ry au,          0.3697 Debye
        Dipole field          0.0004 Ry au
 
        Potential amp.       -0.0357 Ry
        Total length         45.3989 bohr
 

     total cpu time spent up to now is       27.3 secs

     total energy              =     -95.07031846 Ry
     Harris-Foulkes estimate   =     -95.26577836 Ry
     estimated scf accuracy    <       2.93251198 Ry

     iteration #  4     ecut=    36.75 Ry     beta=0.30
     Davidson diagonalization with overlap
     ethr =  4.95E-03,  avg # of iterations =  1.0

     negative rho (up, down):  2.623E-04 0.000E+00
 
     Adding external electric field

     Computed dipole along edir(3) : 
        Dipole                0.0470 Ry au,          0.1194 Debye
        Dipole field          0.0001 Ry au
 
        Potential amp.       -0.0115 Ry
        Total length         45.3989 bohr
 

     total cpu time spent up to now is       33.3 secs

     total energy              =     -95.13767056 Ry
     Harris-Foulkes estimate   =     -95.15837667 Ry
     estimated scf accuracy    <       0.13890989 Ry

     iteration #  5     ecut=    36.75 Ry     beta=0.30
     Davidson diagonalization with overlap
     ethr =  3.39E-04,  avg # of iterations =  2.6

     negative rho (up, down):  2.932E-04 0.000E+00
 
     Adding external electric field

     Computed dipole along edir(3) : 
        Dipole               -0.0340 Ry au,         -0.0864 Debye
        Dipole field         -0.0001 Ry au
 
        Potential amp.        0.0083 Ry
        Total length         45.3989 bohr
 

     total cpu time spent up to now is       39.5 secs

     total energy              =     -95.13822834 Ry
     Harris-Foulkes estimate   =     -95.14477495 Ry
     estimated scf accuracy    <       0.02685288 Ry

     iteration #  6     ecut=    36.75 Ry     beta=0.30
     Davidson diagonalization with overlap
     ethr =  6.55E-05,  avg # of iterations =  3.8

     negative rho (up, down):  3.312E-04 0.000E+00
 
     Adding external electric field

     Computed dipole along edir(3) : 
        Dipole               -0.0547 Ry au,         -0.1390 Debye
        Dipole field         -0.0001 Ry au
 
        Potential amp.        0.0134 Ry
        Total length         45.3989 bohr
 

     total cpu time spent up to now is       46.0 secs

     total energy              =     -95.14046591 Ry
     Harris-Foulkes estimate   =     -95.14216217 Ry
     estimated scf accuracy    <       0.01023752 Ry

     iteration #  7     ecut=    36.75 Ry     beta=0.30
     Davidson diagonalization with overlap
     ethr =  2.50E-05,  avg # of iterations =  2.4

     negative rho (up, down):  3.748E-04 0.000E+00
 
     Adding external electric field

     Computed dipole along edir(3) : 
        Dipole               -0.0503 Ry au,         -0.1279 Debye
        Dipole field         -0.0001 Ry au
 
        Potential amp.        0.0123 Ry
        Total length         45.3989 bohr
 

     total cpu time spent up to now is       52.1 secs

     total energy              =     -95.14085368 Ry
     Harris-Foulkes estimate   =     -95.14123712 Ry
     estimated scf accuracy    <       0.00195200 Ry

     iteration #  8     ecut=    36.75 Ry     beta=0.30
     Davidson diagonalization with overlap
     ethr =  4.76E-06,  avg # of iterations =  4.2

     negative rho (up, down):  3.912E-04 0.000E+00
 
     Adding external electric field

     Computed dipole along edir(3) : 
        Dipole               -0.0536 Ry au,         -0.1363 Debye
        Dipole field         -0.0001 Ry au
 
        Potential amp.        0.0132 Ry
        Total length         45.3989 bohr
 

     total cpu time spent up to now is       58.8 secs

     total energy              =     -95.14111427 Ry
     Harris-Foulkes estimate   =     -95.14119337 Ry
     estimated scf accuracy    <       0.00035163 Ry

     iteration #  9     ecut=    36.75 Ry     beta=0.30
     Davidson diagonalization with overlap
     ethr =  8.58E-07,  avg # of iterations =  2.0

     negative rho (up, down):  4.081E-04 0.000E+00
 
     Adding external electric field

     Computed dipole along edir(3) : 
        Dipole               -0.0540 Ry au,         -0.1372 Debye
        Dipole field         -0.0001 Ry au
 
        Potential amp.        0.0132 Ry
        Total length         45.3989 bohr
 

     total cpu time spent up to now is       65.0 secs

     total energy              =     -95.14116406 Ry
     Harris-Foulkes estimate   =     -95.14117538 Ry
     estimated scf accuracy    <       0.00003657 Ry

     iteration # 10     ecut=    36.75 Ry     beta=0.30
     Davidson diagonalization with overlap
     ethr =  8.92E-08,  avg # of iterations =  2.5

     negative rho (up, down):  4.255E-04 0.000E+00

     negative rho (up, down):  4.255E-04 0.000E+00

     negative rho (up, down):  4.255E-04 0.000E+00

     negative rho (up, down):  4.255E-04 0.000E+00

     negative rho (up, down):  4.255E-04 0.000E+00

     negative rho (up, down):  4.255E-04 0.000E+00

     negative rho (up, down):  4.255E-04 0.000E+00

     negative rho (up, down):  4.255E-04 0.000E+00

     negative rho (up, down):  4.255E-04 0.000E+00

     negative rho (up, down):  4.255E-04 0.000E+00

     negative rho (up, down):  4.255E-04 0.000E+00

     negative rho (up, down):  4.255E-04 0.000E+00

     negative rho (up, down):  4.255E-04 0.000E+00

     negative rho (up, down):  4.255E-04 0.000E+00

     negative rho (up, down):  4.255E-04 0.000E+00

     negative rho (up, down):  4.255E-04 0.000E+00

     negative rho (up, down):  4.255E-04 0.000E+00

     negative rho (up, down):  4.255E-04 0.000E+00

     negative rho (up, down):  4.255E-04 0.000E+00

     negative rho (up, down):  4.255E-04 0.000E+00

     negative rho (up, down):  4.255E-04 0.000E+00

     negative rho (up, down):  4.255E-04 0.000E+00

     negative rho (up, down):  4.255E-04 0.000E+00

     negative rho (up, down):  4.255E-04 0.000E+00

     negative rho (up, down):  4.255E-04 0.000E+00

     negative rho (up, down):  4.255E-04 0.000E+00

     negative rho (up, down):  4.255E-04 0.000E+00

     negative rho (up, down):  4.255E-04 0.000E+00

     negative rho (up, down):  4.255E-04 0.000E+00

     negative rho (up, down):  4.255E-04 0.000E+00

     negative rho (up, down):  4.255E-04 0.000E+00

     negative rho (up, down):  4.255E-04 0.000E+00

     negative rho (up, down):  4.255E-04 0.000E+00

     negative rho (up, down):  4.255E-04 0.000E+00

     negative rho (up, down):  4.255E-04 0.000E+00
 
     Adding external electric field

     Computed dipole along edir(3) : 
        Dipole               -0.0533 Ry au,         -0.1355 Debye
        Dipole field         -0.0001 Ry au
 
        Potential amp.        0.0131 Ry
        Total length         45.3989 bohr
 

     total cpu time spent up to now is      118.3 secs

     End of self-consistent calculation

          k = 0.0000 0.0000 0.0000 ( 17579 PWs)   bands (ev):

   -12.3982 -11.1107  -9.3538  -7.0124  -6.0439  -5.5122  -5.5122  -5.3811
    -5.3213  -5.3213  -4.8471  -4.1622  -4.1622  -3.9775  -3.9775  -3.7474
    -3.3928  -2.3132  -2.3132  -2.2878  -1.0763  -0.8440  -0.8440  -0.0986
     0.4488   0.4488   0.8594   1.9612   1.9880   1.9880

          k = 0.0000 0.0339 0.0000 ( 17522 PWs)   bands (ev):

   -12.3516 -10.9693  -9.2244  -7.2448  -6.8825  -6.3348  -6.2232  -5.8311
    -5.1466  -4.8205  -4.4204  -4.2626  -3.9136  -3.6018  -3.3729  -3.3639
    -2.9180  -2.2354  -2.1633  -1.9823  -0.9080  -0.6487  -0.6197   0.1010
     0.5781   0.6754   0.8427   1.8774   2.1556   2.2724

          k = 0.0000 0.0677 0.0000 ( 17510 PWs)   bands (ev):

   -12.2583 -10.5284  -8.8362  -8.6271  -7.1898  -6.7551  -6.7078  -6.4248
    -5.5299  -5.2518  -4.6402  -3.9085  -3.3120  -3.0563  -2.8987  -2.6579
    -2.0954  -1.6043  -1.4939  -0.9131  -0.4055  -0.3748   0.0557   0.5931
     0.8333   0.9060   1.0557   1.6457   1.6936   2.1909

          k = 0.0000-0.1016 0.0000 ( 17464 PWs)   bands (ev):

   -12.2119  -9.8150  -9.6950  -8.1720  -8.0753  -6.9363  -6.8704  -6.1449
    -5.6255  -5.4036  -5.2411  -3.6701  -3.3734  -3.0310  -2.4359  -1.7533
    -1.4360  -1.1119  -0.9375  -0.7699  -0.4679  -0.4178   0.3493   0.5201
     0.9896   0.9905   1.0990   1.6323   2.0171   2.0573

          k = 0.0293-0.0169 0.0000 ( 17522 PWs)   bands (ev):

   -12.3516 -10.9693  -9.2244  -7.2448  -6.8825  -6.3348  -6.2232  -5.8311
    -5.1466  -4.8205  -4.4204  -4.2626  -3.9136  -3.6018  -3.3729  -3.3639
    -2.9180  -2.2354  -2.1633  -1.9823  -0.9080  -0.6487  -0.6197   0.1010
     0.5781   0.6754   0.8427   1.8774   2.1556   2.2724

          k = 0.0293 0.0169 0.0000 ( 17522 PWs)   bands (ev):

   -12.3516 -10.9693  -9.2244  -7.2448  -6.8825  -6.3348  -6.2232  -5.8311
    -5.1466  -4.8205  -4.4204  -4.2626  -3.9136  -3.6018  -3.3729  -3.3639
    -2.9180  -2.2354  -2.1633  -1.9823  -0.9080  -0.6487  -0.6197   0.1010
     0.5781   0.6754   0.8427   1.8774   2.1556   2.2724

          k = 0.0293 0.0508 0.0000 ( 17513 PWs)   bands (ev):

   -12.2819 -10.6775  -8.9597  -7.8745  -7.8189  -6.7717  -6.3851  -6.2151
    -5.1138  -4.9859  -4.5116  -3.9695  -3.8942  -3.3855  -3.2497  -2.4486
    -2.1461  -1.7080  -1.6352  -1.4967  -0.5191  -0.3746  -0.2150   0.2283
     0.6558   0.8877   1.2601   1.6591   2.2805   2.3356

          k = 0.0293-0.1185 0.0000 ( 17495 PWs)   bands (ev):

   -12.2134 -10.0698  -9.1195  -8.4042  -8.1613  -7.5578  -6.7134  -6.0914
    -5.4009  -5.1271  -4.4088  -4.0174  -3.4385  -3.0545  -2.6466  -2.3759
    -1.7667  -1.5274  -1.0740  -0.8797  -0.3583   0.1233   0.5126   0.6419
     1.0281   1.0980   1.4569   1.6797   1.9419   2.1964

          k = 0.0293-0.0847 0.0000 ( 17495 PWs)   bands (ev):

   -12.2134 -10.0698  -9.1195  -8.4042  -8.1613  -7.5578  -6.7134  -6.0914
    -5.4009  -5.1271  -4.4088  -4.0174  -3.4385  -3.0545  -2.6466  -2.3759
    -1.7667  -1.5274  -1.0740  -0.8797  -0.3583   0.1233   0.5126   0.6419
     1.0281   1.0980   1.4569   1.6797   1.9419   2.1964

          k = 0.0293-0.0508 0.0000 ( 17513 PWs)   bands (ev):

   -12.2819 -10.6775  -8.9597  -7.8745  -7.8189  -6.7717  -6.3851  -6.2151
    -5.1138  -4.9859  -4.5116  -3.9695  -3.8942  -3.3855  -3.2497  -2.4486
    -2.1461  -1.7080  -1.6352  -1.4967  -0.5191  -0.3746  -0.2150   0.2283
     0.6558   0.8877   1.2601   1.6591   2.2805   2.3358

          k = 0.0587-0.0339 0.0000 ( 17510 PWs)   bands (ev):

   -12.2583 -10.5284  -8.8362  -8.6271  -7.1898  -6.7551  -6.7078  -6.4248
    -5.5299  -5.2518  -4.6402  -3.9085  -3.3120  -3.0563  -2.8987  -2.6579
    -2.0954  -1.6043  -1.4939  -0.9131  -0.4055  -0.3748   0.0557   0.5931
     0.8333   0.9060   1.0557   1.6457   1.6936   2.1909

          k = 0.0587 0.0000 0.0000 ( 17513 PWs)   bands (ev):

   -12.2819 -10.6775  -8.9597  -7.8745  -7.8189  -6.7717  -6.3851  -6.2151
    -5.1138  -4.9859  -4.5116  -3.9695  -3.8942  -3.3855  -3.2497  -2.4486
    -2.1461  -1.7080  -1.6352  -1.4967  -0.5191  -0.3746  -0.2150   0.2283
     0.6558   0.8877   1.2601   1.6591   2.2805   2.3356

          k = 0.0587 0.0339 0.0000 ( 17510 PWs)   bands (ev):

   -12.2583 -10.5284  -8.8362  -8.6271  -7.1898  -6.7551  -6.7078  -6.4248
    -5.5299  -5.2518  -4.6402  -3.9085  -3.3120  -3.0563  -2.8987  -2.6579
    -2.0954  -1.6043  -1.4939  -0.9131  -0.4055  -0.3748   0.0557   0.5931
     0.8333   0.9060   1.0557   1.6457   1.6936   2.1909

          k = 0.0587-0.1355 0.0000 ( 17495 PWs)   bands (ev):

   -12.2134 -10.0698  -9.1195  -8.4042  -8.1613  -7.5578  -6.7134  -6.0914
    -5.4009  -5.1271  -4.4088  -4.0174  -3.4385  -3.0545  -2.6466  -2.3759
    -1.7667  -1.5275  -1.0740  -0.8797  -0.3583   0.1233   0.5126   0.6419
     1.0281   1.0980   1.4569   1.6797   1.9419   2.1964

          k = 0.0587-0.1016 0.0000 ( 17442 PWs)   bands (ev):

   -12.1922  -9.3191  -9.3074  -9.2082  -7.7244  -7.6817  -7.6729  -5.8346
    -5.1674  -5.1627  -3.6838  -3.5913  -3.5472  -2.9681  -2.8056  -2.7443
    -2.1331  -1.7043  -1.6526  -0.8211  -0.3002   0.2472   1.1022   1.2809
     1.5571   1.9411   2.1680   2.1945   2.3270   2.3428

          k = 0.0587-0.0677 0.0000 ( 17495 PWs)   bands (ev):

   -12.2134 -10.0698  -9.1195  -8.4042  -8.1613  -7.5578  -6.7134  -6.0914
    -5.4009  -5.1271  -4.4088  -4.0174  -3.4385  -3.0545  -2.6466  -2.3759
    -1.7667  -1.5274  -1.0740  -0.8797  -0.3583   0.1233   0.5126   0.6419
     1.0281   1.0980   1.4569   1.6797   1.9419   2.1964

          k =-0.0880 0.0508 0.0000 ( 17464 PWs)   bands (ev):

   -12.2119  -9.8150  -9.6950  -8.1720  -8.0753  -6.9363  -6.8704  -6.1449
    -5.6255  -5.4036  -5.2411  -3.6701  -3.3734  -3.0310  -2.4359  -1.7533
    -1.4360  -1.1119  -0.9375  -0.7699  -0.4679  -0.4178   0.3493   0.5201
     0.9896   0.9905   1.0990   1.6323   2.0171   2.0573

          k =-0.0880 0.0847 0.0000 ( 17495 PWs)   bands (ev):

   -12.2134 -10.0698  -9.1195  -8.4042  -8.1613  -7.5578  -6.7134  -6.0914
    -5.4009  -5.1271  -4.4088  -4.0174  -3.4385  -3.0545  -2.6466  -2.3759
    -1.7667  -1.5275  -1.0740  -0.8797  -0.3583   0.1233   0.5126   0.6419
     1.0281   1.0980   1.4569   1.6797   1.9419   2.1964

          k =-0.0880 0.1185 0.0000 ( 17495 PWs)   bands (ev):

   -12.2134 -10.0698  -9.1195  -8.4042  -8.1613  -7.5578  -6.7134  -6.0914
    -5.4009  -5.1271  -4.4088  -4.0174  -3.4385  -3.0545  -2.6466  -2.3759
    -1.7667  -1.5275  -1.0740  -0.8797  -0.3583   0.1233   0.5126   0.6419
     1.0281   1.0980   1.4569   1.6797   1.9419   2.1964

          k =-0.0880-0.0508 0.0000 ( 17464 PWs)   bands (ev):

   -12.2119  -9.8150  -9.6950  -8.1720  -8.0753  -6.9363  -6.8704  -6.1449
    -5.6255  -5.4036  -5.2411  -3.6701  -3.3734  -3.0310  -2.4359  -1.7533
    -1.4360  -1.1119  -0.9375  -0.7699  -0.4679  -0.4178   0.3493   0.5201
     0.9896   0.9905   1.0990   1.6323   2.0172   2.0573

     the Fermi energy is    -0.6244 ev

!    total energy              =     -95.14116984 Ry
     Harris-Foulkes estimate   =     -95.14117164 Ry
     estimated scf accuracy    <       0.00000352 Ry

     The total energy is the sum of the following terms:

     one-electron contribution =    -741.37134027 Ry
     hartree contribution      =     379.13823339 Ry
     xc contribution           =     -57.61372241 Ry
     ewald contribution        =     324.73658505 Ry
     electric field correction =       0.00000768 Ry
     smearing contrib. (-TS)   =      -0.03093329 Ry

     convergence has been achieved in  10 iterations
 
 BEEF-vdW xc energy contributions
           1 :   -47.3213180830597     
           2 :    40.6645555808679     
           3 :   -30.4691886958880     
           4 :    20.7661140550808     
           5 :   -14.1108980507682     
           6 :    10.6451283938064     
           7 :   -8.87405942567475     
           8 :    7.26220890199824     
           9 :   -5.34271789105706     
          10 :    3.64439893627282     
          11 :   -2.80693129584280     
          12 :    2.82740606171105     
          13 :   -3.07847315995993     
          14 :    2.92970198648895     
          15 :   -2.28749512736741     
          16 :    1.56145781825337     
          17 :   -1.17758010964685     
          18 :    1.16033438226189     
          19 :   -1.16999483412391     
          20 :   0.890656174393925     
          21 :  -0.343305760525482     
          22 :  -0.169267774982835     
          23 :   0.384303306890523     
          24 :  -0.324924849540210     
          25 :   0.241846954595758     
          26 :  -0.342758549175599     
          27 :   0.594134762864002     
          28 :  -0.780583864465285     
          29 :   0.737373904199643     
          30 :  -0.513547996950678     
          31 :   -7.07882167874370     
          32 :   -5.17323635008810     

     Forces acting on atoms (Ry/au):


     negative rho (up, down):  4.255E-04 0.000E+00
     atom    1 type  1   force =     0.00172678    0.00099701   -0.00015530
     atom    2 type  1   force =    -0.00172671    0.00099678   -0.00015489
     atom    3 type  1   force =    -0.00000002   -0.00199436   -0.00015466
     atom    4 type  1   force =     0.00000002    0.00000024   -0.00302908
     atom    5 type  1   force =     0.00000017   -0.00366417    0.00407690
     atom    6 type  1   force =    -0.00000000   -0.00000026    0.00424486
     atom    7 type  1   force =     0.00317296    0.00183229    0.00407701
     atom    8 type  1   force =    -0.00317311    0.00183209    0.00407716
     atom    9 type  1   force =    -0.00000000    0.00000018   -0.01597247
     atom   10 type  1   force =    -0.00000031   -0.00313203    0.03088616
     atom   11 type  1   force =    -0.00271201    0.00156590    0.03088654
     atom   12 type  1   force =     0.00271184    0.00156595    0.03088683
     atom   13 type  2   force =     0.00000033    0.00000024   -0.07924384
     atom   14 type  3   force =     0.00000005    0.00000013   -0.01042520

     Total force =     0.097646     Total SCF correction =     0.000935


     entering subroutine stress ...


     negative rho (up, down):  4.255E-04 0.000E+00
          total   stress  (Ry/bohr**3)                   (kbar)     P=   -8.19
  -0.00005326  -0.00000000   0.00000000         -7.83     -0.00      0.00
  -0.00000000  -0.00005326   0.00000000         -0.00     -7.83      0.00
   0.00000000   0.00000000  -0.00006053          0.00      0.00     -8.90


     BFGS Geometry Optimization

     number of scf cycles    =   1
     number of bfgs steps    =   0

     energy   new            =     -95.1411698449 Ry

     new trust radius        =       0.0792438379 bohr
     new conv_thr            =       0.0000099958 Ry


ATOMIC_POSITIONS (crystal)
Al1      0.166666667   0.166666667   0.405843214    0   0   0
Al1      0.666666667   0.166666667   0.405843214    0   0   0
Al1      0.166666667   0.666666667   0.405843214    0   0   0
Al1      0.666666667   0.666666667   0.405843214    0   0   0
Al1      0.833333333   0.333333333   0.500000000    0   0   0
Al1      0.333333333   0.333333333   0.500000000    0   0   0
Al1      0.833333333   0.833333333   0.500000000    0   0   0
Al1      0.333333333   0.833333333   0.500000000    0   0   0
Al1     -0.000000010   0.000000020   0.593813756
Al1      0.500168354  -0.000336766   0.594820106
Al1     -0.000336721   0.500168370   0.594820115
Al1      0.500168332   0.500168375   0.594820121
C1       0.333333351   0.333333360   0.644423145
H1       0.333333331   0.333333348   0.690543868



     Writing output data file calc.save
     Check: negative starting charge=   -0.000167
     NEW-OLD atomic charge density approx. for the potential
     Check: negative starting charge=   -0.000163

     negative rho (up, down):  4.123E-04 0.000E+00
 
     Adding external electric field

     Computed dipole along edir(3) : 
        Dipole               -0.0531 Ry au,         -0.1350 Debye
        Dipole field         -0.0001 Ry au
 
        Potential amp.        0.0130 Ry
        Total length         45.3989 bohr
 

     total cpu time spent up to now is      142.7 secs

     per-process dynamical memory:    59.9 Mb

     Self-consistent Calculation

     iteration #  1     ecut=    36.75 Ry     beta=0.30
     Davidson diagonalization with overlap
     ethr =  1.00E-06,  avg # of iterations =  4.7

     negative rho (up, down):  4.105E-04 0.000E+00
 
     Adding external electric field

     Computed dipole along edir(3) : 
        Dipole               -0.0400 Ry au,         -0.1015 Debye
        Dipole field         -0.0001 Ry au
 
        Potential amp.        0.0098 Ry
        Total length         45.3989 bohr
 

     total cpu time spent up to now is      151.1 secs

     total energy              =     -95.14807819 Ry
     Harris-Foulkes estimate   =     -95.14853418 Ry
     estimated scf accuracy    <       0.00138148 Ry

     iteration #  2     ecut=    36.75 Ry     beta=0.30
     Davidson diagonalization with overlap
     ethr =  3.37E-06,  avg # of iterations =  2.1

     negative rho (up, down):  4.134E-04 0.000E+00
 
     Adding external electric field

     Computed dipole along edir(3) : 
        Dipole               -0.0366 Ry au,         -0.0930 Debye
        Dipole field         -0.0001 Ry au
 
        Potential amp.        0.0090 Ry
        Total length         45.3989 bohr
 

     total cpu time spent up to now is      157.3 secs

     total energy              =     -95.14809222 Ry
     Harris-Foulkes estimate   =     -95.14817849 Ry
     estimated scf accuracy    <       0.00029088 Ry

     iteration #  3     ecut=    36.75 Ry     beta=0.30
     Davidson diagonalization with overlap
     ethr =  7.09E-07,  avg # of iterations =  2.0

     negative rho (up, down):  4.169E-04 0.000E+00
 
     Adding external electric field

     Computed dipole along edir(3) : 
        Dipole               -0.0418 Ry au,         -0.1062 Debye
        Dipole field         -0.0001 Ry au
 
        Potential amp.        0.0102 Ry
        Total length         45.3989 bohr
 

     total cpu time spent up to now is      163.7 secs

     total energy              =     -95.14811933 Ry
     Harris-Foulkes estimate   =     -95.14811926 Ry
     estimated scf accuracy    <       0.00004385 Ry

     iteration #  4     ecut=    36.75 Ry     beta=0.30
     Davidson diagonalization with overlap
     ethr =  1.07E-07,  avg # of iterations =  2.0

     negative rho (up, down):  4.170E-04 0.000E+00
 
     Adding external electric field

     Computed dipole along edir(3) : 
        Dipole               -0.0361 Ry au,         -0.0917 Debye
        Dipole field         -0.0001 Ry au
 
        Potential amp.        0.0088 Ry
        Total length         45.3989 bohr
 

     total cpu time spent up to now is      169.8 secs

     total energy              =     -95.14811971 Ry
     Harris-Foulkes estimate   =     -95.14812549 Ry
     estimated scf accuracy    <       0.00003243 Ry

     iteration #  5     ecut=    36.75 Ry     beta=0.30
     Davidson diagonalization with overlap
     ethr =  7.91E-08,  avg # of iterations =  2.2

     negative rho (up, down):  4.182E-04 0.000E+00
 
     Adding external electric field

     Computed dipole along edir(3) : 
        Dipole               -0.0427 Ry au,         -0.1085 Debye
        Dipole field         -0.0001 Ry au
 
        Potential amp.        0.0105 Ry
        Total length         45.3989 bohr
 

     total cpu time spent up to now is      176.0 secs

     total energy              =     -95.14811742 Ry
     Harris-Foulkes estimate   =     -95.14813084 Ry
     estimated scf accuracy    <       0.00021691 Ry

     iteration #  6     ecut=    36.75 Ry     beta=0.30
     Davidson diagonalization with overlap
     ethr =  7.91E-08,  avg # of iterations =  2.2

     negative rho (up, down):  4.227E-04 0.000E+00

     negative rho (up, down):  4.227E-04 0.000E+00

     negative rho (up, down):  4.227E-04 0.000E+00

     negative rho (up, down):  4.227E-04 0.000E+00

     negative rho (up, down):  4.227E-04 0.000E+00

     negative rho (up, down):  4.227E-04 0.000E+00

     negative rho (up, down):  4.227E-04 0.000E+00

     negative rho (up, down):  4.227E-04 0.000E+00

     negative rho (up, down):  4.227E-04 0.000E+00

     negative rho (up, down):  4.227E-04 0.000E+00

     negative rho (up, down):  4.227E-04 0.000E+00

     negative rho (up, down):  4.227E-04 0.000E+00

     negative rho (up, down):  4.227E-04 0.000E+00

     negative rho (up, down):  4.227E-04 0.000E+00

     negative rho (up, down):  4.227E-04 0.000E+00

     negative rho (up, down):  4.227E-04 0.000E+00

     negative rho (up, down):  4.227E-04 0.000E+00

     negative rho (up, down):  4.227E-04 0.000E+00

     negative rho (up, down):  4.227E-04 0.000E+00

     negative rho (up, down):  4.227E-04 0.000E+00

     negative rho (up, down):  4.227E-04 0.000E+00

     negative rho (up, down):  4.227E-04 0.000E+00

     negative rho (up, down):  4.227E-04 0.000E+00

     negative rho (up, down):  4.227E-04 0.000E+00

     negative rho (up, down):  4.227E-04 0.000E+00

     negative rho (up, down):  4.227E-04 0.000E+00

     negative rho (up, down):  4.227E-04 0.000E+00

     negative rho (up, down):  4.227E-04 0.000E+00

     negative rho (up, down):  4.227E-04 0.000E+00

     negative rho (up, down):  4.227E-04 0.000E+00

     negative rho (up, down):  4.227E-04 0.000E+00

     negative rho (up, down):  4.227E-04 0.000E+00

     negative rho (up, down):  4.227E-04 0.000E+00

     negative rho (up, down):  4.227E-04 0.000E+00

     negative rho (up, down):  4.227E-04 0.000E+00
 
     Adding external electric field

     Computed dipole along edir(3) : 
        Dipole               -0.0288 Ry au,         -0.0732 Debye
        Dipole field         -0.0001 Ry au
 
        Potential amp.        0.0071 Ry
        Total length         45.3989 bohr
 

     total cpu time spent up to now is      228.8 secs

     End of self-consistent calculation

          k = 0.0000 0.0000 0.0000 ( 17579 PWs)   bands (ev):

   -12.4239 -11.0646  -9.2767  -6.9246  -6.0440  -5.4968  -5.4968  -5.3556
    -5.2887  -5.2887  -4.8167  -4.2164  -4.2164  -3.9562  -3.9562  -3.7008
    -3.3767  -2.3076  -2.3076  -2.2447  -1.0679  -0.8319  -0.8318  -0.0618
     0.4853   0.4853   0.8956   1.9730   1.9990   1.9990

          k = 0.0000 0.0339 0.0000 ( 17522 PWs)   bands (ev):

   -12.3762 -10.9228  -9.1518  -7.2013  -6.8080  -6.3216  -6.1970  -5.8170
    -5.1335  -4.8427  -4.4135  -4.2299  -3.8731  -3.6128  -3.4091  -3.3503
    -2.9090  -2.2147  -2.1445  -1.9678  -0.8673  -0.6305  -0.5838   0.1259
     0.6004   0.6854   0.8559   1.9126   2.1868   2.2750

          k = 0.0000 0.0677 0.0000 ( 17510 PWs)   bands (ev):

   -12.2797 -10.4831  -8.7893  -8.5723  -7.1402  -6.7224  -6.6804  -6.3803
    -5.5196  -5.2641  -4.6217  -3.9007  -3.3518  -3.0435  -2.8717  -2.6487
    -2.1075  -1.5847  -1.4843  -0.8846  -0.3717  -0.3281   0.0689   0.6083
     0.8595   0.9367   1.0801   1.6623   1.7212   2.2274

          k = 0.0000-0.1016 0.0000 ( 17464 PWs)   bands (ev):

   -12.2311  -9.7853  -9.6407  -8.1569  -7.9870  -6.8983  -6.8426  -6.0840
    -5.6330  -5.4140  -5.2213  -3.6285  -3.4085  -3.0637  -2.4092  -1.7555
    -1.4524  -1.0749  -0.9298  -0.7476  -0.4390  -0.3839   0.3836   0.5512
     1.0055   1.0147   1.1417   1.6441   2.0344   2.0877

          k = 0.0293-0.0169 0.0000 ( 17522 PWs)   bands (ev):

   -12.3762 -10.9228  -9.1518  -7.2013  -6.8080  -6.3216  -6.1970  -5.8170
    -5.1335  -4.8427  -4.4135  -4.2299  -3.8731  -3.6128  -3.4091  -3.3503
    -2.9090  -2.2147  -2.1445  -1.9678  -0.8673  -0.6305  -0.5838   0.1259
     0.6004   0.6854   0.8559   1.9126   2.1868   2.2750

          k = 0.0293 0.0169 0.0000 ( 17522 PWs)   bands (ev):

   -12.3762 -10.9228  -9.1518  -7.2013  -6.8080  -6.3216  -6.1970  -5.8170
    -5.1335  -4.8427  -4.4135  -4.2299  -3.8731  -3.6128  -3.4091  -3.3503
    -2.9090  -2.2147  -2.1445  -1.9678  -0.8673  -0.6305  -0.5838   0.1259
     0.6004   0.6854   0.8559   1.9126   2.1868   2.2750

          k = 0.0293 0.0508 0.0000 ( 17513 PWs)   bands (ev):

   -12.3043 -10.6315  -8.8968  -7.8252  -7.7898  -6.6960  -6.3807  -6.2047
    -5.0931  -4.9674  -4.4733  -4.0061  -3.9223  -3.3496  -3.2497  -2.4660
    -2.1343  -1.6883  -1.5943  -1.4784  -0.5054  -0.3562  -0.1944   0.2787
     0.6692   0.9160   1.2945   1.6887   2.2919   2.3489

          k = 0.0293-0.1185 0.0000 ( 17495 PWs)   bands (ev):

   -12.2326 -10.0274  -9.0802  -8.3542  -8.1185  -7.5121  -6.6827  -6.0549
    -5.3933  -5.0998  -4.4171  -4.0315  -3.4306  -3.0292  -2.6406  -2.3879
    -1.7707  -1.5070  -1.0479  -0.8758  -0.3299   0.1567   0.5336   0.6778
     1.0447   1.1311   1.4903   1.7126   1.9578   2.2039

          k = 0.0293-0.0847 0.0000 ( 17495 PWs)   bands (ev):

   -12.2326 -10.0274  -9.0802  -8.3542  -8.1185  -7.5121  -6.6827  -6.0549
    -5.3933  -5.0998  -4.4171  -4.0315  -3.4306  -3.0292  -2.6406  -2.3879
    -1.7707  -1.5070  -1.0479  -0.8758  -0.3299   0.1567   0.5336   0.6778
     1.0447   1.1311   1.4903   1.7126   1.9578   2.2039

          k = 0.0293-0.0508 0.0000 ( 17513 PWs)   bands (ev):

   -12.3043 -10.6315  -8.8968  -7.8252  -7.7898  -6.6960  -6.3807  -6.2047
    -5.0931  -4.9674  -4.4733  -4.0061  -3.9223  -3.3496  -3.2497  -2.4660
    -2.1343  -1.6883  -1.5943  -1.4784  -0.5054  -0.3562  -0.1944   0.2787
     0.6692   0.9160   1.2945   1.6887   2.2919   2.3489

          k = 0.0587-0.0339 0.0000 ( 17510 PWs)   bands (ev):

   -12.2797 -10.4831  -8.7893  -8.5723  -7.1402  -6.7224  -6.6804  -6.3803
    -5.5196  -5.2641  -4.6217  -3.9007  -3.3518  -3.0435  -2.8717  -2.6487
    -2.1075  -1.5847  -1.4843  -0.8846  -0.3717  -0.3281   0.0689   0.6083
     0.8595   0.9367   1.0801   1.6623   1.7212   2.2274

          k = 0.0587 0.0000 0.0000 ( 17513 PWs)   bands (ev):

   -12.3043 -10.6315  -8.8968  -7.8252  -7.7898  -6.6960  -6.3807  -6.2047
    -5.0931  -4.9674  -4.4733  -4.0061  -3.9223  -3.3496  -3.2497  -2.4660
    -2.1343  -1.6883  -1.5943  -1.4784  -0.5054  -0.3562  -0.1944   0.2787
     0.6692   0.9160   1.2945   1.6887   2.2919   2.3489

          k = 0.0587 0.0339 0.0000 ( 17510 PWs)   bands (ev):

   -12.2797 -10.4831  -8.7893  -8.5723  -7.1402  -6.7224  -6.6804  -6.3803
    -5.5196  -5.2641  -4.6217  -3.9007  -3.3518  -3.0435  -2.8717  -2.6487
    -2.1075  -1.5847  -1.4843  -0.8846  -0.3717  -0.3281   0.0689   0.6083
     0.8595   0.9367   1.0801   1.6623   1.7212   2.2274

          k = 0.0587-0.1355 0.0000 ( 17495 PWs)   bands (ev):

   -12.2326 -10.0274  -9.0802  -8.3542  -8.1185  -7.5121  -6.6827  -6.0549
    -5.3933  -5.0998  -4.4171  -4.0315  -3.4306  -3.0292  -2.6406  -2.3879
    -1.7707  -1.5070  -1.0479  -0.8758  -0.3299   0.1567   0.5336   0.6778
     1.0447   1.1311   1.4903   1.7126   1.9578   2.2039

          k = 0.0587-0.1016 0.0000 ( 17442 PWs)   bands (ev):

   -12.2102  -9.2841  -9.2833  -9.1454  -7.6669  -7.6587  -7.6279  -5.7704
    -5.1811  -5.1736  -3.6662  -3.5836  -3.5292  -2.9302  -2.8337  -2.7749
    -2.0770  -1.7075  -1.6288  -0.8269  -0.2817   0.2845   1.1179   1.3107
     1.5927   1.9538   2.1982   2.2128   2.3542   2.3572

          k = 0.0587-0.0677 0.0000 ( 17495 PWs)   bands (ev):

   -12.2326 -10.0274  -9.0802  -8.3542  -8.1185  -7.5121  -6.6827  -6.0549
    -5.3933  -5.0998  -4.4171  -4.0315  -3.4306  -3.0292  -2.6406  -2.3879
    -1.7707  -1.5070  -1.0479  -0.8758  -0.3299   0.1567   0.5336   0.6778
     1.0447   1.1311   1.4903   1.7126   1.9578   2.2039

          k =-0.0880 0.0508 0.0000 ( 17464 PWs)   bands (ev):

   -12.2311  -9.7853  -9.6407  -8.1569  -7.9870  -6.8983  -6.8426  -6.0840
    -5.6330  -5.4140  -5.2213  -3.6285  -3.4085  -3.0637  -2.4092  -1.7555
    -1.4524  -1.0749  -0.9298  -0.7476  -0.4390  -0.3839   0.3836   0.5512
     1.0055   1.0147   1.1417   1.6441   2.0344   2.0877

          k =-0.0880 0.0847 0.0000 ( 17495 PWs)   bands (ev):

   -12.2326 -10.0274  -9.0802  -8.3542  -8.1185  -7.5121  -6.6827  -6.0549
    -5.3933  -5.0998  -4.4171  -4.0315  -3.4306  -3.0292  -2.6406  -2.3879
    -1.7707  -1.5070  -1.0479  -0.8758  -0.3299   0.1567   0.5336   0.6778
     1.0447   1.1311   1.4903   1.7126   1.9578   2.2039

          k =-0.0880 0.1185 0.0000 ( 17495 PWs)   bands (ev):

   -12.2326 -10.0274  -9.0802  -8.3542  -8.1185  -7.5121  -6.6827  -6.0549
    -5.3933  -5.0998  -4.4171  -4.0315  -3.4306  -3.0292  -2.6406  -2.3879
    -1.7707  -1.5070  -1.0479  -0.8758  -0.3299   0.1567   0.5336   0.6778
     1.0447   1.1311   1.4903   1.7126   1.9578   2.2039

          k =-0.0880-0.0508 0.0000 ( 17464 PWs)   bands (ev):

   -12.2311  -9.7853  -9.6407  -8.1569  -7.9870  -6.8983  -6.8426  -6.0840
    -5.6330  -5.4140  -5.2213  -3.6285  -3.4085  -3.0637  -2.4092  -1.7555
    -1.4524  -1.0749  -0.9298  -0.7476  -0.4390  -0.3839   0.3836   0.5512
     1.0055   1.0147   1.1417   1.6441   2.0344   2.0877

     the Fermi energy is    -0.6006 ev

!    total energy              =     -95.14812349 Ry
     Harris-Foulkes estimate   =     -95.14812933 Ry
     estimated scf accuracy    <       0.00000770 Ry

     The total energy is the sum of the following terms:

     one-electron contribution =    -742.40019790 Ry
     hartree contribution      =     379.66256122 Ry
     xc contribution           =     -57.61579891 Ry
     ewald contribution        =     325.23581041 Ry
     electric field correction =       0.00000224 Ry
     smearing contrib. (-TS)   =      -0.03050055 Ry

     convergence has been achieved in   6 iterations
 
 BEEF-vdW xc energy contributions
           1 :   -47.3249328443343     
           2 :    40.6712371756680     
           3 :   -30.4771958864544     
           4 :    20.7695653430681     
           5 :   -14.1031409153512     
           6 :    10.6217485977657     
           7 :   -8.83522517338324     
           8 :    7.21319986116696     
           9 :   -5.29133197614609     
          10 :    3.59640333353230     
          11 :   -2.76315615100766     
          12 :    2.78501252625729     
          13 :   -3.03503497991175     
          14 :    2.88686934891884     
          15 :   -2.25089908558500     
          16 :    1.53590376339846     
          17 :   -1.16251561734347     
          18 :    1.15055766697053     
          19 :   -1.16016386957244     
          20 :   0.879365550277520     
          21 :  -0.333554095626774     
          22 :  -0.173323815999559     
          23 :   0.380848857957560     
          24 :  -0.315239472847978     
          25 :   0.228516393207926     
          26 :  -0.327561957705065     
          27 :   0.577758204254486     
          28 :  -0.763897143294514     
          29 :   0.722050436599609     
          30 :  -0.500565055900061     
          31 :   -7.07908713150429     
          32 :   -5.17354510156375     

     Forces acting on atoms (Ry/au):


     negative rho (up, down):  4.227E-04 0.000E+00
     atom    1 type  1   force =     0.00198210    0.00114439   -0.00016375
     atom    2 type  1   force =    -0.00198206    0.00114436   -0.00016383
     atom    3 type  1   force =     0.00000006   -0.00228887   -0.00016366
     atom    4 type  1   force =     0.00000000    0.00000001   -0.00307866
     atom    5 type  1   force =    -0.00000004   -0.00304867    0.00535917
     atom    6 type  1   force =     0.00000001    0.00000003    0.00408252
     atom    7 type  1   force =     0.00264032    0.00152441    0.00535921
     atom    8 type  1   force =    -0.00264033    0.00152432    0.00535936
     atom    9 type  1   force =    -0.00000001   -0.00000009   -0.01589228
     atom   10 type  1   force =     0.00000002   -0.00974767    0.02263888
     atom   11 type  1   force =    -0.00844178    0.00487390    0.02263870
     atom   12 type  1   force =     0.00844188    0.00487393    0.02263863
     atom   13 type  2   force =    -0.00000018   -0.00000008   -0.01877339
     atom   14 type  3   force =     0.00000000    0.00000003   -0.04984089

     Total force =     0.070084     Total SCF correction =     0.000778


     entering subroutine stress ...


     negative rho (up, down):  4.227E-04 0.000E+00
          total   stress  (Ry/bohr**3)                   (kbar)     P=   -8.30
  -0.00004923   0.00000000   0.00000000         -7.24      0.00      0.00
   0.00000000  -0.00004923  -0.00000000          0.00     -7.24     -0.00
   0.00000000  -0.00000000  -0.00007075          0.00     -0.00    -10.41


     number of scf cycles    =   2
     number of bfgs steps    =   1

     energy   old            =     -95.1411698449 Ry
     energy   new            =     -95.1481234921 Ry

     CASE: energy  _new < energy  _old

     new trust radius        =       0.1180526188 bohr
     new conv_thr            =       0.0000001000 Ry


ATOMIC_POSITIONS (crystal)
Al1      0.166666667   0.166666667   0.405843214    0   0   0
Al1      0.666666667   0.166666667   0.405843214    0   0   0
Al1      0.166666667   0.666666667   0.405843214    0   0   0
Al1      0.666666667   0.666666667   0.405843214    0   0   0
Al1      0.833333333   0.333333333   0.500000000    0   0   0
Al1      0.333333333   0.333333333   0.500000000    0   0   0
Al1      0.833333333   0.833333333   0.500000000    0   0   0
Al1      0.333333333   0.833333333   0.500000000    0   0   0
Al1     -0.000000013   0.000000022   0.592815073
Al1      0.501327123  -0.002654356   0.596425360
Al1     -0.002654278   0.501327165   0.596425369
Al1      0.501327091   0.501327181   0.596425379
C1       0.333333346   0.333333371   0.641887812
H1       0.333333325   0.333333369   0.688302465



     Writing output data file calc.save
     Check: negative starting charge=   -0.000163
     NEW-OLD atomic charge density approx. for the potential
     Check: negative starting charge=   -0.000163

     negative rho (up, down):  4.449E-04 0.000E+00
 
     Adding external electric field

     Computed dipole along edir(3) : 
        Dipole               -0.0284 Ry au,         -0.0721 Debye
        Dipole field         -0.0001 Ry au
 
        Potential amp.        0.0070 Ry
        Total length         45.3989 bohr
 

     total cpu time spent up to now is      253.6 secs

     per-process dynamical memory:    59.9 Mb

     Self-consistent Calculation

     iteration #  1     ecut=    36.75 Ry     beta=0.30
     Davidson diagonalization with overlap
     ethr =  1.00E-06,  avg # of iterations =  7.2

     negative rho (up, down):  4.079E-04 0.000E+00
 
     Adding external electric field

     Computed dipole along edir(3) : 
        Dipole               -0.1622 Ry au,         -0.4123 Debye
        Dipole field         -0.0004 Ry au
 
        Potential amp.        0.0398 Ry
        Total length         45.3989 bohr
 

     total cpu time spent up to now is      262.9 secs

     total energy              =     -95.15628056 Ry
     Harris-Foulkes estimate   =     -95.15962563 Ry
     estimated scf accuracy    <       0.00848937 Ry

     iteration #  2     ecut=    36.75 Ry     beta=0.30
     Davidson diagonalization with overlap
     ethr =  2.07E-05,  avg # of iterations =  3.3

     negative rho (up, down):  4.275E-04 0.000E+00
 
     Adding external electric field

     Computed dipole along edir(3) : 
        Dipole                0.0056 Ry au,          0.0143 Debye
        Dipole field          0.0000 Ry au
 
        Potential amp.       -0.0014 Ry
        Total length         45.3989 bohr
 

     total cpu time spent up to now is      269.5 secs

     total energy              =     -95.15122509 Ry
     Harris-Foulkes estimate   =     -95.16391643 Ry
     estimated scf accuracy    <       0.15461361 Ry

     iteration #  3     ecut=    36.75 Ry     beta=0.30
     Davidson diagonalization with overlap
     ethr =  2.07E-05,  avg # of iterations =  3.5

     negative rho (up, down):  4.247E-04 0.000E+00
 
     Adding external electric field

     Computed dipole along edir(3) : 
        Dipole               -0.0133 Ry au,         -0.0338 Debye
        Dipole field         -0.0000 Ry au
 
        Potential amp.        0.0033 Ry
        Total length         45.3989 bohr
 

     total cpu time spent up to now is      276.2 secs

     total energy              =     -95.15800605 Ry
     Harris-Foulkes estimate   =     -95.15863924 Ry
     estimated scf accuracy    <       0.00674055 Ry

     iteration #  4     ecut=    36.75 Ry     beta=0.30
     Davidson diagonalization with overlap
     ethr =  1.64E-05,  avg # of iterations =  1.1

     negative rho (up, down):  4.214E-04 0.000E+00
 
     Adding external electric field

     Computed dipole along edir(3) : 
        Dipole               -0.0121 Ry au,         -0.0308 Debye
        Dipole field         -0.0000 Ry au
 
        Potential amp.        0.0030 Ry
        Total length         45.3989 bohr
 

     total cpu time spent up to now is      282.3 secs

     total energy              =     -95.15828226 Ry
     Harris-Foulkes estimate   =     -95.15837447 Ry
     estimated scf accuracy    <       0.00049385 Ry

     iteration #  5     ecut=    36.75 Ry     beta=0.30
     Davidson diagonalization with overlap
     ethr =  1.20E-06,  avg # of iterations =  2.1

     negative rho (up, down):  4.198E-04 0.000E+00
 
     Adding external electric field

     Computed dipole along edir(3) : 
        Dipole               -0.0139 Ry au,         -0.0352 Debye
        Dipole field         -0.0000 Ry au
 
        Potential amp.        0.0034 Ry
        Total length         45.3989 bohr
 

     total cpu time spent up to now is      288.5 secs

     total energy              =     -95.15835484 Ry
     Harris-Foulkes estimate   =     -95.15834642 Ry
     estimated scf accuracy    <       0.00008993 Ry

     iteration #  6     ecut=    36.75 Ry     beta=0.30
     Davidson diagonalization with overlap
     ethr =  2.19E-07,  avg # of iterations =  2.0

     negative rho (up, down):  4.256E-04 0.000E+00
 
     Adding external electric field

     Computed dipole along edir(3) : 
        Dipole               -0.0182 Ry au,         -0.0462 Debye
        Dipole field         -0.0000 Ry au
 
        Potential amp.        0.0045 Ry
        Total length         45.3989 bohr
 

     total cpu time spent up to now is      294.7 secs

     total energy              =     -95.15836946 Ry
     Harris-Foulkes estimate   =     -95.15836190 Ry
     estimated scf accuracy    <       0.00001655 Ry

     iteration #  7     ecut=    36.75 Ry     beta=0.30
     Davidson diagonalization with overlap
     ethr =  4.04E-08,  avg # of iterations =  2.0

     negative rho (up, down):  4.300E-04 0.000E+00
 
     Adding external electric field

     Computed dipole along edir(3) : 
        Dipole               -0.0191 Ry au,         -0.0486 Debye
        Dipole field         -0.0001 Ry au
 
        Potential amp.        0.0047 Ry
        Total length         45.3989 bohr
 

     total cpu time spent up to now is      300.9 secs

     total energy              =     -95.15837149 Ry
     Harris-Foulkes estimate   =     -95.15837110 Ry
     estimated scf accuracy    <       0.00000319 Ry

     iteration #  8     ecut=    36.75 Ry     beta=0.30
     Davidson diagonalization with overlap
     ethr =  7.79E-09,  avg # of iterations =  2.5

     negative rho (up, down):  4.314E-04 0.000E+00
 
     Adding external electric field

     Computed dipole along edir(3) : 
        Dipole               -0.0194 Ry au,         -0.0493 Debye
        Dipole field         -0.0001 Ry au
 
        Potential amp.        0.0048 Ry
        Total length         45.3989 bohr
 

     total cpu time spent up to now is      307.4 secs

     total energy              =     -95.15837214 Ry
     Harris-Foulkes estimate   =     -95.15837256 Ry
     estimated scf accuracy    <       0.00000220 Ry

     iteration #  9     ecut=    36.75 Ry     beta=0.30
     Davidson diagonalization with overlap
     ethr =  5.37E-09,  avg # of iterations =  2.0

     negative rho (up, down):  4.367E-04 0.000E+00

     negative rho (up, down):  4.367E-04 0.000E+00

     negative rho (up, down):  4.367E-04 0.000E+00

     negative rho (up, down):  4.367E-04 0.000E+00

     negative rho (up, down):  4.367E-04 0.000E+00

     negative rho (up, down):  4.367E-04 0.000E+00

     negative rho (up, down):  4.367E-04 0.000E+00

     negative rho (up, down):  4.367E-04 0.000E+00

     negative rho (up, down):  4.367E-04 0.000E+00

     negative rho (up, down):  4.367E-04 0.000E+00

     negative rho (up, down):  4.367E-04 0.000E+00

     negative rho (up, down):  4.367E-04 0.000E+00

     negative rho (up, down):  4.367E-04 0.000E+00

     negative rho (up, down):  4.367E-04 0.000E+00

     negative rho (up, down):  4.367E-04 0.000E+00

     negative rho (up, down):  4.367E-04 0.000E+00

     negative rho (up, down):  4.367E-04 0.000E+00

     negative rho (up, down):  4.367E-04 0.000E+00

     negative rho (up, down):  4.367E-04 0.000E+00

     negative rho (up, down):  4.367E-04 0.000E+00

     negative rho (up, down):  4.367E-04 0.000E+00

     negative rho (up, down):  4.367E-04 0.000E+00

     negative rho (up, down):  4.367E-04 0.000E+00

     negative rho (up, down):  4.367E-04 0.000E+00

     negative rho (up, down):  4.367E-04 0.000E+00

     negative rho (up, down):  4.367E-04 0.000E+00

     negative rho (up, down):  4.367E-04 0.000E+00

     negative rho (up, down):  4.367E-04 0.000E+00

     negative rho (up, down):  4.367E-04 0.000E+00

     negative rho (up, down):  4.367E-04 0.000E+00

     negative rho (up, down):  4.367E-04 0.000E+00

     negative rho (up, down):  4.367E-04 0.000E+00

     negative rho (up, down):  4.367E-04 0.000E+00

     negative rho (up, down):  4.367E-04 0.000E+00

     negative rho (up, down):  4.367E-04 0.000E+00
 
     Adding external electric field

     Computed dipole along edir(3) : 
        Dipole               -0.0188 Ry au,         -0.0477 Debye
        Dipole field         -0.0001 Ry au
 
        Potential amp.        0.0046 Ry
        Total length         45.3989 bohr
 

     total cpu time spent up to now is      360.3 secs

     End of self-consistent calculation

          k = 0.0000 0.0000 0.0000 ( 17579 PWs)   bands (ev):

   -12.5615 -11.0167  -9.2022  -6.8616  -6.0581  -5.4673  -5.4673  -5.3227
    -5.2336  -5.2336  -4.7691  -4.3061  -4.3061  -3.9236  -3.9236  -3.6340
    -3.3624  -2.2816  -2.2816  -2.1512  -1.0733  -0.8210  -0.8210  -0.0119
     0.5418   0.5418   0.9792   1.9743   2.0049   2.0049

          k = 0.0000 0.0339 0.0000 ( 17522 PWs)   bands (ev):

   -12.5181 -10.8713  -9.0811  -7.1461  -6.7505  -6.3069  -6.1490  -5.8014
    -5.1209  -4.8870  -4.4156  -4.1743  -3.8288  -3.6073  -3.4587  -3.3164
    -2.8997  -2.1753  -2.1218  -1.9422  -0.7895  -0.6021  -0.5184   0.1573
     0.6293   0.6909   0.8678   1.9700   2.2257   2.2648

          k = 0.0000 0.0677 0.0000 ( 17510 PWs)   bands (ev):

   -12.4297 -10.4253  -8.7431  -8.4959  -7.1021  -6.6836  -6.6298  -6.3383
    -5.5138  -5.2912  -4.6017  -3.8911  -3.4125  -3.0354  -2.8209  -2.6264
    -2.1286  -1.5516  -1.4720  -0.8423  -0.3094  -0.2392   0.0835   0.6226
     0.9001   0.9975   1.1223   1.6867   1.7641   2.2850

          k = 0.0000-0.1016 0.0000 ( 17464 PWs)   bands (ev):

   -12.3848  -9.7373  -9.5673  -8.1392  -7.9015  -6.8529  -6.7914  -6.0275
    -5.6566  -5.4375  -5.1963  -3.5554  -3.4607  -3.1288  -2.3724  -1.7652
    -1.4952  -1.0041  -0.9194  -0.7051  -0.3871  -0.3214   0.4471   0.6040
     1.0272   1.0605   1.2275   1.6610   2.0583   2.1213

          k = 0.0293-0.0169 0.0000 ( 17522 PWs)   bands (ev):

   -12.5181 -10.8713  -9.0811  -7.1461  -6.7505  -6.3069  -6.1490  -5.8014
    -5.1209  -4.8870  -4.4156  -4.1743  -3.8288  -3.6073  -3.4587  -3.3164
    -2.8997  -2.1753  -2.1218  -1.9422  -0.7895  -0.6021  -0.5184   0.1573
     0.6293   0.6909   0.8678   1.9700   2.2257   2.2648

          k = 0.0293 0.0169 0.0000 ( 17522 PWs)   bands (ev):

   -12.5181 -10.8713  -9.0811  -7.1461  -6.7505  -6.3069  -6.1490  -5.8014
    -5.1209  -4.8870  -4.4156  -4.1743  -3.8288  -3.6073  -3.4587  -3.3164
    -2.8997  -2.1753  -2.1218  -1.9422  -0.7895  -0.6021  -0.5184   0.1573
     0.6293   0.6909   0.8678   1.9700   2.2257   2.2648

          k = 0.0293 0.0508 0.0000 ( 17513 PWs)   bands (ev):

   -12.4523 -10.5751  -8.8354  -7.7549  -7.7411  -6.6444  -6.3823  -6.1942
    -5.0645  -4.9395  -4.4093  -4.0659  -3.9757  -3.3005  -3.2495  -2.4961
    -2.1160  -1.6474  -1.5189  -1.4353  -0.4977  -0.3305  -0.1657   0.3673
     0.6922   0.9534   1.3565   1.7382   2.2984   2.3703

          k = 0.0293-0.1185 0.0000 ( 17495 PWs)   bands (ev):

   -12.3860  -9.9685  -9.0209  -8.3067  -8.0535  -7.4680  -6.6611  -6.0257
    -5.3896  -5.0545  -4.4391  -4.0580  -3.4303  -2.9945  -2.6175  -2.4015
    -1.7881  -1.4728  -0.9974  -0.8716  -0.2819   0.2175   0.5599   0.7465
     1.0614   1.1968   1.5520   1.7695   1.9769   2.2040

          k = 0.0293-0.0847 0.0000 ( 17495 PWs)   bands (ev):

   -12.3860  -9.9685  -9.0209  -8.3067  -8.0535  -7.4680  -6.6611  -6.0257
    -5.3896  -5.0545  -4.4391  -4.0580  -3.4303  -2.9945  -2.6175  -2.4015
    -1.7881  -1.4728  -0.9974  -0.8716  -0.2819   0.2175   0.5599   0.7465
     1.0614   1.1968   1.5520   1.7695   1.9769   2.2040

          k = 0.0293-0.0508 0.0000 ( 17513 PWs)   bands (ev):

   -12.4523 -10.5751  -8.8354  -7.7549  -7.7411  -6.6444  -6.3823  -6.1942
    -5.0645  -4.9395  -4.4093  -4.0659  -3.9757  -3.3005  -3.2495  -2.4961
    -2.1160  -1.6474  -1.5189  -1.4353  -0.4977  -0.3305  -0.1657   0.3673
     0.6922   0.9534   1.3565   1.7382   2.2984   2.3703

          k = 0.0587-0.0339 0.0000 ( 17510 PWs)   bands (ev):

   -12.4297 -10.4253  -8.7431  -8.4959  -7.1021  -6.6836  -6.6298  -6.3383
    -5.5138  -5.2912  -4.6017  -3.8911  -3.4125  -3.0354  -2.8209  -2.6264
    -2.1286  -1.5516  -1.4720  -0.8423  -0.3094  -0.2392   0.0835   0.6226
     0.9001   0.9975   1.1223   1.6867   1.7641   2.2850

          k = 0.0587 0.0000 0.0000 ( 17513 PWs)   bands (ev):

   -12.4523 -10.5751  -8.8354  -7.7549  -7.7411  -6.6444  -6.3823  -6.1942
    -5.0645  -4.9395  -4.4093  -4.0659  -3.9757  -3.3005  -3.2495  -2.4961
    -2.1160  -1.6474  -1.5189  -1.4353  -0.4977  -0.3305  -0.1657   0.3673
     0.6922   0.9534   1.3565   1.7382   2.2984   2.3703

          k = 0.0587 0.0339 0.0000 ( 17510 PWs)   bands (ev):

   -12.4297 -10.4253  -8.7431  -8.4959  -7.1021  -6.6836  -6.6298  -6.3383
    -5.5138  -5.2912  -4.6017  -3.8911  -3.4125  -3.0354  -2.8209  -2.6264
    -2.1286  -1.5516  -1.4720  -0.8423  -0.3094  -0.2392   0.0835   0.6226
     0.9001   0.9975   1.1223   1.6867   1.7641   2.2850

          k = 0.0587-0.1355 0.0000 ( 17495 PWs)   bands (ev):

   -12.3860  -9.9685  -9.0209  -8.3067  -8.0535  -7.4680  -6.6611  -6.0257
    -5.3896  -5.0545  -4.4391  -4.0580  -3.4303  -2.9945  -2.6175  -2.4015
    -1.7881  -1.4728  -0.9974  -0.8716  -0.2819   0.2175   0.5599   0.7465
     1.0614   1.1968   1.5520   1.7695   1.9769   2.2040

          k = 0.0587-0.1016 0.0000 ( 17442 PWs)   bands (ev):

   -12.3650  -9.2456  -9.2256  -9.0597  -7.6504  -7.6421  -7.5399  -5.7010
    -5.2159  -5.2007  -3.6402  -3.5838  -3.5037  -2.8769  -2.8649  -2.8185
    -1.9649  -1.7387  -1.5802  -0.8412  -0.2512   0.3511   1.1334   1.3624
     1.6685   1.9636   2.2351   2.2494   2.3834   2.4058

          k = 0.0587-0.0677 0.0000 ( 17495 PWs)   bands (ev):

   -12.3860  -9.9685  -9.0209  -8.3067  -8.0535  -7.4680  -6.6611  -6.0257
    -5.3896  -5.0545  -4.4391  -4.0580  -3.4303  -2.9945  -2.6175  -2.4015
    -1.7881  -1.4728  -0.9974  -0.8716  -0.2819   0.2175   0.5599   0.7465
     1.0614   1.1968   1.5520   1.7695   1.9769   2.2040

          k =-0.0880 0.0508 0.0000 ( 17464 PWs)   bands (ev):

   -12.3848  -9.7373  -9.5673  -8.1392  -7.9015  -6.8529  -6.7914  -6.0275
    -5.6566  -5.4375  -5.1963  -3.5554  -3.4607  -3.1288  -2.3724  -1.7652
    -1.4952  -1.0041  -0.9194  -0.7051  -0.3871  -0.3214   0.4471   0.6040
     1.0272   1.0605   1.2275   1.6610   2.0583   2.1213

          k =-0.0880 0.0847 0.0000 ( 17495 PWs)   bands (ev):

   -12.3860  -9.9685  -9.0209  -8.3067  -8.0535  -7.4680  -6.6611  -6.0257
    -5.3896  -5.0545  -4.4391  -4.0580  -3.4303  -2.9945  -2.6175  -2.4015
    -1.7881  -1.4728  -0.9974  -0.8716  -0.2819   0.2175   0.5599   0.7465
     1.0614   1.1968   1.5520   1.7695   1.9769   2.2040

          k =-0.0880 0.1185 0.0000 ( 17495 PWs)   bands (ev):

   -12.3860  -9.9685  -9.0209  -8.3067  -8.0535  -7.4680  -6.6611  -6.0257
    -5.3896  -5.0545  -4.4391  -4.0580  -3.4303  -2.9945  -2.6175  -2.4015
    -1.7881  -1.4728  -0.9974  -0.8716  -0.2819   0.2175   0.5599   0.7465
     1.0614   1.1968   1.5520   1.7695   1.9769   2.2040

          k =-0.0880-0.0508 0.0000 ( 17464 PWs)   bands (ev):

   -12.3848  -9.7373  -9.5673  -8.1392  -7.9015  -6.8529  -6.7914  -6.0275
    -5.6566  -5.4375  -5.1963  -3.5554  -3.4607  -3.1288  -2.3724  -1.7652
    -1.4952  -1.0041  -0.9194  -0.7051  -0.3871  -0.3214   0.4471   0.6040
     1.0272   1.0605   1.2275   1.6610   2.0583   2.1213

     the Fermi energy is    -0.5606 ev

!    total energy              =     -95.15837247 Ry
     Harris-Foulkes estimate   =     -95.15837242 Ry
     estimated scf accuracy    <       0.00000008 Ry

     The total energy is the sum of the following terms:

     one-electron contribution =    -744.07929236 Ry
     hartree contribution      =     380.56516434 Ry
     xc contribution           =     -57.65035031 Ry
     ewald contribution        =     326.03592835 Ry
     electric field correction =       0.00000095 Ry
     smearing contrib. (-TS)   =      -0.02982343 Ry

     convergence has been achieved in   9 iterations
 
 BEEF-vdW xc energy contributions
           1 :   -47.3579987107309     
           2 :    40.7030084638310     
           3 :   -30.5018825085499     
           4 :    20.7779564857957     
           5 :   -14.0856883650659     
           6 :    10.5719738145684     
           7 :   -8.75413135585074     
           8 :    7.11151950847258     
           9 :   -5.18555925157522     
          10 :    3.49946030231352     
          11 :   -2.67692663193454     
          12 :    2.70201057187682     
          13 :   -2.94793479165622     
          14 :    2.79689757114115     
          15 :   -2.16746838794733     
          16 :    1.46768577288760     
          17 :   -1.10882599882339     
          18 :    1.10256838565539     
          19 :   -1.11031394388698     
          20 :   0.828851314800993     
          21 :  -0.290943650061685     
          22 :  -0.200135533650553     
          23 :   0.390947722021352     
          24 :  -0.313573306533222     
          25 :   0.219553819722883     
          26 :  -0.310929734498416     
          27 :   0.550533656469618     
          28 :  -0.726288527289945     
          29 :   0.679422541354363     
          30 :  -0.459529145015715     
          31 :   -7.08108235650875     
          32 :   -5.17411996560532     

     Forces acting on atoms (Ry/au):


     negative rho (up, down):  4.367E-04 0.000E+00
     atom    1 type  1   force =     0.00245804    0.00141915   -0.00006915
     atom    2 type  1   force =    -0.00245804    0.00141914   -0.00006915
     atom    3 type  1   force =     0.00000000   -0.00283827   -0.00006914
     atom    4 type  1   force =    -0.00000001    0.00000002   -0.00301776
     atom    5 type  1   force =    -0.00000001   -0.00151857    0.00775676
     atom    6 type  1   force =     0.00000000   -0.00000000    0.00462956
     atom    7 type  1   force =     0.00131514    0.00075929    0.00775674
     atom    8 type  1   force =    -0.00131514    0.00075928    0.00775672
     atom    9 type  1   force =    -0.00000003    0.00000002   -0.01456549
     atom   10 type  1   force =     0.00000005   -0.01914956    0.00721514
     atom   11 type  1   force =    -0.01658423    0.00957486    0.00721500
     atom   12 type  1   force =     0.01658430    0.00957487    0.00721492
     atom   13 type  2   force =    -0.00000008   -0.00000018    0.02315153
     atom   14 type  3   force =     0.00000000   -0.00000002   -0.05490568

     Total force =     0.070846     Total SCF correction =     0.000175


     entering subroutine stress ...


     negative rho (up, down):  4.367E-04 0.000E+00
          total   stress  (Ry/bohr**3)                   (kbar)     P=   -7.01
  -0.00004135   0.00000000  -0.00000000         -6.08      0.00     -0.00
   0.00000000  -0.00004135  -0.00000000          0.00     -6.08     -0.00
  -0.00000000  -0.00000000  -0.00006034         -0.00     -0.00     -8.88


     number of scf cycles    =   3
     number of bfgs steps    =   2

     energy   old            =     -95.1481234921 Ry
     energy   new            =     -95.1583724670 Ry

     CASE: energy  _new < energy  _old

     new trust radius        =       0.1596950091 bohr
     new conv_thr            =       0.0000001000 Ry


ATOMIC_POSITIONS (crystal)
Al1      0.166666667   0.166666667   0.405843214    0   0   0
Al1      0.666666667   0.166666667   0.405843214    0   0   0
Al1      0.166666667   0.666666667   0.405843214    0   0   0
Al1      0.666666667   0.666666667   0.405843214    0   0   0
Al1      0.833333333   0.333333333   0.500000000    0   0   0
Al1      0.333333333   0.333333333   0.500000000    0   0   0
Al1      0.833333333   0.833333333   0.500000000    0   0   0
Al1      0.333333333   0.833333333   0.500000000    0   0   0
Al1     -0.000000034   0.000000053   0.591357053
Al1      0.503965805  -0.007931803   0.598263979
Al1     -0.007931697   0.503965887   0.598263994
Al1      0.503965773   0.503965915   0.598264011
C1       0.333333372   0.333333375   0.639494319
H1       0.333333321   0.333333393   0.684872807



     Writing output data file calc.save
     Check: negative starting charge=   -0.000163
     NEW-OLD atomic charge density approx. for the potential
     Check: negative starting charge=   -0.000166

     negative rho (up, down):  5.398E-04 0.000E+00
 
     Adding external electric field

     Computed dipole along edir(3) : 
        Dipole               -0.0183 Ry au,         -0.0465 Debye
        Dipole field         -0.0000 Ry au
 
        Potential amp.        0.0045 Ry
        Total length         45.3989 bohr
 

     total cpu time spent up to now is      385.0 secs

     per-process dynamical memory:    59.9 Mb

     Self-consistent Calculation

     iteration #  1     ecut=    36.75 Ry     beta=0.30
     Davidson diagonalization with overlap
     ethr =  1.00E-06,  avg # of iterations =  7.3

     negative rho (up, down):  4.407E-04 0.000E+00
 
     Adding external electric field

     Computed dipole along edir(3) : 
        Dipole               -0.0131 Ry au,         -0.0334 Debye
        Dipole field         -0.0000 Ry au
 
        Potential amp.        0.0032 Ry
        Total length         45.3989 bohr
 

     total cpu time spent up to now is      394.3 secs

     total energy              =     -95.16516191 Ry
     Harris-Foulkes estimate   =     -95.16733760 Ry
     estimated scf accuracy    <       0.00648617 Ry

     iteration #  2     ecut=    36.75 Ry     beta=0.30
     Davidson diagonalization with overlap
     ethr =  1.58E-05,  avg # of iterations =  2.0

     negative rho (up, down):  4.224E-04 0.000E+00
 
     Adding external electric field

     Computed dipole along edir(3) : 
        Dipole                0.0748 Ry au,          0.1902 Debye
        Dipole field          0.0002 Ry au
 
        Potential amp.       -0.0184 Ry
        Total length         45.3989 bohr
 

     total cpu time spent up to now is      400.6 secs

     total energy              =     -95.16532457 Ry
     Harris-Foulkes estimate   =     -95.16631917 Ry
     estimated scf accuracy    <       0.00364791 Ry

     iteration #  3     ecut=    36.75 Ry     beta=0.30
     Davidson diagonalization with overlap
     ethr =  8.90E-06,  avg # of iterations =  3.1

     negative rho (up, down):  4.363E-04 0.000E+00
 
     Adding external electric field

     Computed dipole along edir(3) : 
        Dipole                0.0015 Ry au,          0.0038 Debye
        Dipole field          0.0000 Ry au
 
        Potential amp.       -0.0004 Ry
        Total length         45.3989 bohr
 

     total cpu time spent up to now is      407.2 secs

     total energy              =     -95.16461997 Ry
     Harris-Foulkes estimate   =     -95.16724692 Ry
     estimated scf accuracy    <       0.03239039 Ry

     iteration #  4     ecut=    36.75 Ry     beta=0.30
     Davidson diagonalization with overlap
     ethr =  8.90E-06,  avg # of iterations =  2.9

     negative rho (up, down):  4.321E-04 0.000E+00
 
     Adding external electric field

     Computed dipole along edir(3) : 
        Dipole                0.0166 Ry au,          0.0422 Debye
        Dipole field          0.0000 Ry au
 
        Potential amp.       -0.0041 Ry
        Total length         45.3989 bohr
 

     total cpu time spent up to now is      413.6 secs

     total energy              =     -95.16596003 Ry
     Harris-Foulkes estimate   =     -95.16616028 Ry
     estimated scf accuracy    <       0.00178554 Ry

     iteration #  5     ecut=    36.75 Ry     beta=0.30
     Davidson diagonalization with overlap
     ethr =  4.35E-06,  avg # of iterations =  1.4

     negative rho (up, down):  4.327E-04 0.000E+00
 
     Adding external electric field

     Computed dipole along edir(3) : 
        Dipole                0.0160 Ry au,          0.0406 Debye
        Dipole field          0.0000 Ry au
 
        Potential amp.       -0.0039 Ry
        Total length         45.3989 bohr
 

     total cpu time spent up to now is      419.6 secs

     total energy              =     -95.16609350 Ry
     Harris-Foulkes estimate   =     -95.16607873 Ry
     estimated scf accuracy    <       0.00013111 Ry

     iteration #  6     ecut=    36.75 Ry     beta=0.30
     Davidson diagonalization with overlap
     ethr =  3.20E-07,  avg # of iterations =  2.0

     negative rho (up, down):  4.425E-04 0.000E+00
 
     Adding external electric field

     Computed dipole along edir(3) : 
        Dipole                0.0117 Ry au,          0.0297 Debye
        Dipole field          0.0000 Ry au
 
        Potential amp.       -0.0029 Ry
        Total length         45.3989 bohr
 

     total cpu time spent up to now is      425.9 secs

     total energy              =     -95.16611162 Ry
     Harris-Foulkes estimate   =     -95.16610474 Ry
     estimated scf accuracy    <       0.00002072 Ry

     iteration #  7     ecut=    36.75 Ry     beta=0.30
     Davidson diagonalization with overlap
     ethr =  5.05E-08,  avg # of iterations =  2.1

     negative rho (up, down):  4.476E-04 0.000E+00
 
     Adding external electric field

     Computed dipole along edir(3) : 
        Dipole                0.0107 Ry au,          0.0272 Debye
        Dipole field          0.0000 Ry au
 
        Potential amp.       -0.0026 Ry
        Total length         45.3989 bohr
 

     total cpu time spent up to now is      432.1 secs

     total energy              =     -95.16611432 Ry
     Harris-Foulkes estimate   =     -95.16611381 Ry
     estimated scf accuracy    <       0.00000266 Ry

     iteration #  8     ecut=    36.75 Ry     beta=0.30
     Davidson diagonalization with overlap
     ethr =  6.49E-09,  avg # of iterations =  2.2

     negative rho (up, down):  4.501E-04 0.000E+00
 
     Adding external electric field

     Computed dipole along edir(3) : 
        Dipole                0.0106 Ry au,          0.0269 Debye
        Dipole field          0.0000 Ry au
 
        Potential amp.       -0.0026 Ry
        Total length         45.3989 bohr
 

     total cpu time spent up to now is      438.5 secs

     total energy              =     -95.16611478 Ry
     Harris-Foulkes estimate   =     -95.16611494 Ry
     estimated scf accuracy    <       0.00000052 Ry

     iteration #  9     ecut=    36.75 Ry     beta=0.30
     Davidson diagonalization with overlap
     ethr =  1.27E-09,  avg # of iterations =  2.0

     negative rho (up, down):  4.584E-04 0.000E+00

     negative rho (up, down):  4.584E-04 0.000E+00

     negative rho (up, down):  4.584E-04 0.000E+00

     negative rho (up, down):  4.584E-04 0.000E+00

     negative rho (up, down):  4.584E-04 0.000E+00

     negative rho (up, down):  4.584E-04 0.000E+00

     negative rho (up, down):  4.584E-04 0.000E+00

     negative rho (up, down):  4.584E-04 0.000E+00

     negative rho (up, down):  4.584E-04 0.000E+00

     negative rho (up, down):  4.584E-04 0.000E+00

     negative rho (up, down):  4.584E-04 0.000E+00

     negative rho (up, down):  4.584E-04 0.000E+00

     negative rho (up, down):  4.584E-04 0.000E+00

     negative rho (up, down):  4.584E-04 0.000E+00

     negative rho (up, down):  4.584E-04 0.000E+00

     negative rho (up, down):  4.584E-04 0.000E+00

     negative rho (up, down):  4.584E-04 0.000E+00

     negative rho (up, down):  4.584E-04 0.000E+00

     negative rho (up, down):  4.584E-04 0.000E+00

     negative rho (up, down):  4.584E-04 0.000E+00

     negative rho (up, down):  4.584E-04 0.000E+00

     negative rho (up, down):  4.584E-04 0.000E+00

     negative rho (up, down):  4.584E-04 0.000E+00

     negative rho (up, down):  4.584E-04 0.000E+00

     negative rho (up, down):  4.584E-04 0.000E+00

     negative rho (up, down):  4.584E-04 0.000E+00

     negative rho (up, down):  4.584E-04 0.000E+00

     negative rho (up, down):  4.584E-04 0.000E+00

     negative rho (up, down):  4.584E-04 0.000E+00

     negative rho (up, down):  4.584E-04 0.000E+00

     negative rho (up, down):  4.584E-04 0.000E+00

     negative rho (up, down):  4.584E-04 0.000E+00

     negative rho (up, down):  4.584E-04 0.000E+00

     negative rho (up, down):  4.584E-04 0.000E+00

     negative rho (up, down):  4.584E-04 0.000E+00
 
     Adding external electric field

     Computed dipole along edir(3) : 
        Dipole                0.0107 Ry au,          0.0273 Debye
        Dipole field          0.0000 Ry au
 
        Potential amp.       -0.0026 Ry
        Total length         45.3989 bohr
 

     total cpu time spent up to now is      491.4 secs

     End of self-consistent calculation

          k = 0.0000 0.0000 0.0000 ( 17579 PWs)   bands (ev):

   -12.7105 -10.9714  -9.1592  -6.8333  -6.0675  -5.4254  -5.4254  -5.3002
    -5.1780  -5.1780  -4.7099  -4.3619  -4.3619  -3.8943  -3.8943  -3.6046
    -3.3329  -2.2249  -2.2249  -2.0271  -1.0951  -0.8119  -0.8119   0.0310
     0.6180   0.6180   1.1001   1.9565   2.0031   2.0031

          k = 0.0000 0.0339 0.0000 ( 17522 PWs)   bands (ev):

   -12.6722 -10.8227  -9.0400  -7.0916  -6.7215  -6.2948  -6.0924  -5.7801
    -5.1037  -4.9176  -4.4253  -4.1192  -3.8033  -3.5491  -3.4762  -3.2812
    -2.8810  -2.1240  -2.1015  -1.9109  -0.6944  -0.5617  -0.4361   0.1856
     0.6652   0.6952   0.8815   2.0393   2.2540   2.2635

          k = 0.0000 0.0677 0.0000 ( 17510 PWs)   bands (ev):

   -12.5941 -10.3706  -8.7133  -8.4265  -7.0755  -6.6570  -6.5703  -6.3052
    -5.5026  -5.3081  -4.5846  -3.8651  -3.4447  -3.0345  -2.7632  -2.5903
    -2.1324  -1.5104  -1.4538  -0.8049  -0.2262  -0.1344   0.1001   0.6302
     0.9376   1.0729   1.1829   1.7185   1.8145   2.3587

          k = 0.0000-0.1016 0.0000 ( 17464 PWs)   bands (ev):

   -12.5542  -9.6897  -9.4958  -8.1275  -7.8450  -6.8159  -6.7313  -5.9731
    -5.6796  -5.4512  -5.1761  -3.4843  -3.4650  -3.1821  -2.3388  -1.7734
    -1.5467  -0.9208  -0.8971  -0.6494  -0.3220  -0.2446   0.5100   0.6613
     1.0568   1.1233   1.3422   1.6839   2.0787   2.1581

          k = 0.0293-0.0169 0.0000 ( 17522 PWs)   bands (ev):

   -12.6722 -10.8227  -9.0400  -7.0916  -6.7215  -6.2948  -6.0924  -5.7801
    -5.1037  -4.9176  -4.4253  -4.1192  -3.8033  -3.5491  -3.4762  -3.2812
[...]

     iteration #  4     ecut=    36.75 Ry     beta=0.30
     Davidson diagonalization with overlap
     ethr =  7.00E-09,  avg # of iterations =  2.4

     negative rho (up, down):  4.481E-04 0.000E+00
 
     Adding external electric field

     Computed dipole along edir(3) : 
        Dipole                0.0146 Ry au,          0.0372 Debye
        Dipole field          0.0000 Ry au
 
        Potential amp.       -0.0036 Ry
        Total length         45.3989 bohr
 

     total cpu time spent up to now is     2223.0 secs

     total energy              =     -95.17150233 Ry
     Harris-Foulkes estimate   =     -95.17150239 Ry
     estimated scf accuracy    <       0.00000025 Ry

     iteration #  5     ecut=    36.75 Ry     beta=0.30
     Davidson diagonalization with overlap
     ethr =  6.02E-10,  avg # of iterations =  2.0

     negative rho (up, down):  4.478E-04 0.000E+00

     negative rho (up, down):  4.478E-04 0.000E+00

     negative rho (up, down):  4.478E-04 0.000E+00

     negative rho (up, down):  4.478E-04 0.000E+00

     negative rho (up, down):  4.478E-04 0.000E+00

     negative rho (up, down):  4.478E-04 0.000E+00

     negative rho (up, down):  4.478E-04 0.000E+00

     negative rho (up, down):  4.478E-04 0.000E+00

     negative rho (up, down):  4.478E-04 0.000E+00

     negative rho (up, down):  4.478E-04 0.000E+00

     negative rho (up, down):  4.478E-04 0.000E+00

     negative rho (up, down):  4.478E-04 0.000E+00

     negative rho (up, down):  4.478E-04 0.000E+00

     negative rho (up, down):  4.478E-04 0.000E+00

     negative rho (up, down):  4.478E-04 0.000E+00

     negative rho (up, down):  4.478E-04 0.000E+00

     negative rho (up, down):  4.478E-04 0.000E+00

     negative rho (up, down):  4.478E-04 0.000E+00

     negative rho (up, down):  4.478E-04 0.000E+00

     negative rho (up, down):  4.478E-04 0.000E+00

     negative rho (up, down):  4.478E-04 0.000E+00

     negative rho (up, down):  4.478E-04 0.000E+00

     negative rho (up, down):  4.478E-04 0.000E+00

     negative rho (up, down):  4.478E-04 0.000E+00

     negative rho (up, down):  4.478E-04 0.000E+00

     negative rho (up, down):  4.478E-04 0.000E+00

     negative rho (up, down):  4.478E-04 0.000E+00

     negative rho (up, down):  4.478E-04 0.000E+00

     negative rho (up, down):  4.478E-04 0.000E+00

     negative rho (up, down):  4.478E-04 0.000E+00

     negative rho (up, down):  4.478E-04 0.000E+00

     negative rho (up, down):  4.478E-04 0.000E+00

     negative rho (up, down):  4.478E-04 0.000E+00

     negative rho (up, down):  4.478E-04 0.000E+00

     negative rho (up, down):  4.478E-04 0.000E+00
 
     Adding external electric field

     Computed dipole along edir(3) : 
        Dipole                0.0148 Ry au,          0.0376 Debye
        Dipole field          0.0000 Ry au
 
        Potential amp.       -0.0036 Ry
        Total length         45.3989 bohr
 

     total cpu time spent up to now is     2278.4 secs

     End of self-consistent calculation

          k = 0.0000 0.0000 0.0000 ( 17579 PWs)   bands (ev):

   -12.7265 -11.0280  -9.2336  -6.7615  -6.1259  -5.4804  -5.4804  -5.4360
    -5.2976  -5.2976  -4.6874  -4.3334  -4.3334  -3.9819  -3.9819  -3.6472
    -3.3796  -2.2264  -2.2264  -1.9766  -1.1376  -0.8035  -0.8035   0.1064
     0.7324   0.7324   1.2003   1.9119   1.9915   1.9915

          k = 0.0000 0.0339 0.0000 ( 17522 PWs)   bands (ev):

   -12.6847 -10.8843  -9.1158  -7.1694  -6.6626  -6.3732  -6.1807  -5.8143
    -5.1369  -4.9130  -4.4960  -4.2415  -3.8292  -3.5549  -3.4874  -3.3028
    -2.9270  -2.1437  -2.1049  -1.9685  -0.6831  -0.5348  -0.3713   0.2572
     0.6919   0.7250   0.8896   2.0956   2.3069   2.3120

          k = 0.0000 0.0677 0.0000 ( 17510 PWs)   bands (ev):

   -12.5992 -10.4459  -8.8119  -8.4868  -7.0807  -6.7510  -6.6605  -6.2714
    -5.5127  -5.3183  -4.5887  -3.8576  -3.4587  -3.0657  -2.8555  -2.5984
    -2.1552  -1.4914  -1.4727  -0.9168  -0.2052  -0.1035   0.0965   0.6657
     0.9001   1.0519   1.1678   1.7047   1.8615   2.4343

          k = 0.0000-0.1016 0.0000 ( 17464 PWs)   bands (ev):

   -12.5555  -9.8078  -9.5504  -8.2103  -7.8606  -6.9010  -6.8216  -5.8922
    -5.6865  -5.4642  -5.2149  -3.4818  -3.4168  -3.1827  -2.3315  -1.8628
    -1.6276  -0.9975  -0.9408  -0.6835  -0.3159  -0.1953   0.4831   0.6402
     1.0475   1.1221   1.4693   1.6524   1.9906   2.2070

          k = 0.0293-0.0169 0.0000 ( 17522 PWs)   bands (ev):

   -12.6847 -10.8843  -9.1158  -7.1694  -6.6626  -6.3732  -6.1807  -5.8143
    -5.1369  -4.9130  -4.4960  -4.2415  -3.8292  -3.5549  -3.4874  -3.3028
    -2.9270  -2.1437  -2.1049  -1.9685  -0.6831  -0.5348  -0.3713   0.2572
     0.6919   0.7250   0.8896   2.0956   2.3069   2.3120

          k = 0.0293 0.0169 0.0000 ( 17522 PWs)   bands (ev):

   -12.6847 -10.8843  -9.1158  -7.1694  -6.6626  -6.3732  -6.1807  -5.8143
    -5.1369  -4.9130  -4.4960  -4.2415  -3.8292  -3.5549  -3.4874  -3.3028
    -2.9270  -2.1437  -2.1049  -1.9685  -0.6831  -0.5348  -0.3713   0.2572
     0.6919   0.7250   0.8896   2.0956   2.3069   2.3120

          k = 0.0293 0.0508 0.0000 ( 17513 PWs)   bands (ev):

   -12.6210 -10.5926  -8.8797  -7.8167  -7.7278  -6.5359  -6.4182  -6.2218
    -5.1295  -5.0044  -4.3013  -4.0791  -3.9993  -3.3428  -3.2310  -2.5885
    -2.1653  -1.6086  -1.4366  -1.3059  -0.5480  -0.3048  -0.1921   0.5565
     0.7158   1.0645   1.4188   1.8659   2.2868   2.4235

          k = 0.0293-0.1185 0.0000 ( 17495 PWs)   bands (ev):

   -12.5567 -10.0001  -9.0536  -8.3579  -8.0590  -7.4588  -6.6600  -5.9638
    -5.4252  -5.0263  -4.4399  -4.0874  -3.5009  -2.9786  -2.5864  -2.3509
    -1.8485  -1.4846  -0.9244  -0.8922  -0.2913   0.3009   0.5981   0.7910
     1.1119   1.3151   1.6434   1.8010   1.9931   2.2222

          k = 0.0293-0.0847 0.0000 ( 17495 PWs)   bands (ev):

   -12.5567 -10.0001  -9.0536  -8.3579  -8.0590  -7.4588  -6.6600  -5.9638
    -5.4252  -5.0263  -4.4399  -4.0874  -3.5009  -2.9786  -2.5864  -2.3509
    -1.8485  -1.4846  -0.9244  -0.8922  -0.2913   0.3009   0.5981   0.7910
     1.1119   1.3151   1.6434   1.8010   1.9931   2.2222

          k = 0.0293-0.0508 0.0000 ( 17513 PWs)   bands (ev):

   -12.6210 -10.5926  -8.8797  -7.8167  -7.7278  -6.5359  -6.4182  -6.2218
    -5.1295  -5.0044  -4.3013  -4.0791  -3.9993  -3.3428  -3.2310  -2.5885
    -2.1653  -1.6086  -1.4366  -1.3059  -0.5480  -0.3048  -0.1921   0.5565
     0.7158   1.0645   1.4188   1.8659   2.2868   2.4235

          k = 0.0587-0.0339 0.0000 ( 17510 PWs)   bands (ev):

   -12.5992 -10.4459  -8.8119  -8.4868  -7.0807  -6.7510  -6.6605  -6.2714
    -5.5127  -5.3183  -4.5887  -3.8576  -3.4587  -3.0657  -2.8555  -2.5984
    -2.1552  -1.4914  -1.4727  -0.9168  -0.2052  -0.1035   0.0965   0.6657
     0.9001   1.0519   1.1678   1.7047   1.8615   2.4343

          k = 0.0587 0.0000 0.0000 ( 17513 PWs)   bands (ev):

   -12.6210 -10.5926  -8.8797  -7.8167  -7.7278  -6.5359  -6.4182  -6.2218
    -5.1295  -5.0044  -4.3013  -4.0791  -3.9993  -3.3428  -3.2310  -2.5885
    -2.1653  -1.6086  -1.4366  -1.3059  -0.5480  -0.3048  -0.1921   0.5565
     0.7158   1.0645   1.4188   1.8659   2.2868   2.4235

          k = 0.0587 0.0339 0.0000 ( 17510 PWs)   bands (ev):

   -12.5992 -10.4459  -8.8119  -8.4868  -7.0807  -6.7510  -6.6605  -6.2714
    -5.5127  -5.3183  -4.5887  -3.8576  -3.4587  -3.0657  -2.8555  -2.5984
    -2.1552  -1.4914  -1.4727  -0.9168  -0.2052  -0.1035   0.0965   0.6657
     0.9001   1.0519   1.1678   1.7047   1.8615   2.4343

          k = 0.0587-0.1355 0.0000 ( 17495 PWs)   bands (ev):

   -12.5567 -10.0001  -9.0536  -8.3579  -8.0590  -7.4588  -6.6600  -5.9638
    -5.4252  -5.0263  -4.4399  -4.0874  -3.5009  -2.9786  -2.5864  -2.3509
    -1.8485  -1.4846  -0.9244  -0.8922  -0.2913   0.3009   0.5981   0.7910
     1.1119   1.3151   1.6434   1.8010   1.9931   2.2222

          k = 0.0587-0.1016 0.0000 ( 17442 PWs)   bands (ev):

   -12.5363  -9.3213  -9.2929  -9.0063  -7.7803  -7.6379  -7.4413  -5.5360
    -5.2666  -5.1988  -3.7162  -3.7133  -3.5523  -2.8830  -2.8143  -2.7561
    -1.8769  -1.7654  -1.5319  -0.8604  -0.2045   0.4943   1.1579   1.4295
     1.9151   1.9541   2.2489   2.2520   2.3850   2.4107

          k = 0.0587-0.0677 0.0000 ( 17495 PWs)   bands (ev):

   -12.5567 -10.0001  -9.0536  -8.3579  -8.0590  -7.4588  -6.6600  -5.9638
    -5.4252  -5.0263  -4.4399  -4.0874  -3.5009  -2.9786  -2.5864  -2.3509
    -1.8485  -1.4846  -0.9244  -0.8922  -0.2913   0.3009   0.5981   0.7910
     1.1119   1.3151   1.6434   1.8010   1.9931   2.2222

          k =-0.0880 0.0508 0.0000 ( 17464 PWs)   bands (ev):

   -12.5555  -9.8078  -9.5504  -8.2103  -7.8606  -6.9010  -6.8216  -5.8922
    -5.6865  -5.4642  -5.2149  -3.4818  -3.4168  -3.1827  -2.3315  -1.8628
    -1.6276  -0.9975  -0.9408  -0.6835  -0.3159  -0.1953   0.4831   0.6402
     1.0475   1.1221   1.4693   1.6524   1.9906   2.2070

          k =-0.0880 0.0847 0.0000 ( 17495 PWs)   bands (ev):

   -12.5567 -10.0001  -9.0536  -8.3579  -8.0590  -7.4588  -6.6600  -5.9638
    -5.4252  -5.0263  -4.4399  -4.0874  -3.5009  -2.9786  -2.5864  -2.3509
    -1.8485  -1.4846  -0.9244  -0.8922  -0.2913   0.3009   0.5981   0.7910
     1.1119   1.3151   1.6434   1.8010   1.9931   2.2222

          k =-0.0880 0.1185 0.0000 ( 17495 PWs)   bands (ev):

   -12.5567 -10.0001  -9.0536  -8.3579  -8.0590  -7.4588  -6.6600  -5.9638
    -5.4252  -5.0263  -4.4399  -4.0874  -3.5009  -2.9786  -2.5864  -2.3509
    -1.8485  -1.4846  -0.9244  -0.8922  -0.2913   0.3009   0.5981   0.7910
     1.1119   1.3151   1.6434   1.8010   1.9931   2.2222

          k =-0.0880-0.0508 0.0000 ( 17464 PWs)   bands (ev):

   -12.5555  -9.8078  -9.5504  -8.2103  -7.8606  -6.9010  -6.8216  -5.8922
    -5.6865  -5.4642  -5.2149  -3.4818  -3.4168  -3.1827  -2.3315  -1.8628
    -1.6276  -0.9975  -0.9408  -0.6835  -0.3159  -0.1953   0.4831   0.6402
     1.0475   1.1221   1.4693   1.6524   1.9906   2.2070

     the Fermi energy is    -0.5214 ev

!    total energy              =     -95.17150234 Ry
     Harris-Foulkes estimate   =     -95.17150235 Ry
     estimated scf accuracy    <       0.00000007 Ry

     The total energy is the sum of the following terms:

     one-electron contribution =    -756.29530055 Ry
     hartree contribution      =     386.71837464 Ry
     xc contribution           =     -57.76990646 Ry
     ewald contribution        =     332.20365880 Ry
     electric field correction =       0.00000059 Ry
     smearing contrib. (-TS)   =      -0.02832936 Ry

     convergence has been achieved in   5 iterations
 
 BEEF-vdW xc energy contributions
           1 :   -47.4699156087822     
           2 :    40.8175705873867     
           3 :   -30.6026118739276     
           4 :    20.8360712169310     
           5 :   -14.0821476210793     
           6 :    10.5130742614371     
           7 :   -8.66920340242014     
           8 :    7.03456053502938     
           9 :   -5.13564324529288     
          10 :    3.47527342898060     
          11 :   -2.66767591957820     
          12 :    2.70269602481388     
          13 :   -2.96386848142993     
          14 :    2.83353086504852     
          15 :   -2.21804907425450     
          16 :    1.51420707310628     
          17 :   -1.13739550644534     
          18 :    1.11850968912163     
          19 :   -1.13693143266689     
          20 :   0.889404614745018     
          21 :  -0.390624497275454     
          22 :  -7.453363304077243E-002
          23 :   0.253912214202231     
          24 :  -0.164673407566255     
          25 :   4.535460413416104E-002
          26 :  -0.103249924169106     
          27 :   0.321769535291828     
          28 :  -0.504783762943646     
          29 :   0.488454008146064     
          30 :  -0.300297557538386     
          31 :   -7.08934124029594     
          32 :   -5.18059547435432     

     Forces acting on atoms (Ry/au):


     negative rho (up, down):  4.478E-04 0.000E+00
     atom    1 type  1   force =     0.00342018    0.00197464   -0.00082774
     atom    2 type  1   force =    -0.00342018    0.00197464   -0.00082774
     atom    3 type  1   force =     0.00000000   -0.00394928   -0.00082774
     atom    4 type  1   force =    -0.00000000    0.00000000   -0.00291350
     atom    5 type  1   force =    -0.00000000    0.00073220    0.00304897
     atom    6 type  1   force =    -0.00000000    0.00000000   -0.00350490
     atom    7 type  1   force =    -0.00063409   -0.00036610    0.00304899
     atom    8 type  1   force =     0.00063410   -0.00036610    0.00304895
     atom    9 type  1   force =    -0.00000007    0.00000000   -0.00014086
     atom   10 type  1   force =     0.00000005   -0.00012811   -0.00008763
     atom   11 type  1   force =    -0.00011093    0.00006407   -0.00008765
     atom   12 type  1   force =     0.00011094    0.00006402   -0.00008764
     atom   13 type  2   force =    -0.00000000    0.00000002   -0.00055607
     atom   14 type  3   force =     0.00000000   -0.00000001    0.00071457

     Total force =     0.000955     Total SCF correction =     0.000158
     SCF correction compared to forces is large: reduce conv_thr to get better values


     entering subroutine stress ...


     negative rho (up, down):  4.478E-04 0.000E+00
          total   stress  (Ry/bohr**3)                   (kbar)     P=   -2.52
  -0.00002805   0.00000000  -0.00000000         -4.13      0.00     -0.00
   0.00000000  -0.00002805  -0.00000000          0.00     -4.13     -0.00
  -0.00000000  -0.00000000   0.00000472         -0.00     -0.00      0.69


     bfgs converged in  18 scf cycles and  17 bfgs steps
     (criteria: energy <  1.0E+00, force <  1.9E-03)

     End of BFGS Geometry Optimization

     Final energy   =     -95.1715023414 Ry
Begin final coordinates

ATOMIC_POSITIONS (crystal)
Al1      0.166666667   0.166666667   0.405843214    0   0   0
Al1      0.666666667   0.166666667   0.405843214    0   0   0
Al1      0.166666667   0.666666667   0.405843214    0   0   0
Al1      0.666666667   0.666666667   0.405843214    0   0   0
Al1      0.833333333   0.333333333   0.500000000    0   0   0
Al1      0.333333333   0.333333333   0.500000000    0   0   0
Al1      0.833333333   0.833333333   0.500000000    0   0   0
Al1      0.333333333   0.833333333   0.500000000    0   0   0
Al1      0.000000037   0.000000009   0.588993308
Al1      0.508873354  -0.017746756   0.595951656
Al1     -0.017746793   0.508873392   0.595951660
Al1      0.508873360   0.508873423   0.595951658
C1       0.333333331   0.333333342   0.634744453
H1       0.333333316   0.333333366   0.679262013
End final coordinates



     Writing output data file calc.save
 
     init_run     :      5.49s CPU      5.79s WALL (       1 calls)
     electrons    :   1683.49s CPU   1805.99s WALL (      18 calls)
     update_pot   :     50.40s CPU     53.24s WALL (      17 calls)
     forces       :    101.87s CPU    109.50s WALL (      18 calls)
     stress       :    286.27s CPU    301.42s WALL (      18 calls)

     Called by init_run:
     wfcinit      :      1.34s CPU      1.36s WALL (       1 calls)
     potinit      :      1.84s CPU      1.99s WALL (       1 calls)

     Called by electrons:
     c_bands      :    302.88s CPU    314.18s WALL (     138 calls)
     sum_band     :    203.42s CPU    221.75s WALL (     138 calls)
     v_of_rho     :    217.79s CPU    237.53s WALL (     153 calls)
     newd         :    158.35s CPU    161.33s WALL (     153 calls)
     mix_rho      :      7.16s CPU      7.32s WALL (     138 calls)
     vdW_energy   :    163.68s CPU    182.16s WALL (     801 calls)
     vdW_ffts     :    416.41s CPU    432.79s WALL (    1638 calls)
     vdW_v        :    156.86s CPU    165.47s WALL (     801 calls)

     Called by c_bands:
     init_us_2    :      4.65s CPU      4.70s WALL (    1565 calls)
     cegterg      :    277.08s CPU    282.85s WALL (     690 calls)

     Called by *egterg:
     h_psi        :    229.18s CPU    233.65s WALL (    2434 calls)
     s_psi        :     12.99s CPU     13.01s WALL (    2434 calls)
     g_psi        :      1.33s CPU      1.34s WALL (    1739 calls)
     cdiaghg      :      5.48s CPU      5.61s WALL (    2329 calls)

     Called by h_psi:
     add_vuspsi   :     13.41s CPU     13.44s WALL (    2434 calls)

     General routines
     calbec       :     22.63s CPU     23.10s WALL (    3304 calls)
     fft          :    636.32s CPU    679.99s WALL (   47981 calls)
     ffts         :      0.50s CPU      0.54s WALL (     291 calls)
     fftw         :    155.85s CPU    160.52s WALL (  120524 calls)
     interpolate  :      4.98s CPU      5.09s WALL (     291 calls)
     davcio       :      0.00s CPU      0.01s WALL (       5 calls)
 
     Parallel routines
     fft_scatter  :    489.86s CPU    536.99s WALL (  168796 calls)
 
     PWSCF        : 35m53.88s CPU    38m28.17s WALL

 
   This run was terminated on:  11:49:33  16Apr2018            

=------------------------------------------------------------------------------=
   JOB DONE.
=------------------------------------------------------------------------------=
Job  /afs/slac/g/suncat/bin/suncat-tsmpirun -x LD_LIBRARY_PATH -wdir /scratch/qe110541_jpCtg pw.x -npool 4 -in pw.inp

TID   HOST_NAME   COMMAND_LINE            STATUS            TERMINATION_TIME
===== ========== ================  =======================  ===================
00000 suncat0066 pw.x -npool 4 -i  Done                     04/16/2018 11:49:33
00001 suncat0066 pw.x -npool 4 -i  Done                     04/16/2018 11:49:33
00002 suncat0066 pw.x -npool 4 -i  Done                     04/16/2018 11:49:33
00003 suncat0066 pw.x -npool 4 -i  Done                     04/16/2018 11:49:33
00004 suncat0066 pw.x -npool 4 -i  Done                     04/16/2018 11:49:33
00005 suncat0066 pw.x -npool 4 -i  Done                     04/16/2018 11:49:33
00006 suncat0066 pw.x -npool 4 -i  Done                     04/16/2018 11:49:33
00007 suncat0066 pw.x -npool 4 -i  Done                     04/16/2018 11:49:33
00008 suncat0062 pw.x -npool 4 -i  Done                     04/16/2018 11:49:33
00009 suncat0062 pw.x -npool 4 -i  Done                     04/16/2018 11:49:33
00010 suncat0062 pw.x -npool 4 -i  Done                     04/16/2018 11:49:33
00011 suncat0062 pw.x -npool 4 -i  Done                     04/16/2018 11:49:33
00012 suncat0062 pw.x -npool 4 -i  Done                     04/16/2018 11:49:33
00013 suncat0062 pw.x -npool 4 -i  Done                     04/16/2018 11:49:33
00014 suncat0062 pw.x -npool 4 -i  Done                     04/16/2018 11:49:33
00015 suncat0062 pw.x -npool 4 -i  Done                     04/16/2018 11:49:33
00016 suncat0167 pw.x -npool 4 -i  Done                     04/16/2018 11:49:33
00017 suncat0167 pw.x -npool 4 -i  Done                     04/16/2018 11:49:33
00018 suncat0167 pw.x -npool 4 -i  Done                     04/16/2018 11:49:33
00019 suncat0167 pw.x -npool 4 -i  Done                     04/16/2018 11:49:33
00020 suncat0167 pw.x -npool 4 -i  Done                     04/16/2018 11:49:33
00021 suncat0167 pw.x -npool 4 -i  Done                     04/16/2018 11:49:33
00022 suncat0167 pw.x -npool 4 -i  Done                     04/16/2018 11:49:33
00023 suncat0167 pw.x -npool 4 -i  Done                     04/16/2018 11:49:33
00024 suncat0162 pw.x -npool 4 -i  Done                     04/16/2018 11:49:33
00025 suncat0162 pw.x -npool 4 -i  Done                     04/16/2018 11:49:33
00026 suncat0162 pw.x -npool 4 -i  Done                     04/16/2018 11:49:33
00027 suncat0162 pw.x -npool 4 -i  Done                     04/16/2018 11:49:33
00028 suncat0162 pw.x -npool 4 -i  Done                     04/16/2018 11:49:33
00029 suncat0162 pw.x -npool 4 -i  Done                     04/16/2018 11:49:33
00030 suncat0162 pw.x -npool 4 -i  Done                     04/16/2018 11:49:33
00031 suncat0162 pw.x -npool 4 -i  Done                     04/16/2018 11:49:33
