  python dir          : /u/if/mamunm/src/espresso
  espresso dir        : /nfs/slac/g/suncatfs/sw/espv18/espresso-dynpy-beef/bin
  pseudo dir          : /u/if/mamunm/psp/gbrv1.5pbe
  ase-espresso py git : GITVERSION



     Program PWSCF v.5.1rc2 (svn rev. 11289) starts on 23Apr2018 at  8:28:58 

     This program is part of the open-source Quantum ESPRESSO suite
     for quantum simulation of materials; please cite
         "P. Giannozzi et al., J. Phys.:Condens. Matter 21 395502 (2009);
          URL http://www.quantum-espresso.org", 
     in publications or presentations arising from this work. More details at
     http://www.quantum-espresso.org/quote

     Parallel version (MPI), running on    36 processors
     K-points division:     npool     =       3
     R & G space division:  proc/nbgrp/npool/nimage =      12
     Reading input from pw.inp
     Message from routine read_cards :
     DEPRECATED: no units specified in CELL_PARAMETERS card

     Current dimensions of program PWSCF are:
     Max number of different atomic species (ntypx) = 10
     Max number of k-points (npk) =  40000
     Max angular momentum in pseudopotentials (lmaxx) =  3
     Presently stress not available with electric field


     **************************************************************************
     Initializing libbeef V0.1.1 with the BEEF-vdW functional.
     Citation: Wellendorff et al., PRB 85, 235149 (2012).
     **************************************************************************


     IMPORTANT: XC functional enforced from input :
     Exchange-correlation      = BEEF-VDW ( 1  4 27 13 2)
     Any further DFT definition will be discarded
     Please, verify this is what you really want


     Subspace diagonalization in iterative solution of the eigenvalue problem:
     a serial algorithm will be used

 
     Parallelization info
     --------------------
     sticks:   dense  smooth     PW     G-vecs:    dense   smooth      PW
     Min         269     107     31                51421    12993    2025
     Max         271     108     33                51431    13027    2039
     Sum        3241    1285    379               617075   156145   24367
 


     bravais-lattice index     =            0
     lattice parameter (alat)  =       1.8897  a.u.
     unit-cell volume          =    5185.0501 (a.u.)^3
     number of atoms/cell      =           14
     number of atomic types    =            3
     number of electrons       =       162.00
     number of Kohn-Sham states=           91
     kinetic-energy cutoff     =      36.7493  Ry
     charge density cutoff     =     367.4932  Ry
     convergence threshold     =      1.0E-05
     mixing beta               =       0.3000
     number of iterations used =           10  plain     mixing
     Exchange-correlation      = BEEF-VDW ( 1  4 27 13 2)
     nstep                     =           50


     celldm(1)=   1.889726  celldm(2)=   0.000000  celldm(3)=   0.000000
     celldm(4)=   0.000000  celldm(5)=   0.000000  celldm(6)=   0.000000

     crystal axes: (cart. coord. in units of alat)
               a(1) = (   5.972022   0.000000   0.000000 )  
               a(2) = (   2.986011   5.171923   0.000000 )  
               a(3) = (   0.000000   0.000000  24.876136 )  

     reciprocal axes: (cart. coord. in units 2 pi/alat)
               b(1) = (  0.167447 -0.096676  0.000000 )  
               b(2) = (  0.000000  0.193352  0.000000 )  
               b(3) = (  0.000000  0.000000  0.040199 )  


     PseudoPot. # 1 for Ta read from file:
     /u/if/mamunm/psp/gbrv1.5pbe/Ta.UPF
     MD5 check sum: f8bbe9446314a3b8ea5d9f3e3836c939
     Pseudo is Ultrasoft + core correction, Zval = 13.0
     Generated by new atomic code, or converted to UPF format
     Using radial grid of  921 points,  7 beta functions with: 
                l(1) =   0
                l(2) =   0
                l(3) =   1
                l(4) =   1
                l(5) =   2
                l(6) =   2
                l(7) =   3
     Q(r) pseudized with  6 coefficients,  rinner =    1.300   1.300   1.300
                                                       1.300   1.300   1.300
                                                       1.300

     PseudoPot. # 2 for N  read from file:
     /u/if/mamunm/psp/gbrv1.5pbe/N.UPF
     MD5 check sum: 95339753478d7afb44899504a8723017
     Pseudo is Ultrasoft + core correction, Zval =  5.0
     Generated by new atomic code, or converted to UPF format
     Using radial grid of  729 points,  4 beta functions with: 
                l(1) =   0
                l(2) =   0
                l(3) =   1
                l(4) =   1
     Q(r) pseudized with  8 coefficients,  rinner =    0.900   0.900   0.900


     PseudoPot. # 3 for H  read from file:
     /u/if/mamunm/psp/gbrv1.5pbe/H.UPF
     MD5 check sum: 761ae9a214b05c3daf00ab9f6b793d6f
     Pseudo is Ultrasoft, Zval =  1.0
     Generated by new atomic code, or converted to UPF format
     Using radial grid of  615 points,  2 beta functions with: 
                l(1) =   0
                l(2) =   0
     Q(r) pseudized with  8 coefficients,  rinner =    0.700

     vdW kernel table read from file vdW_kernel_table
     MD5 check sum: 095c7af220d748ca6e76c0b4c6cfb241

     atomic species   valence    mass     pseudopotential
        Ta1           13.00   180.94788     Ta( 1.00)
        N1             5.00    14.00700     N ( 1.00)
        H1             1.00     1.00800     H ( 1.00)

     No symmetry found



   Cartesian axes

     site n.     atom                  positions (alat units)
         1           Ta1 tau(   1) = (   1.4930055   0.8619871  10.0000000  )
         2           Ta1 tau(   2) = (   4.4790165   0.8619871  10.0000000  )
         3           Ta1 tau(   3) = (   2.9860110   3.4479485  10.0000000  )
         4           Ta1 tau(   4) = (   5.9720221   3.4479485  10.0000000  )
         5           Ta1 tau(   5) = (   5.9720221   1.7239743  12.4380678  )
         6           Ta1 tau(   6) = (   2.9860110   1.7239743  12.4380678  )
         7           Ta1 tau(   7) = (   7.4650276   4.3099357  12.4380678  )
         8           Ta1 tau(   8) = (   4.4790165   4.3099357  12.4380678  )
         9           Ta1 tau(   9) = (   0.0000000   0.0000000  14.8761356  )
        10           Ta1 tau(  10) = (   2.9860110   0.0000000  14.8761356  )
        11           Ta1 tau(  11) = (   1.4930055   2.5859614  14.8761356  )
        12           Ta1 tau(  12) = (   4.4790165   2.5859614  14.8761356  )
        13           N1  tau(  13) = (   1.4930055   0.8619871  16.4426356  )
        14           H1  tau(  14) = (   1.4930055   0.8619871  17.4926356  )

     number of k points=    20  Fermi-Dirac smearing, width (Ry)=  0.0110
                       cart. coord. in units 2pi/alat
        k(    1) = (   0.0000000   0.0000000   0.0000000), wk =   0.0555556
        k(    2) = (   0.0000000   0.0322253   0.0000000), wk =   0.1111111
        k(    3) = (   0.0000000   0.0644506   0.0000000), wk =   0.1111111
        k(    4) = (   0.0000000  -0.0966758   0.0000000), wk =   0.0555556
        k(    5) = (   0.0279079  -0.0161126   0.0000000), wk =   0.1111111
        k(    6) = (   0.0279079   0.0161126   0.0000000), wk =   0.1111111
        k(    7) = (   0.0279079   0.0483379   0.0000000), wk =   0.1111111
        k(    8) = (   0.0279079  -0.1127885   0.0000000), wk =   0.1111111
        k(    9) = (   0.0279079  -0.0805632   0.0000000), wk =   0.1111111
        k(   10) = (   0.0279079  -0.0483379   0.0000000), wk =   0.1111111
        k(   11) = (   0.0558158  -0.0322253   0.0000000), wk =   0.1111111
        k(   12) = (   0.0558158   0.0000000   0.0000000), wk =   0.1111111
        k(   13) = (   0.0558158   0.0322253   0.0000000), wk =   0.1111111
        k(   14) = (   0.0558158  -0.1289011   0.0000000), wk =   0.1111111
        k(   15) = (   0.0558158  -0.0966758   0.0000000), wk =   0.1111111
        k(   16) = (   0.0558158  -0.0644506   0.0000000), wk =   0.1111111
        k(   17) = (  -0.0837237   0.0483379   0.0000000), wk =   0.0555556
        k(   18) = (  -0.0837237   0.0805632   0.0000000), wk =   0.1111111
        k(   19) = (  -0.0837237   0.1127885   0.0000000), wk =   0.1111111
        k(   20) = (  -0.0837237  -0.0483379   0.0000000), wk =   0.0555556

     Dense  grid:   617075 G-vectors     FFT dimensions: (  72,  72, 288)

     Smooth grid:   156145 G-vectors     FFT dimensions: (  45,  45, 192)

     Largest allocated arrays     est. size (Mb)     dimensions
        Kohn-Sham Wavefunctions         2.32 Mb     (    1673,   91)
        NL pseudopotentials             7.91 Mb     (    1673,  310)
        Each V/rho on FFT grid          1.90 Mb     (  124416)
        Each G-vector array             0.39 Mb     (   51431)
        G-vector shells                 0.14 Mb     (   18336)
     Largest temporary arrays     est. size (Mb)     dimensions
        Auxiliary wavefunctions         9.29 Mb     (    1673,  364)
        Each subspace H/S matrix        2.02 Mb     (     364,  364)
        Each <psi_i|beta_j> matrix      0.43 Mb     (     310,   91)
        Arrays for rho mixing          18.98 Mb     (  124416,   10)

     Initial potential from superposition of free atoms
     Check: negative starting charge=   -1.121574

     starting charge  161.98664, renormalised to  162.00000

     negative rho (up, down):  1.122E+00 0.000E+00


     ************************************************************************
     *
     * You are using vdW-DF for exchange-correlation in this calculation.
     * Please cite the following three references that made this development
     * possible:
     *
     *   M. Dion, H. Rydberg, E. Schroder, D. C. Langreth, and
     *   B. I. Lundqvist, Phys. Rev. Lett. 92, 246401 (2004).
     *
     *   T. Thonhauser, V. R. Cooper, S. Li, A. Puzder, P. Hyldgaard, and
     *   D. C. Langreth, Phys. Rev. B 76, 125112 (2007).
     *
     *   G. Roman-Perez and J. M. Soler, Phys. Rev. Lett. 103, 096102 (2009).
     *
     *
     * If you are using vdW-DF2, please also cite:
     *
     *   K. Lee, E. D. Murray, L. Kong, B. I. Lundqvist, and
     *   D. C. Langreth, Phys. Rev. B 82, 081101(R) (2010).
     *
     *
     * If you are calculating the stress with vdW-DF, please also cite:
     *
     *   R. Sabatini, E. Kucukbenli, B. Kolb, T. Thonhauser, and
     *   S. de Gironcoli, J. Phys.: Condens. Matter 24, 424209 (2012).
     *
     ************************************************************************

     Carrying out vdW-DF run using the following parameters:

     Nqs =      20    Nr_points =    1024   r_max =   100.000
     q_mesh =
               0.00001000     0.04494208     0.09755937     0.15916263
               0.23128650     0.31572767     0.41458969     0.53033537
               0.66584808     0.82450364     1.01025438     1.22772762
               1.48234092     1.78043706     2.12944203     2.53805004
               3.01644009     3.57652955     4.23227104     5.00000000

     Gradients computed in reciprocal space

     ************************************************************************


 
     Adding external electric field

     Computed dipole along edir(3) : 
        Dipole               -0.0038 Ry au,         -0.0096 Debye
        Dipole field         -0.0000 Ry au
 
        Potential amp.        0.0008 Ry
        Total length         45.8339 bohr
 
     Starting wfc are  161 randomized atomic wfcs

     total cpu time spent up to now is       11.3 secs

     Self-consistent Calculation

     iteration #  1     ecut=    36.75 Ry     beta=0.30
     Davidson diagonalization with overlap
     ethr =  1.00E-02,  avg # of iterations =  2.0

     negative rho (up, down):  1.136E+00 0.000E+00
 
     Adding external electric field

     Computed dipole along edir(3) : 
        Dipole               -2.1387 Ry au,         -5.4361 Debye
        Dipole field         -0.0052 Ry au
 
        Potential amp.        0.4751 Ry
        Total length         45.8339 bohr
 

     total cpu time spent up to now is       26.4 secs

     total energy              =   -1738.07709580 Ry
     Harris-Foulkes estimate   =   -1740.45996659 Ry
     estimated scf accuracy    <       5.20392778 Ry

     iteration #  2     ecut=    36.75 Ry     beta=0.30
     Davidson diagonalization with overlap
     ethr =  3.21E-03,  avg # of iterations =  8.3

     negative rho (up, down):  1.137E+00 0.000E+00
 
     Adding external electric field

     Computed dipole along edir(3) : 
        Dipole                2.3112 Ry au,          5.8746 Debye
        Dipole field          0.0056 Ry au
 
        Potential amp.       -0.5135 Ry
        Total length         45.8339 bohr
 

     total cpu time spent up to now is       48.1 secs

     total energy              =   -1731.45380270 Ry
     Harris-Foulkes estimate   =   -1745.70642725 Ry
     estimated scf accuracy    <     287.06131236 Ry

     iteration #  3     ecut=    36.75 Ry     beta=0.30
     Davidson diagonalization with overlap
     ethr =  3.21E-03,  avg # of iterations =  9.6

     negative rho (up, down):  1.138E+00 0.000E+00
 
     Adding external electric field

     Computed dipole along edir(3) : 
        Dipole                0.2204 Ry au,          0.5603 Debye
        Dipole field          0.0005 Ry au
 
        Potential amp.       -0.0490 Ry
        Total length         45.8339 bohr
 

     total cpu time spent up to now is       71.9 secs

     total energy              =   -1735.20769009 Ry
     Harris-Foulkes estimate   =   -1744.32432589 Ry
     estimated scf accuracy    <     279.05179833 Ry

     iteration #  4     ecut=    36.75 Ry     beta=0.30
     Davidson diagonalization with overlap
     ethr =  3.21E-03,  avg # of iterations =  6.1

     negative rho (up, down):  1.145E+00 0.000E+00
 
     Adding external electric field

     Computed dipole along edir(3) : 
        Dipole                0.4246 Ry au,          1.0793 Debye
        Dipole field          0.0010 Ry au
 
        Potential amp.       -0.0943 Ry
        Total length         45.8339 bohr
 

     total cpu time spent up to now is       93.2 secs

     total energy              =   -1739.91440784 Ry
     Harris-Foulkes estimate   =   -1740.03964346 Ry
     estimated scf accuracy    <       0.90193972 Ry

     iteration #  5     ecut=    36.75 Ry     beta=0.30
     Davidson diagonalization with overlap
     ethr =  5.57E-04,  avg # of iterations =  2.1

     negative rho (up, down):  1.155E+00 0.000E+00
 
     Adding external electric field

     Computed dipole along edir(3) : 
        Dipole                0.3006 Ry au,          0.7640 Debye
        Dipole field          0.0007 Ry au
 
        Potential amp.       -0.0668 Ry
        Total length         45.8339 bohr
 

     total cpu time spent up to now is      107.3 secs

     total energy              =   -1739.93859249 Ry
     Harris-Foulkes estimate   =   -1739.97056392 Ry
     estimated scf accuracy    <       0.21304683 Ry

     iteration #  6     ecut=    36.75 Ry     beta=0.30
     Davidson diagonalization with overlap
     ethr =  1.32E-04,  avg # of iterations =  4.7

     negative rho (up, down):  1.163E+00 0.000E+00
 
     Adding external electric field

     Computed dipole along edir(3) : 
        Dipole                0.3573 Ry au,          0.9082 Debye
        Dipole field          0.0009 Ry au
 
        Potential amp.       -0.0794 Ry
        Total length         45.8339 bohr
 

     total cpu time spent up to now is      122.5 secs

     total energy              =   -1739.94334446 Ry
     Harris-Foulkes estimate   =   -1739.95231687 Ry
     estimated scf accuracy    <       0.07177889 Ry

     iteration #  7     ecut=    36.75 Ry     beta=0.30
     Davidson diagonalization with overlap
     ethr =  4.43E-05,  avg # of iterations =  4.4

     negative rho (up, down):  1.171E+00 0.000E+00
 
     Adding external electric field

     Computed dipole along edir(3) : 
        Dipole                0.2766 Ry au,          0.7032 Debye
        Dipole field          0.0007 Ry au
 
        Potential amp.       -0.0615 Ry
        Total length         45.8339 bohr
 

     total cpu time spent up to now is      137.8 secs

     total energy              =   -1739.94452165 Ry
     Harris-Foulkes estimate   =   -1739.94899444 Ry
     estimated scf accuracy    <       0.03288372 Ry

     iteration #  8     ecut=    36.75 Ry     beta=0.30
     Davidson diagonalization with overlap
     ethr =  2.03E-05,  avg # of iterations =  3.2

     negative rho (up, down):  1.173E+00 0.000E+00
 
     Adding external electric field

     Computed dipole along edir(3) : 
        Dipole                0.2586 Ry au,          0.6573 Debye
        Dipole field          0.0006 Ry au
 
        Potential amp.       -0.0575 Ry
        Total length         45.8339 bohr
 

     total cpu time spent up to now is      152.5 secs

     total energy              =   -1739.94615701 Ry
     Harris-Foulkes estimate   =   -1739.94662737 Ry
     estimated scf accuracy    <       0.00307743 Ry

     iteration #  9     ecut=    36.75 Ry     beta=0.30
     Davidson diagonalization with overlap
     ethr =  1.90E-06,  avg # of iterations =  7.2

     negative rho (up, down):  1.176E+00 0.000E+00
 
     Adding external electric field

     Computed dipole along edir(3) : 
        Dipole                0.2553 Ry au,          0.6489 Debye
        Dipole field          0.0006 Ry au
 
        Potential amp.       -0.0567 Ry
        Total length         45.8339 bohr
 

     total cpu time spent up to now is      171.3 secs

     total energy              =   -1739.94666877 Ry
     Harris-Foulkes estimate   =   -1739.94673698 Ry
     estimated scf accuracy    <       0.00115720 Ry

     iteration # 10     ecut=    36.75 Ry     beta=0.30
     Davidson diagonalization with overlap
     ethr =  7.14E-07,  avg # of iterations =  3.2

     negative rho (up, down):  1.177E+00 0.000E+00
 
     Adding external electric field

     Computed dipole along edir(3) : 
        Dipole                0.2454 Ry au,          0.6237 Debye
        Dipole field          0.0006 Ry au
 
        Potential amp.       -0.0545 Ry
        Total length         45.8339 bohr
 

     total cpu time spent up to now is      186.7 secs

     total energy              =   -1739.94677672 Ry
     Harris-Foulkes estimate   =   -1739.94681564 Ry
     estimated scf accuracy    <       0.00028455 Ry

     iteration # 11     ecut=    36.75 Ry     beta=0.30
     Davidson diagonalization with overlap
     ethr =  1.76E-07,  avg # of iterations =  3.1

     negative rho (up, down):  1.177E+00 0.000E+00
 
     Adding external electric field

     Computed dipole along edir(3) : 
        Dipole                0.2409 Ry au,          0.6124 Debye
        Dipole field          0.0006 Ry au
 
        Potential amp.       -0.0535 Ry
        Total length         45.8339 bohr
 

     total cpu time spent up to now is      202.4 secs

     total energy              =   -1739.94682754 Ry
     Harris-Foulkes estimate   =   -1739.94681765 Ry
     estimated scf accuracy    <       0.00005452 Ry

     iteration # 12     ecut=    36.75 Ry     beta=0.30
     Davidson diagonalization with overlap
     ethr =  3.37E-08,  avg # of iterations =  3.9

     negative rho (up, down):  1.177E+00 0.000E+00
 
     Adding external electric field

     Computed dipole along edir(3) : 
        Dipole                0.2406 Ry au,          0.6115 Debye
        Dipole field          0.0006 Ry au
 
        Potential amp.       -0.0534 Ry
        Total length         45.8339 bohr
 

     total cpu time spent up to now is      218.8 secs

     total energy              =   -1739.94683908 Ry
     Harris-Foulkes estimate   =   -1739.94683633 Ry
     estimated scf accuracy    <       0.00001309 Ry

     iteration # 13     ecut=    36.75 Ry     beta=0.30
     Davidson diagonalization with overlap
     ethr =  8.08E-09,  avg # of iterations =  3.6

     negative rho (up, down):  1.178E+00 0.000E+00

     negative rho (up, down):  1.178E+00 0.000E+00

     negative rho (up, down):  1.178E+00 0.000E+00

     negative rho (up, down):  1.178E+00 0.000E+00

     negative rho (up, down):  1.178E+00 0.000E+00

     negative rho (up, down):  1.178E+00 0.000E+00

     negative rho (up, down):  1.178E+00 0.000E+00

     negative rho (up, down):  1.178E+00 0.000E+00

     negative rho (up, down):  1.178E+00 0.000E+00

     negative rho (up, down):  1.178E+00 0.000E+00

     negative rho (up, down):  1.178E+00 0.000E+00

     negative rho (up, down):  1.178E+00 0.000E+00

     negative rho (up, down):  1.178E+00 0.000E+00

     negative rho (up, down):  1.178E+00 0.000E+00

     negative rho (up, down):  1.178E+00 0.000E+00

     negative rho (up, down):  1.178E+00 0.000E+00

     negative rho (up, down):  1.178E+00 0.000E+00

     negative rho (up, down):  1.178E+00 0.000E+00

     negative rho (up, down):  1.178E+00 0.000E+00

     negative rho (up, down):  1.178E+00 0.000E+00

     negative rho (up, down):  1.178E+00 0.000E+00

     negative rho (up, down):  1.178E+00 0.000E+00

     negative rho (up, down):  1.178E+00 0.000E+00

     negative rho (up, down):  1.178E+00 0.000E+00

     negative rho (up, down):  1.178E+00 0.000E+00

     negative rho (up, down):  1.178E+00 0.000E+00

     negative rho (up, down):  1.178E+00 0.000E+00

     negative rho (up, down):  1.178E+00 0.000E+00

     negative rho (up, down):  1.178E+00 0.000E+00

     negative rho (up, down):  1.178E+00 0.000E+00

     negative rho (up, down):  1.178E+00 0.000E+00

     negative rho (up, down):  1.178E+00 0.000E+00

     negative rho (up, down):  1.178E+00 0.000E+00

     negative rho (up, down):  1.178E+00 0.000E+00

     negative rho (up, down):  1.178E+00 0.000E+00
 
     Adding external electric field

     Computed dipole along edir(3) : 
        Dipole                0.2366 Ry au,          0.6013 Debye
        Dipole field          0.0006 Ry au
 
        Potential amp.       -0.0526 Ry
        Total length         45.8339 bohr
 

     total cpu time spent up to now is      275.0 secs

     End of self-consistent calculation

          k = 0.0000 0.0000 0.0000 ( 19447 PWs)   bands (ev):

   -66.0746 -66.0252 -66.0084 -66.0084 -65.9734 -65.9166 -65.9134 -65.9131
   -65.8812 -65.8376 -65.8375 -65.8077 -32.7702 -32.7548 -32.7548 -32.7076
   -32.6896 -32.6701 -32.6701 -32.6203 -32.6202 -32.6195 -32.4504 -32.3702
   -32.3362 -32.3362 -32.2586 -32.2542 -32.2541 -32.1792 -32.1792 -32.1675
   -32.0736 -32.0736 -32.0708 -32.0432 -32.0432 -32.0322 -31.9890 -31.9890
   -31.9885 -31.9639 -31.9622 -31.9621 -31.8864 -31.8864 -31.8163 -31.8163
   -12.7035  -5.2948  -4.5050  -3.1756  -2.3380  -1.8772  -1.8772  -1.7336
    -1.7336  -1.6775  -1.4483  -1.1144  -1.1144  -0.7590  -0.6560  -0.6560
    -0.3072  -0.1326  -0.1326   0.8115   0.8115   1.0328   1.6599   1.9063
     1.9248   1.9248   2.2107   2.2593   2.4012   2.4013   2.4642   2.7013
     2.7013   2.9304   2.9907   2.9907   3.0734   3.1014   3.1014   3.1681
     3.1681   3.4457   3.4457

          k = 0.0000 0.0322 0.0000 ( 19481 PWs)   bands (ev):

   -66.0711 -66.0264 -66.0108 -66.0084 -65.9695 -65.9190 -65.9148 -65.9133
   -65.8781 -65.8398 -65.8376 -65.8085 -32.7406 -32.7288 -32.7135 -32.6900
   -32.6658 -32.6468 -32.6378 -32.5954 -32.5949 -32.5774 -32.4479 -32.3839
   -32.3564 -32.3473 -32.2538 -32.2462 -32.2443 -32.2066 -32.1998 -32.1621
   -32.1111 -32.1110 -32.0605 -32.0545 -32.0321 -32.0308 -32.0191 -32.0017
   -31.9945 -31.9888 -31.9852 -31.9529 -31.9219 -31.8994 -31.8637 -31.8256
   -12.6997  -5.1074  -4.3838  -2.9891  -2.1252  -1.9335  -1.7355  -1.7285
    -1.5752  -1.5247  -1.3282  -0.9789  -0.9337  -0.6014  -0.5064  -0.4977
    -0.1986  -0.0943  -0.0420   0.7753   0.8063   1.0271   1.5610   1.8994
     1.9444   2.0204   2.0758   2.1677   2.1797   2.2585   2.3029   2.4353
     2.7825   2.8892   2.9137   2.9183   2.9728   3.0252   3.1063   3.1312
     3.1415   3.2743   3.4091

          k = 0.0000 0.0645 0.0000 ( 19517 PWs)   bands (ev):

   -66.0621 -66.0314 -66.0149 -66.0084 -65.9589 -65.9294 -65.9153 -65.9133
   -65.8699 -65.8465 -65.8375 -65.8100 -32.6741 -32.6642 -32.6476 -32.6130
   -32.6004 -32.5916 -32.5633 -32.5353 -32.5350 -32.4710 -32.4449 -32.4025
   -32.3862 -32.3787 -32.2723 -32.2627 -32.2394 -32.2258 -32.2159 -32.1896
   -32.1725 -32.1718 -32.1293 -32.0949 -32.0684 -32.0611 -32.0363 -32.0279
   -32.0143 -32.0097 -31.9980 -31.9900 -31.9534 -31.9363 -31.9248 -31.8516
   -12.6922  -4.7068  -4.0000  -2.5639  -2.3606  -1.6924  -1.4265  -1.4117
    -1.2469  -1.1886  -0.9709  -0.7160  -0.5980  -0.2241  -0.0626  -0.0519
    -0.0097   0.2065   0.2929   0.7330   0.8400   0.9939   1.1837   1.4601
     1.5524   1.5549   1.6828   1.8261   2.1721   2.2068   2.2437   2.2870
     2.3404   2.3703   2.4409   2.5321   2.6830   2.7456   2.7786   3.0107
     3.0879   3.3242   3.3788

          k = 0.0000-0.0967 0.0000 ( 19532 PWs)   bands (ev):

   -66.0548 -66.0372 -66.0164 -66.0084 -65.9455 -65.9427 -65.9154 -65.9133
   -65.8620 -65.8537 -65.8376 -65.8107 -32.6280 -32.6193 -32.6084 -32.5833
   -32.5707 -32.5591 -32.4946 -32.4915 -32.4741 -32.4576 -32.4263 -32.4107
   -32.3667 -32.3546 -32.3067 -32.2987 -32.2694 -32.2615 -32.2460 -32.2354
   -32.1774 -32.1696 -32.1377 -32.1330 -32.1254 -32.1037 -32.0847 -32.0809
   -32.0091 -32.0067 -31.9860 -31.9844 -31.9792 -31.9672 -31.8951 -31.8817
   -12.6884  -4.5244  -3.3431  -3.1749  -2.0741  -1.6571  -1.2209  -1.1746
    -0.9168  -0.8934  -0.7190  -0.6238  -0.5086  -0.1203   0.2353   0.3476
     0.4957   0.5061   0.5187   0.5873   0.9642   1.0494   1.0571   1.0929
     1.2046   1.2446   1.5319   1.5997   1.7285   1.7333   1.8161   1.9018
     1.9634   2.0132   2.1369   2.5708   2.6049   2.6414   2.7015   2.8984
     3.0174   3.5581   3.6387

          k = 0.0279-0.0161 0.0000 ( 19481 PWs)   bands (ev):

   -66.0711 -66.0264 -66.0108 -66.0084 -65.9695 -65.9190 -65.9149 -65.9132
   -65.8781 -65.8398 -65.8376 -65.8085 -32.7406 -32.7288 -32.7135 -32.6900
   -32.6658 -32.6468 -32.6378 -32.5954 -32.5948 -32.5774 -32.4479 -32.3839
   -32.3565 -32.3472 -32.2538 -32.2462 -32.2443 -32.2066 -32.1998 -32.1621
   -32.1112 -32.1109 -32.0605 -32.0545 -32.0321 -32.0308 -32.0191 -32.0017
   -31.9945 -31.9888 -31.9851 -31.9529 -31.9219 -31.8994 -31.8637 -31.8256
   -12.6997  -5.1074  -4.3838  -2.9891  -2.1252  -1.9335  -1.7355  -1.7285
    -1.5752  -1.5247  -1.3282  -0.9789  -0.9337  -0.6014  -0.5064  -0.4977
    -0.1986  -0.0943  -0.0420   0.7753   0.8063   1.0271   1.5610   1.8994
     1.9444   2.0204   2.0758   2.1677   2.1796   2.2585   2.3029   2.4353
     2.7825   2.8892   2.9137   2.9183   2.9728   3.0252   3.1063   3.1312
     3.1415   3.2743   3.4091

          k = 0.0279 0.0161 0.0000 ( 19481 PWs)   bands (ev):

   -66.0711 -66.0264 -66.0108 -66.0084 -65.9695 -65.9191 -65.9146 -65.9133
   -65.8781 -65.8398 -65.8375 -65.8085 -32.7406 -32.7288 -32.7135 -32.6900
   -32.6658 -32.6468 -32.6378 -32.5954 -32.5949 -32.5774 -32.4479 -32.3839
   -32.3564 -32.3473 -32.2537 -32.2462 -32.2443 -32.2066 -32.1998 -32.1622
   -32.1111 -32.1110 -32.0605 -32.0545 -32.0321 -32.0308 -32.0191 -32.0017
   -31.9944 -31.9888 -31.9852 -31.9529 -31.9219 -31.8994 -31.8637 -31.8256
   -12.6997  -5.1074  -4.3838  -2.9891  -2.1252  -1.9335  -1.7355  -1.7285
    -1.5752  -1.5247  -1.3282  -0.9789  -0.9336  -0.6014  -0.5064  -0.4977
    -0.1986  -0.0943  -0.0420   0.7754   0.8063   1.0271   1.5610   1.8994
     1.9444   2.0204   2.0758   2.1677   2.1797   2.2585   2.3029   2.4353
     2.7825   2.8892   2.9137   2.9183   2.9728   3.0252   3.1063   3.1312
     3.1415   3.2743   3.4091

          k = 0.0279 0.0483 0.0000 ( 19485 PWs)   bands (ev):

   -66.0648 -66.0289 -66.0156 -66.0075 -65.9622 -65.9232 -65.9206 -65.9107
   -65.8724 -65.8437 -65.8383 -65.8096 -32.7005 -32.6650 -32.6537 -32.6501
   -32.6263 -32.5986 -32.5890 -32.5623 -32.5214 -32.5204 -32.4455 -32.4032
   -32.3855 -32.3648 -32.2909 -32.2424 -32.2293 -32.2281 -32.1996 -32.1803
   -32.1705 -32.1443 -32.0846 -32.0802 -32.0714 -32.0547 -32.0295 -32.0239
   -32.0137 -32.0039 -31.9719 -31.9648 -31.9582 -31.9488 -31.9103 -31.8492
   -12.6940  -4.8088  -4.1335  -2.6461  -2.0296  -1.9177  -1.7068  -1.5105
    -1.4334  -1.1496  -1.0389  -0.7279  -0.6838  -0.3220  -0.2132  -0.1909
    -0.0652   0.0552   0.1955   0.7316   0.8011   1.0093   1.3451   1.6246
     1.6465   1.7258   1.8010   1.8798   2.1469   2.2598   2.3050   2.4149
     2.4207   2.4422   2.5595   2.6464   2.8117   2.8442   2.8723   3.0696
     3.2251   3.2731   3.3268

          k = 0.0279-0.1128 0.0000 ( 19521 PWs)   bands (ev):

   -66.0557 -66.0338 -66.0210 -66.0063 -65.9496 -65.9347 -65.9237 -65.9088
   -65.8633 -65.8508 -65.8394 -65.8104 -32.6317 -32.6157 -32.5929 -32.5776
   -32.5643 -32.5427 -32.5089 -32.4997 -32.4734 -32.4503 -32.4334 -32.4223
   -32.4014 -32.3655 -32.3494 -32.2939 -32.2887 -32.2319 -32.2115 -32.2011
   -32.1909 -32.1891 -32.1472 -32.1248 -32.1050 -32.0990 -32.0620 -32.0390
   -32.0313 -32.0227 -31.9893 -31.9832 -31.9706 -31.9558 -31.9302 -31.8877
   -12.6884  -4.5328  -3.5400  -2.6905  -2.0894  -1.8839  -1.5084  -1.2217
    -0.9517  -0.8000  -0.6291  -0.4563  -0.3541  -0.0584   0.1685   0.2874
     0.3061   0.3717   0.5011   0.7865   0.8650   0.8982   0.9654   1.1350
     1.2739   1.3170   1.3888   1.5078   1.6734   1.7356   1.8516   1.9329
     2.0008   2.0915   2.2380   2.4140   2.6444   2.7162   2.8202   2.9797
     3.1982   3.3467   3.5208

          k = 0.0279-0.0806 0.0000 ( 19521 PWs)   bands (ev):

   -66.0557 -66.0338 -66.0210 -66.0063 -65.9496 -65.9347 -65.9237 -65.9088
   -65.8633 -65.8508 -65.8394 -65.8104 -32.6317 -32.6157 -32.5929 -32.5776
   -32.5643 -32.5427 -32.5089 -32.4997 -32.4734 -32.4503 -32.4334 -32.4223
   -32.4014 -32.3655 -32.3494 -32.2939 -32.2887 -32.2319 -32.2115 -32.2011
   -32.1909 -32.1891 -32.1472 -32.1248 -32.1050 -32.0991 -32.0620 -32.0390
   -32.0313 -32.0227 -31.9892 -31.9833 -31.9706 -31.9558 -31.9302 -31.8877
   -12.6884  -4.5328  -3.5400  -2.6905  -2.0894  -1.8839  -1.5084  -1.2217
    -0.9517  -0.8000  -0.6291  -0.4563  -0.3541  -0.0584   0.1685   0.2874
     0.3061   0.3717   0.5011   0.7865   0.8650   0.8982   0.9654   1.1350
     1.2739   1.3170   1.3888   1.5078   1.6734   1.7356   1.8516   1.9329
     2.0008   2.0915   2.2380   2.4140   2.6444   2.7162   2.8202   2.9797
     3.1982   3.3466   3.5208

          k = 0.0279-0.0483 0.0000 ( 19485 PWs)   bands (ev):

   -66.0648 -66.0289 -66.0156 -66.0075 -65.9622 -65.9231 -65.9207 -65.9107
   -65.8724 -65.8436 -65.8383 -65.8096 -32.7005 -32.6650 -32.6537 -32.6501
   -32.6263 -32.5986 -32.5891 -32.5623 -32.5214 -32.5204 -32.4455 -32.4031
   -32.3856 -32.3648 -32.2909 -32.2424 -32.2294 -32.2280 -32.1996 -32.1803
   -32.1705 -32.1443 -32.0846 -32.0802 -32.0714 -32.0546 -32.0295 -32.0239
   -32.0137 -32.0039 -31.9719 -31.9648 -31.9582 -31.9488 -31.9103 -31.8491
   -12.6940  -4.8088  -4.1335  -2.6461  -2.0296  -1.9177  -1.7067  -1.5105
    -1.4334  -1.1496  -1.0389  -0.7279  -0.6838  -0.3220  -0.2132  -0.1909
    -0.0652   0.0552   0.1955   0.7316   0.8011   1.0093   1.3451   1.6246
     1.6465   1.7259   1.8010   1.8798   2.1469   2.2598   2.3050   2.4149
     2.4208   2.4422   2.5594   2.6464   2.8117   2.8442   2.8723   3.0696
     3.2251   3.2731   3.3268

          k = 0.0558-0.0322 0.0000 ( 19517 PWs)   bands (ev):

   -66.0621 -66.0314 -66.0149 -66.0084 -65.9589 -65.9294 -65.9154 -65.9132
   -65.8699 -65.8465 -65.8376 -65.8100 -32.6741 -32.6643 -32.6476 -32.6131
   -32.6004 -32.5916 -32.5633 -32.5353 -32.5349 -32.4710 -32.4449 -32.4025
   -32.3862 -32.3786 -32.2723 -32.2627 -32.2394 -32.2257 -32.2159 -32.1896
   -32.1725 -32.1719 -32.1293 -32.0949 -32.0684 -32.0611 -32.0363 -32.0279
   -32.0143 -32.0097 -31.9980 -31.9900 -31.9534 -31.9363 -31.9248 -31.8516
   -12.6922  -4.7068  -4.0000  -2.5639  -2.3606  -1.6924  -1.4265  -1.4117
    -1.2469  -1.1887  -0.9709  -0.7160  -0.5980  -0.2241  -0.0626  -0.0519
    -0.0097   0.2065   0.2929   0.7330   0.8400   0.9939   1.1837   1.4601
     1.5524   1.5549   1.6828   1.8261   2.1721   2.2068   2.2437   2.2870
     2.3404   2.3703   2.4409   2.5321   2.6830   2.7456   2.7787   3.0107
     3.0879   3.3242   3.3788

          k = 0.0558 0.0000 0.0000 ( 19485 PWs)   bands (ev):

   -66.0648 -66.0289 -66.0156 -66.0075 -65.9622 -65.9231 -65.9207 -65.9107
   -65.8724 -65.8437 -65.8383 -65.8096 -32.7005 -32.6650 -32.6537 -32.6501
   -32.6263 -32.5986 -32.5891 -32.5623 -32.5214 -32.5204 -32.4455 -32.4031
   -32.3855 -32.3648 -32.2909 -32.2424 -32.2293 -32.2280 -32.1996 -32.1803
   -32.1705 -32.1443 -32.0846 -32.0802 -32.0714 -32.0547 -32.0295 -32.0239
   -32.0137 -32.0039 -31.9719 -31.9648 -31.9582 -31.9488 -31.9103 -31.8491
   -12.6940  -4.8088  -4.1335  -2.6461  -2.0296  -1.9177  -1.7067  -1.5105
    -1.4334  -1.1496  -1.0389  -0.7279  -0.6838  -0.3220  -0.2132  -0.1909
    -0.0652   0.0552   0.1955   0.7316   0.8011   1.0093   1.3451   1.6246
     1.6465   1.7258   1.8010   1.8798   2.1469   2.2598   2.3050   2.4149
     2.4207   2.4422   2.5595   2.6464   2.8117   2.8442   2.8723   3.0696
     3.2251   3.2731   3.3268

          k = 0.0558 0.0322 0.0000 ( 19517 PWs)   bands (ev):

   -66.0621 -66.0313 -66.0150 -66.0084 -65.9589 -65.9294 -65.9152 -65.9134
   -65.8699 -65.8465 -65.8375 -65.8100 -32.6741 -32.6643 -32.6476 -32.6130
   -32.6004 -32.5916 -32.5633 -32.5352 -32.5350 -32.4710 -32.4449 -32.4025
   -32.3862 -32.3787 -32.2723 -32.2626 -32.2394 -32.2258 -32.2159 -32.1896
   -32.1726 -32.1718 -32.1293 -32.0948 -32.0684 -32.0612 -32.0363 -32.0279
   -32.0143 -32.0097 -31.9980 -31.9900 -31.9534 -31.9364 -31.9248 -31.8516
   -12.6922  -4.7068  -4.0000  -2.5639  -2.3606  -1.6924  -1.4265  -1.4117
    -1.2469  -1.1886  -0.9709  -0.7160  -0.5980  -0.2241  -0.0626  -0.0519
    -0.0097   0.2065   0.2929   0.7330   0.8400   0.9939   1.1837   1.4602
     1.5524   1.5549   1.6828   1.8261   2.1722   2.2068   2.2437   2.2870
     2.3404   2.3703   2.4409   2.5321   2.6830   2.7456   2.7786   3.0107
     3.0879   3.3242   3.3788

          k = 0.0558-0.1289 0.0000 ( 19521 PWs)   bands (ev):

   -66.0557 -66.0337 -66.0210 -66.0063 -65.9496 -65.9348 -65.9237 -65.9088
   -65.8633 -65.8508 -65.8394 -65.8104 -32.6317 -32.6157 -32.5929 -32.5776
   -32.5643 -32.5427 -32.5089 -32.4997 -32.4734 -32.4503 -32.4334 -32.4223
   -32.4014 -32.3655 -32.3494 -32.2939 -32.2887 -32.2319 -32.2115 -32.2011
   -32.1909 -32.1891 -32.1472 -32.1248 -32.1050 -32.0991 -32.0620 -32.0390
   -32.0313 -32.0227 -31.9893 -31.9832 -31.9706 -31.9558 -31.9302 -31.8877
   -12.6884  -4.5328  -3.5400  -2.6905  -2.0894  -1.8839  -1.5084  -1.2217
    -0.9517  -0.8000  -0.6291  -0.4563  -0.3541  -0.0584   0.1685   0.2874
     0.3061   0.3717   0.5011   0.7865   0.8650   0.8982   0.9654   1.1350
     1.2739   1.3170   1.3888   1.5078   1.6734   1.7356   1.8516   1.9329
     2.0008   2.0915   2.2380   2.4140   2.6444   2.7162   2.8202   2.9797
     3.1982   3.3466   3.5208

          k = 0.0558-0.0967 0.0000 ( 19521 PWs)   bands (ev):

   -66.0520 -66.0305 -66.0295 -66.0049 -65.9393 -65.9357 -65.9351 -65.9068
   -65.8559 -65.8558 -65.8418 -65.8103 -32.5926 -32.5646 -32.5605 -32.5542
   -32.5430 -32.5164 -32.4853 -32.4821 -32.4720 -32.4277 -32.4206 -32.4166
   -32.4022 -32.3999 -32.3742 -32.3136 -32.3135 -32.3093 -32.2159 -32.1897
   -32.1885 -32.1803 -32.1747 -32.1374 -32.1255 -32.1224 -32.0360 -32.0292
   -32.0275 -32.0255 -31.9937 -31.9911 -31.9880 -31.9428 -31.9415 -31.9407
   -12.6866  -4.4629  -2.8300  -2.7746  -2.6542  -1.6510  -1.5866  -1.1539
    -0.8420  -0.5736  -0.1105  -0.0550  -0.0416   0.0467   0.0477   0.1310
     0.5963   0.6111   0.6428   0.6690   0.7479   0.8077   0.8282   0.8496
     0.8841   1.0550   1.2219   1.5442   1.5562   1.5632   1.6206   1.6889
     1.7812   1.8026   2.1083   2.1814   2.7230   2.9244   3.0602   3.1353
     3.3054   3.3842   3.4144

          k = 0.0558-0.0645 0.0000 ( 19521 PWs)   bands (ev):

   -66.0557 -66.0338 -66.0210 -66.0063 -65.9497 -65.9347 -65.9237 -65.9088
   -65.8633 -65.8508 -65.8394 -65.8104 -32.6317 -32.6157 -32.5929 -32.5776
   -32.5643 -32.5427 -32.5089 -32.4997 -32.4734 -32.4503 -32.4334 -32.4223
   -32.4014 -32.3655 -32.3494 -32.2939 -32.2887 -32.2319 -32.2115 -32.2011
   -32.1909 -32.1891 -32.1472 -32.1248 -32.1050 -32.0991 -32.0620 -32.0390
   -32.0313 -32.0227 -31.9893 -31.9832 -31.9706 -31.9557 -31.9302 -31.8877
   -12.6884  -4.5328  -3.5400  -2.6905  -2.0894  -1.8839  -1.5084  -1.2217
    -0.9517  -0.8000  -0.6291  -0.4563  -0.3541  -0.0584   0.1685   0.2874
     0.3061   0.3717   0.5011   0.7865   0.8650   0.8982   0.9654   1.1350
     1.2739   1.3170   1.3888   1.5078   1.6734   1.7356   1.8516   1.9329
     2.0008   2.0915   2.2380   2.4140   2.6443   2.7162   2.8202   2.9797
     3.1982   3.3466   3.5208

          k =-0.0837 0.0483 0.0000 ( 19532 PWs)   bands (ev):

   -66.0548 -66.0372 -66.0164 -66.0084 -65.9456 -65.9426 -65.9155 -65.9132
   -65.8620 -65.8537 -65.8376 -65.8107 -32.6280 -32.6194 -32.6084 -32.5833
   -32.5708 -32.5591 -32.4946 -32.4916 -32.4740 -32.4576 -32.4263 -32.4107
   -32.3667 -32.3546 -32.3068 -32.2986 -32.2694 -32.2614 -32.2460 -32.2353
   -32.1774 -32.1695 -32.1376 -32.1330 -32.1254 -32.1037 -32.0847 -32.0809
   -32.0091 -32.0067 -31.9861 -31.9845 -31.9791 -31.9672 -31.8952 -31.8817
   -12.6884  -4.5244  -3.3430  -3.1749  -2.0741  -1.6572  -1.2209  -1.1746
    -0.9168  -0.8934  -0.7190  -0.6238  -0.5086  -0.1203   0.2353   0.3476
     0.4957   0.5061   0.5187   0.5873   0.9643   1.0494   1.0571   1.0929
     1.2046   1.2446   1.5319   1.5997   1.7285   1.7333   1.8161   1.9018
     1.9635   2.0132   2.1368   2.5708   2.6049   2.6414   2.7015   2.8984
     3.0174   3.5581   3.6388

          k =-0.0837 0.0806 0.0000 ( 19521 PWs)   bands (ev):

   -66.0557 -66.0338 -66.0210 -66.0063 -65.9497 -65.9347 -65.9237 -65.9088
   -65.8633 -65.8508 -65.8394 -65.8104 -32.6317 -32.6157 -32.5929 -32.5776
   -32.5643 -32.5427 -32.5089 -32.4997 -32.4734 -32.4503 -32.4334 -32.4223
   -32.4014 -32.3655 -32.3494 -32.2939 -32.2887 -32.2319 -32.2115 -32.2011
   -32.1909 -32.1891 -32.1472 -32.1248 -32.1050 -32.0991 -32.0620 -32.0390
   -32.0313 -32.0227 -31.9893 -31.9832 -31.9706 -31.9557 -31.9302 -31.8877
   -12.6884  -4.5328  -3.5400  -2.6905  -2.0894  -1.8839  -1.5084  -1.2217
    -0.9517  -0.8001  -0.6291  -0.4563  -0.3541  -0.0584   0.1685   0.2874
     0.3061   0.3717   0.5011   0.7865   0.8650   0.8982   0.9654   1.1350
     1.2739   1.3170   1.3888   1.5078   1.6734   1.7356   1.8516   1.9329
     2.0008   2.0915   2.2380   2.4140   2.6443   2.7162   2.8202   2.9797
     3.1982   3.3466   3.5208

          k =-0.0837 0.1128 0.0000 ( 19521 PWs)   bands (ev):

   -66.0557 -66.0337 -66.0210 -66.0063 -65.9496 -65.9348 -65.9237 -65.9088
   -65.8633 -65.8508 -65.8394 -65.8104 -32.6317 -32.6157 -32.5929 -32.5776
   -32.5643 -32.5427 -32.5089 -32.4997 -32.4734 -32.4503 -32.4334 -32.4223
   -32.4014 -32.3655 -32.3494 -32.2939 -32.2887 -32.2319 -32.2115 -32.2011
   -32.1909 -32.1891 -32.1472 -32.1248 -32.1050 -32.0991 -32.0620 -32.0390
   -32.0313 -32.0227 -31.9892 -31.9833 -31.9706 -31.9558 -31.9302 -31.8877
   -12.6884  -4.5328  -3.5400  -2.6905  -2.0894  -1.8839  -1.5084  -1.2217
    -0.9517  -0.8000  -0.6291  -0.4563  -0.3541  -0.0584   0.1685   0.2874
     0.3061   0.3717   0.5011   0.7865   0.8650   0.8982   0.9654   1.1350
     1.2739   1.3170   1.3888   1.5078   1.6734   1.7356   1.8516   1.9329
     2.0008   2.0915   2.2380   2.4140   2.6444   2.7162   2.8202   2.9797
     3.1982   3.3466   3.5208

          k =-0.0837-0.0483 0.0000 ( 19532 PWs)   bands (ev):

   -66.0548 -66.0371 -66.0165 -66.0084 -65.9454 -65.9428 -65.9152 -65.9134
   -65.8619 -65.8538 -65.8375 -65.8107 -32.6280 -32.6194 -32.6084 -32.5833
   -32.5707 -32.5591 -32.4947 -32.4914 -32.4741 -32.4575 -32.4263 -32.4107
   -32.3667 -32.3546 -32.3068 -32.2986 -32.2694 -32.2615 -32.2459 -32.2354
   -32.1773 -32.1696 -32.1377 -32.1330 -32.1254 -32.1037 -32.0848 -32.0809
   -32.0091 -32.0068 -31.9860 -31.9844 -31.9792 -31.9673 -31.8951 -31.8817
   -12.6884  -4.5244  -3.3431  -3.1749  -2.0742  -1.6571  -1.2209  -1.1746
    -0.9168  -0.8935  -0.7190  -0.6238  -0.5086  -0.1203   0.2353   0.3476
     0.4956   0.5061   0.5187   0.5873   0.9642   1.0494   1.0571   1.0929
     1.2047   1.2446   1.5319   1.5997   1.7284   1.7333   1.8161   1.9018
     1.9634   2.0132   2.1369   2.5708   2.6049   2.6414   2.7015   2.8984
     3.0174   3.5582   3.6388

     the Fermi energy is     2.3488 ev

!    total energy              =   -1739.94684154 Ry
     Harris-Foulkes estimate   =   -1739.94684528 Ry
     estimated scf accuracy    <       0.00000428 Ry

     The total energy is the sum of the following terms:

     one-electron contribution =  -11743.72739620 Ry
     hartree contribution      =    5858.07875941 Ry
     xc contribution           =    -528.99147499 Ry
     ewald contribution        =    4674.79329353 Ry
     electric field correction =       0.00013565 Ry
     smearing contrib. (-TS)   =      -0.10015896 Ry

     convergence has been achieved in  13 iterations
 
 BEEF-vdW xc energy contributions
           1 :   -465.573335849177     
           2 :    429.608420397893     
           3 :   -366.866997813894     
           4 :    291.902621950401     
           5 :   -219.272843162606     
           6 :    159.072465210303     
           7 :   -114.934723369487     
           8 :    84.8630112244333     
           9 :   -63.9861040449850     
          10 :    47.6127559333236     
          11 :   -33.1535989250801     
          12 :    20.3349519531197     
          13 :   -10.1191879203456     
          14 :    3.29303247086034     
          15 :   0.395551386276907     
          16 :   -2.18840844570860     
          17 :    3.58598822830112     
          18 :   -5.51528123912829     
          19 :    7.92623744883991     
          20 :   -10.0117325807705     
          21 :    10.8571356177308     
          22 :   -10.0968123833776     
          23 :    8.18483280904826     
          24 :   -6.14501529193399     
          25 :    4.98315227646629     
          26 :   -5.13370053668655     
          27 :    6.26495786564976     
          28 :   -7.53408055764078     
          29 :    8.11070502117178     
          30 :   -7.64132850540364     
          31 :   -41.7260882184740     
          32 :   -30.9446417294271     

     Forces acting on atoms (Ry/au):


     negative rho (up, down):  1.178E+00 0.000E+00
     atom    1 type  1   force =    -0.00000057   -0.00000086    0.00384428
     atom    2 type  1   force =    -0.00000130    0.00164837    0.00538972
     atom    3 type  1   force =     0.00142923   -0.00082664    0.00539305
     atom    4 type  1   force =    -0.00142859   -0.00082215    0.00538463
     atom    5 type  1   force =     0.00122256   -0.00071700    0.00205443
     atom    6 type  1   force =    -0.00122387   -0.00069775    0.00203322
     atom    7 type  1   force =     0.00001991    0.00000157   -0.00260494
     atom    8 type  1   force =    -0.00001908    0.00141380    0.00204275
     atom    9 type  1   force =    -0.00479009   -0.00276753    0.05993389
     atom   10 type  1   force =     0.00478832   -0.00276105    0.05992963
     atom   11 type  1   force =     0.00000680    0.00552735    0.05993197
     atom   12 type  1   force =    -0.00000432    0.00000043   -0.03893365
     atom   13 type  2   force =     0.00000145    0.00000102   -0.11613684
     atom   14 type  3   force =    -0.00000046    0.00000045   -0.04826213

     Total force =     0.167929     Total SCF correction =     0.001860


     entering subroutine stress ...


     negative rho (up, down):  1.178E+00 0.000E+00
          total   stress  (Ry/bohr**3)                   (kbar)     P=  -36.79
  -0.00027675  -0.00000000  -0.00000000        -40.71     -0.00     -0.00
  -0.00000000  -0.00027675  -0.00000000         -0.00    -40.71     -0.00
  -0.00000000  -0.00000000  -0.00019683         -0.00     -0.00    -28.95


     BFGS Geometry Optimization

     number of scf cycles    =   1
     number of bfgs steps    =   0

     energy   new            =   -1739.9468415441 Ry

     new trust radius        =       0.1161368429 bohr
     new conv_thr            =       0.0000099958 Ry


ATOMIC_POSITIONS (crystal)
Ta1      0.166666667   0.166666667   0.401991699    0   0   0
Ta1      0.666666667   0.166666667   0.401991699    0   0   0
Ta1      0.166666667   0.666666667   0.401991699    0   0   0
Ta1      0.666666667   0.666666667   0.401991699    0   0   0
Ta1      0.833333333   0.333333333   0.500000000    0   0   0
Ta1      0.333333333   0.333333333   0.500000000    0   0   0
Ta1      0.833333333   0.833333333   0.500000000    0   0   0
Ta1      0.333333333   0.833333333   0.500000000    0   0   0
Ta1     -0.000282864  -0.000283167   0.599283244
Ta1      0.500565541  -0.000282503   0.599283153
Ta1     -0.000282169   0.500565543   0.599283203
Ta1      0.499999595   0.500000044   0.597180086
N1       0.166666743   0.166666771   0.658509782
H1       0.166666603   0.166666712   0.702162774



     Writing output data file calc.save
     Check: negative starting charge=   -1.121574
     NEW-OLD atomic charge density approx. for the potential
     Check: negative starting charge=   -1.119421

     negative rho (up, down):  1.176E+00 0.000E+00
 
     Adding external electric field

     Computed dipole along edir(3) : 
        Dipole                0.2367 Ry au,          0.6017 Debye
        Dipole field          0.0006 Ry au
 
        Potential amp.       -0.0526 Ry
        Total length         45.8339 bohr
 

     total cpu time spent up to now is      323.7 secs

     Self-consistent Calculation

     iteration #  1     ecut=    36.75 Ry     beta=0.30
     Davidson diagonalization with overlap
     ethr =  1.00E-06,  avg # of iterations =  8.0

     negative rho (up, down):  1.175E+00 0.000E+00
 
     Adding external electric field

     Computed dipole along edir(3) : 
        Dipole                0.1845 Ry au,          0.4688 Debye
        Dipole field          0.0004 Ry au
 
        Potential amp.       -0.0410 Ry
        Total length         45.8339 bohr
 

     total cpu time spent up to now is      349.4 secs

     total energy              =   -1739.96883773 Ry
     Harris-Foulkes estimate   =   -1739.97188459 Ry
     estimated scf accuracy    <       0.00743662 Ry

     iteration #  2     ecut=    36.75 Ry     beta=0.30
     Davidson diagonalization with overlap
     ethr =  4.59E-06,  avg # of iterations =  6.0

     negative rho (up, down):  1.175E+00 0.000E+00
 
     Adding external electric field

     Computed dipole along edir(3) : 
        Dipole                0.3175 Ry au,          0.8070 Debye
        Dipole field          0.0008 Ry au
 
        Potential amp.       -0.0705 Ry
        Total length         45.8339 bohr
 

     total cpu time spent up to now is      368.0 secs

     total energy              =   -1739.95690339 Ry
     Harris-Foulkes estimate   =   -1739.98124723 Ry
     estimated scf accuracy    <       0.91240170 Ry

     iteration #  3     ecut=    36.75 Ry     beta=0.30
     Davidson diagonalization with overlap
     ethr =  4.59E-06,  avg # of iterations =  6.4

     negative rho (up, down):  1.175E+00 0.000E+00
 
     Adding external electric field

     Computed dipole along edir(3) : 
        Dipole                0.2803 Ry au,          0.7125 Debye
        Dipole field          0.0007 Ry au
 
        Potential amp.       -0.0623 Ry
        Total length         45.8339 bohr
 

     total cpu time spent up to now is      386.3 secs

     total energy              =   -1739.96776673 Ry
     Harris-Foulkes estimate   =   -1739.97272170 Ry
     estimated scf accuracy    <       0.11913328 Ry

     iteration #  4     ecut=    36.75 Ry     beta=0.30
     Davidson diagonalization with overlap
     ethr =  4.59E-06,  avg # of iterations =  4.0

     negative rho (up, down):  1.175E+00 0.000E+00
 
     Adding external electric field

     Computed dipole along edir(3) : 
        Dipole                0.2686 Ry au,          0.6828 Debye
        Dipole field          0.0007 Ry au
 
        Potential amp.       -0.0597 Ry
        Total length         45.8339 bohr
 

     total cpu time spent up to now is      403.9 secs

     total energy              =   -1739.97012319 Ry
     Harris-Foulkes estimate   =   -1739.97096396 Ry
     estimated scf accuracy    <       0.00693067 Ry

     iteration #  5     ecut=    36.75 Ry     beta=0.30
     Davidson diagonalization with overlap
     ethr =  4.28E-06,  avg # of iterations =  2.0

     negative rho (up, down):  1.175E+00 0.000E+00
 
     Adding external electric field

     Computed dipole along edir(3) : 
        Dipole                0.2726 Ry au,          0.6928 Debye
        Dipole field          0.0007 Ry au
 
        Potential amp.       -0.0606 Ry
        Total length         45.8339 bohr
 

     total cpu time spent up to now is      418.4 secs

     total energy              =   -1739.97046044 Ry
     Harris-Foulkes estimate   =   -1739.97055957 Ry
     estimated scf accuracy    <       0.00053895 Ry

     iteration #  6     ecut=    36.75 Ry     beta=0.30
     Davidson diagonalization with overlap
     ethr =  3.33E-07,  avg # of iterations =  4.0

     negative rho (up, down):  1.175E+00 0.000E+00
 
     Adding external electric field

     Computed dipole along edir(3) : 
        Dipole                0.2737 Ry au,          0.6956 Debye
        Dipole field          0.0007 Ry au
 
        Potential amp.       -0.0608 Ry
        Total length         45.8339 bohr
 

     total cpu time spent up to now is      436.5 secs

     total energy              =   -1739.97054628 Ry
     Harris-Foulkes estimate   =   -1739.97055568 Ry
     estimated scf accuracy    <       0.00014519 Ry

     iteration #  7     ecut=    36.75 Ry     beta=0.30
     Davidson diagonalization with overlap
     ethr =  8.96E-08,  avg # of iterations =  3.4

     negative rho (up, down):  1.175E+00 0.000E+00
 
     Adding external electric field

     Computed dipole along edir(3) : 
        Dipole                0.2692 Ry au,          0.6843 Debye
        Dipole field          0.0007 Ry au
 
        Potential amp.       -0.0598 Ry
        Total length         45.8339 bohr
 

     total cpu time spent up to now is      453.9 secs

     total energy              =   -1739.97056249 Ry
     Harris-Foulkes estimate   =   -1739.97056644 Ry
     estimated scf accuracy    <       0.00004372 Ry

     iteration #  8     ecut=    36.75 Ry     beta=0.30
     Davidson diagonalization with overlap
     ethr =  2.70E-08,  avg # of iterations =  3.0

     negative rho (up, down):  1.175E+00 0.000E+00
 
     Adding external electric field

     Computed dipole along edir(3) : 
        Dipole                0.2678 Ry au,          0.6806 Debye
        Dipole field          0.0006 Ry au
 
        Potential amp.       -0.0595 Ry
        Total length         45.8339 bohr
 

     total cpu time spent up to now is      471.1 secs

     total energy              =   -1739.97056819 Ry
     Harris-Foulkes estimate   =   -1739.97056974 Ry
     estimated scf accuracy    <       0.00001506 Ry

     iteration #  9     ecut=    36.75 Ry     beta=0.30
     Davidson diagonalization with overlap
     ethr =  9.30E-09,  avg # of iterations =  2.9

     negative rho (up, down):  1.175E+00 0.000E+00

     negative rho (up, down):  1.175E+00 0.000E+00

     negative rho (up, down):  1.175E+00 0.000E+00

     negative rho (up, down):  1.175E+00 0.000E+00

     negative rho (up, down):  1.175E+00 0.000E+00

     negative rho (up, down):  1.175E+00 0.000E+00

     negative rho (up, down):  1.175E+00 0.000E+00

     negative rho (up, down):  1.175E+00 0.000E+00

     negative rho (up, down):  1.175E+00 0.000E+00

     negative rho (up, down):  1.175E+00 0.000E+00

     negative rho (up, down):  1.175E+00 0.000E+00

     negative rho (up, down):  1.175E+00 0.000E+00

     negative rho (up, down):  1.175E+00 0.000E+00

     negative rho (up, down):  1.175E+00 0.000E+00

     negative rho (up, down):  1.175E+00 0.000E+00

     negative rho (up, down):  1.175E+00 0.000E+00

     negative rho (up, down):  1.175E+00 0.000E+00

     negative rho (up, down):  1.175E+00 0.000E+00

     negative rho (up, down):  1.175E+00 0.000E+00

     negative rho (up, down):  1.175E+00 0.000E+00

     negative rho (up, down):  1.175E+00 0.000E+00

     negative rho (up, down):  1.175E+00 0.000E+00

     negative rho (up, down):  1.175E+00 0.000E+00

     negative rho (up, down):  1.175E+00 0.000E+00

     negative rho (up, down):  1.175E+00 0.000E+00

     negative rho (up, down):  1.175E+00 0.000E+00

     negative rho (up, down):  1.175E+00 0.000E+00

     negative rho (up, down):  1.175E+00 0.000E+00

     negative rho (up, down):  1.175E+00 0.000E+00

     negative rho (up, down):  1.175E+00 0.000E+00

     negative rho (up, down):  1.175E+00 0.000E+00

     negative rho (up, down):  1.175E+00 0.000E+00

     negative rho (up, down):  1.175E+00 0.000E+00

     negative rho (up, down):  1.175E+00 0.000E+00

     negative rho (up, down):  1.175E+00 0.000E+00
 
     Adding external electric field

     Computed dipole along edir(3) : 
        Dipole                0.2657 Ry au,          0.6754 Debye
        Dipole field          0.0006 Ry au
 
        Potential amp.       -0.0590 Ry
        Total length         45.8339 bohr
 

     total cpu time spent up to now is      529.4 secs

     End of self-consistent calculation

          k = 0.0000 0.0000 0.0000 ( 19447 PWs)   bands (ev):

   -66.0098 -65.9556 -65.9556 -65.9441 -65.9335 -65.8747 -65.8745 -65.8744
   -65.8413 -65.7969 -65.7969 -65.7753 -32.7163 -32.6934 -32.6934 -32.6560
   -32.6385 -32.6194 -32.6193 -32.5795 -32.5769 -32.5769 -32.3988 -32.3006
   -32.2933 -32.2933 -32.2164 -32.2164 -32.2143 -32.1158 -32.1158 -32.1142
   -32.0309 -32.0306 -32.0306 -32.0046 -32.0046 -31.9889 -31.9548 -31.9305
   -31.9305 -31.9237 -31.9180 -31.9180 -31.8459 -31.8459 -31.7763 -31.7763
   -12.7591  -5.2620  -4.5455  -3.1442  -2.2810  -1.9434  -1.9434  -1.6755
    -1.6755  -1.6153  -1.3883  -1.1249  -1.1249  -0.7004  -0.5900  -0.5900
    -0.1903  -0.1789  -0.1789   0.8411   0.8411   1.1498   1.7029   1.9162
     1.9603   1.9603   2.2317   2.2961   2.4443   2.4443   2.4967   2.7660
     2.7660   2.9673   3.0483   3.0483   3.1599   3.1628   3.1628   3.2234
     3.2234   3.5106   3.5106

          k = 0.0000 0.0322 0.0000 ( 19481 PWs)   bands (ev):

   -66.0060 -65.9584 -65.9556 -65.9450 -65.9296 -65.8785 -65.8746 -65.8745
   -65.8381 -65.7992 -65.7969 -65.7762 -32.6860 -32.6671 -32.6531 -32.6348
   -32.6165 -32.5959 -32.5868 -32.5540 -32.5519 -32.5351 -32.3957 -32.3240
   -32.3085 -32.3034 -32.2087 -32.2075 -32.2056 -32.1428 -32.1425 -32.1029
   -32.0710 -32.0696 -32.0188 -32.0033 -31.9913 -31.9888 -31.9754 -31.9542
   -31.9502 -31.9446 -31.9390 -31.9117 -31.8816 -31.8589 -31.8240 -31.7856
   -12.7540  -5.0895  -4.4145  -2.9554  -2.0845  -1.9438  -1.8145  -1.7156
    -1.5211  -1.4664  -1.2657  -0.9872  -0.9507  -0.5471  -0.4429  -0.4305
    -0.1346  -0.0835  -0.0692   0.8095   0.8422   1.1308   1.6055   1.9154
     1.9772   2.0574   2.1063   2.2184   2.2258   2.2965   2.3483   2.4820
     2.8403   2.9474   2.9536   2.9737   3.0144   3.0671   3.1654   3.1918
     3.2162   3.3352   3.4857

          k = 0.0000 0.0645 0.0000 ( 19517 PWs)   bands (ev):

   -65.9958 -65.9675 -65.9556 -65.9462 -65.9189 -65.8894 -65.8746 -65.8745
   -65.8297 -65.8061 -65.7969 -65.7777 -32.6184 -32.6016 -32.5897 -32.5627
   -32.5419 -32.5412 -32.5109 -32.4944 -32.4907 -32.4257 -32.3925 -32.3508
   -32.3396 -32.3320 -32.2105 -32.2089 -32.1896 -32.1870 -32.1754 -32.1342
   -32.1327 -32.1285 -32.0696 -32.0539 -32.0275 -32.0212 -31.9877 -31.9773
   -31.9705 -31.9672 -31.9583 -31.9525 -31.9168 -31.8948 -31.8848 -31.8117
   -12.7439  -4.7436  -3.9842  -2.5469  -2.3144  -1.7261  -1.5320  -1.3817
    -1.1954  -1.1467  -0.9282  -0.6970  -0.6105  -0.2146  -0.0050   0.0107
     0.0334   0.2734   0.3164   0.7734   0.8883   1.0651   1.2359   1.5147
     1.6086   1.6093   1.7040   1.8808   2.2071   2.2459   2.2840   2.3327
     2.3774   2.4116   2.4719   2.5787   2.7282   2.7815   2.8174   3.0581
     3.1622   3.4021   3.4439

          k = 0.0000-0.0967 0.0000 ( 19532 PWs)   bands (ev):

   -65.9843 -65.9787 -65.9556 -65.9466 -65.9044 -65.9039 -65.8747 -65.8745
   -65.8211 -65.8140 -65.7969 -65.7783 -32.5700 -32.5545 -32.5488 -32.5301
   -32.5206 -32.5114 -32.4529 -32.4440 -32.4208 -32.4105 -32.3747 -32.3624
   -32.3112 -32.2972 -32.2478 -32.2422 -32.2229 -32.2222 -32.1992 -32.1985
   -32.1336 -32.1318 -32.0957 -32.0926 -32.0840 -32.0695 -32.0261 -32.0193
   -31.9692 -31.9634 -31.9438 -31.9413 -31.9397 -31.9354 -31.8528 -31.8436
   -12.7389  -4.5917  -3.3021  -3.1290  -2.0995  -1.6148  -1.3757  -1.1927
    -0.8942  -0.8493  -0.6686  -0.5705  -0.4779  -0.1361   0.2913   0.3947
     0.5550   0.5574   0.5758   0.6514   1.0175   1.1097   1.1101   1.1379
     1.2487   1.3057   1.5490   1.6670   1.7663   1.7688   1.8445   1.9538
     2.0196   2.0564   2.1780   2.6078   2.6455   2.6761   2.7398   2.9494
     3.1262   3.6246   3.7269

          k = 0.0279-0.0161 0.0000 ( 19481 PWs)   bands (ev):

   -66.0060 -65.9584 -65.9556 -65.9450 -65.9296 -65.8785 -65.8747 -65.8744
   -65.8381 -65.7992 -65.7969 -65.7762 -32.6860 -32.6671 -32.6531 -32.6348
   -32.6165 -32.5959 -32.5868 -32.5540 -32.5520 -32.5351 -32.3957 -32.3240
   -32.3085 -32.3034 -32.2087 -32.2076 -32.2056 -32.1428 -32.1425 -32.1029
   -32.0710 -32.0696 -32.0188 -32.0033 -31.9913 -31.9887 -31.9754 -31.9542
   -31.9502 -31.9446 -31.9390 -31.9117 -31.8816 -31.8589 -31.8240 -31.7856
   -12.7540  -5.0895  -4.4145  -2.9554  -2.0845  -1.9438  -1.8145  -1.7156
    -1.5211  -1.4664  -1.2657  -0.9872  -0.9507  -0.5471  -0.4429  -0.4305
    -0.1346  -0.0835  -0.0692   0.8095   0.8422   1.1308   1.6055   1.9154
     1.9772   2.0574   2.1063   2.2184   2.2258   2.2965   2.3483   2.4820
     2.8403   2.9474   2.9536   2.9737   3.0144   3.0671   3.1654   3.1918
     3.2162   3.3352   3.4857

          k = 0.0279 0.0161 0.0000 ( 19481 PWs)   bands (ev):

   -66.0060 -65.9584 -65.9556 -65.9450 -65.9296 -65.8785 -65.8746 -65.8745
   -65.8381 -65.7992 -65.7969 -65.7762 -32.6860 -32.6671 -32.6531 -32.6348
   -32.6165 -32.5959 -32.5868 -32.5541 -32.5519 -32.5351 -32.3957 -32.3240
   -32.3085 -32.3034 -32.2087 -32.2075 -32.2056 -32.1428 -32.1425 -32.1029
   -32.0710 -32.0696 -32.0188 -32.0033 -31.9913 -31.9888 -31.9754 -31.9541
   -31.9502 -31.9446 -31.9390 -31.9117 -31.8816 -31.8589 -31.8240 -31.7856
   -12.7540  -5.0895  -4.4145  -2.9554  -2.0845  -1.9438  -1.8145  -1.7156
    -1.5211  -1.4664  -1.2657  -0.9872  -0.9507  -0.5471  -0.4429  -0.4305
    -0.1346  -0.0835  -0.0691   0.8095   0.8422   1.1308   1.6055   1.9154
     1.9772   2.0574   2.1063   2.2184   2.2258   2.2965   2.3483   2.4820
     2.8403   2.9474   2.9536   2.9737   3.0144   3.0671   3.1654   3.1918
     3.2162   3.3352   3.4857

          k = 0.0279 0.0483 0.0000 ( 19485 PWs)   bands (ev):

   -65.9990 -65.9628 -65.9581 -65.9453 -65.9223 -65.8822 -65.8818 -65.8711
   -65.8323 -65.8030 -65.7979 -65.7772 -32.6430 -32.6066 -32.5966 -32.5893
   -32.5758 -32.5475 -32.5377 -32.5202 -32.4791 -32.4770 -32.3926 -32.3497
   -32.3407 -32.3163 -32.2318 -32.1942 -32.1907 -32.1901 -32.1594 -32.1176
   -32.1131 -32.0866 -32.0418 -32.0404 -32.0309 -32.0132 -31.9863 -31.9743
   -31.9681 -31.9616 -31.9296 -31.9251 -31.9193 -31.9103 -31.8702 -31.8093
   -12.7464  -4.8285  -4.1330  -2.6175  -2.0390  -1.8774  -1.6796  -1.5749
    -1.4377  -1.0981  -0.9919  -0.7426  -0.6810  -0.2792  -0.1598  -0.1278
    -0.0504   0.1253   0.2103   0.7742   0.8423   1.0975   1.3954   1.6650
     1.6806   1.7778   1.8489   1.9298   2.1765   2.2955   2.3498   2.4481
     2.4701   2.4913   2.6003   2.6853   2.8514   2.8704   2.9350   3.1145
     3.2881   3.3475   3.3856

          k = 0.0279-0.1128 0.0000 ( 19521 PWs)   bands (ev):

   -65.9872 -65.9726 -65.9609 -65.9445 -65.9096 -65.8948 -65.8840 -65.8691
   -65.8228 -65.8104 -65.7994 -65.7777 -32.5733 -32.5545 -32.5333 -32.5234
   -32.5109 -32.4923 -32.4575 -32.4557 -32.4257 -32.4005 -32.3815 -32.3699
   -32.3562 -32.3125 -32.3065 -32.2460 -32.2343 -32.1842 -32.1699 -32.1525
   -32.1502 -32.1430 -32.1068 -32.0676 -32.0621 -32.0556 -32.0105 -31.9937
   -31.9908 -31.9830 -31.9476 -31.9409 -31.9349 -31.9174 -31.8901 -31.8481
   -12.7389  -4.5972  -3.5007  -2.6551  -2.0971  -1.8578  -1.5140  -1.3142
    -0.9717  -0.7725  -0.6090  -0.4206  -0.3145  -0.0438   0.2279   0.3395
     0.3704   0.4236   0.5551   0.8334   0.9192   0.9533   1.0202   1.1893
     1.3218   1.3659   1.4235   1.5661   1.7132   1.7785   1.8884   1.9835
     2.0452   2.1398   2.2780   2.4520   2.6764   2.7598   2.8673   3.0386
     3.2688   3.4071   3.5869

          k = 0.0279-0.0806 0.0000 ( 19521 PWs)   bands (ev):

   -65.9872 -65.9726 -65.9609 -65.9445 -65.9096 -65.8948 -65.8840 -65.8691
   -65.8228 -65.8104 -65.7994 -65.7777 -32.5734 -32.5545 -32.5333 -32.5234
   -32.5109 -32.4923 -32.4575 -32.4557 -32.4257 -32.4005 -32.3815 -32.3699
   -32.3562 -32.3125 -32.3065 -32.2460 -32.2343 -32.1842 -32.1699 -32.1525
   -32.1503 -32.1430 -32.1067 -32.0676 -32.0621 -32.0556 -32.0105 -31.9937
   -31.9908 -31.9830 -31.9476 -31.9409 -31.9349 -31.9174 -31.8901 -31.8481
   -12.7389  -4.5972  -3.5007  -2.6551  -2.0971  -1.8578  -1.5140  -1.3142
    -0.9717  -0.7725  -0.6090  -0.4206  -0.3145  -0.0438   0.2279   0.3395
     0.3704   0.4236   0.5551   0.8334   0.9192   0.9533   1.0202   1.1893
     1.3218   1.3659   1.4235   1.5661   1.7132   1.7785   1.8884   1.9835
     2.0452   2.1398   2.2780   2.4520   2.6764   2.7598   2.8673   3.0386
     3.2688   3.4071   3.5869

          k = 0.0279-0.0483 0.0000 ( 19485 PWs)   bands (ev):

   -65.9990 -65.9628 -65.9581 -65.9452 -65.9223 -65.8821 -65.8819 -65.8711
   -65.8323 -65.8029 -65.7979 -65.7772 -32.6430 -32.6066 -32.5966 -32.5893
   -32.5758 -32.5474 -32.5377 -32.5202 -32.4791 -32.4770 -32.3926 -32.3497
   -32.3407 -32.3163 -32.2318 -32.1942 -32.1907 -32.1901 -32.1594 -32.1176
   -32.1131 -32.0866 -32.0418 -32.0404 -32.0309 -32.0132 -31.9863 -31.9743
   -31.9681 -31.9616 -31.9296 -31.9251 -31.9193 -31.9103 -31.8702 -31.8093
   -12.7464  -4.8285  -4.1330  -2.6175  -2.0390  -1.8774  -1.6796  -1.5749
    -1.4377  -1.0981  -0.9919  -0.7426  -0.6810  -0.2792  -0.1598  -0.1278
    -0.0504   0.1253   0.2103   0.7742   0.8423   1.0975   1.3954   1.6650
     1.6806   1.7778   1.8489   1.9298   2.1765   2.2955   2.3498   2.4481
     2.4701   2.4913   2.6003   2.6853   2.8514   2.8704   2.9350   3.1145
     3.2881   3.3475   3.3856

          k = 0.0558-0.0322 0.0000 ( 19517 PWs)   bands (ev):

   -65.9958 -65.9675 -65.9556 -65.9462 -65.9189 -65.8894 -65.8747 -65.8744
   -65.8297 -65.8061 -65.7969 -65.7777 -32.6184 -32.6016 -32.5897 -32.5627
   -32.5419 -32.5412 -32.5109 -32.4944 -32.4908 -32.4257 -32.3925 -32.3508
   -32.3396 -32.3319 -32.2105 -32.2089 -32.1896 -32.1870 -32.1754 -32.1343
   -32.1327 -32.1285 -32.0696 -32.0539 -32.0275 -32.0212 -31.9877 -31.9773
   -31.9705 -31.9672 -31.9583 -31.9525 -31.9168 -31.8948 -31.8848 -31.8117
   -12.7439  -4.7436  -3.9842  -2.5469  -2.3144  -1.7261  -1.5320  -1.3817
    -1.1954  -1.1467  -0.9282  -0.6970  -0.6105  -0.2146  -0.0050   0.0107
     0.0334   0.2734   0.3164   0.7734   0.8883   1.0651   1.2359   1.5147
     1.6086   1.6093   1.7040   1.8808   2.2071   2.2459   2.2840   2.3327
     2.3774   2.4116   2.4719   2.5787   2.7282   2.7815   2.8174   3.0581
     3.1622   3.4021   3.4439

          k = 0.0558 0.0000 0.0000 ( 19485 PWs)   bands (ev):

   -65.9990 -65.9628 -65.9581 -65.9453 -65.9223 -65.8821 -65.8819 -65.8711
   -65.8323 -65.8029 -65.7979 -65.7772 -32.6430 -32.6066 -32.5966 -32.5893
   -32.5758 -32.5474 -32.5377 -32.5202 -32.4791 -32.4770 -32.3926 -32.3497
   -32.3407 -32.3163 -32.2318 -32.1942 -32.1907 -32.1901 -32.1594 -32.1176
   -32.1131 -32.0866 -32.0418 -32.0404 -32.0309 -32.0132 -31.9863 -31.9743
   -31.9681 -31.9616 -31.9296 -31.9251 -31.9193 -31.9103 -31.8702 -31.8093
   -12.7464  -4.8285  -4.1330  -2.6175  -2.0390  -1.8774  -1.6796  -1.5749
    -1.4377  -1.0981  -0.9919  -0.7426  -0.6810  -0.2792  -0.1598  -0.1278
    -0.0504   0.1253   0.2103   0.7742   0.8423   1.0975   1.3954   1.6650
     1.6806   1.7778   1.8489   1.9298   2.1765   2.2955   2.3498   2.4481
     2.4701   2.4913   2.6003   2.6853   2.8514   2.8704   2.9350   3.1145
     3.2881   3.3475   3.3856

          k = 0.0558 0.0322 0.0000 ( 19517 PWs)   bands (ev):

   -65.9958 -65.9675 -65.9556 -65.9462 -65.9189 -65.8894 -65.8746 -65.8745
   -65.8297 -65.8061 -65.7969 -65.7777 -32.6184 -32.6016 -32.5897 -32.5627
   -32.5419 -32.5412 -32.5109 -32.4945 -32.4907 -32.4257 -32.3925 -32.3508
   -32.3396 -32.3319 -32.2105 -32.2089 -32.1896 -32.1870 -32.1754 -32.1342
   -32.1328 -32.1285 -32.0696 -32.0539 -32.0275 -32.0212 -31.9877 -31.9773
   -31.9705 -31.9672 -31.9583 -31.9525 -31.9168 -31.8948 -31.8848 -31.8117
   -12.7439  -4.7436  -3.9842  -2.5469  -2.3144  -1.7261  -1.5320  -1.3817
    -1.1954  -1.1467  -0.9282  -0.6970  -0.6105  -0.2146  -0.0050   0.0107
     0.0333   0.2734   0.3164   0.7734   0.8883   1.0651   1.2359   1.5147
     1.6086   1.6093   1.7040   1.8808   2.2071   2.2459   2.2840   2.3327
     2.3774   2.4116   2.4719   2.5787   2.7282   2.7815   2.8174   3.0581
     3.1622   3.4021   3.4439

          k = 0.0558-0.1289 0.0000 ( 19521 PWs)   bands (ev):

   -65.9872 -65.9726 -65.9609 -65.9445 -65.9096 -65.8948 -65.8840 -65.8691
   -65.8228 -65.8104 -65.7994 -65.7777 -32.5733 -32.5545 -32.5333 -32.5234
   -32.5109 -32.4923 -32.4575 -32.4558 -32.4257 -32.4005 -32.3815 -32.3699
   -32.3562 -32.3125 -32.3065 -32.2460 -32.2343 -32.1842 -32.1699 -32.1525
   -32.1502 -32.1430 -32.1068 -32.0676 -32.0621 -32.0556 -32.0105 -31.9937
   -31.9908 -31.9830 -31.9476 -31.9409 -31.9349 -31.9174 -31.8901 -31.8481
   -12.7389  -4.5971  -3.5007  -2.6551  -2.0971  -1.8578  -1.5140  -1.3142
    -0.9717  -0.7725  -0.6090  -0.4206  -0.3145  -0.0438   0.2279   0.3395
     0.3704   0.4236   0.5551   0.8334   0.9192   0.9533   1.0202   1.1893
     1.3218   1.3659   1.4235   1.5661   1.7132   1.7785   1.8884   1.9835
     2.0452   2.1398   2.2780   2.4520   2.6764   2.7598   2.8673   3.0386
     3.2688   3.4071   3.5869

          k = 0.0558-0.0967 0.0000 ( 19521 PWs)   bands (ev):

   -65.9772 -65.9770 -65.9679 -65.9430 -65.8972 -65.8968 -65.8964 -65.8671
   -65.8152 -65.8149 -65.8028 -65.7774 -32.5243 -32.5115 -32.5060 -32.4929
   -32.4878 -32.4636 -32.4351 -32.4324 -32.4254 -32.3862 -32.3735 -32.3566
   -32.3519 -32.3420 -32.3286 -32.2727 -32.2700 -32.2695 -32.1641 -32.1502
   -32.1469 -32.1404 -32.1349 -32.0807 -32.0694 -32.0671 -31.9941 -31.9871
   -31.9852 -31.9849 -31.9517 -31.9515 -31.9511 -31.9040 -31.9031 -31.9017
   -12.7364  -4.5352  -2.8095  -2.7287  -2.5990  -1.7138  -1.6279  -1.0922
    -0.9513  -0.6408  -0.0444   0.0077   0.0089   0.0736   0.1360   0.1741
     0.6396   0.6609   0.7049   0.7227   0.8049   0.8752   0.8786   0.8896
     0.9371   1.0981   1.2492   1.5861   1.5934   1.6333   1.6662   1.7438
     1.8196   1.8534   2.1498   2.2214   2.7528   2.9857   3.1439   3.1560
     3.3589   3.4136   3.4732

          k = 0.0558-0.0645 0.0000 ( 19521 PWs)   bands (ev):

   -65.9872 -65.9726 -65.9609 -65.9445 -65.9096 -65.8948 -65.8840 -65.8691
   -65.8228 -65.8104 -65.7994 -65.7777 -32.5734 -32.5545 -32.5333 -32.5234
   -32.5109 -32.4923 -32.4575 -32.4557 -32.4257 -32.4005 -32.3815 -32.3699
   -32.3562 -32.3125 -32.3065 -32.2460 -32.2343 -32.1842 -32.1699 -32.1525
   -32.1502 -32.1430 -32.1067 -32.0676 -32.0621 -32.0556 -32.0105 -31.9937
   -31.9908 -31.9830 -31.9476 -31.9409 -31.9349 -31.9174 -31.8901 -31.8481
   -12.7389  -4.5972  -3.5007  -2.6551  -2.0971  -1.8578  -1.5140  -1.3142
    -0.9717  -0.7725  -0.6090  -0.4206  -0.3145  -0.0438   0.2279   0.3395
     0.3704   0.4236   0.5551   0.8334   0.9192   0.9533   1.0202   1.1893
     1.3218   1.3659   1.4235   1.5661   1.7132   1.7785   1.8884   1.9835
     2.0452   2.1398   2.2780   2.4520   2.6764   2.7598   2.8673   3.0386
     3.2688   3.4071   3.5869

          k =-0.0837 0.0483 0.0000 ( 19532 PWs)   bands (ev):

   -65.9843 -65.9787 -65.9557 -65.9465 -65.9045 -65.9039 -65.8747 -65.8745
   -65.8211 -65.8140 -65.7969 -65.7783 -32.5700 -32.5545 -32.5488 -32.5301
   -32.5206 -32.5114 -32.4529 -32.4440 -32.4208 -32.4106 -32.3747 -32.3624
   -32.3112 -32.2972 -32.2478 -32.2422 -32.2229 -32.2221 -32.1992 -32.1985
   -32.1336 -32.1317 -32.0957 -32.0926 -32.0840 -32.0695 -32.0261 -32.0193
   -31.9692 -31.9634 -31.9438 -31.9414 -31.9397 -31.9354 -31.8528 -31.8436
   -12.7389  -4.5917  -3.3021  -3.1290  -2.0995  -1.6148  -1.3757  -1.1927
    -0.8942  -0.8493  -0.6686  -0.5705  -0.4779  -0.1361   0.2912   0.3947
     0.5550   0.5574   0.5758   0.6514   1.0175   1.1097   1.1101   1.1379
     1.2487   1.3057   1.5490   1.6670   1.7663   1.7688   1.8445   1.9538
     2.0196   2.0564   2.1780   2.6078   2.6455   2.6761   2.7398   2.9494
     3.1262   3.6246   3.7269

          k =-0.0837 0.0806 0.0000 ( 19521 PWs)   bands (ev):

   -65.9872 -65.9726 -65.9609 -65.9445 -65.9096 -65.8948 -65.8840 -65.8691
   -65.8228 -65.8104 -65.7994 -65.7777 -32.5734 -32.5545 -32.5333 -32.5234
   -32.5109 -32.4923 -32.4575 -32.4557 -32.4257 -32.4005 -32.3815 -32.3699
   -32.3562 -32.3125 -32.3065 -32.2460 -32.2343 -32.1842 -32.1699 -32.1525
   -32.1502 -32.1430 -32.1067 -32.0676 -32.0621 -32.0556 -32.0105 -31.9937
   -31.9908 -31.9830 -31.9476 -31.9409 -31.9349 -31.9174 -31.8901 -31.8481
   -12.7389  -4.5972  -3.5007  -2.6551  -2.0971  -1.8578  -1.5140  -1.3142
    -0.9717  -0.7725  -0.6090  -0.4206  -0.3145  -0.0438   0.2279   0.3395
     0.3704   0.4236   0.5551   0.8334   0.9192   0.9533   1.0202   1.1893
     1.3218   1.3659   1.4235   1.5661   1.7132   1.7785   1.8884   1.9835
     2.0452   2.1398   2.2780   2.4520   2.6764   2.7598   2.8673   3.0386
     3.2688   3.4071   3.5869

          k =-0.0837 0.1128 0.0000 ( 19521 PWs)   bands (ev):

   -65.9872 -65.9726 -65.9609 -65.9445 -65.9096 -65.8948 -65.8840 -65.8691
   -65.8228 -65.8104 -65.7994 -65.7777 -32.5733 -32.5545 -32.5333 -32.5234
   -32.5109 -32.4923 -32.4575 -32.4558 -32.4257 -32.4005 -32.3815 -32.3699
   -32.3562 -32.3125 -32.3065 -32.2460 -32.2343 -32.1842 -32.1699 -32.1525
   -32.1503 -32.1430 -32.1067 -32.0676 -32.0621 -32.0556 -32.0105 -31.9937
   -31.9908 -31.9830 -31.9476 -31.9409 -31.9349 -31.9174 -31.8901 -31.8481
   -12.7389  -4.5971  -3.5007  -2.6551  -2.0971  -1.8578  -1.5140  -1.3142
    -0.9717  -0.7725  -0.6090  -0.4206  -0.3145  -0.0438   0.2279   0.3395
     0.3704   0.4236   0.5551   0.8334   0.9192   0.9533   1.0202   1.1893
     1.3218   1.3659   1.4235   1.5661   1.7132   1.7785   1.8884   1.9835
     2.0452   2.1398   2.2780   2.4520   2.6764   2.7598   2.8673   3.0386
     3.2688   3.4071   3.5869

          k =-0.0837-0.0483 0.0000 ( 19532 PWs)   bands (ev):

   -65.9843 -65.9788 -65.9556 -65.9466 -65.9044 -65.9040 -65.8746 -65.8746
   -65.8211 -65.8140 -65.7969 -65.7783 -32.5700 -32.5545 -32.5488 -32.5301
   -32.5206 -32.5114 -32.4530 -32.4439 -32.4208 -32.4105 -32.3748 -32.3624
   -32.3112 -32.2972 -32.2478 -32.2422 -32.2229 -32.2222 -32.1992 -32.1984
   -32.1336 -32.1318 -32.0957 -32.0926 -32.0840 -32.0695 -32.0261 -32.0193
   -31.9692 -31.9634 -31.9438 -31.9413 -31.9398 -31.9354 -31.8528 -31.8436
   -12.7389  -4.5917  -3.3021  -3.1290  -2.0995  -1.6148  -1.3757  -1.1927
    -0.8942  -0.8493  -0.6686  -0.5705  -0.4779  -0.1361   0.2912   0.3947
     0.5550   0.5574   0.5758   0.6514   1.0175   1.1097   1.1101   1.1379
     1.2487   1.3057   1.5490   1.6670   1.7663   1.7688   1.8445   1.9538
     2.0196   2.0564   2.1780   2.6078   2.6455   2.6761   2.7398   2.9494
     3.1262   3.6246   3.7269

     the Fermi energy is     2.3901 ev

!    total energy              =   -1739.97056867 Ry
     Harris-Foulkes estimate   =   -1739.97057198 Ry
     estimated scf accuracy    <       0.00000252 Ry

     The total energy is the sum of the following terms:

     one-electron contribution =  -11730.07951334 Ry
     hartree contribution      =    5851.39006455 Ry
     xc contribution           =    -528.98134562 Ry
     ewald contribution        =    4667.79988794 Ry
     electric field correction =       0.00017115 Ry
     smearing contrib. (-TS)   =      -0.09983334 Ry

     convergence has been achieved in   9 iterations
 
 BEEF-vdW xc energy contributions
           1 :   -465.566811797033     
           2 :    429.609217404337     
           3 :   -366.874164674055     
           4 :    291.909570436550     
           5 :   -219.273620707445     
           6 :    159.064072228958     
           7 :   -114.915656198804     
           8 :    84.8312500058332     
           9 :   -63.9393158475422     
          10 :    47.5511690182043     
          11 :   -33.0834883926482     
          12 :    20.2692870404115     
          13 :   -10.0728586203011     
          14 :    3.27566571333870     
          15 :   0.383920379424808     
          16 :   -2.15786941383521     
          17 :    3.55298435363619     
          18 :   -5.49457137272657     
          19 :    7.92353533903110     
          20 :   -10.0219004239113     
          21 :    10.8686826330432     
          22 :   -10.0997156625221     
          23 :    8.17662682906138     
          24 :   -6.13146237709799     
          25 :    4.97319529370043     
          26 :   -5.13204827712110     
          27 :    6.26839690494415     
          28 :   -7.53403663240374     
          29 :    8.09960990851010     
          30 :   -7.61942156639560     
          31 :   -41.7255765441108     
          32 :   -30.9455659743022     

     Forces acting on atoms (Ry/au):


     negative rho (up, down):  1.175E+00 0.000E+00
     atom    1 type  1   force =    -0.00000129   -0.00000101    0.00340975
     atom    2 type  1   force =     0.00000135    0.00126004    0.00458368
     atom    3 type  1   force =     0.00109157   -0.00062877    0.00458485
     atom    4 type  1   force =    -0.00109227   -0.00063062    0.00458183
     atom    5 type  1   force =     0.00399770   -0.00231236    0.00569793
     atom    6 type  1   force =    -0.00399753   -0.00230457    0.00568767
     atom    7 type  1   force =     0.00000681    0.00000061    0.00766295
     atom    8 type  1   force =    -0.00000659    0.00461642    0.00569350
     atom    9 type  1   force =    -0.00385523   -0.00222636    0.04424016
     atom   10 type  1   force =     0.00385525   -0.00222671    0.04423907
     atom   11 type  1   force =    -0.00000051    0.00445203    0.04423966
     atom   12 type  1   force =     0.00000101    0.00000071   -0.03964199
     atom   13 type  2   force =    -0.00000070    0.00000061   -0.04506491
     atom   14 type  3   force =     0.00000043    0.00000001   -0.08991414

     Total force =     0.132732     Total SCF correction =     0.003798


     entering subroutine stress ...


     negative rho (up, down):  1.175E+00 0.000E+00
          total   stress  (Ry/bohr**3)                   (kbar)     P=  -37.13
  -0.00027392  -0.00000000  -0.00000000        -40.30     -0.00     -0.00
  -0.00000000  -0.00027392   0.00000000         -0.00    -40.30      0.00
  -0.00000000   0.00000000  -0.00020946         -0.00      0.00    -30.81


     number of scf cycles    =   2
     number of bfgs steps    =   1

     energy   old            =   -1739.9468415441 Ry
     energy   new            =   -1739.9705686684 Ry

     CASE: energy  _new < energy  _old

     new trust radius        =       0.1277505272 bohr
     new conv_thr            =       0.0000001000 Ry


ATOMIC_POSITIONS (crystal)
Ta1      0.166666667   0.166666667   0.401991699    0   0   0
Ta1      0.666666667   0.166666667   0.401991699    0   0   0
Ta1      0.166666667   0.666666667   0.401991699    0   0   0
Ta1      0.666666667   0.666666667   0.401991699    0   0   0
Ta1      0.833333333   0.333333333   0.500000000    0   0   0
Ta1      0.333333333   0.333333333   0.500000000    0   0   0
Ta1      0.833333333   0.833333333   0.500000000    0   0   0
Ta1      0.333333333   0.833333333   0.500000000    0   0   0
Ta1     -0.000697822  -0.000698391   0.601058482
Ta1      0.501395467  -0.000697389   0.601058314
Ta1     -0.000696836   0.501395463   0.601058406
Ta1      0.499999425   0.500000150   0.595768190
N1       0.166666682   0.166666900   0.656034532
H1       0.166666609   0.166666739   0.699445203



     Writing output data file calc.save
     Check: negative starting charge=   -1.119421
     NEW-OLD atomic charge density approx. for the potential
     Check: negative starting charge=   -1.121867

     negative rho (up, down):  1.178E+00 0.000E+00
 
     Adding external electric field

     Computed dipole along edir(3) : 
        Dipole                0.2659 Ry au,          0.6760 Debye
        Dipole field          0.0006 Ry au
 
        Potential amp.       -0.0591 Ry
        Total length         45.8339 bohr
 

     total cpu time spent up to now is      578.8 secs

     Self-consistent Calculation

     iteration #  1     ecut=    36.75 Ry     beta=0.30
     Davidson diagonalization with overlap
     ethr =  1.00E-06,  avg # of iterations =  8.8

     negative rho (up, down):  1.178E+00 0.000E+00
 
     Adding external electric field

     Computed dipole along edir(3) : 
        Dipole                0.0672 Ry au,          0.1708 Debye
        Dipole field          0.0002 Ry au
 
        Potential amp.       -0.0149 Ry
        Total length         45.8339 bohr
 

     total cpu time spent up to now is      608.3 secs

     total energy              =   -1739.99162595 Ry
     Harris-Foulkes estimate   =   -1739.99718203 Ry
     estimated scf accuracy    <       0.01315184 Ry

     iteration #  2     ecut=    36.75 Ry     beta=0.30
     Davidson diagonalization with overlap
     ethr =  8.12E-06,  avg # of iterations =  7.6

     negative rho (up, down):  1.178E+00 0.000E+00
 
     Adding external electric field

     Computed dipole along edir(3) : 
        Dipole                0.3141 Ry au,          0.7983 Debye
        Dipole field          0.0008 Ry au
 
        Potential amp.       -0.0698 Ry
        Total length         45.8339 bohr
 

     total cpu time spent up to now is      627.7 secs

     total energy              =   -1739.94472748 Ry
     Harris-Foulkes estimate   =   -1740.04445103 Ry
     estimated scf accuracy    <       4.56584708 Ry

     iteration #  3     ecut=    36.75 Ry     beta=0.30
     Davidson diagonalization with overlap
     ethr =  8.12E-06,  avg # of iterations =  6.4

     negative rho (up, down):  1.178E+00 0.000E+00
 
     Adding external electric field

     Computed dipole along edir(3) : 
        Dipole                0.2993 Ry au,          0.7607 Debye
        Dipole field          0.0007 Ry au
 
        Potential amp.       -0.0665 Ry
        Total length         45.8339 bohr
 

     total cpu time spent up to now is      646.7 secs

     total energy              =   -1739.99355292 Ry
     Harris-Foulkes estimate   =   -1739.99695116 Ry
     estimated scf accuracy    <       0.04033053 Ry

     iteration #  4     ecut=    36.75 Ry     beta=0.30
     Davidson diagonalization with overlap
     ethr =  8.12E-06,  avg # of iterations =  3.6

     negative rho (up, down):  1.178E+00 0.000E+00
 
     Adding external electric field

     Computed dipole along edir(3) : 
        Dipole                0.2978 Ry au,          0.7570 Debye
        Dipole field          0.0007 Ry au
 
        Potential amp.       -0.0662 Ry
        Total length         45.8339 bohr
 

[...]
   -13.7777  -5.4490  -4.1849  -2.7681  -2.4118  -2.2707  -1.7727  -1.6610
    -1.4260  -1.0181  -0.9609  -0.8619  -0.7038  -0.2328  -0.0969  -0.0786
    -0.0538   0.2000   0.3212   0.8241   0.8707   1.2090   1.4700   1.6458
     1.7321   1.8361   1.8875   2.0039   2.1661   2.4297   2.4537   2.5222
     2.5769   2.6200   2.6293   2.8048   2.9237   3.0051   3.1021   3.1506
     3.3337   3.4127   3.4765

          k = 0.0558-0.0322 0.0000 ( 19517 PWs)   bands (ev):

   -65.8678 -65.8391 -65.8298 -65.8223 -65.7931 -65.7792 -65.7757 -65.7259
   -65.6980 -65.6855 -65.6777 -65.6333 -32.5551 -32.5182 -32.4914 -32.4825
   -32.4398 -32.4382 -32.4190 -32.3965 -32.3765 -32.3152 -32.2926 -32.2550
   -32.2372 -32.2354 -32.1116 -32.1087 -32.0865 -32.0570 -32.0430 -32.0348
   -32.0168 -31.9985 -31.9602 -31.9367 -31.9172 -31.9108 -31.8861 -31.8761
   -31.8533 -31.8373 -31.8169 -31.7896 -31.7816 -31.7462 -31.7293 -31.6929
   -13.7731  -5.3993  -4.0098  -2.8104  -2.2780  -2.2752  -1.9744  -1.3263
    -1.1216  -1.1102  -0.9197  -0.7206  -0.6639  -0.2195   0.0144   0.0760
     0.1157   0.3010   0.4214   0.8292   0.9126   1.1313   1.3080   1.5377
     1.6326   1.6377   1.7504   1.9840   2.1548   2.2426   2.4029   2.4269
     2.4862   2.5252   2.5614   2.7467   2.8381   2.8513   2.9586   3.2378
     3.2754   3.3926   3.6362

          k = 0.0558 0.0000 0.0000 ( 19485 PWs)   bands (ev):

   -65.8700 -65.8369 -65.8300 -65.8256 -65.7879 -65.7830 -65.7737 -65.7285
   -65.6939 -65.6877 -65.6768 -65.6333 -32.5747 -32.5350 -32.5106 -32.4874
   -32.4753 -32.4478 -32.4391 -32.4175 -32.3716 -32.3660 -32.2928 -32.2534
   -32.2375 -32.2173 -32.1262 -32.1001 -32.0805 -32.0668 -32.0295 -31.9988
   -31.9912 -31.9816 -31.9412 -31.9344 -31.9042 -31.9001 -31.8884 -31.8483
   -31.8407 -31.8318 -31.8202 -31.7849 -31.7700 -31.7416 -31.7260 -31.6939
   -13.7777  -5.4490  -4.1849  -2.7681  -2.4118  -2.2707  -1.7727  -1.6610
    -1.4260  -1.0181  -0.9609  -0.8619  -0.7038  -0.2328  -0.0969  -0.0786
    -0.0538   0.2000   0.3212   0.8241   0.8707   1.2090   1.4700   1.6458
     1.7321   1.8361   1.8875   2.0039   2.1661   2.4297   2.4537   2.5222
     2.5769   2.6200   2.6293   2.8048   2.9237   3.0051   3.1021   3.1506
     3.3337   3.4127   3.4765

          k = 0.0558 0.0322 0.0000 ( 19517 PWs)   bands (ev):

   -65.8678 -65.8391 -65.8298 -65.8223 -65.7931 -65.7792 -65.7757 -65.7259
   -65.6980 -65.6855 -65.6777 -65.6333 -32.5551 -32.5182 -32.4914 -32.4825
   -32.4398 -32.4382 -32.4190 -32.3965 -32.3766 -32.3152 -32.2926 -32.2550
   -32.2372 -32.2354 -32.1116 -32.1087 -32.0865 -32.0570 -32.0430 -32.0348
   -32.0168 -31.9985 -31.9602 -31.9367 -31.9172 -31.9108 -31.8861 -31.8761
   -31.8533 -31.8373 -31.8169 -31.7896 -31.7816 -31.7462 -31.7293 -31.6929
   -13.7731  -5.3993  -4.0098  -2.8104  -2.2780  -2.2752  -1.9744  -1.3263
    -1.1216  -1.1102  -0.9197  -0.7206  -0.6639  -0.2195   0.0144   0.0760
     0.1157   0.3010   0.4214   0.8292   0.9126   1.1313   1.3080   1.5377
     1.6326   1.6377   1.7504   1.9840   2.1548   2.2426   2.4029   2.4269
     2.4862   2.5252   2.5614   2.7467   2.8381   2.8513   2.9586   3.2378
     3.2754   3.3926   3.6362

          k = 0.0558-0.1289 0.0000 ( 19521 PWs)   bands (ev):

   -65.8622 -65.8438 -65.8303 -65.8134 -65.7982 -65.7869 -65.7719 -65.7192
   -65.7025 -65.6903 -65.6755 -65.6333 -32.5045 -32.4730 -32.4509 -32.4310
   -32.4133 -32.3987 -32.3666 -32.3574 -32.3113 -32.3038 -32.2812 -32.2642
   -32.2560 -32.2097 -32.1940 -32.1437 -32.1118 -32.0838 -32.0710 -32.0519
   -32.0283 -32.0009 -31.9798 -31.9647 -31.9455 -31.9375 -31.9025 -31.8838
   -31.8752 -31.8421 -31.8294 -31.8108 -31.7826 -31.7644 -31.7292 -31.7197
   -13.7640  -5.2996  -3.5231  -2.8337  -2.3592  -2.1805  -1.7067  -1.4844
    -1.0382  -0.7267  -0.6187  -0.4288  -0.3100  -0.0151   0.2322   0.3407
     0.4316   0.4669   0.6369   0.8306   0.9378   1.0160   1.0880   1.2028
     1.3743   1.4061   1.4815   1.6896   1.7338   1.8170   1.9482   2.0481
     2.1739   2.2021   2.3646   2.5386   2.7348   2.9049   3.0403   3.2272
     3.3991   3.5627   3.7017

          k = 0.0558-0.0967 0.0000 ( 19521 PWs)   bands (ev):

   -65.8581 -65.8472 -65.8307 -65.8049 -65.7979 -65.7976 -65.7701 -65.7141
   -65.7042 -65.6954 -65.6738 -65.6334 -32.4474 -32.4436 -32.4401 -32.3939
   -32.3837 -32.3751 -32.3489 -32.3381 -32.3309 -32.2822 -32.2773 -32.2552
   -32.2324 -32.2052 -32.2038 -32.1732 -32.1686 -32.1618 -32.0641 -32.0547
   -32.0457 -32.0325 -31.9975 -31.9567 -31.9358 -31.9271 -31.8910 -31.8844
   -31.8733 -31.8603 -31.8239 -31.8176 -31.8144 -31.7653 -31.7648 -31.7192
   -13.7594  -5.2492  -3.0970  -2.7469  -2.5259  -2.1327  -2.0305  -1.1410
    -0.9510  -0.8359  -0.0895  -0.0183   0.0207   0.1120   0.2231   0.2700
     0.5526   0.7012   0.7189   0.7861   0.8566   0.8689   0.9447   0.9840
     0.9880   1.2260   1.2753   1.5947   1.6923   1.7091   1.8054   1.8331
     1.8704   1.9210   2.2414   2.3163   2.7003   3.2229   3.2304   3.3890
     3.4847   3.4866   3.7198

          k = 0.0558-0.0645 0.0000 ( 19521 PWs)   bands (ev):

   -65.8622 -65.8438 -65.8303 -65.8134 -65.7982 -65.7869 -65.7719 -65.7192
   -65.7025 -65.6903 -65.6755 -65.6333 -32.5045 -32.4730 -32.4509 -32.4310
   -32.4133 -32.3987 -32.3666 -32.3574 -32.3113 -32.3038 -32.2812 -32.2642
   -32.2560 -32.2097 -32.1940 -32.1437 -32.1118 -32.0838 -32.0710 -32.0519
   -32.0283 -32.0009 -31.9798 -31.9647 -31.9455 -31.9375 -31.9025 -31.8838
   -31.8752 -31.8421 -31.8294 -31.8108 -31.7826 -31.7644 -31.7292 -31.7197
   -13.7640  -5.2996  -3.5231  -2.8337  -2.3592  -2.1805  -1.7067  -1.4844
    -1.0382  -0.7267  -0.6187  -0.4288  -0.3100  -0.0151   0.2322   0.3407
     0.4316   0.4669   0.6369   0.8306   0.9378   1.0160   1.0880   1.2028
     1.3743   1.4061   1.4815   1.6896   1.7338   1.8170   1.9482   2.0481
     2.1739   2.2021   2.3646   2.5386   2.7348   2.9049   3.0403   3.2272
     3.3991   3.5627   3.7017

          k =-0.0837 0.0483 0.0000 ( 19532 PWs)   bands (ev):

   -65.8619 -65.8445 -65.8298 -65.8102 -65.8051 -65.7795 -65.7757 -65.7180
   -65.7062 -65.6855 -65.6778 -65.6333 -32.5015 -32.4851 -32.4469 -32.4409
   -32.4208 -32.4159 -32.3590 -32.3271 -32.3221 -32.3175 -32.2873 -32.2661
   -32.2224 -32.1771 -32.1480 -32.1295 -32.1178 -32.1013 -32.0865 -32.0690
   -32.0334 -32.0037 -31.9904 -31.9738 -31.9708 -31.9484 -31.9157 -31.8953
   -31.8534 -31.8396 -31.8373 -31.7954 -31.7931 -31.7434 -31.7292 -31.7104
   -13.7640  -5.2992  -3.3942  -3.0913  -2.4369  -2.1766  -1.5830  -1.2925
    -0.8528  -0.8234  -0.6020  -0.5203  -0.5012  -0.1608   0.2491   0.4228
     0.5636   0.5674   0.6624   0.7460   1.0195   1.0981   1.1451   1.1674
     1.3615   1.3637   1.5554   1.7288   1.8203   1.8634   1.9049   2.0273
     2.0987   2.1894   2.2011   2.7054   2.7536   2.7634   2.9543   3.1832
     3.3486   3.5438   3.8905

          k =-0.0837 0.0806 0.0000 ( 19521 PWs)   bands (ev):

   -65.8622 -65.8438 -65.8303 -65.8134 -65.7982 -65.7869 -65.7719 -65.7192
   -65.7025 -65.6903 -65.6755 -65.6333 -32.5045 -32.4730 -32.4509 -32.4310
   -32.4133 -32.3987 -32.3666 -32.3574 -32.3113 -32.3038 -32.2812 -32.2642
   -32.2560 -32.2097 -32.1940 -32.1437 -32.1118 -32.0838 -32.0710 -32.0519
   -32.0283 -32.0009 -31.9798 -31.9647 -31.9455 -31.9375 -31.9025 -31.8838
   -31.8752 -31.8421 -31.8294 -31.8108 -31.7826 -31.7644 -31.7292 -31.7197
   -13.7640  -5.2996  -3.5231  -2.8337  -2.3592  -2.1805  -1.7067  -1.4844
    -1.0382  -0.7267  -0.6187  -0.4288  -0.3100  -0.0151   0.2322   0.3407
     0.4316   0.4669   0.6369   0.8306   0.9378   1.0160   1.0880   1.2028
     1.3743   1.4061   1.4815   1.6896   1.7338   1.8170   1.9482   2.0481
     2.1739   2.2021   2.3646   2.5386   2.7348   2.9049   3.0403   3.2272
     3.3991   3.5627   3.7017

          k =-0.0837 0.1128 0.0000 ( 19521 PWs)   bands (ev):

   -65.8622 -65.8438 -65.8303 -65.8134 -65.7982 -65.7869 -65.7719 -65.7192
   -65.7025 -65.6903 -65.6755 -65.6333 -32.5045 -32.4730 -32.4509 -32.4310
   -32.4133 -32.3987 -32.3666 -32.3574 -32.3113 -32.3038 -32.2812 -32.2642
   -32.2560 -32.2098 -32.1940 -32.1437 -32.1118 -32.0838 -32.0710 -32.0519
   -32.0283 -32.0009 -31.9798 -31.9647 -31.9455 -31.9375 -31.9025 -31.8838
   -31.8752 -31.8421 -31.8294 -31.8108 -31.7826 -31.7644 -31.7292 -31.7197
   -13.7640  -5.2996  -3.5231  -2.8337  -2.3592  -2.1805  -1.7067  -1.4844
    -1.0382  -0.7267  -0.6187  -0.4288  -0.3100  -0.0151   0.2322   0.3407
     0.4316   0.4669   0.6369   0.8306   0.9378   1.0160   1.0880   1.2028
     1.3743   1.4061   1.4815   1.6896   1.7338   1.8170   1.9482   2.0481
     2.1739   2.2021   2.3646   2.5386   2.7348   2.9049   3.0403   3.2272
     3.3991   3.5627   3.7017

          k =-0.0837-0.0483 0.0000 ( 19532 PWs)   bands (ev):

   -65.8619 -65.8445 -65.8298 -65.8102 -65.8051 -65.7795 -65.7757 -65.7180
   -65.7062 -65.6855 -65.6778 -65.6333 -32.5015 -32.4851 -32.4469 -32.4409
   -32.4208 -32.4159 -32.3590 -32.3271 -32.3221 -32.3175 -32.2873 -32.2661
   -32.2224 -32.1771 -32.1480 -32.1295 -32.1178 -32.1013 -32.0865 -32.0690
   -32.0334 -32.0037 -31.9904 -31.9738 -31.9708 -31.9484 -31.9157 -31.8953
   -31.8534 -31.8396 -31.8373 -31.7954 -31.7931 -31.7434 -31.7292 -31.7104
   -13.7640  -5.2992  -3.3942  -3.0913  -2.4369  -2.1766  -1.5830  -1.2925
    -0.8528  -0.8234  -0.6020  -0.5203  -0.5012  -0.1608   0.2491   0.4228
     0.5636   0.5674   0.6624   0.7460   1.0195   1.0981   1.1451   1.1674
     1.3615   1.3637   1.5554   1.7288   1.8203   1.8634   1.9049   2.0273
     2.0987   2.1894   2.2011   2.7054   2.7536   2.7634   2.9543   3.1832
     3.3486   3.5438   3.8905

     the Fermi energy is     2.4818 ev

!    total energy              =   -1740.02631888 Ry
     Harris-Foulkes estimate   =   -1740.02631894 Ry
     estimated scf accuracy    <       0.00000008 Ry

     The total energy is the sum of the following terms:

     one-electron contribution =  -11902.45327187 Ry
     hartree contribution      =    5938.04515046 Ry
     xc contribution           =    -529.35336632 Ry
     ewald contribution        =    4753.83087115 Ry
     electric field correction =       0.00026760 Ry
     smearing contrib. (-TS)   =      -0.09596990 Ry

     convergence has been achieved in   9 iterations
 
 BEEF-vdW xc energy contributions
           1 :   -465.935158624320     
           2 :    430.062315251811     
           3 :   -367.418166707643     
           4 :    292.461271333973     
           5 :   -219.709030518425     
           6 :    159.288839335354     
           7 :   -114.920039980154     
           8 :    84.6970935612706     
           9 :   -63.7952445144179     
          10 :    47.5021918105107     
          11 :   -33.1562601576634     
          12 :    20.4061318661479     
          13 :   -10.1769303299091     
          14 :    3.27664267581741     
          15 :   0.485554772208786     
          16 :   -2.29426666322979     
          17 :    3.63583471928507     
          18 :   -5.47387955953064     
          19 :    7.81982295865953     
          20 :   -9.91266030018670     
          21 :    10.8400474040546     
          22 :   -10.1950211554262     
          23 :    8.37336381867669     
          24 :   -6.35804506917776     
          25 :    5.15185683819203     
          26 :   -5.22093062703419     
          27 :    6.27889896340389     
          28 :   -7.51649909518761     
          29 :    8.10977569660969     
          30 :   -7.68643295722796     
          31 :   -41.7487533768177     
          32 :   -30.9858352838035     

     Forces acting on atoms (Ry/au):


     negative rho (up, down):  1.179E+00 0.000E+00
     atom    1 type  1   force =    -0.00000001    0.00000004    0.00735162
     atom    2 type  1   force =     0.00000000    0.00045833    0.00516791
     atom    3 type  1   force =     0.00039689   -0.00022915    0.00516789
     atom    4 type  1   force =    -0.00039688   -0.00022915    0.00516793
     atom    5 type  1   force =     0.02082367   -0.01202237   -0.01045184
     atom    6 type  1   force =    -0.02082364   -0.01202244   -0.01045211
     atom    7 type  1   force =    -0.00000008   -0.00000016    0.00919174
     atom    8 type  1   force =     0.00000009    0.02404502   -0.01045183
     atom    9 type  1   force =    -0.00142290   -0.00082169   -0.00055816
     atom   10 type  1   force =     0.00142353   -0.00082279   -0.00055845
     atom   11 type  1   force =    -0.00000059    0.00164476   -0.00055888
     atom   12 type  1   force =     0.00000031    0.00000011   -0.00006314
     atom   13 type  2   force =    -0.00000032   -0.00000041   -0.00087973
     atom   14 type  3   force =    -0.00000004   -0.00000010    0.00192704

     Total force =     0.003679     Total SCF correction =     0.000523
     SCF correction compared to forces is large: reduce conv_thr to get better values


     entering subroutine stress ...


     negative rho (up, down):  1.179E+00 0.000E+00
          total   stress  (Ry/bohr**3)                   (kbar)     P=  -22.50
  -0.00019505  -0.00000000  -0.00000000        -28.69     -0.00     -0.00
  -0.00000000  -0.00019505  -0.00000000         -0.00    -28.69     -0.00
  -0.00000000  -0.00000000  -0.00006869         -0.00     -0.00    -10.11


     bfgs converged in  14 scf cycles and  13 bfgs steps
     (criteria: energy <  1.0E+00, force <  1.9E-03)

     End of BFGS Geometry Optimization

     Final energy   =   -1740.0263188800 Ry
Begin final coordinates

ATOMIC_POSITIONS (crystal)
Ta1      0.166666667   0.166666667   0.401991699    0   0   0
Ta1      0.666666667   0.166666667   0.401991699    0   0   0
Ta1      0.166666667   0.666666667   0.401991699    0   0   0
Ta1      0.666666667   0.666666667   0.401991699    0   0   0
Ta1      0.833333333   0.333333333   0.500000000    0   0   0
Ta1      0.333333333   0.333333333   0.500000000    0   0   0
Ta1      0.833333333   0.833333333   0.500000000    0   0   0
Ta1      0.333333333   0.833333333   0.500000000    0   0   0
Ta1     -0.003778182  -0.003778524   0.598882502
Ta1      0.507556368  -0.003778180   0.598882503
Ta1     -0.003777754   0.507555771   0.598882537
Ta1      0.500000025   0.499999768   0.589004473
N1       0.166666815   0.166666516   0.645932818
H1       0.166666826   0.166666724   0.687101576
End final coordinates



     Writing output data file calc.save
 
     init_run     :      7.39s CPU      8.86s WALL (       1 calls)
     electrons    :   2507.80s CPU   3374.47s WALL (      14 calls)
     update_pot   :     31.19s CPU     40.36s WALL (      13 calls)
     forces       :    150.88s CPU    155.78s WALL (      14 calls)
     stress       :    430.52s CPU    447.92s WALL (      14 calls)

     Called by init_run:
     wfcinit      :      2.93s CPU      3.62s WALL (       1 calls)
     potinit      :      1.25s CPU      1.75s WALL (       1 calls)

     Called by electrons:
     c_bands      :   1210.21s CPU   1664.32s WALL (     150 calls)
     sum_band     :    446.16s CPU    529.05s WALL (     150 calls)
     v_of_rho     :    280.71s CPU    509.16s WALL (     163 calls)
     newd         :    345.70s CPU    376.09s WALL (     163 calls)
     mix_rho      :      3.50s CPU      4.37s WALL (     150 calls)
     vdW_energy   :     80.52s CPU     88.58s WALL (     667 calls)
     vdW_ffts     :    112.44s CPU    158.24s WALL (    1362 calls)
     vdW_v        :     51.54s CPU     60.85s WALL (     667 calls)

     Called by c_bands:
     init_us_2    :     10.07s CPU     11.04s WALL (    2303 calls)
     cegterg      :    868.53s CPU   1035.34s WALL (    1050 calls)

     Called by *egterg:
     h_psi        :    519.30s CPU    663.50s WALL (    5483 calls)
     s_psi        :     65.81s CPU     67.33s WALL (    5483 calls)
     g_psi        :      4.51s CPU      4.51s WALL (    4426 calls)
     cdiaghg      :    130.88s CPU    133.13s WALL (    5378 calls)

     Called by h_psi:
     add_vuspsi   :     69.20s CPU     70.96s WALL (    5483 calls)

     General routines
     calbec       :     99.78s CPU    103.85s WALL (    6729 calls)
     fft          :    180.58s CPU    264.93s WALL (   40217 calls)
     ffts         :      0.25s CPU      0.39s WALL (     313 calls)
     fftw         :    305.61s CPU    474.11s WALL (  599136 calls)
     interpolate  :      1.65s CPU      2.68s WALL (     313 calls)
     davcio       :      0.01s CPU      0.15s WALL (       7 calls)
 
     Parallel routines
     fft_scatter  :    232.10s CPU    412.83s WALL (  639666 calls)
 
     PWSCF        :     0h52m CPU        1h 7m WALL

 
   This run was terminated on:   9:36:55  23Apr2018            

=------------------------------------------------------------------------------=
   JOB DONE.
=------------------------------------------------------------------------------=
Job  /afs/slac/g/suncat/bin/suncat-tsmpirun -x LD_LIBRARY_PATH -wdir /scratch/qe986204_EfD4I pw.x -npool 3 -in pw.inp

TID   HOST_NAME   COMMAND_LINE            STATUS            TERMINATION_TIME
===== ========== ================  =======================  ===================
00000 suncat2035 pw.x -npool 3 -i  Done                     04/23/2018 09:36:55
00001 suncat2035 pw.x -npool 3 -i  Done                     04/23/2018 09:36:55
00002 suncat2035 pw.x -npool 3 -i  Done                     04/23/2018 09:36:55
00003 suncat2035 pw.x -npool 3 -i  Done                     04/23/2018 09:36:55
00004 suncat2070 pw.x -npool 3 -i  Done                     04/23/2018 09:36:55
00005 suncat2070 pw.x -npool 3 -i  Done                     04/23/2018 09:36:55
00006 suncat2070 pw.x -npool 3 -i  Done                     04/23/2018 09:36:55
00007 suncat2070 pw.x -npool 3 -i  Done                     04/23/2018 09:36:55
00008 suncat2070 pw.x -npool 3 -i  Done                     04/23/2018 09:36:55
00009 suncat2070 pw.x -npool 3 -i  Done                     04/23/2018 09:36:55
00010 suncat2070 pw.x -npool 3 -i  Done                     04/23/2018 09:36:55
00011 suncat2070 pw.x -npool 3 -i  Done                     04/23/2018 09:36:55
00012 suncat2070 pw.x -npool 3 -i  Done                     04/23/2018 09:36:55
00013 suncat2070 pw.x -npool 3 -i  Done                     04/23/2018 09:36:55
00014 suncat2070 pw.x -npool 3 -i  Done                     04/23/2018 09:36:55
00015 suncat2070 pw.x -npool 3 -i  Done                     04/23/2018 09:36:55
00016 suncat2070 pw.x -npool 3 -i  Done                     04/23/2018 09:36:55
00017 suncat2070 pw.x -npool 3 -i  Done                     04/23/2018 09:36:55
00018 suncat2070 pw.x -npool 3 -i  Done                     04/23/2018 09:36:55
00019 suncat2070 pw.x -npool 3 -i  Done                     04/23/2018 09:36:55
00020 suncat2069 pw.x -npool 3 -i  Done                     04/23/2018 09:36:55
00021 suncat2069 pw.x -npool 3 -i  Done                     04/23/2018 09:36:55
00022 suncat2069 pw.x -npool 3 -i  Done                     04/23/2018 09:36:55
00023 suncat2069 pw.x -npool 3 -i  Done                     04/23/2018 09:36:55
00024 suncat2069 pw.x -npool 3 -i  Done                     04/23/2018 09:36:55
00025 suncat2069 pw.x -npool 3 -i  Done                     04/23/2018 09:36:55
00026 suncat2069 pw.x -npool 3 -i  Done                     04/23/2018 09:36:55
00027 suncat2069 pw.x -npool 3 -i  Done                     04/23/2018 09:36:55
00028 suncat2069 pw.x -npool 3 -i  Done                     04/23/2018 09:36:55
00029 suncat2069 pw.x -npool 3 -i  Done                     04/23/2018 09:36:55
00030 suncat2069 pw.x -npool 3 -i  Done                     04/23/2018 09:36:55
00031 suncat2069 pw.x -npool 3 -i  Done                     04/23/2018 09:36:55
00032 suncat2069 pw.x -npool 3 -i  Done                     04/23/2018 09:36:55
00033 suncat2069 pw.x -npool 3 -i  Done                     04/23/2018 09:36:55
00034 suncat2069 pw.x -npool 3 -i  Done                     04/23/2018 09:36:55
00035 suncat2069 pw.x -npool 3 -i  Done                     04/23/2018 09:36:55
