  python dir          : /u/if/mamunm/src/espresso
  espresso dir        : /nfs/slac/g/suncatfs/sw/espv18/espresso-dynpy-beef/bin
  pseudo dir          : /u/if/mamunm/psp/gbrv1.5pbe
  ase-espresso py git : GITVERSION



     Program PWSCF v.5.1rc2 (svn rev. 11289) starts on  3May2018 at  4:40:30 

     This program is part of the open-source Quantum ESPRESSO suite
     for quantum simulation of materials; please cite
         "P. Giannozzi et al., J. Phys.:Condens. Matter 21 395502 (2009);
          URL http://www.quantum-espresso.org", 
     in publications or presentations arising from this work. More details at
     http://www.quantum-espresso.org/quote

     Parallel version (MPI), running on    32 processors
     K-points division:     npool     =       4
     R & G space division:  proc/nbgrp/npool/nimage =       8
     Reading input from pw.inp
     Message from routine read_cards :
     DEPRECATED: no units specified in CELL_PARAMETERS card

     Current dimensions of program PWSCF are:
     Max number of different atomic species (ntypx) = 10
     Max number of k-points (npk) =  40000
     Max angular momentum in pseudopotentials (lmaxx) =  3
     Presently stress not available with electric field


     **************************************************************************
     Initializing libbeef V0.1.1 with the BEEF-vdW functional.
     Citation: Wellendorff et al., PRB 85, 235149 (2012).
     **************************************************************************


     IMPORTANT: XC functional enforced from input :
     Exchange-correlation      = BEEF-VDW ( 1  4 27 13 2)
     Any further DFT definition will be discarded
     Please, verify this is what you really want


     Subspace diagonalization in iterative solution of the eigenvalue problem:
     a serial algorithm will be used

 
     Parallelization info
     --------------------
     sticks:   dense  smooth     PW     G-vecs:    dense   smooth      PW
     Min         367     147     43                69909    17663    2781
     Max         369     148     44                69918    17695    2794
     Sum        2941    1177    349               559305   141419   22321
 


     bravais-lattice index     =            0
     lattice parameter (alat)  =       1.8897  a.u.
     unit-cell volume          =    4704.3541 (a.u.)^3
     number of atoms/cell      =           13
     number of atomic types    =            2
     number of electrons       =       173.00
     number of Kohn-Sham states=           96
     kinetic-energy cutoff     =      36.7493  Ry
     charge density cutoff     =     367.4932  Ry
     convergence threshold     =      1.0E-05
     mixing beta               =       0.3000
     number of iterations used =           10  plain     mixing
     Exchange-correlation      = BEEF-VDW ( 1  4 27 13 2)
     nstep                     =           50


     celldm(1)=   1.889726  celldm(2)=   0.000000  celldm(3)=   0.000000
     celldm(4)=   0.000000  celldm(5)=   0.000000  celldm(6)=   0.000000

     crystal axes: (cart. coord. in units of alat)
               a(1) = (   5.712816   0.000000   0.000000 )  
               a(2) = (   2.856408   4.947444   0.000000 )  
               a(3) = (   0.000000   0.000000  24.664495 )  

     reciprocal axes: (cart. coord. in units 2 pi/alat)
               b(1) = (  0.175045 -0.101062  0.000000 )  
               b(2) = (  0.000000  0.202125  0.000000 )  
               b(3) = (  0.000000  0.000000  0.040544 )  


     PseudoPot. # 1 for W  read from file:
     /u/if/mamunm/psp/gbrv1.5pbe/W.UPF
     MD5 check sum: 9c083fa34c2a2ea0f02f1f893e16e1c8
     Pseudo is Ultrasoft + core correction, Zval = 14.0
     Generated by new atomic code, or converted to UPF format
     Using radial grid of  923 points,  8 beta functions with: 
                l(1) =   0
                l(2) =   0
                l(3) =   0
                l(4) =   1
                l(5) =   1
                l(6) =   2
                l(7) =   2
                l(8) =   3
     Q(r) pseudized with  6 coefficients,  rinner =    1.350   1.350   1.350
                                                       1.350   1.350   1.350
                                                       1.350

     PseudoPot. # 2 for N  read from file:
     /u/if/mamunm/psp/gbrv1.5pbe/N.UPF
     MD5 check sum: 95339753478d7afb44899504a8723017
     Pseudo is Ultrasoft + core correction, Zval =  5.0
     Generated by new atomic code, or converted to UPF format
     Using radial grid of  729 points,  4 beta functions with: 
                l(1) =   0
                l(2) =   0
                l(3) =   1
                l(4) =   1
     Q(r) pseudized with  8 coefficients,  rinner =    0.900   0.900   0.900


     vdW kernel table read from file vdW_kernel_table
     MD5 check sum: 095c7af220d748ca6e76c0b4c6cfb241

     atomic species   valence    mass     pseudopotential
        W1            14.00   183.84000     W ( 1.00)
        N1             5.00    14.00700     N ( 1.00)

     No symmetry found



   Cartesian axes

     site n.     atom                  positions (alat units)
         1           W1  tau(   1) = (   1.4282041   0.8245740  10.0000000  )
         2           W1  tau(   2) = (   4.2846123   0.8245740  10.0000000  )
         3           W1  tau(   3) = (   2.8564082   3.2982961  10.0000000  )
         4           W1  tau(   4) = (   5.7128165   3.2982961  10.0000000  )
         5           W1  tau(   5) = (   5.7128165   1.6491481  12.3322476  )
         6           W1  tau(   6) = (   2.8564082   1.6491481  12.3322476  )
         7           W1  tau(   7) = (   7.1410206   4.1228701  12.3322476  )
         8           W1  tau(   8) = (   4.2846123   4.1228701  12.3322476  )
         9           W1  tau(   9) = (   0.0000000   0.0000000  14.6644951  )
        10           W1  tau(  10) = (   2.8564082   0.0000000  14.6644951  )
        11           W1  tau(  11) = (   1.4282041   2.4737221  14.6644951  )
        12           W1  tau(  12) = (   4.2846123   2.4737221  14.6644951  )
        13           N1  tau(  13) = (   0.0000000   0.0000000  16.6449951  )

     number of k points=    20  Fermi-Dirac smearing, width (Ry)=  0.0110
                       cart. coord. in units 2pi/alat
        k(    1) = (   0.0000000   0.0000000   0.0000000), wk =   0.0555556
        k(    2) = (   0.0000000   0.0336874   0.0000000), wk =   0.1111111
        k(    3) = (   0.0000000   0.0673749   0.0000000), wk =   0.1111111
        k(    4) = (   0.0000000  -0.1010623   0.0000000), wk =   0.0555556
        k(    5) = (   0.0291742  -0.0168437   0.0000000), wk =   0.1111111
        k(    6) = (   0.0291742   0.0168437   0.0000000), wk =   0.1111111
        k(    7) = (   0.0291742   0.0505311   0.0000000), wk =   0.1111111
        k(    8) = (   0.0291742  -0.1179060   0.0000000), wk =   0.1111111
        k(    9) = (   0.0291742  -0.0842186   0.0000000), wk =   0.1111111
        k(   10) = (   0.0291742  -0.0505311   0.0000000), wk =   0.1111111
        k(   11) = (   0.0583483  -0.0336874   0.0000000), wk =   0.1111111
        k(   12) = (   0.0583483  -0.0000000   0.0000000), wk =   0.1111111
        k(   13) = (   0.0583483   0.0336874   0.0000000), wk =   0.1111111
        k(   14) = (   0.0583483  -0.1347497   0.0000000), wk =   0.1111111
        k(   15) = (   0.0583483  -0.1010623   0.0000000), wk =   0.1111111
        k(   16) = (   0.0583483  -0.0673749   0.0000000), wk =   0.1111111
        k(   17) = (  -0.0875225   0.0505311   0.0000000), wk =   0.0555556
        k(   18) = (  -0.0875225   0.0842186   0.0000000), wk =   0.1111111
        k(   19) = (  -0.0875225   0.1179060   0.0000000), wk =   0.1111111
        k(   20) = (  -0.0875225  -0.0505311   0.0000000), wk =   0.0555556

     Dense  grid:   559305 G-vectors     FFT dimensions: (  72,  72, 288)

     Smooth grid:   141419 G-vectors     FFT dimensions: (  45,  45, 180)

     Largest allocated arrays     est. size (Mb)     dimensions
        Kohn-Sham Wavefunctions         3.28 Mb     (    2239,   96)
        NL pseudopotentials            10.93 Mb     (    2239,  320)
        Each V/rho on FFT grid          2.85 Mb     (  186624)
        Each G-vector array             0.53 Mb     (   69911)
        G-vector shells                 0.14 Mb     (   18450)
     Largest temporary arrays     est. size (Mb)     dimensions
        Auxiliary wavefunctions        13.12 Mb     (    2239,  384)
        Each subspace H/S matrix        2.25 Mb     (     384,  384)
        Each <psi_i|beta_j> matrix      0.47 Mb     (     320,   96)
        Arrays for rho mixing          28.48 Mb     (  186624,   10)

     Initial potential from superposition of free atoms
     Check: negative starting charge=   -0.760404

     starting charge  171.79591, renormalised to  173.00000

     negative rho (up, down):  7.657E-01 0.000E+00


     ************************************************************************
     *
     * You are using vdW-DF for exchange-correlation in this calculation.
     * Please cite the following three references that made this development
     * possible:
     *
     *   M. Dion, H. Rydberg, E. Schroder, D. C. Langreth, and
     *   B. I. Lundqvist, Phys. Rev. Lett. 92, 246401 (2004).
     *
     *   T. Thonhauser, V. R. Cooper, S. Li, A. Puzder, P. Hyldgaard, and
     *   D. C. Langreth, Phys. Rev. B 76, 125112 (2007).
     *
     *   G. Roman-Perez and J. M. Soler, Phys. Rev. Lett. 103, 096102 (2009).
     *
     *
     * If you are using vdW-DF2, please also cite:
     *
     *   K. Lee, E. D. Murray, L. Kong, B. I. Lundqvist, and
     *   D. C. Langreth, Phys. Rev. B 82, 081101(R) (2010).
     *
     *
     * If you are calculating the stress with vdW-DF, please also cite:
     *
     *   R. Sabatini, E. Kucukbenli, B. Kolb, T. Thonhauser, and
     *   S. de Gironcoli, J. Phys.: Condens. Matter 24, 424209 (2012).
     *
     ************************************************************************

     Carrying out vdW-DF run using the following parameters:

     Nqs =      20    Nr_points =    1024   r_max =   100.000
     q_mesh =
               0.00001000     0.04494208     0.09755937     0.15916263
               0.23128650     0.31572767     0.41458969     0.53033537
               0.66584808     0.82450364     1.01025438     1.22772762
               1.48234092     1.78043706     2.12944203     2.53805004
               3.01644009     3.57652955     4.23227104     5.00000000

     Gradients computed in reciprocal space

     ************************************************************************


 
     Adding external electric field

     Computed dipole along edir(3) : 
        Dipole               -0.2855 Ry au,         -0.7258 Debye
        Dipole field         -0.0008 Ry au
 
        Potential amp.        0.0693 Ry
        Total length         45.4439 bohr
 
     Starting wfc are  160 randomized atomic wfcs

     total cpu time spent up to now is       16.5 secs

     per-process dynamical memory:    92.3 Mb

     Self-consistent Calculation

     iteration #  1     ecut=    36.75 Ry     beta=0.30
     Davidson diagonalization with overlap
     ethr =  1.00E-02,  avg # of iterations =  2.0

     negative rho (up, down):  7.705E-01 0.000E+00
 
     Adding external electric field

     Computed dipole along edir(3) : 
        Dipole                1.7375 Ry au,          4.4164 Debye
        Dipole field          0.0046 Ry au
 
        Potential amp.       -0.4218 Ry
        Total length         45.4439 bohr
 

     total cpu time spent up to now is       40.9 secs

     total energy              =   -1943.36986128 Ry
     Harris-Foulkes estimate   =   -1945.34148362 Ry
     estimated scf accuracy    <       4.31587392 Ry

     iteration #  2     ecut=    36.75 Ry     beta=0.30
     Davidson diagonalization with overlap
     ethr =  2.49E-03,  avg # of iterations =  6.7

     negative rho (up, down):  7.709E-01 0.000E+00
 
     Adding external electric field

     Computed dipole along edir(3) : 
        Dipole               -2.0868 Ry au,         -5.3040 Debye
        Dipole field         -0.0056 Ry au
 
        Potential amp.        0.5066 Ry
        Total length         45.4439 bohr
 

     total cpu time spent up to now is       73.4 secs

     total energy              =   -1936.74407799 Ry
     Harris-Foulkes estimate   =   -1952.94193286 Ry
     estimated scf accuracy    <     427.22035741 Ry

     iteration #  3     ecut=    36.75 Ry     beta=0.30
     Davidson diagonalization with overlap
     ethr =  2.49E-03,  avg # of iterations =  6.6

     negative rho (up, down):  7.722E-01 0.000E+00
 
     Adding external electric field

     Computed dipole along edir(3) : 
        Dipole               -0.5887 Ry au,         -1.4963 Debye
        Dipole field         -0.0016 Ry au
 
        Potential amp.        0.1429 Ry
        Total length         45.4439 bohr
 

     total cpu time spent up to now is      105.8 secs

     total energy              =   -1943.09590347 Ry
     Harris-Foulkes estimate   =   -1946.75737151 Ry
     estimated scf accuracy    <      71.66037426 Ry

     iteration #  4     ecut=    36.75 Ry     beta=0.30
     Davidson diagonalization with overlap
     ethr =  2.49E-03,  avg # of iterations =  4.2

     negative rho (up, down):  7.738E-01 0.000E+00
 
     Adding external electric field

     Computed dipole along edir(3) : 
        Dipole               -0.4136 Ry au,         -1.0513 Debye
        Dipole field         -0.0011 Ry au
 
        Potential amp.        0.1004 Ry
        Total length         45.4439 bohr
 

     total cpu time spent up to now is      133.5 secs

     total energy              =   -1944.83670964 Ry
     Harris-Foulkes estimate   =   -1945.05326280 Ry
     estimated scf accuracy    <       1.79414842 Ry

     iteration #  5     ecut=    36.75 Ry     beta=0.30
     Davidson diagonalization with overlap
     ethr =  1.04E-03,  avg # of iterations =  3.4

     negative rho (up, down):  7.784E-01 0.000E+00
 
     Adding external electric field

     Computed dipole along edir(3) : 
        Dipole               -0.3494 Ry au,         -0.8882 Debye
        Dipole field         -0.0009 Ry au
 
        Potential amp.        0.0848 Ry
        Total length         45.4439 bohr
 

     total cpu time spent up to now is      158.6 secs

     total energy              =   -1944.91764977 Ry
     Harris-Foulkes estimate   =   -1944.97677207 Ry
     estimated scf accuracy    <       0.38003746 Ry

     iteration #  6     ecut=    36.75 Ry     beta=0.30
     Davidson diagonalization with overlap
     ethr =  2.20E-04,  avg # of iterations =  3.5

     negative rho (up, down):  7.835E-01 0.000E+00
 
     Adding external electric field

     Computed dipole along edir(3) : 
        Dipole               -0.3356 Ry au,         -0.8531 Debye
        Dipole field         -0.0009 Ry au
 
        Potential amp.        0.0815 Ry
        Total length         45.4439 bohr
 

     total cpu time spent up to now is      184.0 secs

     total energy              =   -1944.92943392 Ry
     Harris-Foulkes estimate   =   -1944.94353031 Ry
     estimated scf accuracy    <       0.08992231 Ry

     iteration #  7     ecut=    36.75 Ry     beta=0.30
     Davidson diagonalization with overlap
     ethr =  5.20E-05,  avg # of iterations =  5.2

     negative rho (up, down):  7.868E-01 0.000E+00
 
     Adding external electric field

     Computed dipole along edir(3) : 
        Dipole               -0.3782 Ry au,         -0.9612 Debye
        Dipole field         -0.0010 Ry au
 
        Potential amp.        0.0918 Ry
        Total length         45.4439 bohr
 

     total cpu time spent up to now is      212.0 secs

     total energy              =   -1944.93771436 Ry
     Harris-Foulkes estimate   =   -1944.94071043 Ry
     estimated scf accuracy    <       0.02050594 Ry

     iteration #  8     ecut=    36.75 Ry     beta=0.30
     Davidson diagonalization with overlap
     ethr =  1.19E-05,  avg # of iterations =  4.8

     negative rho (up, down):  7.887E-01 0.000E+00
 
     Adding external electric field

     Computed dipole along edir(3) : 
        Dipole               -0.3649 Ry au,         -0.9276 Debye
        Dipole field         -0.0010 Ry au
 
        Potential amp.        0.0886 Ry
        Total length         45.4439 bohr
 

     total cpu time spent up to now is      239.7 secs

     total energy              =   -1944.93984560 Ry
     Harris-Foulkes estimate   =   -1944.94050132 Ry
     estimated scf accuracy    <       0.00531215 Ry

     iteration #  9     ecut=    36.75 Ry     beta=0.30
     Davidson diagonalization with overlap
     ethr =  3.07E-06,  avg # of iterations =  3.7

     negative rho (up, down):  7.903E-01 0.000E+00
 
     Adding external electric field

     Computed dipole along edir(3) : 
        Dipole               -0.3560 Ry au,         -0.9050 Debye
        Dipole field         -0.0010 Ry au
 
        Potential amp.        0.0864 Ry
        Total length         45.4439 bohr
 

     total cpu time spent up to now is      266.0 secs

     total energy              =   -1944.94032217 Ry
     Harris-Foulkes estimate   =   -1944.94047812 Ry
     estimated scf accuracy    <       0.00189383 Ry

     iteration # 10     ecut=    36.75 Ry     beta=0.30
     Davidson diagonalization with overlap
     ethr =  1.09E-06,  avg # of iterations =  3.6

     negative rho (up, down):  7.917E-01 0.000E+00
 
     Adding external electric field

     Computed dipole along edir(3) : 
        Dipole               -0.3560 Ry au,         -0.9050 Debye
        Dipole field         -0.0010 Ry au
 
        Potential amp.        0.0864 Ry
        Total length         45.4439 bohr
 

     total cpu time spent up to now is      292.3 secs

     total energy              =   -1944.94056703 Ry
     Harris-Foulkes estimate   =   -1944.94055156 Ry
     estimated scf accuracy    <       0.00052861 Ry

     iteration # 11     ecut=    36.75 Ry     beta=0.30
     Davidson diagonalization with overlap
     ethr =  3.06E-07,  avg # of iterations =  3.2

     negative rho (up, down):  7.919E-01 0.000E+00
 
     Adding external electric field

     Computed dipole along edir(3) : 
        Dipole               -0.3547 Ry au,         -0.9017 Debye
        Dipole field         -0.0009 Ry au
 
        Potential amp.        0.0861 Ry
        Total length         45.4439 bohr
 

     total cpu time spent up to now is      318.3 secs

     total energy              =   -1944.94061891 Ry
     Harris-Foulkes estimate   =   -1944.94062141 Ry
     estimated scf accuracy    <       0.00006590 Ry

     iteration # 12     ecut=    36.75 Ry     beta=0.30
     Davidson diagonalization with overlap
     ethr =  3.81E-08,  avg # of iterations =  4.9

     negative rho (up, down):  7.921E-01 0.000E+00
 
     Adding external electric field

     Computed dipole along edir(3) : 
        Dipole               -0.3529 Ry au,         -0.8970 Debye
        Dipole field         -0.0009 Ry au
 
        Potential amp.        0.0857 Ry
        Total length         45.4439 bohr
 

     total cpu time spent up to now is      347.1 secs

     total energy              =   -1944.94063500 Ry
     Harris-Foulkes estimate   =   -1944.94063699 Ry
     estimated scf accuracy    <       0.00002596 Ry

     iteration # 13     ecut=    36.75 Ry     beta=0.30
     Davidson diagonalization with overlap
     ethr =  1.50E-08,  avg # of iterations =  3.0

     negative rho (up, down):  7.923E-01 0.000E+00

     negative rho (up, down):  7.923E-01 0.000E+00

     negative rho (up, down):  7.923E-01 0.000E+00

     negative rho (up, down):  7.923E-01 0.000E+00

     negative rho (up, down):  7.923E-01 0.000E+00

     negative rho (up, down):  7.923E-01 0.000E+00

     negative rho (up, down):  7.923E-01 0.000E+00

     negative rho (up, down):  7.923E-01 0.000E+00

     negative rho (up, down):  7.923E-01 0.000E+00

     negative rho (up, down):  7.923E-01 0.000E+00

     negative rho (up, down):  7.923E-01 0.000E+00

     negative rho (up, down):  7.923E-01 0.000E+00

     negative rho (up, down):  7.923E-01 0.000E+00

     negative rho (up, down):  7.923E-01 0.000E+00

     negative rho (up, down):  7.923E-01 0.000E+00

     negative rho (up, down):  7.923E-01 0.000E+00

     negative rho (up, down):  7.923E-01 0.000E+00

     negative rho (up, down):  7.923E-01 0.000E+00

     negative rho (up, down):  7.923E-01 0.000E+00

     negative rho (up, down):  7.923E-01 0.000E+00

     negative rho (up, down):  7.923E-01 0.000E+00

     negative rho (up, down):  7.923E-01 0.000E+00

     negative rho (up, down):  7.923E-01 0.000E+00

     negative rho (up, down):  7.923E-01 0.000E+00

     negative rho (up, down):  7.923E-01 0.000E+00

     negative rho (up, down):  7.923E-01 0.000E+00

     negative rho (up, down):  7.923E-01 0.000E+00

     negative rho (up, down):  7.923E-01 0.000E+00

     negative rho (up, down):  7.923E-01 0.000E+00

     negative rho (up, down):  7.923E-01 0.000E+00

     negative rho (up, down):  7.923E-01 0.000E+00

     negative rho (up, down):  7.923E-01 0.000E+00

     negative rho (up, down):  7.923E-01 0.000E+00

     negative rho (up, down):  7.923E-01 0.000E+00

     negative rho (up, down):  7.923E-01 0.000E+00
 
     Adding external electric field

     Computed dipole along edir(3) : 
        Dipole               -0.3449 Ry au,         -0.8766 Debye
        Dipole field         -0.0009 Ry au
 
        Potential amp.        0.0837 Ry
        Total length         45.4439 bohr
 

     total cpu time spent up to now is      422.5 secs

     End of self-consistent calculation

          k = 0.0000 0.0000 0.0000 ( 17753 PWs)   bands (ev):

   -72.2749 -72.2169 -72.2168 -72.1781 -72.1334 -72.0980 -72.0778 -72.0778
   -72.0721 -72.0607 -72.0576 -72.0576 -36.7776 -36.7776 -36.7580 -36.7390
   -36.7089 -36.7088 -36.6900 -36.5820 -36.5820 -36.5781 -36.4107 -36.3404
   -36.3403 -36.2378 -36.2103 -36.2064 -36.2064 -36.1322 -36.0953 -36.0953
   -36.0284 -36.0048 -35.9951 -35.9950 -35.9748 -35.9748 -35.9290 -35.8857
   -35.8857 -35.8841 -35.8671 -35.8671 -35.7978 -35.7978 -35.7117 -35.7117
   -10.4440  -6.1333  -4.3582  -3.5624  -3.0152  -3.0152  -2.9946  -2.7887
    -2.7886  -2.7778  -2.0329  -2.0329  -2.0175  -1.9775  -1.9775  -1.9670
    -0.8233  -0.8233  -0.5191  -0.0837   0.4156   0.4156   0.6672   0.8508
     1.0761   1.1701   1.1701   1.4454   1.4454   1.6019   1.6019   1.7293
     1.7710   1.7710   1.8550   1.9265   1.9266   2.0263   2.0263   2.4240
     2.8012   3.0753   3.2183   3.2183   3.6429   3.7119   3.7119   3.9528

          k = 0.0000 0.0337 0.0000 ( 17716 PWs)   bands (ev):

   -72.2710 -72.2201 -72.2168 -72.1745 -72.1311 -72.0973 -72.0822 -72.0778
   -72.0729 -72.0632 -72.0575 -72.0571 -36.7495 -36.7404 -36.7239 -36.7145
   -36.6813 -36.6761 -36.6580 -36.5538 -36.5518 -36.5328 -36.4088 -36.3578
   -36.3487 -36.2671 -36.2107 -36.2044 -36.1849 -36.1496 -36.1140 -36.0895
   -36.0520 -36.0452 -35.9987 -35.9828 -35.9722 -35.9642 -35.9511 -35.9181
   -35.9128 -35.9078 -35.8835 -35.8735 -35.8419 -35.8098 -35.7647 -35.7230
   -10.4405  -5.8778  -4.0994  -3.2897  -3.0529  -2.8240  -2.8090  -2.7118
    -2.5929  -2.5884  -1.9684  -1.8634  -1.8576  -1.8068  -1.7288  -1.7022
    -0.7793  -0.7436  -0.4661  -0.1084   0.3518   0.4272   0.6192   0.8141
     0.9611   1.0671   1.0834   1.1502   1.2758   1.3347   1.5713   1.6719
     1.6830   1.8787   1.8893   1.9061   1.9368   1.9933   2.2212   2.2624
     2.4553   2.7386   2.8775   2.9113   3.2896   3.4131   3.5174   3.5724

          k = 0.0000 0.0674 0.0000 ( 17708 PWs)   bands (ev):

   -72.2610 -72.2289 -72.2168 -72.1664 -72.1256 -72.0992 -72.0885 -72.0779
   -72.0753 -72.0674 -72.0575 -72.0574 -36.6798 -36.6765 -36.6623 -36.6166
   -36.6158 -36.5970 -36.5786 -36.4869 -36.4858 -36.4183 -36.4123 -36.3769
   -36.3585 -36.3133 -36.2189 -36.1992 -36.1890 -36.1588 -36.1530 -36.1219
   -36.1133 -36.0830 -36.0492 -36.0244 -36.0180 -36.0083 -35.9693 -35.9501
   -35.9452 -35.9390 -35.9355 -35.9233 -35.8692 -35.8491 -35.8370 -35.7547
   -10.4338  -5.1720  -3.4279  -3.4002  -2.5771  -2.5422  -2.3607  -2.3382
    -2.1297  -2.1211  -1.7905  -1.4087  -1.3857  -1.3845  -1.0796  -0.9996
    -0.6525  -0.5555  -0.3597  -0.2357   0.0349   0.1694   0.2082   0.4245
     0.6555   0.6980   0.7793   0.9765   1.1644   1.1843   1.2991   1.3548
     1.4426   1.5540   1.6389   1.6971   1.8573   2.0107   2.0834   2.0989
     2.1381   2.2714   2.3366   2.5275   2.8208   2.8805   2.9504   3.1681

          k = 0.0000-0.1011 0.0000 ( 17668 PWs)   bands (ev):

   -72.2524 -72.2368 -72.2168 -72.1616 -72.1208 -72.1061 -72.0863 -72.0789
   -72.0779 -72.0690 -72.0579 -72.0574 -36.6330 -36.6318 -36.6141 -36.5882
   -36.5761 -36.5721 -36.4676 -36.4530 -36.4473 -36.4353 -36.4001 -36.3733
   -36.3062 -36.2560 -36.2514 -36.2096 -36.2075 -36.1956 -36.1625 -36.1574
   -36.1298 -36.0994 -36.0977 -36.0899 -36.0878 -36.0826 -35.9972 -35.9743
   -35.9707 -35.9461 -35.9193 -35.9056 -35.9031 -35.8815 -35.8004 -35.7954
   -10.4307  -4.2313  -4.2118  -2.7414  -2.6861  -2.0419  -2.0214  -1.8873
    -1.8400  -1.8252  -1.8135  -1.0352  -1.0296  -0.8586  -0.6797  -0.6146
    -0.6024  -0.5448  -0.3673  -0.3341  -0.1141   0.0407   0.0566   0.1757
     0.2616   0.5754   0.6666   0.7992   0.8580   0.9308   0.9883   1.0122
     1.0488   1.1944   1.3042   1.4145   1.5787   1.5984   1.6176   1.8712
     2.1900   2.3766   2.6254   2.6518   2.9639   3.0556   3.1900   3.2044

          k = 0.0292-0.0168 0.0000 ( 17716 PWs)   bands (ev):

   -72.2710 -72.2201 -72.2168 -72.1745 -72.1311 -72.0973 -72.0821 -72.0778
   -72.0729 -72.0632 -72.0576 -72.0570 -36.7495 -36.7404 -36.7239 -36.7145
   -36.6813 -36.6761 -36.6580 -36.5538 -36.5519 -36.5328 -36.4088 -36.3578
   -36.3487 -36.2671 -36.2107 -36.2044 -36.1849 -36.1496 -36.1140 -36.0895
   -36.0519 -36.0452 -35.9986 -35.9828 -35.9722 -35.9642 -35.9511 -35.9181
   -35.9128 -35.9078 -35.8835 -35.8735 -35.8419 -35.8098 -35.7647 -35.7230
   -10.4405  -5.8778  -4.0994  -3.2897  -3.0529  -2.8240  -2.8090  -2.7118
    -2.5929  -2.5884  -1.9684  -1.8635  -1.8576  -1.8068  -1.7288  -1.7022
    -0.7793  -0.7436  -0.4661  -0.1084   0.3518   0.4272   0.6192   0.8141
     0.9611   1.0671   1.0834   1.1502   1.2758   1.3347   1.5713   1.6719
     1.6830   1.8787   1.8893   1.9061   1.9368   1.9933   2.2212   2.2624
     2.4553   2.7386   2.8775   2.9113   3.2896   3.4131   3.5174   3.5724

          k = 0.0292 0.0168 0.0000 ( 17716 PWs)   bands (ev):

   -72.2710 -72.2200 -72.2169 -72.1745 -72.1311 -72.0973 -72.0822 -72.0778
   -72.0729 -72.0632 -72.0575 -72.0571 -36.7495 -36.7404 -36.7239 -36.7145
   -36.6813 -36.6761 -36.6580 -36.5538 -36.5519 -36.5328 -36.4088 -36.3578
   -36.3487 -36.2671 -36.2107 -36.2044 -36.1849 -36.1497 -36.1140 -36.0895
   -36.0519 -36.0452 -35.9987 -35.9828 -35.9722 -35.9642 -35.9511 -35.9181
   -35.9128 -35.9078 -35.8835 -35.8735 -35.8419 -35.8098 -35.7647 -35.7230
   -10.4405  -5.8778  -4.0994  -3.2897  -3.0529  -2.8240  -2.8090  -2.7118
    -2.5929  -2.5884  -1.9684  -1.8635  -1.8576  -1.8068  -1.7288  -1.7022
    -0.7792  -0.7436  -0.4661  -0.1084   0.3518   0.4272   0.6192   0.8141
     0.9611   1.0671   1.0834   1.1502   1.2758   1.3347   1.5713   1.6719
     1.6830   1.8787   1.8893   1.9061   1.9368   1.9933   2.2212   2.2624
     2.4553   2.7386   2.8775   2.9113   3.2896   3.4131   3.5174   3.5724

          k = 0.0292 0.0505 0.0000 ( 17715 PWs)   bands (ev):

   -72.2640 -72.2258 -72.2172 -72.1686 -72.1272 -72.0961 -72.0893 -72.0806
   -72.0713 -72.0666 -72.0577 -72.0573 -36.7066 -36.6901 -36.6629 -36.6483
   -36.6344 -36.6183 -36.6061 -36.5170 -36.4735 -36.4682 -36.4093 -36.3725
   -36.3667 -36.3048 -36.2269 -36.2010 -36.1862 -36.1682 -36.1403 -36.1018
   -36.0850 -36.0452 -36.0280 -36.0191 -36.0034 -35.9885 -35.9693 -35.9617
   -35.9430 -35.9207 -35.9034 -35.8888 -35.8850 -35.8525 -35.8243 -35.7506
   -10.4355  -5.3941  -3.6222  -2.9828  -2.9742  -2.7801  -2.4625  -2.4457
    -2.3242  -2.1310  -1.7117  -1.6822  -1.4868  -1.4637  -1.4458  -1.1335
    -0.6910  -0.6247  -0.3886  -0.1874   0.1273   0.2559   0.4202   0.6326
     0.6922   0.7640   0.8206   0.9996   1.0872   1.2438   1.3867   1.5217
     1.5601   1.6109   1.7203   1.8488   1.9306   2.0342   2.1259   2.1825
     2.2642   2.2961   2.4593   2.6543   2.7505   2.9284   3.0738   3.3205

          k = 0.0292-0.1179 0.0000 ( 17692 PWs)   bands (ev):

   -72.2532 -72.2352 -72.2176 -72.1619 -72.1203 -72.1028 -72.0914 -72.0833
   -72.0717 -72.0684 -72.0583 -72.0578 -36.6390 -36.6323 -36.5981 -36.5782
   -36.5634 -36.5574 -36.5137 -36.4584 -36.4308 -36.4244 -36.3973 -36.3668
   -36.3483 -36.2982 -36.2816 -36.2276 -36.1994 -36.1841 -36.1740 -36.1465
   -36.1244 -36.1071 -36.0947 -36.0604 -36.0442 -36.0275 -35.9938 -35.9802
   -35.9619 -35.9553 -35.9291 -35.9075 -35.8976 -35.8773 -35.8449 -35.7960
   -10.4307  -4.5421  -3.5973  -2.8665  -2.7709  -2.3819  -2.0297  -1.9535
    -1.8033  -1.5850  -1.5156  -1.1503  -1.0138  -0.9697  -0.8630  -0.7661
    -0.5251  -0.4679  -0.3652  -0.2517  -0.1660  -0.1286   0.0142   0.2040
     0.3171   0.4523   0.5407   0.7441   0.8377   0.9184   0.9782   1.0055
     1.0370   1.1334   1.3206   1.4689   1.5538   1.6674   1.9350   2.0006
     2.2308   2.3729   2.4639   2.6302   2.8585   3.0292   3.1404   3.2126

          k = 0.0292-0.0842 0.0000 ( 17692 PWs)   bands (ev):

   -72.2531 -72.2353 -72.2176 -72.1619 -72.1203 -72.1028 -72.0914 -72.0832
   -72.0717 -72.0684 -72.0583 -72.0578 -36.6390 -36.6322 -36.5982 -36.5782
   -36.5633 -36.5574 -36.5137 -36.4585 -36.4308 -36.4244 -36.3973 -36.3668
   -36.3483 -36.2982 -36.2816 -36.2276 -36.1993 -36.1841 -36.1740 -36.1465
   -36.1244 -36.1071 -36.0947 -36.0603 -36.0442 -36.0275 -35.9938 -35.9802
   -35.9618 -35.9553 -35.9291 -35.9075 -35.8976 -35.8773 -35.8449 -35.7961
   -10.4307  -4.5421  -3.5973  -2.8665  -2.7709  -2.3819  -2.0297  -1.9535
    -1.8033  -1.5850  -1.5156  -1.1503  -1.0138  -0.9697  -0.8630  -0.7661
    -0.5251  -0.4679  -0.3652  -0.2517  -0.1660  -0.1286   0.0142   0.2040
     0.3171   0.4523   0.5407   0.7441   0.8377   0.9184   0.9782   1.0055
     1.0370   1.1334   1.3206   1.4689   1.5538   1.6674   1.9350   2.0007
     2.2308   2.3729   2.4639   2.6301   2.8585   3.0292   3.1404   3.2127

          k = 0.0292-0.0505 0.0000 ( 17715 PWs)   bands (ev):

   -72.2640 -72.2259 -72.2171 -72.1686 -72.1272 -72.0962 -72.0892 -72.0806
   -72.0713 -72.0666 -72.0578 -72.0573 -36.7066 -36.6901 -36.6629 -36.6482
   -36.6344 -36.6183 -36.6061 -36.5170 -36.4734 -36.4682 -36.4093 -36.3726
   -36.3666 -36.3048 -36.2269 -36.2010 -36.1862 -36.1681 -36.1403 -36.1018
   -36.0850 -36.0452 -36.0280 -36.0191 -36.0034 -35.9885 -35.9693 -35.9618
   -35.9429 -35.9207 -35.9034 -35.8888 -35.8850 -35.8525 -35.8243 -35.7506
   -10.4355  -5.3941  -3.6222  -2.9828  -2.9742  -2.7801  -2.4625  -2.4457
    -2.3242  -2.1310  -1.7117  -1.6822  -1.4868  -1.4637  -1.4458  -1.1335
    -0.6910  -0.6247  -0.3886  -0.1874   0.1273   0.2559   0.4202   0.6326
     0.6922   0.7640   0.8206   0.9996   1.0872   1.2438   1.3867   1.5217
     1.5601   1.6109   1.7203   1.8488   1.9306   2.0342   2.1259   2.1825
     2.2643   2.2961   2.4593   2.6543   2.7505   2.9284   3.0738   3.3205

          k = 0.0583-0.0337 0.0000 ( 17708 PWs)   bands (ev):

   -72.2610 -72.2288 -72.2168 -72.1664 -72.1256 -72.0992 -72.0885 -72.0779
   -72.0753 -72.0673 -72.0575 -72.0575 -36.6798 -36.6765 -36.6623 -36.6166
   -36.6158 -36.5970 -36.5786 -36.4869 -36.4858 -36.4183 -36.4123 -36.3769
   -36.3585 -36.3133 -36.2189 -36.1992 -36.1890 -36.1588 -36.1530 -36.1219
   -36.1133 -36.0830 -36.0492 -36.0244 -36.0180 -36.0083 -35.9693 -35.9502
   -35.9452 -35.9390 -35.9355 -35.9233 -35.8692 -35.8491 -35.8370 -35.7547
   -10.4338  -5.1720  -3.4279  -3.4002  -2.5771  -2.5422  -2.3607  -2.3382
    -2.1297  -2.1211  -1.7905  -1.4088  -1.3857  -1.3845  -1.0796  -0.9996
    -0.6525  -0.5555  -0.3597  -0.2357   0.0349   0.1694   0.2082   0.4245
     0.6555   0.6980   0.7793   0.9766   1.1644   1.1843   1.2991   1.3548
     1.4426   1.5540   1.6389   1.6971   1.8573   2.0107   2.0834   2.0989
     2.1381   2.2714   2.3366   2.5275   2.8207   2.8805   2.9504   3.1681

          k = 0.0583-0.0000 0.0000 ( 17715 PWs)   bands (ev):

   -72.2640 -72.2258 -72.2172 -72.1686 -72.1272 -72.0961 -72.0892 -72.0806
   -72.0713 -72.0666 -72.0577 -72.0573 -36.7066 -36.6901 -36.6629 -36.6483
   -36.6344 -36.6183 -36.6061 -36.5170 -36.4735 -36.4682 -36.4093 -36.3725
   -36.3667 -36.3048 -36.2269 -36.2010 -36.1862 -36.1682 -36.1403 -36.1018
   -36.0850 -36.0452 -36.0280 -36.0191 -36.0034 -35.9885 -35.9693 -35.9618
   -35.9430 -35.9207 -35.9034 -35.8888 -35.8850 -35.8525 -35.8243 -35.7506
   -10.4355  -5.3941  -3.6222  -2.9828  -2.9742  -2.7801  -2.4625  -2.4457
    -2.3242  -2.1310  -1.7117  -1.6822  -1.4868  -1.4637  -1.4458  -1.1335
    -0.6910  -0.6247  -0.3886  -0.1874   0.1273   0.2559   0.4202   0.6326
     0.6922   0.7640   0.8206   0.9996   1.0872   1.2438   1.3867   1.5217
     1.5601   1.6109   1.7203   1.8488   1.9306   2.0342   2.1259   2.1825
     2.2642   2.2961   2.4593   2.6543   2.7505   2.9284   3.0738   3.3205

          k = 0.0583 0.0337 0.0000 ( 17708 PWs)   bands (ev):

   -72.2610 -72.2287 -72.2169 -72.1664 -72.1256 -72.0992 -72.0886 -72.0778
   -72.0753 -72.0674 -72.0575 -72.0574 -36.6798 -36.6765 -36.6623 -36.6167
   -36.6157 -36.5970 -36.5786 -36.4869 -36.4858 -36.4183 -36.4123 -36.3769
   -36.3584 -36.3133 -36.2189 -36.1992 -36.1890 -36.1588 -36.1530 -36.1219
   -36.1133 -36.0830 -36.0492 -36.0244 -36.0180 -36.0083 -35.9693 -35.9501
   -35.9453 -35.9390 -35.9355 -35.9233 -35.8692 -35.8491 -35.8369 -35.7547
   -10.4338  -5.1720  -3.4279  -3.4002  -2.5771  -2.5422  -2.3606  -2.3382
    -2.1297  -2.1211  -1.7905  -1.4087  -1.3857  -1.3845  -1.0796  -0.9996
    -0.6525  -0.5555  -0.3598  -0.2357   0.0349   0.1694   0.2082   0.4245
     0.6555   0.6980   0.7793   0.9766   1.1644   1.1843   1.2991   1.3548
     1.4426   1.5540   1.6389   1.6971   1.8573   2.0107   2.0835   2.0989
     2.1381   2.2714   2.3366   2.5275   2.8207   2.8805   2.9504   3.1682

          k = 0.0583-0.1347 0.0000 ( 17692 PWs)   bands (ev):

   -72.2532 -72.2351 -72.2177 -72.1619 -72.1203 -72.1028 -72.0914 -72.0832
   -72.0717 -72.0684 -72.0583 -72.0577 -36.6390 -36.6323 -36.5981 -36.5783
   -36.5633 -36.5574 -36.5137 -36.4584 -36.4308 -36.4244 -36.3973 -36.3668
   -36.3483 -36.2983 -36.2816 -36.2276 -36.1993 -36.1841 -36.1740 -36.1465
   -36.1244 -36.1071 -36.0947 -36.0603 -36.0442 -36.0275 -35.9938 -35.9802
   -35.9619 -35.9554 -35.9291 -35.9075 -35.8976 -35.8773 -35.8449 -35.7960
   -10.4307  -4.5421  -3.5973  -2.8665  -2.7709  -2.3819  -2.0297  -1.9535
    -1.8033  -1.5850  -1.5156  -1.1503  -1.0138  -0.9697  -0.8630  -0.7661
    -0.5251  -0.4679  -0.3652  -0.2517  -0.1660  -0.1286   0.0142   0.2040
     0.3171   0.4523   0.5407   0.7441   0.8377   0.9184   0.9782   1.0055
     1.0371   1.1334   1.3206   1.4689   1.5538   1.6674   1.9350   2.0007
     2.2309   2.3729   2.4639   2.6302   2.8585   3.0292   3.1404   3.2126

          k = 0.0583-0.1011 0.0000 ( 17592 PWs)   bands (ev):

   -72.2442 -72.2430 -72.2185 -72.1597 -72.1118 -72.1097 -72.0955 -72.0825
   -72.0741 -72.0651 -72.0588 -72.0587 -36.6079 -36.5878 -36.5703 -36.5383
   -36.5353 -36.5154 -36.4845 -36.4781 -36.4628 -36.3857 -36.3764 -36.3508
   -36.3189 -36.3111 -36.3066 -36.2387 -36.2384 -36.2361 -36.1873 -36.1741
   -36.1541 -36.1252 -36.1201 -36.0378 -36.0293 -36.0245 -35.9961 -35.9618
   -35.9615 -35.9556 -35.9386 -35.9251 -35.9212 -35.8621 -35.8570 -35.8545
   -10.4291  -3.6442  -3.6393  -3.6302  -2.2395  -2.2354  -2.1949  -1.3345
    -1.2776  -1.2582  -1.1221  -1.1060  -1.1038  -0.7551  -0.7431  -0.7293
    -0.5365  -0.5205  -0.4879  -0.4500  -0.2635  -0.2229  -0.2126  -0.0204
     0.2788   0.2820   0.3036   0.4719   0.5022   0.6063   0.7531   0.7941
     0.8554   0.9338   1.2721   1.2815   1.5796   1.7989   1.9811   2.1504
     2.1837   2.3392   2.4439   2.5480   2.7218   2.9317   3.1650   3.2281

          k = 0.0583-0.0674 0.0000 ( 17692 PWs)   bands (ev):

   -72.2531 -72.2353 -72.2176 -72.1619 -72.1204 -72.1028 -72.0914 -72.0833
   -72.0717 -72.0684 -72.0583 -72.0578 -36.6390 -36.6322 -36.5982 -36.5782
   -36.5633 -36.5574 -36.5137 -36.4585 -36.4308 -36.4244 -36.3973 -36.3668
   -36.3483 -36.2983 -36.2816 -36.2276 -36.1993 -36.1841 -36.1740 -36.1465
   -36.1244 -36.1071 -36.0947 -36.0603 -36.0442 -36.0275 -35.9938 -35.9802
   -35.9619 -35.9553 -35.9291 -35.9075 -35.8976 -35.8773 -35.8449 -35.7961
   -10.4307  -4.5421  -3.5973  -2.8665  -2.7709  -2.3819  -2.0297  -1.9535
    -1.8033  -1.5850  -1.5156  -1.1503  -1.0138  -0.9697  -0.8630  -0.7661
    -0.5251  -0.4679  -0.3652  -0.2517  -0.1660  -0.1286   0.0142   0.2040
     0.3171   0.4523   0.5407   0.7441   0.8377   0.9184   0.9782   1.0055
     1.0370   1.1334   1.3206   1.4689   1.5538   1.6674   1.9350   2.0007
     2.2308   2.3729   2.4639   2.6301   2.8585   3.0292   3.1404   3.2126

          k =-0.0875 0.0505 0.0000 ( 17668 PWs)   bands (ev):

   -72.2524 -72.2367 -72.2168 -72.1616 -72.1208 -72.1061 -72.0863 -72.0789
   -72.0779 -72.0690 -72.0579 -72.0574 -36.6330 -36.6318 -36.6141 -36.5882
   -36.5761 -36.5721 -36.4676 -36.4530 -36.4473 -36.4354 -36.4001 -36.3733
   -36.3062 -36.2560 -36.2514 -36.2096 -36.2075 -36.1956 -36.1625 -36.1574
   -36.1298 -36.0994 -36.0977 -36.0899 -36.0878 -36.0826 -35.9972 -35.9743
   -35.9707 -35.9461 -35.9193 -35.9057 -35.9031 -35.8815 -35.8004 -35.7954
   -10.4307  -4.2313  -4.2118  -2.7414  -2.6861  -2.0419  -2.0214  -1.8873
    -1.8400  -1.8252  -1.8135  -1.0352  -1.0296  -0.8586  -0.6797  -0.6146
    -0.6024  -0.5448  -0.3673  -0.3341  -0.1141   0.0406   0.0566   0.1757
     0.2616   0.5754   0.6666   0.7992   0.8580   0.9308   0.9883   1.0122
     1.0488   1.1944   1.3042   1.4145   1.5787   1.5984   1.6176   1.8712
     2.1900   2.3766   2.6254   2.6518   2.9639   3.0556   3.1900   3.2043

          k =-0.0875 0.0842 0.0000 ( 17692 PWs)   bands (ev):

   -72.2532 -72.2352 -72.2176 -72.1619 -72.1203 -72.1028 -72.0914 -72.0833
   -72.0717 -72.0684 -72.0583 -72.0578 -36.6390 -36.6323 -36.5981 -36.5782
   -36.5634 -36.5574 -36.5137 -36.4584 -36.4308 -36.4244 -36.3973 -36.3668
   -36.3483 -36.2982 -36.2816 -36.2276 -36.1993 -36.1841 -36.1740 -36.1465
   -36.1244 -36.1071 -36.0947 -36.0604 -36.0442 -36.0275 -35.9938 -35.9802
   -35.9619 -35.9553 -35.9291 -35.9075 -35.8976 -35.8773 -35.8449 -35.7961
   -10.4307  -4.5421  -3.5973  -2.8665  -2.7709  -2.3819  -2.0297  -1.9535
    -1.8033  -1.5850  -1.5156  -1.1503  -1.0138  -0.9697  -0.8630  -0.7661
    -0.5251  -0.4679  -0.3652  -0.2517  -0.1660  -0.1286   0.0142   0.2040
     0.3171   0.4523   0.5407   0.7441   0.8377   0.9184   0.9782   1.0055
     1.0371   1.1334   1.3206   1.4689   1.5538   1.6674   1.9350   2.0006
     2.2308   2.3729   2.4639   2.6302   2.8585   3.0292   3.1404   3.2126

          k =-0.0875 0.1179 0.0000 ( 17692 PWs)   bands (ev):

   -72.2532 -72.2351 -72.2177 -72.1619 -72.1203 -72.1028 -72.0914 -72.0832
   -72.0717 -72.0684 -72.0583 -72.0577 -36.6390 -36.6323 -36.5981 -36.5783
   -36.5633 -36.5574 -36.5137 -36.4584 -36.4308 -36.4244 -36.3973 -36.3669
   -36.3483 -36.2983 -36.2816 -36.2276 -36.1993 -36.1841 -36.1740 -36.1465
   -36.1244 -36.1071 -36.0947 -36.0603 -36.0442 -36.0275 -35.9938 -35.9802
   -35.9619 -35.9554 -35.9291 -35.9075 -35.8976 -35.8773 -35.8449 -35.7961
   -10.4307  -4.5421  -3.5973  -2.8665  -2.7709  -2.3819  -2.0297  -1.9535
    -1.8033  -1.5850  -1.5156  -1.1503  -1.0138  -0.9697  -0.8630  -0.7661
    -0.5251  -0.4679  -0.3652  -0.2517  -0.1660  -0.1286   0.0142   0.2040
     0.3171   0.4523   0.5407   0.7441   0.8377   0.9184   0.9782   1.0055
     1.0371   1.1334   1.3206   1.4689   1.5538   1.6674   1.9350   2.0007
     2.2309   2.3729   2.4639   2.6302   2.8585   3.0292   3.1404   3.2126

          k =-0.0875-0.0505 0.0000 ( 17668 PWs)   bands (ev):

   -72.2525 -72.2365 -72.2169 -72.1616 -72.1207 -72.1061 -72.0863 -72.0790
   -72.0779 -72.0690 -72.0579 -72.0574 -36.6330 -36.6318 -36.6140 -36.5883
   -36.5761 -36.5720 -36.4676 -36.4530 -36.4473 -36.4354 -36.4002 -36.3733
   -36.3063 -36.2559 -36.2515 -36.2096 -36.2075 -36.1956 -36.1625 -36.1573
   -36.1298 -36.0994 -36.0977 -36.0898 -36.0878 -36.0826 -35.9973 -35.9743
   -35.9707 -35.9461 -35.9194 -35.9056 -35.9032 -35.8815 -35.8004 -35.7954
   -10.4307  -4.2313  -4.2118  -2.7414  -2.6861  -2.0418  -2.0214  -1.8873
    -1.8400  -1.8252  -1.8135  -1.0352  -1.0296  -0.8586  -0.6797  -0.6146
    -0.6024  -0.5448  -0.3673  -0.3341  -0.1141   0.0407   0.0566   0.1757
     0.2616   0.5754   0.6666   0.7992   0.8580   0.9308   0.9883   1.0122
     1.0488   1.1944   1.3042   1.4145   1.5787   1.5984   1.6176   1.8712
     2.1901   2.3766   2.6254   2.6518   2.9640   3.0556   3.1899   3.2044

     the Fermi energy is     2.0360 ev

!    total energy              =   -1944.94063302 Ry
     Harris-Foulkes estimate   =   -1944.94065268 Ry
     estimated scf accuracy    <       0.00000930 Ry

     The total energy is the sum of the following terms:

     one-electron contribution =  -14910.72533884 Ry
     hartree contribution      =    7438.69779601 Ry
     xc contribution           =    -515.57622554 Ry
     ewald contribution        =    6042.75656026 Ry
     electric field correction =       0.00031772 Ry
     smearing contrib. (-TS)   =      -0.09374263 Ry

     convergence has been achieved in  13 iterations
 
 BEEF-vdW xc energy contributions
           1 :   -453.510462218553     
           2 :    419.406580920376     
           3 :   -359.425835910166     
           4 :    286.776035641156     
           5 :   -215.113734853453     
           6 :    154.618029650945     
           7 :   -109.871017515992     
           8 :    79.9922841581714     
           9 :   -60.5933565817426     
          10 :    46.4677129793754     
          11 :   -33.8250035389592     
          12 :    21.2825020156954     
          13 :   -9.51538576520187     
          14 :   7.035350441611854E-002
          15 :    5.89808807452437     
          16 :   -8.36705525357718     
          17 :    8.43399139197999     
          18 :   -7.70685439266055     
          19 :    7.49963957997625     
          20 :   -8.27778427387807     
          21 :    9.61175314967920     
          22 :   -10.6039187407266     
          23 :    10.5082497664030     
          24 :   -9.18994303637919     
          25 :    7.19263921694233     
          26 :   -5.41572231896384     
          27 :    4.60665826719287     
          28 :   -4.95931581234834     
          29 :    6.03756418618093     
          30 :   -7.04697548816597     
          31 :   -41.1584913931270     
          32 :   -30.7957003808820     

     Forces acting on atoms (Ry/au):


     negative rho (up, down):  7.923E-01 0.000E+00
     atom    1 type  1   force =     0.00159010    0.00092787   -0.00152176
     atom    2 type  1   force =    -0.00159404    0.00090733   -0.00151269
     atom    3 type  1   force =    -0.00001441   -0.00183847   -0.00151812
     atom    4 type  1   force =     0.00001846   -0.00000083   -0.00053295
     atom    5 type  1   force =     0.00000812    0.00200759   -0.00475014
     atom    6 type  1   force =    -0.00001035   -0.00000484    0.01616089
     atom    7 type  1   force =    -0.00173546   -0.00100305   -0.00474852
     atom    8 type  1   force =     0.00173496   -0.00099424   -0.00475121
     atom    9 type  1   force =    -0.00000854   -0.00000270    0.22856661
     atom   10 type  1   force =     0.00000893    0.00527520   -0.01725453
     atom   11 type  1   force =     0.00456987   -0.00263265   -0.01725895
     atom   12 type  1   force =    -0.00456837   -0.00264223   -0.01724201
     atom   13 type  2   force =     0.00000072    0.00000102   -0.17363664

     Total force =     0.288736     Total SCF correction =     0.007516


     entering subroutine stress ...


     negative rho (up, down):  7.923E-01 0.000E+00
          total   stress  (Ry/bohr**3)                   (kbar)     P=  -50.64
  -0.00041218  -0.00000000  -0.00000001        -60.63     -0.00     -0.00
  -0.00000000  -0.00041219  -0.00000000         -0.00    -60.64     -0.00
  -0.00000001  -0.00000000  -0.00020836         -0.00     -0.00    -30.65


     BFGS Geometry Optimization

     number of scf cycles    =   1
     number of bfgs steps    =   0

     energy   new            =   -1944.9406330229 Ry

     new trust radius        =       0.2285666150 bohr
     new conv_thr            =       0.0000099958 Ry


ATOMIC_POSITIONS (crystal)
W1       0.166666667   0.166666667   0.405441099    0   0   0
W1       0.666666667   0.166666667   0.405441099    0   0   0
W1       0.166666667   0.666666667   0.405441099    0   0   0
W1       0.666666667   0.666666667   0.405441099    0   0   0
W1       0.833333333   0.333333333   0.500000000    0   0   0
W1       0.333333333   0.333333333   0.500000000    0   0   0
W1       0.833333333   0.833333333   0.500000000    0   0   0
W1       0.333333333   0.833333333   0.500000000    0   0   0
W1      -0.000000646  -0.000000289   0.599462802
W1       0.499718710   0.000564234   0.594188705
W1       0.000564100   0.499718413   0.594188610
W1       0.499718138   0.499717388   0.594188973
N1       0.000000012   0.000000109   0.671131133



     Writing output data file calc.save
     Check: negative starting charge=   -0.760404
     NEW-OLD atomic charge density approx. for the potential
     Check: negative starting charge=   -0.761396

     negative rho (up, down):  7.914E-01 0.000E+00
 
     Adding external electric field

     Computed dipole along edir(3) : 
        Dipole               -0.3271 Ry au,         -0.8315 Debye
        Dipole field         -0.0009 Ry au
 
        Potential amp.        0.0794 Ry
        Total length         45.4439 bohr
 

     total cpu time spent up to now is      532.0 secs

     per-process dynamical memory:    87.5 Mb

     Self-consistent Calculation

     iteration #  1     ecut=    36.75 Ry     beta=0.30
     Davidson diagonalization with overlap
     ethr =  1.00E-06,  avg # of iterations = 11.3

     negative rho (up, down):  7.916E-01 0.000E+00
 
     Adding external electric field

     Computed dipole along edir(3) : 
        Dipole               -1.6756 Ry au,         -4.2588 Debye
        Dipole field         -0.0045 Ry au
 
        Potential amp.        0.4068 Ry
        Total length         45.4439 bohr
 

     total cpu time spent up to now is      584.2 secs

     total energy              =   -1944.86195223 Ry
     Harris-Foulkes estimate   =   -1945.00469921 Ry
     estimated scf accuracy    <       0.30809549 Ry

     iteration #  2     ecut=    36.75 Ry     beta=0.30
     Davidson diagonalization with overlap
     ethr =  1.78E-04,  avg # of iterations =  6.0

     negative rho (up, down):  7.917E-01 0.000E+00
 
     Adding external electric field

     Computed dipole along edir(3) : 
        Dipole               -0.3198 Ry au,         -0.8127 Debye
        Dipole field         -0.0009 Ry au
 
        Potential amp.        0.0776 Ry
        Total length         45.4439 bohr
 

     total cpu time spent up to now is      634.0 secs

     total energy              =   -1943.61983227 Ry
     Harris-Foulkes estimate   =   -1946.29097811 Ry
     estimated scf accuracy    <      97.65171502 Ry

     iteration #  3     ecut=    36.75 Ry     beta=0.30
     Davidson diagonalization with overlap
     ethr =  1.78E-04,  avg # of iterations =  6.0

     negative rho (up, down):  7.919E-01 0.000E+00
 
     Adding external electric field

     Computed dipole along edir(3) : 
        Dipole               -0.3786 Ry au,         -0.9623 Debye
        Dipole field         -0.0010 Ry au
 
        Potential amp.        0.0919 Ry
        Total length         45.4439 bohr
 

     total cpu time spent up to now is      672.8 secs

     total energy              =   -1944.92504830 Ry
     Harris-Foulkes estimate   =   -1945.04898526 Ry
     estimated scf accuracy    <       2.51733122 Ry

     iteration #  4     ecut=    36.75 Ry     beta=0.30
     Davidson diagonalization with overlap
     ethr =  1.78E-04,  avg # of iterations =  3.2

     negative rho (up, down):  7.921E-01 0.000E+00
 
     Adding external electric field

     Computed dipole along edir(3) : 
        Dipole               -0.3231 Ry au,         -0.8213 Debye
        Dipole field         -0.0009 Ry au
 
        Potential amp.        0.0784 Ry
        Total length         45.4439 bohr
 

     total cpu time spent up to now is      703.4 secs

     total energy              =   -1944.98944877 Ry
     Harris-Foulkes estimate   =   -1945.00017000 Ry
     estimated scf accuracy    <       0.09327488 Ry

     iteration #  5     ecut=    36.75 Ry     beta=0.30
     Davidson diagonalization with overlap
     ethr =  5.39E-05,  avg # of iterations =  3.1

     negative rho (up, down):  7.924E-01 0.000E+00
 
     Adding external electric field

     Computed dipole along edir(3) : 
        Dipole               -0.3053 Ry au,         -0.7761 Debye
        Dipole field         -0.0008 Ry au
 
        Potential amp.        0.0741 Ry
        Total length         45.4439 bohr
 

     total cpu time spent up to now is      732.2 secs

     total energy              =   -1944.99388419 Ry
     Harris-Foulkes estimate   =   -1944.99496960 Ry
     estimated scf accuracy    <       0.00749866 Ry

     iteration #  6     ecut=    36.75 Ry     beta=0.30
     Davidson diagonalization with overlap
     ethr =  4.33E-06,  avg # of iterations =  5.0

     negative rho (up, down):  7.925E-01 0.000E+00
 
     Adding external electric field

     Computed dipole along edir(3) : 
        Dipole               -0.3111 Ry au,         -0.7909 Debye
        Dipole field         -0.0008 Ry au
 
        Potential amp.        0.0755 Ry
        Total length         45.4439 bohr
 

     total cpu time spent up to now is      766.0 secs

     total energy              =   -1944.99503045 Ry
     Harris-Foulkes estimate   =   -1944.99542741 Ry
     estimated scf accuracy    <       0.00364110 Ry

     iteration #  7     ecut=    36.75 Ry     beta=0.30
     Davidson diagonalization with overlap
     ethr =  2.10E-06,  avg # of iterations =  1.9

     negative rho (up, down):  7.927E-01 0.000E+00
 
     Adding external electric field

     Computed dipole along edir(3) : 
        Dipole               -0.3189 Ry au,         -0.8106 Debye
        Dipole field         -0.0009 Ry au
 
        Potential amp.        0.0774 Ry
        Total length         45.4439 bohr
 

     total cpu time spent up to now is      794.3 secs

     total energy              =   -1944.99501039 Ry
     Harris-Foulkes estimate   =   -1944.99516534 Ry
     estimated scf accuracy    <       0.00100638 Ry

     iteration #  8     ecut=    36.75 Ry     beta=0.30
     Davidson diagonalization with overlap
     ethr =  5.82E-07,  avg # of iterations =  4.0

     negative rho (up, down):  7.928E-01 0.000E+00
 
     Adding external electric field

     Computed dipole along edir(3) : 
        Dipole               -0.3158 Ry au,         -0.8027 Debye
        Dipole field         -0.0008 Ry au
 
        Potential amp.        0.0767 Ry
        Total length         45.4439 bohr
 

     total cpu time spent up to now is      826.4 secs

     total energy              =   -1944.99517937 Ry
     Harris-Foulkes estimate   =   -1944.99529467 Ry
     estimated scf accuracy    <       0.00108656 Ry

     iteration #  9     ecut=    36.75 Ry     beta=0.30
     Davidson diagonalization with overlap
     ethr =  5.82E-07,  avg # of iterations =  2.0

     negative rho (up, down):  7.929E-01 0.000E+00
 
     Adding external electric field

     Computed dipole along edir(3) : 
        Dipole               -0.3140 Ry au,         -0.7981 Debye
        Dipole field         -0.0008 Ry au
 
        Potential amp.        0.0762 Ry
        Total length         45.4439 bohr
 

     total cpu time spent up to now is      854.5 secs

     total energy              =   -1944.99518385 Ry
     Harris-Foulkes estimate   =   -1944.99522287 Ry
     estimated scf accuracy    <       0.00025987 Ry

     iteration # 10     ecut=    36.75 Ry     beta=0.30
     Davidson diagonalization with overlap
     ethr =  1.50E-07,  avg # of iterations =  4.0

     negative rho (up, down):  7.929E-01 0.000E+00
 
     Adding external electric field

     Computed dipole along edir(3) : 
        Dipole               -0.3131 Ry au,         -0.7959 Debye
        Dipole field         -0.0008 Ry au
 
        Potential amp.        0.0760 Ry
        Total length         45.4439 bohr
 

     total cpu time spent up to now is      885.4 secs

     total energy              =   -1944.99521821 Ry
     Harris-Foulkes estimate   =   -1944.99522255 Ry
     estimated scf accuracy    <       0.00003404 Ry

     iteration # 11     ecut=    36.75 Ry     beta=0.30
     Davidson diagonalization with overlap
     ethr =  1.97E-08,  avg # of iterations =  3.0

     negative rho (up, down):  7.930E-01 0.000E+00

     negative rho (up, down):  7.930E-01 0.000E+00

     negative rho (up, down):  7.930E-01 0.000E+00

     negative rho (up, down):  7.930E-01 0.000E+00

     negative rho (up, down):  7.930E-01 0.000E+00

     negative rho (up, down):  7.930E-01 0.000E+00

     negative rho (up, down):  7.930E-01 0.000E+00

     negative rho (up, down):  7.930E-01 0.000E+00

     negative rho (up, down):  7.930E-01 0.000E+00

     negative rho (up, down):  7.930E-01 0.000E+00

     negative rho (up, down):  7.930E-01 0.000E+00

     negative rho (up, down):  7.930E-01 0.000E+00

     negative rho (up, down):  7.930E-01 0.000E+00

     negative rho (up, down):  7.930E-01 0.000E+00

     negative rho (up, down):  7.930E-01 0.000E+00

     negative rho (up, down):  7.930E-01 0.000E+00

     negative rho (up, down):  7.930E-01 0.000E+00

     negative rho (up, down):  7.930E-01 0.000E+00

     negative rho (up, down):  7.930E-01 0.000E+00

     negative rho (up, down):  7.930E-01 0.000E+00

     negative rho (up, down):  7.930E-01 0.000E+00

     negative rho (up, down):  7.930E-01 0.000E+00

     negative rho (up, down):  7.930E-01 0.000E+00

     negative rho (up, down):  7.930E-01 0.000E+00

     negative rho (up, down):  7.930E-01 0.000E+00

     negative rho (up, down):  7.930E-01 0.000E+00

     negative rho (up, down):  7.930E-01 0.000E+00

     negative rho (up, down):  7.930E-01 0.000E+00

     negative rho (up, down):  7.930E-01 0.000E+00

     negative rho (up, down):  7.930E-01 0.000E+00

     negative rho (up, down):  7.930E-01 0.000E+00

     negative rho (up, down):  7.930E-01 0.000E+00

     negative rho (up, down):  7.930E-01 0.000E+00

     negative rho (up, down):  7.930E-01 0.000E+00

     negative rho (up, down):  7.930E-01 0.000E+00
 
     Adding external electric field

     Computed dipole along edir(3) : 
        Dipole               -0.3253 Ry au,         -0.8269 Debye
        Dipole field         -0.0009 Ry au
 
        Potential amp.        0.0790 Ry
        Total length         45.4439 bohr
 

     total cpu time spent up to now is      962.3 secs

     End of self-consistent calculation

          k = 0.0000 0.0000 0.0000 ( 17753 PWs)   bands (ev):

   -72.2047 -72.1458 -72.1458 -72.1410 -72.0931 -72.0738 -72.0540 -72.0540
   -72.0367 -72.0295 -72.0295 -71.7461 -36.7350 -36.7350 -36.7284 -36.6902
   -36.6358 -36.6111 -36.6111 -36.5309 -36.5260 -36.5260 -36.3592 -36.2805
   -36.2805 -36.1866 -36.1708 -36.1708 -36.1668 -36.0733 -36.0483 -36.0483
   -35.9925 -35.9699 -35.9699 -35.9600 -35.9157 -35.8914 -35.8914 -35.8471
   -35.8456 -35.8456 -35.8047 -35.8047 -35.6768 -35.6768 -35.6420 -35.6420
   -10.6324  -6.0702  -4.2991  -3.5177  -2.9688  -2.9688  -2.9500  -2.7132
    -2.7093  -2.7093  -1.9837  -1.9837  -1.9626  -1.9300  -1.9300  -1.9100
    -1.0263  -1.0263  -0.5020  -0.2974   0.3452   0.3452   0.7159   0.8932
     1.1455   1.1455   1.1496   1.4984   1.4984   1.6367   1.6367   1.8087
     1.8404   1.8404   1.8901   2.0466   2.0467   2.0945   2.0945   2.5967
     2.8467   3.1223   3.2223   3.2223   3.6904   3.7364   3.7364   4.0071

          k = 0.0000 0.0337 0.0000 ( 17716 PWs)   bands (ev):

   -72.2009 -72.1492 -72.1458 -72.1368 -72.0916 -72.0729 -72.0579 -72.0540
   -72.0377 -72.0314 -72.0294 -71.7463 -36.7072 -36.7028 -36.6877 -36.6676
   -36.6089 -36.5837 -36.5801 -36.5024 -36.4964 -36.4780 -36.3578 -36.3017
   -36.2910 -36.2113 -36.1699 -36.1661 -36.1467 -36.0890 -36.0668 -36.0455
   -36.0041 -36.0039 -35.9624 -35.9459 -35.9322 -35.9095 -35.8914 -35.8780
   -35.8751 -35.8496 -35.8371 -35.8170 -35.7280 -35.6887 -35.6860 -35.6520
   -10.6290  -5.8149  -4.0402  -3.2459  -3.0029  -2.7809  -2.7620  -2.6392
    -2.5219  -2.5169  -1.9103  -1.8287  -1.8181  -1.7677  -1.6608  -1.6517
    -0.9812  -0.9580  -0.4671  -0.2935   0.2923   0.3489   0.6446   0.8626
     1.0087   1.1031   1.1085   1.2054   1.2947   1.3987   1.6350   1.7246
     1.7506   1.9206   1.9332   1.9700   1.9898   2.1067   2.3321   2.3749
     2.5092   2.7829   2.9147   2.9539   3.2623   3.3890   3.5265   3.5580

          k = 0.0000 0.0674 0.0000 ( 17708 PWs)   bands (ev):

   -72.1912 -72.1581 -72.1458 -72.1263 -72.0915 -72.0705 -72.0631 -72.0540
   -72.0439 -72.0335 -72.0294 -71.7469 -36.6388 -36.6369 -36.6207 -36.5648
   -36.5495 -36.5196 -36.5184 -36.4371 -36.4238 -36.3642 -36.3492 -36.3242
   -36.3095 -36.2547 -36.1618 -36.1523 -36.1327 -36.1275 -36.1014 -36.0835
   -36.0708 -36.0171 -36.0034 -35.9870 -35.9676 -35.9396 -35.9328 -35.9181
   -35.9155 -35.8925 -35.8514 -35.8462 -35.8053 -35.7763 -35.7214 -35.6747
   -10.6224  -5.1101  -3.3890  -3.3217  -2.5374  -2.4676  -2.3288  -2.2890
    -2.0733  -2.0564  -1.7361  -1.4101  -1.3690  -1.3434  -1.0700  -0.9751
    -0.7793  -0.7664  -0.4273  -0.2924   0.0474   0.1526   0.2414   0.4756
     0.6484   0.7108   0.8072   1.0178   1.1794   1.2376   1.3609   1.3895
     1.5064   1.6073   1.6639   1.7561   1.9012   2.0400   2.1024   2.1345
     2.1634   2.2912   2.4145   2.5987   2.8260   2.9237   3.0309   3.2399

          k = 0.0000-0.1011 0.0000 ( 17668 PWs)   bands (ev):

   -72.1832 -72.1656 -72.1458 -72.1181 -72.0954 -72.0716 -72.0560 -72.0541
   -72.0540 -72.0338 -72.0293 -71.7472 -36.5925 -36.5877 -36.5783 -36.5343
   -36.5293 -36.4765 -36.4256 -36.4121 -36.3822 -36.3711 -36.3551 -36.3182
   -36.2369 -36.1918 -36.1830 -36.1612 -36.1594 -36.1485 -36.1252 -36.0899
   -36.0765 -36.0749 -36.0629 -36.0588 -36.0517 -35.9530 -35.9521 -35.9244
   -35.9131 -35.9107 -35.8960 -35.8494 -35.8226 -35.7690 -35.7596 -35.6880
   -10.6193  -4.1887  -4.1342  -2.6992  -2.5955  -2.0218  -1.9702  -1.8377
    -1.8121  -1.7742  -1.7568  -1.0910  -1.0775  -0.9453  -0.6982  -0.6900
    -0.5888  -0.4889  -0.4728  -0.2889  -0.0492   0.0294   0.0788   0.2012
     0.2997   0.4393   0.7264   0.8380   0.9113   0.9641   1.0056   1.1071
     1.1367   1.2207   1.3191   1.3350   1.6138   1.6316   1.7006   1.8816
     2.1138   2.4246   2.7770   2.7992   3.0053   3.1264   3.2376   3.2472

          k = 0.0292-0.0168 0.0000 ( 17716 PWs)   bands (ev):

   -72.2009 -72.1492 -72.1458 -72.1368 -72.0916 -72.0729 -72.0579 -72.0540
   -72.0377 -72.0314 -72.0294 -71.7463 -36.7072 -36.7028 -36.6877 -36.6676
   -36.6089 -36.5837 -36.5801 -36.5024 -36.4964 -36.4780 -36.3578 -36.3017
   -36.2910 -36.2113 -36.1699 -36.1661 -36.1467 -36.0890 -36.0668 -36.0455
   -36.0041 -36.0039 -35.9623 -35.9459 -35.9322 -35.9095 -35.8914 -35.8780
   -35.8751 -35.8496 -35.8371 -35.8170 -35.7280 -35.6887 -35.6860 -35.6520
   -10.6290  -5.8149  -4.0402  -3.2459  -3.0029  -2.7809  -2.7620  -2.6392
    -2.5219  -2.5169  -1.9103  -1.8287  -1.8181  -1.7677  -1.6608  -1.6517
    -0.9812  -0.9580  -0.4671  -0.2935   0.2923   0.3489   0.6446   0.8626
     1.0087   1.1031   1.1085   1.2054   1.2947   1.3987   1.6350   1.7246
     1.7506   1.9206   1.9332   1.9700   1.9898   2.1067   2.3321   2.3749
     2.5092   2.7829   2.9147   2.9539   3.2623   3.3890   3.5265   3.5580

          k = 0.0292 0.0168 0.0000 ( 17716 PWs)   bands (ev):

   -72.2009 -72.1492 -72.1458 -72.1368 -72.0916 -72.0729 -72.0579 -72.0540
   -72.0377 -72.0314 -72.0294 -71.7463 -36.7072 -36.7028 -36.6877 -36.6676
   -36.6089 -36.5837 -36.5801 -36.5024 -36.4964 -36.4780 -36.3578 -36.3017
   -36.2910 -36.2113 -36.1699 -36.1661 -36.1467 -36.0890 -36.0668 -36.0455
   -36.0040 -36.0039 -35.9624 -35.9459 -35.9322 -35.9095 -35.8914 -35.8780
   -35.8751 -35.8496 -35.8371 -35.8170 -35.7280 -35.6887 -35.6860 -35.6520
   -10.6290  -5.8149  -4.0402  -3.2459  -3.0029  -2.7809  -2.7620  -2.6392
    -2.5219  -2.5169  -1.9103  -1.8287  -1.8181  -1.7677  -1.6608  -1.6517
    -0.9812  -0.9580  -0.4671  -0.2935   0.2923   0.3489   0.6446   0.8626
     1.0087   1.1032   1.1085   1.2054   1.2947   1.3987   1.6350   1.7246
     1.7506   1.9206   1.9332   1.9700   1.9898   2.1067   2.3321   2.3749
     2.5092   2.7829   2.9147   2.9539   3.2623   3.3890   3.5265   3.5580

          k = 0.0292 0.0505 0.0000 ( 17715 PWs)   bands (ev):

   -72.1941 -72.1552 -72.1460 -72.1294 -72.0906 -72.0700 -72.0650 -72.0531
   -72.0401 -72.0357 -72.0283 -71.7468 -36.6671 -36.6460 -36.6238 -36.6074
   -36.5654 -36.5374 -36.5324 -36.4650 -36.4148 -36.4076 -36.3595 -36.3202
   -36.3127 -36.2472 -36.1675 -36.1576 -36.1370 -36.1234 -36.1069 -36.0468
   -36.0384 -35.9940 -35.9913 -35.9662 -35.9639 -35.9460 -35.9322 -35.9088
   -35.8896 -35.8543 -35.8530 -35.8463 -35.8093 -35.7450 -35.7143 -35.6755
   -10.6241  -5.3318  -3.5635  -2.9287  -2.9240  -2.7346  -2.3929  -2.3797
    -2.2874  -2.0683  -1.6562  -1.6362  -1.4763  -1.4452  -1.4032  -1.0857
    -0.8666  -0.8411  -0.4311  -0.2958   0.1092   0.2305   0.4267   0.7004
     0.7569   0.7654   0.8386   1.0278   1.1131   1.3100   1.4561   1.5470
     1.5759   1.7052   1.7483   1.8866   2.0233   2.0918   2.1613   2.2194
     2.2796   2.3848   2.5060   2.7106   2.8192   2.9227   3.0337   3.3630

          k = 0.0292-0.1179 0.0000 ( 17692 PWs)   bands (ev):

   -72.1837 -72.1648 -72.1462 -72.1191 -72.0920 -72.0746 -72.0611 -72.0526
   -72.0470 -72.0389 -72.0271 -71.7472 -36.5964 -36.5901 -36.5566 -36.5200
   -36.5149 -36.4824 -36.4715 -36.4106 -36.3820 -36.3593 -36.3345 -36.3049
   -36.2824 -36.2367 -36.2200 -36.1765 -36.1420 -36.1326 -36.1223 -36.1121
   -36.0851 -36.0753 -36.0342 -36.0222 -35.9868 -35.9679 -35.9492 -35.9353
   -35.9113 -35.8950 -35.8797 -35.8618 -35.8139 -35.7921 -35.7605 -35.7057
   -10.6193  -4.4815  -3.5392  -2.8087  -2.7130  -2.3146  -1.9824  -1.8994
    -1.7804  -1.5466  -1.4697  -1.1378  -1.1248  -1.0171  -0.8582  -0.7622
    -0.6107  -0.5145  -0.4315  -0.2013  -0.1710  -0.0912   0.0546   0.2436
     0.3219   0.4471   0.5704   0.7703   0.8605   0.9031   1.0114   1.0597
     1.0832   1.1890   1.3435   1.4779   1.6064   1.7020   1.9331   2.0475
     2.2030   2.4419   2.5139   2.7682   2.9305   3.0829   3.1969   3.2845

          k = 0.0292-0.0842 0.0000 ( 17692 PWs)   bands (ev):

   -72.1837 -72.1648 -72.1462 -72.1191 -72.0921 -72.0746 -72.0611 -72.0526
   -72.0470 -72.0389 -72.0271 -71.7472 -36.5964 -36.5901 -36.5566 -36.5200
   -36.5149 -36.4824 -36.4715 -36.4106 -36.3820 -36.3593 -36.3345 -36.3049
   -36.2824 -36.2367 -36.2199 -36.1765 -36.1420 -36.1326 -36.1223 -36.1121
   -36.0851 -36.0753 -36.0342 -36.0223 -35.9868 -35.9679 -35.9492 -35.9353
   -35.9113 -35.8950 -35.8797 -35.8618 -35.8139 -35.7921 -35.7605 -35.7057
   -10.6193  -4.4815  -3.5392  -2.8087  -2.7130  -2.3146  -1.9824  -1.8994
    -1.7804  -1.5466  -1.4697  -1.1378  -1.1248  -1.0171  -0.8582  -0.7622
    -0.6107  -0.5145  -0.4315  -0.2014  -0.1710  -0.0912   0.0546   0.2436
     0.3219   0.4471   0.5704   0.7703   0.8605   0.9031   1.0114   1.0597
     1.0832   1.1890   1.3435   1.4779   1.6064   1.7020   1.9331   2.0475
     2.2030   2.4419   2.5139   2.7682   2.9305   3.0829   3.1969   3.2845

          k = 0.0292-0.0505 0.0000 ( 17715 PWs)   bands (ev):

   -72.1941 -72.1552 -72.1460 -72.1294 -72.0906 -72.0700 -72.0650 -72.0531
   -72.0401 -72.0357 -72.0283 -71.7468 -36.6671 -36.6460 -36.6238 -36.6074
   -36.5654 -36.5374 -36.5324 -36.4650 -36.4148 -36.4076 -36.3595 -36.3202
   -36.3127 -36.2472 -36.1675 -36.1576 -36.1370 -36.1234 -36.1069 -36.0468
   -36.0384 -35.9940 -35.9913 -35.9662 -35.9638 -35.9460 -35.9322 -35.9087
   -35.8896 -35.8543 -35.8530 -35.8463 -35.8093 -35.7450 -35.7143 -35.6755
   -10.6241  -5.3318  -3.5635  -2.9286  -2.9240  -2.7346  -2.3929  -2.3797
    -2.2874  -2.0683  -1.6562  -1.6362  -1.4762  -1.4452  -1.4032  -1.0857
    -0.8666  -0.8411  -0.4311  -0.2958   0.1092   0.2305   0.4267   0.7004
     0.7569   0.7654   0.8386   1.0278   1.1131   1.3100   1.4561   1.5470
     1.5759   1.7052   1.7483   1.8866   2.0233   2.0918   2.1613   2.2194
     2.2796   2.3848   2.5060   2.7107   2.8192   2.9227   3.0337   3.3630

          k = 0.0583-0.0337 0.0000 ( 17708 PWs)   bands (ev):

   -72.1912 -72.1581 -72.1458 -72.1263 -72.0915 -72.0705 -72.0631 -72.0541
   -72.0439 -72.0335 -72.0294 -71.7469 -36.6387 -36.6369 -36.6207 -36.5648
   -36.5495 -36.5196 -36.5184 -36.4371 -36.4238 -36.3642 -36.3492 -36.3242
   -36.3095 -36.2547 -36.1618 -36.1523 -36.1327 -36.1275 -36.1014 -36.0835
   -36.0708 -36.0170 -36.0034 -35.9870 -35.9676 -35.9396 -35.9328 -35.9181
   -35.9155 -35.8925 -35.8514 -35.8462 -35.8053 -35.7763 -35.7214 -35.6747
   -10.6224  -5.1101  -3.3890  -3.3217  -2.5374  -2.4676  -2.3288  -2.2890
    -2.0733  -2.0564  -1.7361  -1.4101  -1.3690  -1.3434  -1.0700  -0.9751
    -0.7793  -0.7664  -0.4273  -0.2924   0.0474   0.1526   0.2414   0.4756
     0.6484   0.7108   0.8072   1.0178   1.1794   1.2376   1.3609   1.3895
     1.5064   1.6074   1.6639   1.7561   1.9012   2.0400   2.1024   2.1345
     2.1634   2.2912   2.4145   2.5987   2.8260   2.9237   3.0309   3.2399

          k = 0.0583-0.0000 0.0000 ( 17715 PWs)   bands (ev):

   -72.1941 -72.1552 -72.1460 -72.1294 -72.0906 -72.0700 -72.0650 -72.0531
   -72.0401 -72.0357 -72.0283 -71.7468 -36.6671 -36.6460 -36.6238 -36.6074
   -36.5654 -36.5374 -36.5324 -36.4650 -36.4148 -36.4076 -36.3595 -36.3202
   -36.3127 -36.2472 -36.1675 -36.1576 -36.1370 -36.1234 -36.1069 -36.0468
   -36.0384 -35.9940 -35.9913 -35.9662 -35.9639 -35.9460 -35.9322 -35.9087
   -35.8896 -35.8543 -35.8530 -35.8463 -35.8093 -35.7450 -35.7143 -35.6755
   -10.6241  -5.3318  -3.5635  -2.9286  -2.9240  -2.7346  -2.3929  -2.3797
    -2.2874  -2.0683  -1.6562  -1.6362  -1.4763  -1.4452  -1.4032  -1.0857
    -0.8666  -0.8411  -0.4311  -0.2958   0.1092   0.2305   0.4267   0.7004
     0.7569   0.7654   0.8386   1.0278   1.1131   1.3100   1.4561   1.5470
     1.5759   1.7052   1.7483   1.8866   2.0233   2.0918   2.1613   2.2194
     2.2795   2.3848   2.5060   2.7106   2.8192   2.9227   3.0337   3.3630

          k = 0.0583 0.0337 0.0000 ( 17708 PWs)   bands (ev):

   -72.1912 -72.1581 -72.1458 -72.1263 -72.0915 -72.0705 -72.0631 -72.0540
   -72.0439 -72.0335 -72.0294 -71.7469 -36.6388 -36.6369 -36.6207 -36.5648
   -36.5495 -36.5196 -36.5184 -36.4371 -36.4238 -36.3642 -36.3492 -36.3242
   -36.3095 -36.2547 -36.1618 -36.1523 -36.1327 -36.1275 -36.1014 -36.0834
   -36.0708 -36.0171 -36.0034 -35.9870 -35.9676 -35.9396 -35.9328 -35.9181
   -35.9155 -35.8925 -35.8514 -35.8462 -35.8053 -35.7763 -35.7214 -35.6747
   -10.6224  -5.1101  -3.3890  -3.3217  -2.5374  -2.4676  -2.3288  -2.2890
    -2.0733  -2.0564  -1.7361  -1.4101  -1.3690  -1.3434  -1.0700  -0.9751
    -0.7793  -0.7664  -0.4273  -0.2924   0.0474   0.1526   0.2415   0.4756
     0.6484   0.7108   0.8072   1.0178   1.1794   1.2376   1.3609   1.3895
     1.5064   1.6073   1.6639   1.7561   1.9012   2.0400   2.1024   2.1345
     2.1634   2.2912   2.4145   2.5987   2.8260   2.9237   3.0309   3.2399

          k = 0.0583-0.1347 0.0000 ( 17692 PWs)   bands (ev):

   -72.1837 -72.1648 -72.1462 -72.1191 -72.0920 -72.0746 -72.0611 -72.0526
   -72.0470 -72.0389 -72.0271 -71.7472 -36.5964 -36.5901 -36.5566 -36.5200
   -36.5149 -36.4824 -36.4715 -36.4106 -36.3820 -36.3593 -36.3345 -36.3049
   -36.2824 -36.2367 -36.2200 -36.1765 -36.1420 -36.1326 -36.1223 -36.1121
   -36.0851 -36.0753 -36.0342 -36.0222 -35.9868 -35.9679 -35.9492 -35.9353
   -35.9113 -35.8950 -35.8797 -35.8618 -35.8139 -35.7921 -35.7605 -35.7057
   -10.6193  -4.4815  -3.5392  -2.8087  -2.7130  -2.3146  -1.9824  -1.8994
    -1.7804  -1.5466  -1.4697  -1.1378  -1.1248  -1.0171  -0.8582  -0.7622
    -0.6107  -0.5145  -0.4315  -0.2013  -0.1710  -0.0912   0.0546   0.2436
     0.3219   0.4471   0.5704   0.7703   0.8605   0.9031   1.0114   1.0597
     1.0832   1.1890   1.3435   1.4779   1.6064   1.7020   1.9331   2.0475
     2.2030   2.4419   2.5139   2.7682   2.9305   3.0829   3.1969   3.2845

          k = 0.0583-0.1011 0.0000 ( 17592 PWs)   bands (ev):

   -72.1753 -72.1724 -72.1467 -72.1151 -72.0858 -72.0856 -72.0561 -72.0513
   -72.0476 -72.0450 -72.0258 -71.7473 -36.5608 -36.5395 -36.5281 -36.4948
   -36.4889 -36.4554 -36.4441 -36.4398 -36.4102 -36.3125 -36.3006 -36.2991
   -36.2530 -36.2303 -36.2185 -36.1944 -36.1823 -36.1757 -36.1377 -36.1319
   -36.1150 -36.1067 -36.0855 -35.9865 -35.9835 -35.9560 -35.9506 -35.9265
   -35.9199 -35.9184 -35.8907 -35.8275 -35.8250 -35.8248 -35.7625 -35.7542
   -10.6177  -3.5976  -3.5954  -3.5434  -2.1999  -2.1813  -2.1020  -1.3623
    -1.3144  -1.2389  -1.0829  -1.0677  -1.0664  -0.8935  -0.8314  -0.7312
    -0.5235  -0.5168  -0.5118  -0.4065  -0.2636  -0.1496  -0.1404  -0.0096
     0.2154   0.2527   0.3374   0.5211   0.5855   0.6468   0.7729   0.8166
     0.8832   0.9761   1.3159   1.3223   1.4637   1.8650   2.0249   2.1310
     2.2087   2.3971   2.5157   2.6904   2.8137   2.9830   3.1724   3.4530

          k = 0.0583-0.0674 0.0000 ( 17692 PWs)   bands (ev):

   -72.1837 -72.1648 -72.1463 -72.1191 -72.0921 -72.0746 -72.0611 -72.0526
   -72.0470 -72.0390 -72.0271 -71.7472 -36.5964 -36.5901 -36.5566 -36.5200
   -36.5149 -36.4824 -36.4715 -36.4106 -36.3820 -36.3593 -36.3345 -36.3048
   -36.2824 -36.2367 -36.2200 -36.1765 -36.1420 -36.1326 -36.1224 -36.1121
   -36.0851 -36.0753 -36.0342 -36.0222 -35.9868 -35.9679 -35.9492 -35.9353
   -35.9113 -35.8950 -35.8797 -35.8618 -35.8139 -35.7921 -35.7605 -35.7057
   -10.6193  -4.4815  -3.5392  -2.8087  -2.7130  -2.3146  -1.9824  -1.8994
    -1.7804  -1.5466  -1.4697  -1.1378  -1.1248  -1.0171  -0.8582  -0.7622
    -0.6107  -0.5145  -0.4315  -0.2014  -0.1710  -0.0912   0.0546   0.2436
     0.3219   0.4471   0.5704   0.7703   0.8605   0.9031   1.0114   1.0597
     1.0832   1.1890   1.3435   1.4779   1.6064   1.7020   1.9331   2.0475
     2.2030   2.4419   2.5139   2.7682   2.9305   3.0829   3.1969   3.2845

          k =-0.0875 0.0505 0.0000 ( 17668 PWs)   bands (ev):

   -72.1832 -72.1656 -72.1458 -72.1181 -72.0954 -72.0716 -72.0560 -72.0541
   -72.0540 -72.0338 -72.0293 -71.7472 -36.5925 -36.5877 -36.5784 -36.5343
   -36.5293 -36.4765 -36.4256 -36.4121 -36.3822 -36.3710 -36.3551 -36.3182
   -36.2369 -36.1918 -36.1830 -36.1612 -36.1594 -36.1485 -36.1252 -36.0899
   -36.0765 -36.0749 -36.0629 -36.0588 -36.0517 -35.9529 -35.9521 -35.9244
   -35.9131 -35.9107 -35.8960 -35.8494 -35.8226 -35.7690 -35.7596 -35.6880
   -10.6193  -4.1886  -4.1342  -2.6992  -2.5955  -2.0218  -1.9701  -1.8377
    -1.8121  -1.7742  -1.7568  -1.0910  -1.0775  -0.9453  -0.6982  -0.6900
    -0.5888  -0.4889  -0.4728  -0.2889  -0.0492   0.0294   0.0788   0.2012
     0.2997   0.4393   0.7264   0.8380   0.9113   0.9641   1.0056   1.1071
     1.1367   1.2207   1.3191   1.3350   1.6138   1.6316   1.7006   1.8816
     2.1138   2.4246   2.7770   2.7992   3.0053   3.1264   3.2376   3.2472

          k =-0.0875 0.0842 0.0000 ( 17692 PWs)   bands (ev):

   -72.1837 -72.1648 -72.1463 -72.1191 -72.0921 -72.0746 -72.0611 -72.0526
   -72.0470 -72.0390 -72.0271 -71.7472 -36.5964 -36.5901 -36.5566 -36.5200
   -36.5149 -36.4824 -36.4715 -36.4106 -36.3820 -36.3593 -36.3345 -36.3048
   -36.2824 -36.2367 -36.2200 -36.1765 -36.1420 -36.1326 -36.1224 -36.1121
   -36.0851 -36.0753 -36.0342 -36.0222 -35.9868 -35.9679 -35.9492 -35.9353
   -35.9113 -35.8950 -35.8797 -35.8618 -35.8139 -35.7921 -35.7605 -35.7057
   -10.6193  -4.4815  -3.5392  -2.8087  -2.7130  -2.3146  -1.9824  -1.8994
    -1.7804  -1.5466  -1.4697  -1.1378  -1.1248  -1.0171  -0.8582  -0.7622
    -0.6107  -0.5145  -0.4315  -0.2014  -0.1710  -0.0912   0.0546   0.2436
     0.3219   0.4471   0.5704   0.7703   0.8605   0.9031   1.0114   1.0597
     1.0832   1.1890   1.3435   1.4779   1.6064   1.7020   1.9331   2.0475
     2.2030   2.4419   2.5139   2.7682   2.9305   3.0829   3.1969   3.2845

          k =-0.0875 0.1179 0.0000 ( 17692 PWs)   bands (ev):

   -72.1837 -72.1648 -72.1462 -72.1191 -72.0920 -72.0746 -72.0611 -72.0526
   -72.0470 -72.0389 -72.0271 -71.7472 -36.5964 -36.5901 -36.5566 -36.5200
   -36.5149 -36.4823 -36.4715 -36.4106 -36.3820 -36.3593 -36.3345 -36.3049
   -36.2824 -36.2367 -36.2199 -36.1765 -36.1420 -36.1326 -36.1223 -36.1121
   -36.0851 -36.0753 -36.0342 -36.0223 -35.9868 -35.9679 -35.9492 -35.9353
   -35.9113 -35.8950 -35.8797 -35.8619 -35.8139 -35.7921 -35.7605 -35.7057
   -10.6193  -4.4815  -3.5392  -2.8087  -2.7130  -2.3146  -1.9824  -1.8994
    -1.7804  -1.5466  -1.4697  -1.1378  -1.1248  -1.0171  -0.8582  -0.7622
    -0.6107  -0.5145  -0.4315  -0.2014  -0.1710  -0.0912   0.0546   0.2436
     0.3219   0.4471   0.5704   0.7703   0.8605   0.9031   1.0114   1.0597
     1.0832   1.1890   1.3435   1.4779   1.6064   1.7020   1.9331   2.0475
     2.2030   2.4419   2.5139   2.7682   2.9305   3.0829   3.1969   3.2845

          k =-0.0875-0.0505 0.0000 ( 17668 PWs)   bands (ev):

   -72.1832 -72.1656 -72.1458 -72.1181 -72.0954 -72.0716 -72.0560 -72.0540
   -72.0540 -72.0338 -72.0293 -71.7472 -36.5925 -36.5877 -36.5783 -36.5343
   -36.5293 -36.4765 -36.4256 -36.4121 -36.3822 -36.3711 -36.3551 -36.3182
   -36.2369 -36.1918 -36.1830 -36.1612 -36.1594 -36.1485 -36.1252 -36.0899
   -36.0765 -36.0749 -36.0629 -36.0588 -36.0517 -35.9530 -35.9521 -35.9244
   -35.9131 -35.9107 -35.8960 -35.8494 -35.8226 -35.7690 -35.7596 -35.6880
   -10.6193  -4.1887  -4.1342  -2.6992  -2.5955  -2.0217  -1.9702  -1.8377
    -1.8121  -1.7742  -1.7568  -1.0910  -1.0775  -0.9452  -0.6982  -0.6900
    -0.5888  -0.4889  -0.4728  -0.2889  -0.0492   0.0294   0.0788   0.2012
     0.2997   0.4393   0.7264   0.8380   0.9113   0.9641   1.0056   1.1071
     1.1367   1.2207   1.3191   1.3350   1.6138   1.6316   1.7006   1.8816
     2.1138   2.4245   2.7770   2.7992   3.0053   3.1264   3.2376   3.2472

     the Fermi energy is     2.0791 ev

!    total energy              =   -1944.99521775 Ry
     Harris-Foulkes estimate   =   -1944.99519972 Ry
     estimated scf accuracy    <       0.00000484 Ry

     The total energy is the sum of the following terms:

     one-electron contribution =  -14891.30535373 Ry
     hartree contribution      =    7429.29244163 Ry
     xc contribution           =    -515.74869975 Ry
     ewald contribution        =    6032.85903205 Ry
     electric field correction =       0.00028270 Ry
     smearing contrib. (-TS)   =      -0.09292066 Ry

     convergence has been achieved in  11 iterations
 
 BEEF-vdW xc energy contributions
           1 :   -453.678236172662     
           2 :    419.589506406652     
           3 :   -359.625764884108     
           4 :    286.975808158980     
           5 :   -215.282676683876     
           6 :    154.724471595881     
           7 :   -109.895228007311     
           8 :    79.9338855798404     
           9 :   -60.4710142450893     
          10 :    46.3119075976931     
          11 :   -33.6679940470256     
          12 :    21.1494682362153     
          13 :   -9.41824461126134     
          14 :   5.205297022484956E-003
          15 :    5.94931042413981     
          16 :   -8.43098524198336     
          17 :    8.53538535519635     
          18 :   -7.85570174361305     
          19 :    7.68285383634509     
          20 :   -8.46172757058105     
          21 :    9.75557029765764     
          22 :   -10.6774047726542     
          23 :    10.5057301968440     
          24 :   -9.13264871565161     
          25 :    7.11777433970400     
          26 :   -5.35875834729779     
          27 :    4.58658679323185     
          28 :   -4.97420187610135     
          29 :    6.07176617934363     
          30 :   -7.08403266825206     
          31 :   -41.1676884554448     
          32 :   -30.8067758907358     

     Forces acting on atoms (Ry/au):


     negative rho (up, down):  7.930E-01 0.000E+00
     atom    1 type  1   force =     0.00167722    0.00096982   -0.00132699
     atom    2 type  1   force =    -0.00167506    0.00096656   -0.00132735
     atom    3 type  1   force =    -0.00000205   -0.00193532   -0.00132822
     atom    4 type  1   force =     0.00000214   -0.00000145   -0.00260343
     atom    5 type  1   force =    -0.00000099   -0.00676439    0.00607061
     atom    6 type  1   force =     0.00000006   -0.00000160    0.01809551
     atom    7 type  1   force =     0.00585608    0.00338275    0.00606775
     atom    8 type  1   force =    -0.00585721    0.00338248    0.00607194
     atom    9 type  1   force =    -0.00000054   -0.00000067    0.04711346
     atom   10 type  1   force =     0.00000081    0.00054287   -0.02516647
     atom   11 type  1   force =     0.00046875   -0.00027056   -0.02516586
     atom   12 type  1   force =    -0.00046988   -0.00027103   -0.02516496
     atom   13 type  2   force =     0.00000066    0.00000056   -0.00133600

     Total force =     0.064205     Total SCF correction =     0.002544


     entering subroutine stress ...


     negative rho (up, down):  7.930E-01 0.000E+00
          total   stress  (Ry/bohr**3)                   (kbar)     P=  -43.92
  -0.00039734   0.00000000   0.00000000        -58.45      0.00      0.00
   0.00000000  -0.00039734   0.00000000          0.00    -58.45      0.00
   0.00000000   0.00000000  -0.00010102          0.00      0.00    -14.86


     number of scf cycles    =   2
     number of bfgs steps    =   1

     energy   old            =   -1944.9406330229 Ry
     energy   new            =   -1944.9952177544 Ry

     CASE: energy  _new < energy  _old

     new trust radius        =       0.0639723624 bohr
     new conv_thr            =       0.0000001000 Ry


ATOMIC_POSITIONS (crystal)
W1       0.166666667   0.166666667   0.405441099    0   0   0
W1       0.666666667   0.166666667   0.405441099    0   0   0
W1       0.166666667   0.666666667   0.405441099    0   0   0
W1       0.666666667   0.666666667   0.405441099    0   0   0
W1       0.833333333   0.333333333   0.500000000    0   0   0
W1       0.333333333   0.333333333   0.500000000    0   0   0
W1       0.833333333   0.833333333   0.500000000    0   0   0
W1       0.333333333   0.833333333   0.500000000    0   0   0
W1      -0.000000687  -0.000000385   0.600835330
W1       0.499674034   0.000653826   0.593541120
W1       0.000653481   0.499673746   0.593541038
W1       0.499673355   0.499672623   0.593541437
N1       0.000000049   0.000000183   0.670955770



     Writing output data file calc.save
     Check: negative starting charge=   -0.761396
     NEW-OLD atomic charge density approx. for the potential
     Check: negative starting charge=   -0.762851

     negative rho (up, down):  7.941E-01 0.000E+00
 
     Adding external electric field

     Computed dipole along edir(3) : 
        Dipole               -0.3280 Ry au,         -0.8337 Debye
        Dipole field         -0.0009 Ry au
 
        Potential amp.        0.0796 Ry
        Total length         45.4439 bohr
 

     total cpu time spent up to now is     1091.8 secs

     per-process dynamical memory:    87.5 Mb

     Self-consistent Calculation

[...]
    -2.5120  -2.3339  -1.9316  -1.8664  -1.7174  -1.5819  -1.4943  -1.2426
    -0.8014  -0.7781  -0.5993  -0.4243  -0.0785   0.0181   0.1971   0.4357
     0.4905   0.5277   0.6392   0.7847   0.8925   1.1156   1.2071   1.2567
     1.3505   1.4176   1.5353   1.5818   1.6267   1.7544   1.8966   1.9542
     1.9764   2.1002   2.3052   2.5037   2.6069   2.7105   2.9497   3.1833

          k = 0.0583-0.0337 0.0000 ( 17708 PWs)   bands (ev):

   -72.3832 -72.3435 -72.3356 -72.3236 -72.3225 -72.3033 -72.2896 -72.2797
   -72.2402 -72.2157 -72.2087 -71.7435 -36.9092 -36.8947 -36.8648 -36.8123
   -36.7874 -36.7720 -36.7641 -36.6673 -36.5963 -36.5726 -36.5621 -36.5036
   -36.5005 -36.4604 -36.3588 -36.3529 -36.3130 -36.3053 -36.2835 -36.2791
   -36.2455 -36.2327 -36.2042 -36.1619 -36.1461 -36.1421 -36.1190 -36.1029
   -36.0933 -36.0615 -36.0609 -36.0189 -36.0082 -35.9537 -35.8158 -35.7448
   -10.3153  -5.3744  -3.6616  -3.5128  -2.8068  -2.6840  -2.5844  -2.5265
    -2.3441  -2.3064  -1.9594  -1.6595  -1.6372  -1.4772  -1.2848  -1.0425
    -0.7889  -0.7182  -0.5748  -0.4736  -0.1955  -0.0545   0.0499   0.2126
     0.3713   0.4325   0.6587   0.7482   0.8995   1.0202   1.1105   1.1618
     1.3174   1.3287   1.4335   1.4512   1.5690   1.7104   1.7770   1.7967
     1.8618   1.9868   2.1524   2.5491   2.5720   2.8547   2.8789   3.1161

          k = 0.0583-0.0000 0.0000 ( 17715 PWs)   bands (ev):

   -72.3878 -72.3393 -72.3341 -72.3323 -72.3183 -72.2976 -72.2929 -72.2784
   -72.2419 -72.2140 -72.2089 -71.7435 -36.9336 -36.9038 -36.8836 -36.8477
   -36.8018 -36.7882 -36.7769 -36.6809 -36.6043 -36.5968 -36.5595 -36.5081
   -36.4923 -36.4592 -36.3691 -36.3352 -36.3154 -36.3036 -36.2733 -36.2719
   -36.2179 -36.1813 -36.1704 -36.1658 -36.1583 -36.1386 -36.1130 -36.1021
   -36.0785 -36.0690 -36.0450 -36.0010 -35.9989 -35.9725 -35.7931 -35.7452
   -10.3166  -5.5972  -3.7686  -3.2138  -3.1662  -2.9603  -2.6761  -2.6210
    -2.5120  -2.3339  -1.9316  -1.8664  -1.7174  -1.5819  -1.4943  -1.2426
    -0.8014  -0.7781  -0.5993  -0.4243  -0.0785   0.0181   0.1971   0.4357
     0.4905   0.5277   0.6392   0.7847   0.8925   1.1156   1.2071   1.2567
     1.3505   1.4176   1.5353   1.5818   1.6267   1.7544   1.8966   1.9542
     1.9764   2.1002   2.3052   2.5037   2.6069   2.7105   2.9497   3.1833

          k = 0.0583 0.0337 0.0000 ( 17708 PWs)   bands (ev):

   -72.3832 -72.3435 -72.3356 -72.3236 -72.3225 -72.3033 -72.2896 -72.2797
   -72.2402 -72.2157 -72.2087 -71.7435 -36.9092 -36.8947 -36.8648 -36.8123
   -36.7874 -36.7720 -36.7641 -36.6673 -36.5963 -36.5726 -36.5621 -36.5036
   -36.5005 -36.4604 -36.3588 -36.3529 -36.3130 -36.3053 -36.2835 -36.2791
   -36.2455 -36.2327 -36.2042 -36.1619 -36.1461 -36.1421 -36.1190 -36.1029
   -36.0933 -36.0615 -36.0609 -36.0189 -36.0082 -35.9537 -35.8158 -35.7448
   -10.3153  -5.3744  -3.6616  -3.5128  -2.8068  -2.6840  -2.5844  -2.5265
    -2.3441  -2.3064  -1.9594  -1.6595  -1.6372  -1.4772  -1.2848  -1.0425
    -0.7889  -0.7182  -0.5748  -0.4736  -0.1955  -0.0545   0.0499   0.2125
     0.3713   0.4325   0.6587   0.7482   0.8995   1.0202   1.1105   1.1618
     1.3174   1.3287   1.4335   1.4512   1.5690   1.7103   1.7770   1.7967
     1.8618   1.9868   2.1524   2.5491   2.5720   2.8547   2.8789   3.1161

          k = 0.0583-0.1347 0.0000 ( 17692 PWs)   bands (ev):

   -72.3708 -72.3508 -72.3359 -72.3261 -72.3155 -72.3088 -72.2963 -72.2771
   -72.2359 -72.2191 -72.2091 -71.7437 -36.8628 -36.8350 -36.8112 -36.7697
   -36.7542 -36.7327 -36.7223 -36.6441 -36.5976 -36.5866 -36.5456 -36.4956
   -36.4781 -36.4492 -36.4135 -36.3787 -36.3428 -36.3283 -36.3092 -36.2864
   -36.2644 -36.2414 -36.2224 -36.2044 -36.1676 -36.1429 -36.1313 -36.1255
   -36.0974 -36.0755 -36.0553 -36.0426 -36.0108 -35.9820 -35.8294 -35.7661
   -10.3128  -4.7433  -3.7970  -3.0514  -2.9363  -2.5357  -2.2501  -2.1627
    -2.0321  -1.8082  -1.6930  -1.4195  -1.3268  -1.1326  -1.0775  -0.8552
    -0.7949  -0.6697  -0.6294  -0.4417  -0.4053  -0.2305  -0.1396   0.0075
     0.0538   0.1976   0.3641   0.4623   0.5594   0.6464   0.7761   0.7988
     0.9266   1.0049   1.0759   1.1865   1.3687   1.4975   1.5954   1.7532
     1.9379   2.0482   2.4888   2.6565   2.7603   2.8155   3.0901   3.1398

          k = 0.0583-0.1011 0.0000 ( 17592 PWs)   bands (ev):

   -72.3560 -72.3526 -72.3517 -72.3175 -72.3126 -72.3087 -72.3069 -72.2752
   -72.2330 -72.2213 -72.2095 -71.7437 -36.8141 -36.7879 -36.7846 -36.7429
   -36.7402 -36.7094 -36.7012 -36.6882 -36.6167 -36.5244 -36.5061 -36.5041
   -36.4731 -36.4704 -36.4481 -36.4363 -36.3618 -36.3484 -36.3328 -36.2768
   -36.2577 -36.2523 -36.2133 -36.1985 -36.1624 -36.1398 -36.1333 -36.1158
   -36.1122 -36.0991 -36.0832 -36.0434 -36.0174 -36.0050 -35.8045 -35.8031
   -10.3115  -3.8860  -3.8711  -3.7433  -2.4860  -2.4045  -2.2652  -1.7498
    -1.5520  -1.4778  -1.3727  -1.3227  -1.2630  -1.0199  -1.0110  -0.9987
    -0.7798  -0.7457  -0.6064  -0.5365  -0.5069  -0.3672  -0.3512  -0.3288
    -0.0883  -0.0125   0.1277   0.3960   0.4097   0.4487   0.5439   0.5700
     0.7772   0.8518   0.8683   1.0350   1.0404   1.6590   1.8811   1.9082
     1.9608   2.0987   2.3561   2.4340   2.6631   2.9732   3.0270   3.3628

          k = 0.0583-0.0674 0.0000 ( 17692 PWs)   bands (ev):

   -72.3708 -72.3508 -72.3359 -72.3261 -72.3155 -72.3088 -72.2963 -72.2771
   -72.2359 -72.2191 -72.2091 -71.7437 -36.8628 -36.8350 -36.8112 -36.7697
   -36.7542 -36.7327 -36.7223 -36.6441 -36.5976 -36.5866 -36.5456 -36.4956
   -36.4781 -36.4492 -36.4135 -36.3787 -36.3428 -36.3283 -36.3092 -36.2864
   -36.2644 -36.2414 -36.2224 -36.2044 -36.1676 -36.1429 -36.1313 -36.1255
   -36.0974 -36.0755 -36.0553 -36.0426 -36.0108 -35.9820 -35.8294 -35.7661
   -10.3128  -4.7433  -3.7970  -3.0514  -2.9363  -2.5357  -2.2501  -2.1627
    -2.0321  -1.8082  -1.6930  -1.4195  -1.3268  -1.1326  -1.0775  -0.8552
    -0.7949  -0.6697  -0.6294  -0.4417  -0.4053  -0.2305  -0.1396   0.0075
     0.0538   0.1976   0.3641   0.4623   0.5593   0.6464   0.7761   0.7988
     0.9266   1.0049   1.0759   1.1865   1.3687   1.4975   1.5954   1.7532
     1.9379   2.0482   2.4888   2.6565   2.7603   2.8155   3.0901   3.1398

          k =-0.0875 0.0505 0.0000 ( 17668 PWs)   bands (ev):

   -72.3649 -72.3620 -72.3237 -72.3230 -72.3225 -72.3156 -72.2896 -72.2800
   -72.2357 -72.2196 -72.2086 -71.7437 -36.8575 -36.8442 -36.8271 -36.7761
   -36.7654 -36.7343 -36.6709 -36.6364 -36.6181 -36.6110 -36.5383 -36.4884
   -36.4331 -36.3997 -36.3962 -36.3752 -36.3629 -36.3384 -36.3341 -36.3143
   -36.2721 -36.2689 -36.2221 -36.2115 -36.1830 -36.1547 -36.1325 -36.1239
   -36.0729 -36.0601 -36.0552 -36.0392 -36.0279 -35.9503 -35.8508 -35.7533
   -10.3127  -4.4801  -4.3605  -2.9708  -2.7470  -2.2614  -2.1959  -2.1824
    -2.0518  -2.0282  -1.9272  -1.3213  -1.3138  -1.1305  -0.9886  -0.8475
    -0.6734  -0.6391  -0.6311  -0.5520  -0.2800  -0.1706  -0.0960  -0.0690
     0.1457   0.1648   0.5261   0.6173   0.6565   0.6930   0.7079   0.7735
     0.8628   0.9686   1.1003   1.1751   1.2316   1.4011   1.4663   1.6785
     1.9023   1.9895   2.6163   2.6995   2.8600   2.8716   3.1109   3.1349

          k =-0.0875 0.0842 0.0000 ( 17692 PWs)   bands (ev):

   -72.3708 -72.3508 -72.3359 -72.3261 -72.3155 -72.3088 -72.2963 -72.2771
   -72.2359 -72.2191 -72.2091 -71.7437 -36.8628 -36.8350 -36.8112 -36.7697
   -36.7542 -36.7327 -36.7223 -36.6441 -36.5976 -36.5866 -36.5456 -36.4956
   -36.4781 -36.4492 -36.4135 -36.3787 -36.3428 -36.3283 -36.3092 -36.2864
   -36.2644 -36.2414 -36.2224 -36.2044 -36.1676 -36.1429 -36.1313 -36.1255
   -36.0974 -36.0755 -36.0553 -36.0426 -36.0108 -35.9820 -35.8294 -35.7661
   -10.3128  -4.7433  -3.7970  -3.0514  -2.9363  -2.5357  -2.2501  -2.1627
    -2.0321  -1.8082  -1.6930  -1.4195  -1.3268  -1.1326  -1.0775  -0.8552
    -0.7949  -0.6697  -0.6294  -0.4417  -0.4053  -0.2305  -0.1396   0.0075
     0.0538   0.1976   0.3641   0.4623   0.5594   0.6464   0.7761   0.7988
     0.9266   1.0049   1.0759   1.1865   1.3687   1.4976   1.5954   1.7532
     1.9379   2.0482   2.4888   2.6565   2.7603   2.8155   3.0901   3.1398

          k =-0.0875 0.1179 0.0000 ( 17692 PWs)   bands (ev):

   -72.3708 -72.3508 -72.3359 -72.3261 -72.3155 -72.3088 -72.2963 -72.2771
   -72.2359 -72.2191 -72.2091 -71.7437 -36.8628 -36.8350 -36.8112 -36.7697
   -36.7542 -36.7327 -36.7223 -36.6441 -36.5976 -36.5866 -36.5456 -36.4956
   -36.4781 -36.4492 -36.4135 -36.3787 -36.3428 -36.3283 -36.3092 -36.2864
   -36.2644 -36.2414 -36.2224 -36.2044 -36.1676 -36.1429 -36.1313 -36.1255
   -36.0974 -36.0755 -36.0553 -36.0426 -36.0108 -35.9820 -35.8294 -35.7661
   -10.3128  -4.7433  -3.7970  -3.0514  -2.9363  -2.5357  -2.2501  -2.1627
    -2.0321  -1.8082  -1.6930  -1.4195  -1.3268  -1.1326  -1.0775  -0.8552
    -0.7949  -0.6697  -0.6294  -0.4417  -0.4053  -0.2305  -0.1396   0.0075
     0.0538   0.1976   0.3641   0.4623   0.5594   0.6464   0.7761   0.7988
     0.9266   1.0049   1.0759   1.1865   1.3687   1.4975   1.5954   1.7532
     1.9379   2.0482   2.4888   2.6565   2.7603   2.8155   3.0901   3.1398

          k =-0.0875-0.0505 0.0000 ( 17668 PWs)   bands (ev):

   -72.3649 -72.3620 -72.3237 -72.3230 -72.3225 -72.3156 -72.2896 -72.2800
   -72.2357 -72.2196 -72.2086 -71.7437 -36.8575 -36.8442 -36.8271 -36.7761
   -36.7654 -36.7343 -36.6709 -36.6364 -36.6181 -36.6110 -36.5383 -36.4884
   -36.4331 -36.3997 -36.3962 -36.3752 -36.3629 -36.3384 -36.3341 -36.3143
   -36.2721 -36.2689 -36.2221 -36.2115 -36.1830 -36.1547 -36.1325 -36.1239
   -36.0729 -36.0601 -36.0552 -36.0392 -36.0279 -35.9503 -35.8508 -35.7533
   -10.3127  -4.4801  -4.3605  -2.9708  -2.7470  -2.2614  -2.1959  -2.1824
    -2.0518  -2.0282  -1.9272  -1.3213  -1.3138  -1.1305  -0.9886  -0.8475
    -0.6734  -0.6391  -0.6311  -0.5520  -0.2800  -0.1707  -0.0960  -0.0690
     0.1457   0.1648   0.5261   0.6173   0.6565   0.6930   0.7079   0.7735
     0.8628   0.9686   1.1003   1.1751   1.2316   1.4011   1.4663   1.6785
     1.9023   1.9895   2.6163   2.6995   2.8600   2.8716   3.1109   3.1349

     the Fermi energy is     1.8009 ev

!    total energy              =   -1945.01733792 Ry
     Harris-Foulkes estimate   =   -1945.01733913 Ry
     estimated scf accuracy    <       0.00000005 Ry

     The total energy is the sum of the following terms:

     one-electron contribution =  -14872.14212778 Ry
     hartree contribution      =    7418.73530787 Ry
     xc contribution           =    -515.91135666 Ry
     ewald contribution        =    6024.39074488 Ry
     electric field correction =       0.00076703 Ry
     smearing contrib. (-TS)   =      -0.09067326 Ry

     convergence has been achieved in  10 iterations
 
 BEEF-vdW xc energy contributions
           1 :   -453.836850997345     
           2 :    419.749255151177     
           3 :   -359.791935700466     
           4 :    287.134281898636     
           5 :   -215.388126310971     
           6 :    154.722464831163     
           7 :   -109.757813191867     
           8 :    79.6817443907872     
           9 :   -60.1671329897431     
          10 :    46.0311222338609     
          11 :   -33.4612881254525     
          12 :    21.0210236747893     
          13 :   -9.32459824467514     
          14 :  -0.122952907847832     
          15 :    6.17295262852133     
          16 :   -8.77302077039047     
          17 :    8.96692895550831     
          18 :   -8.30358556039539     
          19 :    8.05809425167308     
          20 :   -8.69935271480051     
          21 :    9.84779049409406     
          22 :   -10.6823011528542     
          23 :    10.5219353197422     
          24 :   -9.24779862001981     
          25 :    7.35945327930210     
          26 :   -5.67651407718694     
          27 :    4.87531400122674     
          28 :   -5.13068622860709     
          29 :    6.05522571759400     
          30 :   -6.94307225855601     
          31 :   -41.1759285568627     
          32 :   -30.8108597433705     

     Forces acting on atoms (Ry/au):


     negative rho (up, down):  7.930E-01 0.000E+00
     atom    1 type  1   force =     0.00138248    0.00079813    0.00605231
     atom    2 type  1   force =    -0.00138235    0.00079805    0.00605218
     atom    3 type  1   force =     0.00000003   -0.00159632    0.00605223
     atom    4 type  1   force =     0.00000013   -0.00000001   -0.00277460
     atom    5 type  1   force =     0.00000039   -0.03321302    0.00125779
     atom    6 type  1   force =     0.00000008   -0.00000032   -0.01815714
     atom    7 type  1   force =     0.02876334    0.01660625    0.00125833
     atom    8 type  1   force =    -0.02876331    0.01660690    0.00125760
     atom    9 type  1   force =    -0.00000007   -0.00000014   -0.00111646
     atom   10 type  1   force =    -0.00000013    0.00040192   -0.00037638
     atom   11 type  1   force =     0.00034748   -0.00020069   -0.00037657
     atom   12 type  1   force =    -0.00034820   -0.00020079   -0.00037576
     atom   13 type  2   force =     0.00000014    0.00000003    0.00124647

     Total force =     0.001926     Total SCF correction =     0.000549
     SCF correction compared to forces is large: reduce conv_thr to get better values


     entering subroutine stress ...


     negative rho (up, down):  7.930E-01 0.000E+00
          total   stress  (Ry/bohr**3)                   (kbar)     P=  -36.71
  -0.00032627   0.00000000  -0.00000000        -48.00      0.00     -0.00
   0.00000000  -0.00032627   0.00000000          0.00    -48.00      0.00
  -0.00000000   0.00000000  -0.00009608         -0.00      0.00    -14.13


     bfgs converged in  13 scf cycles and  12 bfgs steps
     (criteria: energy <  1.0E+00, force <  1.9E-03)

     End of BFGS Geometry Optimization

     Final energy   =   -1945.0173379156 Ry
Begin final coordinates

ATOMIC_POSITIONS (crystal)
W1       0.166666667   0.166666667   0.405441099    0   0   0
W1       0.666666667   0.166666667   0.405441099    0   0   0
W1       0.166666667   0.666666667   0.405441099    0   0   0
W1       0.666666667   0.666666667   0.405441099    0   0   0
W1       0.833333333   0.333333333   0.500000000    0   0   0
W1       0.333333333   0.333333333   0.500000000    0   0   0
W1       0.833333333   0.833333333   0.500000000    0   0   0
W1       0.333333333   0.833333333   0.500000000    0   0   0
W1      -0.000000542   0.000000465   0.611437106
W1       0.503489245  -0.006978611   0.588662480
W1      -0.006979671   0.503489499   0.588662519
W1       0.503488286   0.503490092   0.588662328
N1       0.000000719   0.000000565   0.681396679
End final coordinates



     Writing output data file calc.save
 
     init_run     :     15.62s CPU     16.15s WALL (       1 calls)
     electrons    :   5204.45s CPU   5591.69s WALL (      13 calls)
     update_pot   :     32.99s CPU     35.24s WALL (      12 calls)
     forces       :    317.26s CPU    335.65s WALL (      13 calls)
     stress       :   1063.84s CPU   1133.49s WALL (      13 calls)

     Called by init_run:
     wfcinit      :      5.35s CPU      5.43s WALL (       1 calls)
     potinit      :      1.85s CPU      2.02s WALL (       1 calls)

     Called by electrons:
     c_bands      :   1816.18s CPU   1922.34s WALL (     158 calls)
     sum_band     :   1235.43s CPU   1331.91s WALL (     158 calls)
     v_of_rho     :    263.14s CPU    303.22s WALL (     170 calls)
     newd         :   1261.11s CPU   1275.70s WALL (     170 calls)
     mix_rho      :      9.31s CPU      9.52s WALL (     158 calls)
     vdW_energy   :    129.39s CPU    143.94s WALL (     638 calls)
     vdW_ffts     :    336.31s CPU    353.17s WALL (    1302 calls)
     vdW_v        :    127.18s CPU    131.65s WALL (     638 calls)

     Called by c_bands:
     init_us_2    :     12.98s CPU     13.04s WALL (    1715 calls)
     cegterg      :   1600.89s CPU   1646.50s WALL (     790 calls)

     Called by *egterg:
     h_psi        :   1064.21s CPU   1098.19s WALL (    3659 calls)
     s_psi        :    118.39s CPU    118.73s WALL (    3659 calls)
     g_psi        :      5.59s CPU      5.60s WALL (    2864 calls)
     cdiaghg      :    135.09s CPU    137.10s WALL (    3589 calls)

     Called by h_psi:
     add_vuspsi   :    120.76s CPU    121.15s WALL (    3659 calls)

     General routines
     calbec       :    187.12s CPU    190.47s WALL (    4579 calls)
     fft          :    541.49s CPU    596.96s WALL (   38575 calls)
     ffts         :      0.62s CPU      0.63s WALL (     328 calls)
     fftw         :    627.50s CPU    662.62s WALL (  468500 calls)
     interpolate  :      5.73s CPU      5.90s WALL (     328 calls)
     davcio       :      0.00s CPU      0.03s WALL (       5 calls)
 
     Parallel routines
     fft_scatter  :    685.73s CPU    774.30s WALL (  507403 calls)
 
     PWSCF        :     1h52m CPU        2h 0m WALL

 
   This run was terminated on:   6:40:50   3May2018            

=------------------------------------------------------------------------------=
   JOB DONE.
=------------------------------------------------------------------------------=
Job  /afs/slac/g/suncat/bin/suncat-tsmpirun -x LD_LIBRARY_PATH -wdir /scratch/qe616253_m7IZd pw.x -npool 4 -in pw.inp

TID   HOST_NAME   COMMAND_LINE            STATUS            TERMINATION_TIME
===== ========== ================  =======================  ===================
00000 suncat0071 pw.x -npool 4 -i  Done                     05/03/2018 06:40:51
00001 suncat0071 pw.x -npool 4 -i  Done                     05/03/2018 06:40:51
00002 suncat0071 pw.x -npool 4 -i  Done                     05/03/2018 06:40:51
00003 suncat0071 pw.x -npool 4 -i  Done                     05/03/2018 06:40:51
00004 suncat0071 pw.x -npool 4 -i  Done                     05/03/2018 06:40:51
00005 suncat0071 pw.x -npool 4 -i  Done                     05/03/2018 06:40:51
00006 suncat0071 pw.x -npool 4 -i  Done                     05/03/2018 06:40:51
00007 suncat0071 pw.x -npool 4 -i  Done                     05/03/2018 06:40:51
00008 suncat0069 pw.x -npool 4 -i  Done                     05/03/2018 06:40:51
00009 suncat0069 pw.x -npool 4 -i  Done                     05/03/2018 06:40:51
00010 suncat0069 pw.x -npool 4 -i  Done                     05/03/2018 06:40:51
00011 suncat0069 pw.x -npool 4 -i  Done                     05/03/2018 06:40:51
00012 suncat0069 pw.x -npool 4 -i  Done                     05/03/2018 06:40:51
00013 suncat0069 pw.x -npool 4 -i  Done                     05/03/2018 06:40:51
00014 suncat0069 pw.x -npool 4 -i  Done                     05/03/2018 06:40:51
00015 suncat0069 pw.x -npool 4 -i  Done                     05/03/2018 06:40:51
00016 suncat0034 pw.x -npool 4 -i  Done                     05/03/2018 06:40:51
00017 suncat0034 pw.x -npool 4 -i  Done                     05/03/2018 06:40:51
00018 suncat0034 pw.x -npool 4 -i  Done                     05/03/2018 06:40:51
00019 suncat0034 pw.x -npool 4 -i  Done                     05/03/2018 06:40:51
00020 suncat0034 pw.x -npool 4 -i  Done                     05/03/2018 06:40:51
00021 suncat0034 pw.x -npool 4 -i  Done                     05/03/2018 06:40:51
00022 suncat0034 pw.x -npool 4 -i  Done                     05/03/2018 06:40:51
00023 suncat0034 pw.x -npool 4 -i  Done                     05/03/2018 06:40:51
00024 suncat0022 pw.x -npool 4 -i  Done                     05/03/2018 06:40:51
00025 suncat0022 pw.x -npool 4 -i  Done                     05/03/2018 06:40:51
00026 suncat0022 pw.x -npool 4 -i  Done                     05/03/2018 06:40:51
00027 suncat0022 pw.x -npool 4 -i  Done                     05/03/2018 06:40:51
00028 suncat0022 pw.x -npool 4 -i  Done                     05/03/2018 06:40:51
00029 suncat0022 pw.x -npool 4 -i  Done                     05/03/2018 06:40:51
00030 suncat0022 pw.x -npool 4 -i  Done                     05/03/2018 06:40:51
00031 suncat0022 pw.x -npool 4 -i  Done                     05/03/2018 06:40:51
