  python dir          : /u/if/mamunm/src/espresso
  espresso dir        : /nfs/slac/g/suncatfs/sw/espv18/espresso-dynpy-beef/bin
  pseudo dir          : /u/if/mamunm/psp/gbrv1.5pbe
  ase-espresso py git : GITVERSION



     Program PWSCF v.5.1rc2 (svn rev. 11289) starts on 22Apr2018 at 20:38:11 

     This program is part of the open-source Quantum ESPRESSO suite
     for quantum simulation of materials; please cite
         "P. Giannozzi et al., J. Phys.:Condens. Matter 21 395502 (2009);
          URL http://www.quantum-espresso.org", 
     in publications or presentations arising from this work. More details at
     http://www.quantum-espresso.org/quote

     Parallel version (MPI), running on    32 processors
     K-points division:     npool     =       4
     R & G space division:  proc/nbgrp/npool/nimage =       8
     Reading input from pw.inp
     Message from routine read_cards :
     DEPRECATED: no units specified in CELL_PARAMETERS card

     Current dimensions of program PWSCF are:
     Max number of different atomic species (ntypx) = 10
     Max number of k-points (npk) =  40000
     Max angular momentum in pseudopotentials (lmaxx) =  3
     Presently stress not available with electric field


     **************************************************************************
     Initializing libbeef V0.1.1 with the BEEF-vdW functional.
     Citation: Wellendorff et al., PRB 85, 235149 (2012).
     **************************************************************************


     IMPORTANT: XC functional enforced from input :
     Exchange-correlation      = BEEF-VDW ( 1  4 27 13 2)
     Any further DFT definition will be discarded
     Please, verify this is what you really want


     Subspace diagonalization in iterative solution of the eigenvalue problem:
     a serial algorithm will be used

 
     Parallelization info
     --------------------
     sticks:   dense  smooth     PW     G-vecs:    dense   smooth      PW
     Min         469     188     53                90947    23011    3531
     Max         471     189     55                90959    23054    3542
     Sum        3757    1507    433               727599   184247   28311
 


     bravais-lattice index     =            0
     lattice parameter (alat)  =       1.8897  a.u.
     unit-cell volume          =    6116.8020 (a.u.)^3
     number of atoms/cell      =           14
     number of atomic types    =            3
     number of electrons       =       139.00
     number of Kohn-Sham states=           79
     kinetic-energy cutoff     =      36.7493  Ry
     charge density cutoff     =     367.4932  Ry
     convergence threshold     =      1.0E-05
     mixing beta               =       0.3000
     number of iterations used =           10  plain     mixing
     Exchange-correlation      = BEEF-VDW ( 1  4 27 13 2)
     nstep                     =           50


     celldm(1)=   1.889726  celldm(2)=   0.000000  celldm(3)=   0.000000
     celldm(4)=   0.000000  celldm(5)=   0.000000  celldm(6)=   0.000000

     crystal axes: (cart. coord. in units of alat)
               a(1) = (   6.437465   0.000000   0.000000 )  
               a(2) = (   3.218732   5.575008   0.000000 )  
               a(3) = (   0.000000   0.000000  25.256168 )  

     reciprocal axes: (cart. coord. in units 2 pi/alat)
               b(1) = (  0.155341 -0.089686  0.000000 )  
               b(2) = (  0.000000  0.179372  0.000000 )  
               b(3) = (  0.000000  0.000000  0.039594 )  


     PseudoPot. # 1 for Sc read from file:
     /u/if/mamunm/psp/gbrv1.5pbe/Sc.UPF
     MD5 check sum: db30a2753ba66ef00f23801d899b7e7f
     Pseudo is Ultrasoft + core correction, Zval = 11.0
     Generated by new atomic code, or converted to UPF format
     Using radial grid of  849 points,  6 beta functions with: 
                l(1) =   0
                l(2) =   0
                l(3) =   1
                l(4) =   1
                l(5) =   2
                l(6) =   2
     Q(r) pseudized with  6 coefficients,  rinner =    1.200   1.200   1.200
                                                       1.200   1.200

     PseudoPot. # 2 for O  read from file:
     /u/if/mamunm/psp/gbrv1.5pbe/O.UPF
     MD5 check sum: 734c27235a0248c51dbae37a1fbe46ec
     Pseudo is Ultrasoft + core correction, Zval =  6.0
     Generated by new atomic code, or converted to UPF format
     Using radial grid of  737 points,  5 beta functions with: 
                l(1) =   0
                l(2) =   0
                l(3) =   1
                l(4) =   1
                l(5) =   2
     Q(r) pseudized with  8 coefficients,  rinner =    0.900   0.900   0.900
                                                       0.900   0.900

     PseudoPot. # 3 for H  read from file:
     /u/if/mamunm/psp/gbrv1.5pbe/H.UPF
     MD5 check sum: 761ae9a214b05c3daf00ab9f6b793d6f
     Pseudo is Ultrasoft, Zval =  1.0
     Generated by new atomic code, or converted to UPF format
     Using radial grid of  615 points,  2 beta functions with: 
                l(1) =   0
                l(2) =   0
     Q(r) pseudized with  8 coefficients,  rinner =    0.700

     vdW kernel table read from file vdW_kernel_table
     MD5 check sum: 095c7af220d748ca6e76c0b4c6cfb241

     atomic species   valence    mass     pseudopotential
        Sc1           11.00    44.95591     Sc( 1.00)
        O1             6.00    15.99900     O ( 1.00)
        H1             1.00     1.00800     H ( 1.00)

     No symmetry found



   Cartesian axes

     site n.     atom                  positions (alat units)
         1           Sc1 tau(   1) = (   1.6093662   0.9291680  10.0000000  )
         2           Sc1 tau(   2) = (   4.8280986   0.9291680  10.0000000  )
         3           Sc1 tau(   3) = (   3.2187324   3.7166720  10.0000000  )
         4           Sc1 tau(   4) = (   6.4374648   3.7166720  10.0000000  )
         5           Sc1 tau(   5) = (   6.4374648   1.8583360  12.6280840  )
         6           Sc1 tau(   6) = (   3.2187324   1.8583360  12.6280840  )
         7           Sc1 tau(   7) = (   8.0468310   4.6458400  12.6280840  )
         8           Sc1 tau(   8) = (   4.8280986   4.6458400  12.6280840  )
         9           Sc1 tau(   9) = (   0.0000000   0.0000000  15.2561680  )
        10           Sc1 tau(  10) = (   3.2187324   0.0000000  15.2561680  )
        11           Sc1 tau(  11) = (   1.6093662   2.7875040  15.2561680  )
        12           Sc1 tau(  12) = (   4.8280986   2.7875040  15.2561680  )
        13           O1  tau(  13) = (   1.6093662   0.9291680  16.7901680  )
        14           H1  tau(  14) = (   1.6093662   0.9291680  17.7401680  )

     number of k points=    20  Fermi-Dirac smearing, width (Ry)=  0.0110
                       cart. coord. in units 2pi/alat
        k(    1) = (   0.0000000   0.0000000   0.0000000), wk =   0.0555556
        k(    2) = (   0.0000000   0.0298953   0.0000000), wk =   0.1111111
        k(    3) = (   0.0000000   0.0597906   0.0000000), wk =   0.1111111
        k(    4) = (   0.0000000  -0.0896860   0.0000000), wk =   0.0555556
        k(    5) = (   0.0258901  -0.0149477   0.0000000), wk =   0.1111111
        k(    6) = (   0.0258901   0.0149477   0.0000000), wk =   0.1111111
        k(    7) = (   0.0258901   0.0448430   0.0000000), wk =   0.1111111
        k(    8) = (   0.0258901  -0.1046336   0.0000000), wk =   0.1111111
        k(    9) = (   0.0258901  -0.0747383   0.0000000), wk =   0.1111111
        k(   10) = (   0.0258901  -0.0448430   0.0000000), wk =   0.1111111
        k(   11) = (   0.0517802  -0.0298953   0.0000000), wk =   0.1111111
        k(   12) = (   0.0517802   0.0000000   0.0000000), wk =   0.1111111
        k(   13) = (   0.0517802   0.0298953   0.0000000), wk =   0.1111111
        k(   14) = (   0.0517802  -0.1195813   0.0000000), wk =   0.1111111
        k(   15) = (   0.0517802  -0.0896860   0.0000000), wk =   0.1111111
        k(   16) = (   0.0517802  -0.0597906   0.0000000), wk =   0.1111111
        k(   17) = (  -0.0776703   0.0448430   0.0000000), wk =   0.0555556
        k(   18) = (  -0.0776703   0.0747383   0.0000000), wk =   0.1111111
        k(   19) = (  -0.0776703   0.1046336   0.0000000), wk =   0.1111111
        k(   20) = (  -0.0776703  -0.0448430   0.0000000), wk =   0.0555556

     Dense  grid:   727599 G-vectors     FFT dimensions: (  75,  75, 300)

     Smooth grid:   184247 G-vectors     FFT dimensions: (  48,  48, 192)

     Largest allocated arrays     est. size (Mb)     dimensions
        Kohn-Sham Wavefunctions         3.51 Mb     (    2914,   79)
        NL pseudopotentials            10.27 Mb     (    2914,  231)
        Each V/rho on FFT grid          3.26 Mb     (  213750)
        Each G-vector array             0.69 Mb     (   90950)
        G-vector shells                 0.18 Mb     (   23259)
     Largest temporary arrays     est. size (Mb)     dimensions
        Auxiliary wavefunctions        14.05 Mb     (    2914,  316)
        Each subspace H/S matrix        1.52 Mb     (     316,  316)
        Each <psi_i|beta_j> matrix      0.28 Mb     (     231,   79)
        Arrays for rho mixing          32.62 Mb     (  213750,   10)

     Initial potential from superposition of free atoms
     Check: negative starting charge=   -0.000371

     starting charge  138.97116, renormalised to  139.00000

     negative rho (up, down):  3.708E-04 0.000E+00


     ************************************************************************
     *
     * You are using vdW-DF for exchange-correlation in this calculation.
     * Please cite the following three references that made this development
     * possible:
     *
     *   M. Dion, H. Rydberg, E. Schroder, D. C. Langreth, and
     *   B. I. Lundqvist, Phys. Rev. Lett. 92, 246401 (2004).
     *
     *   T. Thonhauser, V. R. Cooper, S. Li, A. Puzder, P. Hyldgaard, and
     *   D. C. Langreth, Phys. Rev. B 76, 125112 (2007).
     *
     *   G. Roman-Perez and J. M. Soler, Phys. Rev. Lett. 103, 096102 (2009).
     *
     *
     * If you are using vdW-DF2, please also cite:
     *
     *   K. Lee, E. D. Murray, L. Kong, B. I. Lundqvist, and
     *   D. C. Langreth, Phys. Rev. B 82, 081101(R) (2010).
     *
     *
     * If you are calculating the stress with vdW-DF, please also cite:
     *
     *   R. Sabatini, E. Kucukbenli, B. Kolb, T. Thonhauser, and
     *   S. de Gironcoli, J. Phys.: Condens. Matter 24, 424209 (2012).
     *
     ************************************************************************

     Carrying out vdW-DF run using the following parameters:

     Nqs =      20    Nr_points =    1024   r_max =   100.000
     q_mesh =
               0.00001000     0.04494208     0.09755937     0.15916263
               0.23128650     0.31572767     0.41458969     0.53033537
               0.66584808     0.82450364     1.01025438     1.22772762
               1.48234092     1.78043706     2.12944203     2.53805004
               3.01644009     3.57652955     4.23227104     5.00000000

     Gradients computed in reciprocal space

     ************************************************************************


 
     Adding external electric field

     Computed dipole along edir(3) : 
        Dipole               -0.0117 Ry au,         -0.0297 Debye
        Dipole field         -0.0000 Ry au
 
        Potential amp.        0.0022 Ry
        Total length         46.5341 bohr
 
     Starting wfc are  161 randomized atomic wfcs

     total cpu time spent up to now is       16.2 secs

     per-process dynamical memory:    98.7 Mb

     Self-consistent Calculation

     iteration #  1     ecut=    36.75 Ry     beta=0.30
     Davidson diagonalization with overlap
     ethr =  1.00E-02,  avg # of iterations =  2.0

     negative rho (up, down):  1.561E-04 0.000E+00
 
     Adding external electric field

     Computed dipole along edir(3) : 
        Dipole               -1.4357 Ry au,         -3.6492 Debye
        Dipole field         -0.0029 Ry au
 
        Potential amp.        0.2745 Ry
        Total length         46.5341 bohr
 

     total cpu time spent up to now is       36.4 secs

     total energy              =   -1168.99870745 Ry
     Harris-Foulkes estimate   =   -1172.27390486 Ry
     estimated scf accuracy    <       6.93693321 Ry

     iteration #  2     ecut=    36.75 Ry     beta=0.30
     Davidson diagonalization with overlap
     ethr =  4.99E-03,  avg # of iterations =  8.2

     negative rho (up, down):  5.153E-04 0.000E+00
 
     Adding external electric field

     Computed dipole along edir(3) : 
        Dipole                3.5233 Ry au,          8.9553 Debye
        Dipole field          0.0072 Ry au
 
        Potential amp.       -0.6736 Ry
        Total length         46.5341 bohr
 

     total cpu time spent up to now is       63.2 secs

     total energy              =   -1164.72162333 Ry
     Harris-Foulkes estimate   =   -1177.58387274 Ry
     estimated scf accuracy    <     205.26576114 Ry

     iteration #  3     ecut=    36.75 Ry     beta=0.30
     Davidson diagonalization with overlap
     ethr =  4.99E-03,  avg # of iterations = 10.3

     negative rho (up, down):  2.158E-04 0.000E+00
 
     Adding external electric field

     Computed dipole along edir(3) : 
        Dipole                0.1669 Ry au,          0.4243 Debye
        Dipole field          0.0003 Ry au
 
        Potential amp.       -0.0319 Ry
        Total length         46.5341 bohr
 

     total cpu time spent up to now is       93.7 secs

     total energy              =   -1167.57404116 Ry
     Harris-Foulkes estimate   =   -1180.93425805 Ry
     estimated scf accuracy    <     330.90289583 Ry

     iteration #  4     ecut=    36.75 Ry     beta=0.30
     Davidson diagonalization with overlap
     ethr =  4.99E-03,  avg # of iterations =  9.2

     negative rho (up, down):  1.783E-04 0.000E+00
 
     Adding external electric field

     Computed dipole along edir(3) : 
        Dipole                0.2598 Ry au,          0.6603 Debye
        Dipole field          0.0005 Ry au
 
        Potential amp.       -0.0497 Ry
        Total length         46.5341 bohr
 

     total cpu time spent up to now is      122.3 secs

     total energy              =   -1171.50426136 Ry
     Harris-Foulkes estimate   =   -1171.68256713 Ry
     estimated scf accuracy    <       5.51362553 Ry

     iteration #  5     ecut=    36.75 Ry     beta=0.30
     Davidson diagonalization with overlap
     ethr =  3.97E-03,  avg # of iterations =  1.2

     negative rho (up, down):  1.424E-04 0.000E+00
 
     Adding external electric field

     Computed dipole along edir(3) : 
        Dipole                0.1920 Ry au,          0.4880 Debye
        Dipole field          0.0004 Ry au
 
        Potential amp.       -0.0367 Ry
        Total length         46.5341 bohr
 

     total cpu time spent up to now is      141.9 secs

     total energy              =   -1171.51874146 Ry
     Harris-Foulkes estimate   =   -1171.57019988 Ry
     estimated scf accuracy    <       0.69786520 Ry

     iteration #  6     ecut=    36.75 Ry     beta=0.30
     Davidson diagonalization with overlap
     ethr =  5.02E-04,  avg # of iterations =  9.9

     negative rho (up, down):  9.703E-05 0.000E+00
 
     Adding external electric field

     Computed dipole along edir(3) : 
        Dipole                0.2567 Ry au,          0.6525 Debye
        Dipole field          0.0005 Ry au
 
        Potential amp.       -0.0491 Ry
        Total length         46.5341 bohr
 

     total cpu time spent up to now is      168.1 secs

     total energy              =   -1171.58134016 Ry
     Harris-Foulkes estimate   =   -1171.60846377 Ry
     estimated scf accuracy    <       0.18429676 Ry

     iteration #  7     ecut=    36.75 Ry     beta=0.30
     Davidson diagonalization with overlap
     ethr =  1.33E-04,  avg # of iterations =  5.8

     negative rho (up, down):  8.789E-05 0.000E+00
 
     Adding external electric field

     Computed dipole along edir(3) : 
        Dipole                0.3032 Ry au,          0.7708 Debye
        Dipole field          0.0006 Ry au
 
        Potential amp.       -0.0580 Ry
        Total length         46.5341 bohr
 

     total cpu time spent up to now is      191.3 secs

     total energy              =   -1171.59216516 Ry
     Harris-Foulkes estimate   =   -1171.59494762 Ry
     estimated scf accuracy    <       0.02363053 Ry

     iteration #  8     ecut=    36.75 Ry     beta=0.30
     Davidson diagonalization with overlap
     ethr =  1.70E-05,  avg # of iterations =  9.2

     negative rho (up, down):  1.232E-04 0.000E+00
 
     Adding external electric field

     Computed dipole along edir(3) : 
        Dipole                0.2650 Ry au,          0.6735 Debye
        Dipole field          0.0005 Ry au
 
        Potential amp.       -0.0507 Ry
        Total length         46.5341 bohr
 

     total cpu time spent up to now is      218.1 secs

     total energy              =   -1171.59476936 Ry
     Harris-Foulkes estimate   =   -1171.59627958 Ry
     estimated scf accuracy    <       0.03650450 Ry

     iteration #  9     ecut=    36.75 Ry     beta=0.30
     Davidson diagonalization with overlap
     ethr =  1.70E-05,  avg # of iterations =  4.6

     negative rho (up, down):  1.809E-04 0.000E+00
 
     Adding external electric field

     Computed dipole along edir(3) : 
        Dipole                0.2638 Ry au,          0.6705 Debye
        Dipole field          0.0005 Ry au
 
        Potential amp.       -0.0504 Ry
        Total length         46.5341 bohr
 

     total cpu time spent up to now is      239.5 secs

     total energy              =   -1171.59498557 Ry
     Harris-Foulkes estimate   =   -1171.59596194 Ry
     estimated scf accuracy    <       0.03378753 Ry

     iteration # 10     ecut=    36.75 Ry     beta=0.30
     Davidson diagonalization with overlap
     ethr =  1.70E-05,  avg # of iterations =  1.8

     negative rho (up, down):  2.210E-04 0.000E+00
 
     Adding external electric field

     Computed dipole along edir(3) : 
        Dipole                0.2780 Ry au,          0.7067 Debye
        Dipole field          0.0006 Ry au
 
        Potential amp.       -0.0532 Ry
        Total length         46.5341 bohr
 

     total cpu time spent up to now is      259.7 secs

     total energy              =   -1171.59578269 Ry
     Harris-Foulkes estimate   =   -1171.59583799 Ry
     estimated scf accuracy    <       0.00311838 Ry

     iteration # 11     ecut=    36.75 Ry     beta=0.30
     Davidson diagonalization with overlap
     ethr =  2.24E-06,  avg # of iterations =  7.9

     negative rho (up, down):  2.362E-04 0.000E+00
 
     Adding external electric field

     Computed dipole along edir(3) : 
        Dipole                0.2795 Ry au,          0.7105 Debye
        Dipole field          0.0006 Ry au
 
        Potential amp.       -0.0534 Ry
        Total length         46.5341 bohr
 

     total cpu time spent up to now is      285.1 secs

     total energy              =   -1171.59598788 Ry
     Harris-Foulkes estimate   =   -1171.59622701 Ry
     estimated scf accuracy    <       0.00240825 Ry

     iteration # 12     ecut=    36.75 Ry     beta=0.30
     Davidson diagonalization with overlap
     ethr =  1.73E-06,  avg # of iterations =  4.1

     negative rho (up, down):  2.624E-04 0.000E+00
 
     Adding external electric field

     Computed dipole along edir(3) : 
        Dipole                0.2887 Ry au,          0.7339 Debye
        Dipole field          0.0006 Ry au
 
        Potential amp.       -0.0552 Ry
        Total length         46.5341 bohr
 

     total cpu time spent up to now is      307.3 secs

     total energy              =   -1171.59622482 Ry
     Harris-Foulkes estimate   =   -1171.59617686 Ry
     estimated scf accuracy    <       0.00069938 Ry

     iteration # 13     ecut=    36.75 Ry     beta=0.30
     Davidson diagonalization with overlap
     ethr =  5.03E-07,  avg # of iterations =  6.8

     negative rho (up, down):  2.733E-04 0.000E+00
 
     Adding external electric field

     Computed dipole along edir(3) : 
        Dipole                0.2855 Ry au,          0.7256 Debye
        Dipole field          0.0006 Ry au
 
        Potential amp.       -0.0546 Ry
        Total length         46.5341 bohr
 

     total cpu time spent up to now is      332.1 secs

     total energy              =   -1171.59622218 Ry
     Harris-Foulkes estimate   =   -1171.59632619 Ry
     estimated scf accuracy    <       0.00105483 Ry

     iteration # 14     ecut=    36.75 Ry     beta=0.30
     Davidson diagonalization with overlap
     ethr =  5.03E-07,  avg # of iterations =  2.1

     negative rho (up, down):  2.833E-04 0.000E+00
 
     Adding external electric field

     Computed dipole along edir(3) : 
        Dipole                0.2820 Ry au,          0.7169 Debye
        Dipole field          0.0006 Ry au
 
        Potential amp.       -0.0539 Ry
        Total length         46.5341 bohr
 

     total cpu time spent up to now is      353.1 secs

     total energy              =   -1171.59617969 Ry
     Harris-Foulkes estimate   =   -1171.59624962 Ry
     estimated scf accuracy    <       0.00083352 Ry

     iteration # 15     ecut=    36.75 Ry     beta=0.30
     Davidson diagonalization with overlap
     ethr =  5.03E-07,  avg # of iterations =  3.9

     negative rho (up, down):  2.880E-04 0.000E+00
 
     Adding external electric field

     Computed dipole along edir(3) : 
        Dipole                0.2808 Ry au,          0.7137 Debye
        Dipole field          0.0006 Ry au
 
        Potential amp.       -0.0537 Ry
        Total length         46.5341 bohr
 

     total cpu time spent up to now is      376.1 secs

     total energy              =   -1171.59623316 Ry
     Harris-Foulkes estimate   =   -1171.59623840 Ry
     estimated scf accuracy    <       0.00003713 Ry

     iteration # 16     ecut=    36.75 Ry     beta=0.30
     Davidson diagonalization with overlap
     ethr =  2.67E-08,  avg # of iterations =  8.8

     negative rho (up, down):  2.891E-04 0.000E+00
 
     Adding external electric field

     Computed dipole along edir(3) : 
        Dipole                0.2807 Ry au,          0.7134 Debye
        Dipole field          0.0006 Ry au
 
        Potential amp.       -0.0537 Ry
        Total length         46.5341 bohr
 

     total cpu time spent up to now is      403.8 secs

     total energy              =   -1171.59623989 Ry
     Harris-Foulkes estimate   =   -1171.59624050 Ry
     estimated scf accuracy    <       0.00001328 Ry

     iteration # 17     ecut=    36.75 Ry     beta=0.30
     Davidson diagonalization with overlap
     ethr =  9.55E-09,  avg # of iterations =  5.8

     negative rho (up, down):  2.898E-04 0.000E+00
 
     Adding external electric field

     Computed dipole along edir(3) : 
        Dipole                0.2802 Ry au,          0.7123 Debye
        Dipole field          0.0006 Ry au
 
        Potential amp.       -0.0536 Ry
        Total length         46.5341 bohr
 

     total cpu time spent up to now is      430.5 secs

     total energy              =   -1171.59623967 Ry
     Harris-Foulkes estimate   =   -1171.59624239 Ry
     estimated scf accuracy    <       0.00001145 Ry

     iteration # 18     ecut=    36.75 Ry     beta=0.30
     Davidson diagonalization with overlap
     ethr =  8.24E-09,  avg # of iterations =  4.1

     negative rho (up, down):  2.892E-04 0.000E+00

     negative rho (up, down):  2.892E-04 0.000E+00

     negative rho (up, down):  2.892E-04 0.000E+00

     negative rho (up, down):  2.892E-04 0.000E+00

     negative rho (up, down):  2.892E-04 0.000E+00

     negative rho (up, down):  2.892E-04 0.000E+00

     negative rho (up, down):  2.892E-04 0.000E+00

     negative rho (up, down):  2.892E-04 0.000E+00

     negative rho (up, down):  2.892E-04 0.000E+00

     negative rho (up, down):  2.892E-04 0.000E+00

     negative rho (up, down):  2.892E-04 0.000E+00

     negative rho (up, down):  2.892E-04 0.000E+00

     negative rho (up, down):  2.892E-04 0.000E+00

     negative rho (up, down):  2.892E-04 0.000E+00

     negative rho (up, down):  2.892E-04 0.000E+00

     negative rho (up, down):  2.892E-04 0.000E+00

     negative rho (up, down):  2.892E-04 0.000E+00

     negative rho (up, down):  2.892E-04 0.000E+00

     negative rho (up, down):  2.892E-04 0.000E+00

     negative rho (up, down):  2.892E-04 0.000E+00

     negative rho (up, down):  2.892E-04 0.000E+00

     negative rho (up, down):  2.892E-04 0.000E+00

     negative rho (up, down):  2.892E-04 0.000E+00

     negative rho (up, down):  2.892E-04 0.000E+00

     negative rho (up, down):  2.892E-04 0.000E+00

     negative rho (up, down):  2.892E-04 0.000E+00

     negative rho (up, down):  2.892E-04 0.000E+00

     negative rho (up, down):  2.892E-04 0.000E+00

     negative rho (up, down):  2.892E-04 0.000E+00

     negative rho (up, down):  2.892E-04 0.000E+00

     negative rho (up, down):  2.892E-04 0.000E+00

     negative rho (up, down):  2.892E-04 0.000E+00

     negative rho (up, down):  2.892E-04 0.000E+00

     negative rho (up, down):  2.892E-04 0.000E+00

     negative rho (up, down):  2.892E-04 0.000E+00
 
     Adding external electric field

     Computed dipole along edir(3) : 
        Dipole                0.2899 Ry au,          0.7369 Debye
        Dipole field          0.0006 Ry au
 
        Potential amp.       -0.0554 Ry
        Total length         46.5341 bohr
 

     total cpu time spent up to now is      516.6 secs

     End of self-consistent calculation

          k = 0.0000 0.0000 0.0000 ( 23031 PWs)   bands (ev):

   -49.1303 -49.0876 -49.0876 -49.0873 -49.0737 -49.0416 -49.0414 -49.0411
   -48.6272 -48.5869 -48.5865 -48.5654 -27.8621 -27.8287 -27.8287 -27.8219
   -27.8000 -27.7976 -27.7975 -27.7698 -27.7581 -27.7460 -27.7459 -27.7062
   -27.7054 -27.7053 -27.5764 -27.5763 -27.5752 -27.5408 -27.5407 -27.5390
   -27.4944 -27.4944 -27.4616 -27.4616 -27.3565 -27.3466 -27.3464 -27.1892
   -27.1674 -27.1670 -27.1409 -27.1138 -27.1089 -27.1086 -27.0326 -27.0326
   -19.9350  -7.7008  -3.8820  -3.8819  -3.8298  -2.6950  -1.4345  -0.6284
    -0.6284  -0.5996  -0.4977  -0.4699  -0.4698  -0.1715  -0.1652  -0.1652
     0.2948   0.2948   0.3370   0.5768   0.5769   0.6955   0.9521   1.0073
     1.3691   1.4887   1.4931   1.4931   1.5761   1.5761   1.8878

          k = 0.0000 0.0299 0.0000 ( 23008 PWs)   bands (ev):

   -49.1273 -49.0898 -49.0876 -49.0842 -49.0746 -49.0445 -49.0416 -49.0412
   -48.6243 -48.5888 -48.5867 -48.5662 -27.8466 -27.8171 -27.8160 -27.8098
   -27.7870 -27.7852 -27.7770 -27.7693 -27.7553 -27.7472 -27.7448 -27.7098
   -27.7060 -27.7057 -27.5900 -27.5890 -27.5709 -27.5540 -27.5529 -27.5349
   -27.5177 -27.4996 -27.4852 -27.4669 -27.3438 -27.3350 -27.3287 -27.1867
   -27.1678 -27.1667 -27.1407 -27.1251 -27.1210 -27.1052 -27.0547 -27.0377
   -19.9347  -7.6962  -3.9193  -3.8811  -3.6516  -2.5350  -1.2870  -0.9914
    -0.6449  -0.6332  -0.5454  -0.4080  -0.3883  -0.0746  -0.0143   0.0342
     0.3370   0.3578   0.4008   0.6224   0.6407   0.7450   0.9665   1.0172
     1.3431   1.3610   1.4164   1.4181   1.5249   1.5473   1.8311

          k = 0.0000 0.0598 0.0000 ( 22962 PWs)   bands (ev):

   -49.1192 -49.0967 -49.0876 -49.0759 -49.0757 -49.0529 -49.0416 -49.0412
   -48.6167 -48.5951 -48.5868 -48.5675 -27.8126 -27.8039 -27.7844 -27.7732
   -27.7573 -27.7551 -27.7547 -27.7505 -27.7463 -27.7423 -27.7224 -27.7135
   -27.7065 -27.7063 -27.6235 -27.6217 -27.5858 -27.5848 -27.5794 -27.5575
   -27.5483 -27.5207 -27.5132 -27.4814 -27.3160 -27.3064 -27.2749 -27.1813
   -27.1700 -27.1658 -27.1559 -27.1509 -27.1401 -27.1140 -27.0919 -27.0514
   -19.9341  -7.6873  -3.9488  -3.8793  -3.1987  -2.0973  -1.7196  -0.9243
    -0.8289  -0.6457  -0.6399  -0.2275  -0.2002   0.0335   0.3253   0.3389
     0.4811   0.5221   0.5576   0.7430   0.7718   0.8414   0.9157   1.0441
     1.2048   1.2085   1.2315   1.3199   1.3342   1.3447   1.5467

          k = 0.0000-0.0897 0.0000 ( 23032 PWs)   bands (ev):

   -49.1107 -49.1049 -49.0876 -49.0762 -49.0646 -49.0642 -49.0416 -49.0412
   -48.6092 -48.6021 -48.5868 -48.5681 -27.7964 -27.7888 -27.7775 -27.7625
   -27.7531 -27.7411 -27.7368 -27.7351 -27.7350 -27.7346 -27.7069 -27.7065
   -27.6791 -27.6694 -27.6444 -27.6333 -27.6333 -27.6295 -27.6070 -27.6062
   -27.5454 -27.5254 -27.5018 -27.5003 -27.2979 -27.2862 -27.2011 -27.1966
   -27.1777 -27.1773 -27.1727 -27.1650 -27.1638 -27.1399 -27.0780 -27.0654
   -19.9338  -7.6828  -3.9598  -3.8785  -2.5371  -2.4995  -1.5228  -1.4362
    -0.6529  -0.6376  -0.3653  -0.2786  -0.0836  -0.0820   0.6025   0.6071
     0.6181   0.6605   0.6715   0.7013   0.9094   0.9284   0.9445   0.9803
     0.9921   1.0351   1.0877   1.2448   1.2610   1.3303   1.3566

          k = 0.0259-0.0149 0.0000 ( 23008 PWs)   bands (ev):

   -49.1273 -49.0898 -49.0876 -49.0842 -49.0746 -49.0445 -49.0416 -49.0412
   -48.6243 -48.5890 -48.5865 -48.5662 -27.8466 -27.8171 -27.8160 -27.8099
   -27.7870 -27.7852 -27.7770 -27.7693 -27.7553 -27.7472 -27.7448 -27.7098
   -27.7060 -27.7057 -27.5900 -27.5890 -27.5709 -27.5540 -27.5529 -27.5349
   -27.5177 -27.4996 -27.4851 -27.4669 -27.3437 -27.3352 -27.3286 -27.1867
   -27.1680 -27.1664 -27.1407 -27.1250 -27.1212 -27.1051 -27.0547 -27.0377
   -19.9347  -7.6962  -3.9193  -3.8811  -3.6516  -2.5350  -1.2870  -0.9914
    -0.6449  -0.6332  -0.5454  -0.4080  -0.3883  -0.0745  -0.0143   0.0342
     0.3370   0.3577   0.4008   0.6224   0.6407   0.7450   0.9665   1.0172
     1.3431   1.3610   1.4164   1.4181   1.5249   1.5473   1.8311

          k = 0.0259 0.0149 0.0000 ( 23008 PWs)   bands (ev):

   -49.1273 -49.0898 -49.0876 -49.0842 -49.0746 -49.0445 -49.0414 -49.0414
   -48.6243 -48.5886 -48.5868 -48.5662 -27.8466 -27.8171 -27.8160 -27.8098
   -27.7869 -27.7853 -27.7770 -27.7693 -27.7553 -27.7471 -27.7448 -27.7098
   -27.7061 -27.7056 -27.5899 -27.5890 -27.5709 -27.5540 -27.5528 -27.5349
   -27.5177 -27.4996 -27.4851 -27.4669 -27.3438 -27.3350 -27.3287 -27.1867
   -27.1677 -27.1668 -27.1407 -27.1251 -27.1209 -27.1052 -27.0548 -27.0377
   -19.9347  -7.6962  -3.9193  -3.8811  -3.6516  -2.5350  -1.2870  -0.9914
    -0.6449  -0.6332  -0.5454  -0.4080  -0.3883  -0.0745  -0.0143   0.0342
     0.3370   0.3578   0.4008   0.6224   0.6408   0.7450   0.9665   1.0172
     1.3431   1.3610   1.4164   1.4181   1.5249   1.5473   1.8311

          k = 0.0259 0.0448 0.0000 ( 23004 PWs)   bands (ev):

   -49.1218 -49.0934 -49.0889 -49.0785 -49.0752 -49.0473 -49.0470 -49.0387
   -48.6191 -48.5921 -48.5878 -48.5671 -27.8215 -27.8082 -27.7872 -27.7795
   -27.7703 -27.7696 -27.7534 -27.7497 -27.7467 -27.7452 -27.7419 -27.7133
   -27.7129 -27.7029 -27.6311 -27.5946 -27.5794 -27.5791 -27.5575 -27.5424
   -27.5412 -27.5272 -27.5105 -27.4781 -27.3258 -27.3039 -27.3007 -27.1828
   -27.1689 -27.1663 -27.1620 -27.1404 -27.1134 -27.1111 -27.0936 -27.0484
   -19.9343  -7.6895  -3.9386  -3.8840  -3.3448  -2.2356  -1.2493  -1.2377
    -0.9927  -0.5990  -0.5613  -0.2685  -0.1285   0.0868   0.1597   0.2059
     0.4269   0.4679   0.5261   0.7026   0.7499   0.8243   0.9311   1.0363
     1.2243   1.2260   1.3276   1.3359   1.3819   1.4430   1.6070

          k = 0.0259-0.1046 0.0000 ( 23012 PWs)   bands (ev):

   -49.1126 -49.1008 -49.0908 -49.0752 -49.0686 -49.0571 -49.0487 -49.0372
   -48.6106 -48.5989 -48.5889 -48.5676 -27.7972 -27.7856 -27.7738 -27.7576
   -27.7506 -27.7410 -27.7391 -27.7376 -27.7293 -27.7196 -27.7143 -27.7114
   -27.7016 -27.6785 -27.6769 -27.6415 -27.6336 -27.5980 -27.5942 -27.5605
   -27.5585 -27.5292 -27.5217 -27.4983 -27.2966 -27.2727 -27.2399 -27.2062
   -27.1778 -27.1715 -27.1659 -27.1632 -27.1401 -27.1277 -27.0927 -27.0674
   -19.9338  -7.6828  -3.9481  -3.8903  -2.7767  -2.0277  -1.7025  -1.3608
    -1.0704  -0.5740  -0.4720  -0.0665   0.0129   0.1501   0.4082   0.4344
     0.5920   0.6352   0.6939   0.7665   0.8505   0.8960   0.9560   1.0042
     1.0484   1.1513   1.1701   1.1988   1.2704   1.3020   1.3495

          k = 0.0259-0.0747 0.0000 ( 23012 PWs)   bands (ev):

   -49.1126 -49.1008 -49.0908 -49.0752 -49.0686 -49.0571 -49.0487 -49.0372
   -48.6105 -48.5991 -48.5888 -48.5676 -27.7972 -27.7856 -27.7738 -27.7576
   -27.7506 -27.7409 -27.7391 -27.7376 -27.7293 -27.7196 -27.7143 -27.7114
   -27.7016 -27.6785 -27.6769 -27.6415 -27.6336 -27.5980 -27.5942 -27.5605
   -27.5585 -27.5292 -27.5217 -27.4983 -27.2966 -27.2727 -27.2399 -27.2064
   -27.1777 -27.1716 -27.1657 -27.1630 -27.1401 -27.1278 -27.0927 -27.0674
   -19.9338  -7.6828  -3.9480  -3.8903  -2.7767  -2.0277  -1.7025  -1.3608
    -1.0704  -0.5740  -0.4720  -0.0665   0.0129   0.1501   0.4082   0.4344
     0.5919   0.6352   0.6939   0.7665   0.8505   0.8960   0.9560   1.0042
     1.0484   1.1514   1.1700   1.1988   1.2704   1.3020   1.3495

          k = 0.0259-0.0448 0.0000 ( 23004 PWs)   bands (ev):

   -49.1218 -49.0934 -49.0889 -49.0785 -49.0752 -49.0472 -49.0471 -49.0387
   -48.6191 -48.5925 -48.5874 -48.5671 -27.8215 -27.8082 -27.7872 -27.7795
   -27.7703 -27.7696 -27.7534 -27.7497 -27.7467 -27.7452 -27.7420 -27.7133
   -27.7130 -27.7029 -27.6311 -27.5945 -27.5793 -27.5792 -27.5575 -27.5424
   -27.5412 -27.5272 -27.5105 -27.4781 -27.3257 -27.3041 -27.3006 -27.1828
   -27.1692 -27.1660 -27.1620 -27.1404 -27.1134 -27.1109 -27.0937 -27.0485
   -19.9343  -7.6895  -3.9386  -3.8840  -3.3448  -2.2356  -1.2494  -1.2377
    -0.9927  -0.5990  -0.5613  -0.2685  -0.1285   0.0868   0.1597   0.2059
     0.4269   0.4678   0.5261   0.7027   0.7499   0.8243   0.9311   1.0363
     1.2243   1.2259   1.3276   1.3359   1.3820   1.4430   1.6070

          k = 0.0518-0.0299 0.0000 ( 22962 PWs)   bands (ev):

   -49.1192 -49.0967 -49.0876 -49.0759 -49.0757 -49.0529 -49.0416 -49.0412
   -48.6167 -48.5953 -48.5865 -48.5676 -27.8126 -27.8039 -27.7844 -27.7732
   -27.7574 -27.7551 -27.7547 -27.7504 -27.7463 -27.7423 -27.7224 -27.7135
   -27.7065 -27.7063 -27.6234 -27.6217 -27.5858 -27.5848 -27.5794 -27.5575
   -27.5483 -27.5207 -27.5132 -27.4814 -27.3158 -27.3067 -27.2749 -27.1813
   -27.1703 -27.1656 -27.1557 -27.1512 -27.1401 -27.1140 -27.0918 -27.0515
   -19.9341  -7.6873  -3.9488  -3.8793  -3.1987  -2.0973  -1.7196  -0.9243
    -0.8289  -0.6457  -0.6399  -0.2274  -0.2002   0.0335   0.3253   0.3389
     0.4811   0.5220   0.5576   0.7429   0.7718   0.8414   0.9157   1.0441
     1.2048   1.2085   1.2316   1.3199   1.3341   1.3447   1.5466

          k = 0.0518 0.0000 0.0000 ( 23004 PWs)   bands (ev):

   -49.1218 -49.0933 -49.0890 -49.0785 -49.0752 -49.0473 -49.0470 -49.0387
   -48.6191 -48.5924 -48.5875 -48.5671 -27.8215 -27.8082 -27.7872 -27.7796
   -27.7703 -27.7696 -27.7534 -27.7497 -27.7467 -27.7452 -27.7420 -27.7133
   -27.7130 -27.7029 -27.6311 -27.5945 -27.5794 -27.5792 -27.5575 -27.5424
   -27.5413 -27.5272 -27.5105 -27.4781 -27.3257 -27.3041 -27.3006 -27.1828
   -27.1691 -27.1661 -27.1620 -27.1404 -27.1134 -27.1110 -27.0937 -27.0485
   -19.9343  -7.6895  -3.9386  -3.8840  -3.3448  -2.2356  -1.2494  -1.2377
    -0.9927  -0.5990  -0.5613  -0.2685  -0.1285   0.0868   0.1597   0.2059
     0.4269   0.4679   0.5261   0.7026   0.7499   0.8243   0.9311   1.0363
     1.2243   1.2260   1.3276   1.3359   1.3820   1.4430   1.6070

          k = 0.0518 0.0299 0.0000 ( 22962 PWs)   bands (ev):

   -49.1193 -49.0967 -49.0876 -49.0759 -49.0757 -49.0529 -49.0414 -49.0414
   -48.6168 -48.5950 -48.5869 -48.5675 -27.8126 -27.8039 -27.7844 -27.7732
   -27.7572 -27.7552 -27.7547 -27.7504 -27.7463 -27.7424 -27.7224 -27.7135
   -27.7065 -27.7063 -27.6234 -27.6218 -27.5859 -27.5847 -27.5794 -27.5576
   -27.5483 -27.5207 -27.5132 -27.4814 -27.3160 -27.3064 -27.2749 -27.1813
   -27.1699 -27.1659 -27.1560 -27.1508 -27.1401 -27.1140 -27.0919 -27.0514
   -19.9341  -7.6873  -3.9489  -3.8793  -3.1987  -2.0973  -1.7195  -0.9243
    -0.8289  -0.6457  -0.6399  -0.2275  -0.2002   0.0335   0.3253   0.3389
     0.4811   0.5221   0.5576   0.7430   0.7718   0.8414   0.9157   1.0442
     1.2048   1.2085   1.2316   1.3199   1.3342   1.3447   1.5467

          k = 0.0518-0.1196 0.0000 ( 23012 PWs)   bands (ev):

   -49.1126 -49.1008 -49.0909 -49.0752 -49.0686 -49.0571 -49.0487 -49.0372
   -48.6106 -48.5988 -48.5890 -48.5676 -27.7972 -27.7856 -27.7739 -27.7576
   -27.7505 -27.7410 -27.7391 -27.7376 -27.7293 -27.7196 -27.7143 -27.7114
   -27.7016 -27.6785 -27.6769 -27.6415 -27.6336 -27.5980 -27.5942 -27.5605
   -27.5585 -27.5292 -27.5217 -27.4983 -27.2966 -27.2726 -27.2399 -27.2062
   -27.1778 -27.1714 -27.1659 -27.1631 -27.1401 -27.1277 -27.0927 -27.0673
   -19.9338  -7.6828  -3.9481  -3.8903  -2.7767  -2.0277  -1.7025  -1.3608
    -1.0704  -0.5740  -0.4720  -0.0665   0.0129   0.1501   0.4082   0.4345
     0.5920   0.6352   0.6939   0.7665   0.8505   0.8960   0.9560   1.0042
     1.0484   1.1514   1.1700   1.1988   1.2704   1.3020   1.3495

          k = 0.0518-0.0897 0.0000 ( 23028 PWs)   bands (ev):

   -49.1053 -49.1046 -49.0951 -49.0744 -49.0589 -49.0587 -49.0584 -49.0356
   -48.6038 -48.6033 -48.5916 -48.5674 -27.7916 -27.7740 -27.7637 -27.7445
   -27.7386 -27.7383 -27.7296 -27.7290 -27.7281 -27.6996 -27.6995 -27.6940
   -27.6938 -27.6928 -27.6897 -27.6589 -27.6586 -27.6572 -27.5755 -27.5559
   -27.5547 -27.5292 -27.5273 -27.5272 -27.2593 -27.2585 -27.2240 -27.2180
   -27.2179 -27.1743 -27.1737 -27.1661 -27.1400 -27.1044 -27.0936 -27.0934
   -19.9337  -7.6806  -3.9318  -3.9111  -2.1553  -2.1260  -2.1095  -1.1942
    -1.1384  -1.0598  -0.0371  -0.0173   0.1396   0.3071   0.3203   0.3236
     0.6623   0.7171   0.7617   0.8455   0.8684   0.9367   0.9373   1.0494
     1.0655   1.1056   1.1094   1.1158   1.2562   1.2657   1.2794

          k = 0.0518-0.0598 0.0000 ( 23012 PWs)   bands (ev):

   -49.1126 -49.1008 -49.0908 -49.0752 -49.0686 -49.0571 -49.0487 -49.0372
   -48.6105 -48.5993 -48.5886 -48.5677 -27.7972 -27.7856 -27.7739 -27.7576
   -27.7505 -27.7409 -27.7391 -27.7376 -27.7293 -27.7196 -27.7143 -27.7114
   -27.7016 -27.6785 -27.6770 -27.6415 -27.6336 -27.5980 -27.5942 -27.5605
   -27.5585 -27.5291 -27.5217 -27.4983 -27.2965 -27.2728 -27.2399 -27.2063
   -27.1776 -27.1719 -27.1656 -27.1631 -27.1401 -27.1277 -27.0926 -27.0675
   -19.9338  -7.6828  -3.9480  -3.8903  -2.7767  -2.0277  -1.7025  -1.3608
    -1.0704  -0.5740  -0.4720  -0.0665   0.0129   0.1501   0.4082   0.4344
     0.5919   0.6352   0.6939   0.7665   0.8504   0.8960   0.9560   1.0042
     1.0484   1.1514   1.1700   1.1988   1.2704   1.3020   1.3495

          k =-0.0777 0.0448 0.0000 ( 23032 PWs)   bands (ev):

   -49.1107 -49.1049 -49.0876 -49.0762 -49.0646 -49.0642 -49.0416 -49.0412
   -48.6089 -48.6026 -48.5865 -48.5681 -27.7964 -27.7888 -27.7775 -27.7625
   -27.7530 -27.7411 -27.7368 -27.7351 -27.7350 -27.7345 -27.7069 -27.7064
   -27.6790 -27.6694 -27.6444 -27.6333 -27.6333 -27.6295 -27.6070 -27.6062
   -27.5455 -27.5254 -27.5018 -27.5003 -27.2976 -27.2865 -27.2008 -27.1970
   -27.1775 -27.1771 -27.1732 -27.1647 -27.1638 -27.1399 -27.0778 -27.0657
   -19.9338  -7.6828  -3.9598  -3.8785  -2.5371  -2.4996  -1.5228  -1.4362
    -0.6529  -0.6376  -0.3653  -0.2786  -0.0835  -0.0821   0.6025   0.6071
     0.6181   0.6606   0.6715   0.7013   0.9094   0.9285   0.9445   0.9803
     0.9921   1.0351   1.0877   1.2447   1.2611   1.3303   1.3567

          k =-0.0777 0.0747 0.0000 ( 23012 PWs)   bands (ev):

   -49.1126 -49.1008 -49.0908 -49.0752 -49.0686 -49.0571 -49.0487 -49.0372
   -48.6105 -48.5993 -48.5887 -48.5677 -27.7972 -27.7856 -27.7739 -27.7576
   -27.7505 -27.7410 -27.7390 -27.7376 -27.7293 -27.7196 -27.7143 -27.7114
   -27.7016 -27.6784 -27.6769 -27.6415 -27.6336 -27.5980 -27.5942 -27.5605
   -27.5585 -27.5292 -27.5217 -27.4983 -27.2965 -27.2728 -27.2399 -27.2063
   -27.1776 -27.1718 -27.1656 -27.1631 -27.1401 -27.1277 -27.0926 -27.0675
   -19.9338  -7.6828  -3.9481  -3.8903  -2.7767  -2.0277  -1.7025  -1.3608
    -1.0704  -0.5740  -0.4720  -0.0665   0.0129   0.1501   0.4082   0.4344
     0.5919   0.6352   0.6939   0.7665   0.8504   0.8960   0.9560   1.0042
     1.0484   1.1513   1.1701   1.1988   1.2704   1.3020   1.3495

          k =-0.0777 0.1046 0.0000 ( 23012 PWs)   bands (ev):

   -49.1126 -49.1007 -49.0909 -49.0752 -49.0686 -49.0571 -49.0487 -49.0372
   -48.6106 -48.5990 -48.5889 -48.5676 -27.7972 -27.7856 -27.7739 -27.7576
   -27.7505 -27.7410 -27.7391 -27.7376 -27.7293 -27.7196 -27.7143 -27.7114
   -27.7016 -27.6784 -27.6769 -27.6415 -27.6336 -27.5980 -27.5942 -27.5605
   -27.5585 -27.5292 -27.5217 -27.4983 -27.2966 -27.2726 -27.2399 -27.2064
   -27.1778 -27.1715 -27.1658 -27.1630 -27.1401 -27.1278 -27.0927 -27.0673
   -19.9338  -7.6828  -3.9481  -3.8903  -2.7767  -2.0277  -1.7025  -1.3608
    -1.0704  -0.5740  -0.4720  -0.0665   0.0129   0.1501   0.4082   0.4345
     0.5919   0.6352   0.6939   0.7665   0.8505   0.8960   0.9560   1.0042
     1.0484   1.1514   1.1700   1.1988   1.2704   1.3020   1.3495

          k =-0.0777-0.0448 0.0000 ( 23032 PWs)   bands (ev):

   -49.1107 -49.1048 -49.0876 -49.0762 -49.0644 -49.0644 -49.0414 -49.0414
   -48.6093 -48.6019 -48.5869 -48.5680 -27.7964 -27.7889 -27.7775 -27.7625
   -27.7530 -27.7411 -27.7366 -27.7352 -27.7349 -27.7347 -27.7067 -27.7066
   -27.6790 -27.6694 -27.6445 -27.6335 -27.6332 -27.6294 -27.6072 -27.6060
   -27.5455 -27.5254 -27.5017 -27.5005 -27.2980 -27.2861 -27.2012 -27.1964
   -27.1778 -27.1774 -27.1725 -27.1651 -27.1637 -27.1399 -27.0781 -27.0653
   -19.9338  -7.6828  -3.9598  -3.8785  -2.5371  -2.4995  -1.5228  -1.4362
    -0.6529  -0.6376  -0.3653  -0.2787  -0.0836  -0.0820   0.6025   0.6072
     0.6181   0.6605   0.6715   0.7013   0.9094   0.9284   0.9445   0.9803
     0.9920   1.0351   1.0877   1.2448   1.2611   1.3303   1.3566

     the Fermi energy is     0.8616 ev

!    total energy              =   -1171.59623880 Ry
     Harris-Foulkes estimate   =   -1171.59622966 Ry
     estimated scf accuracy    <       0.00000338 Ry

     The total energy is the sum of the following terms:

     one-electron contribution =   -7472.23907945 Ry
     hartree contribution      =    3722.57171667 Ry
     xc contribution           =    -174.82467243 Ry
     ewald contribution        =    2753.03169448 Ry
     electric field correction =       0.00017270 Ry
     smearing contrib. (-TS)   =      -0.13607077 Ry

     convergence has been achieved in  18 iterations
 
 BEEF-vdW xc energy contributions
           1 :   -148.159286116749     
           2 :    130.253341266980     
           3 :   -102.359105358650     
           4 :    75.2517258947887     
           5 :   -56.4720646699523     
           6 :    47.3215783569292     
           7 :   -44.1939204359190     
           8 :    42.3651583857848     
           9 :   -39.2118879355889     
          10 :    34.9662173691034     
          11 :   -31.2736461901246     
          12 :    29.2273339172302     
          13 :   -28.4649666258487     
          14 :    27.7368522775007     
          15 :   -26.1480488863928     
          16 :    23.8930330674198     
          17 :   -21.9205406520093     
          18 :    20.9632934609764     
          19 :   -20.8786309243420     
          20 :    20.8528400045516     
          21 :   -20.1837405057761     
          22 :    18.8750708403660     
          23 :   -17.5413955881487     
          24 :    16.7887555573167     
          25 :   -16.6763512208061     
          26 :    16.7206977980848     
          27 :   -16.3794099309653     
          28 :    15.5384044075022     
          29 :   -14.5731844505842     
          30 :    13.9675202425487     
          31 :   -17.4580631175434     
          32 :   -12.4610166233535     

     Forces acting on atoms (Ry/au):


     negative rho (up, down):  2.892E-04 0.000E+00
     atom    1 type  1   force =     0.00004227   -0.00001521    0.00090352
     atom    2 type  1   force =    -0.00003577   -0.00042880    0.00103856
     atom    3 type  1   force =    -0.00035815    0.00020407    0.00106223
     atom    4 type  1   force =     0.00036393    0.00024822    0.00103809
     atom    5 type  1   force =    -0.00068096    0.00037619    0.00332428
     atom    6 type  1   force =     0.00068626    0.00040319    0.00331299
     atom    7 type  1   force =     0.00002735    0.00001021   -0.00576100
     atom    8 type  1   force =    -0.00002087   -0.00078297    0.00332445
     atom    9 type  1   force =     0.01571179    0.00903327    0.02447732
     atom   10 type  1   force =    -0.01573562    0.00910494    0.02447154
     atom   11 type  1   force =     0.00005211   -0.01815280    0.02449408
     atom   12 type  1   force =    -0.00003920    0.00001434   -0.01631249
     atom   13 type  2   force =    -0.00001344   -0.00001460   -0.11147020
     atom   14 type  3   force =     0.00000031   -0.00000006    0.04609663

     Total force =     0.132677     Total SCF correction =     0.005800


     entering subroutine stress ...


     negative rho (up, down):  2.892E-04 0.000E+00
          total   stress  (Ry/bohr**3)                   (kbar)     P=    0.40
   0.00001772   0.00000000  -0.00000000          2.61      0.00     -0.00
   0.00000000   0.00001771   0.00000000          0.00      2.61      0.00
  -0.00000000   0.00000000  -0.00002731         -0.00      0.00     -4.02


     BFGS Geometry Optimization

     number of scf cycles    =   1
     number of bfgs steps    =   0

     energy   new            =   -1171.5962388008 Ry

     new trust radius        =       0.1114702024 bohr
     new conv_thr            =       0.0000099958 Ry


ATOMIC_POSITIONS (crystal)
Sc1      0.166666667   0.166666667   0.395942884    0   0   0
Sc1      0.666666667   0.166666667   0.395942884    0   0   0
Sc1      0.166666667   0.666666667   0.395942884    0   0   0
Sc1      0.666666667   0.666666667   0.395942884    0   0   0
Sc1      0.833333333   0.333333333   0.500000000    0   0   0
Sc1      0.333333333   0.333333333   0.500000000    0   0   0
Sc1      0.833333333   0.833333333   0.500000000    0   0   0
Sc1      0.333333333   0.833333333   0.500000000    0   0   0
Sc1      0.000862835   0.000857433   0.604569974
Sc1      0.498274370   0.000864237   0.604569853
Sc1      0.000865811   0.498276945   0.604570325
Sc1      0.499996097   0.500001362   0.603715330
O1       0.166666254   0.166665281   0.662459186
H1       0.166666695   0.166666661   0.703375163



     Writing output data file calc.save
     Check: negative starting charge=   -0.000371
     NEW-OLD atomic charge density approx. for the potential
     Check: negative starting charge=   -0.000364

     negative rho (up, down):  5.397E-04 0.000E+00
 
     Adding external electric field

     Computed dipole along edir(3) : 
        Dipole                0.2901 Ry au,          0.7373 Debye
        Dipole field          0.0006 Ry au
 
        Potential amp.       -0.0555 Ry
        Total length         46.5341 bohr
 

     total cpu time spent up to now is      616.3 secs

     per-process dynamical memory:    98.3 Mb

     Self-consistent Calculation

     iteration #  1     ecut=    36.75 Ry     beta=0.30
     Davidson diagonalization with overlap
     ethr =  1.00E-06,  avg # of iterations = 11.5

     negative rho (up, down):  3.372E-04 0.000E+00
 
     Adding external electric field

     Computed dipole along edir(3) : 
        Dipole                0.1507 Ry au,          0.3829 Debye
        Dipole field          0.0003 Ry au
 
        Potential amp.       -0.0288 Ry
        Total length         46.5341 bohr
 

     total cpu time spent up to now is      651.8 secs

     total energy              =   -1171.59732366 Ry
     Harris-Foulkes estimate   =   -1171.60358318 Ry
     estimated scf accuracy    <       0.01409092 Ry

     iteration #  2     ecut=    36.75 Ry     beta=0.30
     Davidson diagonalization with overlap
     ethr =  1.01E-05,  avg # of iterations =  9.3

     negative rho (up, down):  2.592E-04 0.000E+00
 
     Adding external electric field

     Computed dipole along edir(3) : 
        Dipole                0.3594 Ry au,          0.9136 Debye
        Dipole field          0.0007 Ry au
 
        Potential amp.       -0.0687 Ry
        Total length         46.5341 bohr
 

     total cpu time spent up to now is      682.1 secs

     total energy              =   -1171.56647451 Ry
     Harris-Foulkes estimate   =   -1171.62966609 Ry
     estimated scf accuracy    <       3.16898201 Ry

     iteration #  3     ecut=    36.75 Ry     beta=0.30
     Davidson diagonalization with overlap
     ethr =  1.01E-05,  avg # of iterations =  8.8

     negative rho (up, down):  2.336E-04 0.000E+00
 
     Adding external electric field

     Computed dipole along edir(3) : 
        Dipole                0.3213 Ry au,          0.8168 Debye
        Dipole field          0.0007 Ry au
 
        Potential amp.       -0.0614 Ry
        Total length         46.5341 bohr
 

     total cpu time spent up to now is      711.5 secs

     total energy              =   -1171.59769468 Ry
     Harris-Foulkes estimate   =   -1171.60205752 Ry
     estimated scf accuracy    <       0.06572521 Ry

     iteration #  4     ecut=    36.75 Ry     beta=0.30
     Davidson diagonalization with overlap
     ethr =  1.01E-05,  avg # of iterations =  6.7

     negative rho (up, down):  2.290E-04 0.000E+00
 
     Adding external electric field

     Computed dipole along edir(3) : 
        Dipole                0.2945 Ry au,          0.7486 Debye
        Dipole field          0.0006 Ry au
 
        Potential amp.       -0.0563 Ry
        Total length         46.5341 bohr
 

     total cpu time spent up to now is      738.9 secs

     total energy              =   -1171.59854750 Ry
     Harris-Foulkes estimate   =   -1171.60218995 Ry
     estimated scf accuracy    <       0.03954638 Ry

     iteration #  5     ecut=    36.75 Ry     beta=0.30
     Davidson diagonalization with overlap
     ethr =  1.01E-05,  avg # of iterations =  5.5

     negative rho (up, down):  2.296E-04 0.000E+00
 
     Adding external electric field

     Computed dipole along edir(3) : 
        Dipole                0.3076 Ry au,          0.7818 Debye
        Dipole field          0.0006 Ry au
 
        Potential amp.       -0.0588 Ry
        Total length         46.5341 bohr
 

     total cpu time spent up to now is      764.0 secs

     total energy              =   -1171.60009335 Ry
     Harris-Foulkes estimate   =   -1171.60036790 Ry
     estimated scf accuracy    <       0.00106302 Ry

     iteration #  6     ecut=    36.75 Ry     beta=0.30
     Davidson diagonalization with overlap
     ethr =  7.65E-07,  avg # of iterations =  8.8

     negative rho (up, down):  2.382E-04 0.000E+00
 
     Adding external electric field

     Computed dipole along edir(3) : 
        Dipole                0.3098 Ry au,          0.7874 Debye
        Dipole field          0.0006 Ry au
 
        Potential amp.       -0.0592 Ry
        Total length         46.5341 bohr
 

     total cpu time spent up to now is      792.9 secs

     total energy              =   -1171.60028882 Ry
     Harris-Foulkes estimate   =   -1171.60040748 Ry
     estimated scf accuracy    <       0.00070881 Ry

     iteration #  7     ecut=    36.75 Ry     beta=0.30
     Davidson diagonalization with overlap
     ethr =  5.10E-07,  avg # of iterations =  6.2

     negative rho (up, down):  2.478E-04 0.000E+00
 
     Adding external electric field

     Computed dipole along edir(3) : 
        Dipole                0.3034 Ry au,          0.7711 Debye
        Dipole field          0.0006 Ry au
 
        Potential amp.       -0.0580 Ry
        Total length         46.5341 bohr
 

     total cpu time spent up to now is      818.2 secs

     total energy              =   -1171.60034323 Ry
     Harris-Foulkes estimate   =   -1171.60038624 Ry
     estimated scf accuracy    <       0.00029448 Ry

     iteration #  8     ecut=    36.75 Ry     beta=0.30
     Davidson diagonalization with overlap
     ethr =  2.12E-07,  avg # of iterations =  4.1

     negative rho (up, down):  2.567E-04 0.000E+00
 
     Adding external electric field

     Computed dipole along edir(3) : 
        Dipole                0.3012 Ry au,          0.7655 Debye
        Dipole field          0.0006 Ry au
 
        Potential amp.       -0.0576 Ry
        Total length         46.5341 bohr
 

     total cpu time spent up to now is      842.8 secs

     total energy              =   -1171.60036361 Ry
     Harris-Foulkes estimate   =   -1171.60036570 Ry
     estimated scf accuracy    <       0.00003141 Ry

     iteration #  9     ecut=    36.75 Ry     beta=0.30
     Davidson diagonalization with overlap
     ethr =  2.26E-08,  avg # of iterations =  7.9

     negative rho (up, down):  2.642E-04 0.000E+00
 
     Adding external electric field

     Computed dipole along edir(3) : 
        Dipole                0.2999 Ry au,          0.7623 Debye
        Dipole field          0.0006 Ry au
 
        Potential amp.       -0.0573 Ry
        Total length         46.5341 bohr
 

     total cpu time spent up to now is      872.7 secs

     total energy              =   -1171.60037170 Ry
     Harris-Foulkes estimate   =   -1171.60037551 Ry
     estimated scf accuracy    <       0.00003971 Ry

     iteration # 10     ecut=    36.75 Ry     beta=0.30
     Davidson diagonalization with overlap
     ethr =  2.26E-08,  avg # of iterations =  2.5

     negative rho (up, down):  2.698E-04 0.000E+00
 
     Adding external electric field

     Computed dipole along edir(3) : 
        Dipole                0.2996 Ry au,          0.7615 Debye
        Dipole field          0.0006 Ry au
 
        Potential amp.       -0.0573 Ry
        Total length         46.5341 bohr
 

     total cpu time spent up to now is      895.6 secs

     total energy              =   -1171.60037136 Ry
     Harris-Foulkes estimate   =   -1171.60037317 Ry
     estimated scf accuracy    <       0.00001982 Ry

     iteration # 11     ecut=    36.75 Ry     beta=0.30
     Davidson diagonalization with overlap
     ethr =  1.43E-08,  avg # of iterations =  5.8

     negative rho (up, down):  2.836E-04 0.000E+00

     negative rho (up, down):  2.836E-04 0.000E+00

     negative rho (up, down):  2.836E-04 0.000E+00

     negative rho (up, down):  2.836E-04 0.000E+00

     negative rho (up, down):  2.836E-04 0.000E+00

     negative rho (up, down):  2.836E-04 0.000E+00

     negative rho (up, down):  2.836E-04 0.000E+00

     negative rho (up, down):  2.836E-04 0.000E+00

     negative rho (up, down):  2.836E-04 0.000E+00

     negative rho (up, down):  2.836E-04 0.000E+00

     negative rho (up, down):  2.836E-04 0.000E+00

     negative rho (up, down):  2.836E-04 0.000E+00

     negative rho (up, down):  2.836E-04 0.000E+00

     negative rho (up, down):  2.836E-04 0.000E+00

     negative rho (up, down):  2.836E-04 0.000E+00

     negative rho (up, down):  2.836E-04 0.000E+00

     negative rho (up, down):  2.836E-04 0.000E+00

     negative rho (up, down):  2.836E-04 0.000E+00

     negative rho (up, down):  2.836E-04 0.000E+00

     negative rho (up, down):  2.836E-04 0.000E+00

     negative rho (up, down):  2.836E-04 0.000E+00

     negative rho (up, down):  2.836E-04 0.000E+00

     negative rho (up, down):  2.836E-04 0.000E+00

     negative rho (up, down):  2.836E-04 0.000E+00

     negative rho (up, down):  2.836E-04 0.000E+00

     negative rho (up, down):  2.836E-04 0.000E+00

     negative rho (up, down):  2.836E-04 0.000E+00

     negative rho (up, down):  2.836E-04 0.000E+00

     negative rho (up, down):  2.836E-04 0.000E+00

     negative rho (up, down):  2.836E-04 0.000E+00

     negative rho (up, down):  2.836E-04 0.000E+00

     negative rho (up, down):  2.836E-04 0.000E+00

     negative rho (up, down):  2.836E-04 0.000E+00

     negative rho (up, down):  2.836E-04 0.000E+00

     negative rho (up, down):  2.836E-04 0.000E+00
 
     Adding external electric field

     Computed dipole along edir(3) : 
        Dipole                0.2962 Ry au,          0.7528 Debye
        Dipole field          0.0006 Ry au
 
        Potential amp.       -0.0566 Ry
        Total length         46.5341 bohr
 

     total cpu time spent up to now is      981.7 secs

     End of self-consistent calculation

          k = 0.0000 0.0000 0.0000 ( 23031 PWs)   bands (ev):

   -49.1086 -49.0681 -49.0675 -49.0616 -49.0372 -49.0166 -49.0158 -49.0148
   -48.6061 -48.5643 -48.5635 -48.5537 -27.8544 -27.8023 -27.8020 -27.7962
   -27.7742 -27.7725 -27.7720 -27.7370 -27.7338 -27.7261 -27.7255 -27.6811
   -27.6801 -27.6792 -27.5541 -27.5537 -27.5531 -27.5156 -27.5150 -27.5133
   -27.4674 -27.4672 -27.4361 -27.4361 -27.3328 -27.3286 -27.3282 -27.1666
   -27.1437 -27.1430 -27.1300 -27.0919 -27.0899 -27.0895 -27.0136 -27.0135
   -19.6630  -7.6463  -4.0793  -4.0793  -3.8031  -2.6697  -1.4127  -0.6015
    -0.6014  -0.5729  -0.4686  -0.4421  -0.4421  -0.1377  -0.1315  -0.1314
     0.3219   0.3220   0.3637   0.6052   0.6054   0.7299   0.9780   1.0181
     1.3939   1.5145   1.5180   1.5181   1.5974   1.5974   1.9057

          k = 0.0000 0.0299 0.0000 ( 23008 PWs)   bands (ev):

   -49.1058 -49.0698 -49.0679 -49.0586 -49.0380 -49.0191 -49.0158 -49.0154
   -48.6031 -48.5662 -48.5637 -48.5545 -27.8387 -27.7910 -27.7891 -27.7839
   -27.7613 -27.7598 -27.7515 -27.7373 -27.7307 -27.7267 -27.7249 -27.6844
   -27.6805 -27.6799 -27.5677 -27.5670 -27.5489 -27.5285 -27.5273 -27.5094
   -27.4902 -27.4723 -27.4596 -27.4414 -27.3206 -27.3171 -27.3098 -27.1639
   -27.1442 -27.1427 -27.1298 -27.1038 -27.1021 -27.0853 -27.0358 -27.0187
   -19.6626  -7.6416  -4.1052  -4.0781  -3.6343  -2.5107  -1.2654  -0.9640
    -0.6176  -0.6063  -0.5157  -0.3790  -0.3593  -0.0461   0.0166   0.0654
     0.3636   0.3846   0.4285   0.6504   0.6683   0.7786   0.9885   1.0300
     1.3685   1.3884   1.4420   1.4433   1.5467   1.5692   1.8524

          k = 0.0000 0.0598 0.0000 ( 22962 PWs)   bands (ev):

   -49.0983 -49.0759 -49.0679 -49.0502 -49.0393 -49.0273 -49.0159 -49.0155
   -48.5952 -48.5732 -48.5638 -48.5555 -27.8032 -27.7767 -27.7568 -27.7457
   -27.7327 -27.7299 -27.7298 -27.7275 -27.7227 -27.7215 -27.6970 -27.6880
   -27.6809 -27.6804 -27.6026 -27.6004 -27.5604 -27.5592 -27.5489 -27.5366
   -27.5228 -27.4951 -27.4849 -27.4558 -27.2931 -27.2891 -27.2550 -27.1581
   -27.1466 -27.1419 -27.1342 -27.1325 -27.1289 -27.0959 -27.0715 -27.0327
   -19.6618  -7.6322  -4.1370  -4.0755  -3.1763  -2.0735  -1.6924  -0.8997
    -0.8045  -0.6179  -0.6128  -0.2003  -0.1711   0.0580   0.3532   0.3662
     0.5055   0.5482   0.5869   0.7698   0.8005   0.8612   0.9398   1.0645
     1.2296   1.2339   1.2579   1.3400   1.3666   1.3682   1.5704

          k = 0.0000-0.0897 0.0000 ( 23032 PWs)   bands (ev):

   -49.0915 -49.0822 -49.0680 -49.0400 -49.0389 -49.0386 -49.0159 -49.0155
   -48.5863 -48.5818 -48.5638 -48.5559 -27.7818 -27.7613 -27.7566 -27.7343
   -27.7284 -27.7213 -27.7111 -27.7100 -27.7093 -27.7091 -27.6813 -27.6806
   -27.6663 -27.6443 -27.6242 -27.6080 -27.6072 -27.5936 -27.5817 -27.5804
   -27.5273 -27.4944 -27.4759 -27.4751 -27.2746 -27.2696 -27.1788 -27.1761
   -27.1553 -27.1534 -27.1516 -27.1485 -27.1411 -27.1291 -27.0549 -27.0494
   -19.6613  -7.6276  -4.1489  -4.0743  -2.5121  -2.4735  -1.4990  -1.4096
    -0.6262  -0.6098  -0.3412  -0.2572  -0.0597  -0.0534   0.6286   0.6315
     0.6469   0.6812   0.6979   0.7251   0.9360   0.9520   0.9716   1.0020
     1.0170   1.0635   1.1064   1.2659   1.2937   1.3543   1.3864

          k = 0.0259-0.0149 0.0000 ( 23008 PWs)   bands (ev):

   -49.1058 -49.0702 -49.0675 -49.0586 -49.0380 -49.0188 -49.0166 -49.0148
   -48.6032 -48.5657 -48.5642 -48.5544 -27.8386 -27.7909 -27.7894 -27.7837
   -27.7610 -27.7602 -27.7514 -27.7372 -27.7307 -27.7272 -27.7245 -27.6842
   -27.6812 -27.6794 -27.5680 -27.5668 -27.5487 -27.5289 -27.5269 -27.5094
   -27.4901 -27.4724 -27.4596 -27.4414 -27.3208 -27.3169 -27.3099 -27.1639
   -27.1437 -27.1432 -27.1298 -27.1040 -27.1018 -27.0854 -27.0358 -27.0187
   -19.6626  -7.6416  -4.1052  -4.0780  -3.6343  -2.5107  -1.2654  -0.9640
    -0.6176  -0.6062  -0.5157  -0.3790  -0.3594  -0.0461   0.0165   0.0654
     0.3636   0.3846   0.4285   0.6503   0.6685   0.7786   0.9885   1.0300
     1.3684   1.3885   1.4420   1.4432   1.5467   1.5692   1.8524

          k = 0.0259 0.0149 0.0000 ( 23008 PWs)   bands (ev):

   -49.1058 -49.0698 -49.0678 -49.0586 -49.0380 -49.0191 -49.0158 -49.0154
   -48.6031 -48.5663 -48.5636 -48.5545 -27.8387 -27.7910 -27.7892 -27.7839
   -27.7614 -27.7597 -27.7515 -27.7373 -27.7307 -27.7268 -27.7249 -27.6844
   -27.6803 -27.6801 -27.5677 -27.5669 -27.5488 -27.5283 -27.5275 -27.5094
   -27.4901 -27.4723 -27.4596 -27.4414 -27.3205 -27.3173 -27.3098 -27.1639
   -27.1443 -27.1425 -27.1298 -27.1037 -27.1022 -27.0853 -27.0358 -27.0187
   -19.6626  -7.6416  -4.1052  -4.0781  -3.6343  -2.5107  -1.2654  -0.9640
    -0.6175  -0.6063  -0.5157  -0.3790  -0.3593  -0.0461   0.0166   0.0654
     0.3636   0.3846   0.4285   0.6504   0.6683   0.7786   0.9885   1.0300
     1.3685   1.3884   1.4419   1.4433   1.5467   1.5692   1.8524

          k = 0.0259 0.0448 0.0000 ( 23004 PWs)   bands (ev):

   -49.1006 -49.0733 -49.0687 -49.0529 -49.0389 -49.0224 -49.0206 -49.0130
   -48.5977 -48.5699 -48.5652 -48.5549 -27.8124 -27.7812 -27.7613 -27.7541
   -27.7446 -27.7401 -27.7320 -27.7245 -27.7225 -27.7208 -27.7204 -27.6883
   -27.6867 -27.6772 -27.6089 -27.5690 -27.5589 -27.5582 -27.5272 -27.5171
   -27.5155 -27.5017 -27.4830 -27.4525 -27.3046 -27.2840 -27.2818 -27.1597
   -27.1456 -27.1422 -27.1419 -27.1296 -27.0923 -27.0912 -27.0757 -27.0295
   -19.6620  -7.6346  -4.1265  -4.0800  -3.3237  -2.2119  -1.2222  -1.2103
    -0.9708  -0.5703  -0.5339  -0.2409  -0.1007   0.1134   0.1890   0.2334
     0.4519   0.4950   0.5542   0.7310   0.7760   0.8533   0.9495   1.0554
     1.2495   1.2517   1.3460   1.3683   1.4061   1.4671   1.6309

          k = 0.0259-0.1046 0.0000 ( 23012 PWs)   bands (ev):

   -49.0925 -49.0798 -49.0696 -49.0430 -49.0397 -49.0315 -49.0230 -49.0115
   -48.5884 -48.5773 -48.5676 -48.5544 -27.7787 -27.7636 -27.7495 -27.7356
   -27.7248 -27.7189 -27.7140 -27.7125 -27.7046 -27.6950 -27.6920 -27.6857
   -27.6758 -27.6547 -27.6518 -27.6160 -27.6096 -27.5726 -27.5683 -27.5361
   -27.5349 -27.5000 -27.4961 -27.4727 -27.2756 -27.2536 -27.2195 -27.1863
   -27.1541 -27.1483 -27.1434 -27.1422 -27.1292 -27.1089 -27.0722 -27.0490
   -19.6613  -7.6276  -4.1382  -4.0849  -2.7521  -2.0014  -1.6779  -1.3336
    -1.0443  -0.5484  -0.4491  -0.0389   0.0361   0.1775   0.4362   0.4593
     0.6134   0.6603   0.7230   0.7852   0.8760   0.9210   0.9803   1.0283
     1.0717   1.1770   1.1963   1.2231   1.2954   1.3315   1.3758

          k = 0.0259-0.0747 0.0000 ( 23012 PWs)   bands (ev):

   -49.0924 -49.0800 -49.0694 -49.0430 -49.0397 -49.0315 -49.0230 -49.0115
   -48.5885 -48.5770 -48.5678 -48.5544 -27.7786 -27.7636 -27.7494 -27.7357
   -27.7249 -27.7189 -27.7140 -27.7125 -27.7046 -27.6947 -27.6922 -27.6857
   -27.6757 -27.6551 -27.6518 -27.6160 -27.6092 -27.5726 -27.5683 -27.5362
   -27.5349 -27.5000 -27.4961 -27.4727 -27.2756 -27.2536 -27.2195 -27.1862
   -27.1542 -27.1480 -27.1435 -27.1424 -27.1292 -27.1089 -27.0722 -27.0490
   -19.6613  -7.6276  -4.1382  -4.0849  -2.7521  -2.0014  -1.6780  -1.3336
    -1.0443  -0.5485  -0.4490  -0.0389   0.0361   0.1774   0.4362   0.4593
     0.6134   0.6603   0.7229   0.7852   0.8760   0.9209   0.9803   1.0283
     1.0718   1.1769   1.1964   1.2231   1.2953   1.3315   1.3758

          k = 0.0259-0.0448 0.0000 ( 23004 PWs)   bands (ev):

   -49.1006 -49.0737 -49.0683 -49.0529 -49.0390 -49.0216 -49.0214 -49.0130
   -48.5977 -48.5692 -48.5660 -48.5548 -27.8123 -27.7812 -27.7616 -27.7539
   -27.7445 -27.7399 -27.7323 -27.7245 -27.7224 -27.7211 -27.7201 -27.6876
   -27.6874 -27.6771 -27.6091 -27.5690 -27.5587 -27.5579 -27.5273 -27.5167
   -27.5158 -27.5017 -27.4830 -27.4525 -27.3047 -27.2837 -27.2820 -27.1598
   -27.1450 -27.1428 -27.1418 -27.1295 -27.0921 -27.0915 -27.0756 -27.0295
   -19.6620  -7.6346  -4.1265  -4.0800  -3.3237  -2.2119  -1.2221  -1.2104
    -0.9708  -0.5703  -0.5339  -0.2409  -0.1007   0.1135   0.1890   0.2334
     0.4519   0.4950   0.5542   0.7309   0.7761   0.8533   0.9495   1.0554
     1.2494   1.2517   1.3460   1.3682   1.4061   1.4670   1.6308

          k = 0.0518-0.0299 0.0000 ( 22962 PWs)   bands (ev):

   -49.0982 -49.0764 -49.0675 -49.0502 -49.0394 -49.0272 -49.0166 -49.0149
   -48.5952 -48.5728 -48.5643 -48.5553 -27.8030 -27.7767 -27.7572 -27.7456
   -27.7324 -27.7303 -27.7300 -27.7277 -27.7223 -27.7215 -27.6970 -27.6880
   -27.6815 -27.6798 -27.6030 -27.6001 -27.5609 -27.5587 -27.5488 -27.5363
   -27.5228 -27.4951 -27.4851 -27.4558 -27.2934 -27.2888 -27.2550 -27.1582
   -27.1461 -27.1424 -27.1345 -27.1322 -27.1287 -27.0959 -27.0716 -27.0327
   -19.6618  -7.6322  -4.1370  -4.0755  -3.1763  -2.0736  -1.6924  -0.8998
    -0.8044  -0.6180  -0.6127  -0.2004  -0.1711   0.0580   0.3533   0.3661
     0.5055   0.5482   0.5869   0.7697   0.8006   0.8612   0.9398   1.0645
     1.2298   1.2337   1.2580   1.3399   1.3665   1.3683   1.5705

          k = 0.0518 0.0000 0.0000 ( 23004 PWs)   bands (ev):

   -49.1006 -49.0737 -49.0682 -49.0529 -49.0390 -49.0217 -49.0214 -49.0130
   -48.5977 -48.5694 -48.5657 -48.5548 -27.8122 -27.7812 -27.7616 -27.7539
   -27.7445 -27.7399 -27.7323 -27.7245 -27.7224 -27.7210 -27.7201 -27.6877
   -27.6873 -27.6771 -27.6091 -27.5690 -27.5587 -27.5579 -27.5273 -27.5169
   -27.5157 -27.5017 -27.4831 -27.4525 -27.3047 -27.2838 -27.2819 -27.1598
   -27.1452 -27.1426 -27.1418 -27.1295 -27.0922 -27.0914 -27.0756 -27.0295
   -19.6620  -7.6346  -4.1265  -4.0800  -3.3237  -2.2119  -1.2221  -1.2104
    -0.9708  -0.5703  -0.5339  -0.2409  -0.1007   0.1135   0.1890   0.2334
     0.4519   0.4950   0.5542   0.7309   0.7761   0.8533   0.9495   1.0554
     1.2494   1.2517   1.3460   1.3682   1.4061   1.4670   1.6308

          k = 0.0518 0.0299 0.0000 ( 22962 PWs)   bands (ev):

   -49.0983 -49.0760 -49.0679 -49.0502 -49.0393 -49.0273 -49.0158 -49.0156
   -48.5952 -48.5733 -48.5636 -48.5556 -27.8032 -27.7767 -27.7569 -27.7457
   -27.7328 -27.7299 -27.7296 -27.7276 -27.7226 -27.7215 -27.6970 -27.6880
   -27.6807 -27.6806 -27.6026 -27.6004 -27.5602 -27.5594 -27.5489 -27.5366
   -27.5228 -27.4951 -27.4849 -27.4558 -27.2930 -27.2892 -27.2550 -27.1581
   -27.1468 -27.1417 -27.1340 -27.1326 -27.1289 -27.0958 -27.0715 -27.0327
   -19.6618  -7.6322  -4.1370  -4.0755  -3.1763  -2.0736  -1.6924  -0.8997
    -0.8045  -0.6179  -0.6128  -0.2003  -0.1711   0.0580   0.3532   0.3662
     0.5054   0.5482   0.5869   0.7698   0.8005   0.8612   0.9398   1.0645
     1.2295   1.2340   1.2579   1.3400   1.3665   1.3682   1.5704

          k = 0.0518-0.1196 0.0000 ( 23012 PWs)   bands (ev):

   -49.0924 -49.0799 -49.0695 -49.0430 -49.0397 -49.0316 -49.0230 -49.0115
   -48.5884 -48.5774 -48.5675 -48.5544 -27.7786 -27.7636 -27.7494 -27.7356
   -27.7249 -27.7189 -27.7140 -27.7126 -27.7046 -27.6950 -27.6920 -27.6857
   -27.6758 -27.6547 -27.6517 -27.6160 -27.6096 -27.5726 -27.5682 -27.5361
   -27.5349 -27.5001 -27.4961 -27.4727 -27.2755 -27.2537 -27.2195 -27.1863
   -27.1541 -27.1484 -27.1434 -27.1421 -27.1292 -27.1089 -27.0722 -27.0490
   -19.6613  -7.6276  -4.1382  -4.0849  -2.7521  -2.0014  -1.6780  -1.3336
    -1.0443  -0.5484  -0.4491  -0.0389   0.0361   0.1775   0.4363   0.4592
     0.6134   0.6603   0.7230   0.7852   0.8759   0.9210   0.9803   1.0283
     1.0717   1.1770   1.1963   1.2231   1.2954   1.3315   1.3758

          k = 0.0518-0.0897 0.0000 ( 23028 PWs)   bands (ev):

   -49.0869 -49.0837 -49.0713 -49.0398 -49.0339 -49.0331 -49.0321 -49.0099
   -48.5811 -48.5804 -48.5729 -48.5533 -27.7616 -27.7542 -27.7430 -27.7341
   -27.7169 -27.7164 -27.7039 -27.7033 -27.7025 -27.6742 -27.6739 -27.6710
   -27.6685 -27.6654 -27.6607 -27.6336 -27.6331 -27.6316 -27.5588 -27.5267
   -27.5252 -27.5032 -27.5022 -27.5017 -27.2385 -27.2376 -27.2022 -27.2000
   -27.1995 -27.1506 -27.1498 -27.1434 -27.1289 -27.0811 -27.0763 -27.0759
   -19.6611  -7.6253  -4.1256  -4.1021  -2.1300  -2.1000  -2.0822  -1.1699
    -1.1112  -1.0349  -0.0144   0.0077   0.1605   0.3321   0.3497   0.3510
     0.6804   0.7417   0.7775   0.8701   0.8925   0.9592   0.9693   1.0739
     1.0875   1.1286   1.1379   1.1449   1.2804   1.2997   1.3070

          k = 0.0518-0.0598 0.0000 ( 23012 PWs)   bands (ev):

   -49.0922 -49.0805 -49.0691 -49.0430 -49.0398 -49.0314 -49.0231 -49.0115
   -48.5886 -48.5767 -48.5681 -48.5543 -27.7785 -27.7635 -27.7493 -27.7358
   -27.7252 -27.7188 -27.7141 -27.7125 -27.7046 -27.6948 -27.6923 -27.6858
   -27.6757 -27.6549 -27.6518 -27.6160 -27.6094 -27.5726 -27.5682 -27.5359
   -27.5349 -27.5003 -27.4961 -27.4727 -27.2756 -27.2535 -27.2195 -27.1862
   -27.1544 -27.1476 -27.1435 -27.1427 -27.1291 -27.1089 -27.0723 -27.0489
   -19.6613  -7.6276  -4.1382  -4.0849  -2.7521  -2.0014  -1.6779  -1.3336
    -1.0443  -0.5484  -0.4491  -0.0389   0.0361   0.1774   0.4362   0.4593
     0.6134   0.6603   0.7230   0.7852   0.8760   0.9210   0.9803   1.0283
     1.0718   1.1770   1.1963   1.2232   1.2953   1.3315   1.3758

          k =-0.0777 0.0448 0.0000 ( 23032 PWs)   bands (ev):

   -49.0910 -49.0830 -49.0675 -49.0400 -49.0396 -49.0379 -49.0166 -49.0149
   -48.5867 -48.5811 -48.5643 -48.5556 -27.7815 -27.7614 -27.7563 -27.7347
   -27.7290 -27.7209 -27.7110 -27.7102 -27.7099 -27.7085 -27.6819 -27.6801
   -27.6668 -27.6443 -27.6237 -27.6087 -27.6065 -27.5937 -27.5824 -27.5798
   -27.5269 -27.4948 -27.4758 -27.4752 -27.2751 -27.2691 -27.1792 -27.1755
   -27.1558 -27.1538 -27.1512 -27.1479 -27.1416 -27.1290 -27.0554 -27.0490
   -19.6613  -7.6276  -4.1489  -4.0743  -2.5122  -2.4735  -1.4990  -1.4096
    -0.6261  -0.6098  -0.3412  -0.2572  -0.0597  -0.0534   0.6284   0.6316
     0.6470   0.6811   0.6979   0.7252   0.9360   0.9520   0.9718   1.0020
     1.0167   1.0635   1.1063   1.2660   1.2937   1.3543   1.3863

          k =-0.0777 0.0747 0.0000 ( 23012 PWs)   bands (ev):

   -49.0922 -49.0805 -49.0691 -49.0430 -49.0398 -49.0314 -49.0231 -49.0115
   -48.5886 -48.5768 -48.5680 -48.5543 -27.7784 -27.7635 -27.7492 -27.7359
   -27.7252 -27.7188 -27.7141 -27.7125 -27.7045 -27.6948 -27.6922 -27.6858
   -27.6758 -27.6549 -27.6518 -27.6160 -27.6093 -27.5726 -27.5682 -27.5359
   -27.5349 -27.5003 -27.4961 -27.4727 -27.2756 -27.2535 -27.2195 -27.1863
   -27.1544 -27.1477 -27.1434 -27.1426 -27.1291 -27.1089 -27.0723 -27.0489
   -19.6613  -7.6276  -4.1382  -4.0849  -2.7521  -2.0014  -1.6779  -1.3336
    -1.0443  -0.5484  -0.4491  -0.0389   0.0361   0.1775   0.4362   0.4593
     0.6134   0.6603   0.7230   0.7852   0.8760   0.9210   0.9803   1.0283
     1.0718   1.1770   1.1962   1.2232   1.2953   1.3315   1.3758

          k =-0.0777 0.1046 0.0000 ( 23012 PWs)   bands (ev):

   -49.0924 -49.0801 -49.0694 -49.0430 -49.0397 -49.0315 -49.0230 -49.0115
   -48.5885 -48.5772 -48.5676 -48.5544 -27.7786 -27.7636 -27.7494 -27.7357
   -27.7249 -27.7189 -27.7140 -27.7125 -27.7046 -27.6948 -27.6922 -27.6857
   -27.6757 -27.6551 -27.6518 -27.6160 -27.6092 -27.5726 -27.5683 -27.5361
   -27.5349 -27.5001 -27.4961 -27.4727 -27.2755 -27.2537 -27.2195 -27.1862
   -27.1542 -27.1483 -27.1435 -27.1422 -27.1292 -27.1089 -27.0722 -27.0490
   -19.6613  -7.6276  -4.1382  -4.0849  -2.7521  -2.0014  -1.6780  -1.3336
    -1.0443  -0.5485  -0.4490  -0.0389   0.0361   0.1774   0.4362   0.4592
     0.6134   0.6604   0.7229   0.7852   0.8760   0.9209   0.9803   1.0283
     1.0718   1.1769   1.1964   1.2231   1.2954   1.3315   1.3758

          k =-0.0777-0.0448 0.0000 ( 23032 PWs)   bands (ev):

   -49.0914 -49.0823 -49.0679 -49.0400 -49.0389 -49.0387 -49.0158 -49.0156
   -48.5860 -48.5821 -48.5636 -48.5560 -27.7818 -27.7613 -27.7566 -27.7343
   -27.7285 -27.7212 -27.7114 -27.7099 -27.7094 -27.7090 -27.6810 -27.6809
   -27.6663 -27.6443 -27.6241 -27.6077 -27.6074 -27.5936 -27.5814 -27.5808
   -27.5273 -27.4945 -27.4762 -27.4749 -27.2744 -27.2698 -27.1786 -27.1764
   -27.1551 -27.1532 -27.1518 -27.1487 -27.1409 -27.1291 -27.0547 -27.0496
   -19.6613  -7.6276  -4.1489  -4.0743  -2.5121  -2.4736  -1.4990  -1.4096
    -0.6262  -0.6098  -0.3412  -0.2571  -0.0596  -0.0535   0.6286   0.6314
     0.6469   0.6812   0.6979   0.7251   0.9360   0.9520   0.9715   1.0020
     1.0171   1.0635   1.1064   1.2659   1.2937   1.3543   1.3864

     the Fermi energy is     0.8863 ev

!    total energy              =   -1171.60037114 Ry
     Harris-Foulkes estimate   =   -1171.60037757 Ry
     estimated scf accuracy    <       0.00000233 Ry

     The total energy is the sum of the following terms:

     one-electron contribution =   -7475.64099595 Ry
     hartree contribution      =    3724.29718770 Ry
     xc contribution           =    -174.75611166 Ry
     ewald contribution        =    2754.63571782 Ry
     electric field correction =       0.00018020 Ry
     smearing contrib. (-TS)   =      -0.13634925 Ry

     convergence has been achieved in  11 iterations
 
 BEEF-vdW xc energy contributions
           1 :   -148.101023226276     
           2 :    130.209741792772     
           3 :   -102.326306892915     
           4 :    75.2144895556921     
           5 :   -56.4209542635923     
           6 :    47.2596918932914     
           7 :   -44.1320164253490     
           8 :    42.3128998119623     
           9 :   -39.1738697215438     
          10 :    34.9444040775510     
          11 :   -31.2697748316016     
          12 :    29.2402585236651     
          13 :   -28.4869409984379     
          14 :    27.7569744213462     
          15 :   -26.1612080405721     
          16 :    23.9036374261426     
          17 :   -21.9380269748158     
          18 :    20.9945375050422     
          19 :   -20.9209620229755     
          20 :    20.8936102392544     
          21 :   -20.2102682162878     
          22 :    18.8863787796126     
          23 :   -17.5493807276929     
          24 :    16.8076319501283     
          25 :   -16.7102243867025     
          26 :    16.7599149823342     
          27 :   -16.4090328402956     
          28 :    15.5510465414362     
          29 :   -14.5729232684276     
          30 :    13.9616630142396     
          31 :   -17.4547407843059     
          32 :   -12.4600337508255     

     Forces acting on atoms (Ry/au):


     negative rho (up, down):  2.836E-04 0.000E+00
     atom    1 type  1   force =    -0.00002641   -0.00000136    0.00128205
     atom    2 type  1   force =     0.00002692   -0.00058220    0.00148840
     atom    3 type  1   force =    -0.00050373    0.00029918    0.00154966
     atom    4 type  1   force =     0.00049411    0.00027010    0.00145598
     atom    5 type  1   force =    -0.00044406    0.00026265    0.00330144
     atom    6 type  1   force =     0.00044507    0.00025299    0.00332031
     atom    7 type  1   force =    -0.00002229   -0.00000643   -0.00522711
     atom    8 type  1   force =     0.00001402   -0.00052886    0.00330509
     atom    9 type  1   force =     0.01157773    0.00671184    0.02051829
     atom   10 type  1   force =    -0.01154057    0.00666229    0.02052540
     atom   11 type  1   force =    -0.00002358   -0.01334159    0.02053363
     atom   12 type  1   force =     0.00003551   -0.00000591   -0.01649962
     atom   13 type  2   force =    -0.00002671    0.00001040    0.04302151
     atom   14 type  3   force =    -0.00000600   -0.00000309   -0.09857504

     Total force =     0.116785     Total SCF correction =     0.001892


     entering subroutine stress ...


     negative rho (up, down):  2.836E-04 0.000E+00
          total   stress  (Ry/bohr**3)                   (kbar)     P=   -2.66
   0.00001119   0.00000000   0.00000001          1.65      0.00      0.00
   0.00000000   0.00001119  -0.00000001          0.00      1.65     -0.00
   0.00000001  -0.00000001  -0.00007668          0.00     -0.00    -11.28


     number of scf cycles    =   2
     number of bfgs steps    =   1

     energy   old            =   -1171.5962388008 Ry
     energy   new            =   -1171.6003711391 Ry

     CASE: energy  _new < energy  _old

     new trust radius        =       0.0560792472 bohr
     new conv_thr            =       0.0000001000 Ry


ATOMIC_POSITIONS (crystal)
Sc1      0.166666667   0.166666667   0.395942884    0   0   0
Sc1      0.666666667   0.166666667   0.395942884    0   0   0
Sc1      0.166666667   0.666666667   0.395942884    0   0   0
Sc1      0.666666667   0.666666667   0.395942884    0   0   0
Sc1      0.833333333   0.333333333   0.500000000    0   0   0
Sc1      0.333333333   0.333333333   0.500000000    0   0   0
Sc1      0.833333333   0.833333333   0.500000000    0   0   0
Sc1      0.333333333   0.833333333   0.500000000    0   0   0
Sc1      0.001598228   0.001593891   0.605045656
Sc1      0.496804678   0.001599510   0.605045603
Sc1      0.001600778   0.496806991   0.605046353
Sc1      0.499997137   0.500001398   0.603355677
O1       0.166664184   0.166665543   0.662352364
H1       0.166666455   0.166666447   0.702200168



     Writing output data file calc.save
     Check: negative starting charge=   -0.000364
     NEW-OLD atomic charge density approx. for the potential
     Check: negative starting charge=   -0.000365

     negative rho (up, down):  2.876E-04 0.000E+00
 
     Adding external electric field

     Computed dipole along edir(3) : 
        Dipole                0.2963 Ry au,          0.7531 Debye
        Dipole field          0.0006 Ry au
 
        Potential amp.       -0.0567 Ry
        Total length         46.5341 bohr
 

     total cpu time spent up to now is     1077.0 secs

     per-process dynamical memory:    98.3 Mb

     Self-consistent Calculation

     iteration #  1     ecut=    36.75 Ry     beta=0.30
     Davidson diagonalization with overlap
     ethr =  1.00E-06,  avg # of iterations =  5.7

     negative rho (up, down):  2.860E-04 0.000E+00
 
     Adding external electric field

     Computed dipole along edir(3) : 
        Dipole                0.4959 Ry au,          1.2604 Debye
        Dipole field          0.0010 Ry au
 
        Potential amp.       -0.0948 Ry
        Total length         46.5341 bohr
 

     total cpu time spent up to now is     1110.0 secs

     total energy              =   -1171.60479093 Ry
     Harris-Foulkes estimate   =   -1171.60682980 Ry
     estimated scf accuracy    <       0.00498718 Ry

     iteration #  2     ecut=    36.75 Ry     beta=0.30
     Davidson diagonalization with overlap
     ethr =  3.59E-06,  avg # of iterations =  9.3

     negative rho (up, down):  2.972E-04 0.000E+00
 
     Adding external electric field

     Computed dipole along edir(3) : 
        Dipole                0.2900 Ry au,          0.7371 Debye
        Dipole field          0.0006 Ry au
 
        Potential amp.       -0.0554 Ry
        Total length         46.5341 bohr
 

     total cpu time spent up to now is     1142.5 secs

     total energy              =   -1171.57506268 Ry
     Harris-Foulkes estimate   =   -1171.63969881 Ry
     estimated scf accuracy    <       3.41591799 Ry

     iteration #  3     ecut=    36.75 Ry     beta=0.30
     Davidson diagonalization with overlap
     ethr =  3.59E-06,  avg # of iterations =  9.0

     negative rho (up, down):  2.936E-04 0.000E+00
 
     Adding external electric field

     Computed dipole along edir(3) : 
        Dipole                0.2980 Ry au,          0.7574 Debye
        Dipole field          0.0006 Ry au
 
        Potential amp.       -0.0570 Ry
        Total length         46.5341 bohr
 

     total cpu time spent up to now is     1174.8 secs

     total energy              =   -1171.60616802 Ry
     Harris-Foulkes estimate   =   -1171.60747864 Ry
     estimated scf accuracy    <       0.01297480 Ry

     iteration #  4     ecut=    36.75 Ry     beta=0.30
[...]
   -27.1884 -27.1464 -27.1381 -27.1308 -27.1281 -27.1094 -27.0833 -27.0463
   -20.7662  -8.5595  -5.0633  -5.0196  -2.7538  -2.0006  -1.6694  -1.3301
    -1.0337  -0.5393  -0.4438  -0.0389   0.0365   0.1772   0.4342   0.4553
     0.5811   0.6581   0.7096   0.7745   0.8548   0.9139   0.9741   1.0297
     1.0641   1.1716   1.1995   1.2288   1.3045   1.3463   1.4140

          k = 0.0259-0.0747 0.0000 ( 23012 PWs)   bands (ev):

   -49.1238 -49.1110 -49.0994 -49.0518 -49.0365 -49.0266 -49.0148 -48.8772
   -48.6255 -48.5745 -48.5638 -48.5526 -27.8736 -27.7862 -27.7754 -27.7583
   -27.7343 -27.7243 -27.7197 -27.7071 -27.7049 -27.6967 -27.6901 -27.6792
   -27.6733 -27.6588 -27.6267 -27.6222 -27.5978 -27.5792 -27.5764 -27.5398
   -27.5016 -27.4776 -27.4432 -27.4094 -27.2946 -27.2560 -27.2286 -27.1908
   -27.1884 -27.1464 -27.1381 -27.1308 -27.1281 -27.1094 -27.0833 -27.0463
   -20.7662  -8.5595  -5.0633  -5.0196  -2.7538  -2.0006  -1.6694  -1.3301
    -1.0337  -0.5393  -0.4438  -0.0389   0.0365   0.1772   0.4342   0.4553
     0.5811   0.6581   0.7096   0.7745   0.8548   0.9139   0.9741   1.0297
     1.0641   1.1716   1.1994   1.2288   1.3045   1.3463   1.4141

          k = 0.0259-0.0448 0.0000 ( 23004 PWs)   bands (ev):

   -49.1301 -49.1051 -49.0993 -49.0599 -49.0313 -49.0225 -49.0158 -48.8769
   -48.6279 -48.5766 -48.5589 -48.5530 -27.9082 -27.8003 -27.7687 -27.7600
   -27.7563 -27.7533 -27.7452 -27.7351 -27.7284 -27.7256 -27.6991 -27.6883
   -27.6804 -27.6296 -27.5995 -27.5886 -27.5786 -27.5741 -27.5230 -27.5205
   -27.5063 -27.4575 -27.4248 -27.4002 -27.3211 -27.3017 -27.2658 -27.1907
   -27.1515 -27.1392 -27.1306 -27.1289 -27.1029 -27.0998 -27.0719 -27.0303
   -20.7677  -8.5673  -5.0514  -5.0196  -3.3280  -2.1997  -1.2183  -1.2069
    -0.9570  -0.5618  -0.5155  -0.2425  -0.0960   0.1448   0.1853   0.2295
     0.4626   0.5103   0.5503   0.7384   0.7691   0.8569   0.9263   1.0337
     1.2487   1.2555   1.3361   1.4057   1.4255   1.4803   1.6236

          k = 0.0518-0.0299 0.0000 ( 22962 PWs)   bands (ev):

   -49.1283 -49.1068 -49.0992 -49.0575 -49.0338 -49.0215 -49.0167 -48.8770
   -48.6271 -48.5764 -48.5596 -48.5533 -27.8983 -27.7971 -27.7703 -27.7590
   -27.7443 -27.7438 -27.7350 -27.7341 -27.7306 -27.7040 -27.6957 -27.6865
   -27.6813 -27.6320 -27.6231 -27.5992 -27.5672 -27.5644 -27.5624 -27.5275
   -27.5006 -27.4608 -27.4363 -27.3992 -27.3154 -27.2893 -27.2529 -27.1901
   -27.1519 -27.1390 -27.1322 -27.1303 -27.1288 -27.0922 -27.0822 -27.0321
   -20.7672  -8.5647  -5.0590  -5.0161  -3.1799  -2.0636  -1.6883  -0.8870
    -0.7932  -0.6129  -0.6116  -0.1825  -0.1685   0.0623   0.3497   0.3633
     0.5042   0.5597   0.5946   0.7795   0.7839   0.8388   0.9372   1.0440
     1.2261   1.2324   1.2681   1.3440   1.3449   1.4369   1.5563

          k = 0.0518 0.0000 0.0000 ( 23004 PWs)   bands (ev):

   -49.1301 -49.1051 -49.0993 -49.0599 -49.0313 -49.0225 -49.0158 -48.8769
   -48.6279 -48.5766 -48.5589 -48.5530 -27.9082 -27.8003 -27.7687 -27.7600
   -27.7563 -27.7533 -27.7452 -27.7351 -27.7284 -27.7256 -27.6991 -27.6883
   -27.6804 -27.6296 -27.5995 -27.5886 -27.5786 -27.5741 -27.5230 -27.5205
   -27.5063 -27.4575 -27.4248 -27.4002 -27.3211 -27.3017 -27.2658 -27.1907
   -27.1515 -27.1392 -27.1306 -27.1289 -27.1029 -27.0998 -27.0719 -27.0303
   -20.7677  -8.5673  -5.0514  -5.0195  -3.3280  -2.1997  -1.2183  -1.2069
    -0.9570  -0.5618  -0.5155  -0.2425  -0.0960   0.1448   0.1853   0.2295
     0.4625   0.5103   0.5503   0.7384   0.7692   0.8569   0.9263   1.0337
     1.2487   1.2555   1.3361   1.4057   1.4255   1.4803   1.6235

          k = 0.0518 0.0299 0.0000 ( 22962 PWs)   bands (ev):

   -49.1283 -49.1068 -49.0992 -49.0575 -49.0338 -49.0215 -49.0167 -48.8770
   -48.6271 -48.5764 -48.5596 -48.5533 -27.8983 -27.7971 -27.7703 -27.7590
   -27.7443 -27.7438 -27.7350 -27.7341 -27.7306 -27.7040 -27.6957 -27.6865
   -27.6813 -27.6320 -27.6231 -27.5992 -27.5672 -27.5644 -27.5624 -27.5275
   -27.5006 -27.4608 -27.4363 -27.3993 -27.3154 -27.2893 -27.2529 -27.1901
   -27.1519 -27.1390 -27.1323 -27.1303 -27.1288 -27.0922 -27.0822 -27.0321
   -20.7672  -8.5647  -5.0590  -5.0161  -3.1799  -2.0636  -1.6883  -0.8870
    -0.7932  -0.6129  -0.6116  -0.1824  -0.1685   0.0622   0.3497   0.3633
     0.5041   0.5597   0.5946   0.7795   0.7839   0.8388   0.9372   1.0441
     1.2261   1.2324   1.2681   1.3440   1.3450   1.4369   1.5562

          k = 0.0518-0.1196 0.0000 ( 23012 PWs)   bands (ev):

   -49.1238 -49.1110 -49.0994 -49.0518 -49.0365 -49.0266 -49.0148 -48.8772
   -48.6255 -48.5745 -48.5638 -48.5526 -27.8736 -27.7862 -27.7754 -27.7583
   -27.7342 -27.7243 -27.7197 -27.7071 -27.7049 -27.6967 -27.6901 -27.6792
   -27.6733 -27.6588 -27.6267 -27.6222 -27.5978 -27.5793 -27.5764 -27.5398
   -27.5016 -27.4776 -27.4432 -27.4095 -27.2946 -27.2559 -27.2286 -27.1908
   -27.1884 -27.1464 -27.1381 -27.1308 -27.1281 -27.1094 -27.0833 -27.0463
   -20.7662  -8.5595  -5.0633  -5.0196  -2.7538  -2.0006  -1.6694  -1.3301
    -1.0337  -0.5393  -0.4438  -0.0389   0.0365   0.1773   0.4342   0.4553
     0.5811   0.6581   0.7096   0.7745   0.8548   0.9139   0.9741   1.0297
     1.0642   1.1716   1.1994   1.2288   1.3045   1.3463   1.4141

          k = 0.0518-0.0897 0.0000 ( 23028 PWs)   bands (ev):

   -49.1195 -49.1149 -49.0996 -49.0480 -49.0340 -49.0340 -49.0136 -48.8773
   -48.6247 -48.5703 -48.5694 -48.5520 -27.8570 -27.7789 -27.7703 -27.7583
   -27.7470 -27.7192 -27.7067 -27.7036 -27.6956 -27.6806 -27.6766 -27.6751
   -27.6493 -27.6478 -27.6406 -27.6395 -27.6345 -27.5999 -27.5955 -27.5092
   -27.5085 -27.5045 -27.4314 -27.4274 -27.2598 -27.2575 -27.2026 -27.1999
   -27.1944 -27.1881 -27.1377 -27.1312 -27.1277 -27.0908 -27.0893 -27.0637
   -20.7657  -8.5569  -5.0603  -5.0262  -2.1340  -2.0942  -2.0812  -1.1668
    -1.1123  -1.0125  -0.0325   0.0270   0.1484   0.3246   0.3459   0.3538
     0.6340   0.7250   0.7446   0.8499   0.8696   0.9754   0.9802   1.0705
     1.0717   1.1104   1.1642   1.1699   1.2789   1.2862   1.3965

          k = 0.0518-0.0598 0.0000 ( 23012 PWs)   bands (ev):

   -49.1238 -49.1110 -49.0994 -49.0518 -49.0365 -49.0266 -49.0148 -48.8772
   -48.6255 -48.5745 -48.5638 -48.5526 -27.8736 -27.7862 -27.7754 -27.7583
   -27.7343 -27.7243 -27.7197 -27.7071 -27.7049 -27.6967 -27.6901 -27.6792
   -27.6733 -27.6588 -27.6267 -27.6222 -27.5978 -27.5793 -27.5764 -27.5398
   -27.5016 -27.4776 -27.4432 -27.4094 -27.2946 -27.2560 -27.2286 -27.1908
   -27.1884 -27.1464 -27.1381 -27.1308 -27.1281 -27.1094 -27.0833 -27.0463
   -20.7662  -8.5595  -5.0633  -5.0196  -2.7538  -2.0006  -1.6694  -1.3301
    -1.0337  -0.5393  -0.4438  -0.0389   0.0365   0.1772   0.4342   0.4553
     0.5811   0.6581   0.7096   0.7745   0.8548   0.9139   0.9741   1.0297
     1.0641   1.1716   1.1994   1.2288   1.3045   1.3463   1.4141

          k =-0.0777 0.0448 0.0000 ( 23032 PWs)   bands (ev):

   -49.1236 -49.1113 -49.0992 -49.0507 -49.0398 -49.0224 -49.0167 -48.8772
   -48.6255 -48.5754 -48.5623 -48.5533 -27.8756 -27.7882 -27.7760 -27.7581
   -27.7246 -27.7214 -27.7161 -27.7095 -27.7085 -27.7054 -27.6869 -27.6813
   -27.6730 -27.6543 -27.6216 -27.6096 -27.5966 -27.5861 -27.5829 -27.5618
   -27.4841 -27.4775 -27.4540 -27.4025 -27.3004 -27.2560 -27.2180 -27.1890
   -27.1716 -27.1485 -27.1480 -27.1384 -27.1284 -27.1277 -27.0738 -27.0411
   -20.7662  -8.5595  -5.0693  -5.0138  -2.5144  -2.4718  -1.4990  -1.3897
    -0.6238  -0.6047  -0.3279  -0.2586  -0.0657  -0.0505   0.5836   0.6247
     0.6556   0.6788   0.6951   0.7243   0.8925   0.9386   0.9764   0.9991
     1.0016   1.0739   1.0867   1.2441   1.3215   1.3883   1.4163

          k =-0.0777 0.0747 0.0000 ( 23012 PWs)   bands (ev):

   -49.1238 -49.1110 -49.0994 -49.0518 -49.0365 -49.0266 -49.0148 -48.8772
   -48.6255 -48.5745 -48.5638 -48.5526 -27.8736 -27.7862 -27.7754 -27.7583
   -27.7343 -27.7243 -27.7197 -27.7071 -27.7049 -27.6967 -27.6901 -27.6792
   -27.6733 -27.6588 -27.6267 -27.6222 -27.5978 -27.5793 -27.5764 -27.5398
   -27.5016 -27.4776 -27.4432 -27.4094 -27.2946 -27.2559 -27.2286 -27.1908
   -27.1884 -27.1464 -27.1381 -27.1308 -27.1281 -27.1094 -27.0833 -27.0463
   -20.7662  -8.5595  -5.0633  -5.0196  -2.7538  -2.0006  -1.6694  -1.3301
    -1.0337  -0.5393  -0.4438  -0.0389   0.0365   0.1772   0.4342   0.4553
     0.5811   0.6581   0.7096   0.7745   0.8548   0.9139   0.9741   1.0297
     1.0641   1.1716   1.1995   1.2288   1.3045   1.3463   1.4140

          k =-0.0777 0.1046 0.0000 ( 23012 PWs)   bands (ev):

   -49.1238 -49.1110 -49.0994 -49.0518 -49.0365 -49.0266 -49.0148 -48.8772
   -48.6255 -48.5745 -48.5638 -48.5526 -27.8736 -27.7862 -27.7754 -27.7583
   -27.7343 -27.7243 -27.7197 -27.7071 -27.7049 -27.6967 -27.6901 -27.6792
   -27.6733 -27.6588 -27.6267 -27.6222 -27.5978 -27.5793 -27.5764 -27.5398
   -27.5016 -27.4776 -27.4432 -27.4095 -27.2946 -27.2559 -27.2286 -27.1908
   -27.1884 -27.1464 -27.1381 -27.1308 -27.1281 -27.1094 -27.0833 -27.0463
   -20.7662  -8.5595  -5.0633  -5.0196  -2.7538  -2.0006  -1.6694  -1.3301
    -1.0337  -0.5393  -0.4438  -0.0389   0.0365   0.1773   0.4342   0.4553
     0.5811   0.6581   0.7096   0.7745   0.8548   0.9139   0.9741   1.0297
     1.0642   1.1716   1.1994   1.2288   1.3045   1.3463   1.4141

          k =-0.0777-0.0448 0.0000 ( 23032 PWs)   bands (ev):

   -49.1236 -49.1113 -49.0992 -49.0507 -49.0398 -49.0224 -49.0168 -48.8772
   -48.6255 -48.5754 -48.5623 -48.5533 -27.8756 -27.7882 -27.7760 -27.7581
   -27.7246 -27.7214 -27.7161 -27.7095 -27.7085 -27.7054 -27.6869 -27.6813
   -27.6730 -27.6544 -27.6215 -27.6096 -27.5966 -27.5861 -27.5830 -27.5618
   -27.4841 -27.4775 -27.4539 -27.4025 -27.3004 -27.2560 -27.2180 -27.1890
   -27.1716 -27.1485 -27.1480 -27.1384 -27.1284 -27.1277 -27.0738 -27.0411
   -20.7662  -8.5595  -5.0694  -5.0138  -2.5144  -2.4718  -1.4990  -1.3897
    -0.6238  -0.6047  -0.3280  -0.2586  -0.0657  -0.0505   0.5836   0.6248
     0.6556   0.6788   0.6951   0.7243   0.8926   0.9386   0.9764   0.9991
     1.0016   1.0739   1.0867   1.2441   1.3215   1.3883   1.4163

     the Fermi energy is     0.8808 ev

!    total energy              =   -1171.62423760 Ry
     Harris-Foulkes estimate   =   -1171.62423801 Ry
     estimated scf accuracy    <       0.00000009 Ry

     The total energy is the sum of the following terms:

     one-electron contribution =   -7509.58050114 Ry
     hartree contribution      =    3741.07247777 Ry
     xc contribution           =    -174.86462318 Ry
     ewald contribution        =    2771.88375104 Ry
     electric field correction =       0.00016830 Ry
     smearing contrib. (-TS)   =      -0.13551039 Ry

     convergence has been achieved in  13 iterations
 
 BEEF-vdW xc energy contributions
           1 :   -148.211828205409     
           2 :    130.352054032039     
           3 :   -102.490915370927     
           4 :    75.3589604029412     
           5 :   -56.5063408490893     
           6 :    47.2785869804183     
           7 :   -44.1085792939817     
           8 :    42.2795008423954     
           9 :   -39.1497847226651     
          10 :    34.9336146933753     
          11 :   -31.2677398354190     
          12 :    29.2369499582855     
          13 :   -28.4684650053265     
          14 :    27.7127377738865     
          15 :   -26.0936125819171     
          16 :    23.8283100682538     
          17 :   -21.8698354398401     
          18 :    20.9338685052341     
          19 :   -20.8566369332423     
          20 :    20.8173501994116     
          21 :   -20.1245274107313     
          22 :    18.7989396292216     
          23 :   -17.4639373801542     
          24 :    16.7208790430652     
          25 :   -16.6166810506230     
          26 :    16.6593961764949     
          27 :   -16.3106082821426     
          28 :    15.4686775457629     
          29 :   -14.5138071230726     
          30 :    13.9176472884702     
          31 :   -17.4609408485914     
          32 :   -12.4728865609487     

     Forces acting on atoms (Ry/au):


     negative rho (up, down):  2.719E-04 0.000E+00
     atom    1 type  1   force =    -0.00000965   -0.00000535    0.00253697
     atom    2 type  1   force =     0.00000419   -0.00151338    0.00131028
     atom    3 type  1   force =    -0.00130877    0.00076027    0.00130968
     atom    4 type  1   force =     0.00130505    0.00075333    0.00131577
     atom    5 type  1   force =     0.00200715   -0.00116483   -0.00065204
     atom    6 type  1   force =    -0.00201784   -0.00116433   -0.00064387
     atom    7 type  1   force =     0.00000504    0.00000246    0.00089319
     atom    8 type  1   force =    -0.00000565    0.00232101   -0.00065228
     atom    9 type  1   force =     0.00075525    0.00043720   -0.00127070
     atom   10 type  1   force =    -0.00073725    0.00042997   -0.00125507
     atom   11 type  1   force =     0.00000277   -0.00085575   -0.00125522
     atom   12 type  1   force =     0.00000468    0.00000113    0.00109214
     atom   13 type  2   force =    -0.00000863   -0.00000375   -0.00138009
     atom   14 type  3   force =     0.00000366    0.00000201   -0.00134878

     Total force =     0.003450     Total SCF correction =     0.000158


     entering subroutine stress ...


     negative rho (up, down):  2.719E-04 0.000E+00
          total   stress  (Ry/bohr**3)                   (kbar)     P=    1.72
   0.00002538  -0.00000000  -0.00000001          3.73     -0.00     -0.00
  -0.00000000   0.00002538  -0.00000000         -0.00      3.73     -0.00
  -0.00000001  -0.00000000  -0.00001571         -0.00     -0.00     -2.31


     bfgs converged in  16 scf cycles and  15 bfgs steps
     (criteria: energy <  1.0E+00, force <  1.9E-03)

     End of BFGS Geometry Optimization

     Final energy   =   -1171.6242375996 Ry
Begin final coordinates

ATOMIC_POSITIONS (crystal)
Sc1      0.166666667   0.166666667   0.395942884    0   0   0
Sc1      0.666666667   0.166666667   0.395942884    0   0   0
Sc1      0.166666667   0.666666667   0.395942884    0   0   0
Sc1      0.666666667   0.666666667   0.395942884    0   0   0
Sc1      0.833333333   0.333333333   0.500000000    0   0   0
Sc1      0.333333333   0.333333333   0.500000000    0   0   0
Sc1      0.833333333   0.833333333   0.500000000    0   0   0
Sc1      0.333333333   0.833333333   0.500000000    0   0   0
Sc1      0.000921480   0.000921865   0.607448621
Sc1      0.498189466   0.000929487   0.607449613
Sc1      0.000928202   0.498191334   0.607449494
Sc1      0.500009961   0.500012959   0.596420869
O1       0.166676573   0.166675065   0.655321277
H1       0.166657032   0.166656554   0.694007381
End final coordinates



     Writing output data file calc.save
 
     init_run     :     14.86s CPU     15.44s WALL (       1 calls)
     electrons    :   7106.34s CPU   7738.58s WALL (      16 calls)
     update_pot   :     55.31s CPU     60.14s WALL (      15 calls)
     forces       :    322.60s CPU    355.99s WALL (      16 calls)
     stress       :    978.88s CPU   1057.41s WALL (      16 calls)

     Called by init_run:
     wfcinit      :      6.00s CPU      6.10s WALL (       1 calls)
     potinit      :      2.38s CPU      2.65s WALL (       1 calls)

     Called by electrons:
     c_bands      :   2633.66s CPU   2909.41s WALL (     237 calls)
     sum_band     :   1523.15s CPU   1628.81s WALL (     237 calls)
     v_of_rho     :    457.53s CPU    516.33s WALL (     251 calls)
     newd         :   1574.72s CPU   1593.27s WALL (     251 calls)
     mix_rho      :     18.96s CPU     19.45s WALL (     237 calls)
     vdW_energy   :    214.83s CPU    237.06s WALL (     827 calls)
     vdW_ffts     :    548.57s CPU    577.60s WALL (    1686 calls)
     vdW_v        :    223.37s CPU    231.70s WALL (     827 calls)

     Called by c_bands:
     init_us_2    :     19.83s CPU     19.91s WALL (    2535 calls)
     cegterg      :   2319.62s CPU   2387.27s WALL (    1185 calls)

     Called by *egterg:
     h_psi        :   1559.23s CPU   1596.09s WALL (    7506 calls)
     s_psi        :    150.22s CPU    150.56s WALL (    7506 calls)
     g_psi        :      9.24s CPU      9.27s WALL (    6316 calls)
     cdiaghg      :    197.86s CPU    199.29s WALL (    7416 calls)

     Called by h_psi:
     add_vuspsi   :    154.53s CPU    154.90s WALL (    7506 calls)

     General routines
     calbec       :    229.36s CPU    234.83s WALL (    8851 calls)
     fft          :    846.61s CPU    927.18s WALL (   50237 calls)
     ffts         :      1.05s CPU      1.17s WALL (     488 calls)
     fftw         :    907.89s CPU    945.28s WALL (  588429 calls)
     interpolate  :     11.91s CPU     12.33s WALL (     488 calls)
     davcio       :      0.00s CPU      0.03s WALL (       5 calls)
 
     Parallel routines
     fft_scatter  :   1040.17s CPU   1154.33s WALL (  639154 calls)
 
     PWSCF        :     2h22m CPU        2h35m WALL

 
   This run was terminated on:  23:13:45  22Apr2018            

=------------------------------------------------------------------------------=
   JOB DONE.
=------------------------------------------------------------------------------=
Job  /afs/slac/g/suncat/bin/suncat-tsmpirun -x LD_LIBRARY_PATH -wdir /scratch/qe314703_bIDKt pw.x -npool 4 -in pw.inp

TID   HOST_NAME   COMMAND_LINE            STATUS            TERMINATION_TIME
===== ========== ================  =======================  ===================
00000 suncat0191 pw.x -npool 4 -i  Done                     04/22/2018 23:13:45
00001 suncat0191 pw.x -npool 4 -i  Done                     04/22/2018 23:13:45
00002 suncat0191 pw.x -npool 4 -i  Done                     04/22/2018 23:13:45
00003 suncat0191 pw.x -npool 4 -i  Done                     04/22/2018 23:13:45
00004 suncat0191 pw.x -npool 4 -i  Done                     04/22/2018 23:13:45
00005 suncat0191 pw.x -npool 4 -i  Done                     04/22/2018 23:13:45
00006 suncat0191 pw.x -npool 4 -i  Done                     04/22/2018 23:13:45
00007 suncat0191 pw.x -npool 4 -i  Done                     04/22/2018 23:13:45
00008 suncat0175 pw.x -npool 4 -i  Done                     04/22/2018 23:13:45
00009 suncat0175 pw.x -npool 4 -i  Done                     04/22/2018 23:13:45
00010 suncat0175 pw.x -npool 4 -i  Done                     04/22/2018 23:13:45
00011 suncat0175 pw.x -npool 4 -i  Done                     04/22/2018 23:13:45
00012 suncat0175 pw.x -npool 4 -i  Done                     04/22/2018 23:13:45
00013 suncat0175 pw.x -npool 4 -i  Done                     04/22/2018 23:13:45
00014 suncat0175 pw.x -npool 4 -i  Done                     04/22/2018 23:13:45
00015 suncat0175 pw.x -npool 4 -i  Done                     04/22/2018 23:13:45
00016 suncat0174 pw.x -npool 4 -i  Done                     04/22/2018 23:13:45
00017 suncat0174 pw.x -npool 4 -i  Done                     04/22/2018 23:13:45
00018 suncat0174 pw.x -npool 4 -i  Done                     04/22/2018 23:13:45
00019 suncat0174 pw.x -npool 4 -i  Done                     04/22/2018 23:13:45
00020 suncat0174 pw.x -npool 4 -i  Done                     04/22/2018 23:13:45
00021 suncat0174 pw.x -npool 4 -i  Done                     04/22/2018 23:13:45
00022 suncat0174 pw.x -npool 4 -i  Done                     04/22/2018 23:13:45
00023 suncat0174 pw.x -npool 4 -i  Done                     04/22/2018 23:13:45
00024 suncat0159 pw.x -npool 4 -i  Done                     04/22/2018 23:13:45
00025 suncat0159 pw.x -npool 4 -i  Done                     04/22/2018 23:13:45
00026 suncat0159 pw.x -npool 4 -i  Done                     04/22/2018 23:13:45
00027 suncat0159 pw.x -npool 4 -i  Done                     04/22/2018 23:13:45
00028 suncat0159 pw.x -npool 4 -i  Done                     04/22/2018 23:13:45
00029 suncat0159 pw.x -npool 4 -i  Done                     04/22/2018 23:13:45
00030 suncat0159 pw.x -npool 4 -i  Done                     04/22/2018 23:13:45
00031 suncat0159 pw.x -npool 4 -i  Done                     04/22/2018 23:13:45
