  python dir          : /nfs/slac/g/suncatfs/sw/espv20/lib/python2.7/site-packages/espresso
  espresso dir        : /nfs/slac/g/suncatfs/sw/espv18/espresso-dynpy-beef/bin
  pseudo dir          : /afs/slac.stanford.edu/u/if/mamunm/psp/gbrv1.5pbe
  ase-espresso py git : ffa2778-git



     Program PWSCF v.5.1rc2 (svn rev. 11289) starts on 18Jan2018 at  2:55:31 

     This program is part of the open-source Quantum ESPRESSO suite
     for quantum simulation of materials; please cite
         "P. Giannozzi et al., J. Phys.:Condens. Matter 21 395502 (2009);
          URL http://www.quantum-espresso.org", 
     in publications or presentations arising from this work. More details at
     http://www.quantum-espresso.org/quote

     Parallel version (MPI), running on    32 processors
     R & G space division:  proc/nbgrp/npool/nimage =      32
     Reading input from pw.inp
     Message from routine read_cards :
     DEPRECATED: no units specified in CELL_PARAMETERS card

     Current dimensions of program PWSCF are:
     Max number of different atomic species (ntypx) = 10
     Max number of k-points (npk) =  40000
     Max angular momentum in pseudopotentials (lmaxx) =  3
     Presently stress not available with electric field


     **************************************************************************
     Initializing libbeef V0.1.1 with the BEEF-vdW functional.
     Citation: Wellendorff et al., PRB 85, 235149 (2012).
     **************************************************************************


     IMPORTANT: XC functional enforced from input :
     Exchange-correlation      = BEEF-VDW ( 1  4 27 13 2)
     Any further DFT definition will be discarded
     Please, verify this is what you really want


     Subspace diagonalization in iterative solution of the eigenvalue problem:
     a serial algorithm will be used

 
     Parallelization info
     --------------------
     sticks:   dense  smooth     PW     G-vecs:    dense   smooth      PW
     Min          83      33      9                15713     3963     619
     Max          84      34     10                15736     4002     646
     Sum        2677    1069    313               503261   127391   20329
 


     bravais-lattice index     =            0
     lattice parameter (alat)  =       1.8897  a.u.
     unit-cell volume          =    4228.3700 (a.u.)^3
     number of atoms/cell      =           13
     number of atomic types    =            2
     number of electrons       =       196.00
     number of Kohn-Sham states=          108
     kinetic-energy cutoff     =      36.7493  Ry
     charge density cutoff     =     367.4932  Ry
     convergence threshold     =      1.0E-05
     mixing beta               =       0.3000
     number of iterations used =           10  plain     mixing
     Exchange-correlation      = BEEF-VDW ( 1  4 27 13 2)
     nstep                     =           50


     celldm(1)=   1.889726  celldm(2)=   0.000000  celldm(3)=   0.000000
     celldm(4)=   0.000000  celldm(5)=   0.000000  celldm(6)=   0.000000

     crystal axes: (cart. coord. in units of alat)
               a(1) = (   5.440665   0.000000   0.000000 )  
               a(2) = (   2.720332   4.711754   0.000000 )  
               a(3) = (   0.000000   0.000000  24.442284 )  

     reciprocal axes: (cart. coord. in units 2 pi/alat)
               b(1) = (  0.183801 -0.106118  0.000000 )  
               b(2) = (  0.000000  0.212235  0.000000 )  
               b(3) = (  0.000000  0.000000  0.040913 )  


     PseudoPot. # 1 for Os read from file:
     /afs/slac.stanford.edu/u/if/mamunm/psp/gbrv1.5pbe/Os.UPF
     MD5 check sum: a3fb40a04f0c37c25c34bbc47164c9a8
     Pseudo is Ultrasoft + core correction, Zval = 16.0
     Generated by new atomic code, or converted to UPF format
     Using radial grid of  983 points,  8 beta functions with: 
                l(1) =   0
                l(2) =   0
                l(3) =   1
                l(4) =   1
                l(5) =   2
                l(6) =   2
                l(7) =   3
                l(8) =   3
     Q(r) pseudized with  8 coefficients,  rinner =    1.150   1.150   1.150
                                                       1.150   1.150   1.150
                                                       1.150

     PseudoPot. # 2 for C  read from file:
     /afs/slac.stanford.edu/u/if/mamunm/psp/gbrv1.5pbe/C.UPF
     MD5 check sum: d1aef80898a10debaa0f26306b886e00
     Pseudo is Ultrasoft + core correction, Zval =  4.0
     Generated by new atomic code, or converted to UPF format
     Using radial grid of  721 points,  4 beta functions with: 
                l(1) =   0
                l(2) =   0
                l(3) =   1
                l(4) =   1
     Q(r) pseudized with  8 coefficients,  rinner =    1.100   1.100   1.100


     vdW kernel table read from file vdW_kernel_table
     MD5 check sum: 095c7af220d748ca6e76c0b4c6cfb241

     atomic species   valence    mass     pseudopotential
        Os1           16.00   190.23000     Os( 1.00)
        C1             4.00    12.01100     C ( 1.00)

     No symmetry found



   Cartesian axes

     site n.     atom                  positions (alat units)
         1           Os1 tau(   1) = (   1.3601662   0.7852923  10.0000000  )
         2           Os1 tau(   2) = (   4.0804987   0.7852923  10.0000000  )
         3           Os1 tau(   3) = (   2.7203325   3.1411694  10.0000000  )
         4           Os1 tau(   4) = (   5.4406649   3.1411694  10.0000000  )
         5           Os1 tau(   5) = (   5.4406649   1.5705847  12.2211422  )
         6           Os1 tau(   6) = (   2.7203325   1.5705847  12.2211422  )
         7           Os1 tau(   7) = (   6.8008312   3.9264617  12.2211422  )
         8           Os1 tau(   8) = (   4.0804987   3.9264617  12.2211422  )
         9           Os1 tau(   9) = (   0.0000000   0.0000000  14.4422843  )
        10           Os1 tau(  10) = (   2.7203325   0.0000000  14.4422843  )
        11           Os1 tau(  11) = (   1.3601662   2.3558770  14.4422843  )
        12           Os1 tau(  12) = (   4.0804987   2.3558770  14.4422843  )
        13           C1  tau(  13) = (   1.3601662   0.0000000  16.6422843  )

     number of k points=    20  Fermi-Dirac smearing, width (Ry)=  0.0110
                       cart. coord. in units 2pi/alat
        k(    1) = (   0.0000000   0.0000000   0.0000000), wk =   0.0555556
        k(    2) = (   0.0000000   0.0353725   0.0000000), wk =   0.1111111
        k(    3) = (   0.0000000   0.0707451   0.0000000), wk =   0.1111111
        k(    4) = (   0.0000000  -0.1061176   0.0000000), wk =   0.0555556
        k(    5) = (   0.0306335  -0.0176863   0.0000000), wk =   0.1111111
        k(    6) = (   0.0306335   0.0176863   0.0000000), wk =   0.1111111
        k(    7) = (   0.0306335   0.0530588   0.0000000), wk =   0.1111111
        k(    8) = (   0.0306335  -0.1238039   0.0000000), wk =   0.1111111
        k(    9) = (   0.0306335  -0.0884313   0.0000000), wk =   0.1111111
        k(   10) = (   0.0306335  -0.0530588   0.0000000), wk =   0.1111111
        k(   11) = (   0.0612670  -0.0353725   0.0000000), wk =   0.1111111
        k(   12) = (   0.0612670   0.0000000   0.0000000), wk =   0.1111111
        k(   13) = (   0.0612670   0.0353725   0.0000000), wk =   0.1111111
        k(   14) = (   0.0612670  -0.1414901   0.0000000), wk =   0.1111111
        k(   15) = (   0.0612670  -0.1061176   0.0000000), wk =   0.1111111
        k(   16) = (   0.0612670  -0.0707451   0.0000000), wk =   0.1111111
        k(   17) = (  -0.0919005   0.0530588   0.0000000), wk =   0.0555556
        k(   18) = (  -0.0919005   0.0884313   0.0000000), wk =   0.1111111
        k(   19) = (  -0.0919005   0.1238039   0.0000000), wk =   0.1111111
        k(   20) = (  -0.0919005  -0.0530588   0.0000000), wk =   0.0555556

     Dense  grid:   503261 G-vectors     FFT dimensions: (  64,  64, 288)

     Smooth grid:   127391 G-vectors     FFT dimensions: (  40,  40, 180)

     Largest allocated arrays     est. size (Mb)     dimensions
        Kohn-Sham Wavefunctions         0.88 Mb     (     531,  108)
        NL pseudopotentials             3.18 Mb     (     531,  392)
        Each V/rho on FFT grid          0.56 Mb     (   36864)
        Each G-vector array             0.12 Mb     (   15717)
        G-vector shells                 0.05 Mb     (    7001)
     Largest temporary arrays     est. size (Mb)     dimensions
        Auxiliary wavefunctions         3.50 Mb     (     531,  432)
        Each subspace H/S matrix        2.85 Mb     (     432,  432)
        Each <psi_i|beta_j> matrix      0.65 Mb     (     392,  108)
        Arrays for rho mixing           5.62 Mb     (   36864,   10)

     Initial potential from superposition of free atoms
     Check: negative starting charge=   -1.495766

     starting charge  189.99952, renormalised to  196.00000

     negative rho (up, down):  1.543E+00 0.000E+00


     ************************************************************************
     *
     * You are using vdW-DF for exchange-correlation in this calculation.
     * Please cite the following three references that made this development
     * possible:
     *
     *   M. Dion, H. Rydberg, E. Schroder, D. C. Langreth, and
     *   B. I. Lundqvist, Phys. Rev. Lett. 92, 246401 (2004).
     *
     *   T. Thonhauser, V. R. Cooper, S. Li, A. Puzder, P. Hyldgaard, and
     *   D. C. Langreth, Phys. Rev. B 76, 125112 (2007).
     *
     *   G. Roman-Perez and J. M. Soler, Phys. Rev. Lett. 103, 096102 (2009).
     *
     *
     * If you are using vdW-DF2, please also cite:
     *
     *   K. Lee, E. D. Murray, L. Kong, B. I. Lundqvist, and
     *   D. C. Langreth, Phys. Rev. B 82, 081101(R) (2010).
     *
     *
     * If you are calculating the stress with vdW-DF, please also cite:
     *
     *   R. Sabatini, E. Kucukbenli, B. Kolb, T. Thonhauser, and
     *   S. de Gironcoli, J. Phys.: Condens. Matter 24, 424209 (2012).
     *
     ************************************************************************

     Carrying out vdW-DF run using the following parameters:

     Nqs =      20    Nr_points =    1024   r_max =   100.000
     q_mesh =
               0.00001000     0.04494208     0.09755937     0.15916263
               0.23128650     0.31572767     0.41458969     0.53033537
               0.66584808     0.82450364     1.01025438     1.22772762
               1.48234092     1.78043706     2.12944203     2.53805004
               3.01644009     3.57652955     4.23227104     5.00000000

     Gradients computed in reciprocal space

     ************************************************************************


 
     Adding external electric field

     Computed dipole along edir(3) : 
        Dipole               -1.0551 Ry au,         -2.6817 Debye
        Dipole field         -0.0031 Ry au
 
        Potential amp.        0.2824 Ry
        Total length         45.0345 bohr
 
     Starting wfc are  160 randomized atomic wfcs

     total cpu time spent up to now is        7.2 secs

     Self-consistent Calculation

     iteration #  1     ecut=    36.75 Ry     beta=0.30
     Davidson diagonalization with overlap
     ethr =  1.00E-02,  avg # of iterations =  2.0

     negative rho (up, down):  1.541E+00 0.000E+00
 
     Adding external electric field

     Computed dipole along edir(3) : 
        Dipole               14.8332 Ry au,         37.7022 Debye
        Dipole field          0.0441 Ry au
 
        Potential amp.       -3.9705 Ry
        Total length         45.0345 bohr
 

     total cpu time spent up to now is       21.4 secs

     total energy              =   -2392.68528117 Ry
     Harris-Foulkes estimate   =   -2408.98115356 Ry
     estimated scf accuracy    <      33.86433683 Ry

     iteration #  2     ecut=    36.75 Ry     beta=0.30
     Davidson diagonalization with overlap
     ethr =  1.00E-02,  avg # of iterations = 11.2

     negative rho (up, down):  1.546E+00 0.000E+00
 
     Adding external electric field

     Computed dipole along edir(3) : 
        Dipole               -2.1046 Ry au,         -5.3493 Debye
        Dipole field         -0.0063 Ry au
 
        Potential amp.        0.5633 Ry
        Total length         45.0345 bohr
 

     total cpu time spent up to now is       55.4 secs

     total energy              =   -2351.93818664 Ry
     Harris-Foulkes estimate   =   -2541.03465174 Ry
     estimated scf accuracy    <    5085.78444714 Ry

     iteration #  3     ecut=    36.75 Ry     beta=0.30
     Davidson diagonalization with overlap
     ethr =  1.00E-02,  avg # of iterations =  8.4

     negative rho (up, down):  1.539E+00 0.000E+00
 
     Adding external electric field

     Computed dipole along edir(3) : 
        Dipole               -1.7769 Ry au,         -4.5165 Debye
        Dipole field         -0.0053 Ry au
 
        Potential amp.        0.4756 Ry
        Total length         45.0345 bohr
 

     total cpu time spent up to now is       87.6 secs

     total energy              =   -2399.21911884 Ry
     Harris-Foulkes estimate   =   -2428.40283579 Ry
     estimated scf accuracy    <     712.40401863 Ry

     iteration #  4     ecut=    36.75 Ry     beta=0.30
     Davidson diagonalization with overlap
     ethr =  1.00E-02,  avg # of iterations =  5.4

     negative rho (up, down):  1.537E+00 0.000E+00
 
     Adding external electric field

     Computed dipole along edir(3) : 
        Dipole               -0.9753 Ry au,         -2.4790 Debye
        Dipole field         -0.0029 Ry au
 
        Potential amp.        0.2611 Ry
        Total length         45.0345 bohr
 

     total cpu time spent up to now is      109.0 secs

     total energy              =   -2408.04781598 Ry
     Harris-Foulkes estimate   =   -2409.34983217 Ry
     estimated scf accuracy    <      20.63191511 Ry

     iteration #  5     ecut=    36.75 Ry     beta=0.30
     Davidson diagonalization with overlap
     ethr =  1.00E-02,  avg # of iterations =  1.0

     negative rho (up, down):  1.533E+00 0.000E+00
 
     Adding external electric field

     Computed dipole along edir(3) : 
        Dipole               -1.0916 Ry au,         -2.7746 Debye
        Dipole field         -0.0032 Ry au
 
        Potential amp.        0.2922 Ry
        Total length         45.0345 bohr
 

     total cpu time spent up to now is      120.3 secs

     total energy              =   -2408.31051462 Ry
     Harris-Foulkes estimate   =   -2408.55736930 Ry
     estimated scf accuracy    <       1.28048400 Ry

     iteration #  6     ecut=    36.75 Ry     beta=0.30
     Davidson diagonalization with overlap
     ethr =  6.53E-04,  avg # of iterations =  5.0

     negative rho (up, down):  1.526E+00 0.000E+00
 
     Adding external electric field

     Computed dipole along edir(3) : 
        Dipole               -1.0891 Ry au,         -2.7683 Debye
        Dipole field         -0.0032 Ry au
 
        Potential amp.        0.2915 Ry
        Total length         45.0345 bohr
 

     total cpu time spent up to now is      139.3 secs

     total energy              =   -2408.47685480 Ry
     Harris-Foulkes estimate   =   -2408.62614362 Ry
     estimated scf accuracy    <       3.38291453 Ry

     iteration #  7     ecut=    36.75 Ry     beta=0.30
     Davidson diagonalization with overlap
     ethr =  6.53E-04,  avg # of iterations =  1.4

     negative rho (up, down):  1.523E+00 0.000E+00
 
     Adding external electric field

     Computed dipole along edir(3) : 
        Dipole               -1.1090 Ry au,         -2.8187 Debye
        Dipole field         -0.0033 Ry au
 
        Potential amp.        0.2968 Ry
        Total length         45.0345 bohr
 

     total cpu time spent up to now is      150.9 secs

     total energy              =   -2408.51747019 Ry
     Harris-Foulkes estimate   =   -2408.53763599 Ry
     estimated scf accuracy    <       0.51427535 Ry

     iteration #  8     ecut=    36.75 Ry     beta=0.30
     Davidson diagonalization with overlap
     ethr =  2.62E-04,  avg # of iterations =  4.8

     negative rho (up, down):  1.520E+00 0.000E+00
 
     Adding external electric field

     Computed dipole along edir(3) : 
        Dipole               -1.0239 Ry au,         -2.6024 Debye
        Dipole field         -0.0030 Ry au
 
        Potential amp.        0.2741 Ry
        Total length         45.0345 bohr
 

     total cpu time spent up to now is      166.1 secs

     total energy              =   -2408.53713230 Ry
     Harris-Foulkes estimate   =   -2408.54141695 Ry
     estimated scf accuracy    <       0.06902672 Ry

     iteration #  9     ecut=    36.75 Ry     beta=0.30
     Davidson diagonalization with overlap
     ethr =  3.52E-05,  avg # of iterations =  5.8

     negative rho (up, down):  1.518E+00 0.000E+00
 
     Adding external electric field

     Computed dipole along edir(3) : 
        Dipole               -0.9692 Ry au,         -2.4633 Debye
        Dipole field         -0.0029 Ry au
 
        Potential amp.        0.2594 Ry
        Total length         45.0345 bohr
 

     total cpu time spent up to now is      184.5 secs

     total energy              =   -2408.54018769 Ry
     Harris-Foulkes estimate   =   -2408.54464499 Ry
     estimated scf accuracy    <       0.12183009 Ry

     iteration # 10     ecut=    36.75 Ry     beta=0.30
     Davidson diagonalization with overlap
     ethr =  3.52E-05,  avg # of iterations =  1.1

     negative rho (up, down):  1.516E+00 0.000E+00
 
     Adding external electric field

     Computed dipole along edir(3) : 
        Dipole               -0.8634 Ry au,         -2.1945 Debye
        Dipole field         -0.0026 Ry au
 
        Potential amp.        0.2311 Ry
        Total length         45.0345 bohr
 

     total cpu time spent up to now is      196.3 secs

     total energy              =   -2408.53785739 Ry
     Harris-Foulkes estimate   =   -2408.54192975 Ry
     estimated scf accuracy    <       0.06296887 Ry

     iteration # 11     ecut=    36.75 Ry     beta=0.30
     Davidson diagonalization with overlap
     ethr =  3.21E-05,  avg # of iterations =  1.0

     negative rho (up, down):  1.515E+00 0.000E+00
 
     Adding external electric field

     Computed dipole along edir(3) : 
        Dipole               -0.8039 Ry au,         -2.0434 Debye
        Dipole field         -0.0024 Ry au
 
        Potential amp.        0.2152 Ry
        Total length         45.0345 bohr
 

     total cpu time spent up to now is      207.8 secs

     total energy              =   -2408.53784410 Ry
     Harris-Foulkes estimate   =   -2408.53904070 Ry
     estimated scf accuracy    <       0.01513898 Ry

     iteration # 12     ecut=    36.75 Ry     beta=0.30
     Davidson diagonalization with overlap
     ethr =  7.72E-06,  avg # of iterations =  3.0

     negative rho (up, down):  1.514E+00 0.000E+00
 
     Adding external electric field

     Computed dipole along edir(3) : 
        Dipole               -0.7158 Ry au,         -1.8195 Debye
        Dipole field         -0.0021 Ry au
 
        Potential amp.        0.1916 Ry
        Total length         45.0345 bohr
 

     total cpu time spent up to now is      221.1 secs

     total energy              =   -2408.53704410 Ry
     Harris-Foulkes estimate   =   -2408.53849995 Ry
     estimated scf accuracy    <       0.01231912 Ry

     iteration # 13     ecut=    36.75 Ry     beta=0.30
     Davidson diagonalization with overlap
     ethr =  6.29E-06,  avg # of iterations =  1.0

     negative rho (up, down):  1.512E+00 0.000E+00
 
     Adding external electric field

     Computed dipole along edir(3) : 
        Dipole               -0.3314 Ry au,         -0.8424 Debye
        Dipole field         -0.0010 Ry au
 
        Potential amp.        0.0887 Ry
        Total length         45.0345 bohr
 

     total cpu time spent up to now is      232.5 secs

     total energy              =   -2408.53496713 Ry
     Harris-Foulkes estimate   =   -2408.53834477 Ry
     estimated scf accuracy    <       0.00910963 Ry

     iteration # 14     ecut=    36.75 Ry     beta=0.30
     Davidson diagonalization with overlap
     ethr =  4.65E-06,  avg # of iterations =  4.0

     negative rho (up, down):  1.513E+00 0.000E+00
 
     Adding external electric field

     Computed dipole along edir(3) : 
        Dipole               -0.2942 Ry au,         -0.7477 Debye
        Dipole field         -0.0009 Ry au
 
        Potential amp.        0.0787 Ry
        Total length         45.0345 bohr
 

     total cpu time spent up to now is      247.4 secs

     total energy              =   -2408.53547693 Ry
     Harris-Foulkes estimate   =   -2408.53566266 Ry
     estimated scf accuracy    <       0.00137526 Ry

     iteration # 15     ecut=    36.75 Ry     beta=0.30
     Davidson diagonalization with overlap
     ethr =  7.02E-07,  avg # of iterations =  4.2

     negative rho (up, down):  1.513E+00 0.000E+00
 
     Adding external electric field

     Computed dipole along edir(3) : 
        Dipole               -0.2453 Ry au,         -0.6235 Debye
        Dipole field         -0.0007 Ry au
 
        Potential amp.        0.0657 Ry
        Total length         45.0345 bohr
 

     total cpu time spent up to now is      262.5 secs

     total energy              =   -2408.53566255 Ry
     Harris-Foulkes estimate   =   -2408.53574132 Ry
     estimated scf accuracy    <       0.00074820 Ry

     iteration # 16     ecut=    36.75 Ry     beta=0.30
     Davidson diagonalization with overlap
     ethr =  3.82E-07,  avg # of iterations =  2.3

     negative rho (up, down):  1.514E+00 0.000E+00
 
     Adding external electric field

     Computed dipole along edir(3) : 
        Dipole               -0.2357 Ry au,         -0.5992 Debye
        Dipole field         -0.0007 Ry au
 
        Potential amp.        0.0631 Ry
        Total length         45.0345 bohr
 

     total cpu time spent up to now is      275.2 secs

     total energy              =   -2408.53569324 Ry
     Harris-Foulkes estimate   =   -2408.53573448 Ry
     estimated scf accuracy    <       0.00032532 Ry

     iteration # 17     ecut=    36.75 Ry     beta=0.30
     Davidson diagonalization with overlap
     ethr =  1.66E-07,  avg # of iterations =  1.9

     negative rho (up, down):  1.515E+00 0.000E+00
 
     Adding external electric field

     Computed dipole along edir(3) : 
        Dipole               -0.2226 Ry au,         -0.5657 Debye
        Dipole field         -0.0007 Ry au
 
        Potential amp.        0.0596 Ry
        Total length         45.0345 bohr
 

     total cpu time spent up to now is      287.6 secs

     total energy              =   -2408.53571180 Ry
     Harris-Foulkes estimate   =   -2408.53573634 Ry
     estimated scf accuracy    <       0.00010843 Ry

     iteration # 18     ecut=    36.75 Ry     beta=0.30
     Davidson diagonalization with overlap
     ethr =  5.53E-08,  avg # of iterations =  4.0

     negative rho (up, down):  1.515E+00 0.000E+00
 
     Adding external electric field

     Computed dipole along edir(3) : 
        Dipole               -0.2204 Ry au,         -0.5603 Debye
        Dipole field         -0.0007 Ry au
 
        Potential amp.        0.0590 Ry
        Total length         45.0345 bohr
 

     total cpu time spent up to now is      301.9 secs

     total energy              =   -2408.53571711 Ry
     Harris-Foulkes estimate   =   -2408.53572176 Ry
     estimated scf accuracy    <       0.00002026 Ry

     iteration # 19     ecut=    36.75 Ry     beta=0.30
     Davidson diagonalization with overlap
     ethr =  1.03E-08,  avg # of iterations =  4.5

     negative rho (up, down):  1.515E+00 0.000E+00
 
     Adding external electric field

     Computed dipole along edir(3) : 
        Dipole               -0.2191 Ry au,         -0.5568 Debye
        Dipole field         -0.0007 Ry au
 
        Potential amp.        0.0586 Ry
        Total length         45.0345 bohr
 

     total cpu time spent up to now is      318.4 secs

     total energy              =   -2408.53571814 Ry
     Harris-Foulkes estimate   =   -2408.53572316 Ry
     estimated scf accuracy    <       0.00004948 Ry

     iteration # 20     ecut=    36.75 Ry     beta=0.30
     Davidson diagonalization with overlap
     ethr =  1.03E-08,  avg # of iterations =  3.6

     negative rho (up, down):  1.515E+00 0.000E+00

     negative rho (up, down):  1.515E+00 0.000E+00

     negative rho (up, down):  1.515E+00 0.000E+00

     negative rho (up, down):  1.515E+00 0.000E+00

     negative rho (up, down):  1.515E+00 0.000E+00

     negative rho (up, down):  1.515E+00 0.000E+00

     negative rho (up, down):  1.515E+00 0.000E+00

     negative rho (up, down):  1.515E+00 0.000E+00

     negative rho (up, down):  1.515E+00 0.000E+00

     negative rho (up, down):  1.515E+00 0.000E+00

     negative rho (up, down):  1.515E+00 0.000E+00

     negative rho (up, down):  1.515E+00 0.000E+00

     negative rho (up, down):  1.515E+00 0.000E+00

     negative rho (up, down):  1.515E+00 0.000E+00

     negative rho (up, down):  1.515E+00 0.000E+00

     negative rho (up, down):  1.515E+00 0.000E+00

     negative rho (up, down):  1.515E+00 0.000E+00

     negative rho (up, down):  1.515E+00 0.000E+00

     negative rho (up, down):  1.515E+00 0.000E+00

     negative rho (up, down):  1.515E+00 0.000E+00

     negative rho (up, down):  1.515E+00 0.000E+00

     negative rho (up, down):  1.515E+00 0.000E+00

     negative rho (up, down):  1.515E+00 0.000E+00

     negative rho (up, down):  1.515E+00 0.000E+00

     negative rho (up, down):  1.515E+00 0.000E+00

     negative rho (up, down):  1.515E+00 0.000E+00

     negative rho (up, down):  1.515E+00 0.000E+00

     negative rho (up, down):  1.515E+00 0.000E+00

     negative rho (up, down):  1.515E+00 0.000E+00

     negative rho (up, down):  1.515E+00 0.000E+00

     negative rho (up, down):  1.515E+00 0.000E+00

     negative rho (up, down):  1.515E+00 0.000E+00

     negative rho (up, down):  1.515E+00 0.000E+00

     negative rho (up, down):  1.515E+00 0.000E+00

     negative rho (up, down):  1.515E+00 0.000E+00
 
     Adding external electric field

     Computed dipole along edir(3) : 
        Dipole               -0.1963 Ry au,         -0.4990 Debye
        Dipole field         -0.0006 Ry au
 
        Potential amp.        0.0525 Ry
        Total length         45.0345 bohr
 

     total cpu time spent up to now is      344.2 secs

     End of self-consistent calculation

          k = 0.0000 0.0000 0.0000 ( 15845 PWs)   bands (ev):

   -84.2466 -84.1958 -84.1877 -84.1405 -83.8388 -83.7996 -83.7802 -83.7435
   -83.7284 -83.7243 -83.7213 -83.7111 -43.9281 -43.8963 -43.8937 -43.7414
   -43.6429 -43.6295 -43.6201 -43.4297 -43.4121 -43.3987 -43.3112 -43.3106
   -43.2995 -43.2558 -43.2422 -43.2349 -43.1122 -43.1111 -43.0997 -43.0122
   -42.9955 -42.9783 -42.9369 -42.9281 -42.9142 -42.8964 -42.8766 -42.8683
   -42.8505 -42.8183 -42.8139 -42.8109 -42.6863 -42.6781 -42.6398 -42.6386
    -6.9488  -5.9400  -4.6864  -4.3691  -4.0845  -4.0793  -4.0700  -3.7730
    -3.7608  -3.7322  -3.1711  -3.1610  -3.1556  -2.9094  -2.8873  -2.8802
    -1.3628  -1.3223  -1.3114  -0.5554  -0.5294  -0.5266  -0.2760  -0.0909
    -0.0426  -0.0414   0.4528   0.4574   0.4712   0.4856   0.4915   0.6677
     0.7757   0.7855   0.8031   0.8461   1.8129   2.0263   2.1706   2.2878
     2.4132   2.5106   2.5230   2.7331   2.8104   2.8665   3.0477   3.2414
     3.5339   3.5475   3.7435   4.1138   4.1745   4.2286   4.4287   4.4363
     4.4454   4.6484   4.6625   4.7910

          k = 0.0000 0.0354 0.0000 ( 15861 PWs)   bands (ev):

   -84.2428 -84.1986 -84.1877 -84.1416 -83.8365 -83.7996 -83.7765 -83.7459
   -83.7284 -83.7247 -83.7243 -83.7116 -43.8962 -43.8655 -43.8526 -43.7279
   -43.6306 -43.6166 -43.6062 -43.4083 -43.3768 -43.3661 -43.3418 -43.3309
   -43.2939 -43.2429 -43.2322 -43.2254 -43.1886 -43.1251 -43.0664 -43.0042
   -42.9912 -42.9713 -42.9424 -42.9294 -42.9196 -42.9020 -42.8995 -42.8722
   -42.8616 -42.8458 -42.8379 -42.8025 -42.7350 -42.6894 -42.6887 -42.6504
    -6.6986  -5.8663  -4.4370  -4.1093  -4.0480  -3.8453  -3.8396  -3.6365
    -3.5765  -3.5699  -3.0872  -3.0154  -3.0137  -2.7398  -2.6203  -2.6006
    -1.3016  -1.2961  -1.2722  -0.5182  -0.4493  -0.4110  -0.4078  -0.2880
    -0.1708   0.0509   0.0986   0.1851   0.4770   0.5457   0.5547   0.6254
     0.6567   0.7774   0.8353   1.0237   1.5354   1.6935   1.8111   1.9195
     2.1627   2.2885   2.4667   2.4911   2.6534   2.6853   2.8277   2.8879
     3.0340   3.1840   3.5355   3.5707   3.8771   3.9901   4.1279   4.1350
     4.3234   4.3871   4.3954   4.6102

          k = 0.0000 0.0707 0.0000 ( 15905 PWs)   bands (ev):

   -84.2327 -84.2068 -84.1878 -84.1436 -83.8315 -83.7996 -83.7666 -83.7509
   -83.7342 -83.7284 -83.7243 -83.7120 -43.8257 -43.7955 -43.7240 -43.6914
   -43.6192 -43.5907 -43.5824 -43.4328 -43.4236 -43.3498 -43.3281 -43.2953
   -43.2613 -43.2390 -43.2035 -43.1954 -43.1634 -43.1593 -43.0401 -42.9939
   -42.9925 -42.9822 -42.9624 -42.9468 -42.9399 -42.9328 -42.9247 -42.9104
   -42.9078 -42.8919 -42.8609 -42.8364 -42.8142 -42.7711 -42.7149 -42.6827
    -6.1539  -5.5900  -4.1747  -3.7822  -3.4211  -3.3772  -3.2585  -3.2531
    -3.1217  -3.1172  -2.8546  -2.5840  -2.5727  -2.3455  -1.8799  -1.8609
    -1.2968  -1.2933  -1.1513  -1.0797  -0.7860  -0.6586  -0.6147  -0.3434
    -0.3224  -0.0529  -0.0230   0.2225   0.2427   0.4381   0.4870   0.5556
     0.7579   0.7973   0.8309   1.0060   1.0969   1.1674   1.1970   1.4546
     1.4846   1.5044   1.6956   1.7135   1.8301   1.9849   2.3371   2.5194
     2.6425   2.6514   2.8026   3.0793   3.1635   3.2131   3.5299   3.5461
     3.6308   3.7756   4.0248   4.0252

          k = 0.0000-0.1061 0.0000 ( 15968 PWs)   bands (ev):

   -84.2198 -84.2187 -84.1878 -84.1446 -83.8288 -83.7996 -83.7577 -83.7536
   -83.7430 -83.7284 -83.7243 -83.7122 -43.7797 -43.7464 -43.6521 -43.6431
   -43.5781 -43.5703 -43.5491 -43.5357 -43.4762 -43.4614 -43.3079 -43.2483
   -43.2287 -43.1924 -43.1756 -43.1593 -43.0915 -43.0427 -43.0398 -43.0374
   -43.0222 -43.0028 -42.9957 -42.9951 -42.9792 -42.9672 -42.9565 -42.9381
   -42.9327 -42.9089 -42.8988 -42.8918 -42.8182 -42.7358 -42.7308 -42.7211
    -5.9723  -4.8591  -4.7649  -3.3065  -3.2402  -2.8654  -2.8541  -2.8319
    -2.8278  -2.7777  -2.7469  -2.1250  -2.1243  -1.7892  -1.7538  -1.6099
    -1.5895  -1.2557  -1.2180  -1.1835  -1.1468  -0.8095  -0.7710  -0.2987
    -0.2754   0.0737   0.1009   0.1420   0.1564   0.1681   0.1987   0.2739
     0.4751   0.5399   0.5658   0.6248   0.6488   0.6845   0.7884   0.9709
     0.9835   1.7027   1.7582   1.8063   1.8240   1.8559   2.0312   2.2214
     2.3390   2.6582   2.7501   2.7527   2.7820   2.8249   2.9450   2.9933
     3.2334   3.4986   3.5715   3.6836

          k = 0.0306-0.0177 0.0000 ( 15861 PWs)   bands (ev):

   -84.2430 -84.1967 -84.1897 -84.1414 -83.8357 -83.8016 -83.7764 -83.7428
   -83.7306 -83.7262 -83.7216 -83.7125 -43.8958 -43.8673 -43.8511 -43.7279
   -43.6294 -43.6186 -43.6048 -43.4004 -43.3900 -43.3615 -43.3400 -43.3326
   -43.2943 -43.2445 -43.2303 -43.2252 -43.1897 -43.1242 -43.0664 -43.0057
   -42.9885 -42.9740 -42.9401 -42.9341 -42.9190 -42.9014 -42.8959 -42.8866
   -42.8475 -42.8423 -42.8408 -42.8027 -42.7284 -42.6961 -42.6885 -42.6514
    -6.6952  -5.8626  -4.4363  -4.1091  -4.0443  -3.8509  -3.8424  -3.6671
    -3.5754  -3.5457  -3.0831  -3.0227  -3.0135  -2.7530  -2.6123  -2.5955
    -1.3392  -1.2974  -1.2352  -0.5186  -0.4438  -0.4177  -0.4046  -0.2891
    -0.1726   0.0732   0.1049   0.1856   0.4627   0.5019   0.5637   0.6229
     0.6608   0.7973   0.8397   1.0185   1.5288   1.6780   1.7917   1.9558
     2.1786   2.3139   2.4601   2.5354   2.5905   2.6713   2.7878   2.8863
     3.0404   3.2412   3.5408   3.5870   3.8455   4.0142   4.1085   4.1700
     4.3189   4.3435   4.4163   4.4890

          k = 0.0306 0.0177 0.0000 ( 15861 PWs)   bands (ev):

   -84.2430 -84.1967 -84.1896 -84.1414 -83.8357 -83.8016 -83.7764 -83.7428
   -83.7306 -83.7262 -83.7216 -83.7125 -43.8958 -43.8673 -43.8511 -43.7279
   -43.6295 -43.6186 -43.6048 -43.4003 -43.3900 -43.3615 -43.3399 -43.3326
   -43.2943 -43.2445 -43.2303 -43.2252 -43.1897 -43.1242 -43.0664 -43.0057
   -42.9885 -42.9740 -42.9401 -42.9341 -42.9190 -42.9014 -42.8959 -42.8866
   -42.8475 -42.8423 -42.8408 -42.8027 -42.7284 -42.6961 -42.6885 -42.6514
    -6.6952  -5.8626  -4.4363  -4.1091  -4.0443  -3.8509  -3.8424  -3.6671
    -3.5754  -3.5457  -3.0831  -3.0227  -3.0135  -2.7530  -2.6123  -2.5955
    -1.3392  -1.2974  -1.2352  -0.5186  -0.4438  -0.4177  -0.4046  -0.2891
    -0.1726   0.0732   0.1049   0.1856   0.4627   0.5018   0.5637   0.6229
     0.6608   0.7973   0.8397   1.0185   1.5288   1.6780   1.7917   1.9558
     2.1786   2.3139   2.4601   2.5354   2.5905   2.6713   2.7878   2.8863
     3.0404   3.2412   3.5408   3.5870   3.8455   4.0142   4.1085   4.1700
     4.3189   4.3435   4.4164   4.4890

          k = 0.0306 0.0531 0.0000 ( 15900 PWs)   bands (ev):

   -84.2361 -84.2023 -84.1895 -84.1429 -83.8318 -83.8019 -83.7695 -83.7467
   -83.7323 -83.7273 -83.7259 -83.7121 -43.8486 -43.7930 -43.7836 -43.7031
   -43.6166 -43.6013 -43.5850 -43.4485 -43.3549 -43.3282 -43.3214 -43.2968
   -43.2947 -43.2825 -43.2182 -43.1995 -43.1925 -43.1519 -43.0459 -42.9974
   -42.9909 -42.9745 -42.9664 -42.9418 -42.9336 -42.9275 -42.9178 -42.9094
   -42.8779 -42.8589 -42.8174 -42.8166 -42.8120 -42.7743 -42.7153 -42.6757
    -6.2799  -5.7029  -3.9730  -3.8473  -3.8394  -3.6142  -3.3866  -3.3599
    -3.3066  -3.1524  -2.8589  -2.8542  -2.6409  -2.3476  -2.3379  -1.9856
    -1.3583  -1.2102  -1.1852  -0.9647  -0.5704  -0.4638  -0.4104  -0.3716
    -0.3390  -0.2052   0.0197   0.0390   0.3771   0.4231   0.5999   0.6353
     0.6439   0.6639   0.8618   1.1306   1.2409   1.3308   1.3950   1.5184
     1.7236   1.7697   1.8471   1.9577   2.1238   2.1947   2.3342   2.3955
     2.6159   2.8108   3.0268   3.2442   3.3666   3.6039   3.6303   3.7600
     3.8895   4.0426   4.0828   4.1667

          k = 0.0306-0.1238 0.0000 ( 15922 PWs)   bands (ev):

   -84.2247 -84.2119 -84.1900 -84.1442 -83.8276 -83.8023 -83.7587 -83.7509
   -83.7385 -83.7327 -83.7256 -83.7113 -43.7754 -43.7156 -43.6636 -43.6407
   -43.6223 -43.5917 -43.5620 -43.5513 -43.4553 -43.3682 -43.2950 -43.2712
   -43.2254 -43.2039 -43.1845 -43.1583 -43.1427 -43.0971 -43.0754 -43.0257
   -43.0228 -42.9979 -42.9899 -42.9797 -42.9569 -42.9509 -42.9419 -42.9318
   -42.9149 -42.8910 -42.8789 -42.8519 -42.8366 -42.7722 -42.7479 -42.7201
    -5.9690  -5.0882  -4.2400  -3.4742  -3.2819  -3.0972  -2.9329  -2.8297
    -2.8151  -2.5782  -2.5422  -2.3406  -2.0775  -1.8830  -1.8134  -1.6475
    -1.4899  -1.2617  -1.2032  -1.1591  -1.1209  -0.8707  -0.7051  -0.5431
    -0.4818  -0.1240  -0.0502  -0.0024   0.1482   0.1530   0.1715   0.2560
     0.3189   0.3807   0.4794   0.7744   0.9011   0.9710   0.9858   1.1027
     1.2369   1.3129   1.7086   1.7742   1.9131   1.9774   2.1614   2.2944
     2.3761   2.5045   2.6633   2.7757   2.9317   3.0861   3.2524   3.5073
     3.6687   3.7567   3.8216   4.0425

          k = 0.0306-0.0884 0.0000 ( 15922 PWs)   bands (ev):

   -84.2247 -84.2119 -84.1900 -84.1442 -83.8276 -83.8023 -83.7587 -83.7509
   -83.7385 -83.7327 -83.7256 -83.7113 -43.7754 -43.7155 -43.6636 -43.6407
   -43.6222 -43.5917 -43.5620 -43.5513 -43.4553 -43.3682 -43.2950 -43.2712
   -43.2254 -43.2039 -43.1845 -43.1583 -43.1427 -43.0971 -43.0754 -43.0257
   -43.0229 -42.9979 -42.9899 -42.9797 -42.9569 -42.9509 -42.9419 -42.9318
   -42.9149 -42.8910 -42.8790 -42.8519 -42.8366 -42.7722 -42.7479 -42.7200
    -5.9690  -5.0882  -4.2400  -3.4742  -3.2819  -3.0972  -2.9329  -2.8297
    -2.8151  -2.5782  -2.5422  -2.3406  -2.0775  -1.8830  -1.8134  -1.6475
    -1.4899  -1.2617  -1.2032  -1.1591  -1.1209  -0.8707  -0.7051  -0.5431
    -0.4818  -0.1240  -0.0502  -0.0024   0.1482   0.1530   0.1715   0.2560
     0.3189   0.3807   0.4794   0.7744   0.9012   0.9710   0.9858   1.1027
     1.2368   1.3129   1.7086   1.7742   1.9131   1.9774   2.1614   2.2944
     2.3761   2.5045   2.6633   2.7757   2.9317   3.0861   3.2524   3.5074
     3.6687   3.7567   3.8216   4.0425

          k = 0.0306-0.0531 0.0000 ( 15900 PWs)   bands (ev):

   -84.2361 -84.2023 -84.1895 -84.1429 -83.8318 -83.8019 -83.7695 -83.7467
   -83.7323 -83.7273 -83.7259 -83.7121 -43.8486 -43.7929 -43.7836 -43.7031
   -43.6166 -43.6014 -43.5849 -43.4485 -43.3549 -43.3282 -43.3214 -43.2969
   -43.2947 -43.2825 -43.2182 -43.1995 -43.1926 -43.1519 -43.0459 -42.9974
   -42.9909 -42.9745 -42.9664 -42.9418 -42.9336 -42.9275 -42.9178 -42.9094
   -42.8779 -42.8589 -42.8174 -42.8166 -42.8120 -42.7743 -42.7153 -42.6757
    -6.2799  -5.7029  -3.9730  -3.8473  -3.8394  -3.6142  -3.3866  -3.3599
    -3.3066  -3.1524  -2.8589  -2.8542  -2.6409  -2.3476  -2.3379  -1.9856
    -1.3583  -1.2102  -1.1852  -0.9647  -0.5704  -0.4638  -0.4104  -0.3715
    -0.3390  -0.2052   0.0197   0.0390   0.3771   0.4231   0.5999   0.6353
     0.6439   0.6639   0.8618   1.1306   1.2410   1.3308   1.3950   1.5184
     1.7236   1.7697   1.8471   1.9577   2.1238   2.1948   2.3342   2.3955
     2.6159   2.8108   3.0268   3.2443   3.3666   3.6039   3.6303   3.7600
     3.8895   4.0425   4.0827   4.1667

          k = 0.0613-0.0354 0.0000 ( 15905 PWs)   bands (ev):

   -84.2338 -84.2014 -84.1924 -84.1431 -83.8274 -83.8076 -83.7660 -83.7403
   -83.7387 -83.7309 -83.7220 -83.7145 -43.8258 -43.7959 -43.7225 -43.6921
   -43.6163 -43.5984 -43.5757 -43.4335 -43.4230 -43.3416 -43.3220 -43.3127
   -43.2617 -43.2411 -43.2048 -43.1947 -43.1632 -43.1576 -43.0406 -43.0084
   -42.9815 -42.9784 -42.9666 -42.9589 -42.9350 -42.9309 -42.9251 -42.9122
   -42.9011 -42.8976 -42.8520 -42.8176 -42.8128 -42.7714 -42.7294 -42.6837
    -6.1242  -5.5979  -4.1870  -3.7870  -3.4227  -3.3936  -3.2664  -3.2600
    -3.1217  -3.1027  -2.8610  -2.5814  -2.5749  -2.3479  -1.8770  -1.8618
    -1.3199  -1.2901  -1.1516  -1.0672  -0.7848  -0.6415  -0.6077  -0.3386
    -0.3189  -0.0610  -0.0283   0.2235   0.2459   0.4251   0.4852   0.5579
     0.7648   0.8001   0.9182   1.0006   1.0383   1.1033   1.1786   1.4518
     1.4773   1.5357   1.6519   1.7144   1.8885   1.9900   2.3121   2.4525
     2.5378   2.7843   2.9391   3.0622   3.1816   3.2131   3.4753   3.5286
     3.6281   3.7688   4.0002   4.0448

          k = 0.0613 0.0000 0.0000 ( 15900 PWs)   bands (ev):

   -84.2367 -84.1960 -84.1955 -84.1426 -83.8292 -83.8069 -83.7692 -83.7385
   -83.7357 -83.7316 -83.7224 -83.7138 -43.8485 -43.7957 -43.7807 -43.7033
   -43.6109 -43.6094 -43.5815 -43.4482 -43.3453 -43.3303 -43.3252 -43.3103
   -43.2878 -43.2814 -43.2212 -43.1998 -43.1896 -43.1520 -43.0462 -43.0114
   -42.9830 -42.9754 -42.9718 -42.9413 -42.9307 -42.9252 -42.9193 -42.9093
   -42.8649 -42.8556 -42.8190 -42.8145 -42.8123 -42.7735 -42.7227 -42.6767
    -6.2648  -5.7049  -3.9708  -3.8541  -3.8389  -3.6115  -3.3944  -3.3700
    -3.3218  -3.1388  -2.8632  -2.8474  -2.6437  -2.3690  -2.3326  -1.9793
    -1.3762  -1.1960  -1.1804  -0.9686  -0.5698  -0.4382  -0.4095  -0.3640
    -0.3411  -0.2127   0.0133   0.0373   0.3779   0.4222   0.5990   0.6404
     0.6582   0.6651   0.8723   1.0974   1.2431   1.3318   1.3596   1.5214
     1.7181   1.7786   1.8515   1.9963   2.0480   2.1479   2.3136   2.4172
     2.6545   2.8332   3.0550   3.3261   3.4301   3.5503   3.6173   3.7563
     3.8741   3.9718   4.0838   4.2144

          k = 0.0613 0.0354 0.0000 ( 15905 PWs)   bands (ev):

   -84.2338 -84.2016 -84.1923 -84.1431 -83.8274 -83.8076 -83.7660 -83.7403
   -83.7387 -83.7309 -83.7220 -83.7145 -43.8258 -43.7960 -43.7225 -43.6921
   -43.6164 -43.5983 -43.5758 -43.4334 -43.4231 -43.3416 -43.3220 -43.3127
   -43.2617 -43.2411 -43.2048 -43.1948 -43.1632 -43.1577 -43.0406 -43.0084
   -42.9815 -42.9784 -42.9666 -42.9589 -42.9350 -42.9309 -42.9251 -42.9122
   -42.9011 -42.8976 -42.8520 -42.8176 -42.8128 -42.7714 -42.7294 -42.6837
    -6.1242  -5.5979  -4.1870  -3.7870  -3.4227  -3.3936  -3.2664  -3.2600
    -3.1217  -3.1027  -2.8610  -2.5814  -2.5749  -2.3479  -1.8770  -1.8618
    -1.3199  -1.2900  -1.1516  -1.0672  -0.7848  -0.6415  -0.6077  -0.3386
    -0.3189  -0.0610  -0.0283   0.2235   0.2459   0.4251   0.4852   0.5579
     0.7648   0.8001   0.9182   1.0006   1.0383   1.1033   1.1786   1.4518
     1.4773   1.5358   1.6519   1.7144   1.8885   1.9900   2.3121   2.4525
     2.5378   2.7843   2.9391   3.0622   3.1816   3.2131   3.4753   3.5286
     3.6281   3.7688   4.0002   4.0448

          k = 0.0613-0.1415 0.0000 ( 15922 PWs)   bands (ev):

   -84.2266 -84.2074 -84.1929 -84.1439 -83.8236 -83.8090 -83.7576 -83.7442
   -83.7430 -83.7295 -83.7284 -83.7122 -43.7758 -43.7157 -43.6628 -43.6398
   -43.6206 -43.5945 -43.5599 -43.5525 -43.4549 -43.3680 -43.2875 -43.2694
   -43.2355 -43.2037 -43.1933 -43.1578 -43.1436 -43.0990 -43.0639 -43.0284
   -43.0206 -43.0111 -42.9887 -42.9742 -42.9586 -42.9517 -42.9405 -42.9342
   -42.9114 -42.8948 -42.8734 -42.8506 -42.8173 -42.7728 -42.7633 -42.7207
    -5.9450  -5.0971  -4.2570  -3.4694  -3.2896  -3.1105  -2.9245  -2.8289
    -2.8188  -2.5817  -2.5442  -2.3402  -2.0742  -1.8816  -1.8138  -1.6439
    -1.4897  -1.2590  -1.2062  -1.1636  -1.1190  -0.8731  -0.7046  -0.5263
    -0.4777  -0.1706  -0.0431   0.0870   0.1018   0.1287   0.1771   0.2567
     0.3102   0.3835   0.4987   0.7541   0.8980   0.9478   0.9891   1.1298
     1.2338   1.3044   1.6745   1.7980   1.8930   2.0486   2.1469   2.2322
     2.3840   2.5058   2.6672   2.7547   3.0175   3.0808   3.2638   3.5176
     3.6125   3.7858   3.8276   3.9833

          k = 0.0613-0.1061 0.0000 ( 15972 PWs)   bands (ev):

   -84.2212 -84.2110 -84.1945 -84.1442 -83.8215 -83.8096 -83.7504 -83.7463
   -83.7452 -83.7350 -83.7289 -83.7107 -43.6840 -43.6825 -43.6340 -43.6294
   -43.6076 -43.5957 -43.5896 -43.5817 -43.5426 -43.3082 -43.2794 -43.2753
   -43.2164 -43.1998 -43.1565 -43.1241 -43.1112 -43.1049 -43.0731 -43.0588
   -43.0534 -43.0516 -43.0006 -42.9972 -42.9875 -42.9580 -42.9407 -42.9167
   -42.9155 -42.9095 -42.8507 -42.8284 -42.8050 -42.7889 -42.7822 -42.7820
    -5.9000  -4.2482  -4.2382  -4.2000  -2.8654  -2.8527  -2.7942  -2.3393
    -2.3315  -2.2758  -2.1003  -2.0905  -2.0818  -1.8851  -1.8770  -1.8574
    -1.4824  -1.4746  -1.1644  -1.1348  -1.1233  -0.8801  -0.8261  -0.7927
    -0.5657  -0.5358  -0.4827  -0.3497  -0.3056  -0.2849  -0.1536   0.3051
     0.3379   0.4667   0.4688   0.7684   0.8327   0.8594   0.9417   0.9627
     0.9674   1.4492   1.5912   1.6608   2.0025   2.0942   2.2705   2.2772
     2.2937   2.6750   2.7189   2.7428   3.0558   3.4596   3.6553   3.8369
     3.8510   3.8678   3.9075   3.9217

          k = 0.0613-0.0707 0.0000 ( 15922 PWs)   bands (ev):

   -84.2267 -84.2073 -84.1930 -84.1439 -83.8236 -83.8090 -83.7576 -83.7442
   -83.7430 -83.7295 -83.7284 -83.7122 -43.7758 -43.7157 -43.6628 -43.6398
   -43.6205 -43.5946 -43.5599 -43.5525 -43.4549 -43.3680 -43.2875 -43.2694
   -43.2355 -43.2037 -43.1933 -43.1578 -43.1436 -43.0990 -43.0639 -43.0284
   -43.0206 -43.0111 -42.9887 -42.9742 -42.9586 -42.9517 -42.9405 -42.9342
   -42.9114 -42.8948 -42.8734 -42.8506 -42.8173 -42.7728 -42.7633 -42.7207
    -5.9450  -5.0971  -4.2570  -3.4694  -3.2896  -3.1105  -2.9245  -2.8289
    -2.8188  -2.5817  -2.5442  -2.3402  -2.0742  -1.8816  -1.8138  -1.6439
    -1.4897  -1.2590  -1.2062  -1.1636  -1.1190  -0.8731  -0.7046  -0.5263
    -0.4777  -0.1706  -0.0432   0.0870   0.1018   0.1287   0.1771   0.2567
     0.3102   0.3835   0.4987   0.7541   0.8980   0.9478   0.9891   1.1297
     1.2338   1.3044   1.6745   1.7980   1.8930   2.0486   2.1469   2.2322
     2.3841   2.5058   2.6672   2.7546   3.0175   3.0808   3.2638   3.5176
     3.6125   3.7858   3.8276   3.9833

          k =-0.0919 0.0531 0.0000 ( 15968 PWs)   bands (ev):

   -84.2267 -84.2072 -84.1931 -84.1439 -83.8170 -83.8169 -83.7533 -83.7507
   -83.7362 -83.7362 -83.7221 -83.7151 -43.7810 -43.7450 -43.6551 -43.6377
   -43.5859 -43.5618 -43.5462 -43.5347 -43.4879 -43.4549 -43.2812 -43.2757
   -43.2298 -43.1919 -43.1745 -43.1647 -43.0961 -43.0817 -43.0309 -43.0299
   -43.0019 -42.9996 -42.9964 -42.9902 -42.9784 -42.9716 -42.9492 -42.9467
   -42.9234 -42.9156 -42.8950 -42.8927 -42.7751 -42.7727 -42.7312 -42.7244
    -5.9236  -4.8629  -4.8021  -3.3229  -3.2519  -2.8638  -2.8560  -2.8353
    -2.8315  -2.7838  -2.7500  -2.1302  -2.1126  -1.7799  -1.7605  -1.6039
    -1.5950  -1.2495  -1.2166  -1.1817  -1.1432  -0.7979  -0.7825  -0.2860
    -0.2738   0.0150   0.0932   0.1424   0.1531   0.1956   0.1998   0.4015
     0.4114   0.5041   0.5778   0.6147   0.6454   0.6994   0.7458   0.9798
     0.9898   1.5566   1.7949   1.8026   1.8301   1.9187   2.0634   2.2013
     2.3501   2.5473   2.7359   2.7680   2.8470   2.9089   2.9560   3.0069
     3.2221   3.5556   3.5604   3.6536

          k =-0.0919 0.0884 0.0000 ( 15922 PWs)   bands (ev):

   -84.2274 -84.2044 -84.1953 -84.1437 -83.8192 -83.8146 -83.7570 -83.7447
   -83.7386 -83.7340 -83.7268 -83.7127 -43.7760 -43.7153 -43.6633 -43.6397
   -43.6195 -43.5960 -43.5591 -43.5517 -43.4556 -43.3681 -43.2823 -43.2717
   -43.2362 -43.2036 -43.1888 -43.1616 -43.1436 -43.0996 -43.0896 -43.0287
   -43.0181 -42.9958 -42.9794 -42.9743 -42.9568 -42.9517 -42.9411 -42.9341
   -42.9142 -42.8896 -42.8773 -42.8510 -42.8164 -42.7724 -42.7670 -42.7213
    -5.9325  -5.1065  -4.2541  -3.4736  -3.2887  -3.1116  -2.9302  -2.8267
    -2.8227  -2.5810  -2.5456  -2.3372  -2.0749  -1.8887  -1.8159  -1.6522
    -1.4924  -1.2605  -1.2084  -1.1591  -1.1040  -0.8742  -0.7065  -0.5210
    -0.4823  -0.1404  -0.0454   0.0645   0.1246   0.1368   0.1739   0.2577
     0.3031   0.3905   0.5046   0.7431   0.8722   0.9555   0.9795   1.1231
     1.2234   1.2868   1.6603   1.8341   1.9232   1.9620   2.1828   2.2152
     2.3926   2.5018   2.6444   2.8523   2.9978   3.1144   3.3349   3.4365
     3.6528   3.7353   3.8238   3.9332

          k =-0.0919 0.1238 0.0000 ( 15922 PWs)   bands (ev):

   -84.2274 -84.2046 -84.1952 -84.1437 -83.8192 -83.8146 -83.7570 -83.7447
   -83.7386 -83.7340 -83.7268 -83.7127 -43.7760 -43.7153 -43.6632 -43.6397
   -43.6195 -43.5960 -43.5591 -43.5517 -43.4556 -43.3681 -43.2823 -43.2716
   -43.2362 -43.2036 -43.1888 -43.1616 -43.1436 -43.0996 -43.0896 -43.0287
   -43.0181 -42.9958 -42.9794 -42.9743 -42.9568 -42.9517 -42.9411 -42.9341
   -42.9142 -42.8896 -42.8773 -42.8510 -42.8164 -42.7725 -42.7670 -42.7213
    -5.9325  -5.1065  -4.2541  -3.4736  -3.2887  -3.1116  -2.9302  -2.8267
    -2.8227  -2.5810  -2.5456  -2.3372  -2.0749  -1.8887  -1.8159  -1.6522
    -1.4924  -1.2605  -1.2084  -1.1591  -1.1040  -0.8742  -0.7065  -0.5210
    -0.4823  -0.1404  -0.0454   0.0645   0.1246   0.1368   0.1739   0.2577
     0.3031   0.3905   0.5046   0.7431   0.8722   0.9555   0.9795   1.1231
     1.2234   1.2868   1.6603   1.8341   1.9232   1.9620   2.1828   2.2152
     2.3926   2.5018   2.6445   2.8523   2.9978   3.1144   3.3349   3.4365
     3.6528   3.7352   3.8238   3.9332

          k =-0.0919-0.0531 0.0000 ( 15968 PWs)   bands (ev):

   -84.2266 -84.2074 -84.1929 -84.1439 -83.8170 -83.8169 -83.7533 -83.7507
   -83.7362 -83.7362 -83.7221 -83.7151 -43.7809 -43.7451 -43.6550 -43.6379
   -43.5858 -43.5618 -43.5461 -43.5348 -43.4878 -43.4549 -43.2811 -43.2758
   -43.2297 -43.1920 -43.1745 -43.1648 -43.0961 -43.0817 -43.0309 -43.0299
   -43.0019 -42.9996 -42.9964 -42.9902 -42.9784 -42.9716 -42.9492 -42.9466
   -42.9234 -42.9156 -42.8950 -42.8927 -42.7751 -42.7728 -42.7312 -42.7244
    -5.9236  -4.8629  -4.8020  -3.3229  -3.2520  -2.8637  -2.8560  -2.8353
    -2.8315  -2.7838  -2.7500  -2.1301  -2.1126  -1.7799  -1.7605  -1.6039
    -1.5950  -1.2495  -1.2166  -1.1817  -1.1432  -0.7979  -0.7825  -0.2860
    -0.2737   0.0150   0.0932   0.1424   0.1531   0.1956   0.1998   0.4015
     0.4114   0.5041   0.5778   0.6147   0.6454   0.6994   0.7458   0.9799
     0.9897   1.5566   1.7950   1.8026   1.8301   1.9187   2.0633   2.2013
     2.3501   2.5473   2.7359   2.7680   2.8470   2.9089   2.9560   3.0069
     3.2221   3.5556   3.5604   3.6536

     the Fermi energy is     2.8265 ev

!    total energy              =   -2408.53571333 Ry
     Harris-Foulkes estimate   =   -2408.53574811 Ry
     estimated scf accuracy    <       0.00000763 Ry

     The total energy is the sum of the following terms:

     one-electron contribution =  -21685.30058206 Ry
     hartree contribution      =   10825.32637855 Ry
     xc contribution           =    -467.47931296 Ry
     ewald contribution        =    8918.99439777 Ry
     electric field correction =       0.00011452 Ry
     smearing contrib. (-TS)   =      -0.07670915 Ry

     convergence has been achieved in  20 iterations
 
 BEEF-vdW xc energy contributions
           1 :   -409.467934380276     
           2 :    379.397045371389     
           3 :   -326.319094159120     
           4 :    261.787195970758     
           5 :   -198.228287661631     
           6 :    145.574853738050     
           7 :   -109.054753567572     
           8 :    88.6482263933789     
           9 :   -80.2136107257303     
          10 :    77.6925921197746     
          11 :   -75.4983449758902     
          12 :    70.2247052577834     
          13 :   -61.2151436111316     
          14 :    50.0282640562172     
          15 :   -39.2286926916992     
          16 :    31.0687265753007     
          17 :   -26.5741810679094     
          18 :    25.3066067493966     
          19 :   -25.7725125195587     
          20 :    26.1966061610838     
          21 :   -25.2852545302202     
          22 :    22.6660265068076     
          23 :   -18.8745401619486     
          24 :    14.9617268297937     
          25 :   -11.9441360274200     
          26 :    10.3514559456780     
          27 :   -10.0544737230342     
          28 :    10.4086733655069     
          29 :   -10.6119281863022     
          30 :    10.0897207955207     
          31 :   -38.9215025845758     
          32 :   -29.7076600816538     

     Forces acting on atoms (Ry/au):


     negative rho (up, down):  1.515E+00 0.000E+00
     atom    1 type  1   force =     0.00001475   -0.00058849    0.03288400
     atom    2 type  1   force =    -0.00001559   -0.00088546    0.03248450
     atom    3 type  1   force =     0.00180803    0.00090712    0.03495850
     atom    4 type  1   force =    -0.00179767    0.00091521    0.03492130
     atom    5 type  1   force =     0.00292614    0.00564916    0.00143227
     atom    6 type  1   force =    -0.00292333    0.00561646    0.00145502
     atom    7 type  1   force =    -0.00003202   -0.01026713   -0.01718568
     atom    8 type  1   force =     0.00003065   -0.00377915    0.00552382
     atom    9 type  1   force =     0.01667113    0.00599445    0.05216781
     atom   10 type  1   force =    -0.01667526    0.00601380    0.05221228
     atom   11 type  1   force =     0.00000940   -0.00358998   -0.03471917
     atom   12 type  1   force =    -0.00002091   -0.00579455   -0.03130842
     atom   13 type  2   force =     0.00000466   -0.00019143   -0.16482621

     Total force =     0.201478     Total SCF correction =     0.023022
     SCF correction compared to forces is large: reduce conv_thr to get better values


     entering subroutine stress ...


     negative rho (up, down):  1.515E+00 0.000E+00
          total   stress  (Ry/bohr**3)                   (kbar)     P=  -44.36
  -0.00024307  -0.00000000   0.00000000        -35.76     -0.00      0.00
  -0.00000000  -0.00021986   0.00000189         -0.00    -32.34      0.28
   0.00000000   0.00000189  -0.00044165          0.00      0.28    -64.97

 !ASE

     Writing output data file calc.save
 
     init_run     :      4.82s CPU      6.89s WALL (       1 calls)
     electrons    :    259.70s CPU    337.16s WALL (       1 calls)
     forces       :      3.48s CPU      3.74s WALL (       1 calls)
     stress       :     14.10s CPU     14.56s WALL (       1 calls)

     Called by init_run:
     wfcinit      :      3.03s CPU      4.76s WALL (       1 calls)
     potinit      :      0.41s CPU      0.58s WALL (       1 calls)

     Called by electrons:
     c_bands      :    196.41s CPU    257.07s WALL (      20 calls)
     sum_band     :     33.35s CPU     42.87s WALL (      20 calls)
     v_of_rho     :      5.08s CPU      7.78s WALL (      21 calls)
     newd         :     17.96s CPU     18.32s WALL (      21 calls)
     mix_rho      :      0.22s CPU      0.35s WALL (      20 calls)
     vdW_energy   :      2.12s CPU      2.34s WALL (      57 calls)
     vdW_ffts     :      5.34s CPU     10.16s WALL (     116 calls)
     vdW_v        :      1.54s CPU      2.22s WALL (      57 calls)

     Called by c_bands:
     init_us_2    :      2.20s CPU      2.28s WALL (     860 calls)
     cegterg      :    180.88s CPU    240.10s WALL (     400 calls)

     Called by *egterg:
     h_psi        :     70.93s CPU    119.37s WALL (    1936 calls)
     s_psi        :     12.39s CPU     12.69s WALL (    1936 calls)
     g_psi        :      0.54s CPU      0.55s WALL (    1516 calls)
     cdiaghg      :     66.80s CPU     67.58s WALL (    1916 calls)

     Called by h_psi:
     add_vuspsi   :     13.99s CPU     14.25s WALL (    1936 calls)

     General routines
     calbec       :     20.87s CPU     23.36s WALL (    2376 calls)
     fft          :      8.00s CPU     15.20s WALL (    3489 calls)
     ffts         :      0.02s CPU      0.05s WALL (      41 calls)
     fftw         :     42.52s CPU     96.93s WALL (  261420 calls)
     interpolate  :      0.11s CPU      0.21s WALL (      41 calls)
     davcio       :      0.00s CPU      0.16s WALL (      20 calls)
 
     Parallel routines
     fft_scatter  :     28.84s CPU     84.22s WALL (  264950 calls)
 
     PWSCF        :  4m42.65s CPU     6m 3.34s WALL

 
   This run was terminated on:   3: 1:35  18Jan2018            

=------------------------------------------------------------------------------=
   JOB DONE.
=------------------------------------------------------------------------------=
Job  /afs/slac/g/suncat/bin/suncat-tsmpirun -x LD_LIBRARY_PATH -wdir /scratch/qe842464_NPY18 pw.x -in pw.inp

TID   HOST_NAME   COMMAND_LINE            STATUS            TERMINATION_TIME
===== ========== ================  =======================  ===================
00000 suncat2041 pw.x -in pw.inp   Done                     01/18/2018 03:01:35
00001 suncat2041 pw.x -in pw.inp   Done                     01/18/2018 03:01:35
00002 suncat2041 pw.x -in pw.inp   Done                     01/18/2018 03:01:35
00003 suncat2041 pw.x -in pw.inp   Done                     01/18/2018 03:01:35
00004 suncat2041 pw.x -in pw.inp   Done                     01/18/2018 03:01:35
00005 suncat2041 pw.x -in pw.inp   Done                     01/18/2018 03:01:35
00006 suncat2041 pw.x -in pw.inp   Done                     01/18/2018 03:01:35
00007 suncat2041 pw.x -in pw.inp   Done                     01/18/2018 03:01:35
00008 suncat2041 pw.x -in pw.inp   Done                     01/18/2018 03:01:35
00009 suncat2041 pw.x -in pw.inp   Done                     01/18/2018 03:01:35
00010 suncat2041 pw.x -in pw.inp   Done                     01/18/2018 03:01:35
00011 suncat2041 pw.x -in pw.inp   Done                     01/18/2018 03:01:35
00012 suncat2041 pw.x -in pw.inp   Done                     01/18/2018 03:01:35
00013 suncat2041 pw.x -in pw.inp   Done                     01/18/2018 03:01:35
00014 suncat2041 pw.x -in pw.inp   Done                     01/18/2018 03:01:35
00015 suncat2041 pw.x -in pw.inp   Done                     01/18/2018 03:01:35
00016 suncat2040 pw.x -in pw.inp   Done                     01/18/2018 03:01:35
00017 suncat2040 pw.x -in pw.inp   Done                     01/18/2018 03:01:35
00018 suncat2040 pw.x -in pw.inp   Done                     01/18/2018 03:01:35
00019 suncat2040 pw.x -in pw.inp   Done                     01/18/2018 03:01:35
00020 suncat2040 pw.x -in pw.inp   Done                     01/18/2018 03:01:35
00021 suncat2040 pw.x -in pw.inp   Done                     01/18/2018 03:01:35
00022 suncat2040 pw.x -in pw.inp   Done                     01/18/2018 03:01:35
00023 suncat2040 pw.x -in pw.inp   Done                     01/18/2018 03:01:35
00024 suncat2040 pw.x -in pw.inp   Done                     01/18/2018 03:01:35
00025 suncat2040 pw.x -in pw.inp   Done                     01/18/2018 03:01:35
00026 suncat2040 pw.x -in pw.inp   Done                     01/18/2018 03:01:35
00027 suncat2040 pw.x -in pw.inp   Done                     01/18/2018 03:01:35
00028 suncat2040 pw.x -in pw.inp   Done                     01/18/2018 03:01:35
00029 suncat2040 pw.x -in pw.inp   Done                     01/18/2018 03:01:35
00030 suncat2040 pw.x -in pw.inp   Done                     01/18/2018 03:01:35
00031 suncat2040 pw.x -in pw.inp   Done                     01/18/2018 03:01:35

     Program PWSCF v.5.1rc2 (svn rev. 11289) starts on 18Jan2018 at  3: 1:40 

     This program is part of the open-source Quantum ESPRESSO suite
     for quantum simulation of materials; please cite
         "P. Giannozzi et al., J. Phys.:Condens. Matter 21 395502 (2009);
          URL http://www.quantum-espresso.org", 
     in publications or presentations arising from this work. More details at
     http://www.quantum-espresso.org/quote

     Parallel version (MPI), running on    32 processors
     R & G space division:  proc/nbgrp/npool/nimage =      32
     Reading input from pw.inp
     Message from routine read_cards :
     DEPRECATED: no units specified in CELL_PARAMETERS card

     Current dimensions of program PWSCF are:
     Max number of different atomic species (ntypx) = 10
     Max number of k-points (npk) =  40000
     Max angular momentum in pseudopotentials (lmaxx) =  3
     Presently stress not available with electric field


     **************************************************************************
     Initializing libbeef V0.1.1 with the BEEF-vdW functional.
     Citation: Wellendorff et al., PRB 85, 235149 (2012).
     **************************************************************************


     IMPORTANT: XC functional enforced from input :
     Exchange-correlation      = BEEF-VDW ( 1  4 27 13 2)
     Any further DFT definition will be discarded
     Please, verify this is what you really want


     Subspace diagonalization in iterative solution of the eigenvalue problem:
     a serial algorithm will be used

 
     Parallelization info
     --------------------
     sticks:   dense  smooth     PW     G-vecs:    dense   smooth      PW
     Min          83      33      9                15713     3963     619
     Max          84      34     10                15736     4002     646
     Sum        2677    1069    313               503261   127391   20329
 


     bravais-lattice index     =            0
     lattice parameter (alat)  =       1.8897  a.u.
     unit-cell volume          =    4228.3700 (a.u.)^3
     number of atoms/cell      =           13
     number of atomic types    =            2
     number of electrons       =       196.00
     number of Kohn-Sham states=          108
     kinetic-energy cutoff     =      36.7493  Ry
     charge density cutoff     =     367.4932  Ry
     convergence threshold     =      1.0E-05
     mixing beta               =       0.3000
     number of iterations used =           10  plain     mixing
     Exchange-correlation      = BEEF-VDW ( 1  4 27 13 2)
     nstep                     =           50


     celldm(1)=   1.889726  celldm(2)=   0.000000  celldm(3)=   0.000000
     celldm(4)=   0.000000  celldm(5)=   0.000000  celldm(6)=   0.000000

     crystal axes: (cart. coord. in units of alat)
               a(1) = (   5.440665   0.000000   0.000000 )  
               a(2) = (   2.720332   4.711754   0.000000 )  
               a(3) = (   0.000000   0.000000  24.442284 )  

     reciprocal axes: (cart. coord. in units 2 pi/alat)
               b(1) = (  0.183801 -0.106118  0.000000 )  
               b(2) = (  0.000000  0.212235  0.000000 )  
               b(3) = (  0.000000  0.000000  0.040913 )  


     PseudoPot. # 1 for Os read from file:
     /afs/slac.stanford.edu/u/if/mamunm/psp/gbrv1.5pbe/Os.UPF
     MD5 check sum: a3fb40a04f0c37c25c34bbc47164c9a8
     Pseudo is Ultrasoft + core correction, Zval = 16.0
     Generated by new atomic code, or converted to UPF format
     Using radial grid of  983 points,  8 beta functions with: 
                l(1) =   0
                l(2) =   0
                l(3) =   1
                l(4) =   1
                l(5) =   2
                l(6) =   2
                l(7) =   3
                l(8) =   3
     Q(r) pseudized with  8 coefficients,  rinner =    1.150   1.150   1.150
                                                       1.150   1.150   1.150
                                                       1.150

     PseudoPot. # 2 for C  read from file:
     /afs/slac.stanford.edu/u/if/mamunm/psp/gbrv1.5pbe/C.UPF
     MD5 check sum: d1aef80898a10debaa0f26306b886e00
     Pseudo is Ultrasoft + core correction, Zval =  4.0
     Generated by new atomic code, or converted to UPF format
     Using radial grid of  721 points,  4 beta functions with: 
                l(1) =   0
                l(2) =   0
                l(3) =   1
                l(4) =   1
     Q(r) pseudized with  8 coefficients,  rinner =    1.100   1.100   1.100


     vdW kernel table read from file vdW_kernel_table
     MD5 check sum: 095c7af220d748ca6e76c0b4c6cfb241

     atomic species   valence    mass     pseudopotential
        Os1           16.00   190.23000     Os( 1.00)
        C1             4.00    12.01100     C ( 1.00)

     No symmetry found



   Cartesian axes

     site n.     atom                  positions (alat units)
         1           Os1 tau(   1) = (   1.3601662   0.7852923  10.0000000  )
         2           Os1 tau(   2) = (   4.0804987   0.7852923  10.0000000  )
         3           Os1 tau(   3) = (   2.7203325   3.1411694  10.0000000  )
         4           Os1 tau(   4) = (   5.4406649   3.1411694  10.0000000  )
         5           Os1 tau(   5) = (   5.4406649   1.5705847  12.2211422  )
         6           Os1 tau(   6) = (   2.7203325   1.5705847  12.2211422  )
         7           Os1 tau(   7) = (   6.8008312   3.9264617  12.2211422  )
         8           Os1 tau(   8) = (   4.0804987   3.9264617  12.2211422  )
         9           Os1 tau(   9) = (   0.0428632   0.0154123  14.5764131  )
        10           Os1 tau(  10) = (   2.6774587   0.0154621  14.5765275  )
        11           Os1 tau(  11) = (   1.3601904   2.3466468  14.3530177  )
        12           Os1 tau(  12) = (   4.0804449   2.3409786  14.3617871  )
        13           C1  tau(  13) = (   4.0805107   4.7112619  16.2184991  )

     number of k points=    20  Fermi-Dirac smearing, width (Ry)=  0.0110
                       cart. coord. in units 2pi/alat
        k(    1) = (   0.0000000   0.0000000   0.0000000), wk =   0.0555556
        k(    2) = (   0.0000000   0.0353725   0.0000000), wk =   0.1111111
        k(    3) = (   0.0000000   0.0707451   0.0000000), wk =   0.1111111
        k(    4) = (   0.0000000  -0.1061176   0.0000000), wk =   0.0555556
        k(    5) = (   0.0306335  -0.0176863   0.0000000), wk =   0.1111111
        k(    6) = (   0.0306335   0.0176863   0.0000000), wk =   0.1111111
        k(    7) = (   0.0306335   0.0530588   0.0000000), wk =   0.1111111
        k(    8) = (   0.0306335  -0.1238039   0.0000000), wk =   0.1111111
        k(    9) = (   0.0306335  -0.0884313   0.0000000), wk =   0.1111111
        k(   10) = (   0.0306335  -0.0530588   0.0000000), wk =   0.1111111
        k(   11) = (   0.0612670  -0.0353725   0.0000000), wk =   0.1111111
        k(   12) = (   0.0612670   0.0000000   0.0000000), wk =   0.1111111
        k(   13) = (   0.0612670   0.0353725   0.0000000), wk =   0.1111111
        k(   14) = (   0.0612670  -0.1414901   0.0000000), wk =   0.1111111
        k(   15) = (   0.0612670  -0.1061176   0.0000000), wk =   0.1111111
        k(   16) = (   0.0612670  -0.0707451   0.0000000), wk =   0.1111111
        k(   17) = (  -0.0919005   0.0530588   0.0000000), wk =   0.0555556
        k(   18) = (  -0.0919005   0.0884313   0.0000000), wk =   0.1111111
        k(   19) = (  -0.0919005   0.1238039   0.0000000), wk =   0.1111111
        k(   20) = (  -0.0919005  -0.0530588   0.0000000), wk =   0.0555556

     Dense  grid:   503261 G-vectors     FFT dimensions: (  64,  64, 288)

     Smooth grid:   127391 G-vectors     FFT dimensions: (  40,  40, 180)

     Largest allocated arrays     est. size (Mb)     dimensions
        Kohn-Sham Wavefunctions         0.88 Mb     (     531,  108)
        NL pseudopotentials             3.18 Mb     (     531,  392)
        Each V/rho on FFT grid          0.56 Mb     (   36864)
        Each G-vector array             0.12 Mb     (   15717)
        G-vector shells                 0.05 Mb     (    7001)
     Largest temporary arrays     est. size (Mb)     dimensions
        Auxiliary wavefunctions         3.50 Mb     (     531,  432)
        Each subspace H/S matrix        2.85 Mb     (     432,  432)
        Each <psi_i|beta_j> matrix      0.65 Mb     (     392,  108)
        Arrays for rho mixing           5.62 Mb     (   36864,   10)

     Initial potential from superposition of free atoms
     Check: negative starting charge=   -1.489981

     starting charge  189.99952, renormalised to  196.00000

     negative rho (up, down):  1.537E+00 0.000E+00


     ************************************************************************
     *
     * You are using vdW-DF for exchange-correlation in this calculation.
     * Please cite the following three references that made this development
     * possible:
     *
     *   M. Dion, H. Rydberg, E. Schroder, D. C. Langreth, and
     *   B. I. Lundqvist, Phys. Rev. Lett. 92, 246401 (2004).
     *
     *   T. Thonhauser, V. R. Cooper, S. Li, A. Puzder, P. Hyldgaard, and
     *   D. C. Langreth, Phys. Rev. B 76, 125112 (2007).
     *
     *   G. Roman-Perez and J. M. Soler, Phys. Rev. Lett. 103, 096102 (2009).
     *
     *
     * If you are using vdW-DF2, please also cite:
     *
     *   K. Lee, E. D. Murray, L. Kong, B. I. Lundqvist, and
     *   D. C. Langreth, Phys. Rev. B 82, 081101(R) (2010).
     *
     *
     * If you are calculating the stress with vdW-DF, please also cite:
     *
     *   R. Sabatini, E. Kucukbenli, B. Kolb, T. Thonhauser, and
     *   S. de Gironcoli, J. Phys.: Condens. Matter 24, 424209 (2012).
     *
     ************************************************************************

     Carrying out vdW-DF run using the following parameters:

     Nqs =      20    Nr_points =    1024   r_max =   100.000
     q_mesh =
               0.00001000     0.04494208     0.09755937     0.15916263
               0.23128650     0.31572767     0.41458969     0.53033537
               0.66584808     0.82450364     1.01025438     1.22772762
               1.48234092     1.78043706     2.12944203     2.53805004
               3.01644009     3.57652955     4.23227104     5.00000000

     Gradients computed in reciprocal space

     ************************************************************************


 
     Adding external electric field

     Computed dipole along edir(3) : 
        Dipole               -0.9520 Ry au,         -2.4197 Debye
        Dipole field         -0.0028 Ry au
 
        Potential amp.        0.2548 Ry
        Total length         45.0345 bohr
 
     Starting wfc are  160 randomized atomic wfcs

     total cpu time spent up to now is        8.3 secs

     Self-consistent Calculation

     iteration #  1     ecut=    36.75 Ry     beta=0.30
     Davidson diagonalization with overlap
     ethr =  1.00E-02,  avg # of iterations =  2.0

     negative rho (up, down):  1.542E+00 0.000E+00
 
     Adding external electric field

     Computed dipole along edir(3) : 
        Dipole               11.6430 Ry au,         29.5936 Debye
        Dipole field          0.0346 Ry au
 
        Potential amp.       -3.1166 Ry
        Total length         45.0345 bohr
 

     total cpu time spent up to now is       22.7 secs

     total energy              =   -2397.37559019 Ry
     Harris-Foulkes estimate   =   -2409.39318281 Ry
     estimated scf accuracy    <      24.98191446 Ry

     iteration #  2     ecut=    36.75 Ry     beta=0.30
     Davidson diagonalization with overlap
     ethr =  1.00E-02,  avg # of iterations = 11.1

     negative rho (up, down):  1.546E+00 0.000E+00
 
     Adding external electric field

     Computed dipole along edir(3) : 
        Dipole               -2.1758 Ry au,         -5.5302 Debye
        Dipole field         -0.0065 Ry au
 
        Potential amp.        0.5824 Ry
        Total length         45.0345 bohr
 

     total cpu time spent up to now is       55.8 secs

     total energy              =   -2357.54728912 Ry
     Harris-Foulkes estimate   =   -2499.11886696 Ry
     estimated scf accuracy    <    4066.47470336 Ry

     iteration #  3     ecut=    36.75 Ry     beta=0.30
     Davidson diagonalization with overlap
     ethr =  1.00E-02,  avg # of iterations =  7.4

     negative rho (up, down):  1.537E+00 0.000E+00
 
     Adding external electric field

     Computed dipole along edir(3) : 
        Dipole               -1.7789 Ry au,         -4.5216 Debye
        Dipole field         -0.0053 Ry au
 
        Potential amp.        0.4762 Ry
        Total length         45.0345 bohr
 

     total cpu time spent up to now is       84.6 secs

     total energy              =   -2400.42407470 Ry
     Harris-Foulkes estimate   =   -2421.77998783 Ry
     estimated scf accuracy    <     489.05709390 Ry

     iteration #  4     ecut=    36.75 Ry     beta=0.30
     Davidson diagonalization with overlap
     ethr =  1.00E-02,  avg # of iterations =  5.0

     negative rho (up, down):  1.533E+00 0.000E+00
 
     Adding external electric field

     Computed dipole along edir(3) : 
        Dipole               -0.9247 Ry au,         -2.3504 Debye
        Dipole field         -0.0027 Ry au
 
        Potential amp.        0.2475 Ry
        Total length         45.0345 bohr
 

     total cpu time spent up to now is      104.2 secs

     total energy              =   -2408.22740739 Ry
     Harris-Foulkes estimate   =   -2409.45014877 Ry
     estimated scf accuracy    <      10.23573144 Ry

     iteration #  5     ecut=    36.75 Ry     beta=0.30
     Davidson diagonalization with overlap
     ethr =  5.22E-03,  avg # of iterations =  1.8

     negative rho (up, down):  1.527E+00 0.000E+00
 
     Adding external electric field

     Computed dipole along edir(3) : 
        Dipole               -1.0845 Ry au,         -2.7566 Debye
        Dipole field         -0.0032 Ry au
 
        Potential amp.        0.2903 Ry
        Total length         45.0345 bohr
 

     total cpu time spent up to now is      116.3 secs

     total energy              =   -2408.55247184 Ry
     Harris-Foulkes estimate   =   -2408.73502817 Ry
     estimated scf accuracy    <       0.46718457 Ry

     iteration #  6     ecut=    36.75 Ry     beta=0.30
     Davidson diagonalization with overlap
     ethr =  2.38E-04,  avg # of iterations =  5.2

     negative rho (up, down):  1.522E+00 0.000E+00
 
     Adding external electric field

     Computed dipole along edir(3) : 
        Dipole               -1.0638 Ry au,         -2.7038 Debye
        Dipole field         -0.0032 Ry au
 
        Potential amp.        0.2847 Ry
        Total length         45.0345 bohr
 

     total cpu time spent up to now is      138.1 secs

     total energy              =   -2408.69257334 Ry
     Harris-Foulkes estimate   =   -2408.78926930 Ry
     estimated scf accuracy    <       1.01264429 Ry

     iteration #  7     ecut=    36.75 Ry     beta=0.30
     Davidson diagonalization with overlap
     ethr =  2.38E-04,  avg # of iterations =  2.4

     negative rho (up, down):  1.520E+00 0.000E+00
 
     Adding external electric field

     Computed dipole along edir(3) : 
        Dipole               -1.0486 Ry au,         -2.6654 Debye
        Dipole field         -0.0031 Ry au
 
        Potential amp.        0.2807 Ry
        Total length         45.0345 bohr
 

     total cpu time spent up to now is      150.8 secs

     total energy              =   -2408.70767059 Ry
     Harris-Foulkes estimate   =   -2408.73977307 Ry
     estimated scf accuracy    <       0.40865652 Ry

     iteration #  8     ecut=    36.75 Ry     beta=0.30
     Davidson diagonalization with overlap
     ethr =  2.08E-04,  avg # of iterations =  1.1

     negative rho (up, down):  1.515E+00 0.000E+00
 
     Adding external electric field

     Computed dipole along edir(3) : 
        Dipole               -0.9988 Ry au,         -2.5386 Debye
        Dipole field         -0.0030 Ry au
 
        Potential amp.        0.2674 Ry
        Total length         45.0345 bohr
 

     total cpu time spent up to now is      162.2 secs

     total energy              =   -2408.71800877 Ry
     Harris-Foulkes estimate   =   -2408.72330010 Ry
     estimated scf accuracy    <       0.05772768 Ry

     iteration #  9     ecut=    36.75 Ry     beta=0.30
     Davidson diagonalization with overlap
     ethr =  2.95E-05,  avg # of iterations =  5.6

     negative rho (up, down):  1.514E+00 0.000E+00
 
     Adding external electric field

     Computed dipole along edir(3) : 
        Dipole               -0.9538 Ry au,         -2.4244 Debye
        Dipole field         -0.0028 Ry au
 
        Potential amp.        0.2553 Ry
        Total length         45.0345 bohr
 

     total cpu time spent up to now is      180.1 secs

     total energy              =   -2408.72380707 Ry
     Harris-Foulkes estimate   =   -2408.72715179 Ry
     estimated scf accuracy    <       0.07639754 Ry

     iteration # 10     ecut=    36.75 Ry     beta=0.30
     Davidson diagonalization with overlap
     ethr =  2.95E-05,  avg # of iterations =  1.0

     negative rho (up, down):  1.512E+00 0.000E+00
 
     Adding external electric field

     Computed dipole along edir(3) : 
        Dipole               -0.8720 Ry au,         -2.2164 Debye
        Dipole field         -0.0026 Ry au
 
        Potential amp.        0.2334 Ry
        Total length         45.0345 bohr
 

     total cpu time spent up to now is      191.6 secs

     total energy              =   -2408.72142418 Ry
     Harris-Foulkes estimate   =   -2408.72495202 Ry
     estimated scf accuracy    <       0.04126405 Ry

     iteration # 11     ecut=    36.75 Ry     beta=0.30
     Davidson diagonalization with overlap
     ethr =  2.11E-05,  avg # of iterations =  1.0

     negative rho (up, down):  1.511E+00 0.000E+00
 
     Adding external electric field

     Computed dipole along edir(3) : 
        Dipole               -0.7800 Ry au,         -1.9826 Debye
        Dipole field         -0.0023 Ry au
 
        Potential amp.        0.2088 Ry
        Total length         45.0345 bohr
 

     total cpu time spent up to now is      203.0 secs

     total energy              =   -2408.72079011 Ry
     Harris-Foulkes estimate   =   -2408.72264196 Ry
     estimated scf accuracy    <       0.01355598 Ry

     iteration # 12     ecut=    36.75 Ry     beta=0.30
     Davidson diagonalization with overlap
     ethr =  6.92E-06,  avg # of iterations =  2.6

     negative rho (up, down):  1.510E+00 0.000E+00
 
     Adding external electric field

     Computed dipole along edir(3) : 
        Dipole               -0.7087 Ry au,         -1.8013 Debye
        Dipole field         -0.0021 Ry au
 
        Potential amp.        0.1897 Ry
        Total length         45.0345 bohr
 

     total cpu time spent up to now is      215.7 secs

     total energy              =   -2408.72037704 Ry
     Harris-Foulkes estimate   =   -2408.72156425 Ry
     estimated scf accuracy    <       0.01128383 Ry

     iteration # 13     ecut=    36.75 Ry     beta=0.30
     Davidson diagonalization with overlap
     ethr =  5.76E-06,  avg # of iterations =  1.0

     negative rho (up, down):  1.508E+00 0.000E+00
 
     Adding external electric field

     Computed dipole along edir(3) : 
        Dipole               -0.3655 Ry au,         -0.9290 Debye
        Dipole field         -0.0011 Ry au
 
        Potential amp.        0.0978 Ry
        Total length         45.0345 bohr
 

     total cpu time spent up to now is      226.9 secs

     total energy              =   -2408.71844202 Ry
     Harris-Foulkes estimate   =   -2408.72163533 Ry
     estimated scf accuracy    <       0.00864095 Ry

     iteration # 14     ecut=    36.75 Ry     beta=0.30
     Davidson diagonalization with overlap
     ethr =  4.41E-06,  avg # of iterations =  3.4

     negative rho (up, down):  1.508E+00 0.000E+00
 
     Adding external electric field

     Computed dipole along edir(3) : 
        Dipole               -0.3332 Ry au,         -0.8470 Debye
        Dipole field         -0.0010 Ry au
 
        Potential amp.        0.0892 Ry
        Total length         45.0345 bohr
 

     total cpu time spent up to now is      241.1 secs

     total energy              =   -2408.71899649 Ry
     Harris-Foulkes estimate   =   -2408.71921310 Ry
     estimated scf accuracy    <       0.00181969 Ry

     iteration # 15     ecut=    36.75 Ry     beta=0.30
     Davidson diagonalization with overlap
     ethr =  9.28E-07,  avg # of iterations =  3.3

     negative rho (up, down):  1.509E+00 0.000E+00
 
     Adding external electric field

     Computed dipole along edir(3) : 
        Dipole               -0.2883 Ry au,         -0.7327 Debye
        Dipole field         -0.0009 Ry au
 
        Potential amp.        0.0772 Ry
        Total length         45.0345 bohr
 

     total cpu time spent up to now is      255.0 secs

     total energy              =   -2408.71911062 Ry
     Harris-Foulkes estimate   =   -2408.71922819 Ry
     estimated scf accuracy    <       0.00092519 Ry

     iteration # 16     ecut=    36.75 Ry     beta=0.30
     Davidson diagonalization with overlap
     ethr =  4.72E-07,  avg # of iterations =  3.9

     negative rho (up, down):  1.510E+00 0.000E+00
 
     Adding external electric field

     Computed dipole along edir(3) : 
        Dipole               -0.2451 Ry au,         -0.6229 Debye
        Dipole field         -0.0007 Ry au
 
        Potential amp.        0.0656 Ry
        Total length         45.0345 bohr
 

     total cpu time spent up to now is      269.4 secs

     total energy              =   -2408.71913707 Ry
     Harris-Foulkes estimate   =   -2408.71930224 Ry
     estimated scf accuracy    <       0.00405168 Ry

     iteration # 17     ecut=    36.75 Ry     beta=0.30
     Davidson diagonalization with overlap
     ethr =  4.72E-07,  avg # of iterations =  3.1

     negative rho (up, down):  1.510E+00 0.000E+00
 
     Adding external electric field

     Computed dipole along edir(3) : 
        Dipole               -0.2322 Ry au,         -0.5901 Debye
        Dipole field         -0.0007 Ry au
 
        Potential amp.        0.0621 Ry
        Total length         45.0345 bohr
 

     total cpu time spent up to now is      282.7 secs

     total energy              =   -2408.71919966 Ry
     Harris-Foulkes estimate   =   -2408.71923974 Ry
     estimated scf accuracy    <       0.00010440 Ry

     iteration # 18     ecut=    36.75 Ry     beta=0.30
     Davidson diagonalization with overlap
     ethr =  5.33E-08,  avg # of iterations =  4.6

     negative rho (up, down):  1.510E+00 0.000E+00
 
     Adding external electric field

     Computed dipole along edir(3) : 
        Dipole               -0.2325 Ry au,         -0.5911 Debye
        Dipole field         -0.0007 Ry au
 
        Potential amp.        0.0622 Ry
[...]
    -0.2081  -0.1119  -0.0379  -0.0125   0.2303   0.3288   0.5732   0.6100
     0.6867   0.7543   0.8051   0.9592   1.0891   1.2414   1.5471   1.7716
     1.8063   1.8643   2.0034   2.0567   2.1531   2.2874   2.4284   2.6611
     3.0224   3.1623   3.3232   3.4618   3.5611   3.8521   3.9292   4.0021
     4.2108   4.2672   4.3956   4.8175

          k = 0.0613-0.0354 0.0000 ( 15905 PWs)   bands (ev):

   -84.0411 -84.0025 -83.9826 -83.9741 -83.7496 -83.7142 -83.7058 -83.5316
   -83.5028 -83.5022 -83.4903 -83.4822 -43.6461 -43.6399 -43.5970 -43.5600
   -43.4987 -43.4729 -43.4570 -43.3155 -43.2488 -43.2469 -43.1746 -43.1481
   -43.1372 -43.0823 -43.0051 -42.9984 -42.9893 -42.9870 -42.9479 -42.9424
   -42.9094 -42.8578 -42.8399 -42.7800 -42.7551 -42.7352 -42.7232 -42.7174
   -42.7043 -42.6674 -42.6662 -42.6560 -42.5782 -42.5686 -42.5316 -42.4440
    -8.6878  -5.5872  -4.2097  -3.6485  -3.4560  -3.3094  -3.2627  -3.1998
    -3.1016  -2.9834  -2.7892  -2.6178  -2.5754  -2.2994  -1.9968  -1.7702
    -1.6037  -1.4887  -1.1443  -0.9436  -0.8199  -0.7877  -0.6141  -0.3390
    -0.3042  -0.1714  -0.0242   0.1447   0.2534   0.3217   0.5221   0.5580
     0.6439   0.7842   0.8172   0.9212   1.0427   1.0988   1.4313   1.5771
     1.6058   1.7049   1.7461   1.8011   1.9925   2.2212   2.3386   2.5932
     2.7840   3.0618   3.1689   3.3081   3.3276   3.6278   3.6643   3.8529
     3.8602   4.0719   4.3410   4.3855

          k = 0.0613 0.0000 0.0000 ( 15900 PWs)   bands (ev):

   -84.0436 -84.0009 -83.9826 -83.9733 -83.7515 -83.7121 -83.7062 -83.5349
   -83.5023 -83.4972 -83.4935 -83.4810 -43.6764 -43.6318 -43.6190 -43.6092
   -43.5118 -43.4759 -43.4664 -43.3149 -43.2683 -43.1893 -43.1526 -43.1358
   -43.1316 -43.1133 -43.0181 -43.0044 -42.9945 -42.9839 -42.9598 -42.9473
   -42.9150 -42.8504 -42.8076 -42.7859 -42.7781 -42.7306 -42.7228 -42.7125
   -42.6976 -42.6833 -42.6328 -42.5787 -42.5765 -42.5676 -42.5363 -42.4364
    -8.7564  -5.7877  -3.9799  -3.7974  -3.7436  -3.5112  -3.4508  -3.2772
    -3.2158  -3.0491  -2.8803  -2.8296  -2.7005  -2.3440  -2.2514  -1.8954
    -1.6531  -1.4502  -1.0555  -0.9294  -0.7954  -0.5869  -0.4521  -0.2600
    -0.2080  -0.1118  -0.0379  -0.0121   0.2300   0.3289   0.5732   0.6100
     0.6862   0.7542   0.8052   0.9594   1.0896   1.2413   1.5470   1.7706
     1.8064   1.8645   2.0037   2.0565   2.1533   2.2872   2.4282   2.6616
     3.0219   3.1622   3.3228   3.4623   3.5608   3.8517   3.9296   4.0021
     4.2108   4.2671   4.3958   4.8174

          k = 0.0613 0.0354 0.0000 ( 15905 PWs)   bands (ev):

   -84.0411 -84.0026 -83.9825 -83.9741 -83.7496 -83.7139 -83.7061 -83.5316
   -83.5028 -83.5022 -83.4904 -83.4821 -43.6462 -43.6398 -43.5970 -43.5600
   -43.4987 -43.4726 -43.4574 -43.3155 -43.2488 -43.2468 -43.1746 -43.1478
   -43.1373 -43.0822 -43.0049 -42.9984 -42.9892 -42.9870 -42.9479 -42.9426
   -42.9094 -42.8577 -42.8396 -42.7800 -42.7553 -42.7352 -42.7233 -42.7174
   -42.7042 -42.6674 -42.6663 -42.6560 -42.5782 -42.5686 -42.5316 -42.4440
    -8.6876  -5.5872  -4.2097  -3.6484  -3.4564  -3.3096  -3.2631  -3.1998
    -3.1011  -2.9835  -2.7893  -2.6176  -2.5755  -2.2996  -1.9964  -1.7700
    -1.6042  -1.4883  -1.1441  -0.9435  -0.8201  -0.7883  -0.6138  -0.3393
    -0.3041  -0.1711  -0.0242   0.1451   0.2526   0.3221   0.5218   0.5576
     0.6442   0.7838   0.8181   0.9217   1.0430   1.0983   1.4312   1.5771
     1.6056   1.7050   1.7463   1.8009   1.9925   2.2214   2.3392   2.5927
     2.7843   3.0613   3.1689   3.3084   3.3274   3.6278   3.6643   3.8527
     3.8604   4.0722   4.3407   4.3855

          k = 0.0613-0.1415 0.0000 ( 15922 PWs)   bands (ev):

   -84.0357 -84.0034 -83.9888 -83.9724 -83.7453 -83.7176 -83.7063 -83.5227
   -83.5078 -83.5028 -83.4962 -83.4800 -43.6037 -43.5611 -43.5532 -43.4984
   -43.4616 -43.4525 -43.4429 -43.3852 -43.3003 -43.2772 -43.2031 -43.1488
   -43.0871 -43.0804 -43.0340 -43.0019 -42.9791 -42.9503 -42.9337 -42.9149
   -42.8859 -42.8654 -42.8356 -42.8062 -42.7826 -42.7630 -42.7376 -42.7297
   -42.7174 -42.7064 -42.6814 -42.6523 -42.6139 -42.5935 -42.5329 -42.4813
    -8.5439  -5.0269  -4.2482  -3.5950  -3.2618  -3.0622  -2.8862  -2.7755
    -2.7096  -2.5818  -2.4976  -2.3170  -2.0845  -1.9675  -1.8820  -1.7377
    -1.5313  -1.4219  -1.2595  -1.1616  -1.0585  -0.9095  -0.7872  -0.6075
    -0.5210  -0.3021  -0.1905  -0.0378   0.0689   0.1876   0.2801   0.3293
     0.4170   0.5180   0.5959   0.6685   0.8546   0.9665   1.1470   1.1850
     1.3544   1.4216   1.6521   1.8508   2.0356   2.1949   2.2661   2.3612
     2.5685   2.7442   2.8477   3.0335   3.2491   3.4332   3.5691   3.8204
     3.8562   4.0423   4.1983   4.2527

          k = 0.0613-0.1061 0.0000 ( 15972 PWs)   bands (ev):

   -84.0328 -83.9985 -83.9979 -83.9711 -83.7427 -83.7197 -83.7065 -83.5125
   -83.5118 -83.5039 -83.5030 -83.4784 -43.5417 -43.5194 -43.5037 -43.4903
   -43.4628 -43.4250 -43.4224 -43.4109 -43.4050 -43.3012 -43.1949 -43.1250
   -43.1017 -43.0740 -43.0382 -42.9875 -42.9657 -42.9415 -42.9171 -42.9139
   -42.8806 -42.8564 -42.8328 -42.8097 -42.8085 -42.8067 -42.7665 -42.7316
   -42.7193 -42.7138 -42.6828 -42.6499 -42.6304 -42.5474 -42.5448 -42.5439
    -8.4686  -4.4462  -4.1668  -4.0040  -3.2318  -2.7746  -2.6269  -2.4030
    -2.3126  -2.2592  -2.1893  -2.1230  -2.0626  -1.8313  -1.7896  -1.7422
    -1.7126  -1.3665  -1.3323  -1.2919  -1.0923  -1.0881  -0.9660  -0.6170
    -0.5287  -0.4681  -0.3802  -0.3613  -0.2605  -0.2022  -0.1763  -0.0962
     0.2847   0.5531   0.7035   0.7122   0.7142   0.9689   0.9732   1.0731
     1.3287   1.3918   1.7087   1.8676   1.9494   2.0948   2.3531   2.4855
     2.6606   2.7100   3.0085   3.2477   3.3444   3.5375   3.8044   3.9513
     4.0901   4.1669   4.1858   4.2428

          k = 0.0613-0.0707 0.0000 ( 15922 PWs)   bands (ev):

   -84.0357 -84.0034 -83.9889 -83.9724 -83.7453 -83.7178 -83.7061 -83.5227
   -83.5078 -83.5028 -83.4961 -83.4800 -43.6037 -43.5610 -43.5532 -43.4987
   -43.4616 -43.4526 -43.4426 -43.3852 -43.3002 -43.2773 -43.2032 -43.1490
   -43.0871 -43.0802 -43.0341 -43.0020 -42.9790 -42.9502 -42.9338 -42.9147
   -42.8861 -42.8654 -42.8358 -42.8059 -42.7825 -42.7630 -42.7376 -42.7297
   -42.7173 -42.7065 -42.6813 -42.6523 -42.6139 -42.5935 -42.5329 -42.4813
    -8.5441  -5.0268  -4.2483  -3.5946  -3.2618  -3.0620  -2.8857  -2.7759
    -2.7095  -2.5818  -2.4977  -2.3171  -2.0849  -1.9676  -1.8820  -1.7372
    -1.5309  -1.4220  -1.2592  -1.1618  -1.0583  -0.9095  -0.7877  -0.6073
    -0.5209  -0.3022  -0.1903  -0.0370   0.0688   0.1870   0.2804   0.3288
     0.4170   0.5180   0.5964   0.6684   0.8544   0.9665   1.1473   1.1849
     1.3542   1.4218   1.6519   1.8501   2.0358   2.1947   2.2660   2.3610
     2.5690   2.7447   2.8475   3.0338   3.2493   3.4331   3.5690   3.8198
     3.8562   4.0419   4.1982   4.2527

          k =-0.0919 0.0531 0.0000 ( 15968 PWs)   bands (ev):

   -84.0352 -84.0060 -83.9851 -83.9741 -83.7452 -83.7182 -83.7058 -83.5196
   -83.5143 -83.5028 -83.4903 -83.4824 -43.5961 -43.5941 -43.5586 -43.5023
   -43.4609 -43.4396 -43.3719 -43.3587 -43.3389 -43.2991 -43.2452 -43.1516
   -43.0890 -43.0504 -43.0228 -42.9963 -42.9904 -42.9546 -42.9409 -42.9208
   -42.8851 -42.8675 -42.7898 -42.7788 -42.7733 -42.7624 -42.7477 -42.7317
   -42.7235 -42.7084 -42.7005 -42.6804 -42.6681 -42.5789 -42.4895 -42.4866
    -8.5445  -4.8977  -4.6275  -3.5159  -3.1356  -2.9768  -2.8218  -2.7603
    -2.7490  -2.6898  -2.5835  -2.1291  -2.0717  -1.9090  -1.8192  -1.6961
    -1.6316  -1.5430  -1.3047  -1.1640  -1.0686  -0.8647  -0.8419  -0.5240
    -0.4242  -0.2674  -0.0500   0.0292   0.2076   0.2400   0.3052   0.4622
     0.5348   0.6285   0.7352   0.7542   0.8170   0.8554   0.9209   1.0015
     1.0240   1.4116   1.8109   1.8942   1.9487   2.0042   2.3806   2.4351
     2.4953   2.5642   2.6532   2.9864   3.0115   3.1139   3.3136   3.4494
     3.6320   3.7836   3.8861   4.3274

          k =-0.0919 0.0884 0.0000 ( 15922 PWs)   bands (ev):

   -84.0357 -84.0032 -83.9891 -83.9723 -83.7453 -83.7176 -83.7063 -83.5227
   -83.5077 -83.5028 -83.4963 -83.4800 -43.6037 -43.5612 -43.5531 -43.4987
   -43.4617 -43.4528 -43.4423 -43.3852 -43.3001 -43.2776 -43.2032 -43.1490
   -43.0872 -43.0801 -43.0340 -43.0017 -42.9791 -42.9503 -42.9337 -42.9147
   -42.8861 -42.8657 -42.8358 -42.8060 -42.7825 -42.7630 -42.7374 -42.7299
   -42.7173 -42.7063 -42.6814 -42.6523 -42.6139 -42.5935 -42.5329 -42.4813
    -8.5440  -5.0269  -4.2482  -3.5948  -3.2617  -3.0621  -2.8857  -2.7757
    -2.7098  -2.5816  -2.4978  -2.3171  -2.0850  -1.9673  -1.8819  -1.7374
    -1.5310  -1.4224  -1.2591  -1.1619  -1.0578  -0.9095  -0.7879  -0.6076
    -0.5206  -0.3023  -0.1903  -0.0371   0.0688   0.1870   0.2807   0.3288
     0.4167   0.5179   0.5963   0.6688   0.8550   0.9667   1.1470   1.1849
     1.3538   1.4218   1.6517   1.8498   2.0359   2.1951   2.2657   2.3606
     2.5689   2.7451   2.8473   3.0343   3.2490   3.4329   3.5690   3.8194
     3.8563   4.0423   4.1982   4.2528

          k =-0.0919 0.1238 0.0000 ( 15922 PWs)   bands (ev):

   -84.0357 -84.0033 -83.9890 -83.9724 -83.7454 -83.7174 -83.7064 -83.5228
   -83.5076 -83.5028 -83.4963 -83.4799 -43.6037 -43.5611 -43.5532 -43.4985
   -43.4617 -43.4529 -43.4423 -43.3852 -43.3001 -43.2776 -43.2030 -43.1489
   -43.0871 -43.0802 -43.0341 -43.0019 -42.9789 -42.9504 -42.9337 -42.9148
   -42.8860 -42.8654 -42.8357 -42.8062 -42.7826 -42.7630 -42.7374 -42.7298
   -42.7174 -42.7063 -42.6814 -42.6523 -42.6139 -42.5935 -42.5329 -42.4813
    -8.5439  -5.0270  -4.2481  -3.5951  -3.2618  -3.0621  -2.8863  -2.7754
    -2.7096  -2.5816  -2.4976  -2.3169  -2.0849  -1.9676  -1.8815  -1.7376
    -1.5312  -1.4221  -1.2594  -1.1617  -1.0579  -0.9099  -0.7875  -0.6074
    -0.5208  -0.3024  -0.1902  -0.0380   0.0692   0.1878   0.2806   0.3291
     0.4166   0.5179   0.5956   0.6688   0.8558   0.9661   1.1470   1.1850
     1.3540   1.4220   1.6518   1.8500   2.0359   2.1951   2.2659   2.3607
     2.5683   2.7451   2.8473   3.0338   3.2485   3.4334   3.5690   3.8199
     3.8563   4.0424   4.1982   4.2528

          k =-0.0919-0.0531 0.0000 ( 15968 PWs)   bands (ev):

   -84.0352 -84.0060 -83.9850 -83.9741 -83.7453 -83.7179 -83.7061 -83.5197
   -83.5142 -83.5028 -83.4904 -83.4824 -43.5962 -43.5939 -43.5587 -43.5020
   -43.4609 -43.4400 -43.3718 -43.3587 -43.3388 -43.2991 -43.2453 -43.1510
   -43.0893 -43.0503 -43.0229 -42.9962 -42.9905 -42.9546 -42.9410 -42.9208
   -42.8850 -42.8671 -42.7899 -42.7788 -42.7733 -42.7624 -42.7480 -42.7318
   -42.7235 -42.7083 -42.7006 -42.6804 -42.6682 -42.5789 -42.4896 -42.4865
    -8.5443  -4.8981  -4.6270  -3.5161  -3.1359  -2.9775  -2.8223  -2.7599
    -2.7487  -2.6901  -2.5830  -2.1285  -2.0721  -1.9092  -1.8182  -1.6968
    -1.6307  -1.5439  -1.3051  -1.1641  -1.0689  -0.8642  -0.8417  -0.5254
    -0.4235  -0.2672  -0.0495   0.0292   0.2055   0.2400   0.3060   0.4625
     0.5350   0.6286   0.7352   0.7539   0.8169   0.8554   0.9200   1.0025
     1.0244   1.4128   1.8108   1.8943   1.9486   2.0040   2.3809   2.4348
     2.4958   2.5645   2.6510   2.9862   3.0119   3.1139   3.3138   3.4498
     3.6320   3.7838   3.8865   4.3271

     the Fermi energy is     3.0860 ev

!    total energy              =   -2408.85506394 Ry
     Harris-Foulkes estimate   =   -2408.85507295 Ry
     estimated scf accuracy    <       0.00000728 Ry

     The total energy is the sum of the following terms:

     one-electron contribution =  -22139.17973336 Ry
     hartree contribution      =   11053.12473087 Ry
     xc contribution           =    -468.34088469 Ry
     ewald contribution        =    9145.60538911 Ry
     electric field correction =       0.00000557 Ry
     smearing contrib. (-TS)   =      -0.06457145 Ry

     convergence has been achieved in  19 iterations
 
 BEEF-vdW xc energy contributions
           1 :   -410.330132065466     
           2 :    380.513579612470     
           3 :   -327.764203902394     
           4 :    263.422994894557     
           5 :   -199.787224418165     
           6 :    146.776674568892     
           7 :   -109.718397460563     
           8 :    88.7627378848157     
           9 :   -79.9394033405020     
          10 :    77.2917800048216     
          11 :   -75.2230398258917     
          12 :    70.2163777140425     
          13 :   -61.4614315831843     
          14 :    50.3888072531310     
          15 :   -39.5117660005250     
          16 :    31.1264243190148     
          17 :   -26.3748962646344     
          18 :    24.9511923698144     
          19 :   -25.4485467262371     
          20 :    26.0942732448600     
          21 :   -25.5137024691000     
          22 :    23.2069887226669     
          23 :   -19.5926626801481     
          24 :    15.6642842702165     
          25 :   -12.4621451529039     
          26 :    10.6062845938492     
          27 :   -10.0818481037887     
          28 :    10.3332993110488     
          29 :   -10.5869907761950     
          30 :    10.2286976875255     
          31 :   -38.9788618768716     
          32 :   -29.8276001662343     

     Forces acting on atoms (Ry/au):


     negative rho (up, down):  1.509E+00 0.000E+00
     atom    1 type  1   force =    -0.00004266   -0.01201783    0.03181871
     atom    2 type  1   force =     0.00002763    0.00003962    0.01242279
     atom    3 type  1   force =     0.01043587    0.00599046    0.03190439
     atom    4 type  1   force =    -0.01044089    0.00595363    0.03200637
     atom    5 type  1   force =     0.01595398    0.00914073   -0.02101657
     atom    6 type  1   force =    -0.01600896    0.00912743   -0.02116325
     atom    7 type  1   force =    -0.00004776   -0.01836191   -0.02108978
     atom    8 type  1   force =     0.00003812    0.00006794   -0.04435165
     atom    9 type  1   force =    -0.00064526    0.00065676   -0.00069140
     atom   10 type  1   force =     0.00046350    0.00006347   -0.00044764
     atom   11 type  1   force =    -0.00029422   -0.00018608   -0.00026685
     atom   12 type  1   force =     0.00043339   -0.00015265    0.00013894
     atom   13 type  2   force =     0.00012726   -0.00032156    0.00073594

     Total force =     0.089229     Total SCF correction =     0.017934
     SCF correction compared to forces is large: reduce conv_thr to get better values


     entering subroutine stress ...


     negative rho (up, down):  1.509E+00 0.000E+00
          total   stress  (Ry/bohr**3)                   (kbar)     P=  -13.84
  -0.00008282  -0.00000003   0.00000016        -12.18     -0.00      0.02
  -0.00000003  -0.00008318  -0.00000010         -0.00    -12.24     -0.02
   0.00000016  -0.00000010  -0.00011625          0.02     -0.02    -17.10

 !ASE

     Writing output data file calc.save
 
     init_run     :      5.28s CPU      7.25s WALL (       1 calls)
     electrons    :    251.33s CPU    312.42s WALL (       1 calls)
     forces       :      3.56s CPU      3.78s WALL (       1 calls)
     stress       :     13.84s CPU     14.64s WALL (       1 calls)

     Called by init_run:
     wfcinit      :      3.29s CPU      4.82s WALL (       1 calls)
     potinit      :      0.39s CPU      0.52s WALL (       1 calls)

     Called by electrons:
     c_bands      :    188.34s CPU    235.40s WALL (      19 calls)
     sum_band     :     33.12s CPU     40.27s WALL (      19 calls)
     v_of_rho     :      5.12s CPU      7.45s WALL (      20 calls)
     newd         :     17.45s CPU     18.11s WALL (      20 calls)
     mix_rho      :      0.21s CPU      0.31s WALL (      19 calls)
     vdW_energy   :      2.54s CPU      2.92s WALL (      56 calls)
     vdW_ffts     :      5.19s CPU      9.16s WALL (     114 calls)
     vdW_v        :      1.63s CPU      2.24s WALL (      56 calls)

     Called by c_bands:
     init_us_2    :      2.10s CPU      2.09s WALL (     820 calls)
     cegterg      :    173.72s CPU    219.47s WALL (     380 calls)

     Called by *egterg:
     h_psi        :     73.02s CPU    108.48s WALL (    1797 calls)
     s_psi        :     11.69s CPU     11.71s WALL (    1797 calls)
     g_psi        :      0.50s CPU      0.51s WALL (    1397 calls)
     cdiaghg      :     60.13s CPU     60.82s WALL (    1777 calls)

     Called by h_psi:
     add_vuspsi   :     13.25s CPU     13.29s WALL (    1797 calls)

     General routines
     calbec       :     19.63s CPU     22.37s WALL (    2217 calls)
     fft          :      7.78s CPU     13.85s WALL (    3423 calls)
     ffts         :      0.02s CPU      0.05s WALL (      39 calls)
     fftw         :     48.06s CPU     87.93s WALL (  245490 calls)
     interpolate  :      0.11s CPU      0.20s WALL (      39 calls)
     davcio       :      0.00s CPU      0.05s WALL (      20 calls)
 
     Parallel routines
     fft_scatter  :     35.38s CPU     80.48s WALL (  248952 calls)
 
     PWSCF        :  4m34.49s CPU     5m39.01s WALL

 
   This run was terminated on:   5: 5:20  18Jan2018            

=------------------------------------------------------------------------------=
   JOB DONE.
=------------------------------------------------------------------------------=
Job  /afs/slac/g/suncat/bin/suncat-tsmpirun -x LD_LIBRARY_PATH -wdir /scratch/qe842464_NPY18 pw.x -in pw.inp

TID   HOST_NAME   COMMAND_LINE            STATUS            TERMINATION_TIME
===== ========== ================  =======================  ===================
00000 suncat2041 pw.x -in pw.inp   Done                     01/18/2018 05:05:20
00001 suncat2041 pw.x -in pw.inp   Done                     01/18/2018 05:05:20
00002 suncat2041 pw.x -in pw.inp   Done                     01/18/2018 05:05:20
00003 suncat2041 pw.x -in pw.inp   Done                     01/18/2018 05:05:20
00004 suncat2041 pw.x -in pw.inp   Done                     01/18/2018 05:05:20
00005 suncat2041 pw.x -in pw.inp   Done                     01/18/2018 05:05:20
00006 suncat2041 pw.x -in pw.inp   Done                     01/18/2018 05:05:20
00007 suncat2041 pw.x -in pw.inp   Done                     01/18/2018 05:05:20
00008 suncat2041 pw.x -in pw.inp   Done                     01/18/2018 05:05:20
00009 suncat2041 pw.x -in pw.inp   Done                     01/18/2018 05:05:20
00010 suncat2041 pw.x -in pw.inp   Done                     01/18/2018 05:05:20
00011 suncat2041 pw.x -in pw.inp   Done                     01/18/2018 05:05:20
00012 suncat2041 pw.x -in pw.inp   Done                     01/18/2018 05:05:20
00013 suncat2041 pw.x -in pw.inp   Done                     01/18/2018 05:05:20
00014 suncat2041 pw.x -in pw.inp   Done                     01/18/2018 05:05:20
00015 suncat2041 pw.x -in pw.inp   Done                     01/18/2018 05:05:20
00016 suncat2040 pw.x -in pw.inp   Done                     01/18/2018 05:05:20
00017 suncat2040 pw.x -in pw.inp   Done                     01/18/2018 05:05:20
00018 suncat2040 pw.x -in pw.inp   Done                     01/18/2018 05:05:20
00019 suncat2040 pw.x -in pw.inp   Done                     01/18/2018 05:05:20
00020 suncat2040 pw.x -in pw.inp   Done                     01/18/2018 05:05:20
00021 suncat2040 pw.x -in pw.inp   Done                     01/18/2018 05:05:20
00022 suncat2040 pw.x -in pw.inp   Done                     01/18/2018 05:05:20
00023 suncat2040 pw.x -in pw.inp   Done                     01/18/2018 05:05:20
00024 suncat2040 pw.x -in pw.inp   Done                     01/18/2018 05:05:20
00025 suncat2040 pw.x -in pw.inp   Done                     01/18/2018 05:05:20
00026 suncat2040 pw.x -in pw.inp   Done                     01/18/2018 05:05:20
00027 suncat2040 pw.x -in pw.inp   Done                     01/18/2018 05:05:20
00028 suncat2040 pw.x -in pw.inp   Done                     01/18/2018 05:05:20
00029 suncat2040 pw.x -in pw.inp   Done                     01/18/2018 05:05:20
00030 suncat2040 pw.x -in pw.inp   Done                     01/18/2018 05:05:20
00031 suncat2040 pw.x -in pw.inp   Done                     01/18/2018 05:05:20
