  python dir          : /u/if/mamunm/src/espresso
  espresso dir        : /nfs/slac/g/suncatfs/sw/espv18/espresso-dynpy-beef/bin
  pseudo dir          : /u/if/mamunm/psp/gbrv1.5pbe
  ase-espresso py git : GITVERSION



     Program PWSCF v.5.1rc2 (svn rev. 11289) starts on  2May2018 at 16:32:28 

     This program is part of the open-source Quantum ESPRESSO suite
     for quantum simulation of materials; please cite
         "P. Giannozzi et al., J. Phys.:Condens. Matter 21 395502 (2009);
          URL http://www.quantum-espresso.org", 
     in publications or presentations arising from this work. More details at
     http://www.quantum-espresso.org/quote

     Parallel version (MPI), running on    32 processors
     K-points division:     npool     =       4
     R & G space division:  proc/nbgrp/npool/nimage =       8
     Reading input from pw.inp
     Message from routine read_cards :
     DEPRECATED: no units specified in CELL_PARAMETERS card

     Current dimensions of program PWSCF are:
     Max number of different atomic species (ntypx) = 10
     Max number of k-points (npk) =  40000
     Max angular momentum in pseudopotentials (lmaxx) =  3
     Presently stress not available with electric field


     **************************************************************************
     Initializing libbeef V0.1.1 with the BEEF-vdW functional.
     Citation: Wellendorff et al., PRB 85, 235149 (2012).
     **************************************************************************


     IMPORTANT: XC functional enforced from input :
     Exchange-correlation      = BEEF-VDW ( 1  4 27 13 2)
     Any further DFT definition will be discarded
     Please, verify this is what you really want


     Subspace diagonalization in iterative solution of the eigenvalue problem:
     a serial algorithm will be used

 
     Parallelization info
     --------------------
     sticks:   dense  smooth     PW     G-vecs:    dense   smooth      PW
     Min         339     133     39                63987    16111    2561
     Max         340     134     40                64016    16172    2582
     Sum        2713    1069    313               511963   129143   20533
 


     bravais-lattice index     =            0
     lattice parameter (alat)  =       1.8897  a.u.
     unit-cell volume          =    4301.6107 (a.u.)^3
     number of atoms/cell      =           13
     number of atomic types    =            2
     number of electrons       =       185.00
     number of Kohn-Sham states=          102
     kinetic-energy cutoff     =      36.7493  Ry
     charge density cutoff     =     367.4932  Ry
     convergence threshold     =      1.0E-05
     mixing beta               =       0.3000
     number of iterations used =           10  plain     mixing
     Exchange-correlation      = BEEF-VDW ( 1  4 27 13 2)
     nstep                     =           50


     celldm(1)=   1.889726  celldm(2)=   0.000000  celldm(3)=   0.000000
     celldm(4)=   0.000000  celldm(5)=   0.000000  celldm(6)=   0.000000

     crystal axes: (cart. coord. in units of alat)
               a(1) = (   5.483647   0.000000   0.000000 )  
               a(2) = (   2.741823   4.748977   0.000000 )  
               a(3) = (   0.000000   0.000000  24.477379 )  

     reciprocal axes: (cart. coord. in units 2 pi/alat)
               b(1) = (  0.182360 -0.105286  0.000000 )  
               b(2) = (  0.000000  0.210572  0.000000 )  
               b(3) = (  0.000000  0.000000  0.040854 )  


     PseudoPot. # 1 for Tc read from file:
     /u/if/mamunm/psp/gbrv1.5pbe/Tc.UPF
     MD5 check sum: 9eb49e5b028550b2339a02317eb7b844
     Pseudo is Ultrasoft + core correction, Zval = 15.0
     Generated by new atomic code, or converted to UPF format
     Using radial grid of  965 points,  6 beta functions with: 
                l(1) =   0
                l(2) =   0
                l(3) =   1
                l(4) =   1
                l(5) =   2
                l(6) =   2
     Q(r) pseudized with  8 coefficients,  rinner =    1.300   1.300   1.300
                                                       1.300   1.300

     PseudoPot. # 2 for N  read from file:
     /u/if/mamunm/psp/gbrv1.5pbe/N.UPF
     MD5 check sum: 95339753478d7afb44899504a8723017
     Pseudo is Ultrasoft + core correction, Zval =  5.0
     Generated by new atomic code, or converted to UPF format
     Using radial grid of  729 points,  4 beta functions with: 
                l(1) =   0
                l(2) =   0
                l(3) =   1
                l(4) =   1
     Q(r) pseudized with  8 coefficients,  rinner =    0.900   0.900   0.900


     vdW kernel table read from file vdW_kernel_table
     MD5 check sum: 095c7af220d748ca6e76c0b4c6cfb241

     atomic species   valence    mass     pseudopotential
        Tc1           15.00    97.90721     Tc( 1.00)
        N1             5.00    14.00700     N ( 1.00)

     No symmetry found



   Cartesian axes

     site n.     atom                  positions (alat units)
         1           Tc1 tau(   1) = (   1.3709117   0.7914962  10.0000000  )
         2           Tc1 tau(   2) = (   4.1127351   0.7914962  10.0000000  )
         3           Tc1 tau(   3) = (   2.7418234   3.1659850  10.0000000  )
         4           Tc1 tau(   4) = (   5.4836469   3.1659850  10.0000000  )
         5           Tc1 tau(   5) = (   5.4836469   1.5829925  12.2386895  )
         6           Tc1 tau(   6) = (   2.7418234   1.5829925  12.2386895  )
         7           Tc1 tau(   7) = (   6.8545586   3.9574812  12.2386895  )
         8           Tc1 tau(   8) = (   4.1127351   3.9574812  12.2386895  )
         9           Tc1 tau(   9) = (   0.0000000   0.0000000  14.4773789  )
        10           Tc1 tau(  10) = (   2.7418234   0.0000000  14.4773789  )
        11           Tc1 tau(  11) = (   1.3709117   2.3744887  14.4773789  )
        12           Tc1 tau(  12) = (   4.1127351   2.3744887  14.4773789  )
        13           N1  tau(  13) = (   1.3709117   0.0000000  16.1123789  )

     number of k points=    20  Fermi-Dirac smearing, width (Ry)=  0.0110
                       cart. coord. in units 2pi/alat
        k(    1) = (   0.0000000   0.0000000   0.0000000), wk =   0.0555556
        k(    2) = (   0.0000000   0.0350953   0.0000000), wk =   0.1111111
        k(    3) = (   0.0000000   0.0701905   0.0000000), wk =   0.1111111
        k(    4) = (   0.0000000  -0.1052858   0.0000000), wk =   0.0555556
        k(    5) = (   0.0303934  -0.0175476   0.0000000), wk =   0.1111111
        k(    6) = (   0.0303934   0.0175476   0.0000000), wk =   0.1111111
        k(    7) = (   0.0303934   0.0526429   0.0000000), wk =   0.1111111
        k(    8) = (   0.0303934  -0.1228335   0.0000000), wk =   0.1111111
        k(    9) = (   0.0303934  -0.0877382   0.0000000), wk =   0.1111111
        k(   10) = (   0.0303934  -0.0526429   0.0000000), wk =   0.1111111
        k(   11) = (   0.0607868  -0.0350953   0.0000000), wk =   0.1111111
        k(   12) = (   0.0607868   0.0000000   0.0000000), wk =   0.1111111
        k(   13) = (   0.0607868   0.0350953   0.0000000), wk =   0.1111111
        k(   14) = (   0.0607868  -0.1403811   0.0000000), wk =   0.1111111
        k(   15) = (   0.0607868  -0.1052858   0.0000000), wk =   0.1111111
        k(   16) = (   0.0607868  -0.0701905   0.0000000), wk =   0.1111111
        k(   17) = (  -0.0911802   0.0526429   0.0000000), wk =   0.0555556
        k(   18) = (  -0.0911802   0.0877382   0.0000000), wk =   0.1111111
        k(   19) = (  -0.0911802   0.1228335   0.0000000), wk =   0.1111111
        k(   20) = (  -0.0911802  -0.0526429   0.0000000), wk =   0.0555556

     Dense  grid:   511963 G-vectors     FFT dimensions: (  64,  64, 288)

     Smooth grid:   129143 G-vectors     FFT dimensions: (  40,  40, 180)

     Largest allocated arrays     est. size (Mb)     dimensions
        Kohn-Sham Wavefunctions         3.18 Mb     (    2045,  102)
        NL pseudopotentials             6.99 Mb     (    2045,  224)
        Each V/rho on FFT grid          2.25 Mb     (  147456)
        Each G-vector array             0.49 Mb     (   63995)
        G-vector shells                 0.13 Mb     (   17029)
     Largest temporary arrays     est. size (Mb)     dimensions
        Auxiliary wavefunctions        12.73 Mb     (    2045,  408)
        Each subspace H/S matrix        2.54 Mb     (     408,  408)
        Each <psi_i|beta_j> matrix      0.35 Mb     (     224,  102)
        Arrays for rho mixing          22.50 Mb     (  147456,   10)

     Check: negative/imaginary core charge=   -0.000022    0.000000

     Initial potential from superposition of free atoms
     Check: negative starting charge=   -1.504989

     starting charge  172.99966, renormalised to  185.00000

     negative rho (up, down):  1.609E+00 0.000E+00


     ************************************************************************
     *
     * You are using vdW-DF for exchange-correlation in this calculation.
     * Please cite the following three references that made this development
     * possible:
     *
     *   M. Dion, H. Rydberg, E. Schroder, D. C. Langreth, and
     *   B. I. Lundqvist, Phys. Rev. Lett. 92, 246401 (2004).
     *
     *   T. Thonhauser, V. R. Cooper, S. Li, A. Puzder, P. Hyldgaard, and
     *   D. C. Langreth, Phys. Rev. B 76, 125112 (2007).
     *
     *   G. Roman-Perez and J. M. Soler, Phys. Rev. Lett. 103, 096102 (2009).
     *
     *
     * If you are using vdW-DF2, please also cite:
     *
     *   K. Lee, E. D. Murray, L. Kong, B. I. Lundqvist, and
     *   D. C. Langreth, Phys. Rev. B 82, 081101(R) (2010).
     *
     *
     * If you are calculating the stress with vdW-DF, please also cite:
     *
     *   R. Sabatini, E. Kucukbenli, B. Kolb, T. Thonhauser, and
     *   S. de Gironcoli, J. Phys.: Condens. Matter 24, 424209 (2012).
     *
     ************************************************************************

     Carrying out vdW-DF run using the following parameters:

     Nqs =      20    Nr_points =    1024   r_max =   100.000
     q_mesh =
               0.00001000     0.04494208     0.09755937     0.15916263
               0.23128650     0.31572767     0.41458969     0.53033537
               0.66584808     0.82450364     1.01025438     1.22772762
               1.48234092     1.78043706     2.12944203     2.53805004
               3.01644009     3.57652955     4.23227104     5.00000000

     Gradients computed in reciprocal space

     ************************************************************************


 
     Adding external electric field

     Computed dipole along edir(3) : 
        Dipole               -2.5388 Ry au,         -6.4530 Debye
        Dipole field         -0.0074 Ry au
 
        Potential amp.        0.6690 Ry
        Total length         45.0992 bohr
 
     Starting wfc are  160 randomized atomic wfcs

     total cpu time spent up to now is       10.7 secs

     per-process dynamical memory:    74.2 Mb

     Self-consistent Calculation

     iteration #  1     ecut=    36.75 Ry     beta=0.30
     Davidson diagonalization with overlap
     ethr =  1.00E-02,  avg # of iterations =  5.0

     negative rho (up, down):  1.600E+00 0.000E+00
 
     Adding external electric field

     Computed dipole along edir(3) : 
        Dipole               47.9168 Ry au,        121.7923 Debye
        Dipole field          0.1400 Ry au
 
        Potential amp.      -12.6260 Ry
        Total length         45.0992 bohr
 

     total cpu time spent up to now is       29.5 secs

     total energy              =   -1989.88420776 Ry
     Harris-Foulkes estimate   =   -2124.74922743 Ry
     estimated scf accuracy    <     281.93325237 Ry

     iteration #  2     ecut=    36.75 Ry     beta=0.30
     Davidson diagonalization with overlap
     ethr =  1.00E-02,  avg # of iterations = 16.4

     negative rho (up, down):  1.574E+00 0.000E+00
 
     Adding external electric field

     Computed dipole along edir(3) : 
        Dipole                3.3995 Ry au,          8.6408 Debye
        Dipole field          0.0099 Ry au
 
        Potential amp.       -0.8958 Ry
        Total length         45.0992 bohr
 

     total cpu time spent up to now is       77.3 secs

     total energy              =   -1819.86786483 Ry
     Harris-Foulkes estimate   =   -2746.76519731 Ry
     estimated scf accuracy    <   18304.17603003 Ry

     iteration #  3     ecut=    36.75 Ry     beta=0.30
     Davidson diagonalization with overlap
     ethr =  1.00E-02,  avg # of iterations = 16.4

     negative rho (up, down):  1.577E+00 0.000E+00
 
     Adding external electric field

     Computed dipole along edir(3) : 
        Dipole                5.1968 Ry au,         13.2090 Debye
        Dipole field          0.0152 Ry au
 
        Potential amp.       -1.3693 Ry
        Total length         45.0992 bohr
 

     total cpu time spent up to now is      115.8 secs

     total energy              =   -2099.27711719 Ry
     Harris-Foulkes estimate   =   -2237.48519370 Ry
     estimated scf accuracy    <    1631.06688058 Ry

     iteration #  4     ecut=    36.75 Ry     beta=0.30
     Davidson diagonalization with overlap
     ethr =  1.00E-02,  avg # of iterations =  4.9

     negative rho (up, down):  1.591E+00 0.000E+00
 
     Adding external electric field

     Computed dipole along edir(3) : 
        Dipole                3.5380 Ry au,          8.9928 Debye
        Dipole field          0.0103 Ry au
 
        Potential amp.       -0.9323 Ry
        Total length         45.0992 bohr
 

     total cpu time spent up to now is      137.0 secs

     total energy              =   -2111.09175458 Ry
     Harris-Foulkes estimate   =   -2135.96744619 Ry
     estimated scf accuracy    <     481.20955843 Ry

     iteration #  5     ecut=    36.75 Ry     beta=0.30
     Davidson diagonalization with overlap
     ethr =  1.00E-02,  avg # of iterations =  5.8

     negative rho (up, down):  1.621E+00 0.000E+00
 
     Adding external electric field

     Computed dipole along edir(3) : 
        Dipole                3.6831 Ry au,          9.3614 Debye
        Dipole field          0.0108 Ry au
 
        Potential amp.       -0.9705 Ry
        Total length         45.0992 bohr
 

     total cpu time spent up to now is      159.4 secs

     total energy              =   -2124.30899736 Ry
     Harris-Foulkes estimate   =   -2129.29564524 Ry
     estimated scf accuracy    <      89.92954297 Ry

     iteration #  6     ecut=    36.75 Ry     beta=0.30
     Davidson diagonalization with overlap
     ethr =  1.00E-02,  avg # of iterations =  4.0

     negative rho (up, down):  1.581E+00 0.000E+00
 
     Adding external electric field

     Computed dipole along edir(3) : 
        Dipole                2.6600 Ry au,          6.7610 Debye
        Dipole field          0.0078 Ry au
 
        Potential amp.       -0.7009 Ry
        Total length         45.0992 bohr
 

     total cpu time spent up to now is      175.8 secs

     total energy              =   -2121.51672409 Ry
     Harris-Foulkes estimate   =   -2127.00685373 Ry
     estimated scf accuracy    <     179.72613300 Ry

     iteration #  7     ecut=    36.75 Ry     beta=0.30
     Davidson diagonalization with overlap
     ethr =  1.00E-02,  avg # of iterations =  4.0

     negative rho (up, down):  1.581E+00 0.000E+00
 
     Adding external electric field

     Computed dipole along edir(3) : 
        Dipole                2.6445 Ry au,          6.7216 Debye
        Dipole field          0.0077 Ry au
 
        Potential amp.       -0.6968 Ry
        Total length         45.0992 bohr
 

     total cpu time spent up to now is      191.6 secs

     total energy              =   -2124.26581659 Ry
     Harris-Foulkes estimate   =   -2124.27450211 Ry
     estimated scf accuracy    <       2.50262572 Ry

     iteration #  8     ecut=    36.75 Ry     beta=0.30
     Davidson diagonalization with overlap
     ethr =  1.35E-03,  avg # of iterations =  5.6

     negative rho (up, down):  1.572E+00 0.000E+00
 
     Adding external electric field

     Computed dipole along edir(3) : 
        Dipole                2.9812 Ry au,          7.5775 Debye
        Dipole field          0.0087 Ry au
 
        Potential amp.       -0.7855 Ry
        Total length         45.0992 bohr
 

     total cpu time spent up to now is      208.6 secs

     total energy              =   -2124.59696957 Ry
     Harris-Foulkes estimate   =   -2124.36923953 Ry
     estimated scf accuracy    <       3.30022751 Ry

     iteration #  9     ecut=    36.75 Ry     beta=0.30
     Davidson diagonalization with overlap
     ethr =  1.35E-03,  avg # of iterations =  5.0

     negative rho (up, down):  1.557E+00 0.000E+00
 
     Adding external electric field

     Computed dipole along edir(3) : 
        Dipole                3.2188 Ry au,          8.1813 Debye
        Dipole field          0.0094 Ry au
 
        Potential amp.       -0.8481 Ry
        Total length         45.0992 bohr
 

     total cpu time spent up to now is      225.6 secs

     total energy              =   -2124.92187786 Ry
     Harris-Foulkes estimate   =   -2124.89862319 Ry
     estimated scf accuracy    <      13.56773970 Ry

     iteration # 10     ecut=    36.75 Ry     beta=0.30
     Davidson diagonalization with overlap
     ethr =  1.35E-03,  avg # of iterations =  5.3

     negative rho (up, down):  1.554E+00 0.000E+00
 
     Adding external electric field

     Computed dipole along edir(3) : 
        Dipole                3.1888 Ry au,          8.1050 Debye
        Dipole field          0.0093 Ry au
 
        Potential amp.       -0.8402 Ry
        Total length         45.0992 bohr
 

     total cpu time spent up to now is      243.4 secs

     total energy              =   -2125.54655712 Ry
     Harris-Foulkes estimate   =   -2125.41680989 Ry
     estimated scf accuracy    <      21.45287167 Ry

     iteration # 11     ecut=    36.75 Ry     beta=0.30
     Davidson diagonalization with overlap
     ethr =  1.35E-03,  avg # of iterations =  1.2

     negative rho (up, down):  1.529E+00 0.000E+00
 
     Adding external electric field

     Computed dipole along edir(3) : 
        Dipole                2.6470 Ry au,          6.7279 Debye
        Dipole field          0.0077 Ry au
 
        Potential amp.       -0.6975 Ry
        Total length         45.0992 bohr
 

     total cpu time spent up to now is      257.6 secs

     total energy              =   -2126.64692985 Ry
     Harris-Foulkes estimate   =   -2125.59059497 Ry
     estimated scf accuracy    <      30.17491072 Ry

     iteration # 12     ecut=    36.75 Ry     beta=0.30
     Davidson diagonalization with overlap
     ethr =  1.35E-03,  avg # of iterations =  5.8

     negative rho (up, down):  1.680E+00 0.000E+00
 
     Adding external electric field

     Computed dipole along edir(3) : 
        Dipole               -0.3682 Ry au,         -0.9360 Debye
        Dipole field         -0.0011 Ry au
 
        Potential amp.        0.0970 Ry
        Total length         45.0992 bohr
 

     total cpu time spent up to now is      275.8 secs

     total energy              =   -2130.21844332 Ry
     Harris-Foulkes estimate   =   -2127.18749503 Ry
     estimated scf accuracy    <     112.41623731 Ry

     iteration # 13     ecut=    36.75 Ry     beta=0.30
     Davidson diagonalization with overlap
     ethr =  1.35E-03,  avg # of iterations =  5.4

     negative rho (up, down):  1.583E+00 0.000E+00
 
     Adding external electric field

     Computed dipole along edir(3) : 
        Dipole                0.2037 Ry au,          0.5179 Debye
        Dipole field          0.0006 Ry au
 
        Potential amp.       -0.0537 Ry
        Total length         45.0992 bohr
 

     total cpu time spent up to now is      295.5 secs

     total energy              =   -2130.13625631 Ry
     Harris-Foulkes estimate   =   -2131.46461756 Ry
     estimated scf accuracy    <     299.19161947 Ry

     iteration # 14     ecut=    36.75 Ry     beta=0.30
     Davidson diagonalization with overlap
     ethr =  1.35E-03,  avg # of iterations =  2.1

     negative rho (up, down):  1.510E+00 0.000E+00
 
     Adding external electric field

     Computed dipole along edir(3) : 
        Dipole               -0.0945 Ry au,         -0.2402 Debye
        Dipole field         -0.0003 Ry au
 
        Potential amp.        0.0249 Ry
        Total length         45.0992 bohr
 

     total cpu time spent up to now is      310.3 secs

     total energy              =   -2126.82947826 Ry
     Harris-Foulkes estimate   =   -2130.25715145 Ry
     estimated scf accuracy    <     285.78508397 Ry

     iteration # 15     ecut=    36.75 Ry     beta=0.30
     Davidson diagonalization with overlap
     ethr =  1.35E-03,  avg # of iterations =  4.8

     negative rho (up, down):  1.511E+00 0.000E+00
 
     Adding external electric field

     Computed dipole along edir(3) : 
        Dipole               -0.2074 Ry au,         -0.5271 Debye
        Dipole field         -0.0006 Ry au
 
        Potential amp.        0.0546 Ry
        Total length         45.0992 bohr
 

     total cpu time spent up to now is      327.4 secs

     total energy              =   -2127.25639327 Ry
     Harris-Foulkes estimate   =   -2127.32330507 Ry
     estimated scf accuracy    <     127.82584745 Ry

     iteration # 16     ecut=    36.75 Ry     beta=0.30
     Davidson diagonalization with overlap
     ethr =  1.35E-03,  avg # of iterations =  1.0

     negative rho (up, down):  1.511E+00 0.000E+00
 
     Adding external electric field

     Computed dipole along edir(3) : 
        Dipole               -0.4008 Ry au,         -1.0187 Debye
        Dipole field         -0.0012 Ry au
 
        Potential amp.        0.1056 Ry
        Total length         45.0992 bohr
 

     total cpu time spent up to now is      341.6 secs

     total energy              =   -2126.24622730 Ry
     Harris-Foulkes estimate   =   -2127.27361061 Ry
     estimated scf accuracy    <     137.68996424 Ry

     iteration # 17     ecut=    36.75 Ry     beta=0.30
     Davidson diagonalization with overlap
     ethr =  1.35E-03,  avg # of iterations =  1.0

     negative rho (up, down):  1.521E+00 0.000E+00
 
     Adding external electric field

     Computed dipole along edir(3) : 
        Dipole               -0.3565 Ry au,         -0.9062 Debye
        Dipole field         -0.0010 Ry au
 
        Potential amp.        0.0939 Ry
        Total length         45.0992 bohr
 

     total cpu time spent up to now is      355.8 secs

     total energy              =   -2124.91183786 Ry
     Harris-Foulkes estimate   =   -2126.28800391 Ry
     estimated scf accuracy    <     120.56702711 Ry

     iteration # 18     ecut=    36.75 Ry     beta=0.30
     Davidson diagonalization with overlap
     ethr =  1.35E-03,  avg # of iterations =  4.5

     negative rho (up, down):  1.569E+00 0.000E+00
 
     Adding external electric field

     Computed dipole along edir(3) : 
        Dipole               -0.8365 Ry au,         -2.1261 Debye
        Dipole field         -0.0024 Ry au
 
        Potential amp.        0.2204 Ry
        Total length         45.0992 bohr
 

     total cpu time spent up to now is      372.3 secs

     total energy              =   -2121.55081409 Ry
     Harris-Foulkes estimate   =   -2125.08906912 Ry
     estimated scf accuracy    <      73.52679922 Ry

     iteration # 19     ecut=    36.75 Ry     beta=0.30
     Davidson diagonalization with overlap
     ethr =  1.35E-03,  avg # of iterations =  4.7

     negative rho (up, down):  1.549E+00 0.000E+00
 
     Adding external electric field

     Computed dipole along edir(3) : 
        Dipole               -0.2663 Ry au,         -0.6769 Debye
        Dipole field         -0.0008 Ry au
 
        Potential amp.        0.0702 Ry
        Total length         45.0992 bohr
 

     total cpu time spent up to now is      393.5 secs

     total energy              =   -2123.02003255 Ry
     Harris-Foulkes estimate   =   -2124.00214969 Ry
     estimated scf accuracy    <      13.04038906 Ry

     iteration # 20     ecut=    36.75 Ry     beta=0.30
     Davidson diagonalization with overlap
     ethr =  1.35E-03,  avg # of iterations =  5.5

     negative rho (up, down):  1.545E+00 0.000E+00
 
     Adding external electric field

     Computed dipole along edir(3) : 
        Dipole               -0.2871 Ry au,         -0.7296 Debye
        Dipole field         -0.0008 Ry au
 
        Potential amp.        0.0756 Ry
        Total length         45.0992 bohr
 

     total cpu time spent up to now is      412.3 secs

     total energy              =   -2124.13878815 Ry
     Harris-Foulkes estimate   =   -2124.08260153 Ry
     estimated scf accuracy    <       6.59978238 Ry

     iteration # 21     ecut=    36.75 Ry     beta=0.30
     Davidson diagonalization with overlap
     ethr =  1.35E-03,  avg # of iterations =  1.2

     negative rho (up, down):  1.546E+00 0.000E+00
 
     Adding external electric field

     Computed dipole along edir(3) : 
        Dipole               -0.2324 Ry au,         -0.5906 Debye
        Dipole field         -0.0007 Ry au
 
        Potential amp.        0.0612 Ry
        Total length         45.0992 bohr
 

     total cpu time spent up to now is      427.0 secs

     total energy              =   -2124.30473535 Ry
     Harris-Foulkes estimate   =   -2124.21660899 Ry
     estimated scf accuracy    <       9.59638611 Ry

     iteration # 22     ecut=    36.75 Ry     beta=0.30
     Davidson diagonalization with overlap
     ethr =  1.35E-03,  avg # of iterations =  1.0

     negative rho (up, down):  1.540E+00 0.000E+00
 
     Adding external electric field

     Computed dipole along edir(3) : 
        Dipole               -0.0780 Ry au,         -0.1983 Debye
        Dipole field         -0.0002 Ry au
 
        Potential amp.        0.0206 Ry
        Total length         45.0992 bohr
 

     total cpu time spent up to now is      441.7 secs

     total energy              =   -2124.55415036 Ry
     Harris-Foulkes estimate   =   -2124.32100332 Ry
     estimated scf accuracy    <      10.76930754 Ry

     iteration # 23     ecut=    36.75 Ry     beta=0.30
     Davidson diagonalization with overlap
     ethr =  1.35E-03,  avg # of iterations =  1.4

     negative rho (up, down):  1.544E+00 0.000E+00
 
     Adding external electric field

     Computed dipole along edir(3) : 
        Dipole               -0.4969 Ry au,         -1.2630 Debye
        Dipole field         -0.0015 Ry au
 
        Potential amp.        0.1309 Ry
        Total length         45.0992 bohr
 

     total cpu time spent up to now is      456.8 secs

     total energy              =   -2124.05634922 Ry
     Harris-Foulkes estimate   =   -2124.59717952 Ry
     estimated scf accuracy    <      12.32620454 Ry

     iteration # 24     ecut=    36.75 Ry     beta=0.30
     Davidson diagonalization with overlap
     ethr =  1.35E-03,  avg # of iterations =  1.0

     negative rho (up, down):  1.538E+00 0.000E+00
 
     Adding external electric field

     Computed dipole along edir(3) : 
        Dipole               -0.5698 Ry au,         -1.4483 Debye
        Dipole field         -0.0017 Ry au
 
        Potential amp.        0.1501 Ry
        Total length         45.0992 bohr
 

     total cpu time spent up to now is      471.4 secs

     total energy              =   -2124.18279736 Ry
     Harris-Foulkes estimate   =   -2124.13458947 Ry
     estimated scf accuracy    <       7.19492013 Ry

     iteration # 25     ecut=    36.75 Ry     beta=0.30
     Davidson diagonalization with overlap
     ethr =  1.35E-03,  avg # of iterations =  1.0

     negative rho (up, down):  1.534E+00 0.000E+00
 
     Adding external electric field

     Computed dipole along edir(3) : 
        Dipole               -1.0074 Ry au,         -2.5604 Debye
        Dipole field         -0.0029 Ry au
 
        Potential amp.        0.2654 Ry
        Total length         45.0992 bohr
 

     total cpu time spent up to now is      486.1 secs

     total energy              =   -2123.94506531 Ry
     Harris-Foulkes estimate   =   -2124.19030857 Ry
     estimated scf accuracy    <       8.33266351 Ry

     iteration # 26     ecut=    36.75 Ry     beta=0.30
     Davidson diagonalization with overlap
     ethr =  1.35E-03,  avg # of iterations =  1.0

     negative rho (up, down):  1.540E+00 0.000E+00
 
     Adding external electric field

     Computed dipole along edir(3) : 
        Dipole               -0.8094 Ry au,         -2.0572 Debye
        Dipole field         -0.0024 Ry au
 
        Potential amp.        0.2133 Ry
        Total length         45.0992 bohr
 

     total cpu time spent up to now is      500.7 secs

     total energy              =   -2123.78549809 Ry
     Harris-Foulkes estimate   =   -2123.99269246 Ry
     estimated scf accuracy    <      10.19949429 Ry

     iteration # 27     ecut=    36.75 Ry     beta=0.30
     Davidson diagonalization with overlap
     ethr =  1.35E-03,  avg # of iterations =  1.0

     negative rho (up, down):  1.552E+00 0.000E+00
 
     Adding external electric field

     Computed dipole along edir(3) : 
        Dipole               -0.6067 Ry au,         -1.5420 Debye
        Dipole field         -0.0018 Ry au
 
        Potential amp.        0.1599 Ry
        Total length         45.0992 bohr
 

     total cpu time spent up to now is      515.2 secs

     total energy              =   -2123.63696597 Ry
     Harris-Foulkes estimate   =   -2123.83121395 Ry
     estimated scf accuracy    <       5.55786959 Ry

     iteration # 28     ecut=    36.75 Ry     beta=0.30
     Davidson diagonalization with overlap
     ethr =  1.35E-03,  avg # of iterations =  1.1

     negative rho (up, down):  1.589E+00 0.000E+00
 
     Adding external electric field

     Computed dipole along edir(3) : 
        Dipole               -0.3407 Ry au,         -0.8660 Debye
        Dipole field         -0.0010 Ry au
 
        Potential amp.        0.0898 Ry
        Total length         45.0992 bohr
 

     total cpu time spent up to now is      530.0 secs

     total energy              =   -2123.28208330 Ry
     Harris-Foulkes estimate   =   -2123.68071935 Ry
     estimated scf accuracy    <       2.60688622 Ry

     iteration # 29     ecut=    36.75 Ry     beta=0.30
     Davidson diagonalization with overlap
     ethr =  1.35E-03,  avg # of iterations =  4.2

     negative rho (up, down):  1.575E+00 0.000E+00
 
     Adding external electric field

     Computed dipole along edir(3) : 
        Dipole               -0.5272 Ry au,         -1.3401 Debye
        Dipole field         -0.0015 Ry au
 
        Potential amp.        0.1389 Ry
        Total length         45.0992 bohr
 

     total cpu time spent up to now is      549.0 secs

     total energy              =   -2123.55206794 Ry
     Harris-Foulkes estimate   =   -2123.78819672 Ry
     estimated scf accuracy    <       3.42713089 Ry

     iteration # 30     ecut=    36.75 Ry     beta=0.30
     Davidson diagonalization with overlap
     ethr =  1.35E-03,  avg # of iterations =  1.0

     negative rho (up, down):  1.575E+00 0.000E+00
 
     Adding external electric field

     Computed dipole along edir(3) : 
        Dipole               -0.5020 Ry au,         -1.2760 Debye
        Dipole field         -0.0015 Ry au
 
        Potential amp.        0.1323 Ry
        Total length         45.0992 bohr
 

     total cpu time spent up to now is      563.6 secs

     total energy              =   -2123.59314275 Ry
     Harris-Foulkes estimate   =   -2123.62228923 Ry
     estimated scf accuracy    <       0.72082189 Ry

     iteration # 31     ecut=    36.75 Ry     beta=0.30
     Davidson diagonalization with overlap
     ethr =  3.90E-04,  avg # of iterations =  3.4

     negative rho (up, down):  1.577E+00 0.000E+00
 
     Adding external electric field

     Computed dipole along edir(3) : 
        Dipole               -0.4835 Ry au,         -1.2290 Debye
        Dipole field         -0.0014 Ry au
 
        Potential amp.        0.1274 Ry
        Total length         45.0992 bohr
 

     total cpu time spent up to now is      579.2 secs

     total energy              =   -2123.60222619 Ry
     Harris-Foulkes estimate   =   -2123.61330336 Ry
     estimated scf accuracy    <       0.17435853 Ry

     iteration # 32     ecut=    36.75 Ry     beta=0.30
     Davidson diagonalization with overlap
     ethr =  9.42E-05,  avg # of iterations =  5.9

     negative rho (up, down):  1.583E+00 0.000E+00
 
     Adding external electric field

     Computed dipole along edir(3) : 
        Dipole               -0.4087 Ry au,         -1.0388 Debye
        Dipole field         -0.0012 Ry au
 
        Potential amp.        0.1077 Ry
        Total length         45.0992 bohr
 

     total cpu time spent up to now is      597.9 secs

     total energy              =   -2123.62284212 Ry
     Harris-Foulkes estimate   =   -2123.62794760 Ry
     estimated scf accuracy    <       0.05420554 Ry

     iteration # 33     ecut=    36.75 Ry     beta=0.30
     Davidson diagonalization with overlap
     ethr =  2.93E-05,  avg # of iterations =  2.3

     negative rho (up, down):  1.586E+00 0.000E+00
 
     Adding external electric field

     Computed dipole along edir(3) : 
        Dipole               -0.3539 Ry au,         -0.8995 Debye
        Dipole field         -0.0010 Ry au
 
        Potential amp.        0.0932 Ry
        Total length         45.0992 bohr
 

     total cpu time spent up to now is      613.9 secs

     total energy              =   -2123.62317779 Ry
     Harris-Foulkes estimate   =   -2123.62604038 Ry
     estimated scf accuracy    <       0.07788146 Ry

     iteration # 34     ecut=    36.75 Ry     beta=0.30
     Davidson diagonalization with overlap
     ethr =  2.93E-05,  avg # of iterations =  1.1

     negative rho (up, down):  1.588E+00 0.000E+00
 
     Adding external electric field

     Computed dipole along edir(3) : 
        Dipole               -0.3382 Ry au,         -0.8596 Debye
        Dipole field         -0.0010 Ry au
 
        Potential amp.        0.0891 Ry
        Total length         45.0992 bohr
 

     total cpu time spent up to now is      628.6 secs

     total energy              =   -2123.62181095 Ry
     Harris-Foulkes estimate   =   -2123.62509361 Ry
     estimated scf accuracy    <       0.01809239 Ry

     iteration # 35     ecut=    36.75 Ry     beta=0.30
     Davidson diagonalization with overlap
     ethr =  9.78E-06,  avg # of iterations =  5.6

     negative rho (up, down):  1.589E+00 0.000E+00
 
     Adding external electric field

     Computed dipole along edir(3) : 
        Dipole               -0.3365 Ry au,         -0.8553 Debye
        Dipole field         -0.0010 Ry au
 
        Potential amp.        0.0887 Ry
        Total length         45.0992 bohr
 

     total cpu time spent up to now is      647.1 secs

     total energy              =   -2123.62424379 Ry
     Harris-Foulkes estimate   =   -2123.62467454 Ry
     estimated scf accuracy    <       0.00745128 Ry

     iteration # 36     ecut=    36.75 Ry     beta=0.30
     Davidson diagonalization with overlap
     c_bands:  1 eigenvalues not converged
     ethr =  4.03E-06,  avg # of iterations =  3.2

     negative rho (up, down):  1.589E+00 0.000E+00
 
     Adding external electric field

     Computed dipole along edir(3) : 
        Dipole               -0.3223 Ry au,         -0.8191 Debye
        Dipole field         -0.0009 Ry au
 
        Potential amp.        0.0849 Ry
        Total length         45.0992 bohr
 

     total cpu time spent up to now is      663.5 secs

     total energy              =   -2123.62384521 Ry
     Harris-Foulkes estimate   =   -2123.62470098 Ry
     estimated scf accuracy    <       0.00832288 Ry

     iteration # 37     ecut=    36.75 Ry     beta=0.30
     Davidson diagonalization with overlap
     ethr =  4.03E-06,  avg # of iterations =  1.2

     negative rho (up, down):  1.590E+00 0.000E+00
 
     Adding external electric field

     Computed dipole along edir(3) : 
        Dipole               -0.3184 Ry au,         -0.8092 Debye
        Dipole field         -0.0009 Ry au
 
        Potential amp.        0.0839 Ry
        Total length         45.0992 bohr
 

     total cpu time spent up to now is      678.5 secs

     total energy              =   -2123.62392395 Ry
     Harris-Foulkes estimate   =   -2123.62418110 Ry
     estimated scf accuracy    <       0.00195981 Ry

     iteration # 38     ecut=    36.75 Ry     beta=0.30
     Davidson diagonalization with overlap
     ethr =  1.06E-06,  avg # of iterations =  5.0

     negative rho (up, down):  1.590E+00 0.000E+00
 
     Adding external electric field

     Computed dipole along edir(3) : 
        Dipole               -0.3240 Ry au,         -0.8235 Debye
        Dipole field         -0.0009 Ry au
 
        Potential amp.        0.0854 Ry
        Total length         45.0992 bohr
 

     total cpu time spent up to now is      697.0 secs

     total energy              =   -2123.62405276 Ry
     Harris-Foulkes estimate   =   -2123.62419494 Ry
     estimated scf accuracy    <       0.00220693 Ry

     iteration # 39     ecut=    36.75 Ry     beta=0.30
     Davidson diagonalization with overlap
     ethr =  1.06E-06,  avg # of iterations =  2.3

     negative rho (up, down):  1.590E+00 0.000E+00
 
     Adding external electric field

     Computed dipole along edir(3) : 
        Dipole               -0.3159 Ry au,         -0.8029 Debye
        Dipole field         -0.0009 Ry au
 
        Potential amp.        0.0832 Ry
        Total length         45.0992 bohr
 

     total cpu time spent up to now is      713.0 secs

     total energy              =   -2123.62409868 Ry
     Harris-Foulkes estimate   =   -2123.62416952 Ry
     estimated scf accuracy    <       0.00098997 Ry

     iteration # 40     ecut=    36.75 Ry     beta=0.30
     Davidson diagonalization with overlap
     ethr =  5.35E-07,  avg # of iterations =  1.6

     negative rho (up, down):  1.590E+00 0.000E+00
 
     Adding external electric field

     Computed dipole along edir(3) : 
        Dipole               -0.3122 Ry au,         -0.7935 Debye
        Dipole field         -0.0009 Ry au
 
        Potential amp.        0.0823 Ry
        Total length         45.0992 bohr
 

     total cpu time spent up to now is      728.0 secs

     total energy              =   -2123.62411229 Ry
     Harris-Foulkes estimate   =   -2123.62414068 Ry
     estimated scf accuracy    <       0.00011045 Ry

     iteration # 41     ecut=    36.75 Ry     beta=0.30
     Davidson diagonalization with overlap
     ethr =  5.97E-08,  avg # of iterations =  5.2

     negative rho (up, down):  1.590E+00 0.000E+00
 
     Adding external electric field

     Computed dipole along edir(3) : 
        Dipole               -0.3119 Ry au,         -0.7927 Debye
        Dipole field         -0.0009 Ry au
 
        Potential amp.        0.0822 Ry
        Total length         45.0992 bohr
 

     total cpu time spent up to now is      750.4 secs

     total energy              =   -2123.62413612 Ry
     Harris-Foulkes estimate   =   -2123.62414644 Ry
     estimated scf accuracy    <       0.00014920 Ry

     iteration # 42     ecut=    36.75 Ry     beta=0.30
     Davidson diagonalization with overlap
     ethr =  5.97E-08,  avg # of iterations =  1.0

     negative rho (up, down):  1.590E+00 0.000E+00
 
     Adding external electric field

     Computed dipole along edir(3) : 
        Dipole               -0.3117 Ry au,         -0.7923 Debye
        Dipole field         -0.0009 Ry au
 
        Potential amp.        0.0821 Ry
        Total length         45.0992 bohr
 

     total cpu time spent up to now is      767.2 secs

     total energy              =   -2123.62412955 Ry
     Harris-Foulkes estimate   =   -2123.62413928 Ry
     estimated scf accuracy    <       0.00006558 Ry

     iteration # 43     ecut=    36.75 Ry     beta=0.30
     Davidson diagonalization with overlap
     ethr =  3.54E-08,  avg # of iterations =  4.0

     negative rho (up, down):  1.591E+00 0.000E+00
 
     Adding external electric field

     Computed dipole along edir(3) : 
        Dipole               -0.3097 Ry au,         -0.7872 Debye
        Dipole field         -0.0009 Ry au
 
        Potential amp.        0.0816 Ry
        Total length         45.0992 bohr
 

     total cpu time spent up to now is      786.7 secs

     total energy              =   -2123.62413646 Ry
     Harris-Foulkes estimate   =   -2123.62414228 Ry
     estimated scf accuracy    <       0.00002662 Ry

     iteration # 44     ecut=    36.75 Ry     beta=0.30
     Davidson diagonalization with overlap
     ethr =  1.44E-08,  avg # of iterations =  1.1

     negative rho (up, down):  1.591E+00 0.000E+00
 
     Adding external electric field

     Computed dipole along edir(3) : 
        Dipole               -0.3094 Ry au,         -0.7863 Debye
        Dipole field         -0.0009 Ry au
 
        Potential amp.        0.0815 Ry
        Total length         45.0992 bohr
 

     total cpu time spent up to now is      803.3 secs

     total energy              =   -2123.62413647 Ry
     Harris-Foulkes estimate   =   -2123.62413829 Ry
     estimated scf accuracy    <       0.00001293 Ry

     iteration # 45     ecut=    36.75 Ry     beta=0.30
     Davidson diagonalization with overlap
     ethr =  6.99E-09,  avg # of iterations =  3.8

     negative rho (up, down):  1.591E+00 0.000E+00

     negative rho (up, down):  1.591E+00 0.000E+00

     negative rho (up, down):  1.591E+00 0.000E+00

     negative rho (up, down):  1.591E+00 0.000E+00

     negative rho (up, down):  1.591E+00 0.000E+00

     negative rho (up, down):  1.591E+00 0.000E+00

     negative rho (up, down):  1.591E+00 0.000E+00

     negative rho (up, down):  1.591E+00 0.000E+00

     negative rho (up, down):  1.591E+00 0.000E+00

     negative rho (up, down):  1.591E+00 0.000E+00

     negative rho (up, down):  1.591E+00 0.000E+00

     negative rho (up, down):  1.591E+00 0.000E+00

     negative rho (up, down):  1.591E+00 0.000E+00

     negative rho (up, down):  1.591E+00 0.000E+00

     negative rho (up, down):  1.591E+00 0.000E+00

     negative rho (up, down):  1.591E+00 0.000E+00

     negative rho (up, down):  1.591E+00 0.000E+00

     negative rho (up, down):  1.591E+00 0.000E+00

     negative rho (up, down):  1.591E+00 0.000E+00

     negative rho (up, down):  1.591E+00 0.000E+00

     negative rho (up, down):  1.591E+00 0.000E+00

     negative rho (up, down):  1.591E+00 0.000E+00

     negative rho (up, down):  1.591E+00 0.000E+00

     negative rho (up, down):  1.591E+00 0.000E+00

     negative rho (up, down):  1.591E+00 0.000E+00

     negative rho (up, down):  1.591E+00 0.000E+00

     negative rho (up, down):  1.591E+00 0.000E+00

     negative rho (up, down):  1.591E+00 0.000E+00

     negative rho (up, down):  1.591E+00 0.000E+00

     negative rho (up, down):  1.591E+00 0.000E+00

     negative rho (up, down):  1.591E+00 0.000E+00

     negative rho (up, down):  1.591E+00 0.000E+00

     negative rho (up, down):  1.591E+00 0.000E+00

     negative rho (up, down):  1.591E+00 0.000E+00

     negative rho (up, down):  1.591E+00 0.000E+00
 
     Adding external electric field

     Computed dipole along edir(3) : 
        Dipole               -0.3057 Ry au,         -0.7771 Debye
        Dipole field         -0.0009 Ry au
 
        Potential amp.        0.0806 Ry
        Total length         45.0992 bohr
 

     total cpu time spent up to now is      862.1 secs

     End of self-consistent calculation

          k = 0.0000 0.0000 0.0000 ( 16073 PWs)   bands (ev):

   -65.2083 -65.1169 -65.0656 -65.0389 -65.0238 -65.0220 -64.9446 -64.9174
   -64.8745 -64.8279 -64.8228 -64.8107 -37.6447 -37.6303 -37.6291 -37.5746
   -37.5286 -37.5186 -37.4886 -37.3629 -37.3520 -37.3457 -37.0873 -37.0678
   -36.9897 -36.9746 -36.9550 -36.9224 -36.9083 -36.9047 -36.8988 -36.8793
   -36.7853 -36.7643 -36.7616 -36.7548 -36.7384 -36.7207 -36.6793 -36.6639
   -36.6601 -36.6159 -36.6060 -36.6054 -36.5535 -36.5234 -36.4151 -36.4100
   -10.9222  -4.3763  -3.1952  -3.1330  -3.1267  -3.0572  -2.9888  -2.7878
    -2.7449  -2.6947  -2.6106  -2.5144  -2.5139  -2.2891  -2.2274  -2.1827
    -1.2217  -1.1497  -0.9890  -0.6740  -0.3721  -0.1745  -0.0701   0.1079
     0.3348   0.3671   0.4070   0.5187   0.6732   0.7621   0.7829   0.8513
     0.8858   0.9276   0.9532   1.3352   1.3896   1.5609   1.7815   2.2253
     2.3868   2.4326   2.4752   2.6138   2.7753   2.8467   2.9785   3.1737
     3.2686   3.3208   3.6285   3.9309   4.0567   4.0943

          k = 0.0000 0.0351 0.0000 ( 16137 PWs)   bands (ev):

   -65.1987 -65.1130 -65.0657 -65.0457 -65.0252 -65.0238 -64.9373 -64.9207
   -64.8745 -64.8335 -64.8228 -64.8133 -37.6144 -37.5972 -37.5791 -37.5442
   -37.5037 -37.4810 -37.4590 -37.3327 -37.3146 -37.3046 -37.0940 -37.0759
   -37.0210 -36.9982 -36.9729 -36.9380 -36.9177 -36.8966 -36.8883 -36.8523
   -36.8182 -36.7735 -36.7689 -36.7523 -36.7443 -36.7215 -36.7139 -36.6933
   -36.6746 -36.6463 -36.6370 -36.6020 -36.5943 -36.5328 -36.4725 -36.4234
   -10.9173  -4.1345  -3.0478  -2.9457  -2.9214  -2.8401  -2.7471  -2.6387
    -2.5732  -2.5705  -2.4665  -2.3825  -2.3580  -2.1330  -2.0300  -1.9311
    -1.1304  -1.1002  -0.9554  -0.6743  -0.3371  -0.0959  -0.0201   0.0011
     0.0863   0.1906   0.4360   0.5942   0.6304   0.6452   0.8100   0.8288
     0.8464   0.9287   1.1152   1.1339   1.2756   1.4648   1.5878   1.8119
     2.0251   2.2309   2.3944   2.4790   2.5810   2.6960   2.7534   2.8937
     3.0270   3.2786   3.3634   3.4467   3.7378   3.8222

          k = 0.0000 0.0702 0.0000 ( 16149 PWs)   bands (ev):

   -65.1736 -65.1073 -65.0660 -65.0656 -65.0277 -65.0237 -64.9328 -64.9122
   -64.8746 -64.8534 -64.8228 -64.8157 -37.5434 -37.5180 -37.4939 -37.4523
   -37.4154 -37.3992 -37.3898 -37.2683 -37.2378 -37.1848 -37.1201 -37.1072
   -37.0812 -37.0354 -37.0029 -36.9433 -36.9327 -36.8917 -36.8895 -36.8614
   -36.8500 -36.8349 -36.8196 -36.7863 -36.7640 -36.7555 -36.7532 -36.7129
   -36.7110 -36.7001 -36.6922 -36.6918 -36.6047 -36.5644 -36.5500 -36.4597
   -10.9075  -3.5030  -2.7487  -2.4963  -2.4525  -2.4493  -2.3374  -2.1632
    -2.1097  -2.0931  -2.0347  -1.9738  -1.9364  -1.8031  -1.4823  -1.3047
    -1.0726  -0.8991  -0.8046  -0.7026  -0.6265  -0.4254  -0.2536  -0.0325
     0.0675   0.1734   0.2161   0.3513   0.4112   0.5015   0.6244   0.7579
     0.8196   0.8733   1.1015   1.1967   1.2049   1.2254   1.3072   1.4306
     1.6907   1.7302   1.7658   1.8408   1.9105   2.0305   2.1157   2.4739
     2.5916   2.6614   2.7670   3.0840   3.1263   3.1394

          k = 0.0000-0.1053 0.0000 ( 16164 PWs)   bands (ev):

   -65.1531 -65.1124 -65.0763 -65.0659 -65.0282 -65.0236 -64.9370 -64.8839
   -64.8821 -64.8745 -64.8228 -64.8163 -37.4994 -37.4631 -37.4467 -37.4074
   -37.3916 -37.3471 -37.2437 -37.2196 -37.2089 -37.1896 -37.1579 -37.1443
   -37.0705 -37.0227 -36.9763 -36.9596 -36.9414 -36.9252 -36.9075 -36.8979
   -36.8761 -36.8436 -36.8359 -36.8248 -36.8132 -36.7975 -36.7864 -36.7798
   -36.7280 -36.7049 -36.7031 -36.6833 -36.6656 -36.5713 -36.5095 -36.5077
   -10.9027  -2.8483  -2.8384  -2.2990  -2.1597  -2.1357  -2.1140  -1.9082
    -1.8273  -1.7307  -1.6386  -1.5773  -1.4602  -1.4119  -1.3187  -1.2000
    -1.0798  -0.8951  -0.8341  -0.5794  -0.5710  -0.4068  -0.3888  -0.3723
    -0.0743   0.0861   0.1077   0.2015   0.4461   0.5388   0.5479   0.6345
     0.6784   0.7488   0.8149   0.8155   0.8512   1.0153   1.0207   1.0305
     1.2431   1.3295   1.8474   1.9267   1.9890   1.9928   2.0201   2.1442
     2.4363   2.5312   2.5772   2.6263   2.6744   2.7918

          k = 0.0304-0.0175 0.0000 ( 16137 PWs)   bands (ev):

   -65.1982 -65.1106 -65.0726 -65.0415 -65.0295 -65.0216 -64.9368 -64.9154
   -64.8784 -64.8322 -64.8249 -64.8124 -37.6067 -37.5979 -37.5801 -37.5396
   -37.5019 -37.4933 -37.4564 -37.3318 -37.3225 -37.3006 -37.0987 -37.0815
   -37.0099 -37.0012 -36.9671 -36.9495 -36.9167 -36.8910 -36.8843 -36.8583
   -36.8201 -36.7966 -36.7562 -36.7447 -36.7355 -36.7185 -36.7128 -36.6897
   -36.6796 -36.6434 -36.6362 -36.5967 -36.5851 -36.5541 -36.4688 -36.4271
   -10.9119  -4.1370  -3.0370  -2.9644  -2.9234  -2.8327  -2.7490  -2.6759
    -2.5809  -2.5058  -2.4647  -2.3942  -2.3668  -2.1308  -2.0019  -1.9637
    -1.1744  -1.0794  -0.9157  -0.7466  -0.2652  -0.0789  -0.0406  -0.0114
     0.1235   0.2062   0.4322   0.5635   0.6060   0.6534   0.7431   0.8516
     0.8618   0.9076   1.0711   1.1969   1.2900   1.3800   1.6609   1.7878
     2.1003   2.2326   2.3984   2.4341   2.5424   2.6483   2.7629   2.8626
     3.0857   3.2896   3.4247   3.4948   3.7299   3.7857

          k = 0.0304 0.0175 0.0000 ( 16137 PWs)   bands (ev):

   -65.1982 -65.1106 -65.0725 -65.0414 -65.0299 -65.0213 -64.9368 -64.9154
   -64.8784 -64.8315 -64.8260 -64.8121 -37.6066 -37.5981 -37.5800 -37.5396
   -37.5019 -37.4934 -37.4564 -37.3319 -37.3223 -37.3007 -37.0985 -37.0816
   -37.0098 -37.0013 -36.9673 -36.9491 -36.9167 -36.8910 -36.8843 -36.8583
   -36.8202 -36.7965 -36.7561 -36.7447 -36.7355 -36.7186 -36.7129 -36.6897
   -36.6796 -36.6437 -36.6358 -36.5968 -36.5851 -36.5542 -36.4689 -36.4271
   -10.9119  -4.1370  -3.0371  -2.9643  -2.9234  -2.8327  -2.7490  -2.6759
    -2.5809  -2.5057  -2.4647  -2.3941  -2.3669  -2.1308  -2.0020  -1.9636
    -1.1744  -1.0794  -0.9158  -0.7466  -0.2652  -0.0788  -0.0407  -0.0113
     0.1235   0.2062   0.4322   0.5634   0.6060   0.6534   0.7432   0.8515
     0.8618   0.9077   1.0712   1.1969   1.2900   1.3799   1.6608   1.7878
     2.1002   2.2326   2.3985   2.4340   2.5425   2.6483   2.7629   2.8626
     3.0856   3.2896   3.4247   3.4948   3.7298   3.7856

          k = 0.0304 0.0526 0.0000 ( 16202 PWs)   bands (ev):

   -65.1805 -65.1046 -65.0763 -65.0519 -65.0361 -65.0189 -64.9272 -64.9168
   -64.8780 -64.8417 -64.8322 -64.8109 -37.5642 -37.5269 -37.4975 -37.4806
   -37.4610 -37.4282 -37.4068 -37.2917 -37.2444 -37.2356 -37.1121 -37.1024
   -37.0667 -37.0410 -36.9904 -36.9438 -36.9079 -36.8999 -36.8826 -36.8651
   -36.8398 -36.8140 -36.7925 -36.7705 -36.7622 -36.7506 -36.7334 -36.7212
   -36.7076 -36.6939 -36.6615 -36.6140 -36.6092 -36.5714 -36.5591 -36.4535
   -10.9046  -3.6941  -2.7407  -2.6833  -2.5763  -2.4828  -2.4111  -2.3777
    -2.3087  -2.2283  -2.1658  -2.1031  -2.0401  -1.8090  -1.7278  -1.4766
    -1.0990  -0.9774  -0.8335  -0.7470  -0.4238  -0.3313  -0.1399  -0.0758
     0.0612   0.1031   0.2581   0.3726   0.5359   0.6009   0.6612   0.7941
     0.8161   0.9689   0.9925   1.0704   1.2298   1.3190   1.4766   1.5838
     1.6267   1.8497   1.9946   2.1131   2.1798   2.2473   2.2937   2.4015
     2.5033   2.7782   2.9422   3.1665   3.2734   3.4198

          k = 0.0304-0.1228 0.0000 ( 16203 PWs)   bands (ev):

   -65.1541 -65.1045 -65.0802 -65.0691 -65.0386 -65.0155 -64.9317 -64.8940
   -64.8775 -64.8644 -64.8387 -64.8079 -37.4907 -37.4586 -37.4149 -37.4062
   -37.3789 -37.3492 -37.3213 -37.2482 -37.2104 -37.1543 -37.1512 -37.1248
   -37.0881 -37.0598 -37.0035 -36.9685 -36.9442 -36.9296 -36.8927 -36.8843
   -36.8512 -36.8443 -36.8285 -36.8152 -36.8084 -36.7972 -36.7687 -36.7558
   -36.7289 -36.7218 -36.6925 -36.6564 -36.6483 -36.5916 -36.5602 -36.5037
   -10.8974  -2.9909  -2.5243  -2.2385  -2.1544  -2.1359  -2.0505  -1.9759
    -1.7996  -1.7297  -1.6847  -1.6660  -1.5019  -1.4180  -1.2967  -1.2148
    -1.0014  -0.9459  -0.7540  -0.7223  -0.6452  -0.5383  -0.3656  -0.2757
    -0.1683  -0.0303   0.0777   0.1780   0.2892   0.3836   0.4516   0.4953
     0.6069   0.6599   0.7381   0.7984   0.8804   1.0702   1.1954   1.2347
     1.3505   1.4346   1.5602   1.8491   1.9824   2.0537   2.1326   2.2681
     2.3418   2.4769   2.5247   2.6876   2.8634   2.9739

          k = 0.0304-0.0877 0.0000 ( 16203 PWs)   bands (ev):

   -65.1540 -65.1045 -65.0804 -65.0690 -65.0386 -65.0155 -64.9317 -64.8939
   -64.8776 -64.8646 -64.8384 -64.8080 -37.4906 -37.4587 -37.4149 -37.4062
   -37.3789 -37.3492 -37.3212 -37.2482 -37.2105 -37.1543 -37.1512 -37.1248
   -37.0881 -37.0597 -37.0034 -36.9685 -36.9443 -36.9296 -36.8928 -36.8843
   -36.8510 -36.8443 -36.8284 -36.8152 -36.8088 -36.7968 -36.7688 -36.7557
   -36.7289 -36.7219 -36.6924 -36.6562 -36.6485 -36.5916 -36.5602 -36.5037
   -10.8974  -2.9909  -2.5243  -2.2385  -2.1545  -2.1358  -2.0505  -1.9758
    -1.7996  -1.7297  -1.6848  -1.6659  -1.5020  -1.4180  -1.2967  -1.2148
    -1.0014  -0.9459  -0.7539  -0.7223  -0.6453  -0.5383  -0.3656  -0.2757
    -0.1683  -0.0303   0.0777   0.1780   0.2892   0.3837   0.4516   0.4952
     0.6069   0.6599   0.7381   0.7985   0.8803   1.0702   1.1954   1.2346
     1.3506   1.4346   1.5602   1.8491   1.9824   2.0536   2.1326   2.2680
     2.3419   2.4769   2.5246   2.6876   2.8636   2.9738

          k = 0.0304-0.0526 0.0000 ( 16202 PWs)   bands (ev):

   -65.1805 -65.1046 -65.0765 -65.0519 -65.0358 -65.0190 -64.9272 -64.9168
   -64.8780 -64.8425 -64.8312 -64.8112 -37.5642 -37.5268 -37.4976 -37.4806
   -37.4611 -37.4282 -37.4067 -37.2917 -37.2446 -37.2355 -37.1122 -37.1024
   -37.0667 -37.0409 -36.9904 -36.9439 -36.9079 -36.9000 -36.8824 -36.8651
   -36.8398 -36.8139 -36.7925 -36.7706 -36.7621 -36.7506 -36.7338 -36.7211
   -36.7075 -36.6938 -36.6615 -36.6142 -36.6090 -36.5714 -36.5592 -36.4535
   -10.9046  -3.6941  -2.7406  -2.6834  -2.5763  -2.4828  -2.4111  -2.3777
    -2.3088  -2.2283  -2.1658  -2.1031  -2.0401  -1.8090  -1.7277  -1.4767
    -1.0991  -0.9774  -0.8334  -0.7470  -0.4238  -0.3312  -0.1399  -0.0757
     0.0610   0.1032   0.2582   0.3725   0.5360   0.6009   0.6611   0.7941
     0.8162   0.9689   0.9925   1.0704   1.2299   1.3190   1.4765   1.5837
     1.6268   1.8497   1.9944   2.1132   2.1798   2.2473   2.2937   2.4016
     2.5032   2.7783   2.9422   3.1662   3.2736   3.4198

          k = 0.0608-0.0351 0.0000 ( 16149 PWs)   bands (ev):

   -65.1705 -65.0965 -65.0934 -65.0537 -65.0341 -65.0224 -64.9171 -64.9080
   -64.8880 -64.8523 -64.8257 -64.8137 -37.5219 -37.5180 -37.4782 -37.4415
   -37.4299 -37.4183 -37.3917 -37.2679 -37.2575 -37.1959 -37.1251 -37.1114
   -37.0715 -37.0517 -36.9845 -36.9530 -36.9295 -36.8978 -36.8795 -36.8695
   -36.8422 -36.8373 -36.8250 -36.7795 -36.7588 -36.7512 -36.7249 -36.7113
   -36.7051 -36.6954 -36.6905 -36.6816 -36.6023 -36.5947 -36.5616 -36.4634
   -10.8916  -3.5173  -2.7536  -2.5557  -2.4549  -2.4369  -2.3208  -2.1505
    -2.1200  -2.0405  -2.0310  -1.9819  -1.9428  -1.7868  -1.4505  -1.3508
    -1.0944  -0.9712  -0.8175  -0.7127  -0.5283  -0.3611  -0.2441  -0.0200
     0.0442   0.0996   0.1790   0.2383   0.4524   0.5281   0.6613   0.7611
     0.8195   0.9104   1.0542   1.1210   1.1825   1.2195   1.3369   1.4773
     1.6671   1.7398   1.7517   1.8130   1.9556   2.0359   2.1721   2.3938
     2.4792   2.6912   2.9086   3.0631   3.1146   3.1655

          k = 0.0608 0.0000 0.0000 ( 16202 PWs)   bands (ev):

   -65.1788 -65.0973 -65.0884 -65.0528 -65.0362 -65.0188 -64.9221 -64.9071
   -64.8888 -64.8382 -64.8363 -64.8103 -37.5557 -37.5133 -37.5002 -37.4821
   -37.4534 -37.4429 -37.4086 -37.2914 -37.2627 -37.2295 -37.1286 -37.0966
   -37.0634 -37.0446 -37.0025 -36.9337 -36.9130 -36.8917 -36.8860 -36.8733
   -36.8429 -36.7946 -36.7856 -36.7676 -36.7543 -36.7468 -36.7256 -36.7172
   -36.7092 -36.6968 -36.6547 -36.6158 -36.6094 -36.5928 -36.5600 -36.4574
   -10.8940  -3.7013  -2.7441  -2.6817  -2.6027  -2.4562  -2.4251  -2.3964
    -2.3019  -2.2024  -2.1632  -2.0871  -2.0512  -1.8412  -1.6828  -1.5029
    -1.1372  -0.9307  -0.8497  -0.7971  -0.4080  -0.2141  -0.1305  -0.0138
     0.0563   0.0854   0.1362   0.2961   0.5577   0.6260   0.7101   0.7329
     0.8671   0.9532   0.9982   1.0331   1.0793   1.3881   1.4969   1.5986
     1.6438   1.8123   1.8910   2.1181   2.1963   2.2250   2.3056   2.4317
     2.5507   2.8249   2.9329   3.2467   3.2635   3.4291

          k = 0.0608 0.0351 0.0000 ( 16149 PWs)   bands (ev):

   -65.1705 -65.0970 -65.0929 -65.0536 -65.0347 -65.0221 -64.9172 -64.9080
   -64.8880 -64.8518 -64.8267 -64.8131 -37.5218 -37.5182 -37.4781 -37.4414
   -37.4299 -37.4183 -37.3918 -37.2680 -37.2573 -37.1958 -37.1251 -37.1114
   -37.0716 -37.0518 -36.9845 -36.9528 -36.9296 -36.8977 -36.8797 -36.8694
   -36.8423 -36.8372 -36.8250 -36.7795 -36.7587 -36.7512 -36.7249 -36.7113
   -36.7053 -36.6952 -36.6905 -36.6816 -36.6024 -36.5947 -36.5617 -36.4633
   -10.8916  -3.5173  -2.7536  -2.5557  -2.4548  -2.4369  -2.3207  -2.1504
    -2.1200  -2.0405  -2.0310  -1.9820  -1.9429  -1.7868  -1.4505  -1.3508
    -1.0943  -0.9713  -0.8175  -0.7128  -0.5283  -0.3611  -0.2441  -0.0200
     0.0442   0.0996   0.1790   0.2383   0.4524   0.5281   0.6613   0.7612
     0.8195   0.9105   1.0542   1.1210   1.1826   1.2195   1.3369   1.4772
     1.6671   1.7398   1.7517   1.8130   1.9556   2.0359   2.1721   2.3939
     2.4791   2.6912   2.9086   3.0632   3.1143   3.1657

          k = 0.0608-0.1404 0.0000 ( 16203 PWs)   bands (ev):

   -65.1492 -65.1070 -65.0893 -65.0575 -65.0486 -65.0150 -64.9186 -64.8944
   -64.8861 -64.8626 -64.8403 -64.8075 -37.4769 -37.4467 -37.4082 -37.3949
   -37.3822 -37.3717 -37.3281 -37.2563 -37.2032 -37.1870 -37.1623 -37.1342
   -37.0802 -37.0322 -37.0156 -36.9712 -36.9404 -36.9168 -36.9047 -36.8791
   -36.8501 -36.8435 -36.8282 -36.8220 -36.8034 -36.7888 -36.7599 -36.7480
   -36.7253 -36.7187 -36.6751 -36.6577 -36.6441 -36.6248 -36.5653 -36.5053
   -10.8868  -3.0087  -2.5565  -2.2389  -2.1454  -2.1368  -2.0405  -1.9734
    -1.7953  -1.7326  -1.6760  -1.6498  -1.4705  -1.4074  -1.3090  -1.1781
    -1.0332  -0.9559  -0.8010  -0.7214  -0.5914  -0.4946  -0.4214  -0.2781
    -0.1922  -0.1087   0.0645   0.1235   0.3000   0.4028   0.4439   0.5046
     0.5804   0.6897   0.7438   0.8202   0.9151   1.0842   1.1860   1.2560
     1.3903   1.4399   1.5075   1.8429   1.9337   2.0667   2.1499   2.1834
     2.3437   2.4702   2.5776   2.6886   2.8484   2.9595

          k = 0.0608-0.1053 0.0000 ( 16272 PWs)   bands (ev):

   -65.1326 -65.1115 -65.0923 -65.0634 -65.0539 -65.0107 -64.9218 -64.8857
   -64.8739 -64.8686 -64.8583 -64.8039 -37.4230 -37.3840 -37.3731 -37.3659
   -37.3612 -37.3409 -37.2902 -37.2722 -37.2624 -37.1911 -37.1319 -37.1151
   -37.0891 -37.0379 -37.0295 -36.9904 -36.9656 -36.9615 -36.9162 -36.8950
   -36.8481 -36.8329 -36.8257 -36.8171 -36.8037 -36.8005 -36.7870 -36.7590
   -36.7369 -36.7158 -36.6869 -36.6733 -36.6527 -36.5819 -36.5783 -36.5733
   -10.8844  -2.4625  -2.3470  -2.3392  -1.8675  -1.7907  -1.7414  -1.7226
    -1.7136  -1.5264  -1.4825  -1.3894  -1.3321  -1.2857  -1.2758  -1.2422
    -1.1090  -0.9325  -0.8863  -0.7296  -0.4646  -0.4315  -0.3625  -0.3093
    -0.2751  -0.2130  -0.1611  -0.1019  -0.0753  -0.0243   0.0748   0.2087
     0.2681   0.3815   0.6273   0.6650   0.9347   0.9963   1.0287   1.1596
     1.1732   1.2743   1.6424   1.7700   1.8651   1.9855   2.3005   2.3318
     2.3586   2.5923   2.6819   2.6855   2.8298   3.1941

          k = 0.0608-0.0702 0.0000 ( 16203 PWs)   bands (ev):

   -65.1492 -65.1069 -65.0895 -65.0577 -65.0482 -65.0151 -64.9186 -64.8942
   -64.8862 -64.8634 -64.8395 -64.8076 -37.4769 -37.4467 -37.4082 -37.3950
   -37.3820 -37.3720 -37.3281 -37.2563 -37.2032 -37.1870 -37.1623 -37.1341
   -37.0802 -37.0321 -37.0156 -36.9713 -36.9404 -36.9168 -36.9048 -36.8791
   -36.8501 -36.8435 -36.8283 -36.8220 -36.8034 -36.7888 -36.7599 -36.7480
   -36.7253 -36.7187 -36.6750 -36.6577 -36.6441 -36.6248 -36.5652 -36.5053
   -10.8868  -3.0087  -2.5565  -2.2389  -2.1454  -2.1368  -2.0405  -1.9734
    -1.7953  -1.7327  -1.6759  -1.6499  -1.4705  -1.4073  -1.3090  -1.1781
    -1.0332  -0.9560  -0.8010  -0.7214  -0.5914  -0.4946  -0.4213  -0.2781
    -0.1921  -0.1088   0.0645   0.1235   0.3000   0.4027   0.4439   0.5046
     0.5804   0.6898   0.7439   0.8202   0.9150   1.0842   1.1860   1.2559
     1.3903   1.4399   1.5075   1.8430   1.9335   2.0667   2.1499   2.1835
     2.3437   2.4702   2.5777   2.6886   2.8485   2.9596

          k =-0.0912 0.0526 0.0000 ( 16164 PWs)   bands (ev):

   -65.1360 -65.1290 -65.0751 -65.0710 -65.0350 -65.0229 -64.9064 -64.8970
   -64.8866 -64.8773 -64.8258 -64.8140 -37.4648 -37.4563 -37.4170 -37.4064
   -37.3977 -37.3832 -37.2661 -37.2258 -37.2127 -37.2078 -37.1636 -37.1512
   -37.1010 -37.0417 -36.9541 -36.9410 -36.9267 -36.9198 -36.8947 -36.8894
   -36.8757 -36.8585 -36.8286 -36.8230 -36.7954 -36.7927 -36.7910 -36.7784
   -36.7204 -36.7087 -36.6724 -36.6698 -36.6523 -36.6382 -36.5171 -36.5084
   -10.8815  -2.9211  -2.8364  -2.2753  -2.1729  -2.1499  -2.1023  -1.9184
    -1.8430  -1.7050  -1.6437  -1.5492  -1.4137  -1.3562  -1.2790  -1.1833
    -1.1067  -0.8980  -0.7557  -0.7100  -0.5544  -0.4795  -0.4101  -0.3535
    -0.1652  -0.1277   0.1604   0.2197   0.4553   0.5651   0.5899   0.6585
     0.7108   0.7751   0.7828   0.8608   0.8737   0.9248   1.0250   1.1241
     1.2297   1.2712   1.7880   1.9429   1.9740   1.9825   2.0517   2.1268
     2.4046   2.4610   2.5050   2.6332   2.6543   2.7544

          k =-0.0912 0.0877 0.0000 ( 16203 PWs)   bands (ev):

   -65.1456 -65.1143 -65.0774 -65.0710 -65.0453 -65.0150 -64.9077 -64.8984
   -64.8909 -64.8626 -64.8404 -64.8074 -37.4710 -37.4351 -37.4152 -37.3928
   -37.3829 -37.3726 -37.3282 -37.2611 -37.2146 -37.1785 -37.1578 -37.1297
   -37.1068 -37.0692 -36.9994 -36.9583 -36.9462 -36.8986 -36.8853 -36.8791
   -36.8521 -36.8371 -36.8277 -36.8174 -36.8045 -36.7971 -36.7611 -36.7439
   -36.7258 -36.7138 -36.6778 -36.6612 -36.6458 -36.6329 -36.5634 -36.5079
   -10.8815  -3.0188  -2.5515  -2.2524  -2.1687  -2.1317  -2.0283  -1.9616
    -1.7927  -1.7245  -1.6716  -1.6543  -1.5039  -1.3961  -1.2985  -1.1368
    -1.0539  -0.8917  -0.8016  -0.7411  -0.6388  -0.5206  -0.4039  -0.2648
    -0.1639  -0.1437   0.0427   0.1293   0.3035   0.4013   0.4240   0.5334
     0.5936   0.6569   0.7295   0.8165   0.8680   1.0837   1.1818   1.2736
     1.3600   1.4263   1.5375   1.8461   1.9409   1.9932   2.1271   2.2102
     2.3861   2.4708   2.5536   2.7569   2.8315   3.0895

          k =-0.0912 0.1228 0.0000 ( 16203 PWs)   bands (ev):

   -65.1456 -65.1143 -65.0773 -65.0711 -65.0455 -65.0150 -64.9076 -64.8985
   -64.8910 -64.8621 -64.8409 -64.8073 -37.4711 -37.4352 -37.4152 -37.3929
   -37.3828 -37.3725 -37.3282 -37.2610 -37.2149 -37.1784 -37.1578 -37.1297
   -37.1067 -37.0693 -36.9994 -36.9584 -36.9463 -36.8985 -36.8854 -36.8791
   -36.8521 -36.8372 -36.8278 -36.8176 -36.8042 -36.7970 -36.7611 -36.7439
   -36.7259 -36.7137 -36.6778 -36.6611 -36.6460 -36.6329 -36.5636 -36.5078
   -10.8815  -3.0188  -2.5515  -2.2524  -2.1687  -2.1317  -2.0283  -1.9615
    -1.7928  -1.7245  -1.6716  -1.6543  -1.5039  -1.3962  -1.2984  -1.1368
    -1.0539  -0.8916  -0.8017  -0.7410  -0.6388  -0.5206  -0.4040  -0.2648
    -0.1639  -0.1438   0.0427   0.1293   0.3036   0.4013   0.4240   0.5334
     0.5935   0.6570   0.7295   0.8164   0.8679   1.0836   1.1818   1.2737
     1.3600   1.4262   1.5374   1.8461   1.9409   1.9932   2.1271   2.2102
     2.3862   2.4708   2.5535   2.7570   2.8315   3.0893

          k =-0.0912-0.0526 0.0000 ( 16164 PWs)   bands (ev):

   -65.1362 -65.1289 -65.0748 -65.0710 -65.0356 -65.0225 -64.9064 -64.8971
   -64.8873 -64.8762 -64.8268 -64.8134 -37.4651 -37.4562 -37.4169 -37.4067
   -37.3975 -37.3830 -37.2660 -37.2260 -37.2130 -37.2074 -37.1629 -37.1518
   -37.1013 -37.0415 -36.9540 -36.9413 -36.9266 -36.9198 -36.8947 -36.8893
   -36.8757 -36.8585 -36.8289 -36.8226 -36.7959 -36.7922 -36.7915 -36.7781
   -36.7206 -36.7084 -36.6721 -36.6702 -36.6522 -36.6384 -36.5180 -36.5076
   -10.8815  -2.9210  -2.8365  -2.2755  -2.1727  -2.1497  -2.1024  -1.9183
    -1.8431  -1.7051  -1.6437  -1.5491  -1.4138  -1.3561  -1.2789  -1.1833
    -1.1066  -0.8979  -0.7557  -0.7102  -0.5543  -0.4794  -0.4101  -0.3536
    -0.1653  -0.1276   0.1606   0.2196   0.4552   0.5650   0.5900   0.6584
     0.7108   0.7751   0.7827   0.8610   0.8737   0.9247   1.0251   1.1242
     1.2296   1.2713   1.7878   1.9431   1.9741   1.9825   2.0516   2.1268
     2.4045   2.4609   2.5050   2.6334   2.6542   2.7539

     the Fermi energy is     2.0812 ev

!    total energy              =   -2123.62413348 Ry
     Harris-Foulkes estimate   =   -2123.62414374 Ry
     estimated scf accuracy    <       0.00000407 Ry

     The total energy is the sum of the following terms:

     one-electron contribution =  -19028.07848019 Ry
     hartree contribution      =    9512.76564188 Ry
     xc contribution           =    -402.22694226 Ry
     ewald contribution        =    7794.00399252 Ry
     electric field correction =       0.00027304 Ry
     smearing contrib. (-TS)   =      -0.08861847 Ry

     convergence has been achieved in  45 iterations
 
 BEEF-vdW xc energy contributions
           1 :   -352.315947729367     
           2 :    323.791585356545     
           3 :   -273.128247587880     
           4 :    210.562902219641     
           5 :   -146.950856056092     
           6 :    90.7812779775213     
           7 :   -46.5494908431249     
           8 :    14.6756385665993     
           9 :    7.21722267926907     
          10 :   -22.4455470911273     
          11 :    33.5908594637028     
          12 :   -41.6497540599918     
          13 :    46.1192490219651     
          14 :   -45.8136895429390     
          15 :    39.9050265830359     
          16 :   -28.7251559216124     
          17 :    13.9945966991112     
          18 :    1.56483532264053     
          19 :   -15.0463640811952     
          20 :    24.2229638179306     
          21 :   -28.1177111506756     
          22 :    27.0717597670528     
          23 :   -22.3543298675243     
          24 :    15.5375433332969     
          25 :   -7.94231757306864     
          26 :   0.372381093925583     
          27 :    6.80948015111056     
          28 :   -13.3910442410445     
          29 :    19.0153927689196     
          30 :   -23.0654963304559     
          31 :   -33.6151747523605     
          32 :   -24.6481702706160     

     Forces acting on atoms (Ry/au):


     negative rho (up, down):  1.591E+00 0.000E+00
     atom    1 type  1   force =    -0.00007639    0.00194247    0.02816798
     atom    2 type  1   force =     0.00009115   -0.00181125    0.02800072
     atom    3 type  1   force =    -0.00370679    0.00055155    0.03109890
     atom    4 type  1   force =     0.00371073    0.00044977    0.03120653
     atom    5 type  1   force =     0.00314098    0.00557744   -0.00293585
     atom    6 type  1   force =    -0.00316045    0.00549072   -0.00282799
     atom    7 type  1   force =    -0.00006447   -0.01271682   -0.04244508
     atom    8 type  1   force =     0.00008071   -0.00674470    0.00758843
     atom    9 type  1   force =     0.02327449    0.01666793    0.07915152
     atom   10 type  1   force =    -0.02328429    0.01654991    0.07923560
     atom   11 type  1   force =    -0.00009500   -0.00119344   -0.02011408
     atom   12 type  1   force =     0.00008449   -0.01825108   -0.02756259
     atom   13 type  2   force =     0.00000485   -0.00651251   -0.18856409

     Total force =     0.226443     Total SCF correction =     0.007274


     entering subroutine stress ...


     negative rho (up, down):  1.591E+00 0.000E+00
          total   stress  (Ry/bohr**3)                   (kbar)     P=  -40.20
  -0.00023987   0.00000000  -0.00000002        -35.29      0.00     -0.00
   0.00000000  -0.00024009   0.00000125          0.00    -35.32      0.18
  -0.00000002   0.00000125  -0.00033985         -0.00      0.18    -49.99


     BFGS Geometry Optimization

     number of scf cycles    =   1
     number of bfgs steps    =   0

     energy   new            =   -2123.6241334826 Ry

     new trust radius        =       0.1886765185 bohr
     new conv_thr            =       0.0000099958 Ry


ATOMIC_POSITIONS (crystal)
Tc1      0.166666667   0.166666667   0.408540475    0   0   0
Tc1      0.666666667   0.166666667   0.408540475    0   0   0
Tc1      0.166666667   0.666666667   0.408540475    0   0   0
Tc1      0.666666667   0.666666667   0.408540475    0   0   0
Tc1      0.833333333   0.333333333   0.500000000    0   0   0
Tc1      0.333333333   0.333333333   0.500000000    0   0   0
Tc1      0.833333333   0.833333333   0.500000000    0   0   0
Tc1      0.333333333   0.833333333   0.500000000    0   0   0
Tc1      0.001317359   0.001857303   0.593170704
Tc1      0.496830968   0.001844152   0.593172522
Tc1      0.000057325   0.499867016   0.591024678
Tc1      0.501025010   0.497966287   0.590863649
N1       0.250363311  -0.000725687   0.654179320



     Writing output data file calc.save
     Check: negative starting charge=   -1.504989
     NEW-OLD atomic charge density approx. for the potential

     Check: negative/imaginary core charge=   -0.000022    0.000000
     Check: negative starting charge=   -1.506880

     negative rho (up, down):  1.592E+00 0.000E+00
 
     Adding external electric field

     Computed dipole along edir(3) : 
        Dipole               -0.1950 Ry au,         -0.4957 Debye
        Dipole field         -0.0006 Ry au
 
        Potential amp.        0.0514 Ry
        Total length         45.0992 bohr
 

     total cpu time spent up to now is      925.6 secs

     per-process dynamical memory:   101.3 Mb

     Self-consistent Calculation

     iteration #  1     ecut=    36.75 Ry     beta=0.30
     Davidson diagonalization with overlap
     ethr =  1.00E-06,  avg # of iterations = 14.8

     negative rho (up, down):  1.592E+00 0.000E+00
 
     Adding external electric field

     Computed dipole along edir(3) : 
        Dipole               -2.2198 Ry au,         -5.6422 Debye
        Dipole field         -0.0065 Ry au
 
        Potential amp.        0.5849 Ry
        Total length         45.0992 bohr
 

     total cpu time spent up to now is      963.6 secs

     total energy              =   -2123.37289862 Ry
     Harris-Foulkes estimate   =   -2123.66781239 Ry
     estimated scf accuracy    <       0.61462336 Ry

     iteration #  2     ecut=    36.75 Ry     beta=0.30
     Davidson diagonalization with overlap
     ethr =  3.32E-04,  avg # of iterations =  7.4

     negative rho (up, down):  1.591E+00 0.000E+00
 
     Adding external electric field

     Computed dipole along edir(3) : 
        Dipole               -0.2420 Ry au,         -0.6151 Debye
        Dipole field         -0.0007 Ry au
 
        Potential amp.        0.0638 Ry
        Total length         45.0992 bohr
 

     total cpu time spent up to now is      988.7 secs

     total energy              =   -2119.79964481 Ry
     Harris-Foulkes estimate   =   -2127.66223862 Ry
     estimated scf accuracy    <     331.37559542 Ry

     iteration #  3     ecut=    36.75 Ry     beta=0.30
     Davidson diagonalization with overlap
     ethr =  3.32E-04,  avg # of iterations =  5.9

     negative rho (up, down):  1.591E+00 0.000E+00
 
     Adding external electric field

     Computed dipole along edir(3) : 
        Dipole               -0.2820 Ry au,         -0.7168 Debye
        Dipole field         -0.0008 Ry au
 
        Potential amp.        0.0743 Ry
        Total length         45.0992 bohr
 

     total cpu time spent up to now is     1012.4 secs

     total energy              =   -2123.62423993 Ry
     Harris-Foulkes estimate   =   -2123.71033404 Ry
     estimated scf accuracy    <       1.27057578 Ry

     iteration #  4     ecut=    36.75 Ry     beta=0.30
     Davidson diagonalization with overlap
     ethr =  3.32E-04,  avg # of iterations =  3.7

     negative rho (up, down):  1.592E+00 0.000E+00
 
     Adding external electric field

     Computed dipole along edir(3) : 
        Dipole               -0.2530 Ry au,         -0.6431 Debye
        Dipole field         -0.0007 Ry au
 
        Potential amp.        0.0667 Ry
        Total length         45.0992 bohr
 

     total cpu time spent up to now is     1030.2 secs

     total energy              =   -2123.66316909 Ry
     Harris-Foulkes estimate   =   -2123.66523317 Ry
     estimated scf accuracy    <       0.01284433 Ry

     iteration #  5     ecut=    36.75 Ry     beta=0.30
     Davidson diagonalization with overlap
     ethr =  6.94E-06,  avg # of iterations =  6.2

     negative rho (up, down):  1.592E+00 0.000E+00
 
     Adding external electric field

     Computed dipole along edir(3) : 
        Dipole               -0.2503 Ry au,         -0.6361 Debye
        Dipole field         -0.0007 Ry au
 
        Potential amp.        0.0659 Ry
        Total length         45.0992 bohr
 

     total cpu time spent up to now is     1055.7 secs

     total energy              =   -2123.66976860 Ry
     Harris-Foulkes estimate   =   -2123.67065180 Ry
     estimated scf accuracy    <       0.01107952 Ry

     iteration #  6     ecut=    36.75 Ry     beta=0.30
     Davidson diagonalization with overlap
     ethr =  5.99E-06,  avg # of iterations =  1.0

     negative rho (up, down):  1.592E+00 0.000E+00
 
     Adding external electric field

     Computed dipole along edir(3) : 
        Dipole               -0.2518 Ry au,         -0.6401 Debye
        Dipole field         -0.0007 Ry au
 
        Potential amp.        0.0664 Ry
        Total length         45.0992 bohr
 

     total cpu time spent up to now is     1073.4 secs

     total energy              =   -2123.66973812 Ry
     Harris-Foulkes estimate   =   -2123.67010272 Ry
     estimated scf accuracy    <       0.00427844 Ry

     iteration #  7     ecut=    36.75 Ry     beta=0.30
     Davidson diagonalization with overlap
     ethr =  2.31E-06,  avg # of iterations =  3.1

     negative rho (up, down):  1.592E+00 0.000E+00
 
     Adding external electric field

     Computed dipole along edir(3) : 
        Dipole               -0.2493 Ry au,         -0.6336 Debye
        Dipole field         -0.0007 Ry au
 
        Potential amp.        0.0657 Ry
        Total length         45.0992 bohr
 

     total cpu time spent up to now is     1092.3 secs

     total energy              =   -2123.66989727 Ry
     Harris-Foulkes estimate   =   -2123.67000702 Ry
     estimated scf accuracy    <       0.00074058 Ry

     iteration #  8     ecut=    36.75 Ry     beta=0.30
     Davidson diagonalization with overlap
     ethr =  4.00E-07,  avg # of iterations =  5.5

     negative rho (up, down):  1.592E+00 0.000E+00
 
     Adding external electric field

     Computed dipole along edir(3) : 
        Dipole               -0.2481 Ry au,         -0.6307 Debye
        Dipole field         -0.0007 Ry au
 
        Potential amp.        0.0654 Ry
        Total length         45.0992 bohr
 

     total cpu time spent up to now is     1115.8 secs

     total energy              =   -2123.67003765 Ry
     Harris-Foulkes estimate   =   -2123.67011790 Ry
     estimated scf accuracy    <       0.00200628 Ry

     iteration #  9     ecut=    36.75 Ry     beta=0.30
     Davidson diagonalization with overlap
     ethr =  4.00E-07,  avg # of iterations =  1.0

     negative rho (up, down):  1.592E+00 0.000E+00
 
     Adding external electric field

     Computed dipole along edir(3) : 
        Dipole               -0.2474 Ry au,         -0.6288 Debye
        Dipole field         -0.0007 Ry au
 
        Potential amp.        0.0652 Ry
        Total length         45.0992 bohr
 

     total cpu time spent up to now is     1133.5 secs

     total energy              =   -2123.67000066 Ry
     Harris-Foulkes estimate   =   -2123.67006619 Ry
     estimated scf accuracy    <       0.00095802 Ry

     iteration # 10     ecut=    36.75 Ry     beta=0.30
     Davidson diagonalization with overlap
     ethr =  4.00E-07,  avg # of iterations =  3.2

     negative rho (up, down):  1.592E+00 0.000E+00
 
     Adding external electric field

     Computed dipole along edir(3) : 
        Dipole               -0.2478 Ry au,         -0.6298 Debye
        Dipole field         -0.0007 Ry au
 
        Potential amp.        0.0653 Ry
        Total length         45.0992 bohr
 

     total cpu time spent up to now is     1152.8 secs

     total energy              =   -2123.67003348 Ry
     Harris-Foulkes estimate   =   -2123.67003676 Ry
     estimated scf accuracy    <       0.00005166 Ry

     iteration # 11     ecut=    36.75 Ry     beta=0.30
     Davidson diagonalization with overlap
     ethr =  2.79E-08,  avg # of iterations =  5.3

     negative rho (up, down):  1.592E+00 0.000E+00
 
     Adding external electric field

     Computed dipole along edir(3) : 
        Dipole               -0.2490 Ry au,         -0.6328 Debye
        Dipole field         -0.0007 Ry au
 
        Potential amp.        0.0656 Ry
        Total length         45.0992 bohr
 

     total cpu time spent up to now is     1176.3 secs

     total energy              =   -2123.67004601 Ry
     Harris-Foulkes estimate   =   -2123.67004615 Ry
     estimated scf accuracy    <       0.00003899 Ry

     iteration # 12     ecut=    36.75 Ry     beta=0.30
     Davidson diagonalization with overlap
     ethr =  2.11E-08,  avg # of iterations =  1.0

     negative rho (up, down):  1.593E+00 0.000E+00
 
     Adding external electric field

     Computed dipole along edir(3) : 
        Dipole               -0.2492 Ry au,         -0.6334 Debye
        Dipole field         -0.0007 Ry au
 
        Potential amp.        0.0657 Ry
        Total length         45.0992 bohr
 

     total cpu time spent up to now is     1194.1 secs

     total energy              =   -2123.67004673 Ry
     Harris-Foulkes estimate   =   -2123.67004720 Ry
     estimated scf accuracy    <       0.00002907 Ry

     iteration # 13     ecut=    36.75 Ry     beta=0.30
     Davidson diagonalization with overlap
     ethr =  1.57E-08,  avg # of iterations =  1.0

     negative rho (up, down):  1.593E+00 0.000E+00
 
     Adding external electric field

     Computed dipole along edir(3) : 
        Dipole               -0.2492 Ry au,         -0.6333 Debye
        Dipole field         -0.0007 Ry au
 
        Potential amp.        0.0657 Ry
        Total length         45.0992 bohr
 

     total cpu time spent up to now is     1212.0 secs

     total energy              =   -2123.67004648 Ry
     Harris-Foulkes estimate   =   -2123.67004751 Ry
     estimated scf accuracy    <       0.00001697 Ry

     iteration # 14     ecut=    36.75 Ry     beta=0.30
     Davidson diagonalization with overlap
     ethr =  9.17E-09,  avg # of iterations =  1.6

     negative rho (up, down):  1.593E+00 0.000E+00

     negative rho (up, down):  1.593E+00 0.000E+00

     negative rho (up, down):  1.593E+00 0.000E+00

     negative rho (up, down):  1.593E+00 0.000E+00

     negative rho (up, down):  1.593E+00 0.000E+00

     negative rho (up, down):  1.593E+00 0.000E+00

     negative rho (up, down):  1.593E+00 0.000E+00

     negative rho (up, down):  1.593E+00 0.000E+00

     negative rho (up, down):  1.593E+00 0.000E+00

     negative rho (up, down):  1.593E+00 0.000E+00

     negative rho (up, down):  1.593E+00 0.000E+00

     negative rho (up, down):  1.593E+00 0.000E+00

     negative rho (up, down):  1.593E+00 0.000E+00

     negative rho (up, down):  1.593E+00 0.000E+00

     negative rho (up, down):  1.593E+00 0.000E+00

     negative rho (up, down):  1.593E+00 0.000E+00

     negative rho (up, down):  1.593E+00 0.000E+00

     negative rho (up, down):  1.593E+00 0.000E+00

     negative rho (up, down):  1.593E+00 0.000E+00

     negative rho (up, down):  1.593E+00 0.000E+00

     negative rho (up, down):  1.593E+00 0.000E+00

     negative rho (up, down):  1.593E+00 0.000E+00

     negative rho (up, down):  1.593E+00 0.000E+00

     negative rho (up, down):  1.593E+00 0.000E+00

     negative rho (up, down):  1.593E+00 0.000E+00

[...]
   -64.5358 -64.5075 -64.4997 -64.4896 -37.3204 -37.2269 -37.2071 -37.1572
   -37.1249 -37.1203 -37.1070 -36.9557 -36.9141 -36.8709 -36.8033 -36.8031
   -36.7789 -36.7408 -36.6618 -36.6552 -36.6005 -36.5899 -36.5475 -36.5367
   -36.5221 -36.5204 -36.4913 -36.4465 -36.4412 -36.4176 -36.4131 -36.3881
   -36.3697 -36.3489 -36.3308 -36.3214 -36.2451 -36.2444 -36.2109 -36.1407
   -12.2490  -3.4293  -3.0396  -2.6965  -2.6486  -2.4528  -2.2225  -2.1752
    -2.0655  -1.8930  -1.8074  -1.7338  -1.7105  -1.5405  -1.5215  -1.2996
    -1.1251  -1.0051  -0.5173  -0.3728  -0.3144  -0.1951  -0.0506   0.2013
     0.3187   0.3217   0.4234   0.5322   0.7156   0.7488   0.9274   0.9797
     1.0975   1.2016   1.2845   1.3392   1.4082   1.4940   1.7011   1.9051
     1.9318   2.0235   2.0837   2.2103   2.2301   2.4147   2.4660   2.7119
     2.8032   3.1273   3.3057   3.4304   3.4355   3.6203

          k = 0.0608 0.0000 0.0000 ( 16202 PWs)   bands (ev):

   -64.8476 -64.7408 -64.7291 -64.7176 -64.6910 -64.6683 -64.6575 -64.6031
   -64.5246 -64.5158 -64.4957 -64.4891 -37.3479 -37.2529 -37.2103 -37.1911
   -37.1546 -37.1364 -37.1316 -36.9740 -36.9206 -36.9035 -36.8061 -36.7688
   -36.7562 -36.7495 -36.6738 -36.6386 -36.6043 -36.5719 -36.5671 -36.5389
   -36.5066 -36.4876 -36.4615 -36.4557 -36.4358 -36.4117 -36.3935 -36.3815
   -36.3675 -36.3287 -36.2939 -36.2857 -36.2811 -36.2247 -36.2107 -36.1340
   -12.2632  -3.4937  -3.1200  -2.8732  -2.7034  -2.4704  -2.4303  -2.2863
    -2.1070  -2.0173  -1.9778  -1.9387  -1.8372  -1.6232  -1.5502  -1.4026
    -1.2304  -1.1489  -0.4948  -0.3964  -0.3222  -0.1373   0.0224   0.2915
     0.3565   0.4047   0.4445   0.4697   0.6932   0.8430   1.0045   1.0431
     1.0877   1.2072   1.2779   1.3444   1.4384   1.6414   1.8047   1.9058
     2.0726   2.1535   2.2750   2.3959   2.4755   2.5473   2.5993   2.7468
     3.0240   3.2105   3.3593   3.4794   3.6211   3.7952

          k = 0.0608 0.0351 0.0000 ( 16149 PWs)   bands (ev):

   -64.8381 -64.7529 -64.7276 -64.7020 -64.7012 -64.6736 -64.6562 -64.5962
   -64.5358 -64.5075 -64.4997 -64.4896 -37.3204 -37.2269 -37.2071 -37.1572
   -37.1249 -37.1203 -37.1070 -36.9557 -36.9141 -36.8709 -36.8033 -36.8031
   -36.7789 -36.7408 -36.6618 -36.6552 -36.6005 -36.5899 -36.5475 -36.5367
   -36.5221 -36.5204 -36.4913 -36.4465 -36.4412 -36.4176 -36.4131 -36.3881
   -36.3697 -36.3489 -36.3308 -36.3214 -36.2451 -36.2444 -36.2109 -36.1407
   -12.2490  -3.4293  -3.0396  -2.6965  -2.6486  -2.4528  -2.2225  -2.1752
    -2.0655  -1.8930  -1.8074  -1.7338  -1.7105  -1.5405  -1.5215  -1.2996
    -1.1251  -1.0051  -0.5173  -0.3728  -0.3144  -0.1951  -0.0506   0.2013
     0.3187   0.3217   0.4233   0.5322   0.7156   0.7488   0.9274   0.9797
     1.0975   1.2016   1.2845   1.3392   1.4082   1.4940   1.7011   1.9051
     1.9318   2.0235   2.0837   2.2103   2.2301   2.4147   2.4660   2.7119
     2.8032   3.1273   3.3057   3.4304   3.4355   3.6203

          k = 0.0608-0.1404 0.0000 ( 16203 PWs)   bands (ev):

   -64.8120 -64.7680 -64.7349 -64.7104 -64.6862 -64.6801 -64.6594 -64.5777
   -64.5465 -64.5233 -64.4921 -64.4905 -37.2479 -37.1752 -37.1291 -37.1258
   -37.0895 -37.0726 -37.0228 -36.9575 -36.9086 -36.8571 -36.8469 -36.8256
   -36.7730 -36.7302 -36.6858 -36.6533 -36.6297 -36.5815 -36.5665 -36.5524
   -36.5355 -36.5226 -36.5000 -36.4898 -36.4775 -36.4563 -36.4374 -36.4183
   -36.3954 -36.3706 -36.3335 -36.3067 -36.2704 -36.2468 -36.2336 -36.1834
   -12.2206  -3.3192  -2.6135  -2.5933  -2.4169  -2.1787  -1.9152  -1.8667
    -1.7799  -1.6347  -1.5309  -1.4271  -1.3912  -1.2793  -1.1437  -1.0580
    -0.9612  -0.8241  -0.6445  -0.4783  -0.3472  -0.2517  -0.0822   0.0092
     0.0736   0.1483   0.2569   0.3826   0.5293   0.5902   0.7126   0.7795
     0.8543   0.9368   1.0486   1.1129   1.2020   1.3252   1.5071   1.5400
     1.6255   1.7381   1.8710   2.0751   2.2863   2.4004   2.4729   2.5026
     2.7304   2.8307   2.9351   3.0653   3.3265   3.4384

          k = 0.0608-0.1053 0.0000 ( 16272 PWs)   bands (ev):

   -64.7811 -64.7783 -64.7614 -64.6990 -64.6935 -64.6721 -64.6656 -64.5591
   -64.5467 -64.5458 -64.4910 -64.4881 -37.1813 -37.1288 -37.1103 -37.0738
   -37.0714 -37.0584 -36.9788 -36.9688 -36.9611 -36.9013 -36.8654 -36.7559
   -36.7440 -36.7223 -36.7039 -36.6685 -36.6497 -36.6424 -36.6049 -36.5546
   -36.5453 -36.5085 -36.5043 -36.4833 -36.4674 -36.4638 -36.4590 -36.4397
   -36.4135 -36.3608 -36.3078 -36.3050 -36.2838 -36.2546 -36.2441 -36.2399
   -12.2062  -3.2519  -2.5411  -2.3876  -2.0622  -1.9387  -1.9358  -1.5569
    -1.5106  -1.4347  -1.4194  -1.2494  -1.1348  -1.1125  -1.0373  -0.9902
    -0.9462  -0.7633  -0.5900  -0.5044  -0.4584  -0.2115  -0.1075   0.0115
     0.0151   0.0465   0.1119   0.1968   0.2034   0.2735   0.2752   0.3752
     0.5997   0.6777   0.9515   0.9818   1.0217   1.3062   1.3595   1.4314
     1.5417   1.7196   1.9593   2.0694   2.1020   2.2171   2.6159   2.6936
     2.7979   2.8178   3.1138   3.2005   3.2703   3.5773

          k = 0.0608-0.0702 0.0000 ( 16203 PWs)   bands (ev):

   -64.8120 -64.7680 -64.7349 -64.7104 -64.6862 -64.6801 -64.6594 -64.5777
   -64.5465 -64.5233 -64.4921 -64.4905 -37.2479 -37.1752 -37.1291 -37.1258
   -37.0895 -37.0726 -37.0228 -36.9575 -36.9086 -36.8571 -36.8469 -36.8256
   -36.7730 -36.7302 -36.6858 -36.6533 -36.6297 -36.5815 -36.5665 -36.5524
   -36.5355 -36.5226 -36.5000 -36.4898 -36.4775 -36.4563 -36.4374 -36.4183
   -36.3954 -36.3706 -36.3335 -36.3067 -36.2704 -36.2468 -36.2336 -36.1834
   -12.2206  -3.3192  -2.6135  -2.5933  -2.4169  -2.1787  -1.9152  -1.8667
    -1.7799  -1.6347  -1.5309  -1.4271  -1.3912  -1.2793  -1.1438  -1.0580
    -0.9612  -0.8241  -0.6445  -0.4783  -0.3472  -0.2517  -0.0822   0.0092
     0.0736   0.1483   0.2569   0.3826   0.5293   0.5902   0.7126   0.7795
     0.8543   0.9368   1.0486   1.1129   1.2020   1.3252   1.5071   1.5400
     1.6255   1.7381   1.8710   2.0751   2.2863   2.4004   2.4729   2.5026
     2.7304   2.8307   2.9351   3.0653   3.3265   3.4384

          k =-0.0912 0.0526 0.0000 ( 16164 PWs)   bands (ev):

   -64.8018 -64.7893 -64.7169 -64.7014 -64.6989 -64.6866 -64.6561 -64.5706
   -64.5613 -64.5080 -64.4997 -64.4905 -37.2510 -37.1753 -37.1503 -37.1373
   -37.0926 -37.0786 -36.9539 -36.9202 -36.9071 -36.8850 -36.8460 -36.8451
   -36.8280 -36.7052 -36.6596 -36.6011 -36.5895 -36.5874 -36.5744 -36.5636
   -36.5528 -36.5329 -36.5111 -36.4860 -36.4738 -36.4725 -36.4640 -36.4620
   -36.3927 -36.3621 -36.3473 -36.3183 -36.2697 -36.2356 -36.1925 -36.1836
   -12.2207  -3.3709  -2.5612  -2.4803  -2.4291  -2.3883  -1.9713  -1.8637
    -1.8483  -1.5985  -1.4909  -1.4482  -1.2926  -1.2129  -1.1443  -1.0479
    -0.9443  -0.8945  -0.8061  -0.4364  -0.2847  -0.1670  -0.1288  -0.0004
     0.0658   0.2558   0.3461   0.5016   0.6389   0.6595   0.9344   0.9758
     1.0003   1.0409   1.0974   1.1278   1.1570   1.3005   1.3153   1.3313
     1.3914   1.6883   2.0118   2.2099   2.2244   2.2806   2.5398   2.5752
     2.5884   2.7875   2.8367   3.0209   3.0676   3.0939

          k =-0.0912 0.0877 0.0000 ( 16203 PWs)   bands (ev):

   -64.8120 -64.7681 -64.7348 -64.7105 -64.6860 -64.6802 -64.6594 -64.5777
   -64.5465 -64.5234 -64.4921 -64.4905 -37.2480 -37.1748 -37.1294 -37.1260
   -37.0894 -37.0724 -37.0229 -36.9577 -36.9088 -36.8567 -36.8470 -36.8254
   -36.7731 -36.7306 -36.6860 -36.6530 -36.6293 -36.5815 -36.5663 -36.5525
   -36.5354 -36.5227 -36.5001 -36.4898 -36.4776 -36.4563 -36.4374 -36.4182
   -36.3955 -36.3706 -36.3334 -36.3068 -36.2703 -36.2468 -36.2336 -36.1834
   -12.2206  -3.3188  -2.6141  -2.5944  -2.4155  -2.1790  -1.9156  -1.8662
    -1.7796  -1.6343  -1.5308  -1.4284  -1.3913  -1.2791  -1.1443  -1.0580
    -0.9606  -0.8239  -0.6446  -0.4781  -0.3476  -0.2518  -0.0825   0.0092
     0.0745   0.1488   0.2564   0.3833   0.5285   0.5893   0.7122   0.7791
     0.8538   0.9371   1.0485   1.1129   1.2025   1.3253   1.5070   1.5406
     1.6260   1.7385   1.8720   2.0749   2.2866   2.4000   2.4735   2.5030
     2.7301   2.8301   2.9358   3.0638   3.3272   3.4388

          k =-0.0912 0.1228 0.0000 ( 16203 PWs)   bands (ev):

   -64.8120 -64.7681 -64.7348 -64.7105 -64.6860 -64.6802 -64.6594 -64.5777
   -64.5465 -64.5234 -64.4921 -64.4905 -37.2480 -37.1748 -37.1294 -37.1260
   -37.0894 -37.0724 -37.0229 -36.9577 -36.9088 -36.8567 -36.8470 -36.8254
   -36.7731 -36.7306 -36.6860 -36.6530 -36.6293 -36.5815 -36.5663 -36.5525
   -36.5354 -36.5227 -36.5001 -36.4898 -36.4776 -36.4563 -36.4374 -36.4182
   -36.3955 -36.3706 -36.3334 -36.3068 -36.2703 -36.2468 -36.2336 -36.1834
   -12.2206  -3.3188  -2.6141  -2.5944  -2.4155  -2.1790  -1.9156  -1.8662
    -1.7796  -1.6343  -1.5308  -1.4284  -1.3913  -1.2791  -1.1443  -1.0580
    -0.9606  -0.8239  -0.6446  -0.4781  -0.3476  -0.2518  -0.0825   0.0092
     0.0745   0.1488   0.2564   0.3833   0.5285   0.5893   0.7122   0.7791
     0.8538   0.9371   1.0485   1.1129   1.2025   1.3253   1.5070   1.5406
     1.6260   1.7385   1.8720   2.0749   2.2866   2.4000   2.4735   2.5029
     2.7301   2.8301   2.9358   3.0638   3.3272   3.4388

          k =-0.0912-0.0526 0.0000 ( 16164 PWs)   bands (ev):

   -64.8018 -64.7893 -64.7169 -64.7014 -64.6989 -64.6866 -64.6561 -64.5706
   -64.5613 -64.5080 -64.4997 -64.4905 -37.2510 -37.1753 -37.1503 -37.1373
   -37.0926 -37.0786 -36.9539 -36.9202 -36.9071 -36.8850 -36.8460 -36.8451
   -36.8280 -36.7052 -36.6596 -36.6011 -36.5895 -36.5874 -36.5744 -36.5636
   -36.5528 -36.5329 -36.5111 -36.4860 -36.4738 -36.4725 -36.4640 -36.4620
   -36.3927 -36.3621 -36.3473 -36.3183 -36.2697 -36.2356 -36.1925 -36.1836
   -12.2207  -3.3709  -2.5612  -2.4803  -2.4291  -2.3883  -1.9713  -1.8637
    -1.8483  -1.5985  -1.4909  -1.4482  -1.2926  -1.2129  -1.1443  -1.0479
    -0.9443  -0.8945  -0.8061  -0.4364  -0.2847  -0.1670  -0.1288  -0.0004
     0.0658   0.2558   0.3461   0.5016   0.6389   0.6595   0.9344   0.9758
     1.0003   1.0409   1.0974   1.1278   1.1570   1.3005   1.3153   1.3313
     1.3914   1.6883   2.0118   2.2099   2.2244   2.2806   2.5398   2.5752
     2.5884   2.7875   2.8367   3.0209   3.0676   3.0939

     the Fermi energy is     2.4090 ev

!    total energy              =   -2123.76989171 Ry
     Harris-Foulkes estimate   =   -2123.76989172 Ry
     estimated scf accuracy    <       0.00000007 Ry

     The total energy is the sum of the following terms:

     one-electron contribution =  -19405.40399294 Ry
     hartree contribution      =    9703.12322812 Ry
     xc contribution           =    -402.79787547 Ry
     ewald contribution        =    7981.39523712 Ry
     electric field correction =       0.00000869 Ry
     smearing contrib. (-TS)   =      -0.08649724 Ry

     convergence has been achieved in  13 iterations
 
 BEEF-vdW xc energy contributions
           1 :   -352.899446985714     
           2 :    324.564810224916     
           3 :   -274.131493340339     
           4 :    211.658736886843     
           5 :   -147.904850547701     
           6 :    91.3744295237980     
           7 :   -46.6722577586776     
           8 :    14.3738074092105     
           9 :    7.75881575804010     
          10 :   -22.9812216436876     
          11 :    33.9189978276438     
          12 :   -41.6923091479326     
          13 :    45.9408773450892     
          14 :   -45.5754245071491     
          15 :    39.7783968974219     
          16 :   -28.8092260765799     
          17 :    14.2714041390195     
          18 :    1.21625352268461     
          19 :   -14.7849351303994     
          20 :    24.1645469369537     
          21 :   -28.2785088555189     
          22 :    27.3622857307434     
          23 :   -22.6244014731511     
          24 :    15.6473709525052     
          25 :   -7.82666159423093     
          26 :   6.924587885566780E-002
          27 :    7.17751121366109     
          28 :   -13.6748494984997     
          29 :    19.1075932171501     
          30 :   -22.9457570229690     
          31 :   -33.6520409520240     
          32 :   -24.7264133937443     

     Forces acting on atoms (Ry/au):


     negative rho (up, down):  1.586E+00 0.000E+00
     atom    1 type  1   force =    -0.00000004   -0.00018351    0.02181589
     atom    2 type  1   force =    -0.00000005   -0.00000797    0.02490648
     atom    3 type  1   force =     0.00013265    0.00010092    0.02184054
     atom    4 type  1   force =    -0.00013279    0.00010095    0.02184078
     atom    5 type  1   force =     0.00329976    0.00201445   -0.02782417
     atom    6 type  1   force =    -0.00329966    0.00201449   -0.02782391
     atom    7 type  1   force =    -0.00000014   -0.00385620   -0.02788209
     atom    8 type  1   force =    -0.00000004   -0.00002341   -0.00769668
     atom    9 type  1   force =     0.00061476   -0.00080769    0.00080056
     atom   10 type  1   force =    -0.00061474   -0.00080706    0.00080231
     atom   11 type  1   force =     0.00000014    0.00020062    0.00013571
     atom   12 type  1   force =    -0.00000080    0.00141397   -0.00001415
     atom   13 type  2   force =     0.00000095   -0.00015953   -0.00090127

     Total force =     0.002498     Total SCF correction =     0.001452
     SCF correction compared to forces is large: reduce conv_thr to get better values


     entering subroutine stress ...


     negative rho (up, down):  1.586E+00 0.000E+00
          total   stress  (Ry/bohr**3)                   (kbar)     P=  -16.40
  -0.00011392  -0.00000000   0.00000000        -16.76     -0.00      0.00
  -0.00000000  -0.00011377  -0.00000020         -0.00    -16.74     -0.03
   0.00000000  -0.00000020  -0.00010676          0.00     -0.03    -15.70


     bfgs converged in  28 scf cycles and  26 bfgs steps
     (criteria: energy <  1.0E+00, force <  1.9E-03)

     End of BFGS Geometry Optimization

     Final energy   =   -2123.7698917110 Ry
Begin final coordinates

ATOMIC_POSITIONS (crystal)
Tc1      0.166666667   0.166666667   0.408540475    0   0   0
Tc1      0.666666667   0.166666667   0.408540475    0   0   0
Tc1      0.166666667   0.666666667   0.408540475    0   0   0
Tc1      0.666666667   0.666666667   0.408540475    0   0   0
Tc1      0.833333333   0.333333333   0.500000000    0   0   0
Tc1      0.333333333   0.333333333   0.500000000    0   0   0
Tc1      0.833333333   0.833333333   0.500000000    0   0   0
Tc1      0.333333333   0.833333333   0.500000000    0   0   0
Tc1     -0.007599802   0.003959920   0.589585011
Tc1      0.503639014   0.003959598   0.589584858
Tc1     -0.000017193   0.500034000   0.584984572
Tc1      0.503839509   0.492321207   0.589696601
N1       0.333207658  -0.166417030   0.633315004
End final coordinates



     Writing output data file calc.save
 
     init_run     :      9.86s CPU     10.20s WALL (       1 calls)
     electrons    :  10625.90s CPU  11302.25s WALL (      28 calls)
     update_pot   :     68.98s CPU     72.68s WALL (      27 calls)
     forces       :    353.80s CPU    372.28s WALL (      28 calls)
     stress       :   1090.06s CPU   1138.45s WALL (      28 calls)

     Called by init_run:
     wfcinit      :      3.91s CPU      3.97s WALL (       1 calls)
     potinit      :      1.71s CPU      1.84s WALL (       1 calls)

     Called by electrons:
     c_bands      :   4817.26s CPU   5070.04s WALL (     522 calls)
     sum_band     :   2061.80s CPU   2193.62s WALL (     522 calls)
     v_of_rho     :    705.77s CPU    753.83s WALL (     550 calls)
     newd         :   1742.18s CPU   1783.98s WALL (     550 calls)
     mix_rho      :     27.07s CPU     27.79s WALL (     522 calls)
     vdW_energy   :    311.43s CPU    340.00s WALL (    1558 calls)
     vdW_ffts     :    642.66s CPU    672.76s WALL (    3172 calls)
     vdW_v        :    256.73s CPU    265.99s WALL (    1558 calls)

     Called by c_bands:
     init_us_2    :     25.90s CPU     26.04s WALL (    5505 calls)
     cegterg      :   4393.09s CPU   4504.95s WALL (    2610 calls)

     Called by *egterg:
     h_psi        :   2538.14s CPU   2595.46s WALL (   13390 calls)
     s_psi        :    260.77s CPU    261.34s WALL (   13390 calls)
     g_psi        :     17.63s CPU     17.66s WALL (   10775 calls)
     cdiaghg      :    630.16s CPU    634.54s WALL (   13250 calls)

     Called by h_psi:
     add_vuspsi   :    268.33s CPU    268.98s WALL (   13390 calls)

     General routines
     calbec       :    410.99s CPU    417.48s WALL (   16280 calls)
     fft          :    979.98s CPU   1047.85s WALL (   95211 calls)
     ffts         :      1.54s CPU      1.68s WALL (    1072 calls)
     fftw         :   1493.55s CPU   1555.39s WALL ( 1629648 calls)
     interpolate  :     14.37s CPU     14.76s WALL (    1072 calls)
     davcio       :      0.00s CPU      0.03s WALL (       5 calls)
 
     Parallel routines
     fft_scatter  :   1424.46s CPU   1547.37s WALL ( 1725931 calls)
 
     PWSCF        :     3h24m CPU        3h36m WALL

 
   This run was terminated on:  20: 9:11   2May2018            

=------------------------------------------------------------------------------=
   JOB DONE.
=------------------------------------------------------------------------------=
Job  /afs/slac/g/suncat/bin/suncat-tsmpirun -x LD_LIBRARY_PATH -wdir /scratch/qe799654_Ra6IL pw.x -npool 4 -in pw.inp

TID   HOST_NAME   COMMAND_LINE            STATUS            TERMINATION_TIME
===== ========== ================  =======================  ===================
00000 suncat0034 pw.x -npool 4 -i  Done                     05/02/2018 20:09:11
00001 suncat0034 pw.x -npool 4 -i  Done                     05/02/2018 20:09:11
00002 suncat0034 pw.x -npool 4 -i  Done                     05/02/2018 20:09:11
00003 suncat0034 pw.x -npool 4 -i  Done                     05/02/2018 20:09:11
00004 suncat0034 pw.x -npool 4 -i  Done                     05/02/2018 20:09:11
00005 suncat0034 pw.x -npool 4 -i  Done                     05/02/2018 20:09:11
00006 suncat0034 pw.x -npool 4 -i  Done                     05/02/2018 20:09:11
00007 suncat0034 pw.x -npool 4 -i  Done                     05/02/2018 20:09:11
00008 suncat0022 pw.x -npool 4 -i  Done                     05/02/2018 20:09:11
00009 suncat0022 pw.x -npool 4 -i  Done                     05/02/2018 20:09:11
00010 suncat0022 pw.x -npool 4 -i  Done                     05/02/2018 20:09:11
00011 suncat0022 pw.x -npool 4 -i  Done                     05/02/2018 20:09:11
00012 suncat0022 pw.x -npool 4 -i  Done                     05/02/2018 20:09:11
00013 suncat0022 pw.x -npool 4 -i  Done                     05/02/2018 20:09:11
00014 suncat0022 pw.x -npool 4 -i  Done                     05/02/2018 20:09:11
00015 suncat0022 pw.x -npool 4 -i  Done                     05/02/2018 20:09:11
00016 suncat0251 pw.x -npool 4 -i  Done                     05/02/2018 20:09:11
00017 suncat0251 pw.x -npool 4 -i  Done                     05/02/2018 20:09:11
00018 suncat0251 pw.x -npool 4 -i  Done                     05/02/2018 20:09:11
00019 suncat0251 pw.x -npool 4 -i  Done                     05/02/2018 20:09:11
00020 suncat0251 pw.x -npool 4 -i  Done                     05/02/2018 20:09:11
00021 suncat0251 pw.x -npool 4 -i  Done                     05/02/2018 20:09:11
00022 suncat0251 pw.x -npool 4 -i  Done                     05/02/2018 20:09:11
00023 suncat0251 pw.x -npool 4 -i  Done                     05/02/2018 20:09:11
00024 suncat0211 pw.x -npool 4 -i  Done                     05/02/2018 20:09:11
00025 suncat0211 pw.x -npool 4 -i  Done                     05/02/2018 20:09:11
00026 suncat0211 pw.x -npool 4 -i  Done                     05/02/2018 20:09:11
00027 suncat0211 pw.x -npool 4 -i  Done                     05/02/2018 20:09:11
00028 suncat0211 pw.x -npool 4 -i  Done                     05/02/2018 20:09:11
00029 suncat0211 pw.x -npool 4 -i  Done                     05/02/2018 20:09:11
00030 suncat0211 pw.x -npool 4 -i  Done                     05/02/2018 20:09:11
00031 suncat0211 pw.x -npool 4 -i  Done                     05/02/2018 20:09:11
