  python dir          : /u/if/mamunm/src/espresso
  espresso dir        : /nfs/slac/g/suncatfs/sw/espv18/espresso-dynpy-beef/bin
  pseudo dir          : /u/if/mamunm/psp/gbrv1.5pbe
  ase-espresso py git : GITVERSION



     Program PWSCF v.5.1rc2 (svn rev. 11289) starts on 23Apr2018 at  7:53:27 

     This program is part of the open-source Quantum ESPRESSO suite
     for quantum simulation of materials; please cite
         "P. Giannozzi et al., J. Phys.:Condens. Matter 21 395502 (2009);
          URL http://www.quantum-espresso.org", 
     in publications or presentations arising from this work. More details at
     http://www.quantum-espresso.org/quote

     Parallel version (MPI), running on    32 processors
     K-points division:     npool     =       4
     R & G space division:  proc/nbgrp/npool/nimage =       8
     Reading input from pw.inp
     Message from routine read_cards :
     DEPRECATED: no units specified in CELL_PARAMETERS card

     Current dimensions of program PWSCF are:
     Max number of different atomic species (ntypx) = 10
     Max number of k-points (npk) =  40000
     Max angular momentum in pseudopotentials (lmaxx) =  3
     Presently stress not available with electric field


     **************************************************************************
     Initializing libbeef V0.1.1 with the BEEF-vdW functional.
     Citation: Wellendorff et al., PRB 85, 235149 (2012).
     **************************************************************************


     IMPORTANT: XC functional enforced from input :
     Exchange-correlation      = BEEF-VDW ( 1  4 27 13 2)
     Any further DFT definition will be discarded
     Please, verify this is what you really want


     Subspace diagonalization in iterative solution of the eigenvalue problem:
     a serial algorithm will be used

 
     Parallelization info
     --------------------
     sticks:   dense  smooth     PW     G-vecs:    dense   smooth      PW
     Min         403     160     46                77132    19506    3044
     Max         407     161     50                77135    19535    3047
     Sum        3241    1285    379               617075   156145   24367
 


     bravais-lattice index     =            0
     lattice parameter (alat)  =       1.8897  a.u.
     unit-cell volume          =    5185.0501 (a.u.)^3
     number of atoms/cell      =           14
     number of atomic types    =            3
     number of electrons       =       163.00
     number of Kohn-Sham states=           91
     kinetic-energy cutoff     =      36.7493  Ry
     charge density cutoff     =     367.4932  Ry
     convergence threshold     =      1.0E-05
     mixing beta               =       0.3000
     number of iterations used =           10  plain     mixing
     Exchange-correlation      = BEEF-VDW ( 1  4 27 13 2)
     nstep                     =           50


     celldm(1)=   1.889726  celldm(2)=   0.000000  celldm(3)=   0.000000
     celldm(4)=   0.000000  celldm(5)=   0.000000  celldm(6)=   0.000000

     crystal axes: (cart. coord. in units of alat)
               a(1) = (   5.972022   0.000000   0.000000 )  
               a(2) = (   2.986011   5.171923   0.000000 )  
               a(3) = (   0.000000   0.000000  24.876136 )  

     reciprocal axes: (cart. coord. in units 2 pi/alat)
               b(1) = (  0.167447 -0.096676  0.000000 )  
               b(2) = (  0.000000  0.193352  0.000000 )  
               b(3) = (  0.000000  0.000000  0.040199 )  


     PseudoPot. # 1 for Ta read from file:
     /u/if/mamunm/psp/gbrv1.5pbe/Ta.UPF
     MD5 check sum: f8bbe9446314a3b8ea5d9f3e3836c939
     Pseudo is Ultrasoft + core correction, Zval = 13.0
     Generated by new atomic code, or converted to UPF format
     Using radial grid of  921 points,  7 beta functions with: 
                l(1) =   0
                l(2) =   0
                l(3) =   1
                l(4) =   1
                l(5) =   2
                l(6) =   2
                l(7) =   3
     Q(r) pseudized with  6 coefficients,  rinner =    1.300   1.300   1.300
                                                       1.300   1.300   1.300
                                                       1.300

     PseudoPot. # 2 for O  read from file:
     /u/if/mamunm/psp/gbrv1.5pbe/O.UPF
     MD5 check sum: 734c27235a0248c51dbae37a1fbe46ec
     Pseudo is Ultrasoft + core correction, Zval =  6.0
     Generated by new atomic code, or converted to UPF format
     Using radial grid of  737 points,  5 beta functions with: 
                l(1) =   0
                l(2) =   0
                l(3) =   1
                l(4) =   1
                l(5) =   2
     Q(r) pseudized with  8 coefficients,  rinner =    0.900   0.900   0.900
                                                       0.900   0.900

     PseudoPot. # 3 for H  read from file:
     /u/if/mamunm/psp/gbrv1.5pbe/H.UPF
     MD5 check sum: 761ae9a214b05c3daf00ab9f6b793d6f
     Pseudo is Ultrasoft, Zval =  1.0
     Generated by new atomic code, or converted to UPF format
     Using radial grid of  615 points,  2 beta functions with: 
                l(1) =   0
                l(2) =   0
     Q(r) pseudized with  8 coefficients,  rinner =    0.700

     vdW kernel table read from file vdW_kernel_table
     MD5 check sum: 095c7af220d748ca6e76c0b4c6cfb241

     atomic species   valence    mass     pseudopotential
        Ta1           13.00   180.94788     Ta( 1.00)
        O1             6.00    15.99900     O ( 1.00)
        H1             1.00     1.00800     H ( 1.00)

     No symmetry found



   Cartesian axes

     site n.     atom                  positions (alat units)
         1           Ta1 tau(   1) = (   1.4930055   0.8619871  10.0000000  )
         2           Ta1 tau(   2) = (   4.4790165   0.8619871  10.0000000  )
         3           Ta1 tau(   3) = (   2.9860110   3.4479485  10.0000000  )
         4           Ta1 tau(   4) = (   5.9720221   3.4479485  10.0000000  )
         5           Ta1 tau(   5) = (   5.9720221   1.7239743  12.4380678  )
         6           Ta1 tau(   6) = (   2.9860110   1.7239743  12.4380678  )
         7           Ta1 tau(   7) = (   7.4650276   4.3099357  12.4380678  )
         8           Ta1 tau(   8) = (   4.4790165   4.3099357  12.4380678  )
         9           Ta1 tau(   9) = (   0.0000000   0.0000000  14.8761356  )
        10           Ta1 tau(  10) = (   2.9860110   0.0000000  14.8761356  )
        11           Ta1 tau(  11) = (   1.4930055   2.5859614  14.8761356  )
        12           Ta1 tau(  12) = (   4.4790165   2.5859614  14.8761356  )
        13           O1  tau(  13) = (   1.4930055   0.8619871  16.4101356  )
        14           H1  tau(  14) = (   1.4930055   0.8619871  17.3601356  )

     number of k points=    20  Fermi-Dirac smearing, width (Ry)=  0.0110
                       cart. coord. in units 2pi/alat
        k(    1) = (   0.0000000   0.0000000   0.0000000), wk =   0.0555556
        k(    2) = (   0.0000000   0.0322253   0.0000000), wk =   0.1111111
        k(    3) = (   0.0000000   0.0644506   0.0000000), wk =   0.1111111
        k(    4) = (   0.0000000  -0.0966758   0.0000000), wk =   0.0555556
        k(    5) = (   0.0279079  -0.0161126   0.0000000), wk =   0.1111111
        k(    6) = (   0.0279079   0.0161126   0.0000000), wk =   0.1111111
        k(    7) = (   0.0279079   0.0483379   0.0000000), wk =   0.1111111
        k(    8) = (   0.0279079  -0.1127885   0.0000000), wk =   0.1111111
        k(    9) = (   0.0279079  -0.0805632   0.0000000), wk =   0.1111111
        k(   10) = (   0.0279079  -0.0483379   0.0000000), wk =   0.1111111
        k(   11) = (   0.0558158  -0.0322253   0.0000000), wk =   0.1111111
        k(   12) = (   0.0558158   0.0000000   0.0000000), wk =   0.1111111
        k(   13) = (   0.0558158   0.0322253   0.0000000), wk =   0.1111111
        k(   14) = (   0.0558158  -0.1289011   0.0000000), wk =   0.1111111
        k(   15) = (   0.0558158  -0.0966758   0.0000000), wk =   0.1111111
        k(   16) = (   0.0558158  -0.0644506   0.0000000), wk =   0.1111111
        k(   17) = (  -0.0837237   0.0483379   0.0000000), wk =   0.0555556
        k(   18) = (  -0.0837237   0.0805632   0.0000000), wk =   0.1111111
        k(   19) = (  -0.0837237   0.1127885   0.0000000), wk =   0.1111111
        k(   20) = (  -0.0837237  -0.0483379   0.0000000), wk =   0.0555556

     Dense  grid:   617075 G-vectors     FFT dimensions: (  72,  72, 288)

     Smooth grid:   156145 G-vectors     FFT dimensions: (  45,  45, 192)

     Largest allocated arrays     est. size (Mb)     dimensions
        Kohn-Sham Wavefunctions         3.45 Mb     (    2487,   91)
        NL pseudopotentials            11.95 Mb     (    2487,  315)
        Each V/rho on FFT grid          2.85 Mb     (  186624)
        Each G-vector array             0.59 Mb     (   77132)
        G-vector shells                 0.16 Mb     (   21038)
     Largest temporary arrays     est. size (Mb)     dimensions
        Auxiliary wavefunctions        13.81 Mb     (    2487,  364)
        Each subspace H/S matrix        2.02 Mb     (     364,  364)
        Each <psi_i|beta_j> matrix      0.44 Mb     (     315,   91)
        Arrays for rho mixing          28.48 Mb     (  186624,   10)

     Initial potential from superposition of free atoms
     Check: negative starting charge=   -1.121738

     starting charge  162.98664, renormalised to  163.00000

     negative rho (up, down):  1.122E+00 0.000E+00


     ************************************************************************
     *
     * You are using vdW-DF for exchange-correlation in this calculation.
     * Please cite the following three references that made this development
     * possible:
     *
     *   M. Dion, H. Rydberg, E. Schroder, D. C. Langreth, and
     *   B. I. Lundqvist, Phys. Rev. Lett. 92, 246401 (2004).
     *
     *   T. Thonhauser, V. R. Cooper, S. Li, A. Puzder, P. Hyldgaard, and
     *   D. C. Langreth, Phys. Rev. B 76, 125112 (2007).
     *
     *   G. Roman-Perez and J. M. Soler, Phys. Rev. Lett. 103, 096102 (2009).
     *
     *
     * If you are using vdW-DF2, please also cite:
     *
     *   K. Lee, E. D. Murray, L. Kong, B. I. Lundqvist, and
     *   D. C. Langreth, Phys. Rev. B 82, 081101(R) (2010).
     *
     *
     * If you are calculating the stress with vdW-DF, please also cite:
     *
     *   R. Sabatini, E. Kucukbenli, B. Kolb, T. Thonhauser, and
     *   S. de Gironcoli, J. Phys.: Condens. Matter 24, 424209 (2012).
     *
     ************************************************************************

     Carrying out vdW-DF run using the following parameters:

     Nqs =      20    Nr_points =    1024   r_max =   100.000
     q_mesh =
               0.00001000     0.04494208     0.09755937     0.15916263
               0.23128650     0.31572767     0.41458969     0.53033537
               0.66584808     0.82450364     1.01025438     1.22772762
               1.48234092     1.78043706     2.12944203     2.53805004
               3.01644009     3.57652955     4.23227104     5.00000000

     Gradients computed in reciprocal space

     ************************************************************************


 
     Adding external electric field

     Computed dipole along edir(3) : 
        Dipole               -0.0044 Ry au,         -0.0111 Debye
        Dipole field         -0.0000 Ry au
 
        Potential amp.        0.0010 Ry
        Total length         45.8339 bohr
 
     Starting wfc are  161 randomized atomic wfcs

     total cpu time spent up to now is       18.3 secs

     per-process dynamical memory:    97.4 Mb

     Self-consistent Calculation

     iteration #  1     ecut=    36.75 Ry     beta=0.30
     Davidson diagonalization with overlap
     ethr =  1.00E-02,  avg # of iterations =  2.0

     negative rho (up, down):  1.136E+00 0.000E+00
 
     Adding external electric field

     Computed dipole along edir(3) : 
        Dipole               -0.0768 Ry au,         -0.1953 Debye
        Dipole field         -0.0002 Ry au
 
        Potential amp.        0.0171 Ry
        Total length         45.8339 bohr
 

     total cpu time spent up to now is       43.9 secs

     total energy              =   -1750.26118942 Ry
     Harris-Foulkes estimate   =   -1752.70449599 Ry
     estimated scf accuracy    <       5.28655315 Ry

     iteration #  2     ecut=    36.75 Ry     beta=0.30
     Davidson diagonalization with overlap
     ethr =  3.24E-03,  avg # of iterations =  6.2

     negative rho (up, down):  1.138E+00 0.000E+00
 
     Adding external electric field

     Computed dipole along edir(3) : 
        Dipole                0.8568 Ry au,          2.1778 Debye
        Dipole field          0.0021 Ry au
 
        Potential amp.       -0.1904 Ry
        Total length         45.8339 bohr
 

     total cpu time spent up to now is       74.7 secs

     total energy              =   -1749.07360844 Ry
     Harris-Foulkes estimate   =   -1756.03021465 Ry
     estimated scf accuracy    <      55.24971058 Ry

     iteration #  3     ecut=    36.75 Ry     beta=0.30
     Davidson diagonalization with overlap
     ethr =  3.24E-03,  avg # of iterations =  4.8

     negative rho (up, down):  1.139E+00 0.000E+00
 
     Adding external electric field

     Computed dipole along edir(3) : 
        Dipole               -0.1371 Ry au,         -0.3486 Debye
        Dipole field         -0.0003 Ry au
 
        Potential amp.        0.0305 Ry
        Total length         45.8339 bohr
 

     total cpu time spent up to now is      105.2 secs

     total energy              =   -1751.48987580 Ry
     Harris-Foulkes estimate   =   -1752.75849343 Ry
     estimated scf accuracy    <      43.95304585 Ry

     iteration #  4     ecut=    36.75 Ry     beta=0.30
     Davidson diagonalization with overlap
     ethr =  3.24E-03,  avg # of iterations =  3.9

     negative rho (up, down):  1.149E+00 0.000E+00
 
     Adding external electric field

     Computed dipole along edir(3) : 
        Dipole                0.3705 Ry au,          0.9418 Debye
        Dipole field          0.0009 Ry au
 
        Potential amp.       -0.0823 Ry
        Total length         45.8339 bohr
 

     total cpu time spent up to now is      131.7 secs

     total energy              =   -1752.12625913 Ry
     Harris-Foulkes estimate   =   -1752.22898209 Ry
     estimated scf accuracy    <       2.63349449 Ry

     iteration #  5     ecut=    36.75 Ry     beta=0.30
     Davidson diagonalization with overlap
     ethr =  1.62E-03,  avg # of iterations =  1.8

     negative rho (up, down):  1.158E+00 0.000E+00
 
     Adding external electric field

     Computed dipole along edir(3) : 
        Dipole                0.3700 Ry au,          0.9403 Debye
        Dipole field          0.0009 Ry au
 
        Potential amp.       -0.0822 Ry
        Total length         45.8339 bohr
 

     total cpu time spent up to now is      156.5 secs

     total energy              =   -1752.17245324 Ry
     Harris-Foulkes estimate   =   -1752.18372194 Ry
     estimated scf accuracy    <       0.07919548 Ry

     iteration #  6     ecut=    36.75 Ry     beta=0.30
     Davidson diagonalization with overlap
     ethr =  4.86E-05,  avg # of iterations =  7.9

     negative rho (up, down):  1.166E+00 0.000E+00
 
     Adding external electric field

     Computed dipole along edir(3) : 
        Dipole                0.4065 Ry au,          1.0331 Debye
        Dipole field          0.0010 Ry au
 
        Potential amp.       -0.0903 Ry
        Total length         45.8339 bohr
 

     total cpu time spent up to now is      188.7 secs

     total energy              =   -1752.18460945 Ry
     Harris-Foulkes estimate   =   -1752.18820589 Ry
     estimated scf accuracy    <       0.05419396 Ry

     iteration #  7     ecut=    36.75 Ry     beta=0.30
     Davidson diagonalization with overlap
     ethr =  3.32E-05,  avg # of iterations =  2.5

     negative rho (up, down):  1.171E+00 0.000E+00
 
     Adding external electric field

     Computed dipole along edir(3) : 
        Dipole                0.4295 Ry au,          1.0918 Debye
        Dipole field          0.0010 Ry au
 
        Potential amp.       -0.0954 Ry
        Total length         45.8339 bohr
 

     total cpu time spent up to now is      214.0 secs

     total energy              =   -1752.18672586 Ry
     Harris-Foulkes estimate   =   -1752.18765200 Ry
     estimated scf accuracy    <       0.01390329 Ry

     iteration #  8     ecut=    36.75 Ry     beta=0.30
     Davidson diagonalization with overlap
     ethr =  8.53E-06,  avg # of iterations =  4.5

     negative rho (up, down):  1.174E+00 0.000E+00
 
     Adding external electric field

     Computed dipole along edir(3) : 
        Dipole                0.4169 Ry au,          1.0597 Debye
        Dipole field          0.0010 Ry au
 
        Potential amp.       -0.0926 Ry
        Total length         45.8339 bohr
 

     total cpu time spent up to now is      241.3 secs

     total energy              =   -1752.18742713 Ry
     Harris-Foulkes estimate   =   -1752.18761209 Ry
     estimated scf accuracy    <       0.00676989 Ry

     iteration #  9     ecut=    36.75 Ry     beta=0.30
     Davidson diagonalization with overlap
     ethr =  4.15E-06,  avg # of iterations =  1.6

     negative rho (up, down):  1.176E+00 0.000E+00
 
     Adding external electric field

     Computed dipole along edir(3) : 
        Dipole                0.4317 Ry au,          1.0973 Debye
        Dipole field          0.0010 Ry au
 
        Potential amp.       -0.0959 Ry
        Total length         45.8339 bohr
 

     total cpu time spent up to now is      266.5 secs

     total energy              =   -1752.18769275 Ry
     Harris-Foulkes estimate   =   -1752.18764709 Ry
     estimated scf accuracy    <       0.00086970 Ry

     iteration # 10     ecut=    36.75 Ry     beta=0.30
     Davidson diagonalization with overlap
     ethr =  5.34E-07,  avg # of iterations =  5.5

     negative rho (up, down):  1.177E+00 0.000E+00
 
     Adding external electric field

     Computed dipole along edir(3) : 
        Dipole                0.4210 Ry au,          1.0701 Debye
        Dipole field          0.0010 Ry au
 
        Potential amp.       -0.0935 Ry
        Total length         45.8339 bohr
 

     total cpu time spent up to now is      295.4 secs

     total energy              =   -1752.18772965 Ry
     Harris-Foulkes estimate   =   -1752.18778037 Ry
     estimated scf accuracy    <       0.00014909 Ry

     iteration # 11     ecut=    36.75 Ry     beta=0.30
     Davidson diagonalization with overlap
     ethr =  9.15E-08,  avg # of iterations =  4.5

     negative rho (up, down):  1.177E+00 0.000E+00
 
     Adding external electric field

     Computed dipole along edir(3) : 
        Dipole                0.4233 Ry au,          1.0760 Debye
        Dipole field          0.0010 Ry au
 
        Potential amp.       -0.0941 Ry
        Total length         45.8339 bohr
 

     total cpu time spent up to now is      323.8 secs

     total energy              =   -1752.18775636 Ry
     Harris-Foulkes estimate   =   -1752.18775556 Ry
     estimated scf accuracy    <       0.00006626 Ry

     iteration # 12     ecut=    36.75 Ry     beta=0.30
     Davidson diagonalization with overlap
     ethr =  4.06E-08,  avg # of iterations =  2.2

     negative rho (up, down):  1.177E+00 0.000E+00

     negative rho (up, down):  1.177E+00 0.000E+00

     negative rho (up, down):  1.177E+00 0.000E+00

     negative rho (up, down):  1.177E+00 0.000E+00

     negative rho (up, down):  1.177E+00 0.000E+00

     negative rho (up, down):  1.177E+00 0.000E+00

     negative rho (up, down):  1.177E+00 0.000E+00

     negative rho (up, down):  1.177E+00 0.000E+00

     negative rho (up, down):  1.177E+00 0.000E+00

     negative rho (up, down):  1.177E+00 0.000E+00

     negative rho (up, down):  1.177E+00 0.000E+00

     negative rho (up, down):  1.177E+00 0.000E+00

     negative rho (up, down):  1.177E+00 0.000E+00

     negative rho (up, down):  1.177E+00 0.000E+00

     negative rho (up, down):  1.177E+00 0.000E+00

     negative rho (up, down):  1.177E+00 0.000E+00

     negative rho (up, down):  1.177E+00 0.000E+00

     negative rho (up, down):  1.177E+00 0.000E+00

     negative rho (up, down):  1.177E+00 0.000E+00

     negative rho (up, down):  1.177E+00 0.000E+00

     negative rho (up, down):  1.177E+00 0.000E+00

     negative rho (up, down):  1.177E+00 0.000E+00

     negative rho (up, down):  1.177E+00 0.000E+00

     negative rho (up, down):  1.177E+00 0.000E+00

     negative rho (up, down):  1.177E+00 0.000E+00

     negative rho (up, down):  1.177E+00 0.000E+00

     negative rho (up, down):  1.177E+00 0.000E+00

     negative rho (up, down):  1.177E+00 0.000E+00

     negative rho (up, down):  1.177E+00 0.000E+00

     negative rho (up, down):  1.177E+00 0.000E+00

     negative rho (up, down):  1.177E+00 0.000E+00

     negative rho (up, down):  1.177E+00 0.000E+00

     negative rho (up, down):  1.177E+00 0.000E+00

     negative rho (up, down):  1.177E+00 0.000E+00

     negative rho (up, down):  1.177E+00 0.000E+00
 
     Adding external electric field

     Computed dipole along edir(3) : 
        Dipole                0.4033 Ry au,          1.0252 Debye
        Dipole field          0.0010 Ry au
 
        Potential amp.       -0.0896 Ry
        Total length         45.8339 bohr
 

     total cpu time spent up to now is      400.1 secs

     End of self-consistent calculation

          k = 0.0000 0.0000 0.0000 ( 19447 PWs)   bands (ev):

   -65.8959 -65.8492 -65.8489 -65.7413 -65.7364 -65.6784 -65.6775 -65.6772
   -65.6583 -65.6146 -65.6145 -65.5939 -32.6633 -32.5344 -32.5343 -32.4923
   -32.4632 -32.4575 -32.4573 -32.3893 -32.3889 -32.3876 -32.2328 -32.1903
   -32.1900 -32.1072 -32.0321 -32.0316 -32.0230 -31.9754 -31.9752 -31.9674
   -31.8480 -31.8479 -31.8436 -31.8243 -31.8242 -31.8070 -31.7742 -31.7722
   -31.7722 -31.7379 -31.7336 -31.7335 -31.6558 -31.6558 -31.5916 -31.5916
   -18.9965  -7.2566  -4.7946  -3.2772  -3.2772  -3.1340  -2.1721  -1.5145
    -1.5145  -1.4700  -1.2796  -1.1925  -1.1924  -0.5684  -0.5608  -0.5607
    -0.3480  -0.3480  -0.2174   0.8760   0.8762   1.1049   1.8443   2.0899
     2.0899   2.1104   2.3610   2.4637   2.5888   2.5890   2.6577   2.9149
     2.9149   3.0208   3.2056   3.2056   3.2875   3.3153   3.3154   3.3779
     3.3779   3.6145   3.6147

          k = 0.0000 0.0322 0.0000 ( 19481 PWs)   bands (ev):

   -65.8927 -65.8514 -65.8492 -65.7413 -65.7331 -65.6818 -65.6781 -65.6773
   -65.6552 -65.6168 -65.6145 -65.5948 -32.6325 -32.5074 -32.4992 -32.4722
   -32.4394 -32.4360 -32.4278 -32.3638 -32.3637 -32.3469 -32.2300 -32.2012
   -32.1929 -32.1237 -32.0355 -32.0346 -32.0160 -31.9953 -31.9943 -31.9614
   -31.8845 -31.8833 -31.8403 -31.8351 -31.8121 -31.8074 -31.7945 -31.7809
   -31.7762 -31.7623 -31.7598 -31.7260 -31.6938 -31.6690 -31.6391 -31.6008
   -18.9953  -7.2298  -4.5757  -3.3171  -3.2539  -2.8652  -1.9243  -1.6186
    -1.3628  -1.3264  -1.1826  -1.0702  -1.0250  -0.4809  -0.3627  -0.3421
    -0.2258  -0.1949  -0.0739   0.8931   0.9170   1.1230   1.7530   2.0767
     2.1220   2.1622   2.2640   2.3665   2.3910   2.4678   2.5151   2.5426
     2.9640   3.1016   3.1090   3.1265   3.1808   3.2357   3.2926   3.3155
     3.3562   3.4477   3.6007

          k = 0.0000 0.0645 0.0000 ( 19517 PWs)   bands (ev):

   -65.8847 -65.8584 -65.8492 -65.7421 -65.7226 -65.6928 -65.6782 -65.6773
   -65.6468 -65.6237 -65.6145 -65.5963 -32.5611 -32.4392 -32.4355 -32.4037
   -32.3877 -32.3809 -32.3653 -32.3054 -32.3024 -32.2554 -32.2212 -32.2018
   -32.1975 -32.1536 -32.0814 -32.0738 -32.0147 -32.0031 -31.9917 -31.9612
   -31.9425 -31.9390 -31.9340 -31.8664 -31.8466 -31.8381 -31.8189 -31.7931
   -31.7867 -31.7864 -31.7771 -31.7712 -31.7330 -31.7055 -31.6991 -31.6269
   -18.9929  -7.1777  -3.9861  -3.3075  -3.2102  -2.2674  -2.0744  -1.2598
    -1.1492  -0.9998  -0.9141  -0.6853  -0.6278  -0.3203   0.1214   0.1469
     0.1644   0.3450   0.3727   0.9320   1.0192   1.1483   1.3915   1.6582
     1.7136   1.7474   1.8687   2.0122   2.3702   2.4056   2.4571   2.5053
     2.5110   2.5490   2.6317   2.7204   2.8329   2.8801   2.9489   3.1937
     3.2594   3.3966   3.5910

          k = 0.0000-0.0967 0.0000 ( 19532 PWs)   bands (ev):

   -65.8779 -65.8647 -65.8492 -65.7426 -65.7081 -65.7075 -65.6782 -65.6773
   -65.6382 -65.6316 -65.6145 -65.5969 -32.5144 -32.4007 -32.3869 -32.3841
   -32.3641 -32.3471 -32.3100 -32.2637 -32.2530 -32.2434 -32.2071 -32.2033
   -32.1649 -32.1457 -32.1287 -32.0524 -32.0320 -32.0295 -32.0285 -32.0119
   -31.9453 -31.9405 -31.9126 -31.9125 -31.9095 -31.8995 -31.8909 -31.8376
   -31.7866 -31.7804 -31.7599 -31.7568 -31.7524 -31.7500 -31.6659 -31.6603
   -18.9917  -7.1524  -3.5478  -3.1896  -3.0325  -2.7957  -1.5614  -1.4327
    -0.7662  -0.7448  -0.5374  -0.4403  -0.3805  -0.3767   0.4507   0.5171
     0.7098   0.7227   0.7315   0.7925   1.1704   1.2079   1.2523   1.2898
     1.4017   1.4436   1.7365   1.7822   1.8778   1.9531   2.0046   2.0962
     2.1626   2.2261   2.2877   2.7365   2.8283   2.8353   2.8852   2.9895
     3.0173   3.7456   3.7863

          k = 0.0279-0.0161 0.0000 ( 19481 PWs)   bands (ev):

   -65.8927 -65.8517 -65.8490 -65.7413 -65.7331 -65.6818 -65.6781 -65.6773
   -65.6552 -65.6168 -65.6145 -65.5948 -32.6325 -32.5075 -32.4992 -32.4722
   -32.4394 -32.4359 -32.4278 -32.3638 -32.3637 -32.3469 -32.2300 -32.2013
   -32.1928 -32.1237 -32.0355 -32.0346 -32.0160 -31.9952 -31.9944 -31.9613
   -31.8845 -31.8833 -31.8403 -31.8351 -31.8122 -31.8074 -31.7945 -31.7810
   -31.7762 -31.7623 -31.7597 -31.7260 -31.6938 -31.6690 -31.6391 -31.6008
   -18.9953  -7.2298  -4.5757  -3.3171  -3.2539  -2.8652  -1.9243  -1.6186
    -1.3628  -1.3264  -1.1826  -1.0702  -1.0250  -0.4809  -0.3627  -0.3422
    -0.2258  -0.1949  -0.0739   0.8931   0.9170   1.1230   1.7530   2.0767
     2.1220   2.1622   2.2640   2.3665   2.3910   2.4678   2.5151   2.5426
     2.9640   3.1016   3.1090   3.1265   3.1808   3.2357   3.2926   3.3155
     3.3562   3.4477   3.6007

          k = 0.0279 0.0161 0.0000 ( 19481 PWs)   bands (ev):

   -65.8927 -65.8517 -65.8489 -65.7413 -65.7331 -65.6819 -65.6778 -65.6776
   -65.6552 -65.6167 -65.6146 -65.5948 -32.6325 -32.5075 -32.4992 -32.4722
   -32.4394 -32.4359 -32.4279 -32.3641 -32.3634 -32.3469 -32.2300 -32.2014
   -32.1927 -32.1237 -32.0357 -32.0343 -32.0160 -31.9951 -31.9945 -31.9613
   -31.8844 -31.8834 -31.8402 -31.8351 -31.8121 -31.8074 -31.7945 -31.7809
   -31.7763 -31.7623 -31.7598 -31.7260 -31.6938 -31.6690 -31.6391 -31.6008
   -18.9953  -7.2298  -4.5757  -3.3171  -3.2539  -2.8652  -1.9243  -1.6186
    -1.3628  -1.3264  -1.1826  -1.0702  -1.0250  -0.4809  -0.3627  -0.3422
    -0.2258  -0.1949  -0.0738   0.8930   0.9171   1.1230   1.7530   2.0767
     2.1220   2.1622   2.2640   2.3666   2.3909   2.4679   2.5151   2.5425
     2.9640   3.1016   3.1090   3.1265   3.1808   3.2357   3.2926   3.3155
     3.3561   3.4478   3.6007

          k = 0.0279 0.0483 0.0000 ( 19485 PWs)   bands (ev):

   -65.8871 -65.8562 -65.8494 -65.7418 -65.7260 -65.6857 -65.6849 -65.6742
   -65.6494 -65.6204 -65.6156 -65.5958 -32.5799 -32.4599 -32.4413 -32.4331
   -32.4032 -32.3901 -32.3839 -32.3304 -32.2969 -32.2891 -32.2276 -32.2086
   -32.1983 -32.1479 -32.0929 -32.0281 -32.0157 -32.0016 -31.9796 -31.9730
   -31.9685 -31.9157 -31.8560 -31.8517 -31.8468 -31.8286 -31.8165 -31.7975
   -31.7870 -31.7824 -31.7440 -31.7397 -31.7374 -31.7253 -31.6814 -31.6245
   -18.9935  -7.1905  -4.1667  -3.3079  -3.2317  -2.4282  -1.6731  -1.6301
    -1.4188  -1.0322  -0.9614  -0.8136  -0.6589  -0.2084  -0.1986   0.0265
     0.0435   0.1783   0.2148   0.9255   0.9699   1.1397   1.5483   1.8176
     1.8447   1.9130   1.9674   2.0554   2.3345   2.4453   2.5011   2.5683
     2.6362   2.6394   2.7706   2.8402   2.9767   3.0273   3.0489   3.1760
     3.3939   3.4527   3.5356

          k = 0.0279-0.1128 0.0000 ( 19521 PWs)   bands (ev):

   -65.8784 -65.8636 -65.8499 -65.7426 -65.7133 -65.6983 -65.6873 -65.6722
   -65.6400 -65.6278 -65.6171 -65.5963 -32.5077 -32.4049 -32.3930 -32.3713
   -32.3535 -32.3455 -32.3143 -32.2687 -32.2536 -32.2348 -32.2155 -32.2080
   -32.1845 -32.1549 -32.1200 -32.0885 -32.0639 -32.0166 -32.0040 -31.9764
   -31.9699 -31.9600 -31.9270 -31.9188 -31.8757 -31.8719 -31.8417 -31.8116
   -31.8033 -31.8001 -31.7638 -31.7567 -31.7530 -31.7302 -31.7049 -31.6634
   -18.9917  -7.1524  -3.5805  -3.2290  -3.1233  -2.3492  -1.7171  -1.5333
    -1.1008  -0.6820  -0.6355  -0.3196  -0.1849  -0.0911   0.3537   0.4915
     0.5222   0.5677   0.6782   0.9797   1.0608   1.0967   1.1557   1.3370
     1.4578   1.5149   1.5953   1.6748   1.8478   1.9346   2.0510   2.1403
     2.2173   2.2556   2.4629   2.5608   2.7916   2.8687   2.9456   3.0885
     3.3638   3.4729   3.7116

          k = 0.0279-0.0806 0.0000 ( 19521 PWs)   bands (ev):

   -65.8784 -65.8635 -65.8499 -65.7426 -65.7133 -65.6983 -65.6873 -65.6722
   -65.6400 -65.6279 -65.6171 -65.5963 -32.5077 -32.4049 -32.3930 -32.3713
   -32.3535 -32.3455 -32.3143 -32.2687 -32.2537 -32.2346 -32.2156 -32.2081
   -32.1844 -32.1548 -32.1201 -32.0885 -32.0639 -32.0166 -32.0040 -31.9764
   -31.9699 -31.9600 -31.9271 -31.9188 -31.8757 -31.8719 -31.8417 -31.8116
   -31.8032 -31.8002 -31.7639 -31.7566 -31.7531 -31.7302 -31.7049 -31.6634
   -18.9917  -7.1524  -3.5805  -3.2290  -3.1233  -2.3493  -1.7171  -1.5333
    -1.1008  -0.6820  -0.6355  -0.3196  -0.1849  -0.0911   0.3537   0.4915
     0.5222   0.5677   0.6782   0.9797   1.0608   1.0966   1.1557   1.3370
     1.4578   1.5149   1.5954   1.6748   1.8478   1.9345   2.0510   2.1403
     2.2173   2.2557   2.4629   2.5608   2.7917   2.8687   2.9456   3.0885
     3.3638   3.4728   3.7113

          k = 0.0279-0.0483 0.0000 ( 19485 PWs)   bands (ev):

   -65.8871 -65.8561 -65.8494 -65.7418 -65.7260 -65.6856 -65.6850 -65.6742
   -65.6494 -65.6205 -65.6155 -65.5958 -32.5800 -32.4599 -32.4413 -32.4332
   -32.4033 -32.3901 -32.3839 -32.3304 -32.2970 -32.2890 -32.2276 -32.2084
   -32.1985 -32.1479 -32.0928 -32.0281 -32.0158 -32.0015 -31.9796 -31.9730
   -31.9685 -31.9157 -31.8561 -31.8516 -31.8467 -31.8287 -31.8165 -31.7975
   -31.7870 -31.7824 -31.7440 -31.7397 -31.7373 -31.7253 -31.6814 -31.6245
   -18.9935  -7.1905  -4.1667  -3.3079  -3.2317  -2.4283  -1.6732  -1.6301
    -1.4188  -1.0322  -0.9614  -0.8136  -0.6589  -0.2085  -0.1986   0.0265
     0.0435   0.1782   0.2148   0.9256   0.9699   1.1397   1.5483   1.8176
     1.8447   1.9130   1.9674   2.0554   2.3345   2.4454   2.5010   2.5683
     2.6362   2.6394   2.7707   2.8402   2.9766   3.0274   3.0489   3.1760
     3.3939   3.4526   3.5323

          k = 0.0558-0.0322 0.0000 ( 19517 PWs)   bands (ev):

   -65.8846 -65.8587 -65.8490 -65.7421 -65.7226 -65.6929 -65.6782 -65.6773
   -65.6468 -65.6236 -65.6145 -65.5963 -32.5610 -32.4393 -32.4356 -32.4037
   -32.3876 -32.3809 -32.3653 -32.3054 -32.3024 -32.2554 -32.2212 -32.2017
   -32.1976 -32.1536 -32.0813 -32.0739 -32.0146 -32.0032 -31.9917 -31.9611
   -31.9425 -31.9390 -31.9339 -31.8664 -31.8467 -31.8380 -31.8190 -31.7932
   -31.7866 -31.7864 -31.7771 -31.7712 -31.7330 -31.7055 -31.6991 -31.6269
   -18.9929  -7.1777  -3.9861  -3.3075  -3.2101  -2.2674  -2.0744  -1.2598
    -1.1492  -0.9998  -0.9141  -0.6853  -0.6278  -0.3203   0.1214   0.1469
     0.1644   0.3450   0.3727   0.9319   1.0193   1.1483   1.3915   1.6582
     1.7137   1.7474   1.8687   2.0122   2.3703   2.4055   2.4571   2.5054
     2.5110   2.5490   2.6317   2.7204   2.8330   2.8801   2.9489   3.1937
     3.2594   3.3966   3.5913

          k = 0.0558 0.0000 0.0000 ( 19485 PWs)   bands (ev):

   -65.8870 -65.8564 -65.8492 -65.7418 -65.7260 -65.6857 -65.6849 -65.6742
   -65.6494 -65.6204 -65.6156 -65.5958 -32.5799 -32.4600 -32.4413 -32.4331
   -32.4032 -32.3902 -32.3838 -32.3304 -32.2969 -32.2891 -32.2276 -32.2086
   -32.1982 -32.1480 -32.0930 -32.0281 -32.0157 -32.0016 -31.9795 -31.9729
   -31.9684 -31.9157 -31.8560 -31.8517 -31.8468 -31.8286 -31.8166 -31.7975
   -31.7870 -31.7824 -31.7440 -31.7398 -31.7374 -31.7253 -31.6814 -31.6245
   -18.9935  -7.1905  -4.1667  -3.3079  -3.2317  -2.4283  -1.6731  -1.6302
    -1.4188  -1.0322  -0.9614  -0.8136  -0.6589  -0.2084  -0.1987   0.0265
     0.0435   0.1783   0.2148   0.9255   0.9699   1.1397   1.5483   1.8176
     1.8447   1.9131   1.9674   2.0554   2.3345   2.4454   2.5010   2.5683
     2.6362   2.6394   2.7706   2.8402   2.9767   3.0274   3.0489   3.1760
     3.3939   3.4526   3.5323

          k = 0.0558 0.0322 0.0000 ( 19517 PWs)   bands (ev):

   -65.8846 -65.8588 -65.8490 -65.7421 -65.7226 -65.6928 -65.6779 -65.6776
   -65.6468 -65.6235 -65.6146 -65.5963 -32.5610 -32.4393 -32.4356 -32.4037
   -32.3876 -32.3810 -32.3653 -32.3050 -32.3028 -32.2554 -32.2213 -32.2015
   -32.1975 -32.1536 -32.0813 -32.0741 -32.0143 -32.0034 -31.9918 -31.9611
   -31.9422 -31.9393 -31.9338 -31.8664 -31.8467 -31.8380 -31.8190 -31.7932
   -31.7866 -31.7864 -31.7772 -31.7712 -31.7331 -31.7053 -31.6993 -31.6269
   -18.9929  -7.1777  -3.9861  -3.3075  -3.2101  -2.2674  -2.0744  -1.2599
    -1.1492  -0.9998  -0.9140  -0.6854  -0.6277  -0.3203   0.1214   0.1469
     0.1644   0.3449   0.3728   0.9318   1.0194   1.1483   1.3916   1.6581
     1.7137   1.7474   1.8687   2.0122   2.3703   2.4055   2.4570   2.5054
     2.5110   2.5490   2.6318   2.7204   2.8330   2.8800   2.9489   3.1937
     3.2595   3.3966   3.5914

          k = 0.0558-0.1289 0.0000 ( 19521 PWs)   bands (ev):

   -65.8782 -65.8638 -65.8497 -65.7426 -65.7133 -65.6983 -65.6873 -65.6722
   -65.6400 -65.6277 -65.6172 -65.5963 -32.5076 -32.4051 -32.3929 -32.3713
   -32.3536 -32.3456 -32.3144 -32.2686 -32.2538 -32.2345 -32.2155 -32.2082
   -32.1844 -32.1549 -32.1200 -32.0886 -32.0638 -32.0166 -32.0039 -31.9764
   -31.9700 -31.9599 -31.9269 -31.9188 -31.8758 -31.8719 -31.8419 -31.8117
   -31.8031 -31.8002 -31.7639 -31.7566 -31.7531 -31.7302 -31.7049 -31.6634
   -18.9917  -7.1524  -3.5805  -3.2290  -3.1233  -2.3492  -1.7171  -1.5333
    -1.1008  -0.6820  -0.6355  -0.3196  -0.1849  -0.0911   0.3537   0.4915
     0.5222   0.5677   0.6782   0.9797   1.0609   1.0966   1.1557   1.3370
     1.4578   1.5149   1.5954   1.6748   1.8478   1.9346   2.0510   2.1403
     2.2173   2.2556   2.4629   2.5608   2.7917   2.8687   2.9456   3.0885
     3.3638   3.4729   3.7115

          k = 0.0558-0.0967 0.0000 ( 19521 PWs)   bands (ev):

   -65.8712 -65.8698 -65.8505 -65.7428 -65.7010 -65.7001 -65.6999 -65.6701
   -65.6326 -65.6320 -65.6207 -65.5959 -32.4419 -32.4315 -32.3586 -32.3497
   -32.3322 -32.3147 -32.2803 -32.2547 -32.2540 -32.2203 -32.1931 -32.1926
   -32.1816 -32.1698 -32.1523 -32.0843 -32.0786 -32.0758 -32.0281 -31.9713
   -31.9708 -31.9705 -31.9458 -31.9445 -31.8930 -31.8919 -31.8112 -31.7968
   -31.7958 -31.7957 -31.7706 -31.7695 -31.7691 -31.7206 -31.7184 -31.7169
   -18.9911  -7.1399  -3.4299  -3.2554  -2.4749  -2.4741  -2.2972  -1.1064
    -1.0083  -0.9862   0.1099   0.1512   0.1518   0.2107   0.2260   0.2451
     0.8111   0.8283   0.8587   0.8609   0.9349   1.0265   1.0311   1.0422
     1.0956   1.1502   1.4186   1.7493   1.7615   1.7709   1.8370   1.8840
     1.9062   1.9983   2.3417   2.4087   2.6917   3.0738   3.2004   3.2926
     3.4608   3.5850   3.6000

          k = 0.0558-0.0645 0.0000 ( 19521 PWs)   bands (ev):

   -65.8783 -65.8638 -65.8497 -65.7426 -65.7133 -65.6983 -65.6873 -65.6722
   -65.6400 -65.6278 -65.6171 -65.5963 -32.5076 -32.4051 -32.3929 -32.3713
   -32.3535 -32.3455 -32.3143 -32.2686 -32.2538 -32.2346 -32.2156 -32.2081
   -32.1844 -32.1548 -32.1201 -32.0885 -32.0639 -32.0166 -32.0040 -31.9764
   -31.9699 -31.9599 -31.9270 -31.9188 -31.8757 -31.8719 -31.8418 -31.8116
   -31.8031 -31.8002 -31.7639 -31.7565 -31.7531 -31.7302 -31.7049 -31.6634
   -18.9917  -7.1524  -3.5805  -3.2290  -3.1233  -2.3493  -1.7171  -1.5333
    -1.1008  -0.6820  -0.6355  -0.3196  -0.1849  -0.0911   0.3537   0.4915
     0.5222   0.5677   0.6782   0.9797   1.0609   1.0966   1.1557   1.3370
     1.4578   1.5149   1.5954   1.6748   1.8478   1.9345   2.0511   2.1403
     2.2173   2.2557   2.4629   2.5608   2.7917   2.8687   2.9456   3.0885
     3.3638   3.4728   3.7113

          k =-0.0837 0.0483 0.0000 ( 19532 PWs)   bands (ev):

   -65.8776 -65.8651 -65.8490 -65.7426 -65.7081 -65.7075 -65.6782 -65.6773
   -65.6382 -65.6316 -65.6145 -65.5969 -32.5142 -32.4010 -32.3869 -32.3839
   -32.3641 -32.3471 -32.3101 -32.2638 -32.2530 -32.2434 -32.2070 -32.2033
   -32.1648 -32.1459 -32.1286 -32.0524 -32.0320 -32.0294 -32.0285 -32.0120
   -31.9453 -31.9405 -31.9126 -31.9123 -31.9095 -31.8995 -31.8909 -31.8378
   -31.7866 -31.7804 -31.7599 -31.7567 -31.7524 -31.7500 -31.6660 -31.6603
   -18.9917  -7.1524  -3.5478  -3.1896  -3.0325  -2.7957  -1.5614  -1.4327
    -0.7662  -0.7447  -0.5374  -0.4402  -0.3805  -0.3767   0.4506   0.5171
     0.7099   0.7226   0.7315   0.7925   1.1704   1.2079   1.2523   1.2897
     1.4016   1.4436   1.7365   1.7822   1.8778   1.9531   2.0046   2.0962
     2.1626   2.2261   2.2877   2.7366   2.8283   2.8353   2.8852   2.9895
     3.0173   3.7456   3.7863

          k =-0.0837 0.0806 0.0000 ( 19521 PWs)   bands (ev):

   -65.8782 -65.8639 -65.8497 -65.7426 -65.7133 -65.6983 -65.6873 -65.6722
   -65.6400 -65.6278 -65.6171 -65.5963 -32.5075 -32.4051 -32.3931 -32.3712
   -32.3536 -32.3455 -32.3143 -32.2687 -32.2536 -32.2348 -32.2154 -32.2080
   -32.1845 -32.1549 -32.1200 -32.0884 -32.0639 -32.0165 -32.0040 -31.9764
   -31.9699 -31.9600 -31.9269 -31.9188 -31.8758 -31.8719 -31.8418 -31.8116
   -31.8033 -31.8001 -31.7638 -31.7567 -31.7530 -31.7302 -31.7049 -31.6634
   -18.9917  -7.1524  -3.5805  -3.2290  -3.1233  -2.3492  -1.7171  -1.5333
    -1.1008  -0.6820  -0.6355  -0.3196  -0.1849  -0.0911   0.3537   0.4915
     0.5222   0.5677   0.6782   0.9797   1.0608   1.0967   1.1557   1.3370
     1.4578   1.5149   1.5953   1.6748   1.8478   1.9346   2.0510   2.1403
     2.2173   2.2556   2.4629   2.5608   2.7917   2.8687   2.9456   3.0885
     3.3638   3.4728   3.7114

          k =-0.0837 0.1128 0.0000 ( 19521 PWs)   bands (ev):

   -65.8782 -65.8640 -65.8496 -65.7426 -65.7133 -65.6983 -65.6873 -65.6722
   -65.6400 -65.6277 -65.6172 -65.5963 -32.5075 -32.4051 -32.3931 -32.3712
   -32.3536 -32.3456 -32.3144 -32.2686 -32.2538 -32.2345 -32.2154 -32.2082
   -32.1844 -32.1550 -32.1200 -32.0884 -32.0638 -32.0166 -32.0040 -31.9764
   -31.9699 -31.9599 -31.9269 -31.9188 -31.8758 -31.8719 -31.8419 -31.8117
   -31.8031 -31.8001 -31.7638 -31.7566 -31.7531 -31.7302 -31.7049 -31.6634
   -18.9917  -7.1524  -3.5805  -3.2290  -3.1233  -2.3492  -1.7171  -1.5333
    -1.1008  -0.6820  -0.6355  -0.3196  -0.1849  -0.0911   0.3537   0.4915
     0.5222   0.5677   0.6782   0.9797   1.0608   1.0966   1.1557   1.3370
     1.4578   1.5149   1.5953   1.6748   1.8479   1.9346   2.0510   2.1403
     2.2173   2.2556   2.4629   2.5608   2.7917   2.8687   2.9456   3.0885
     3.3638   3.4728   3.7113

          k =-0.0837-0.0483 0.0000 ( 19532 PWs)   bands (ev):

   -65.8776 -65.8652 -65.8490 -65.7426 -65.7082 -65.7074 -65.6779 -65.6776
   -65.6384 -65.6314 -65.6146 -65.5969 -32.5142 -32.4011 -32.3869 -32.3839
   -32.3641 -32.3472 -32.3102 -32.2641 -32.2526 -32.2433 -32.2070 -32.2032
   -32.1648 -32.1462 -32.1285 -32.0524 -32.0324 -32.0291 -32.0284 -32.0121
   -31.9449 -31.9409 -31.9126 -31.9123 -31.9094 -31.8996 -31.8909 -31.8378
   -31.7865 -31.7804 -31.7601 -31.7567 -31.7525 -31.7499 -31.6663 -31.6600
   -18.9917  -7.1524  -3.5478  -3.1896  -3.0326  -2.7956  -1.5614  -1.4328
    -0.7663  -0.7446  -0.5374  -0.4403  -0.3804  -0.3767   0.4506   0.5172
     0.7099   0.7226   0.7314   0.7926   1.1705   1.2078   1.2523   1.2897
     1.4014   1.4437   1.7365   1.7823   1.8778   1.9531   2.0046   2.0962
     2.1627   2.2260   2.2876   2.7366   2.8284   2.8353   2.8853   2.9895
     3.0173   3.7456   3.7860

     the Fermi energy is     2.5845 ev

!    total energy              =   -1752.18775799 Ry
     Harris-Foulkes estimate   =   -1752.18780028 Ry
     estimated scf accuracy    <       0.00000532 Ry

     The total energy is the sum of the following terms:

     one-electron contribution =  -11848.97203300 Ry
     hartree contribution      =    5912.21907312 Ry
     xc contribution           =    -531.15188818 Ry
     ewald contribution        =    4715.81978228 Ry
     electric field correction =       0.00039427 Ry
     smearing contrib. (-TS)   =      -0.10308648 Ry

     convergence has been achieved in  12 iterations
 
 BEEF-vdW xc energy contributions
           1 :   -467.440898143145     
           2 :    431.201866595795     
           3 :   -368.015176461310     
           4 :    292.588867217342     
           5 :   -219.607947611854     
           6 :    159.225678570925     
           7 :   -115.063578536763     
           8 :    85.0600960308585     
           9 :   -64.2595081947508     
          10 :    47.9056258101597     
          11 :   -33.3907474577359     
          12 :    20.4709374792330     
          13 :   -10.1565181931734     
          14 :    3.26305552507654     
          15 :   0.460340732722898     
          16 :   -2.26456780264175     
          17 :    3.65551183997525     
          18 :   -5.56175143083010     
          19 :    7.93731753423367     
          20 :   -9.98741095740809     
          21 :    10.8159267579044     
          22 :   -10.0699589840145     
          23 :    8.19876144037801     
          24 :   -6.20447883325892     
          25 :    5.06812946304757     
          26 :   -5.21364912060676     
          27 :    6.32155793882498     
          28 :   -7.57410647598419     
          29 :    8.15727420913760     
          30 :   -7.71263441883718     
          31 :   -41.8819384734289     
          32 :   -31.0277335793012     

     Forces acting on atoms (Ry/au):


     negative rho (up, down):  1.177E+00 0.000E+00
     atom    1 type  1   force =    -0.00000799   -0.00000457    0.00463628
     atom    2 type  1   force =     0.00000474    0.00139190    0.00476012
     atom    3 type  1   force =     0.00121828   -0.00069394    0.00476559
     atom    4 type  1   force =    -0.00121413   -0.00070014    0.00476241
     atom    5 type  1   force =     0.00124159   -0.00070092   -0.00005094
     atom    6 type  1   force =    -0.00123669   -0.00072540   -0.00003093
     atom    7 type  1   force =    -0.00002747   -0.00000101   -0.00406473
     atom    8 type  1   force =     0.00001986    0.00142755   -0.00003491
     atom    9 type  1   force =    -0.02704633   -0.01562386    0.03030311
     atom   10 type  1   force =     0.02704635   -0.01563600    0.03030459
     atom   11 type  1   force =    -0.00000667    0.03123751    0.03031569
     atom   12 type  1   force =     0.00000500    0.00000798   -0.04165756
     atom   13 type  2   force =     0.00000321    0.00002095   -0.11130516
     atom   14 type  3   force =     0.00000028   -0.00000005    0.04729642

     Total force =     0.148473     Total SCF correction =     0.003383


     entering subroutine stress ...


     negative rho (up, down):  1.177E+00 0.000E+00
          total   stress  (Ry/bohr**3)                   (kbar)     P=  -31.34
  -0.00027358   0.00000000   0.00000000        -40.24      0.00      0.00
   0.00000000  -0.00027357  -0.00000001          0.00    -40.24     -0.00
   0.00000000  -0.00000001  -0.00009196          0.00     -0.00    -13.53


     BFGS Geometry Optimization

     number of scf cycles    =   1
     number of bfgs steps    =   0

     energy   new            =   -1752.1877579879 Ry

     new trust radius        =       0.1113051631 bohr
     new conv_thr            =       0.0000099958 Ry


ATOMIC_POSITIONS (crystal)
Ta1      0.166666667   0.166666667   0.401991699    0   0   0
Ta1      0.666666667   0.166666667   0.401991699    0   0   0
Ta1      0.166666667   0.666666667   0.401991699    0   0   0
Ta1      0.666666667   0.666666667   0.401991699    0   0   0
Ta1      0.833333333   0.333333333   0.500000000    0   0   0
Ta1      0.333333333   0.333333333   0.500000000    0   0   0
Ta1      0.833333333   0.833333333   0.500000000    0   0   0
Ta1      0.333333333   0.833333333   0.500000000    0   0   0
Ta1     -0.001597263  -0.001598591   0.598652924
Ta1      0.503196477  -0.001599833   0.598652955
Ta1     -0.001598660   0.503196138   0.598653192
Ta1      0.500000035   0.500000817   0.597122142
O1       0.166665879   0.166668810   0.657306091
H1       0.166666694   0.166666661   0.698869152



     Writing output data file calc.save
     Check: negative starting charge=   -1.121738
     NEW-OLD atomic charge density approx. for the potential
     Check: negative starting charge=   -1.123095

     negative rho (up, down):  1.179E+00 0.000E+00
 
     Adding external electric field

     Computed dipole along edir(3) : 
        Dipole                0.4034 Ry au,          1.0253 Debye
        Dipole field          0.0010 Ry au
 
        Potential amp.       -0.0896 Ry
        Total length         45.8339 bohr
 

     total cpu time spent up to now is      510.4 secs

     per-process dynamical memory:    91.5 Mb

     Self-consistent Calculation

     iteration #  1     ecut=    36.75 Ry     beta=0.30
     Davidson diagonalization with overlap
     ethr =  1.00E-06,  avg # of iterations =  9.6

     negative rho (up, down):  1.178E+00 0.000E+00
 
     Adding external electric field

     Computed dipole along edir(3) : 
        Dipole                1.1290 Ry au,          2.8697 Debye
        Dipole field          0.0027 Ry au
 
        Potential amp.       -0.2508 Ry
        Total length         45.8339 bohr
 

     total cpu time spent up to now is      550.4 secs

     total energy              =   -1752.17130961 Ry
     Harris-Foulkes estimate   =   -1752.19608449 Ry
     estimated scf accuracy    <       0.05633311 Ry

     iteration #  2     ecut=    36.75 Ry     beta=0.30
     Davidson diagonalization with overlap
     ethr =  3.46E-05,  avg # of iterations =  7.2

     negative rho (up, down):  1.178E+00 0.000E+00
 
     Adding external electric field

     Computed dipole along edir(3) : 
        Dipole                0.4783 Ry au,          1.2158 Debye
        Dipole field          0.0012 Ry au
 
        Potential amp.       -0.1063 Ry
        Total length         45.8339 bohr
 

     total cpu time spent up to now is      585.2 secs

     total energy              =   -1751.87241478 Ry
     Harris-Foulkes estimate   =   -1752.55832172 Ry
     estimated scf accuracy    <      31.08759200 Ry

     iteration #  3     ecut=    36.75 Ry     beta=0.30
     Davidson diagonalization with overlap
     ethr =  3.46E-05,  avg # of iterations =  6.4

     negative rho (up, down):  1.178E+00 0.000E+00
 
     Adding external electric field

     Computed dipole along edir(3) : 
        Dipole                0.4479 Ry au,          1.1386 Debye
        Dipole field          0.0011 Ry au
 
        Potential amp.       -0.0995 Ry
        Total length         45.8339 bohr
 

     total cpu time spent up to now is      618.1 secs

     total energy              =   -1752.19515425 Ry
     Harris-Foulkes estimate   =   -1752.19594637 Ry
     estimated scf accuracy    <       0.00337883 Ry

     iteration #  4     ecut=    36.75 Ry     beta=0.30
     Davidson diagonalization with overlap
     ethr =  2.07E-06,  avg # of iterations =  3.2

     negative rho (up, down):  1.178E+00 0.000E+00
 
     Adding external electric field

     Computed dipole along edir(3) : 
        Dipole                0.4570 Ry au,          1.1617 Debye
        Dipole field          0.0011 Ry au
 
        Potential amp.       -0.1015 Ry
        Total length         45.8339 bohr
 

     total cpu time spent up to now is      648.3 secs

     total energy              =   -1752.19527486 Ry
     Harris-Foulkes estimate   =   -1752.19548133 Ry
     estimated scf accuracy    <       0.00077674 Ry

     iteration #  5     ecut=    36.75 Ry     beta=0.30
     Davidson diagonalization with overlap
     ethr =  4.77E-07,  avg # of iterations =  4.0

     negative rho (up, down):  1.178E+00 0.000E+00
 
     Adding external electric field

     Computed dipole along edir(3) : 
        Dipole                0.4598 Ry au,          1.1688 Debye
        Dipole field          0.0011 Ry au
 
        Potential amp.       -0.1022 Ry
        Total length         45.8339 bohr
 

     total cpu time spent up to now is      681.4 secs

     total energy              =   -1752.19515239 Ry
     Harris-Foulkes estimate   =   -1752.19552308 Ry
     estimated scf accuracy    <       0.00295411 Ry

     iteration #  6     ecut=    36.75 Ry     beta=0.30
     Davidson diagonalization with overlap
     ethr =  4.77E-07,  avg # of iterations =  3.0

     negative rho (up, down):  1.178E+00 0.000E+00
 
     Adding external electric field

     Computed dipole along edir(3) : 
        Dipole                0.4539 Ry au,          1.1536 Debye
        Dipole field          0.0011 Ry au
 
        Potential amp.       -0.1008 Ry
        Total length         45.8339 bohr
 

     total cpu time spent up to now is      713.9 secs

     total energy              =   -1752.19534898 Ry
     Harris-Foulkes estimate   =   -1752.19541867 Ry
     estimated scf accuracy    <       0.00052805 Ry

     iteration #  7     ecut=    36.75 Ry     beta=0.30
     Davidson diagonalization with overlap
     ethr =  3.24E-07,  avg # of iterations =  2.4

     negative rho (up, down):  1.178E+00 0.000E+00
 
     Adding external electric field

     Computed dipole along edir(3) : 
        Dipole                0.4517 Ry au,          1.1482 Debye
        Dipole field          0.0011 Ry au
 
        Potential amp.       -0.1004 Ry
        Total length         45.8339 bohr
 

     total cpu time spent up to now is      744.4 secs

     total energy              =   -1752.19538137 Ry
     Harris-Foulkes estimate   =   -1752.19538834 Ry
     estimated scf accuracy    <       0.00004774 Ry

     iteration #  8     ecut=    36.75 Ry     beta=0.30
     Davidson diagonalization with overlap
     ethr =  2.93E-08,  avg # of iterations =  4.0

     negative rho (up, down):  1.178E+00 0.000E+00
 
     Adding external electric field

     Computed dipole along edir(3) : 
        Dipole                0.4514 Ry au,          1.1473 Debye
        Dipole field          0.0011 Ry au
 
        Potential amp.       -0.1003 Ry
        Total length         45.8339 bohr
 

     total cpu time spent up to now is      774.4 secs

     total energy              =   -1752.19539110 Ry
     Harris-Foulkes estimate   =   -1752.19539075 Ry
     estimated scf accuracy    <       0.00001634 Ry

     iteration #  9     ecut=    36.75 Ry     beta=0.30
     Davidson diagonalization with overlap
     ethr =  1.00E-08,  avg # of iterations =  2.7

     negative rho (up, down):  1.178E+00 0.000E+00

     negative rho (up, down):  1.178E+00 0.000E+00

     negative rho (up, down):  1.178E+00 0.000E+00

     negative rho (up, down):  1.178E+00 0.000E+00

     negative rho (up, down):  1.178E+00 0.000E+00

     negative rho (up, down):  1.178E+00 0.000E+00

     negative rho (up, down):  1.178E+00 0.000E+00

     negative rho (up, down):  1.178E+00 0.000E+00

     negative rho (up, down):  1.178E+00 0.000E+00

     negative rho (up, down):  1.178E+00 0.000E+00

     negative rho (up, down):  1.178E+00 0.000E+00

     negative rho (up, down):  1.178E+00 0.000E+00

     negative rho (up, down):  1.178E+00 0.000E+00

     negative rho (up, down):  1.178E+00 0.000E+00

     negative rho (up, down):  1.178E+00 0.000E+00

     negative rho (up, down):  1.178E+00 0.000E+00

     negative rho (up, down):  1.178E+00 0.000E+00

     negative rho (up, down):  1.178E+00 0.000E+00

     negative rho (up, down):  1.178E+00 0.000E+00

     negative rho (up, down):  1.178E+00 0.000E+00

     negative rho (up, down):  1.178E+00 0.000E+00

     negative rho (up, down):  1.178E+00 0.000E+00

     negative rho (up, down):  1.178E+00 0.000E+00

     negative rho (up, down):  1.178E+00 0.000E+00

     negative rho (up, down):  1.178E+00 0.000E+00

     negative rho (up, down):  1.178E+00 0.000E+00

     negative rho (up, down):  1.178E+00 0.000E+00

     negative rho (up, down):  1.178E+00 0.000E+00

     negative rho (up, down):  1.178E+00 0.000E+00

     negative rho (up, down):  1.178E+00 0.000E+00

     negative rho (up, down):  1.178E+00 0.000E+00

     negative rho (up, down):  1.178E+00 0.000E+00

     negative rho (up, down):  1.178E+00 0.000E+00

     negative rho (up, down):  1.178E+00 0.000E+00

     negative rho (up, down):  1.178E+00 0.000E+00
 
     Adding external electric field

     Computed dipole along edir(3) : 
        Dipole                0.4442 Ry au,          1.1291 Debye
        Dipole field          0.0011 Ry au
 
        Potential amp.       -0.0987 Ry
        Total length         45.8339 bohr
 

     total cpu time spent up to now is      853.6 secs

     End of self-consistent calculation

          k = 0.0000 0.0000 0.0000 ( 19447 PWs)   bands (ev):

   -65.8558 -65.8096 -65.8092 -65.7005 -65.6754 -65.6404 -65.6400 -65.6397
   -65.6234 -65.5811 -65.5807 -65.5599 -32.6322 -32.4924 -32.4923 -32.4461
   -32.4280 -32.4151 -32.4150 -32.3511 -32.3509 -32.3494 -32.1957 -32.1562
   -32.1560 -32.0497 -31.9967 -31.9964 -31.9828 -31.9290 -31.9286 -31.9284
   -31.8113 -31.8113 -31.8077 -31.7929 -31.7928 -31.7673 -31.7370 -31.7264
   -31.7263 -31.7027 -31.6928 -31.6928 -31.6187 -31.6187 -31.5554 -31.5554
   -18.7556  -7.1176  -4.7513  -3.4842  -3.4842  -3.0885  -2.1241  -1.4711
    -1.4711  -1.4245  -1.2238  -1.1536  -1.1535  -0.5164  -0.5107  -0.5107
    -0.3054  -0.3053  -0.1412   0.9153   0.9153   1.1669   1.8813   2.1158
     2.1304   2.1304   2.3811   2.4952   2.6213   2.6214   2.6937   2.9641
     2.9642   3.0499   3.2531   3.2531   3.3490   3.3637   3.3638   3.4274
     3.4274   3.6533   3.6534

          k = 0.0000 0.0322 0.0000 ( 19481 PWs)   bands (ev):

   -65.8528 -65.8118 -65.8096 -65.6965 -65.6758 -65.6441 -65.6401 -65.6400
   -65.6204 -65.5830 -65.5810 -65.5608 -32.6013 -32.4654 -32.4577 -32.4252
   -32.4035 -32.3932 -32.3857 -32.3260 -32.3255 -32.3090 -32.1929 -32.1665
   -32.1583 -32.0709 -31.9991 -31.9989 -31.9729 -31.9544 -31.9492 -31.9180
   -31.8493 -31.8465 -31.8024 -31.7988 -31.7793 -31.7681 -31.7564 -31.7367
   -31.7355 -31.7229 -31.7202 -31.6880 -31.6567 -31.6318 -31.6029 -31.5646
   -18.7538  -7.0888  -4.5349  -3.5088  -3.4614  -2.8332  -1.8774  -1.5752
    -1.3188  -1.2808  -1.1311  -1.0248  -0.9855  -0.4298  -0.3111  -0.2918
    -0.1843  -0.1537  -0.0062   0.9293   0.9543   1.1789   1.7907   2.0938
     2.1476   2.2022   2.2892   2.4090   2.4237   2.5041   2.5587   2.5828
     3.0082   3.1436   3.1463   3.1701   3.2224   3.2790   3.3426   3.3624
     3.3987   3.5093   3.6506

          k = 0.0000 0.0645 0.0000 ( 19517 PWs)   bands (ev):

   -65.8450 -65.8186 -65.8096 -65.6859 -65.6765 -65.6552 -65.6401 -65.6400
   -65.6124 -65.5897 -65.5810 -65.5622 -32.5292 -32.3974 -32.3914 -32.3624
   -32.3438 -32.3386 -32.3245 -32.2672 -32.2645 -32.2184 -32.1844 -32.1654
   -32.1608 -32.1072 -32.0437 -32.0326 -31.9790 -31.9634 -31.9494 -31.9159
   -31.9061 -31.8995 -31.8916 -31.8277 -31.8127 -31.8015 -31.7784 -31.7568
   -31.7488 -31.7434 -31.7389 -31.7352 -31.6954 -31.6676 -31.6628 -31.5907
   -18.7502  -7.0325  -3.9783  -3.4708  -3.4181  -2.2277  -2.0362  -1.2167
    -1.0962  -0.9538  -0.8725  -0.6338  -0.5888  -0.2677   0.1669   0.1977
     0.2061   0.3803   0.4253   0.9650   1.0576   1.1852   1.4324   1.6938
     1.7570   1.7776   1.8968   2.0549   2.4078   2.4356   2.4805   2.5485
     2.5567   2.5963   2.6662   2.7572   2.8695   2.9269   2.9880   3.2258
     3.3213   3.4573   3.6402

          k = 0.0000-0.0967 0.0000 ( 19532 PWs)   bands (ev):

   -65.8386 -65.8245 -65.8096 -65.6783 -65.6703 -65.6695 -65.6401 -65.6400
   -65.6041 -65.5974 -65.5810 -65.5628 -32.4822 -32.3596 -32.3460 -32.3367
   -32.3187 -32.3092 -32.2675 -32.2245 -32.2156 -32.2047 -32.1692 -32.1593
   -32.1306 -32.1096 -32.0932 -32.0083 -31.9947 -31.9943 -31.9817 -31.9655
   -31.9073 -31.9011 -31.8788 -31.8729 -31.8693 -31.8657 -31.8561 -31.7912
   -31.7504 -31.7418 -31.7226 -31.7195 -31.7155 -31.7109 -31.6292 -31.6242
   -18.7484  -7.0050  -3.7058  -3.3974  -2.9888  -2.7995  -1.5265  -1.3820
    -0.7181  -0.7039  -0.4906  -0.3943  -0.3441  -0.3178   0.4916   0.5595
     0.7454   0.7613   0.7768   0.8393   1.2047   1.2466   1.2909   1.3252
     1.4497   1.4705   1.7530   1.8413   1.8940   1.9913   2.0389   2.1541
     2.2174   2.2694   2.2985   2.7495   2.8688   2.8714   2.9252   3.0240
     3.1316   3.8136   3.8334

          k = 0.0279-0.0161 0.0000 ( 19481 PWs)   bands (ev):

   -65.8528 -65.8121 -65.8093 -65.6965 -65.6758 -65.6441 -65.6401 -65.6400
   -65.6204 -65.5830 -65.5810 -65.5608 -32.6012 -32.4655 -32.4576 -32.4252
   -32.4034 -32.3931 -32.3857 -32.3260 -32.3255 -32.3090 -32.1930 -32.1666
   -32.1581 -32.0709 -31.9991 -31.9989 -31.9729 -31.9544 -31.9494 -31.9179
   -31.8493 -31.8465 -31.8023 -31.7987 -31.7794 -31.7681 -31.7564 -31.7367
   -31.7355 -31.7229 -31.7202 -31.6880 -31.6567 -31.6318 -31.6029 -31.5646
   -18.7538  -7.0888  -4.5349  -3.5088  -3.4614  -2.8332  -1.8774  -1.5752
    -1.3188  -1.2808  -1.1311  -1.0248  -0.9855  -0.4298  -0.3111  -0.2919
    -0.1843  -0.1537  -0.0062   0.9293   0.9543   1.1790   1.7907   2.0938
     2.1476   2.2022   2.2892   2.4090   2.4237   2.5041   2.5587   2.5828
     3.0082   3.1436   3.1462   3.1701   3.2224   3.2790   3.3426   3.3624
     3.3987   3.5093   3.6506

          k = 0.0279 0.0161 0.0000 ( 19481 PWs)   bands (ev):

   -65.8528 -65.8121 -65.8093 -65.6965 -65.6758 -65.6441 -65.6404 -65.6397
   -65.6204 -65.5832 -65.5807 -65.5608 -32.6012 -32.4655 -32.4576 -32.4252
   -32.4034 -32.3932 -32.3857 -32.3258 -32.3256 -32.3090 -32.1930 -32.1666
   -32.1581 -32.0709 -31.9992 -31.9988 -31.9729 -31.9545 -31.9493 -31.9179
   -31.8493 -31.8465 -31.8024 -31.7987 -31.7793 -31.7681 -31.7564 -31.7367
   -31.7355 -31.7229 -31.7202 -31.6880 -31.6567 -31.6319 -31.6029 -31.5646
   -18.7538  -7.0888  -4.5349  -3.5088  -3.4614  -2.8332  -1.8774  -1.5752
    -1.3188  -1.2808  -1.1311  -1.0247  -0.9855  -0.4298  -0.3111  -0.2919
    -0.1843  -0.1537  -0.0062   0.9293   0.9543   1.1789   1.7907   2.0938
     2.1476   2.2022   2.2892   2.4090   2.4237   2.5041   2.5587   2.5828
     3.0082   3.1436   3.1463   3.1701   3.2223   3.2790   3.3426   3.3624
     3.3987   3.5093   3.6506

          k = 0.0279 0.0483 0.0000 ( 19485 PWs)   bands (ev):

   -65.8473 -65.8164 -65.8097 -65.6892 -65.6764 -65.6478 -65.6475 -65.6365
   -65.6149 -65.5868 -65.5818 -65.5618 -32.5482 -32.4179 -32.4004 -32.3873
   -32.3614 -32.3460 -32.3448 -32.2924 -32.2595 -32.2514 -32.1913 -32.1721
   -32.1624 -32.1003 -32.0519 -31.9925 -31.9792 -31.9576 -31.9355 -31.9337
   -31.9305 -31.8715 -31.8195 -31.8160 -31.8074 -31.7903 -31.7797 -31.7600
   -31.7470 -31.7406 -31.7066 -31.7034 -31.7004 -31.6876 -31.6443 -31.5884
   -18.7511  -7.0464  -4.1399  -3.4920  -3.4376  -2.3926  -1.6295  -1.5871
    -1.3728  -0.9740  -0.9190  -0.7733  -0.6152  -0.1584  -0.1468   0.0693
     0.0868   0.2245   0.2662   0.9597   1.0038   1.1866   1.5885   1.8436
     1.8681   1.9566   2.0060   2.0960   2.3618   2.4884   2.5383   2.6139
     2.6671   2.6829   2.8036   2.8804   3.0169   3.0788   3.0855   3.2243
     3.4309   3.5025   3.5789

          k = 0.0279-0.1128 0.0000 ( 19521 PWs)   bands (ev):

   -65.8390 -65.8237 -65.8101 -65.6789 -65.6745 -65.6607 -65.6497 -65.6345
   -65.6057 -65.5938 -65.5834 -65.5623 -32.4755 -32.3653 -32.3494 -32.3273
   -32.3083 -32.3020 -32.2734 -32.2299 -32.2152 -32.1982 -32.1759 -32.1685
   -32.1495 -32.1154 -32.0817 -32.0489 -32.0245 -31.9767 -31.9668 -31.9347
   -31.9313 -31.9176 -31.8886 -31.8782 -31.8382 -31.8330 -31.8026 -31.7732
   -31.7661 -31.7616 -31.7258 -31.7198 -31.7152 -31.6928 -31.6684 -31.6271
   -18.7484  -7.0050  -3.7048  -3.4257  -3.1627  -2.3134  -1.6777  -1.4895
    -1.0548  -0.6368  -0.5877  -0.2759  -0.1432  -0.0389   0.3996   0.5319
     0.5713   0.6057   0.7188   1.0148   1.0980   1.1358   1.1954   1.3766
     1.4904   1.5500   1.6252   1.7221   1.8828   1.9719   2.0813   2.1806
     2.2532   2.2837   2.5001   2.6088   2.8311   2.9120   2.9938   3.1470
     3.4156   3.5332   3.7622

          k = 0.0279-0.0806 0.0000 ( 19521 PWs)   bands (ev):

   -65.8390 -65.8237 -65.8101 -65.6789 -65.6745 -65.6607 -65.6497 -65.6345
   -65.6058 -65.5937 -65.5835 -65.5623 -32.4755 -32.3653 -32.3495 -32.3273
   -32.3083 -32.3020 -32.2734 -32.2300 -32.2151 -32.1983 -32.1759 -32.1684
   -32.1495 -32.1154 -32.0816 -32.0489 -32.0245 -31.9767 -31.9668 -31.9347
   -31.9313 -31.9176 -31.8886 -31.8783 -31.8382 -31.8330 -31.8026 -31.7731
   -31.7662 -31.7615 -31.7258 -31.7198 -31.7152 -31.6928 -31.6684 -31.6271
   -18.7484  -7.0050  -3.7048  -3.4257  -3.1627  -2.3133  -1.6777  -1.4895
    -1.0548  -0.6368  -0.5877  -0.2759  -0.1432  -0.0389   0.3996   0.5319
     0.5713   0.6057   0.7188   1.0148   1.0979   1.1359   1.1955   1.3766
     1.4904   1.5500   1.6252   1.7221   1.8827   1.9719   2.0813   2.1806
     2.2532   2.2837   2.5001   2.6088   2.8311   2.9120   2.9938   3.1470
     3.4156   3.5332   3.7622

          k = 0.0279-0.0483 0.0000 ( 19485 PWs)   bands (ev):

   -65.8473 -65.8164 -65.8097 -65.6892 -65.6764 -65.6479 -65.6473 -65.6365
   -65.6149 -65.5865 -65.5821 -65.5617 -32.5482 -32.4179 -32.4004 -32.3873
   -32.3614 -32.3460 -32.3448 -32.2924 -32.2594 -32.2515 -32.1913 -32.1721
   -32.1623 -32.1003 -32.0519 -31.9925 -31.9791 -31.9576 -31.9355 -31.9337
   -31.9305 -31.8715 -31.8195 -31.8161 -31.8074 -31.7903 -31.7798 -31.7600
   -31.7469 -31.7406 -31.7067 -31.7034 -31.7004 -31.6876 -31.6443 -31.5884
   -18.7511  -7.0464  -4.1399  -3.4920  -3.4376  -2.3926  -1.6295  -1.5871
    -1.3728  -0.9740  -0.9190  -0.7733  -0.6152  -0.1584  -0.1468   0.0693
     0.0868   0.2245   0.2662   0.9597   1.0038   1.1866   1.5885   1.8436
     1.8681   1.9567   2.0060   2.0960   2.3618   2.4884   2.5383   2.6139
     2.6671   2.6829   2.8036   2.8804   3.0169   3.0788   3.0855   3.2244
     3.4309   3.5025   3.5788

          k = 0.0558-0.0322 0.0000 ( 19517 PWs)   bands (ev):

   -65.8449 -65.8190 -65.8093 -65.6859 -65.6765 -65.6552 -65.6401 -65.6400
   -65.6124 -65.5896 -65.5810 -65.5622 -32.5290 -32.3975 -32.3914 -32.3625
   -32.3438 -32.3386 -32.3245 -32.2672 -32.2645 -32.2184 -32.1844 -32.1653
   -32.1608 -32.1072 -32.0436 -32.0328 -31.9790 -31.9635 -31.9494 -31.9158
   -31.9061 -31.8994 -31.8914 -31.8277 -31.8128 -31.8015 -31.7784 -31.7569
   -31.7488 -31.7434 -31.7389 -31.7352 -31.6954 -31.6677 -31.6628 -31.5907
   -18.7502  -7.0325  -3.9783  -3.4708  -3.4181  -2.2277  -2.0362  -1.2167
    -1.0962  -0.9538  -0.8725  -0.6339  -0.5888  -0.2677   0.1669   0.1977
     0.2062   0.3803   0.4253   0.9650   1.0576   1.1852   1.4324   1.6938
     1.7570   1.7776   1.8968   2.0549   2.4078   2.4355   2.4805   2.5485
     2.5567   2.5963   2.6662   2.7572   2.8696   2.9269   2.9880   3.2258
     3.3214   3.4573   3.6401

          k = 0.0558 0.0000 0.0000 ( 19485 PWs)   bands (ev):

   -65.8472 -65.8167 -65.8095 -65.6892 -65.6764 -65.6478 -65.6475 -65.6365
   -65.6149 -65.5867 -65.5818 -65.5618 -32.5481 -32.4180 -32.4004 -32.3873
   -32.3615 -32.3460 -32.3448 -32.2924 -32.2595 -32.2514 -32.1913 -32.1722
   -32.1623 -32.1003 -32.0521 -31.9925 -31.9792 -31.9575 -31.9354 -31.9336
   -31.9305 -31.8715 -31.8195 -31.8160 -31.8073 -31.7903 -31.7798 -31.7600
   -31.7470 -31.7407 -31.7067 -31.7034 -31.7004 -31.6876 -31.6443 -31.5884
   -18.7511  -7.0464  -4.1399  -3.4920  -3.4376  -2.3927  -1.6295  -1.5871
    -1.3728  -0.9740  -0.9190  -0.7733  -0.6152  -0.1584  -0.1468   0.0693
     0.0868   0.2245   0.2663   0.9597   1.0039   1.1866   1.5885   1.8436
     1.8681   1.9566   2.0060   2.0960   2.3618   2.4885   2.5383   2.6139
     2.6671   2.6829   2.8036   2.8804   3.0168   3.0788   3.0855   3.2244
     3.4309   3.5025   3.5789

          k = 0.0558 0.0322 0.0000 ( 19517 PWs)   bands (ev):

   -65.8449 -65.8190 -65.8093 -65.6859 -65.6765 -65.6552 -65.6404 -65.6397
   -65.6123 -65.5899 -65.5807 -65.5623 -32.5290 -32.3975 -32.3914 -32.3624
   -32.3439 -32.3385 -32.3245 -32.2674 -32.2643 -32.2184 -32.1843 -32.1654
   -32.1608 -32.1072 -32.0436 -32.0327 -31.9791 -31.9634 -31.9494 -31.9158
   -31.9062 -31.8993 -31.8914 -31.8277 -31.8127 -31.8016 -31.7784 -31.7569
   -31.7489 -31.7434 -31.7389 -31.7351 -31.6954 -31.6677 -31.6627 -31.5907
   -18.7502  -7.0325  -3.9783  -3.4708  -3.4181  -2.2277  -2.0362  -1.2167
    -1.0962  -0.9538  -0.8725  -0.6338  -0.5889  -0.2677   0.1669   0.1977
     0.2062   0.3803   0.4253   0.9650   1.0576   1.1852   1.4324   1.6938
     1.7570   1.7776   1.8968   2.0549   2.4078   2.4355   2.4805   2.5485
     2.5567   2.5964   2.6661   2.7572   2.8696   2.9269   2.9880   3.2258
     3.3213   3.4573   3.6402

          k = 0.0558-0.1289 0.0000 ( 19521 PWs)   bands (ev):

   -65.8388 -65.8240 -65.8099 -65.6789 -65.6745 -65.6607 -65.6497 -65.6345
   -65.6057 -65.5940 -65.5833 -65.5623 -32.4754 -32.3654 -32.3494 -32.3274
   -32.3083 -32.3020 -32.2734 -32.2300 -32.2151 -32.1983 -32.1759 -32.1685
   -32.1495 -32.1153 -32.0816 -32.0490 -32.0245 -31.9767 -31.9668 -31.9347
   -31.9313 -31.9177 -31.8886 -31.8780 -31.8382 -31.8330 -31.8027 -31.7731
   -31.7662 -31.7616 -31.7259 -31.7198 -31.7152 -31.6928 -31.6684 -31.6272
   -18.7484  -7.0050  -3.7048  -3.4257  -3.1627  -2.3134  -1.6777  -1.4896
    -1.0548  -0.6368  -0.5877  -0.2759  -0.1432  -0.0389   0.3996   0.5319
     0.5713   0.6057   0.7188   1.0148   1.0980   1.1358   1.1954   1.3766
     1.4904   1.5500   1.6253   1.7222   1.8827   1.9719   2.0813   2.1806
     2.2532   2.2837   2.5001   2.6088   2.8312   2.9120   2.9938   3.1470
     3.4156   3.5332   3.7622

          k = 0.0558-0.0967 0.0000 ( 19521 PWs)   bands (ev):

   -65.8329 -65.8291 -65.8106 -65.6781 -65.6630 -65.6628 -65.6622 -65.6324
   -65.5989 -65.5975 -65.5869 -65.5620 -32.4154 -32.3897 -32.3139 -32.2964
   -32.2875 -32.2719 -32.2426 -32.2170 -32.2136 -32.1791 -32.1600 -32.1594
   -32.1424 -32.1263 -32.1131 -32.0469 -32.0399 -32.0366 -31.9899 -31.9369
   -31.9359 -31.9322 -31.9084 -31.8961 -31.8487 -31.8476 -31.7752 -31.7590
   -31.7573 -31.7572 -31.7338 -31.7330 -31.7324 -31.6848 -31.6825 -31.6791
   -18.7474  -6.9914  -3.6253  -3.4479  -2.4455  -2.4230  -2.2726  -1.0737
    -0.9492  -0.9476   0.1572   0.1883   0.1947   0.2504   0.2626   0.3163
     0.8367   0.8782   0.8981   0.9040   0.9802   1.0718   1.0726   1.0943
     1.0959   1.2015   1.4438   1.7808   1.8032   1.8271   1.8525   1.9123
     1.9481   2.0256   2.3804   2.4480   2.7482   3.1597   3.2468   3.3157
     3.5210   3.5983   3.6673

          k = 0.0558-0.0645 0.0000 ( 19521 PWs)   bands (ev):

   -65.8388 -65.8240 -65.8099 -65.6789 -65.6745 -65.6607 -65.6497 -65.6345
   -65.6058 -65.5936 -65.5836 -65.5623 -32.4754 -32.3655 -32.3494 -32.3273
   -32.3084 -32.3020 -32.2734 -32.2299 -32.2151 -32.1983 -32.1759 -32.1684
   -32.1495 -32.1154 -32.0816 -32.0490 -32.0245 -31.9766 -31.9667 -31.9347
   -31.9313 -31.9176 -31.8885 -31.8781 -31.8383 -31.8330 -31.8027 -31.7731
   -31.7662 -31.7615 -31.7258 -31.7198 -31.7152 -31.6928 -31.6684 -31.6271
   -18.7484  -7.0050  -3.7048  -3.4257  -3.1628  -2.3134  -1.6777  -1.4896
    -1.0548  -0.6368  -0.5877  -0.2759  -0.1432  -0.0389   0.3995   0.5319
     0.5713   0.6057   0.7188   1.0148   1.0980   1.1358   1.1955   1.3766
     1.4903   1.5500   1.6253   1.7221   1.8827   1.9719   2.0813   2.1806
     2.2532   2.2837   2.5001   2.6088   2.8311   2.9120   2.9938   3.1470
     3.4156   3.5332   3.7622

          k =-0.0837 0.0483 0.0000 ( 19532 PWs)   bands (ev):

   -65.8383 -65.8251 -65.8093 -65.6783 -65.6703 -65.6696 -65.6401 -65.6400
   -65.6041 -65.5973 -65.5810 -65.5628 -32.4819 -32.3599 -32.3461 -32.3365
   -32.3188 -32.3092 -32.2676 -32.2245 -32.2157 -32.2047 -32.1691 -32.1593
   -32.1304 -32.1098 -32.0930 -32.0083 -31.9946 -31.9943 -31.9817 -31.9655
   -31.9073 -31.9011 -31.8788 -31.8727 -31.8693 -31.8657 -31.8561 -31.7914
   -31.7504 -31.7418 -31.7226 -31.7195 -31.7155 -31.7109 -31.6293 -31.6242
   -18.7484  -7.0050  -3.7058  -3.3974  -2.9888  -2.7995  -1.5265  -1.3819
    -0.7181  -0.7038  -0.4906  -0.3943  -0.3441  -0.3177   0.4916   0.5596
     0.7454   0.7613   0.7769   0.8393   1.2048   1.2465   1.2909   1.3251
     1.4496   1.4705   1.7530   1.8413   1.8939   1.9913   2.0389   2.1542
     2.2174   2.2695   2.2985   2.7495   2.8688   2.8714   2.9252   3.0240
     3.1316   3.8136   3.8333

          k =-0.0837 0.0806 0.0000 ( 19521 PWs)   bands (ev):

   -65.8388 -65.8241 -65.8098 -65.6789 -65.6745 -65.6607 -65.6497 -65.6345
   -65.6057 -65.5937 -65.5835 -65.5623 -32.4753 -32.3655 -32.3495 -32.3272
   -32.3084 -32.3020 -32.2734 -32.2299 -32.2152 -32.1982 -32.1759 -32.1685
   -32.1495 -32.1155 -32.0817 -32.0488 -32.0244 -31.9766 -31.9668 -31.9347
   -31.9313 -31.9176 -31.8886 -31.8781 -31.8382 -31.8330 -31.8027 -31.7732
   -31.7661 -31.7616 -31.7258 -31.7198 -31.7152 -31.6928 -31.6684 -31.6271
   -18.7484  -7.0050  -3.7048  -3.4257  -3.1628  -2.3134  -1.6777  -1.4895
    -1.0548  -0.6368  -0.5877  -0.2759  -0.1432  -0.0389   0.3995   0.5319
     0.5713   0.6057   0.7188   1.0149   1.0980   1.1358   1.1954   1.3766
     1.4904   1.5500   1.6252   1.7222   1.8828   1.9719   2.0812   2.1806
     2.2532   2.2837   2.5001   2.6088   2.8312   2.9120   2.9938   3.1470
     3.4156   3.5332   3.7622

          k =-0.0837 0.1128 0.0000 ( 19521 PWs)   bands (ev):

   -65.8388 -65.8241 -65.8098 -65.6789 -65.6745 -65.6607 -65.6497 -65.6345
   -65.6057 -65.5940 -65.5833 -65.5623 -32.4753 -32.3655 -32.3495 -32.3272
   -32.3084 -32.3020 -32.2733 -32.2300 -32.2151 -32.1983 -32.1759 -32.1685
   -32.1496 -32.1155 -32.0816 -32.0488 -32.0245 -31.9766 -31.9668 -31.9346
   -31.9313 -31.9177 -31.8886 -31.8781 -31.8382 -31.8330 -31.8027 -31.7732
   -31.7662 -31.7616 -31.7259 -31.7198 -31.7152 -31.6928 -31.6684 -31.6272
   -18.7484  -7.0050  -3.7048  -3.4257  -3.1627  -2.3134  -1.6777  -1.4895
    -1.0548  -0.6368  -0.5877  -0.2759  -0.1432  -0.0389   0.3996   0.5319
     0.5713   0.6057   0.7188   1.0149   1.0979   1.1358   1.1955   1.3766
     1.4904   1.5500   1.6252   1.7222   1.8827   1.9720   2.0812   2.1806
     2.2532   2.2837   2.5001   2.6088   2.8312   2.9120   2.9938   3.1470
     3.4156   3.5332   3.7622

          k =-0.0837-0.0483 0.0000 ( 19532 PWs)   bands (ev):

   -65.8383 -65.8251 -65.8093 -65.6783 -65.6701 -65.6697 -65.6404 -65.6397
   -65.6038 -65.5978 -65.5807 -65.5629 -32.4819 -32.3599 -32.3461 -32.3366
   -32.3188 -32.3091 -32.2676 -32.2243 -32.2158 -32.2047 -32.1692 -32.1595
   -32.1304 -32.1096 -32.0930 -32.0083 -31.9948 -31.9941 -31.9817 -31.9654
   -31.9076 -31.9008 -31.8787 -31.8726 -31.8695 -31.8655 -31.8562 -31.7913
   -31.7503 -31.7419 -31.7226 -31.7194 -31.7156 -31.7108 -31.6290 -31.6245
   -18.7484  -7.0050  -3.7058  -3.3974  -2.9887  -2.7995  -1.5265  -1.3819
    -0.7181  -0.7039  -0.4906  -0.3943  -0.3441  -0.3177   0.4917   0.5595
     0.7454   0.7613   0.7769   0.8393   1.2047   1.2466   1.2909   1.3251
     1.4497   1.4705   1.7530   1.8413   1.8939   1.9913   2.0389   2.1542
     2.2173   2.2695   2.2985   2.7495   2.8687   2.8715   2.9252   3.0240
     3.1316   3.8136   3.8333

     the Fermi energy is     2.6235 ev

!    total energy              =   -1752.19539245 Ry
     Harris-Foulkes estimate   =   -1752.19540774 Ry
     estimated scf accuracy    <       0.00000306 Ry

     The total energy is the sum of the following terms:

     one-electron contribution =  -11852.53430506 Ry
     hartree contribution      =    5914.15046469 Ry
     xc contribution           =    -531.08994852 Ry
     ewald contribution        =    4717.37989167 Ry
     electric field correction =       0.00047828 Ry
     smearing contrib. (-TS)   =      -0.10197350 Ry

     convergence has been achieved in   9 iterations
 
 BEEF-vdW xc energy contributions
           1 :   -467.388462740416     
           2 :    431.163191743456     
           3 :   -367.986971226369     
           4 :    292.556826471949     
           5 :   -219.561358799038     
           6 :    159.164340265119     
           7 :   -114.996644238430     
           8 :    85.0001622738734     
           9 :   -64.2160977061956     
          10 :    47.8818418480669     
          11 :   -33.3835129944015     
          12 :    20.4738579055630     
          13 :   -10.1647713960072     
          14 :    3.27699721903588     
          15 :   0.438157813218368     
          16 :   -2.23596585643554     
          17 :    3.62715903013100     
          18 :   -5.53956470973259     
          19 :    7.92229246920169     
          20 :   -9.97510257010845     
          21 :    10.7992883746648     
          22 :   -10.0450544919719     
          23 :    8.16895117877721     
          24 :   -6.17907775256299     
          25 :    5.05682224599275     
          26 :   -5.22004440006026     
          27 :    6.33943629308277     
          28 :   -7.59037669667964     
          29 :    8.16013221661552     
          30 :   -7.69785151441272     
          31 :   -41.8790250176256     
          32 :   -31.0267769261097     

     Forces acting on atoms (Ry/au):


     negative rho (up, down):  1.178E+00 0.000E+00
     atom    1 type  1   force =     0.00001421   -0.00000027    0.00502296
     atom    2 type  1   force =    -0.00001743    0.00140771    0.00428236
     atom    3 type  1   force =     0.00121626   -0.00072085    0.00428102
     atom    4 type  1   force =    -0.00121916   -0.00070204    0.00428050
     atom    5 type  1   force =     0.00431907   -0.00253474    0.00148335
     atom    6 type  1   force =    -0.00431097   -0.00250896    0.00146120
     atom    7 type  1   force =     0.00002497    0.00003790   -0.00022129
     atom    8 type  1   force =    -0.00001672    0.00501420    0.00149607
     atom    9 type  1   force =    -0.02290557   -0.01322861    0.02141748
     atom   10 type  1   force =     0.02290029   -0.01320490    0.02140078
     atom   11 type  1   force =     0.00001693    0.02643640    0.02139770
     atom   12 type  1   force =    -0.00001961   -0.00001343   -0.03977636
     atom   13 type  2   force =    -0.00000118    0.00002005    0.05084433
     atom   14 type  3   force =    -0.00000110   -0.00000246   -0.09737011

     Total force =     0.130844     Total SCF correction =     0.001563


     entering subroutine stress ...


     negative rho (up, down):  1.178E+00 0.000E+00
          total   stress  (Ry/bohr**3)                   (kbar)     P=  -33.53
  -0.00027047  -0.00000000   0.00000000        -39.79     -0.00      0.00
  -0.00000000  -0.00027046  -0.00000001         -0.00    -39.79     -0.00
   0.00000000  -0.00000001  -0.00014279          0.00     -0.00    -21.01


     number of scf cycles    =   2
     number of bfgs steps    =   1

     energy   old            =   -1752.1877579879 Ry
     energy   new            =   -1752.1953924470 Ry

     CASE: energy  _new < energy  _old

     new trust radius        =       0.0570939645 bohr
     new conv_thr            =       0.0000001000 Ry


ATOMIC_POSITIONS (crystal)
Ta1      0.166666667   0.166666667   0.401991699    0   0   0
Ta1      0.666666667   0.166666667   0.401991699    0   0   0
Ta1      0.166666667   0.666666667   0.401991699    0   0   0
Ta1      0.666666667   0.666666667   0.401991699    0   0   0
Ta1      0.833333333   0.333333333   0.500000000    0   0   0
Ta1      0.333333333   0.333333333   0.500000000    0   0   0
Ta1      0.833333333   0.833333333   0.500000000    0   0   0
Ta1      0.333333333   0.833333333   0.500000000    0   0   0
Ta1     -0.003570040  -0.003572589   0.599373119
Ta1      0.507142163  -0.003572442   0.599372868
Ta1     -0.003570537   0.507141794   0.599373173
Ta1      0.499999170   0.500000089   0.595947330
O1       0.166664517   0.166671656   0.656976373
H1       0.166666732   0.166666447   0.697654621



     Writing output data file calc.save
     Check: negative starting charge=   -1.123095
     NEW-OLD atomic charge density approx. for the potential
     Check: negative starting charge=   -1.123234

     negative rho (up, down):  1.179E+00 0.000E+00
 
     Adding external electric field

     Computed dipole along edir(3) : 
        Dipole                0.4443 Ry au,          1.1293 Debye
        Dipole field          0.0011 Ry au
 
        Potential amp.       -0.0987 Ry
        Total length         45.8339 bohr
 

     total cpu time spent up to now is      973.8 secs

     per-process dynamical memory:   168.1 Mb

     Self-consistent Calculation

     iteration #  1     ecut=    36.75 Ry     beta=0.30
     Davidson diagonalization with overlap
     ethr =  1.00E-06,  avg # of iterations =  8.0

     negative rho (up, down):  1.179E+00 0.000E+00
 
     Adding external electric field

     Computed dipole along edir(3) : 
        Dipole                0.4922 Ry au,          1.2512 Debye
        Dipole field          0.0012 Ry au
 
        Potential amp.       -0.1094 Ry
        Total length         45.8339 bohr
 

     total cpu time spent up to now is     1013.9 secs

     total energy              =   -1752.20537299 Ry
     Harris-Foulkes estimate   =   -1752.20631786 Ry
     estimated scf accuracy    <       0.00273273 Ry

     iteration #  2     ecut=    36.75 Ry     beta=0.30
     Davidson diagonalization with overlap
     ethr =  1.68E-06,  avg # of iterations =  6.0

     negative rho (up, down):  1.179E+00 0.000E+00
 
     Adding external electric field

     Computed dipole along edir(3) : 
        Dipole                0.4155 Ry au,          1.0561 Debye
        Dipole field          0.0010 Ry au
 
        Potential amp.       -0.0923 Ry
        Total length         45.8339 bohr
 

     total cpu time spent up to now is     1047.0 secs

     total energy              =   -1752.20170682 Ry
     Harris-Foulkes estimate   =   -1752.20943560 Ry
     estimated scf accuracy    <       0.24955075 Ry

     iteration #  3     ecut=    36.75 Ry     beta=0.30
     Davidson diagonalization with overlap
     ethr =  1.68E-06,  avg # of iterations =  5.3

     negative rho (up, down):  1.179E+00 0.000E+00
 
     Adding external electric field

     Computed dipole along edir(3) : 
        Dipole                0.4478 Ry au,          1.1381 Debye
        Dipole field          0.0011 Ry au
 
        Potential amp.       -0.0995 Ry
        Total length         45.8339 bohr
 

     total cpu time spent up to now is     1079.6 secs

     total energy              =   -1752.20452401 Ry
     Harris-Foulkes estimate   =   -1752.20717222 Ry
     estimated scf accuracy    <       0.08217219 Ry

     iteration #  4     ecut=    36.75 Ry     beta=0.30
     Davidson diagonalization with overlap
     ethr =  1.68E-06,  avg # of iterations =  5.1

     negative rho (up, down):  1.179E+00 0.000E+00
 
     Adding external electric field

     Computed dipole along edir(3) : 
        Dipole                0.4491 Ry au,          1.1416 Debye
        Dipole field          0.0011 Ry au
 
        Potential amp.       -0.0998 Ry
        Total length         45.8339 bohr
 

     total cpu time spent up to now is     1111.9 secs

     total energy              =   -1752.20596987 Ry
     Harris-Foulkes estimate   =   -1752.20612399 Ry
     estimated scf accuracy    <       0.00167832 Ry

     iteration #  5     ecut=    36.75 Ry     beta=0.30
     Davidson diagonalization with overlap
     ethr =  1.03E-06,  avg # of iterations =  1.6

     negative rho (up, down):  1.179E+00 0.000E+00
 
     Adding external electric field

[...]
   -32.3482 -32.3270 -32.3181 -32.2801 -32.2435 -32.2411 -32.1826 -32.1600
   -32.1477 -32.0765 -32.0320 -31.9809 -31.9626 -31.9281 -31.9096 -31.8911
   -31.8765 -31.8550 -31.8064 -31.8019 -31.7768 -31.7674 -31.7626 -31.7131
   -31.7086 -31.6981 -31.6865 -31.6449 -31.6186 -31.5975 -31.5627 -31.5522
   -19.4533  -7.5384  -4.2422  -3.9069  -3.8596  -2.3772  -1.6397  -1.5908
    -1.3467  -0.9482  -0.9289  -0.8219  -0.6369  -0.1759  -0.1011   0.0438
     0.0969   0.2183   0.3206   0.9579   0.9826   1.1801   1.5950   1.7329
     1.8296   1.9702   1.9925   2.1182   2.2299   2.5430   2.5617   2.6127
     2.6481   2.7205   2.7514   2.9188   3.0157   3.1567   3.1706   3.2268
     3.4519   3.4637   3.5431

          k = 0.0558-0.0322 0.0000 ( 19517 PWs)   bands (ev):

   -65.8338 -65.7979 -65.7904 -65.6722 -65.6425 -65.6276 -65.6274 -65.5894
   -65.5649 -65.5492 -65.5424 -65.4673 -32.5530 -32.3875 -32.3806 -32.3722
   -32.3272 -32.3159 -32.3028 -32.2583 -32.2475 -32.2054 -32.1807 -32.1492
   -32.1491 -32.0851 -32.0355 -31.9981 -31.9662 -31.9399 -31.9077 -31.8951
   -31.8769 -31.8602 -31.8552 -31.8019 -31.7939 -31.7806 -31.7555 -31.7428
   -31.7254 -31.7141 -31.6735 -31.6514 -31.6286 -31.6046 -31.5640 -31.5504
   -19.4518  -7.5234  -4.1810  -3.8868  -3.7388  -2.2218  -2.0337  -1.2031
    -1.0601  -0.9557  -0.9170  -0.6312  -0.6312  -0.2415   0.1100   0.2140
     0.2251   0.3403   0.4737   0.9626   1.0174   1.1596   1.4425   1.6136
     1.7236   1.7665   1.9000   2.0725   2.2137   2.3501   2.5006   2.5695
     2.5944   2.6185   2.6598   2.8349   2.9436   2.9609   3.0306   3.2525
     3.3711   3.5276   3.5351

          k = 0.0558 0.0000 0.0000 ( 19485 PWs)   bands (ev):

   -65.8353 -65.7964 -65.7905 -65.6756 -65.6352 -65.6348 -65.6240 -65.5922
   -65.5623 -65.5498 -65.5415 -65.4673 -32.5707 -32.4085 -32.3986 -32.3832
   -32.3482 -32.3270 -32.3181 -32.2801 -32.2435 -32.2411 -32.1826 -32.1600
   -32.1477 -32.0765 -32.0320 -31.9809 -31.9626 -31.9281 -31.9096 -31.8911
   -31.8765 -31.8550 -31.8064 -31.8019 -31.7768 -31.7674 -31.7626 -31.7131
   -31.7086 -31.6981 -31.6865 -31.6449 -31.6186 -31.5975 -31.5627 -31.5522
   -19.4533  -7.5384  -4.2422  -3.9069  -3.8596  -2.3772  -1.6397  -1.5908
    -1.3467  -0.9482  -0.9289  -0.8219  -0.6369  -0.1759  -0.1011   0.0438
     0.0969   0.2183   0.3206   0.9579   0.9826   1.1801   1.5950   1.7329
     1.8296   1.9702   1.9925   2.1182   2.2299   2.5430   2.5617   2.6127
     2.6481   2.7205   2.7514   2.9188   3.0157   3.1567   3.1706   3.2268
     3.4519   3.4637   3.5431

          k = 0.0558 0.0322 0.0000 ( 19517 PWs)   bands (ev):

   -65.8337 -65.7979 -65.7904 -65.6722 -65.6425 -65.6276 -65.6274 -65.5894
   -65.5649 -65.5492 -65.5424 -65.4673 -32.5530 -32.3875 -32.3806 -32.3722
   -32.3272 -32.3159 -32.3028 -32.2583 -32.2475 -32.2054 -32.1807 -32.1492
   -32.1491 -32.0851 -32.0355 -31.9981 -31.9662 -31.9399 -31.9077 -31.8951
   -31.8769 -31.8602 -31.8552 -31.8019 -31.7939 -31.7806 -31.7555 -31.7428
   -31.7254 -31.7141 -31.6735 -31.6514 -31.6286 -31.6046 -31.5640 -31.5504
   -19.4518  -7.5234  -4.1810  -3.8868  -3.7388  -2.2218  -2.0337  -1.2031
    -1.0601  -0.9557  -0.9170  -0.6312  -0.6312  -0.2415   0.1100   0.2140
     0.2251   0.3403   0.4737   0.9626   1.0174   1.1596   1.4425   1.6136
     1.7236   1.7665   1.9000   2.0725   2.2137   2.3501   2.5006   2.5695
     2.5944   2.6185   2.6598   2.8349   2.9436   2.9609   3.0306   3.2525
     3.3711   3.5276   3.5351

          k = 0.0558-0.1289 0.0000 ( 19521 PWs)   bands (ev):

   -65.8301 -65.8011 -65.7906 -65.6628 -65.6479 -65.6370 -65.6220 -65.5823
   -65.5684 -65.5550 -65.5404 -65.4672 -32.5060 -32.3633 -32.3344 -32.3238
   -32.3005 -32.2791 -32.2545 -32.2194 -32.2013 -32.1905 -32.1783 -32.1491
   -32.1350 -32.0950 -32.0674 -32.0186 -32.0006 -31.9587 -31.9498 -31.9157
   -31.8961 -31.8746 -31.8502 -31.8442 -31.8171 -31.7999 -31.7773 -31.7486
   -31.7407 -31.7172 -31.6927 -31.6702 -31.6357 -31.6239 -31.5794 -31.5575
   -19.4490  -7.4934  -4.1214  -3.8841  -3.2258  -2.3255  -1.6695  -1.4853
    -1.0380  -0.6411  -0.5727  -0.3202  -0.1773  -0.0121   0.3397   0.4526
     0.5730   0.6080   0.7184   0.9479   1.0450   1.1188   1.2122   1.3339
     1.4462   1.5288   1.6107   1.7878   1.8369   1.9226   2.0462   2.1465
     2.2678   2.3675   2.5059   2.5878   2.7594   2.9711   3.1021   3.2760
     3.4787   3.6155   3.7335

          k = 0.0558-0.0967 0.0000 ( 19521 PWs)   bands (ev):

   -65.8281 -65.8028 -65.7909 -65.6503 -65.6500 -65.6494 -65.6200 -65.5768
   -65.5692 -65.5612 -65.5390 -65.4672 -32.4696 -32.3668 -32.3001 -32.2851
   -32.2701 -32.2576 -32.2307 -32.2177 -32.1994 -32.1822 -32.1643 -32.1598
   -32.1005 -32.0909 -32.0791 -32.0325 -32.0231 -32.0174 -31.9603 -31.9301
   -31.9176 -31.8983 -31.8943 -31.8339 -31.8024 -31.7977 -31.7492 -31.7417
   -31.7393 -31.7334 -31.6897 -31.6814 -31.6803 -31.6192 -31.6121 -31.5537
   -19.4476  -7.4783  -4.0976  -3.8944  -2.4852  -2.3947  -2.2944  -1.0866
    -0.9656  -0.8737   0.0329   0.1335   0.1494   0.2234   0.2547   0.4089
     0.6841   0.8280   0.8624   0.9037   0.9354   0.9838   1.0510   1.0762
     1.1773   1.3262   1.3832   1.6533   1.8028   1.8303   1.8525   1.9311
     2.0176   2.0785   2.3898   2.4514   2.5758   3.3026   3.3174   3.4557
     3.5340   3.6038   3.8260

          k = 0.0558-0.0645 0.0000 ( 19521 PWs)   bands (ev):

   -65.8301 -65.8011 -65.7906 -65.6628 -65.6479 -65.6370 -65.6220 -65.5823
   -65.5684 -65.5550 -65.5404 -65.4672 -32.5060 -32.3633 -32.3344 -32.3238
   -32.3005 -32.2791 -32.2545 -32.2194 -32.2013 -32.1905 -32.1783 -32.1491
   -32.1350 -32.0950 -32.0674 -32.0186 -32.0006 -31.9587 -31.9498 -31.9157
   -31.8961 -31.8746 -31.8502 -31.8442 -31.8171 -31.7999 -31.7773 -31.7486
   -31.7407 -31.7172 -31.6927 -31.6702 -31.6357 -31.6239 -31.5794 -31.5575
   -19.4490  -7.4934  -4.1214  -3.8841  -3.2258  -2.3255  -1.6695  -1.4853
    -1.0380  -0.6411  -0.5727  -0.3202  -0.1773  -0.0121   0.3397   0.4526
     0.5730   0.6080   0.7184   0.9479   1.0450   1.1188   1.2122   1.3339
     1.4462   1.5288   1.6107   1.7878   1.8369   1.9226   2.0462   2.1465
     2.2678   2.3675   2.5059   2.5878   2.7594   2.9711   3.1021   3.2760
     3.4787   3.6155   3.7335

          k =-0.0837 0.0483 0.0000 ( 19532 PWs)   bands (ev):

   -65.8301 -65.8014 -65.7904 -65.6576 -65.6570 -65.6276 -65.6274 -65.5804
   -65.5726 -65.5507 -65.5424 -65.4672 -32.5112 -32.3481 -32.3435 -32.3301
   -32.3070 -32.2868 -32.2454 -32.2148 -32.2029 -32.1961 -32.1746 -32.1526
   -32.1320 -32.0837 -32.0567 -31.9926 -31.9831 -31.9741 -31.9329 -31.9205
   -31.8943 -31.8667 -31.8609 -31.8556 -31.8377 -31.8317 -31.8070 -31.7603
   -31.7237 -31.7113 -31.7016 -31.6484 -31.6425 -31.6113 -31.5635 -31.5620
   -19.4490  -7.4935  -4.1351  -3.8658  -2.9959  -2.8446  -1.5331  -1.3334
    -0.7400  -0.7049  -0.4741  -0.4114  -0.3949  -0.2740   0.3826   0.5289
     0.6784   0.7172   0.7658   0.9010   1.1246   1.1973   1.2623   1.3003
     1.4318   1.5086   1.6789   1.7866   1.9325   1.9736   2.0441   2.0697
     2.2105   2.3054   2.3972   2.6591   2.8721   2.8925   2.9754   3.1464
     3.3746   3.6942   3.9395

          k =-0.0837 0.0806 0.0000 ( 19521 PWs)   bands (ev):

   -65.8301 -65.8011 -65.7906 -65.6628 -65.6479 -65.6370 -65.6220 -65.5823
   -65.5684 -65.5550 -65.5404 -65.4672 -32.5060 -32.3633 -32.3344 -32.3238
   -32.3005 -32.2791 -32.2545 -32.2194 -32.2013 -32.1905 -32.1783 -32.1491
   -32.1350 -32.0950 -32.0674 -32.0186 -32.0006 -31.9587 -31.9498 -31.9157
   -31.8961 -31.8746 -31.8502 -31.8442 -31.8171 -31.7999 -31.7773 -31.7486
   -31.7407 -31.7172 -31.6927 -31.6702 -31.6357 -31.6239 -31.5794 -31.5575
   -19.4490  -7.4934  -4.1214  -3.8841  -3.2258  -2.3255  -1.6695  -1.4853
    -1.0380  -0.6411  -0.5727  -0.3202  -0.1773  -0.0121   0.3397   0.4526
     0.5730   0.6080   0.7184   0.9479   1.0450   1.1188   1.2122   1.3339
     1.4462   1.5288   1.6107   1.7878   1.8369   1.9226   2.0462   2.1465
     2.2678   2.3675   2.5059   2.5878   2.7594   2.9711   3.1021   3.2760
     3.4787   3.6155   3.7335

          k =-0.0837 0.1128 0.0000 ( 19521 PWs)   bands (ev):

   -65.8301 -65.8011 -65.7906 -65.6628 -65.6479 -65.6370 -65.6220 -65.5823
   -65.5684 -65.5550 -65.5404 -65.4672 -32.5060 -32.3633 -32.3344 -32.3238
   -32.3005 -32.2791 -32.2545 -32.2194 -32.2013 -32.1905 -32.1783 -32.1491
   -32.1350 -32.0950 -32.0674 -32.0186 -32.0006 -31.9587 -31.9498 -31.9157
   -31.8961 -31.8746 -31.8502 -31.8442 -31.8171 -31.7999 -31.7773 -31.7486
   -31.7407 -31.7172 -31.6927 -31.6702 -31.6357 -31.6239 -31.5794 -31.5575
   -19.4490  -7.4934  -4.1214  -3.8841  -3.2258  -2.3255  -1.6695  -1.4853
    -1.0380  -0.6411  -0.5727  -0.3202  -0.1773  -0.0121   0.3397   0.4526
     0.5730   0.6080   0.7184   0.9479   1.0450   1.1188   1.2122   1.3339
     1.4462   1.5288   1.6107   1.7878   1.8369   1.9226   2.0462   2.1465
     2.2678   2.3675   2.5059   2.5878   2.7594   2.9711   3.1021   3.2760
     3.4787   3.6155   3.7335

          k =-0.0837-0.0483 0.0000 ( 19532 PWs)   bands (ev):

   -65.8301 -65.8014 -65.7904 -65.6576 -65.6570 -65.6276 -65.6274 -65.5804
   -65.5726 -65.5507 -65.5424 -65.4672 -32.5112 -32.3481 -32.3435 -32.3301
   -32.3070 -32.2868 -32.2454 -32.2148 -32.2029 -32.1961 -32.1746 -32.1526
   -32.1319 -32.0837 -32.0567 -31.9926 -31.9831 -31.9741 -31.9329 -31.9205
   -31.8943 -31.8667 -31.8609 -31.8556 -31.8377 -31.8317 -31.8070 -31.7603
   -31.7237 -31.7113 -31.7016 -31.6484 -31.6425 -31.6113 -31.5635 -31.5620
   -19.4490  -7.4935  -4.1351  -3.8658  -2.9959  -2.8446  -1.5331  -1.3334
    -0.7400  -0.7049  -0.4741  -0.4114  -0.3949  -0.2740   0.3826   0.5289
     0.6784   0.7172   0.7659   0.9010   1.1246   1.1973   1.2623   1.3003
     1.4318   1.5086   1.6789   1.7866   1.9325   1.9736   2.0441   2.0697
     2.2105   2.3054   2.3972   2.6591   2.8721   2.8925   2.9754   3.1464
     3.3746   3.6942   3.9395

     the Fermi energy is     2.6302 ev

!    total energy              =   -1752.22231080 Ry
     Harris-Foulkes estimate   =   -1752.22231062 Ry
     estimated scf accuracy    <       0.00000004 Ry

     The total energy is the sum of the following terms:

     one-electron contribution =  -11938.53827271 Ry
     hartree contribution      =    5957.17271988 Ry
     xc contribution           =    -531.28769817 Ry
     ewald contribution        =    4760.52879053 Ry
     electric field correction =       0.00049893 Ry
     smearing contrib. (-TS)   =      -0.09834926 Ry

     convergence has been achieved in   9 iterations
 
 BEEF-vdW xc energy contributions
           1 :   -467.583065869655     
           2 :    431.392328823508     
           3 :   -368.248491112215     
           4 :    292.805345737758     
           5 :   -219.733675181510     
           6 :    159.217110239473     
           7 :   -114.933553030712     
           8 :    84.8730211571481     
           9 :   -64.0987333624869     
          10 :    47.8308237645061     
          11 :   -33.4081688057079     
          12 :    20.5337122551712     
          13 :   -10.1952112242642     
          14 :    3.22728784497923     
          15 :   0.575479365885599     
          16 :   -2.42083567861039     
          17 :    3.79682139069519     
          18 :   -5.64682056226968     
          19 :    7.96225330260563     
          20 :   -9.98566771765672     
          21 :    10.8363185879548     
          22 :   -10.1468042419838     
          23 :    8.33209042368986     
          24 :   -6.36133696752290     
          25 :    5.20309115853723     
          26 :   -5.29501442348180     
          27 :    6.34794763252501     
          28 :   -7.57377879291175     
          29 :    8.17115295017538     
          30 :   -7.77047644234506     
          31 :   -41.8910772927104     
          32 :   -31.0443084362959     

     Forces acting on atoms (Ry/au):


     negative rho (up, down):  1.179E+00 0.000E+00
     atom    1 type  1   force =     0.00000006    0.00000005    0.00653442
     atom    2 type  1   force =    -0.00000002    0.00016120    0.00426615
     atom    3 type  1   force =     0.00013958   -0.00008062    0.00426617
     atom    4 type  1   force =    -0.00013956   -0.00008059    0.00426605
     atom    5 type  1   force =     0.02288633   -0.01321363   -0.00848702
     atom    6 type  1   force =    -0.02288620   -0.01321325   -0.00848558
     atom    7 type  1   force =     0.00000020   -0.00000001    0.00618026
     atom    8 type  1   force =    -0.00000024    0.02642688   -0.00848685
     atom    9 type  1   force =     0.00119470    0.00068951    0.00038225
     atom   10 type  1   force =    -0.00119611    0.00069255    0.00038216
     atom   11 type  1   force =     0.00000198   -0.00138202    0.00038149
     atom   12 type  1   force =    -0.00000160   -0.00000066   -0.00001086
     atom   13 type  2   force =     0.00000116    0.00000112   -0.00110349
     atom   14 type  3   force =    -0.00000028   -0.00000053   -0.00008514

     Total force =     0.002718     Total SCF correction =     0.000282
     SCF correction compared to forces is large: reduce conv_thr to get better values


     entering subroutine stress ...


     negative rho (up, down):  1.179E+00 0.000E+00
          total   stress  (Ry/bohr**3)                   (kbar)     P=  -26.14
  -0.00023332   0.00000000   0.00000000        -34.32      0.00      0.00
   0.00000000  -0.00023332   0.00000000          0.00    -34.32      0.00
   0.00000000   0.00000000  -0.00006639          0.00      0.00     -9.77


     bfgs converged in  15 scf cycles and  14 bfgs steps
     (criteria: energy <  1.0E+00, force <  1.9E-03)

     End of BFGS Geometry Optimization

     Final energy   =   -1752.2223107996 Ry
Begin final coordinates

ATOMIC_POSITIONS (crystal)
Ta1      0.166666667   0.166666667   0.401991699    0   0   0
Ta1      0.666666667   0.166666667   0.401991699    0   0   0
Ta1      0.166666667   0.666666667   0.401991699    0   0   0
Ta1      0.666666667   0.666666667   0.401991699    0   0   0
Ta1      0.833333333   0.333333333   0.500000000    0   0   0
Ta1      0.333333333   0.333333333   0.500000000    0   0   0
Ta1      0.833333333   0.833333333   0.500000000    0   0   0
Ta1      0.333333333   0.833333333   0.500000000    0   0   0
Ta1     -0.007687317  -0.007687095   0.599680265
Ta1      0.515374350  -0.007688060   0.599680337
Ta1     -0.007688243   0.515374350   0.599680370
Ta1      0.500000360   0.500000089   0.588753452
O1       0.166666220   0.166665857   0.652471427
H1       0.166665795   0.166667947   0.691630566
End final coordinates



     Writing output data file calc.save
 
     init_run     :     17.04s CPU     17.56s WALL (       1 calls)
     electrons    :   5682.94s CPU   5898.95s WALL (      15 calls)
     update_pot   :     46.57s CPU     49.29s WALL (      14 calls)
     forces       :    436.80s CPU    459.42s WALL (      15 calls)
     stress       :   1418.31s CPU   1447.25s WALL (      15 calls)

     Called by init_run:
     wfcinit      :      5.77s CPU      5.88s WALL (       1 calls)
     potinit      :      2.13s CPU      2.28s WALL (       1 calls)

     Called by electrons:
     c_bands      :   1778.83s CPU   1838.93s WALL (     153 calls)
     sum_band     :   1437.74s CPU   1475.72s WALL (     153 calls)
     v_of_rho     :    254.64s CPU    281.22s WALL (     164 calls)
     newd         :   1596.60s CPU   1609.36s WALL (     164 calls)
     mix_rho      :      9.53s CPU      9.75s WALL (     153 calls)
     vdW_energy   :    158.75s CPU    175.38s WALL (     704 calls)
     vdW_ffts     :    404.80s CPU    429.73s WALL (    1438 calls)
     vdW_v        :    152.62s CPU    157.79s WALL (     704 calls)

     Called by c_bands:
     init_us_2    :     15.67s CPU     15.72s WALL (    1685 calls)
     cegterg      :   1608.72s CPU   1641.78s WALL (     765 calls)

     Called by *egterg:
     h_psi        :   1078.61s CPU   1105.09s WALL (    3848 calls)
     s_psi        :    123.39s CPU    123.64s WALL (    3848 calls)
     g_psi        :      5.60s CPU      5.67s WALL (    3078 calls)
     cdiaghg      :    126.22s CPU    127.18s WALL (    3753 calls)

     Called by h_psi:
     add_vuspsi   :    125.40s CPU    125.60s WALL (    3848 calls)

     General routines
     calbec       :    196.95s CPU    200.56s WALL (    4763 calls)
     fft          :    656.08s CPU    726.68s WALL (   42399 calls)
     ffts         :      0.65s CPU      0.70s WALL (     317 calls)
     fftw         :    630.17s CPU    658.03s WALL (  429607 calls)
     interpolate  :      6.21s CPU      6.41s WALL (     317 calls)
     davcio       :      0.00s CPU      0.03s WALL (       5 calls)
 
     Parallel routines
     fft_scatter  :    777.39s CPU    873.10s WALL (  472323 calls)
 
     PWSCF        :     2h 9m CPU        2h13m WALL

 
   This run was terminated on:  10: 7:24  23Apr2018            

=------------------------------------------------------------------------------=
   JOB DONE.
=------------------------------------------------------------------------------=
Job  /afs/slac/g/suncat/bin/suncat-tsmpirun -x LD_LIBRARY_PATH -wdir /scratch/qe459726_fbAfn pw.x -npool 4 -in pw.inp

TID   HOST_NAME   COMMAND_LINE            STATUS            TERMINATION_TIME
===== ========== ================  =======================  ===================
00000 suncat0132 pw.x -npool 4 -i  Done                     04/23/2018 10:07:24
00001 suncat0132 pw.x -npool 4 -i  Done                     04/23/2018 10:07:24
00002 suncat0132 pw.x -npool 4 -i  Done                     04/23/2018 10:07:24
00003 suncat0132 pw.x -npool 4 -i  Done                     04/23/2018 10:07:24
00004 suncat0132 pw.x -npool 4 -i  Done                     04/23/2018 10:07:24
00005 suncat0132 pw.x -npool 4 -i  Done                     04/23/2018 10:07:24
00006 suncat0132 pw.x -npool 4 -i  Done                     04/23/2018 10:07:24
00007 suncat0132 pw.x -npool 4 -i  Done                     04/23/2018 10:07:24
00008 suncat0272 pw.x -npool 4 -i  Done                     04/23/2018 10:07:24
00009 suncat0272 pw.x -npool 4 -i  Done                     04/23/2018 10:07:24
00010 suncat0272 pw.x -npool 4 -i  Done                     04/23/2018 10:07:24
00011 suncat0272 pw.x -npool 4 -i  Done                     04/23/2018 10:07:24
00012 suncat0272 pw.x -npool 4 -i  Done                     04/23/2018 10:07:24
00013 suncat0272 pw.x -npool 4 -i  Done                     04/23/2018 10:07:24
00014 suncat0272 pw.x -npool 4 -i  Done                     04/23/2018 10:07:24
00015 suncat0272 pw.x -npool 4 -i  Done                     04/23/2018 10:07:24
00016 suncat0267 pw.x -npool 4 -i  Done                     04/23/2018 10:07:24
00017 suncat0267 pw.x -npool 4 -i  Done                     04/23/2018 10:07:24
00018 suncat0267 pw.x -npool 4 -i  Done                     04/23/2018 10:07:24
00019 suncat0267 pw.x -npool 4 -i  Done                     04/23/2018 10:07:24
00020 suncat0267 pw.x -npool 4 -i  Done                     04/23/2018 10:07:24
00021 suncat0267 pw.x -npool 4 -i  Done                     04/23/2018 10:07:24
00022 suncat0267 pw.x -npool 4 -i  Done                     04/23/2018 10:07:24
00023 suncat0267 pw.x -npool 4 -i  Done                     04/23/2018 10:07:24
00024 suncat0244 pw.x -npool 4 -i  Done                     04/23/2018 10:07:24
00025 suncat0244 pw.x -npool 4 -i  Done                     04/23/2018 10:07:24
00026 suncat0244 pw.x -npool 4 -i  Done                     04/23/2018 10:07:24
00027 suncat0244 pw.x -npool 4 -i  Done                     04/23/2018 10:07:24
00028 suncat0244 pw.x -npool 4 -i  Done                     04/23/2018 10:07:24
00029 suncat0244 pw.x -npool 4 -i  Done                     04/23/2018 10:07:24
00030 suncat0244 pw.x -npool 4 -i  Done                     04/23/2018 10:07:24
00031 suncat0244 pw.x -npool 4 -i  Done                     04/23/2018 10:07:24
