  python dir          : /home/users/mamunm/src/espresso
  espresso dir        : /home/users/vossj/suncat/s2/qe5/bin
  pseudo dir          : /home/users/mamunm/src/pseudo/gbrv1.5pbe
  ase-espresso py git : GITVERSION



     Program PWSCF v.5.1rc2 starts on 16Jul2018 at 10:59:20 

     This program is part of the open-source Quantum ESPRESSO suite
     for quantum simulation of materials; please cite
         "P. Giannozzi et al., J. Phys.:Condens. Matter 21 395502 (2009);
          URL http://www.quantum-espresso.org", 
     in publications or presentations arising from this work. More details at
     http://www.quantum-espresso.org/quote

     Parallel version (MPI), running on    20 processors
     R & G space division:  proc/nbgrp/npool/nimage =      20
     Reading input from pw.inp
     Message from routine read_cards :
     DEPRECATED: no units specified in CELL_PARAMETERS card

     Current dimensions of program PWSCF are:
     Max number of different atomic species (ntypx) = 10
     Max number of k-points (npk) =  40000
     Max angular momentum in pseudopotentials (lmaxx) =  3
     Presently stress not available with electric field


     **************************************************************************
     Initializing libbeef V0.1.2 with the BEEF-vdW functional.
     Citation: Wellendorff et al., PRB 85, 235149 (2012).
     **************************************************************************


     IMPORTANT: XC functional enforced from input :
     Exchange-correlation      = BEEF-VDW ( 1  4 27 13 2)
     Any further DFT definition will be discarded
     Please, verify this is what you really want


     Subspace diagonalization in iterative solution of the eigenvalue problem:
     scalapack distributed-memory algorithm (size of sub-group:  3*  3 procs)

 
     Parallelization info
     --------------------
     sticks:   dense  smooth     PW     G-vecs:    dense   smooth      PW
     Min         119      47     14                22279     5617     906
     Max         120      48     15                22306     5658     921
     Sum        2395     955    283               445881   112839   18187
 
     Generating pointlists ...
     new r_m :   0.4125 (alat units)  0.7795 (a.u.) for type    1
     new r_m :   0.4125 (alat units)  0.7795 (a.u.) for type    2
     new r_m :   0.4125 (alat units)  0.7795 (a.u.) for type    3


     bravais-lattice index     =            0
     lattice parameter (alat)  =       1.8897  a.u.
     unit-cell volume          =    3747.1846 (a.u.)^3
     number of atoms/cell      =           14
     number of atomic types    =            3
     number of electrons       =       187.00
     number of Kohn-Sham states=          103
     kinetic-energy cutoff     =      36.7493  Ry
     charge density cutoff     =     367.4932  Ry
     convergence threshold     =      1.0E-05
     mixing beta               =       0.3000
     number of iterations used =           10  plain     mixing
     Exchange-correlation      = BEEF-VDW ( 1  4 27 13 2)
     nstep                     =           50


     celldm(1)=   1.889726  celldm(2)=   0.000000  celldm(3)=   0.000000
     celldm(4)=   0.000000  celldm(5)=   0.000000  celldm(6)=   0.000000

     crystal axes: (cart. coord. in units of alat)
               a(1) = (   5.147050   0.000000   0.000000 )  
               a(2) = (   2.573525   4.457476   0.000000 )  
               a(3) = (   0.000000   0.000000  24.202549 )  

     reciprocal axes: (cart. coord. in units 2 pi/alat)
               b(1) = (  0.194286 -0.112171  0.000000 )  
               b(2) = (  0.000000  0.224342  0.000000 )  
               b(3) = (  0.000000  0.000000  0.041318 )  


     PseudoPot. # 1 for Mn read from file:
     /home/users/mamunm/src/pseudo/gbrv1.5pbe/Mn.UPF
     MD5 check sum: 82ef2b46521d7a7d9e736dc3972e4928
     Pseudo is Ultrasoft + core correction, Zval = 15.0
     Generated by new atomic code, or converted to UPF format
     Using radial grid of  859 points,  6 beta functions with: 
                l(1) =   0
                l(2) =   0
                l(3) =   1
                l(4) =   1
                l(5) =   2
                l(6) =   2
     Q(r) pseudized with  8 coefficients,  rinner =    0.950   0.950   0.950
                                                       0.950   0.950

     PseudoPot. # 2 for S  read from file:
     /home/users/mamunm/src/pseudo/gbrv1.5pbe/S.UPF
     MD5 check sum: 88d86576ff6df21479756cfb9bdac1df
     Pseudo is Ultrasoft + core correction, Zval =  6.0
     Generated by new atomic code, or converted to UPF format
     Using radial grid of  907 points,  6 beta functions with: 
                l(1) =   0
                l(2) =   0
                l(3) =   1
                l(4) =   1
                l(5) =   2
                l(6) =   2
     Q(r) pseudized with  8 coefficients,  rinner =    1.300   1.300   1.300
                                                       1.300   1.300

     PseudoPot. # 3 for H  read from file:
     /home/users/mamunm/src/pseudo/gbrv1.5pbe/H.UPF
     MD5 check sum: 761ae9a214b05c3daf00ab9f6b793d6f
     Pseudo is Ultrasoft, Zval =  1.0
     Generated by new atomic code, or converted to UPF format
     Using radial grid of  615 points,  2 beta functions with: 
                l(1) =   0
                l(2) =   0
     Q(r) pseudized with  8 coefficients,  rinner =    0.700

     vdW kernel table read from file vdW_kernel_table
     MD5 check sum: 095c7af220d748ca6e76c0b4c6cfb241

     atomic species   valence    mass     pseudopotential
        Mn1           15.00    54.93804     Mn( 1.00)
        S1             6.00    32.06000     S ( 1.00)
        H1             1.00     1.00800     H ( 1.00)

     Starting magnetic structure 
     atomic species   magnetization
        Mn1          0.133
        S1           0.000
        H1           0.000

     No symmetry found



   Cartesian axes

     site n.     atom                  positions (alat units)
         1           Mn1 tau(   1) = (   1.2867625   0.7429127  10.0000000  )
         2           Mn1 tau(   2) = (   3.8602874   0.7429127  10.0000000  )
         3           Mn1 tau(   3) = (   2.5735249   2.9716506  10.0000000  )
         4           Mn1 tau(   4) = (   5.1470499   2.9716506  10.0000000  )
         5           Mn1 tau(   5) = (   5.1470499   1.4858253  12.1012743  )
         6           Mn1 tau(   6) = (   2.5735249   1.4858253  12.1012743  )
         7           Mn1 tau(   7) = (   6.4338123   3.7145633  12.1012743  )
         8           Mn1 tau(   8) = (   3.8602874   3.7145633  12.1012743  )
         9           Mn1 tau(   9) = (   0.0000000   0.0000000  14.2025486  )
        10           Mn1 tau(  10) = (   2.5735249   0.0000000  14.2025486  )
        11           Mn1 tau(  11) = (   1.2867625   2.2287380  14.2025486  )
        12           Mn1 tau(  12) = (   3.8602874   2.2287380  14.2025486  )
        13           S1  tau(  13) = (   0.0000000   0.0000000  16.2765486  )
        14           H1  tau(  14) = (   0.0000000   0.0000000  17.5265486  )

     number of k points=    40  Fermi-Dirac smearing, width (Ry)=  0.0110
                       cart. coord. in units 2pi/alat
        k(    1) = (   0.0000000   0.0000000   0.0000000), wk =   0.0277778
        k(    2) = (   0.0000000   0.0373904   0.0000000), wk =   0.0555556
        k(    3) = (   0.0000000   0.0747807   0.0000000), wk =   0.0555556
        k(    4) = (   0.0000000  -0.1121711   0.0000000), wk =   0.0277778
        k(    5) = (   0.0323810  -0.0186952   0.0000000), wk =   0.0555556
        k(    6) = (   0.0323810   0.0186952   0.0000000), wk =   0.0555556
        k(    7) = (   0.0323810   0.0560856   0.0000000), wk =   0.0555556
        k(    8) = (   0.0323810  -0.1308663   0.0000000), wk =   0.0555556
        k(    9) = (   0.0323810  -0.0934759   0.0000000), wk =   0.0555556
        k(   10) = (   0.0323810  -0.0560856   0.0000000), wk =   0.0555556
        k(   11) = (   0.0647620  -0.0373904   0.0000000), wk =   0.0555556
        k(   12) = (   0.0647620  -0.0000000   0.0000000), wk =   0.0555556
        k(   13) = (   0.0647620   0.0373904   0.0000000), wk =   0.0555556
        k(   14) = (   0.0647620  -0.1495615   0.0000000), wk =   0.0555556
        k(   15) = (   0.0647620  -0.1121711   0.0000000), wk =   0.0555556
        k(   16) = (   0.0647620  -0.0747807   0.0000000), wk =   0.0555556
        k(   17) = (  -0.0971430   0.0560856   0.0000000), wk =   0.0277778
        k(   18) = (  -0.0971430   0.0934759   0.0000000), wk =   0.0555556
        k(   19) = (  -0.0971430   0.1308663   0.0000000), wk =   0.0555556
        k(   20) = (  -0.0971430  -0.0560856   0.0000000), wk =   0.0277778
        k(   21) = (   0.0000000   0.0000000   0.0000000), wk =   0.0277778
        k(   22) = (   0.0000000   0.0373904   0.0000000), wk =   0.0555556
        k(   23) = (   0.0000000   0.0747807   0.0000000), wk =   0.0555556
        k(   24) = (   0.0000000  -0.1121711   0.0000000), wk =   0.0277778
        k(   25) = (   0.0323810  -0.0186952   0.0000000), wk =   0.0555556
        k(   26) = (   0.0323810   0.0186952   0.0000000), wk =   0.0555556
        k(   27) = (   0.0323810   0.0560856   0.0000000), wk =   0.0555556
        k(   28) = (   0.0323810  -0.1308663   0.0000000), wk =   0.0555556
        k(   29) = (   0.0323810  -0.0934759   0.0000000), wk =   0.0555556
        k(   30) = (   0.0323810  -0.0560856   0.0000000), wk =   0.0555556
        k(   31) = (   0.0647620  -0.0373904   0.0000000), wk =   0.0555556
        k(   32) = (   0.0647620  -0.0000000   0.0000000), wk =   0.0555556
        k(   33) = (   0.0647620   0.0373904   0.0000000), wk =   0.0555556
        k(   34) = (   0.0647620  -0.1495615   0.0000000), wk =   0.0555556
        k(   35) = (   0.0647620  -0.1121711   0.0000000), wk =   0.0555556
        k(   36) = (   0.0647620  -0.0747807   0.0000000), wk =   0.0555556
        k(   37) = (  -0.0971430   0.0560856   0.0000000), wk =   0.0277778
        k(   38) = (  -0.0971430   0.0934759   0.0000000), wk =   0.0555556
        k(   39) = (  -0.0971430   0.1308663   0.0000000), wk =   0.0555556
        k(   40) = (  -0.0971430  -0.0560856   0.0000000), wk =   0.0277778

     Dense  grid:   445881 G-vectors     FFT dimensions: (  60,  60, 288)

     Smooth grid:   112839 G-vectors     FFT dimensions: (  40,  40, 180)

     Largest allocated arrays     est. size (Mb)     dimensions
        Kohn-Sham Wavefunctions         1.13 Mb     (     718,  103)
        NL pseudopotentials             2.59 Mb     (     718,  236)
        Each V/rho on FFT grid          1.65 Mb     (   54000,   2)
        Each G-vector array             0.17 Mb     (   22300)
        G-vector shells                 0.07 Mb     (    9306)
     Largest temporary arrays     est. size (Mb)     dimensions
        Auxiliary wavefunctions         4.51 Mb     (     718,  412)
        Each subspace H/S matrix        0.29 Mb     (     137,  137)
        Each <psi_i|beta_j> matrix      0.37 Mb     (     236,  103)
        Arrays for rho mixing           8.24 Mb     (   54000,   10)

     Check: negative/imaginary core charge=   -0.000010    0.000000

     Initial potential from superposition of free atoms
     Check: negative starting charge=(component1):   -0.001330
     Check: negative starting charge=(component2):   -0.001005

     starting charge  180.99893, renormalised to  187.00000

     negative rho (up, down):  1.374E-03 1.038E-03


     ************************************************************************
     *
     * You are using vdW-DF for exchange-correlation in this calculation.
     * Please cite the following three references that made this development
     * possible:
     *
     *   M. Dion, H. Rydberg, E. Schroder, D. C. Langreth, and
     *   B. I. Lundqvist, Phys. Rev. Lett. 92, 246401 (2004).
     *
     *   T. Thonhauser, V. R. Cooper, S. Li, A. Puzder, P. Hyldgaard, and
     *   D. C. Langreth, Phys. Rev. B 76, 125112 (2007).
     *
     *   G. Roman-Perez and J. M. Soler, Phys. Rev. Lett. 103, 096102 (2009).
     *
     *
     * If you are using vdW-DF2, please also cite:
     *
     *   K. Lee, E. D. Murray, L. Kong, B. I. Lundqvist, and
     *   D. C. Langreth, Phys. Rev. B 82, 081101(R) (2010).
     *
     *
     * If you are calculating the stress with vdW-DF, please also cite:
     *
     *   R. Sabatini, E. Kucukbenli, B. Kolb, T. Thonhauser, and
     *   S. de Gironcoli, J. Phys.: Condens. Matter 24, 424209 (2012).
     *
     ************************************************************************

     Carrying out vdW-DF run using the following parameters:

     Nqs =      20    Nr_points =    1024   r_max =   100.000
     q_mesh =
               0.00001000     0.04494208     0.09755937     0.15916263
               0.23128650     0.31572767     0.41458969     0.53033537
               0.66584808     0.82450364     1.01025438     1.22772762
               1.48234092     1.78043706     2.12944203     2.53805004
               3.01644009     3.57652955     4.23227104     5.00000000

     Gradients computed in reciprocal space

     ************************************************************************


 
     Adding external electric field

     Computed dipole along edir(3) : 
        Dipole               -1.9091 Ry au,         -4.8525 Debye
        Dipole field         -0.0064 Ry au
 
        Potential amp.        0.5710 Ry
        Total length         44.5928 bohr
 
 
     Adding external electric field

     Computed dipole along edir(3) : 
        Dipole               -1.9091 Ry au,         -4.8525 Debye
        Dipole field         -0.0064 Ry au
 
        Potential amp.        0.5710 Ry
        Total length         44.5928 bohr
 
     Starting wfc are  161 randomized atomic wfcs

     total cpu time spent up to now is        6.9 secs

     per-process dynamical memory:    49.4 Mb

     Self-consistent Calculation

     iteration #  1     ecut=    36.75 Ry     beta=0.30
     Davidson diagonalization with overlap
     ethr =  1.00E-02,  avg # of iterations =  2.0

     negative rho (up, down):  1.232E-03 9.769E-04
 
     Adding external electric field

     Computed dipole along edir(3) : 
        Dipole               34.6164 Ry au,         87.9861 Debye
        Dipole field          0.1161 Ry au
 
        Potential amp.      -10.3534 Ry
        Total length         44.5928 bohr
 
 
     Adding external electric field

     Computed dipole along edir(3) : 
        Dipole               34.6164 Ry au,         87.9861 Debye
        Dipole field          0.1161 Ry au
 
        Potential amp.      -10.3534 Ry
        Total length         44.5928 bohr
 
 
     Magnetic moment per site:
     atom:    1    charge:    6.2069    magn:    0.7530    constr:    0.0000
     atom:    2    charge:    6.2069    magn:    0.7530    constr:    0.0000
     atom:    3    charge:    6.2070    magn:    0.7530    constr:    0.0000
     atom:    4    charge:    6.2068    magn:    0.7532    constr:    0.0000
     atom:    5    charge:    6.0493    magn:    0.7359    constr:    0.0000
     atom:    6    charge:    6.0492    magn:    0.7369    constr:    0.0000
     atom:    7    charge:    6.0493    magn:    0.7359    constr:    0.0000
     atom:    8    charge:    6.0493    magn:    0.7359    constr:    0.0000
     atom:    9    charge:    5.7199    magn:    0.6533    constr:    0.0000
     atom:   10    charge:    5.6709    magn:    0.6436    constr:    0.0000
     atom:   11    charge:    5.6710    magn:    0.6437    constr:    0.0000
     atom:   12    charge:    5.6709    magn:    0.6436    constr:    0.0000
     atom:   13    charge:    0.2985    magn:   -0.0020    constr:    0.0000
     atom:   14    charge:    0.3347    magn:   -0.0012    constr:    0.0000

     total cpu time spent up to now is       20.1 secs

     total energy              =   -2460.00568925 Ry
     Harris-Foulkes estimate   =   -2571.99358825 Ry
     estimated scf accuracy    <     230.99670183 Ry

     total magnetization       =    13.89 Bohr mag/cell
     absolute magnetization    =    14.47 Bohr mag/cell

     iteration #  2     ecut=    36.75 Ry     beta=0.30
     Davidson diagonalization with overlap
     ethr =  1.00E-02,  avg # of iterations = 15.5

     negative rho (up, down):  5.171E-04 3.978E-04
 
     Adding external electric field

     Computed dipole along edir(3) : 
        Dipole               -4.9185 Ry au,        -12.5016 Debye
        Dipole field         -0.0165 Ry au
 
        Potential amp.        1.4711 Ry
        Total length         44.5928 bohr
 
 
     Adding external electric field

     Computed dipole along edir(3) : 
        Dipole               -4.9185 Ry au,        -12.5016 Debye
        Dipole field         -0.0165 Ry au
 
        Potential amp.        1.4711 Ry
        Total length         44.5928 bohr
 
 
     Magnetic moment per site:
     atom:    1    charge:    6.0608    magn:    0.7353    constr:    0.0000
     atom:    2    charge:    6.0608    magn:    0.7353    constr:    0.0000
     atom:    3    charge:    6.0608    magn:    0.7353    constr:    0.0000
     atom:    4    charge:    6.0606    magn:    0.7355    constr:    0.0000
     atom:    5    charge:    5.9319    magn:    0.7187    constr:    0.0000
     atom:    6    charge:    5.9318    magn:    0.7196    constr:    0.0000
     atom:    7    charge:    5.9319    magn:    0.7187    constr:    0.0000
     atom:    8    charge:    5.9319    magn:    0.7187    constr:    0.0000
     atom:    9    charge:    5.7896    magn:    0.6397    constr:    0.0000
     atom:   10    charge:    5.7457    magn:    0.6301    constr:    0.0000
     atom:   11    charge:    5.7458    magn:    0.6302    constr:    0.0000
     atom:   12    charge:    5.7457    magn:    0.6301    constr:    0.0000
     atom:   13    charge:    0.3112    magn:   -0.0020    constr:    0.0000
     atom:   14    charge:    0.3480    magn:   -0.0012    constr:    0.0000

     total cpu time spent up to now is       83.4 secs

     total energy              =   -2239.13160581 Ry
     Harris-Foulkes estimate   =   -3159.92823827 Ry
     estimated scf accuracy    <   19996.91725321 Ry

     total magnetization       =     1.05 Bohr mag/cell
     absolute magnetization    =     1.28 Bohr mag/cell

     iteration #  3     ecut=    36.75 Ry     beta=0.30
     Davidson diagonalization with overlap
     ethr =  1.00E-02,  avg # of iterations = 10.0

     negative rho (up, down):  6.421E-04 4.628E-04
 
     Adding external electric field

     Computed dipole along edir(3) : 
        Dipole               -1.2099 Ry au,         -3.0753 Debye
        Dipole field         -0.0041 Ry au
 
        Potential amp.        0.3619 Ry
        Total length         44.5928 bohr
 
 
     Adding external electric field

     Computed dipole along edir(3) : 
        Dipole               -1.2099 Ry au,         -3.0753 Debye
        Dipole field         -0.0041 Ry au
 
        Potential amp.        0.3619 Ry
        Total length         44.5928 bohr
 
 
     Magnetic moment per site:
     atom:    1    charge:    5.9932    magn:    0.6912    constr:    0.0000
     atom:    2    charge:    5.9932    magn:    0.6913    constr:    0.0000
     atom:    3    charge:    5.9932    magn:    0.6913    constr:    0.0000
     atom:    4    charge:    5.9930    magn:    0.6914    constr:    0.0000
     atom:    5    charge:    5.9388    magn:    0.7047    constr:    0.0000
     atom:    6    charge:    5.9436    magn:    0.7061    constr:    0.0000
     atom:    7    charge:    5.9387    magn:    0.7047    constr:    0.0000
     atom:    8    charge:    5.9386    magn:    0.7046    constr:    0.0000
     atom:    9    charge:    5.9965    magn:    0.6042    constr:    0.0000
     atom:   10    charge:    5.9631    magn:    0.5945    constr:    0.0000
     atom:   11    charge:    5.9631    magn:    0.5946    constr:    0.0000
     atom:   12    charge:    5.9631    magn:    0.5945    constr:    0.0000
     atom:   13    charge:    0.3002    magn:   -0.0016    constr:    0.0000
     atom:   14    charge:    0.3195    magn:   -0.0009    constr:    0.0000

     total cpu time spent up to now is      130.5 secs

     total energy              =   -2568.45324716 Ry
     Harris-Foulkes estimate   =   -2684.08239674 Ry
     estimated scf accuracy    <    1500.77830134 Ry

     total magnetization       =     4.85 Bohr mag/cell
     absolute magnetization    =     5.11 Bohr mag/cell

     iteration #  4     ecut=    36.75 Ry     beta=0.30
     Davidson diagonalization with overlap
     ethr =  1.00E-02,  avg # of iterations =  4.7

     negative rho (up, down):  6.278E-04 5.555E-04
 
     Adding external electric field

     Computed dipole along edir(3) : 
        Dipole               -1.7141 Ry au,         -4.3569 Debye
        Dipole field         -0.0057 Ry au
 
        Potential amp.        0.5127 Ry
        Total length         44.5928 bohr
 
 
     Adding external electric field

     Computed dipole along edir(3) : 
        Dipole               -1.7141 Ry au,         -4.3569 Debye
        Dipole field         -0.0057 Ry au
 
        Potential amp.        0.5127 Ry
        Total length         44.5928 bohr
 
 
     Magnetic moment per site:
     atom:    1    charge:    5.9630    magn:    0.6786    constr:    0.0000
     atom:    2    charge:    5.9630    magn:    0.6786    constr:    0.0000
     atom:    3    charge:    5.9630    magn:    0.6786    constr:    0.0000
     atom:    4    charge:    5.9629    magn:    0.6788    constr:    0.0000
     atom:    5    charge:    5.9976    magn:    0.7064    constr:    0.0000
     atom:    6    charge:    5.9974    magn:    0.7099    constr:    0.0000
     atom:    7    charge:    5.9976    magn:    0.7064    constr:    0.0000
     atom:    8    charge:    5.9977    magn:    0.7064    constr:    0.0000
     atom:    9    charge:    5.9942    magn:    0.5976    constr:    0.0000
     atom:   10    charge:    5.9715    magn:    0.5860    constr:    0.0000
     atom:   11    charge:    5.9716    magn:    0.5860    constr:    0.0000
     atom:   12    charge:    5.9715    magn:    0.5860    constr:    0.0000
     atom:   13    charge:    0.3018    magn:   -0.0016    constr:    0.0000
     atom:   14    charge:    0.3258    magn:   -0.0008    constr:    0.0000

     total cpu time spent up to now is      149.6 secs

     total energy              =   -2575.91306597 Ry
     Harris-Foulkes estimate   =   -2586.23056979 Ry
     estimated scf accuracy    <     625.94838256 Ry

     total magnetization       =     5.82 Bohr mag/cell
     absolute magnetization    =     6.31 Bohr mag/cell

     iteration #  5     ecut=    36.75 Ry     beta=0.30
     Davidson diagonalization with overlap
     ethr =  1.00E-02,  avg # of iterations =  3.3

     negative rho (up, down):  6.521E-04 6.918E-04
 
     Adding external electric field

     Computed dipole along edir(3) : 
        Dipole               -1.2994 Ry au,         -3.3027 Debye
        Dipole field         -0.0044 Ry au
 
        Potential amp.        0.3886 Ry
        Total length         44.5928 bohr
 
 
     Adding external electric field

     Computed dipole along edir(3) : 
        Dipole               -1.2994 Ry au,         -3.3027 Debye
        Dipole field         -0.0044 Ry au
 
        Potential amp.        0.3886 Ry
        Total length         44.5928 bohr
 
 
     Magnetic moment per site:
     atom:    1    charge:    5.9195    magn:    0.6458    constr:    0.0000
     atom:    2    charge:    5.9195    magn:    0.6459    constr:    0.0000
     atom:    3    charge:    5.9191    magn:    0.6455    constr:    0.0000
     atom:    4    charge:    5.9208    magn:    0.6490    constr:    0.0000
     atom:    5    charge:    5.9820    magn:    0.7254    constr:    0.0000
     atom:    6    charge:    5.9934    magn:    0.7190    constr:    0.0000
     atom:    7    charge:    5.9821    magn:    0.7255    constr:    0.0000
     atom:    8    charge:    5.9814    magn:    0.7255    constr:    0.0000
     atom:    9    charge:    6.0317    magn:    0.5736    constr:    0.0000
     atom:   10    charge:    6.0190    magn:    0.5580    constr:    0.0000
     atom:   11    charge:    6.0190    magn:    0.5581    constr:    0.0000
     atom:   12    charge:    6.0190    magn:    0.5580    constr:    0.0000
     atom:   13    charge:    0.3101    magn:   -0.0016    constr:    0.0000
     atom:   14    charge:    0.3444    magn:   -0.0003    constr:    0.0000

     total cpu time spent up to now is      162.0 secs

     total energy              =   -2559.85259288 Ry
     Harris-Foulkes estimate   =   -2576.94829830 Ry
     estimated scf accuracy    <     543.37761061 Ry

     total magnetization       =     7.33 Bohr mag/cell
     absolute magnetization    =     7.71 Bohr mag/cell

     iteration #  6     ecut=    36.75 Ry     beta=0.30
     Davidson diagonalization with overlap
     ethr =  1.00E-02,  avg # of iterations =  5.8

     negative rho (up, down):  6.343E-04 5.998E-04
 
     Adding external electric field

     Computed dipole along edir(3) : 
        Dipole               -1.0643 Ry au,         -2.7052 Debye
        Dipole field         -0.0036 Ry au
 
        Potential amp.        0.3183 Ry
        Total length         44.5928 bohr
 
 
     Adding external electric field

     Computed dipole along edir(3) : 
        Dipole               -1.0643 Ry au,         -2.7052 Debye
        Dipole field         -0.0036 Ry au
 
        Potential amp.        0.3183 Ry
        Total length         44.5928 bohr
 
 
     Magnetic moment per site:
     atom:    1    charge:    6.0106    magn:    0.5668    constr:    0.0000
     atom:    2    charge:    6.0106    magn:    0.5669    constr:    0.0000
     atom:    3    charge:    6.0108    magn:    0.5667    constr:    0.0000
     atom:    4    charge:    6.0096    magn:    0.5679    constr:    0.0000
     atom:    5    charge:    6.0109    magn:    0.6716    constr:    0.0000
     atom:    6    charge:    5.9813    magn:    0.6658    constr:    0.0000
     atom:    7    charge:    6.0108    magn:    0.6716    constr:    0.0000
     atom:    8    charge:    6.0123    magn:    0.6722    constr:    0.0000
     atom:    9    charge:    5.9847    magn:    0.5329    constr:    0.0000
     atom:   10    charge:    6.0797    magn:    0.5440    constr:    0.0000
     atom:   11    charge:    6.0795    magn:    0.5441    constr:    0.0000
     atom:   12    charge:    6.0797    magn:    0.5440    constr:    0.0000
     atom:   13    charge:    0.3045    magn:   -0.0013    constr:    0.0000
     atom:   14    charge:    0.3491    magn:   -0.0002    constr:    0.0000

     total cpu time spent up to now is      188.3 secs

     total energy              =   -2569.34650730 Ry
     Harris-Foulkes estimate   =   -2575.28909984 Ry
     estimated scf accuracy    <     181.08116891 Ry

     total magnetization       =    10.72 Bohr mag/cell
     absolute magnetization    =    10.91 Bohr mag/cell

     iteration #  7     ecut=    36.75 Ry     beta=0.30
     Davidson diagonalization with overlap
     ethr =  1.00E-02,  avg # of iterations =  2.1

     negative rho (up, down):  6.602E-04 7.785E-04
 
     Adding external electric field

     Computed dipole along edir(3) : 
        Dipole               -1.1030 Ry au,         -2.8035 Debye
        Dipole field         -0.0037 Ry au
 
        Potential amp.        0.3299 Ry
        Total length         44.5928 bohr
 
 
     Adding external electric field

     Computed dipole along edir(3) : 
        Dipole               -1.1030 Ry au,         -2.8035 Debye
        Dipole field         -0.0037 Ry au
 
        Potential amp.        0.3299 Ry
        Total length         44.5928 bohr
 
 
     Magnetic moment per site:
     atom:    1    charge:    6.0258    magn:    0.5479    constr:    0.0000
     atom:    2    charge:    6.0259    magn:    0.5478    constr:    0.0000
     atom:    3    charge:    6.0258    magn:    0.5480    constr:    0.0000
     atom:    4    charge:    6.0244    magn:    0.5492    constr:    0.0000
     atom:    5    charge:    6.0056    magn:    0.6328    constr:    0.0000
     atom:    6    charge:    5.9752    magn:    0.6285    constr:    0.0000
     atom:    7    charge:    6.0055    magn:    0.6327    constr:    0.0000
     atom:    8    charge:    6.0068    magn:    0.6335    constr:    0.0000
     atom:    9    charge:    6.0425    magn:    0.4894    constr:    0.0000
     atom:   10    charge:    6.0484    magn:    0.5296    constr:    0.0000
     atom:   11    charge:    6.0488    magn:    0.5297    constr:    0.0000
     atom:   12    charge:    6.0483    magn:    0.5296    constr:    0.0000
     atom:   13    charge:    0.3037    magn:   -0.0018    constr:    0.0000
     atom:   14    charge:    0.3517    magn:   -0.0004    constr:    0.0000

     total cpu time spent up to now is      199.6 secs

     total energy              =   -2569.13987832 Ry
     Harris-Foulkes estimate   =   -2570.92787371 Ry
     estimated scf accuracy    <      95.28200925 Ry

     total magnetization       =    10.88 Bohr mag/cell
     absolute magnetization    =    11.51 Bohr mag/cell

     iteration #  8     ecut=    36.75 Ry     beta=0.30
     Davidson diagonalization with overlap
     ethr =  1.00E-02,  avg # of iterations =  1.6

     negative rho (up, down):  7.686E-04 7.708E-04
 
     Adding external electric field

     Computed dipole along edir(3) : 
        Dipole               -0.9932 Ry au,         -2.5245 Debye
        Dipole field         -0.0033 Ry au
 
        Potential amp.        0.2971 Ry
        Total length         44.5928 bohr
 
 
     Adding external electric field

     Computed dipole along edir(3) : 
        Dipole               -0.9932 Ry au,         -2.5245 Debye
        Dipole field         -0.0033 Ry au
 
        Potential amp.        0.2971 Ry
        Total length         44.5928 bohr
 
 
     Magnetic moment per site:
     atom:    1    charge:    6.0333    magn:    0.5469    constr:    0.0000
     atom:    2    charge:    6.0330    magn:    0.5466    constr:    0.0000
     atom:    3    charge:    6.0335    magn:    0.5471    constr:    0.0000
     atom:    4    charge:    6.0318    magn:    0.5473    constr:    0.0000
     atom:    5    charge:    5.9910    magn:    0.5648    constr:    0.0000
     atom:    6    charge:    5.9664    magn:    0.5651    constr:    0.0000
     atom:    7    charge:    5.9910    magn:    0.5653    constr:    0.0000
     atom:    8    charge:    5.9918    magn:    0.5657    constr:    0.0000
     atom:    9    charge:    6.0172    magn:    0.4384    constr:    0.0000
     atom:   10    charge:    6.0378    magn:    0.5045    constr:    0.0000
     atom:   11    charge:    6.0377    magn:    0.5049    constr:    0.0000
     atom:   12    charge:    6.0379    magn:    0.5043    constr:    0.0000
     atom:   13    charge:    0.3018    magn:   -0.0028    constr:    0.0000
     atom:   14    charge:    0.3568    magn:   -0.0010    constr:    0.0000

     total cpu time spent up to now is      210.3 secs

     total energy              =   -2569.54824634 Ry
     Harris-Foulkes estimate   =   -2570.18758964 Ry
     estimated scf accuracy    <       9.00023002 Ry

     total magnetization       =    10.84 Bohr mag/cell
     absolute magnetization    =    11.39 Bohr mag/cell

     iteration #  9     ecut=    36.75 Ry     beta=0.30
     Davidson diagonalization with overlap
     ethr =  4.81E-03,  avg # of iterations =  5.4

     negative rho (up, down):  6.880E-04 6.088E-04
 
     Adding external electric field

     Computed dipole along edir(3) : 
        Dipole               -1.0967 Ry au,         -2.7875 Debye
        Dipole field         -0.0037 Ry au
 
        Potential amp.        0.3280 Ry
        Total length         44.5928 bohr
 
 
     Adding external electric field

     Computed dipole along edir(3) : 
        Dipole               -1.0967 Ry au,         -2.7875 Debye
        Dipole field         -0.0037 Ry au
 
        Potential amp.        0.3280 Ry
        Total length         44.5928 bohr
 
 
     Magnetic moment per site:
     atom:    1    charge:    6.0300    magn:    0.5394    constr:    0.0000
     atom:    2    charge:    6.0299    magn:    0.5393    constr:    0.0000
     atom:    3    charge:    6.0301    magn:    0.5395    constr:    0.0000
     atom:    4    charge:    6.0288    magn:    0.5396    constr:    0.0000
     atom:    5    charge:    5.9913    magn:    0.5739    constr:    0.0000
     atom:    6    charge:    5.9797    magn:    0.5678    constr:    0.0000
     atom:    7    charge:    5.9913    magn:    0.5742    constr:    0.0000
     atom:    8    charge:    5.9916    magn:    0.5749    constr:    0.0000
     atom:    9    charge:    6.0138    magn:    0.4491    constr:    0.0000
     atom:   10    charge:    6.0322    magn:    0.5133    constr:    0.0000
     atom:   11    charge:    6.0322    magn:    0.5137    constr:    0.0000
     atom:   12    charge:    6.0322    magn:    0.5130    constr:    0.0000
     atom:   13    charge:    0.3023    magn:   -0.0023    constr:    0.0000
     atom:   14    charge:    0.3570    magn:   -0.0008    constr:    0.0000

     total cpu time spent up to now is      230.3 secs

     total energy              =   -2571.45598042 Ry
     Harris-Foulkes estimate   =   -2572.10716626 Ry
     estimated scf accuracy    <      82.52922603 Ry

     total magnetization       =    12.37 Bohr mag/cell
     absolute magnetization    =    12.61 Bohr mag/cell

     iteration # 10     ecut=    36.75 Ry     beta=0.30
     Davidson diagonalization with overlap
     ethr =  4.81E-03,  avg # of iterations =  1.0

     negative rho (up, down):  7.479E-04 6.525E-04
 
     Adding external electric field

     Computed dipole along edir(3) : 
        Dipole               -1.2839 Ry au,         -3.2633 Debye
        Dipole field         -0.0043 Ry au
 
        Potential amp.        0.3840 Ry
        Total length         44.5928 bohr
 
 
     Adding external electric field

     Computed dipole along edir(3) : 
        Dipole               -1.2839 Ry au,         -3.2633 Debye
        Dipole field         -0.0043 Ry au
 
        Potential amp.        0.3840 Ry
        Total length         44.5928 bohr
 
 
     Magnetic moment per site:
     atom:    1    charge:    6.0153    magn:    0.4953    constr:    0.0000
     atom:    2    charge:    6.0151    magn:    0.4955    constr:    0.0000
     atom:    3    charge:    6.0152    magn:    0.4951    constr:    0.0000
     atom:    4    charge:    6.0164    magn:    0.4966    constr:    0.0000
     atom:    5    charge:    5.9844    magn:    0.5920    constr:    0.0000
     atom:    6    charge:    5.9731    magn:    0.5869    constr:    0.0000
     atom:    7    charge:    5.9845    magn:    0.5921    constr:    0.0000
     atom:    8    charge:    5.9864    magn:    0.5923    constr:    0.0000
     atom:    9    charge:    6.0053    magn:    0.4599    constr:    0.0000
     atom:   10    charge:    6.0178    magn:    0.5279    constr:    0.0000
     atom:   11    charge:    6.0159    magn:    0.5281    constr:    0.0000
     atom:   12    charge:    6.0190    magn:    0.5277    constr:    0.0000
     atom:   13    charge:    0.3021    magn:   -0.0003    constr:    0.0000
     atom:   14    charge:    0.3622    magn:   -0.0000    constr:    0.0000

     total cpu time spent up to now is      240.6 secs

     total energy              =   -2570.62628397 Ry
     Harris-Foulkes estimate   =   -2571.50156301 Ry
     estimated scf accuracy    <      61.40939954 Ry

     total magnetization       =    12.85 Bohr mag/cell
     absolute magnetization    =    13.05 Bohr mag/cell

     iteration # 11     ecut=    36.75 Ry     beta=0.30
     Davidson diagonalization with overlap
     ethr =  4.81E-03,  avg # of iterations =  1.2

     negative rho (up, down):  7.817E-04 6.795E-04
 
     Adding external electric field

     Computed dipole along edir(3) : 
        Dipole               -1.2048 Ry au,         -3.0623 Debye
        Dipole field         -0.0040 Ry au
 
        Potential amp.        0.3603 Ry
        Total length         44.5928 bohr
 
 
     Adding external electric field

     Computed dipole along edir(3) : 
        Dipole               -1.2048 Ry au,         -3.0623 Debye
        Dipole field         -0.0040 Ry au
 
        Potential amp.        0.3603 Ry
        Total length         44.5928 bohr
 
 
     Magnetic moment per site:
     atom:    1    charge:    6.0048    magn:    0.4423    constr:    0.0000
     atom:    2    charge:    6.0051    magn:    0.4425    constr:    0.0000
     atom:    3    charge:    6.0055    magn:    0.4418    constr:    0.0000
     atom:    4    charge:    6.0006    magn:    0.4454    constr:    0.0000
     atom:    5    charge:    5.9921    magn:    0.5855    constr:    0.0000
     atom:    6    charge:    5.9716    magn:    0.5941    constr:    0.0000
     atom:    7    charge:    5.9917    magn:    0.5857    constr:    0.0000
     atom:    8    charge:    5.9827    magn:    0.5862    constr:    0.0000
     atom:    9    charge:    6.0006    magn:    0.4602    constr:    0.0000
     atom:   10    charge:    6.0085    magn:    0.5362    constr:    0.0000
     atom:   11    charge:    6.0190    magn:    0.5357    constr:    0.0000
     atom:   12    charge:    6.0019    magn:    0.5361    constr:    0.0000
     atom:   13    charge:    0.3022    magn:    0.0011    constr:    0.0000
     atom:   14    charge:    0.3680    magn:    0.0003    constr:    0.0000

     total cpu time spent up to now is      250.8 secs

     total energy              =   -2570.66336813 Ry
     Harris-Foulkes estimate   =   -2570.80014604 Ry
     estimated scf accuracy    <      27.66485945 Ry

     total magnetization       =    12.37 Bohr mag/cell
     absolute magnetization    =    12.57 Bohr mag/cell

     iteration # 12     ecut=    36.75 Ry     beta=0.30
     Davidson diagonalization with overlap
     ethr =  4.81E-03,  avg # of iterations =  1.0

     negative rho (up, down):  7.921E-04 7.073E-04
 
     Adding external electric field

     Computed dipole along edir(3) : 
        Dipole               -1.1278 Ry au,         -2.8667 Debye
        Dipole field         -0.0038 Ry au
 
        Potential amp.        0.3373 Ry
        Total length         44.5928 bohr
 
 
     Adding external electric field

     Computed dipole along edir(3) : 
        Dipole               -1.1278 Ry au,         -2.8667 Debye
        Dipole field         -0.0038 Ry au
 
        Potential amp.        0.3373 Ry
        Total length         44.5928 bohr
 
 
     Magnetic moment per site:
     atom:    1    charge:    5.9960    magn:    0.3928    constr:    0.0000
     atom:    2    charge:    5.9952    magn:    0.3925    constr:    0.0000
     atom:    3    charge:    5.9964    magn:    0.3920    constr:    0.0000
     atom:    4    charge:    5.9916    magn:    0.3967    constr:    0.0000
     atom:    5    charge:    5.9880    magn:    0.5802    constr:    0.0000
     atom:    6    charge:    5.9729    magn:    0.5992    constr:    0.0000
     atom:    7    charge:    5.9876    magn:    0.5801    constr:    0.0000
     atom:    8    charge:    5.9894    magn:    0.5762    constr:    0.0000
     atom:    9    charge:    5.9976    magn:    0.4601    constr:    0.0000
     atom:   10    charge:    6.0062    magn:    0.5432    constr:    0.0000
     atom:   11    charge:    5.9997    magn:    0.5409    constr:    0.0000
     atom:   12    charge:    6.0090    magn:    0.5411    constr:    0.0000
     atom:   13    charge:    0.3020    magn:    0.0023    constr:    0.0000
     atom:   14    charge:    0.3729    magn:    0.0005    constr:    0.0000

     total cpu time spent up to now is      261.2 secs

     total energy              =   -2570.67334838 Ry
     Harris-Foulkes estimate   =   -2570.73247845 Ry
     estimated scf accuracy    <      20.10822140 Ry

     total magnetization       =    11.84 Bohr mag/cell
     absolute magnetization    =    12.12 Bohr mag/cell

     iteration # 13     ecut=    36.75 Ry     beta=0.30
     Davidson diagonalization with overlap
     ethr =  4.81E-03,  avg # of iterations =  1.0

     negative rho (up, down):  7.579E-04 8.587E-04
 
     Adding external electric field

     Computed dipole along edir(3) : 
        Dipole               -0.6397 Ry au,         -1.6260 Debye
        Dipole field         -0.0021 Ry au
 
        Potential amp.        0.1913 Ry
        Total length         44.5928 bohr
 
 
     Adding external electric field

     Computed dipole along edir(3) : 
        Dipole               -0.6397 Ry au,         -1.6260 Debye
        Dipole field         -0.0021 Ry au
 
        Potential amp.        0.1913 Ry
        Total length         44.5928 bohr
 
 
     Magnetic moment per site:
     atom:    1    charge:    5.9686    magn:    0.2841    constr:    0.0000
     atom:    2    charge:    5.9698    magn:    0.2832    constr:    0.0000
     atom:    3    charge:    5.9679    magn:    0.2829    constr:    0.0000
     atom:    4    charge:    5.9761    magn:    0.2895    constr:    0.0000
     atom:    5    charge:    5.9808    magn:    0.5843    constr:    0.0000
     atom:    6    charge:    5.9845    magn:    0.6246    constr:    0.0000
     atom:    7    charge:    5.9827    magn:    0.5833    constr:    0.0000
     atom:    8    charge:    5.9877    magn:    0.5737    constr:    0.0000
     atom:    9    charge:    5.9977    magn:    0.4712    constr:    0.0000
     atom:   10    charge:    6.0013    magn:    0.5650    constr:    0.0000
     atom:   11    charge:    6.0090    magn:    0.5556    constr:    0.0000
     atom:   12    charge:    6.0035    magn:    0.5615    constr:    0.0000
     atom:   13    charge:    0.3021    magn:    0.0053    constr:    0.0000
     atom:   14    charge:    0.3840    magn:    0.0012    constr:    0.0000

     total cpu time spent up to now is      271.4 secs

     total energy              =   -2570.04413915 Ry
     Harris-Foulkes estimate   =   -2570.72872876 Ry
     estimated scf accuracy    <      18.13430390 Ry

     total magnetization       =    12.03 Bohr mag/cell
     absolute magnetization    =    12.30 Bohr mag/cell

     iteration # 14     ecut=    36.75 Ry     beta=0.30
     Davidson diagonalization with overlap
     ethr =  4.81E-03,  avg # of iterations =  2.6

     negative rho (up, down):  7.550E-04 8.642E-04
 
     Adding external electric field

     Computed dipole along edir(3) : 
        Dipole               -0.5365 Ry au,         -1.3637 Debye
        Dipole field         -0.0018 Ry au
 
        Potential amp.        0.1605 Ry
        Total length         44.5928 bohr
 
 
     Adding external electric field

     Computed dipole along edir(3) : 
        Dipole               -0.5365 Ry au,         -1.3637 Debye
        Dipole field         -0.0018 Ry au
 
        Potential amp.        0.1605 Ry
        Total length         44.5928 bohr
 
 
     Magnetic moment per site:
     atom:    1    charge:    5.9685    magn:    0.2159    constr:    0.0000
     atom:    2    charge:    5.9703    magn:    0.2142    constr:    0.0000
     atom:    3    charge:    5.9676    magn:    0.2148    constr:    0.0000
     atom:    4    charge:    5.9710    magn:    0.2258    constr:    0.0000
     atom:    5    charge:    5.9853    magn:    0.5714    constr:    0.0000
     atom:    6    charge:    5.9706    magn:    0.6326    constr:    0.0000
     atom:    7    charge:    5.9833    magn:    0.5706    constr:    0.0000
     atom:    8    charge:    5.9789    magn:    0.5576    constr:    0.0000
     atom:    9    charge:    5.9865    magn:    0.4748    constr:    0.0000
     atom:   10    charge:    5.9959    magn:    0.5742    constr:    0.0000
     atom:   11    charge:    5.9925    magn:    0.5581    constr:    0.0000
     atom:   12    charge:    5.9944    magn:    0.5700    constr:    0.0000
     atom:   13    charge:    0.3021    magn:    0.0067    constr:    0.0000
     atom:   14    charge:    0.3900    magn:    0.0013    constr:    0.0000

     total cpu time spent up to now is      283.4 secs

     total energy              =   -2570.42389156 Ry
     Harris-Foulkes estimate   =   -2570.48962773 Ry
     estimated scf accuracy    <       1.45997572 Ry

     total magnetization       =    11.12 Bohr mag/cell
     absolute magnetization    =    12.02 Bohr mag/cell

     iteration # 15     ecut=    36.75 Ry     beta=0.30
     Davidson diagonalization with overlap
     ethr =  7.81E-04,  avg # of iterations =  6.2

     negative rho (up, down):  8.440E-04 7.595E-04
 
     Adding external electric field

     Computed dipole along edir(3) : 
        Dipole               -0.4960 Ry au,         -1.2606 Debye
        Dipole field         -0.0017 Ry au
 
        Potential amp.        0.1483 Ry
        Total length         44.5928 bohr
 
 
     Adding external electric field

     Computed dipole along edir(3) : 
        Dipole               -0.4960 Ry au,         -1.2606 Debye
        Dipole field         -0.0017 Ry au
 
        Potential amp.        0.1483 Ry
        Total length         44.5928 bohr
 
 
     Magnetic moment per site:
     atom:    1    charge:    5.9769    magn:    0.2137    constr:    0.0000
     atom:    2    charge:    5.9742    magn:    0.2122    constr:    0.0000
     atom:    3    charge:    5.9785    magn:    0.2124    constr:    0.0000
     atom:    4    charge:    5.9675    magn:    0.2251    constr:    0.0000
     atom:    5    charge:    5.9783    magn:    0.5679    constr:    0.0000
     atom:    6    charge:    5.9726    magn:    0.6351    constr:    0.0000
     atom:    7    charge:    5.9786    magn:    0.5682    constr:    0.0000
     atom:    8    charge:    5.9814    magn:    0.5573    constr:    0.0000
     atom:    9    charge:    5.9878    magn:    0.4781    constr:    0.0000
     atom:   10    charge:    5.9900    magn:    0.5737    constr:    0.0000
     atom:   11    charge:    5.9944    magn:    0.5583    constr:    0.0000
     atom:   12    charge:    5.9928    magn:    0.5704    constr:    0.0000
     atom:   13    charge:    0.3023    magn:    0.0070    constr:    0.0000
     atom:   14    charge:    0.3908    magn:    0.0013    constr:    0.0000

     total cpu time spent up to now is      304.4 secs

     total energy              =   -2570.76541446 Ry
     Harris-Foulkes estimate   =   -2570.84557607 Ry
     estimated scf accuracy    <      16.51082774 Ry

     total magnetization       =    11.78 Bohr mag/cell
     absolute magnetization    =    12.05 Bohr mag/cell

     iteration # 16     ecut=    36.75 Ry     beta=0.30
     Davidson diagonalization with overlap
     ethr =  7.81E-04,  avg # of iterations =  1.0

     negative rho (up, down):  8.792E-04 7.352E-04
 
     Adding external electric field

     Computed dipole along edir(3) : 
        Dipole               -0.5025 Ry au,         -1.2772 Debye
        Dipole field         -0.0017 Ry au
 
        Potential amp.        0.1503 Ry
        Total length         44.5928 bohr
 
 
     Adding external electric field

     Computed dipole along edir(3) : 
        Dipole               -0.5025 Ry au,         -1.2772 Debye
        Dipole field         -0.0017 Ry au
 
        Potential amp.        0.1503 Ry
        Total length         44.5928 bohr
 
 
     Magnetic moment per site:
     atom:    1    charge:    5.9827    magn:    0.2272    constr:    0.0000
     atom:    2    charge:    5.9852    magn:    0.2216    constr:    0.0000
     atom:    3    charge:    5.9813    magn:    0.2282    constr:    0.0000
     atom:    4    charge:    5.9860    magn:    0.2290    constr:    0.0000
     atom:    5    charge:    5.9737    magn:    0.5577    constr:    0.0000
     atom:    6    charge:    5.9763    magn:    0.6298    constr:    0.0000
     atom:    7    charge:    5.9762    magn:    0.5605    constr:    0.0000
     atom:    8    charge:    5.9806    magn:    0.5558    constr:    0.0000
     atom:    9    charge:    5.9892    magn:    0.4856    constr:    0.0000
     atom:   10    charge:    5.9846    magn:    0.5701    constr:    0.0000
     atom:   11    charge:    5.9899    magn:    0.5606    constr:    0.0000
     atom:   12    charge:    5.9874    magn:    0.5703    constr:    0.0000
     atom:   13    charge:    0.3029    magn:    0.0074    constr:    0.0000
     atom:   14    charge:    0.3920    magn:    0.0013    constr:    0.0000

     total cpu time spent up to now is      314.5 secs

     total energy              =   -2570.75656122 Ry
     Harris-Foulkes estimate   =   -2570.78803331 Ry
     estimated scf accuracy    <      11.57315131 Ry

     total magnetization       =    11.67 Bohr mag/cell
     absolute magnetization    =    11.93 Bohr mag/cell

     iteration # 17     ecut=    36.75 Ry     beta=0.30
     Davidson diagonalization with overlap
     ethr =  7.81E-04,  avg # of iterations =  2.5

     negative rho (up, down):  9.545E-04 7.462E-04
 
     Adding external electric field

     Computed dipole along edir(3) : 
        Dipole               -0.4510 Ry au,         -1.1464 Debye
        Dipole field         -0.0015 Ry au
 
        Potential amp.        0.1349 Ry
        Total length         44.5928 bohr
 
 
     Adding external electric field

     Computed dipole along edir(3) : 
        Dipole               -0.4510 Ry au,         -1.1464 Debye
        Dipole field         -0.0015 Ry au
 
        Potential amp.        0.1349 Ry
        Total length         44.5928 bohr
 
 
     Magnetic moment per site:
     atom:    1    charge:    5.9905    magn:    0.2452    constr:    0.0000
     atom:    2    charge:    5.9892    magn:    0.2390    constr:    0.0000
     atom:    3    charge:    5.9915    magn:    0.2465    constr:    0.0000
     atom:    4    charge:    5.9923    magn:    0.2435    constr:    0.0000
     atom:    5    charge:    5.9755    magn:    0.5476    constr:    0.0000
     atom:    6    charge:    5.9770    magn:    0.6097    constr:    0.0000
     atom:    7    charge:    5.9766    magn:    0.5512    constr:    0.0000
     atom:    8    charge:    5.9814    magn:    0.5489    constr:    0.0000
     atom:    9    charge:    5.9906    magn:    0.4852    constr:    0.0000
     atom:   10    charge:    5.9888    magn:    0.5689    constr:    0.0000
     atom:   11    charge:    5.9904    magn:    0.5620    constr:    0.0000
     atom:   12    charge:    5.9886    magn:    0.5708    constr:    0.0000
     atom:   13    charge:    0.3026    magn:    0.0073    constr:    0.0000
     atom:   14    charge:    0.3913    magn:    0.0012    constr:    0.0000

     total cpu time spent up to now is      326.2 secs

     total energy              =   -2570.74978486 Ry
     Harris-Foulkes estimate   =   -2570.80258968 Ry
     estimated scf accuracy    <       9.37636900 Ry

     total magnetization       =    11.56 Bohr mag/cell
     absolute magnetization    =    11.82 Bohr mag/cell

     iteration # 18     ecut=    36.75 Ry     beta=0.30
     Davidson diagonalization with overlap
     ethr =  7.81E-04,  avg # of iterations =  1.0

     negative rho (up, down):  9.485E-04 7.675E-04
 
     Adding external electric field

     Computed dipole along edir(3) : 
        Dipole               -0.2460 Ry au,         -0.6253 Debye
        Dipole field         -0.0008 Ry au
 
        Potential amp.        0.0736 Ry
        Total length         44.5928 bohr
 
 
     Adding external electric field

     Computed dipole along edir(3) : 
        Dipole               -0.2460 Ry au,         -0.6253 Debye
        Dipole field         -0.0008 Ry au
 
        Potential amp.        0.0736 Ry
        Total length         44.5928 bohr
 
 
     Magnetic moment per site:
     atom:    1    charge:    5.9919    magn:    0.2674    constr:    0.0000
     atom:    2    charge:    5.9979    magn:    0.2575    constr:    0.0000
     atom:    3    charge:    5.9882    magn:    0.2710    constr:    0.0000
     atom:    4    charge:    5.9881    magn:    0.2611    constr:    0.0000
     atom:    5    charge:    5.9806    magn:    0.5222    constr:    0.0000
     atom:    6    charge:    5.9798    magn:    0.5653    constr:    0.0000
     atom:    7    charge:    5.9798    magn:    0.5254    constr:    0.0000
     atom:    8    charge:    5.9807    magn:    0.5232    constr:    0.0000
     atom:    9    charge:    5.9926    magn:    0.4760    constr:    0.0000
     atom:   10    charge:    5.9918    magn:    0.5689    constr:    0.0000
     atom:   11    charge:    5.9934    magn:    0.5612    constr:    0.0000
     atom:   12    charge:    5.9944    magn:    0.5694    constr:    0.0000
     atom:   13    charge:    0.3017    magn:    0.0068    constr:    0.0000
     atom:   14    charge:    0.3913    magn:    0.0009    constr:    0.0000

     total cpu time spent up to now is      336.4 secs

     total energy              =   -2570.64863425 Ry
     Harris-Foulkes estimate   =   -2570.76700345 Ry
     estimated scf accuracy    <       5.84355546 Ry

     total magnetization       =    11.57 Bohr mag/cell
     absolute magnetization    =    11.82 Bohr mag/cell

     iteration # 19     ecut=    36.75 Ry     beta=0.30
     Davidson diagonalization with overlap
     ethr =  7.81E-04,  avg # of iterations =  2.6

     negative rho (up, down):  1.092E-03 8.107E-04
 
     Adding external electric field

     Computed dipole along edir(3) : 
        Dipole               -0.2662 Ry au,         -0.6765 Debye
        Dipole field         -0.0009 Ry au
 
        Potential amp.        0.0796 Ry
        Total length         44.5928 bohr
 
 
     Adding external electric field

     Computed dipole along edir(3) : 
        Dipole               -0.2662 Ry au,         -0.6765 Debye
        Dipole field         -0.0009 Ry au
 
        Potential amp.        0.0796 Ry
        Total length         44.5928 bohr
 
 
     Magnetic moment per site:
     atom:    1    charge:    5.9806    magn:    0.2580    constr:    0.0000
     atom:    2    charge:    5.9807    magn:    0.2507    constr:    0.0000
     atom:    3    charge:    5.9828    magn:    0.2612    constr:    0.0000
     atom:    4    charge:    5.9825    magn:    0.2574    constr:    0.0000
     atom:    5    charge:    5.9796    magn:    0.5208    constr:    0.0000
     atom:    6    charge:    5.9795    magn:    0.5672    constr:    0.0000
     atom:    7    charge:    5.9802    magn:    0.5221    constr:    0.0000
     atom:    8    charge:    5.9766    magn:    0.5158    constr:    0.0000
     atom:    9    charge:    5.9843    magn:    0.4689    constr:    0.0000
     atom:   10    charge:    5.9916    magn:    0.5693    constr:    0.0000
     atom:   11    charge:    5.9935    magn:    0.5561    constr:    0.0000
     atom:   12    charge:    5.9933    magn:    0.5674    constr:    0.0000
     atom:   13    charge:    0.3020    magn:    0.0063    constr:    0.0000
     atom:   14    charge:    0.3919    magn:    0.0008    constr:    0.0000

     total cpu time spent up to now is      348.3 secs

     total energy              =   -2570.65759707 Ry
     Harris-Foulkes estimate   =   -2570.70261286 Ry
     estimated scf accuracy    <       1.60281516 Ry

     total magnetization       =    11.51 Bohr mag/cell
     absolute magnetization    =    11.73 Bohr mag/cell

     iteration # 20     ecut=    36.75 Ry     beta=0.30
     Davidson diagonalization with overlap
     ethr =  7.81E-04,  avg # of iterations =  1.1

     negative rho (up, down):  1.002E-03 7.750E-04
 
     Adding external electric field

     Computed dipole along edir(3) : 
        Dipole               -0.0665 Ry au,         -0.1690 Debye
        Dipole field         -0.0002 Ry au
 
        Potential amp.        0.0199 Ry
        Total length         44.5928 bohr
 
 
     Adding external electric field

     Computed dipole along edir(3) : 
        Dipole               -0.0665 Ry au,         -0.1690 Debye
        Dipole field         -0.0002 Ry au
 
        Potential amp.        0.0199 Ry
        Total length         44.5928 bohr
 
 
     Magnetic moment per site:
     atom:    1    charge:    5.9804    magn:    0.2434    constr:    0.0000
     atom:    2    charge:    5.9796    magn:    0.2317    constr:    0.0000
     atom:    3    charge:    5.9783    magn:    0.2528    constr:    0.0000
     atom:    4    charge:    5.9790    magn:    0.2485    constr:    0.0000
     atom:    5    charge:    5.9794    magn:    0.4915    constr:    0.0000
     atom:    6    charge:    5.9775    magn:    0.5365    constr:    0.0000
     atom:    7    charge:    5.9779    magn:    0.4919    constr:    0.0000
     atom:    8    charge:    5.9800    magn:    0.4831    constr:    0.0000
     atom:    9    charge:    5.9888    magn:    0.4625    constr:    0.0000
     atom:   10    charge:    5.9954    magn:    0.5798    constr:    0.0000
     atom:   11    charge:    5.9933    magn:    0.5623    constr:    0.0000
     atom:   12    charge:    5.9901    magn:    0.5768    constr:    0.0000
     atom:   13    charge:    0.3012    magn:    0.0067    constr:    0.0000
     atom:   14    charge:    0.3955    magn:    0.0007    constr:    0.0000

     total cpu time spent up to now is      358.5 secs

     total energy              =   -2570.67159867 Ry
     Harris-Foulkes estimate   =   -2570.69501022 Ry
     estimated scf accuracy    <       2.02390570 Ry

     total magnetization       =    11.77 Bohr mag/cell
     absolute magnetization    =    11.99 Bohr mag/cell

     iteration # 21     ecut=    36.75 Ry     beta=0.30
     Davidson diagonalization with overlap
     ethr =  7.81E-04,  avg # of iterations =  1.0

     negative rho (up, down):  9.579E-04 7.632E-04
 
     Adding external electric field

     Computed dipole along edir(3) : 
        Dipole                0.0541 Ry au,          0.1375 Debye
        Dipole field          0.0002 Ry au
 
        Potential amp.       -0.0162 Ry
        Total length         44.5928 bohr
 
 
     Adding external electric field

     Computed dipole along edir(3) : 
        Dipole                0.0541 Ry au,          0.1375 Debye
        Dipole field          0.0002 Ry au
 
        Potential amp.       -0.0162 Ry
        Total length         44.5928 bohr
 
 
     Magnetic moment per site:
     atom:    1    charge:    5.9741    magn:    0.2335    constr:    0.0000
     atom:    2    charge:    5.9772    magn:    0.2164    constr:    0.0000
     atom:    3    charge:    5.9790    magn:    0.2453    constr:    0.0000
     atom:    4    charge:    5.9774    magn:    0.2427    constr:    0.0000
     atom:    5    charge:    5.9800    magn:    0.4713    constr:    0.0000
     atom:    6    charge:    5.9774    magn:    0.5161    constr:    0.0000
     atom:    7    charge:    5.9797    magn:    0.4706    constr:    0.0000
     atom:    8    charge:    5.9763    magn:    0.4600    constr:    0.0000
     atom:    9    charge:    5.9921    magn:    0.4586    constr:    0.0000
     atom:   10    charge:    5.9914    magn:    0.5920    constr:    0.0000
     atom:   11    charge:    5.9934    magn:    0.5697    constr:    0.0000
     atom:   12    charge:    5.9945    magn:    0.5857    constr:    0.0000
     atom:   13    charge:    0.3006    magn:    0.0071    constr:    0.0000
     atom:   14    charge:    0.3977    magn:    0.0006    constr:    0.0000

     total cpu time spent up to now is      368.7 secs

     total energy              =   -2570.68280151 Ry
     Harris-Foulkes estimate   =   -2570.68577897 Ry
     estimated scf accuracy    <       1.33618048 Ry

     total magnetization       =    11.59 Bohr mag/cell
     absolute magnetization    =    11.81 Bohr mag/cell

     iteration # 22     ecut=    36.75 Ry     beta=0.30
     Davidson diagonalization with overlap
     ethr =  7.15E-04,  avg # of iterations =  1.0

     negative rho (up, down):  8.394E-04 7.274E-04
 
     Adding external electric field

     Computed dipole along edir(3) : 
        Dipole                0.0791 Ry au,          0.2010 Debye
        Dipole field          0.0003 Ry au
 
        Potential amp.       -0.0237 Ry
        Total length         44.5928 bohr
 
 
     Adding external electric field

     Computed dipole along edir(3) : 
        Dipole                0.0791 Ry au,          0.2010 Debye
        Dipole field          0.0003 Ry au
 
        Potential amp.       -0.0237 Ry
        Total length         44.5928 bohr
 
 
     Magnetic moment per site:
     atom:    1    charge:    5.9882    magn:    0.2438    constr:    0.0000
     atom:    2    charge:    5.9828    magn:    0.2230    constr:    0.0000
     atom:    3    charge:    5.9824    magn:    0.2651    constr:    0.0000
     atom:    4    charge:    5.9826    magn:    0.2588    constr:    0.0000
     atom:    5    charge:    5.9786    magn:    0.4360    constr:    0.0000
     atom:    6    charge:    5.9795    magn:    0.4764    constr:    0.0000
     atom:    7    charge:    5.9793    magn:    0.4349    constr:    0.0000
     atom:    8    charge:    5.9699    magn:    0.4249    constr:    0.0000
     atom:    9    charge:    5.9927    magn:    0.4502    constr:    0.0000
     atom:   10    charge:    5.9930    magn:    0.5997    constr:    0.0000
     atom:   11    charge:    5.9910    magn:    0.5753    constr:    0.0000
     atom:   12    charge:    5.9931    magn:    0.5930    constr:    0.0000
     atom:   13    charge:    0.3004    magn:    0.0070    constr:    0.0000
     atom:   14    charge:    0.3989    magn:    0.0002    constr:    0.0000

     total cpu time spent up to now is      379.0 secs

     total energy              =   -2570.67137837 Ry
     Harris-Foulkes estimate   =   -2570.69403405 Ry
     estimated scf accuracy    <       1.48835789 Ry

     total magnetization       =    11.48 Bohr mag/cell
     absolute magnetization    =    11.71 Bohr mag/cell

     iteration # 23     ecut=    36.75 Ry     beta=0.30
     Davidson diagonalization with overlap
     ethr =  7.15E-04,  avg # of iterations =  2.2

     negative rho (up, down):  8.002E-04 7.240E-04
 
     Adding external electric field

     Computed dipole along edir(3) : 
        Dipole                0.2308 Ry au,          0.5866 Debye
        Dipole field          0.0008 Ry au
 
        Potential amp.       -0.0690 Ry
        Total length         44.5928 bohr
 
 
     Adding external electric field

     Computed dipole along edir(3) : 
        Dipole                0.2308 Ry au,          0.5866 Debye
        Dipole field          0.0008 Ry au
 
        Potential amp.       -0.0690 Ry
        Total length         44.5928 bohr
 
 
     Magnetic moment per site:
     atom:    1    charge:    5.9818    magn:    0.2428    constr:    0.0000
     atom:    2    charge:    5.9835    magn:    0.2162    constr:    0.0000
     atom:    3    charge:    5.9824    magn:    0.2670    constr:    0.0000
     atom:    4    charge:    5.9831    magn:    0.2583    constr:    0.0000
     atom:    5    charge:    5.9764    magn:    0.4096    constr:    0.0000
     atom:    6    charge:    5.9780    magn:    0.4489    constr:    0.0000
     atom:    7    charge:    5.9772    magn:    0.4082    constr:    0.0000
     atom:    8    charge:    5.9777    magn:    0.3959    constr:    0.0000
     atom:    9    charge:    5.9896    magn:    0.4452    constr:    0.0000
     atom:   10    charge:    5.9929    magn:    0.6077    constr:    0.0000
     atom:   11    charge:    5.9921    magn:    0.5799    constr:    0.0000
     atom:   12    charge:    5.9935    magn:    0.5995    constr:    0.0000
     atom:   13    charge:    0.2999    magn:    0.0073    constr:    0.0000
     atom:   14    charge:    0.4010    magn:    0.0001    constr:    0.0000

     total cpu time spent up to now is      390.2 secs

     total energy              =   -2570.68113412 Ry
     Harris-Foulkes estimate   =   -2570.69651442 Ry
     estimated scf accuracy    <       0.89382067 Ry

     total magnetization       =    11.27 Bohr mag/cell
     absolute magnetization    =    11.52 Bohr mag/cell

     iteration # 24     ecut=    36.75 Ry     beta=0.30
     Davidson diagonalization with overlap
     ethr =  4.78E-04,  avg # of iterations =  1.6

     negative rho (up, down):  7.733E-04 7.085E-04
 
     Adding external electric field

     Computed dipole along edir(3) : 
        Dipole                0.2321 Ry au,          0.5900 Debye
        Dipole field          0.0008 Ry au
 
        Potential amp.       -0.0694 Ry
        Total length         44.5928 bohr
 
 
     Adding external electric field

     Computed dipole along edir(3) : 
        Dipole                0.2321 Ry au,          0.5900 Debye
        Dipole field          0.0008 Ry au
 
        Potential amp.       -0.0694 Ry
        Total length         44.5928 bohr
 
 
     Magnetic moment per site:
     atom:    1    charge:    5.9838    magn:    0.2480    constr:    0.0000
     atom:    2    charge:    5.9829    magn:    0.2222    constr:    0.0000
     atom:    3    charge:    5.9829    magn:    0.2722    constr:    0.0000
     atom:    4    charge:    5.9844    magn:    0.2607    constr:    0.0000
     atom:    5    charge:    5.9784    magn:    0.4062    constr:    0.0000
     atom:    6    charge:    5.9791    magn:    0.4464    constr:    0.0000
     atom:    7    charge:    5.9777    magn:    0.4053    constr:    0.0000
     atom:    8    charge:    5.9781    magn:    0.3950    constr:    0.0000
     atom:    9    charge:    5.9906    magn:    0.4446    constr:    0.0000
     atom:   10    charge:    5.9923    magn:    0.6058    constr:    0.0000
     atom:   11    charge:    5.9946    magn:    0.5789    constr:    0.0000
     atom:   12    charge:    5.9924    magn:    0.5983    constr:    0.0000
     atom:   13    charge:    0.2998    magn:    0.0073    constr:    0.0000
     atom:   14    charge:    0.4003    magn:    0.0001    constr:    0.0000

     total cpu time spent up to now is      401.1 secs

     total energy              =   -2570.69117603 Ry
     Harris-Foulkes estimate   =   -2570.69732452 Ry
     estimated scf accuracy    <       0.30474783 Ry

     total magnetization       =    11.15 Bohr mag/cell
     absolute magnetization    =    11.40 Bohr mag/cell

     iteration # 25     ecut=    36.75 Ry     beta=0.30
     Davidson diagonalization with overlap
     ethr =  1.63E-04,  avg # of iterations =  6.3

     negative rho (up, down):  7.675E-04 6.951E-04
 
     Adding external electric field

     Computed dipole along edir(3) : 
        Dipole                0.2689 Ry au,          0.6836 Debye
        Dipole field          0.0009 Ry au
 
        Potential amp.       -0.0804 Ry
        Total length         44.5928 bohr
 
 
     Adding external electric field

     Computed dipole along edir(3) : 
        Dipole                0.2689 Ry au,          0.6836 Debye
        Dipole field          0.0009 Ry au
 
        Potential amp.       -0.0804 Ry
        Total length         44.5928 bohr
 
 
     Magnetic moment per site:
     atom:    1    charge:    5.9839    magn:    0.2470    constr:    0.0000
     atom:    2    charge:    5.9846    magn:    0.2197    constr:    0.0000
     atom:    3    charge:    5.9843    magn:    0.2727    constr:    0.0000
     atom:    4    charge:    5.9849    magn:    0.2590    constr:    0.0000
     atom:    5    charge:    5.9769    magn:    0.3936    constr:    0.0000
     atom:    6    charge:    5.9816    magn:    0.4346    constr:    0.0000
     atom:    7    charge:    5.9772    magn:    0.3931    constr:    0.0000
     atom:    8    charge:    5.9784    magn:    0.3830    constr:    0.0000
     atom:    9    charge:    5.9912    magn:    0.4437    constr:    0.0000
     atom:   10    charge:    5.9946    magn:    0.6102    constr:    0.0000
     atom:   11    charge:    5.9937    magn:    0.5828    constr:    0.0000
     atom:   12    charge:    5.9934    magn:    0.6029    constr:    0.0000
     atom:   13    charge:    0.2996    magn:    0.0074    constr:    0.0000
     atom:   14    charge:    0.4009    magn:    0.0000    constr:    0.0000

     total cpu time spent up to now is      416.8 secs

     total energy              =   -2570.70414529 Ry
     Harris-Foulkes estimate   =   -2570.70583426 Ry
     estimated scf accuracy    <       0.14257327 Ry

     total magnetization       =    11.29 Bohr mag/cell
     absolute magnetization    =    11.52 Bohr mag/cell

     iteration # 26     ecut=    36.75 Ry     beta=0.30
     Davidson diagonalization with overlap
     ethr =  7.62E-05,  avg # of iterations =  5.9

     negative rho (up, down):  7.591E-04 6.735E-04
 
     Adding external electric field

     Computed dipole along edir(3) : 
        Dipole                0.2000 Ry au,          0.5083 Debye
        Dipole field          0.0007 Ry au
 
        Potential amp.       -0.0598 Ry
        Total length         44.5928 bohr
 
 
     Adding external electric field

     Computed dipole along edir(3) : 
        Dipole                0.2000 Ry au,          0.5083 Debye
        Dipole field          0.0007 Ry au
 
        Potential amp.       -0.0598 Ry
        Total length         44.5928 bohr
 
 
     Magnetic moment per site:
     atom:    1    charge:    5.9858    magn:    0.2406    constr:    0.0000
     atom:    2    charge:    5.9850    magn:    0.2153    constr:    0.0000
     atom:    3    charge:    5.9855    magn:    0.2658    constr:    0.0000
     atom:    4    charge:    5.9840    magn:    0.2494    constr:    0.0000
     atom:    5    charge:    5.9776    magn:    0.3884    constr:    0.0000
     atom:    6    charge:    5.9818    magn:    0.4368    constr:    0.0000
     atom:    7    charge:    5.9804    magn:    0.3894    constr:    0.0000
     atom:    8    charge:    5.9803    magn:    0.3802    constr:    0.0000
     atom:    9    charge:    5.9913    magn:    0.4491    constr:    0.0000
     atom:   10    charge:    5.9922    magn:    0.6157    constr:    0.0000
     atom:   11    charge:    5.9931    magn:    0.5898    constr:    0.0000
     atom:   12    charge:    5.9930    magn:    0.6101    constr:    0.0000
     atom:   13    charge:    0.2999    magn:    0.0077    constr:    0.0000
     atom:   14    charge:    0.4008    magn:    0.0001    constr:    0.0000

     total cpu time spent up to now is      431.7 secs

     total energy              =   -2570.70195449 Ry
     Harris-Foulkes estimate   =   -2570.70951859 Ry
     estimated scf accuracy    <       0.23098244 Ry

     total magnetization       =    11.24 Bohr mag/cell
     absolute magnetization    =    11.48 Bohr mag/cell

     iteration # 27     ecut=    36.75 Ry     beta=0.30
     Davidson diagonalization with overlap
     ethr =  7.62E-05,  avg # of iterations =  1.6

     negative rho (up, down):  7.736E-04 6.746E-04
 
     Adding external electric field

     Computed dipole along edir(3) : 
        Dipole                0.2219 Ry au,          0.5640 Debye
        Dipole field          0.0007 Ry au
 
        Potential amp.       -0.0664 Ry
        Total length         44.5928 bohr
 
 
     Adding external electric field

     Computed dipole along edir(3) : 
        Dipole                0.2219 Ry au,          0.5640 Debye
        Dipole field          0.0007 Ry au
 
        Potential amp.       -0.0664 Ry
        Total length         44.5928 bohr
 
 
     Magnetic moment per site:
     atom:    1    charge:    5.9846    magn:    0.2386    constr:    0.0000
     atom:    2    charge:    5.9848    magn:    0.2128    constr:    0.0000
     atom:    3    charge:    5.9845    magn:    0.2643    constr:    0.0000
     atom:    4    charge:    5.9855    magn:    0.2470    constr:    0.0000
     atom:    5    charge:    5.9795    magn:    0.3838    constr:    0.0000
     atom:    6    charge:    5.9822    magn:    0.4334    constr:    0.0000
     atom:    7    charge:    5.9789    magn:    0.3852    constr:    0.0000
     atom:    8    charge:    5.9790    magn:    0.3758    constr:    0.0000
     atom:    9    charge:    5.9912    magn:    0.4495    constr:    0.0000
     atom:   10    charge:    5.9935    magn:    0.6188    constr:    0.0000
     atom:   11    charge:    5.9931    magn:    0.5926    constr:    0.0000
     atom:   12    charge:    5.9931    magn:    0.6132    constr:    0.0000
     atom:   13    charge:    0.2997    magn:    0.0078    constr:    0.0000
     atom:   14    charge:    0.4009    magn:    0.0001    constr:    0.0000

     total cpu time spent up to now is      442.6 secs

     total energy              =   -2570.70520086 Ry
     Harris-Foulkes estimate   =   -2570.70601622 Ry
     estimated scf accuracy    <       0.07753207 Ry

     total magnetization       =    11.22 Bohr mag/cell
     absolute magnetization    =    11.45 Bohr mag/cell

     iteration # 28     ecut=    36.75 Ry     beta=0.30
     Davidson diagonalization with overlap
     ethr =  4.15E-05,  avg # of iterations =  2.7

     negative rho (up, down):  8.011E-04 6.928E-04
 
     Adding external electric field

     Computed dipole along edir(3) : 
        Dipole                0.2483 Ry au,          0.6312 Debye
        Dipole field          0.0008 Ry au
 
        Potential amp.       -0.0743 Ry
        Total length         44.5928 bohr
 
 
     Adding external electric field

     Computed dipole along edir(3) : 
        Dipole                0.2483 Ry au,          0.6312 Debye
        Dipole field          0.0008 Ry au
 
        Potential amp.       -0.0743 Ry
        Total length         44.5928 bohr
 
 
     Magnetic moment per site:
     atom:    1    charge:    5.9847    magn:    0.2290    constr:    0.0000
     atom:    2    charge:    5.9850    magn:    0.2023    constr:    0.0000
     atom:    3    charge:    5.9842    magn:    0.2565    constr:    0.0000
     atom:    4    charge:    5.9844    magn:    0.2389    constr:    0.0000
     atom:    5    charge:    5.9785    magn:    0.3686    constr:    0.0000
     atom:    6    charge:    5.9811    magn:    0.4221    constr:    0.0000
     atom:    7    charge:    5.9791    magn:    0.3703    constr:    0.0000
     atom:    8    charge:    5.9794    magn:    0.3598    constr:    0.0000
     atom:    9    charge:    5.9913    magn:    0.4516    constr:    0.0000
     atom:   10    charge:    5.9935    magn:    0.6302    constr:    0.0000
     atom:   11    charge:    5.9951    magn:    0.6029    constr:    0.0000
     atom:   12    charge:    5.9936    magn:    0.6243    constr:    0.0000
     atom:   13    charge:    0.2995    magn:    0.0081    constr:    0.0000
     atom:   14    charge:    0.4015    magn:    0.0001    constr:    0.0000

     total cpu time spent up to now is      454.3 secs

     total energy              =   -2570.70768973 Ry
     Harris-Foulkes estimate   =   -2570.70687542 Ry
     estimated scf accuracy    <       0.08306949 Ry

     total magnetization       =    11.20 Bohr mag/cell
     absolute magnetization    =    11.43 Bohr mag/cell

     iteration # 29     ecut=    36.75 Ry     beta=0.30
     Davidson diagonalization with overlap
     ethr =  4.15E-05,  avg # of iterations =  1.0

     negative rho (up, down):  8.770E-04 7.596E-04
 
     Adding external electric field

     Computed dipole along edir(3) : 
        Dipole                0.2860 Ry au,          0.7269 Debye
        Dipole field          0.0010 Ry au
 
        Potential amp.       -0.0855 Ry
        Total length         44.5928 bohr
 
 
     Adding external electric field

     Computed dipole along edir(3) : 
        Dipole                0.2860 Ry au,          0.7269 Debye
        Dipole field          0.0010 Ry au
 
        Potential amp.       -0.0855 Ry
        Total length         44.5928 bohr
 
 
     Magnetic moment per site:
     atom:    1    charge:    5.9845    magn:    0.2182    constr:    0.0000
     atom:    2    charge:    5.9829    magn:    0.1907    constr:    0.0000
     atom:    3    charge:    5.9849    magn:    0.2477    constr:    0.0000
     atom:    4    charge:    5.9842    magn:    0.2290    constr:    0.0000
     atom:    5    charge:    5.9790    magn:    0.3505    constr:    0.0000
     atom:    6    charge:    5.9804    magn:    0.4080    constr:    0.0000
     atom:    7    charge:    5.9802    magn:    0.3524    constr:    0.0000
     atom:    8    charge:    5.9792    magn:    0.3410    constr:    0.0000
     atom:    9    charge:    5.9913    magn:    0.4545    constr:    0.0000
     atom:   10    charge:    5.9947    magn:    0.6438    constr:    0.0000
     atom:   11    charge:    5.9936    magn:    0.6155    constr:    0.0000
     atom:   12    charge:    5.9942    magn:    0.6375    constr:    0.0000
     atom:   13    charge:    0.2993    magn:    0.0084    constr:    0.0000
     atom:   14    charge:    0.4021    magn:    0.0002    constr:    0.0000

     total cpu time spent up to now is      464.5 secs

     total energy              =   -2570.70972102 Ry
     Harris-Foulkes estimate   =   -2570.70869482 Ry
     estimated scf accuracy    <       0.02710236 Ry

     total magnetization       =    11.11 Bohr mag/cell
     absolute magnetization    =    11.35 Bohr mag/cell

     iteration # 30     ecut=    36.75 Ry     beta=0.30
     Davidson diagonalization with overlap
     ethr =  1.45E-05,  avg # of iterations =  5.6

     negative rho (up, down):  1.075E-03 9.299E-04
 
     Adding external electric field

     Computed dipole along edir(3) : 
        Dipole                0.3010 Ry au,          0.7651 Debye
        Dipole field          0.0010 Ry au
 
        Potential amp.       -0.0900 Ry
        Total length         44.5928 bohr
 
 
     Adding external electric field

     Computed dipole along edir(3) : 
        Dipole                0.3010 Ry au,          0.7651 Debye
        Dipole field          0.0010 Ry au
 
        Potential amp.       -0.0900 Ry
        Total length         44.5928 bohr
 
 
     Magnetic moment per site:
     atom:    1    charge:    5.9842    magn:    0.2102    constr:    0.0000
     atom:    2    charge:    5.9824    magn:    0.1820    constr:    0.0000
     atom:    3    charge:    5.9848    magn:    0.2418    constr:    0.0000
     atom:    4    charge:    5.9846    magn:    0.2224    constr:    0.0000
     atom:    5    charge:    5.9788    magn:    0.3321    constr:    0.0000
     atom:    6    charge:    5.9810    magn:    0.3922    constr:    0.0000
     atom:    7    charge:    5.9788    magn:    0.3334    constr:    0.0000
     atom:    8    charge:    5.9794    magn:    0.3216    constr:    0.0000
     atom:    9    charge:    5.9915    magn:    0.4565    constr:    0.0000
     atom:   10    charge:    5.9946    magn:    0.6563    constr:    0.0000
     atom:   11    charge:    5.9942    magn:    0.6271    constr:    0.0000
     atom:   12    charge:    5.9942    magn:    0.6496    constr:    0.0000
     atom:   13    charge:    0.2992    magn:    0.0086    constr:    0.0000
     atom:   14    charge:    0.4027    magn:    0.0002    constr:    0.0000

     total cpu time spent up to now is      480.6 secs

     total energy              =   -2570.71398795 Ry
     Harris-Foulkes estimate   =   -2570.71278605 Ry
     estimated scf accuracy    <       0.06226460 Ry

     total magnetization       =    11.03 Bohr mag/cell
     absolute magnetization    =    11.28 Bohr mag/cell

     iteration # 31     ecut=    36.75 Ry     beta=0.30
     Davidson diagonalization with overlap
     ethr =  1.45E-05,  avg # of iterations =  2.4

     negative rho (up, down):  1.020E-03 8.666E-04
 
     Adding external electric field

     Computed dipole along edir(3) : 
        Dipole                0.3087 Ry au,          0.7845 Debye
        Dipole field          0.0010 Ry au
 
[...]
    -0.6579  -0.5193  -0.4834  -0.3959  -0.3869   0.0363   0.0813   0.1487
     0.4959   0.5495   0.6827   0.8024   0.8178   0.9717   1.0500   1.1312
     1.2940   1.3695   1.4385   1.4900   1.5322   1.5865   1.6610   1.7232
     1.7948   1.8144   1.8941   2.0394   2.0611   2.2097   2.3190   2.4356
     2.6262   2.6507   2.7590   2.8434   3.0216   3.1047   3.1505

          k = 0.0324-0.0935 0.0000 ( 14076 PWs)   bands (ev):

   -78.5541 -78.5315 -78.5107 -78.4950 -76.6100 -76.1514 -75.7339 -75.7257
   -75.7172 -75.7080 -75.7000 -75.6910 -47.3690 -47.3465 -47.3208 -47.3147
   -47.2979 -47.2919 -47.2535 -47.2073 -47.1596 -47.1152 -47.0713 -47.0444
   -45.4773 -45.4635 -45.1359 -44.9685 -44.9406 -44.9379 -44.6793 -44.6665
   -44.6018 -44.5830 -44.5401 -44.5231 -44.5214 -44.4875 -44.4776 -44.4506
   -44.4407 -44.4262 -44.4148 -44.4125 -44.4010 -44.3953 -44.3872 -44.3715
   -11.8498  -5.1376  -3.8844  -2.9473  -2.2606  -2.1331  -1.8912  -1.7422
    -1.5434  -1.4951  -1.2848  -1.2384  -1.1646  -1.1108  -1.0668  -0.8636
    -0.6580  -0.5200  -0.4809  -0.3968  -0.3877   0.0360   0.0841   0.1449
     0.4973   0.5464   0.6706   0.8088   0.8348   0.9705   1.0512   1.1302
     1.2743   1.3909   1.4355   1.4929   1.5220   1.5999   1.6458   1.7187
     1.7811   1.8368   1.8918   2.0328   2.0833   2.1931   2.3208   2.4271
     2.6200   2.6711   2.7464   2.8509   3.0341   3.1067   3.1356

          k = 0.0324-0.0561 0.0000 ( 14095 PWs)   bands (ev):

   -78.5639 -78.5241 -78.5093 -78.4938 -76.6102 -76.1519 -75.7421 -75.7331
   -75.7083 -75.7004 -75.6998 -75.6911 -47.3789 -47.3618 -47.3405 -47.3281
   -47.3254 -47.3137 -47.2954 -47.1560 -47.1022 -47.0928 -47.0740 -47.0207
   -45.4833 -45.4744 -45.1361 -44.9838 -44.9651 -44.9393 -44.7218 -44.7099
   -44.6108 -44.5762 -44.5657 -44.5223 -44.4752 -44.4507 -44.4478 -44.4403
   -44.4218 -44.4180 -44.4124 -44.4078 -44.4031 -44.3809 -44.3788 -44.3721
   -11.8595  -5.2898  -4.5656  -2.6864  -2.2913  -2.2774  -1.9657  -1.9162
    -1.8745  -1.8287  -1.6751  -1.2608  -1.2375  -1.1760  -1.1174  -0.8876
    -0.4097  -0.2708  -0.2542  -0.1845  -0.0029   0.2319   0.2559   0.3043
     0.4133   0.4299   0.4803   0.5341   0.6933   0.8969   0.9208   0.9263
     1.0791   1.4274   1.5110   1.6258   1.8021   1.8708   1.9342   1.9700
     2.0745   2.1235   2.2386   2.2763   2.3618   2.4438   2.5442   2.6516
     2.7052   2.8037   2.8631   2.9280   3.0236   3.1183   3.1620

          k = 0.0648-0.0374 0.0000 ( 14106 PWs)   bands (ev):

   -78.5616 -78.5223 -78.5144 -78.4929 -76.6101 -76.1518 -75.7402 -75.7312
   -75.7098 -75.7017 -75.7009 -75.6913 -47.3761 -47.3522 -47.3391 -47.3279
   -47.3198 -47.2945 -47.2930 -47.1512 -47.1384 -47.0998 -47.0753 -47.0231
   -45.4823 -45.4698 -45.1360 -44.9818 -44.9535 -44.9391 -44.7128 -44.6996
   -44.6024 -44.5739 -44.5592 -44.5206 -44.4759 -44.4738 -44.4549 -44.4470
   -44.4458 -44.4209 -44.4125 -44.4066 -44.4001 -44.3791 -44.3784 -44.3738
   -11.8563  -5.2281  -4.4078  -2.7113  -2.5346  -1.9573  -1.8661  -1.8373
    -1.7870  -1.7151  -1.6452  -1.3507  -1.1856  -1.1174  -1.0267  -1.0192
    -0.3773  -0.3469  -0.2505  -0.2332  -0.0246   0.0154   0.1085   0.1752
     0.4391   0.4661   0.6279   0.6518   0.7352   0.8583   0.9082   1.0929
     1.1132   1.4604   1.5331   1.5453   1.7330   1.7366   1.8193   1.8666
     1.9880   2.0322   2.0609   2.1349   2.3489   2.4526   2.4678   2.6866
     2.7722   2.8077   2.8348   2.9279   2.9861   3.0167   3.1128

          k = 0.0648-0.0000 0.0000 ( 14095 PWs)   bands (ev):

   -78.5639 -78.5241 -78.5093 -78.4938 -76.6102 -76.1519 -75.7421 -75.7332
   -75.7084 -75.7003 -75.6996 -75.6912 -47.3789 -47.3618 -47.3405 -47.3281
   -47.3254 -47.3137 -47.2954 -47.1560 -47.1022 -47.0928 -47.0740 -47.0207
   -45.4833 -45.4745 -45.1361 -44.9838 -44.9651 -44.9393 -44.7217 -44.7099
   -44.6107 -44.5763 -44.5657 -44.5222 -44.4752 -44.4506 -44.4478 -44.4402
   -44.4217 -44.4179 -44.4125 -44.4078 -44.4030 -44.3809 -44.3788 -44.3720
   -11.8595  -5.2898  -4.5656  -2.6864  -2.2913  -2.2774  -1.9657  -1.9162
    -1.8745  -1.8287  -1.6751  -1.2608  -1.2375  -1.1760  -1.1174  -0.8877
    -0.4097  -0.2708  -0.2542  -0.1845  -0.0029   0.2319   0.2559   0.3043
     0.4133   0.4299   0.4803   0.5341   0.6933   0.8969   0.9208   0.9263
     1.0791   1.4274   1.5110   1.6258   1.8021   1.8708   1.9342   1.9700
     2.0745   2.1235   2.2386   2.2764   2.3618   2.4438   2.5441   2.6516
     2.7052   2.8037   2.8631   2.9280   3.0236   3.1183   3.1620

          k = 0.0648 0.0374 0.0000 ( 14106 PWs)   bands (ev):

   -78.5605 -78.5296 -78.5028 -78.4983 -76.6101 -76.1518 -75.7398 -75.7312
   -75.7114 -75.7017 -75.6998 -75.6913 -47.3761 -47.3501 -47.3412 -47.3323
   -47.3076 -47.3023 -47.2926 -47.1536 -47.1402 -47.0984 -47.0709 -47.0252
   -45.4840 -45.4681 -45.1360 -44.9831 -44.9521 -44.9392 -44.7119 -44.6996
   -44.6015 -44.5733 -44.5606 -44.5215 -44.4773 -44.4738 -44.4550 -44.4476
   -44.4457 -44.4211 -44.4127 -44.4055 -44.3984 -44.3829 -44.3782 -44.3707
   -11.8563  -5.2283  -4.4076  -2.7122  -2.5327  -1.9605  -1.8623  -1.8420
    -1.7960  -1.6918  -1.6552  -1.3526  -1.1866  -1.1176  -1.0230  -1.0206
    -0.3790  -0.3436  -0.2493  -0.2321  -0.0229   0.0113   0.1282   0.1516
     0.4196   0.4861   0.6292   0.6543   0.7319   0.8644   0.9014   1.0695
     1.1454   1.4214   1.4936   1.6689   1.7215   1.7325   1.7993   1.8388
     1.9468   2.0393   2.1214   2.1397   2.3385   2.4453   2.4681   2.7268
     2.7528   2.7752   2.8643   2.9180   2.9397   3.0364   3.0874

          k = 0.0648-0.1496 0.0000 ( 14076 PWs)   bands (ev):

   -78.5533 -78.5338 -78.5075 -78.4965 -76.6100 -76.1514 -75.7336 -75.7257
   -75.7178 -75.7079 -75.6997 -75.6910 -47.3684 -47.3492 -47.3181 -47.3114
   -47.3007 -47.2922 -47.2520 -47.2131 -47.1552 -47.1154 -47.0717 -47.0445
   -45.4779 -45.4630 -45.1359 -44.9690 -44.9400 -44.9380 -44.6793 -44.6666
   -44.6000 -44.5819 -44.5420 -44.5251 -44.5226 -44.4883 -44.4755 -44.4494
   -44.4408 -44.4260 -44.4147 -44.4126 -44.4000 -44.3954 -44.3887 -44.3708
   -11.8498  -5.1376  -3.8843  -2.9474  -2.2591  -2.1354  -1.8942  -1.7354
    -1.5464  -1.4926  -1.2917  -1.2410  -1.1567  -1.1119  -1.0657  -0.8640
    -0.6579  -0.5193  -0.4834  -0.3959  -0.3869   0.0363   0.0813   0.1487
     0.4959   0.5494   0.6827   0.8024   0.8178   0.9717   1.0500   1.1312
     1.2940   1.3695   1.4384   1.4900   1.5322   1.5865   1.6610   1.7233
     1.7948   1.8144   1.8941   2.0394   2.0612   2.2097   2.3190   2.4356
     2.6262   2.6507   2.7590   2.8434   3.0216   3.1047   3.1505

          k = 0.0648-0.1122 0.0000 ( 14088 PWs)   bands (ev):

   -78.5506 -78.5307 -78.5165 -78.4935 -76.6099 -76.1512 -75.7263 -75.7250
   -75.7198 -75.7143 -75.6999 -75.6908 -47.3658 -47.3447 -47.3190 -47.2974
   -47.2781 -47.2718 -47.2315 -47.2313 -47.2176 -47.0859 -47.0784 -47.0714
   -45.4688 -45.4665 -45.1358 -44.9488 -44.9463 -44.9387 -44.6275 -44.6269
   -44.6220 -44.6038 -44.5826 -44.5620 -44.4846 -44.4827 -44.4545 -44.4525
   -44.4394 -44.4352 -44.4315 -44.4240 -44.4115 -44.3959 -44.3922 -44.3717
   -11.8465  -5.1050  -3.0804  -3.0690  -2.9485  -1.9534  -1.9516  -1.7453
    -1.3407  -1.3315  -1.1720  -1.1031  -0.9653  -0.8778  -0.8730  -0.8045
    -0.7874  -0.7835  -0.7740  -0.7357  -0.7327   0.2266   0.2570   0.2818
     0.4360   0.4537   0.4722   0.7950   0.9076   0.9141   1.1571   1.2497
     1.3244   1.3597   1.4206   1.4624   1.5820   1.6140   1.6365   1.6579
     1.6748   1.7059   1.8097   1.8139   1.9960   2.0296   2.0945   2.4576
     2.4836   2.6032   2.6866   2.6977   3.0642   3.0998   3.1301

          k = 0.0648-0.0748 0.0000 ( 14076 PWs)   bands (ev):

   -78.5555 -78.5240 -78.5189 -78.4929 -76.6100 -76.1514 -75.7344 -75.7257
   -75.7162 -75.7079 -75.7005 -75.6910 -47.3704 -47.3378 -47.3260 -47.3227
   -47.2955 -47.2903 -47.2505 -47.2088 -47.1569 -47.1152 -47.0766 -47.0414
   -45.4759 -45.4649 -45.1359 -44.9675 -44.9418 -44.9377 -44.6805 -44.6668
   -44.6010 -44.5826 -44.5400 -44.5232 -44.5216 -44.4874 -44.4761 -44.4495
   -44.4408 -44.4260 -44.4161 -44.4124 -44.4024 -44.3962 -44.3842 -44.3730
   -11.8498  -5.1375  -3.8847  -2.9474  -2.2610  -2.1332  -1.8883  -1.7434
    -1.5407  -1.4989  -1.2871  -1.2379  -1.1606  -1.1104  -1.0684  -0.8641
    -0.6592  -0.5194  -0.4834  -0.3974  -0.3846   0.0071   0.1137   0.1468
     0.4994   0.5436   0.6764   0.8147   0.8233   0.9648   1.0490   1.1340
     1.2812   1.3784   1.4192   1.4963   1.5587   1.6036   1.6738   1.6816
     1.7576   1.8372   1.9022   2.0395   2.0805   2.2012   2.3111   2.4189
     2.6211   2.6708   2.7545   2.8380   3.0531   3.1049   3.1675

          k =-0.0971 0.0561 0.0000 ( 14098 PWs)   bands (ev):

   -78.5554 -78.5244 -78.5185 -78.4929 -76.6100 -76.1514 -75.7348 -75.7260
   -75.7154 -75.7073 -75.7009 -75.6913 -47.3707 -47.3333 -47.3310 -47.3274
   -47.3042 -47.2950 -47.2083 -47.1879 -47.1765 -47.1593 -47.0623 -47.0365
   -45.4792 -45.4616 -45.1358 -44.9739 -44.9397 -44.9317 -44.6927 -44.6790
   -44.5538 -44.5524 -44.5478 -44.5239 -44.5233 -44.5121 -44.5061 -44.4648
   -44.4410 -44.4258 -44.4124 -44.4034 -44.4030 -44.3842 -44.3824 -44.3740
   -11.8498  -5.1321  -3.6290  -3.4977  -2.2367  -1.9653  -1.6645  -1.6041
    -1.5095  -1.3758  -1.3758  -1.3177  -1.2129  -1.1268  -1.0964  -1.0517
    -0.5503  -0.5370  -0.3855  -0.3403  -0.2792  -0.2379  -0.1130   0.0147
     0.7246   0.7478   0.7973   0.8248   0.8619   0.9627   1.1567   1.1701
     1.2498   1.2871   1.3441   1.4325   1.4909   1.5274   1.5821   1.7009
     1.7217   1.7524   1.8209   2.0438   2.1705   2.1783   2.4018   2.5598
     2.6538   2.6898   2.8062   2.9283   3.0156   3.0995   3.1255

          k =-0.0971 0.0935 0.0000 ( 14076 PWs)   bands (ev):

   -78.5555 -78.5240 -78.5189 -78.4929 -76.6100 -76.1514 -75.7344 -75.7258
   -75.7162 -75.7078 -75.7005 -75.6911 -47.3704 -47.3378 -47.3260 -47.3227
   -47.2954 -47.2903 -47.2505 -47.2088 -47.1569 -47.1152 -47.0766 -47.0414
   -45.4759 -45.4649 -45.1359 -44.9675 -44.9418 -44.9377 -44.6805 -44.6668
   -44.6010 -44.5827 -44.5401 -44.5232 -44.5214 -44.4873 -44.4761 -44.4496
   -44.4409 -44.4259 -44.4161 -44.4124 -44.4024 -44.3962 -44.3842 -44.3730
   -11.8498  -5.1375  -3.8847  -2.9474  -2.2610  -2.1332  -1.8883  -1.7434
    -1.5407  -1.4988  -1.2871  -1.2379  -1.1606  -1.1104  -1.0684  -0.8641
    -0.6592  -0.5194  -0.4834  -0.3974  -0.3846   0.0071   0.1137   0.1468
     0.4994   0.5436   0.6764   0.8147   0.8234   0.9648   1.0490   1.1340
     1.2812   1.3784   1.4192   1.4963   1.5587   1.6036   1.6738   1.6816
     1.7576   1.8372   1.9022   2.0395   2.0805   2.2012   2.3111   2.4189
     2.6211   2.6708   2.7545   2.8380   3.0531   3.1049   3.1675

          k =-0.0971 0.1309 0.0000 ( 14076 PWs)   bands (ev):

   -78.5541 -78.5315 -78.5107 -78.4950 -76.6100 -76.1514 -75.7339 -75.7257
   -75.7173 -75.7078 -75.6999 -75.6910 -47.3690 -47.3465 -47.3208 -47.3147
   -47.2979 -47.2919 -47.2535 -47.2073 -47.1596 -47.1152 -47.0713 -47.0444
   -45.4773 -45.4636 -45.1359 -44.9685 -44.9406 -44.9379 -44.6793 -44.6666
   -44.6018 -44.5830 -44.5401 -44.5232 -44.5213 -44.4874 -44.4776 -44.4505
   -44.4408 -44.4261 -44.4147 -44.4126 -44.4009 -44.3954 -44.3872 -44.3714
   -11.8498  -5.1376  -3.8844  -2.9473  -2.2606  -2.1331  -1.8912  -1.7422
    -1.5434  -1.4951  -1.2848  -1.2384  -1.1646  -1.1108  -1.0668  -0.8636
    -0.6580  -0.5200  -0.4809  -0.3968  -0.3877   0.0360   0.0840   0.1449
     0.4973   0.5464   0.6706   0.8088   0.8349   0.9705   1.0512   1.1302
     1.2743   1.3909   1.4355   1.4929   1.5220   1.5999   1.6458   1.7187
     1.7811   1.8368   1.8918   2.0328   2.0833   2.1932   2.3209   2.4271
     2.6200   2.6711   2.7464   2.8509   3.0342   3.1066   3.1356

          k =-0.0971-0.0561 0.0000 ( 14098 PWs)   bands (ev):

   -78.5524 -78.5362 -78.5030 -78.4997 -76.6100 -76.1514 -75.7337 -75.7260
   -75.7176 -75.7074 -75.6998 -75.6913 -47.3675 -47.3514 -47.3197 -47.3126
   -47.3055 -47.3023 -47.2128 -47.1933 -47.1710 -47.1598 -47.0495 -47.0470
   -45.4809 -45.4598 -45.1358 -44.9753 -44.9392 -44.9308 -44.6910 -44.6786
   -44.5550 -44.5515 -44.5477 -44.5247 -44.5238 -44.5134 -44.5068 -44.4659
   -44.4409 -44.4259 -44.4126 -44.4019 -44.3999 -44.3886 -44.3831 -44.3708
   -11.8498  -5.1323  -3.6272  -3.4990  -2.2332  -1.9740  -1.6459  -1.6242
    -1.4974  -1.3843  -1.3741  -1.3184  -1.2087  -1.1270  -1.1087  -1.0418
    -0.5454  -0.5386  -0.3704  -0.3551  -0.2802  -0.2395  -0.0733  -0.0296
     0.7462   0.7652   0.7846   0.7976   0.8733   0.9404   1.1545   1.1718
     1.2534   1.2916   1.3979   1.4351   1.4684   1.5015   1.5670   1.6740
     1.7322   1.7829   1.8316   2.0452   2.1436   2.1713   2.4413   2.5973
     2.6227   2.6660   2.8762   2.9124   2.9348   3.0358   3.1663

     the Fermi energy is     1.8844 ev

!    total energy              =   -2570.87953862 Ry
     Harris-Foulkes estimate   =   -2570.87953889 Ry
     estimated scf accuracy    <       0.00000005 Ry

     The total energy is the sum of the following terms:

     one-electron contribution =  -23049.83641234 Ry
     hartree contribution      =   11527.42774637 Ry
     xc contribution           =    -340.18004425 Ry
     ewald contribution        =    9291.81352843 Ry
     electric field correction =       0.00015752 Ry
     smearing contrib. (-TS)   =      -0.10451434 Ry

     total magnetization       =    11.14 Bohr mag/cell
     absolute magnetization    =    27.50 Bohr mag/cell

     convergence has been achieved in  20 iterations
 
 BEEF-vdW xc energy contributions
           1 :   -296.445134091885     
           2 :    267.571084961768     
           3 :   -219.328404338624     
           4 :    165.913105871456     
           5 :   -119.895941618305     
           6 :    87.8155356785146     
           7 :   -69.3274806960846     
           8 :    59.4942471646776     
           9 :   -52.4317825492154     
          10 :    44.2930941958206     
          11 :   -34.3493505934847     
          12 :    24.1411569045634     
          13 :   -15.7000453333964     
          14 :    10.0969595126371     
          15 :   -7.04016899610860     
          16 :    5.40313090673823     
          17 :   -4.05986970631511     
          18 :    2.44057204027411     
          19 :  -0.594840933141427     
          20 :   -1.09967086517401     
          21 :    2.29203176098275     
          22 :   -2.85916455611914     
          23 :    2.90991749412058     
          24 :   -2.68740139361557     
          25 :    2.46651664539814     
          26 :   -2.47321490975361     
          27 :    2.80654243793668     
          28 :   -3.38277664211648     
          29 :    3.95662049973686     
          30 :   -4.24816946880560     
          31 :   -27.4483258155701     
          32 :   -19.4691047204709     

     Forces acting on atoms (Ry/au):


     negative rho (up, down):  1.755E-03 1.592E-03
     atom    1 type  1   force =    -0.00000805   -0.00152246    0.00738301
     atom    2 type  1   force =    -0.00002613    0.00001378    0.03169332
     atom    3 type  1   force =     0.00131372    0.00076914    0.00738587
     atom    4 type  1   force =    -0.00117540    0.00067932    0.00664328
     atom    5 type  1   force =    -0.00411618   -0.00110956   -0.01500410
     atom    6 type  1   force =     0.00405274   -0.00233545   -0.01402196
     atom    7 type  1   force =    -0.00109529    0.00411693   -0.01500844
     atom    8 type  1   force =     0.00118428   -0.00068738   -0.01223643
     atom    9 type  1   force =     0.00022346   -0.00013508    0.00110036
     atom   10 type  1   force =    -0.00001066   -0.00156839    0.00023478
     atom   11 type  1   force =    -0.00139871    0.00080908    0.00020585
     atom   12 type  1   force =     0.00134941    0.00079219    0.00022874
     atom   13 type  2   force =    -0.00059285    0.00035857    0.00040341
     atom   14 type  3   force =     0.00029965   -0.00018068    0.00099232

     Total force =     0.003271     Total SCF correction =     0.000127


     entering subroutine stress ...


     negative rho (up, down):  1.755E-03 1.592E-03
          total   stress  (Ry/bohr**3)                   (kbar)     P=  -13.62
  -0.00010545   0.00000003  -0.00000034        -15.51      0.00     -0.05
   0.00000003  -0.00010541   0.00000020          0.00    -15.51      0.03
  -0.00000034   0.00000020  -0.00006700         -0.05      0.03     -9.86


     bfgs converged in  10 scf cycles and   9 bfgs steps
     (criteria: energy <  1.0E+00, force <  1.9E-03)

     End of BFGS Geometry Optimization

     Final energy   =   -2570.8795386160 Ry
Begin final coordinates

ATOMIC_POSITIONS (crystal)
Mn1      0.166666667   0.166666667   0.413179627    0   0   0
Mn1      0.666666667   0.166666667   0.413179627    0   0   0
Mn1      0.166666667   0.666666667   0.413179627    0   0   0
Mn1      0.666666667   0.666666667   0.413179627    0   0   0
Mn1      0.833333333   0.333333333   0.500000000    0   0   0
Mn1      0.333333333   0.333333333   0.500000000    0   0   0
Mn1      0.833333333   0.833333333   0.500000000    0   0   0
Mn1      0.333333333   0.833333333   0.500000000    0   0   0
Mn1     -0.000059352   0.000025644   0.582211580
Mn1      0.498519760   0.002951629   0.584427915
Mn1      0.002770098   0.498613570   0.584364130
Mn1      0.498520830   0.498528069   0.584430322
S1      -0.000765043   0.000396308   0.673252627
H1       0.000398610  -0.000205031   0.729019699
End final coordinates



     Writing output data file calc.save
 
     init_run     :      6.28s CPU      6.50s WALL (       1 calls)
     electrons    :  10692.31s CPU  10919.03s WALL (      10 calls)
     update_pot   :      5.73s CPU      5.96s WALL (       9 calls)
     forces       :     31.32s CPU     31.82s WALL (      10 calls)
     stress       :    101.35s CPU    101.87s WALL (      10 calls)

     Called by init_run:
     wfcinit      :      5.01s CPU      5.15s WALL (       1 calls)
     potinit      :      0.40s CPU      0.45s WALL (       1 calls)

     Called by electrons:
     c_bands      :   9005.36s CPU   9176.28s WALL (     663 calls)
     sum_band     :   1185.87s CPU   1214.23s WALL (     663 calls)
     v_of_rho     :    165.64s CPU    186.76s WALL (     673 calls)
     newd         :    249.55s CPU    250.39s WALL (     673 calls)
     mix_rho      :     10.21s CPU     10.98s WALL (     663 calls)
     vdW_energy   :     46.61s CPU     54.78s WALL (    1033 calls)
     vdW_ffts     :     57.93s CPU     64.65s WALL (    2086 calls)
     vdW_v        :     29.32s CPU     30.31s WALL (    1033 calls)

     Called by c_bands:
     init_us_2    :     54.59s CPU     55.64s WALL (   53880 calls)
     cegterg      :   8645.57s CPU   8813.97s WALL (   26520 calls)

     Called by *egterg:
     h_psi        :   3550.94s CPU   3648.39s WALL (  144077 calls)
     s_psi        :    425.84s CPU    426.73s WALL (  144077 calls)
     g_psi        :     16.58s CPU     16.72s WALL (  117517 calls)
     cdiaghg      :   2742.76s CPU   2794.52s WALL (  143677 calls)

     Called by h_psi:
     add_vuspsi   :    436.89s CPU    438.20s WALL (  144077 calls)

     General routines
     calbec       :    671.38s CPU    710.68s WALL (  171397 calls)
     fft          :    131.54s CPU    144.08s WALL (   78053 calls)
     ffts         :      1.34s CPU      1.42s WALL (    2672 calls)
     fftw         :   2631.80s CPU   2700.58s WALL (16119756 calls)
     interpolate  :      5.77s CPU      6.41s WALL (    2672 calls)
     davcio       :      0.01s CPU      0.03s WALL (      40 calls)
 
     Parallel routines
     fft_scatter  :   1206.10s CPU   1249.38s WALL (16200481 calls)
 
     PWSCF        :     3h 0m CPU        3h 4m WALL

 
   This run was terminated on:  14: 3:56  16Jul2018            

=------------------------------------------------------------------------------=
   JOB DONE.
=------------------------------------------------------------------------------=
