  python dir          : /u/if/mamunm/src/espresso
  espresso dir        : /nfs/slac/g/suncatfs/sw/espv18/espresso-dynpy-beef/bin
  pseudo dir          : /u/if/mamunm/psp/gbrv1.5pbe
  ase-espresso py git : GITVERSION



     Program PWSCF v.5.1rc2 (svn rev. 11289) starts on  2May2018 at 16: 0:23 

     This program is part of the open-source Quantum ESPRESSO suite
     for quantum simulation of materials; please cite
         "P. Giannozzi et al., J. Phys.:Condens. Matter 21 395502 (2009);
          URL http://www.quantum-espresso.org", 
     in publications or presentations arising from this work. More details at
     http://www.quantum-espresso.org/quote

     Parallel version (MPI), running on    32 processors
     K-points division:     npool     =       4
     R & G space division:  proc/nbgrp/npool/nimage =       8
     Reading input from pw.inp
     Message from routine read_cards :
     DEPRECATED: no units specified in CELL_PARAMETERS card

     Current dimensions of program PWSCF are:
     Max number of different atomic species (ntypx) = 10
     Max number of k-points (npk) =  40000
     Max angular momentum in pseudopotentials (lmaxx) =  3
     Presently stress not available with electric field


     **************************************************************************
     Initializing libbeef V0.1.1 with the BEEF-vdW functional.
     Citation: Wellendorff et al., PRB 85, 235149 (2012).
     **************************************************************************


     IMPORTANT: XC functional enforced from input :
     Exchange-correlation      = BEEF-VDW ( 1  4 27 13 2)
     Any further DFT definition will be discarded
     Please, verify this is what you really want


     Subspace diagonalization in iterative solution of the eigenvalue problem:
     a serial algorithm will be used

 
     Parallelization info
     --------------------
     sticks:   dense  smooth     PW     G-vecs:    dense   smooth      PW
     Min         339     133     39                63987    16111    2561
     Max         340     134     40                64016    16172    2582
     Sum        2713    1069    313               511963   129143   20533
 


     bravais-lattice index     =            0
     lattice parameter (alat)  =       1.8897  a.u.
     unit-cell volume          =    4301.6107 (a.u.)^3
     number of atoms/cell      =           13
     number of atomic types    =            2
     number of electrons       =       184.00
     number of Kohn-Sham states=          102
     kinetic-energy cutoff     =      36.7493  Ry
     charge density cutoff     =     367.4932  Ry
     convergence threshold     =      1.0E-05
     mixing beta               =       0.3000
     number of iterations used =           10  plain     mixing
     Exchange-correlation      = BEEF-VDW ( 1  4 27 13 2)
     nstep                     =           50


     celldm(1)=   1.889726  celldm(2)=   0.000000  celldm(3)=   0.000000
     celldm(4)=   0.000000  celldm(5)=   0.000000  celldm(6)=   0.000000

     crystal axes: (cart. coord. in units of alat)
               a(1) = (   5.483647   0.000000   0.000000 )  
               a(2) = (   2.741823   4.748977   0.000000 )  
               a(3) = (   0.000000   0.000000  24.477379 )  

     reciprocal axes: (cart. coord. in units 2 pi/alat)
               b(1) = (  0.182360 -0.105286  0.000000 )  
               b(2) = (  0.000000  0.210572  0.000000 )  
               b(3) = (  0.000000  0.000000  0.040854 )  


     PseudoPot. # 1 for Tc read from file:
     /u/if/mamunm/psp/gbrv1.5pbe/Tc.UPF
     MD5 check sum: 9eb49e5b028550b2339a02317eb7b844
     Pseudo is Ultrasoft + core correction, Zval = 15.0
     Generated by new atomic code, or converted to UPF format
     Using radial grid of  965 points,  6 beta functions with: 
                l(1) =   0
                l(2) =   0
                l(3) =   1
                l(4) =   1
                l(5) =   2
                l(6) =   2
     Q(r) pseudized with  8 coefficients,  rinner =    1.300   1.300   1.300
                                                       1.300   1.300

     PseudoPot. # 2 for C  read from file:
     /u/if/mamunm/psp/gbrv1.5pbe/C.UPF
     MD5 check sum: d1aef80898a10debaa0f26306b886e00
     Pseudo is Ultrasoft + core correction, Zval =  4.0
     Generated by new atomic code, or converted to UPF format
     Using radial grid of  721 points,  4 beta functions with: 
                l(1) =   0
                l(2) =   0
                l(3) =   1
                l(4) =   1
     Q(r) pseudized with  8 coefficients,  rinner =    1.100   1.100   1.100


     vdW kernel table read from file vdW_kernel_table
     MD5 check sum: 095c7af220d748ca6e76c0b4c6cfb241

     atomic species   valence    mass     pseudopotential
        Tc1           15.00    97.90721     Tc( 1.00)
        C1             4.00    12.01100     C ( 1.00)

     No symmetry found



   Cartesian axes

     site n.     atom                  positions (alat units)
         1           Tc1 tau(   1) = (   1.3709117   0.7914962  10.0000000  )
         2           Tc1 tau(   2) = (   4.1127351   0.7914962  10.0000000  )
         3           Tc1 tau(   3) = (   2.7418234   3.1659850  10.0000000  )
         4           Tc1 tau(   4) = (   5.4836469   3.1659850  10.0000000  )
         5           Tc1 tau(   5) = (   5.4836469   1.5829925  12.2386895  )
         6           Tc1 tau(   6) = (   2.7418234   1.5829925  12.2386895  )
         7           Tc1 tau(   7) = (   6.8545586   3.9574812  12.2386895  )
         8           Tc1 tau(   8) = (   4.1127351   3.9574812  12.2386895  )
         9           Tc1 tau(   9) = (   0.0000000   0.0000000  14.4773789  )
        10           Tc1 tau(  10) = (   2.7418234   0.0000000  14.4773789  )
        11           Tc1 tau(  11) = (   1.3709117   2.3744887  14.4773789  )
        12           Tc1 tau(  12) = (   4.1127351   2.3744887  14.4773789  )
        13           C1  tau(  13) = (   1.3709117   0.7914962  15.9268789  )

     number of k points=    20  Fermi-Dirac smearing, width (Ry)=  0.0110
                       cart. coord. in units 2pi/alat
        k(    1) = (   0.0000000   0.0000000   0.0000000), wk =   0.0555556
        k(    2) = (   0.0000000   0.0350953   0.0000000), wk =   0.1111111
        k(    3) = (   0.0000000   0.0701905   0.0000000), wk =   0.1111111
        k(    4) = (   0.0000000  -0.1052858   0.0000000), wk =   0.0555556
        k(    5) = (   0.0303934  -0.0175476   0.0000000), wk =   0.1111111
        k(    6) = (   0.0303934   0.0175476   0.0000000), wk =   0.1111111
        k(    7) = (   0.0303934   0.0526429   0.0000000), wk =   0.1111111
        k(    8) = (   0.0303934  -0.1228335   0.0000000), wk =   0.1111111
        k(    9) = (   0.0303934  -0.0877382   0.0000000), wk =   0.1111111
        k(   10) = (   0.0303934  -0.0526429   0.0000000), wk =   0.1111111
        k(   11) = (   0.0607868  -0.0350953   0.0000000), wk =   0.1111111
        k(   12) = (   0.0607868   0.0000000   0.0000000), wk =   0.1111111
        k(   13) = (   0.0607868   0.0350953   0.0000000), wk =   0.1111111
        k(   14) = (   0.0607868  -0.1403811   0.0000000), wk =   0.1111111
        k(   15) = (   0.0607868  -0.1052858   0.0000000), wk =   0.1111111
        k(   16) = (   0.0607868  -0.0701905   0.0000000), wk =   0.1111111
        k(   17) = (  -0.0911802   0.0526429   0.0000000), wk =   0.0555556
        k(   18) = (  -0.0911802   0.0877382   0.0000000), wk =   0.1111111
        k(   19) = (  -0.0911802   0.1228335   0.0000000), wk =   0.1111111
        k(   20) = (  -0.0911802  -0.0526429   0.0000000), wk =   0.0555556

     Dense  grid:   511963 G-vectors     FFT dimensions: (  64,  64, 288)

     Smooth grid:   129143 G-vectors     FFT dimensions: (  40,  40, 180)

     Largest allocated arrays     est. size (Mb)     dimensions
        Kohn-Sham Wavefunctions         3.18 Mb     (    2045,  102)
        NL pseudopotentials             6.99 Mb     (    2045,  224)
        Each V/rho on FFT grid          2.25 Mb     (  147456)
        Each G-vector array             0.49 Mb     (   63995)
        G-vector shells                 0.13 Mb     (   17029)
     Largest temporary arrays     est. size (Mb)     dimensions
        Auxiliary wavefunctions        12.73 Mb     (    2045,  408)
        Each subspace H/S matrix        2.54 Mb     (     408,  408)
        Each <psi_i|beta_j> matrix      0.35 Mb     (     224,  102)
        Arrays for rho mixing          22.50 Mb     (  147456,   10)

     Check: negative/imaginary core charge=   -0.000022    0.000000

     Initial potential from superposition of free atoms
     Check: negative starting charge=   -1.504774

     starting charge  171.99963, renormalised to  184.00000

     negative rho (up, down):  1.610E+00 0.000E+00


     ************************************************************************
     *
     * You are using vdW-DF for exchange-correlation in this calculation.
     * Please cite the following three references that made this development
     * possible:
     *
     *   M. Dion, H. Rydberg, E. Schroder, D. C. Langreth, and
     *   B. I. Lundqvist, Phys. Rev. Lett. 92, 246401 (2004).
     *
     *   T. Thonhauser, V. R. Cooper, S. Li, A. Puzder, P. Hyldgaard, and
     *   D. C. Langreth, Phys. Rev. B 76, 125112 (2007).
     *
     *   G. Roman-Perez and J. M. Soler, Phys. Rev. Lett. 103, 096102 (2009).
     *
     *
     * If you are using vdW-DF2, please also cite:
     *
     *   K. Lee, E. D. Murray, L. Kong, B. I. Lundqvist, and
     *   D. C. Langreth, Phys. Rev. B 82, 081101(R) (2010).
     *
     *
     * If you are calculating the stress with vdW-DF, please also cite:
     *
     *   R. Sabatini, E. Kucukbenli, B. Kolb, T. Thonhauser, and
     *   S. de Gironcoli, J. Phys.: Condens. Matter 24, 424209 (2012).
     *
     ************************************************************************

     Carrying out vdW-DF run using the following parameters:

     Nqs =      20    Nr_points =    1024   r_max =   100.000
     q_mesh =
               0.00001000     0.04494208     0.09755937     0.15916263
               0.23128650     0.31572767     0.41458969     0.53033537
               0.66584808     0.82450364     1.01025438     1.22772762
               1.48234092     1.78043706     2.12944203     2.53805004
               3.01644009     3.57652955     4.23227104     5.00000000

     Gradients computed in reciprocal space

     ************************************************************************


 
     Adding external electric field

     Computed dipole along edir(3) : 
        Dipole               -1.9448 Ry au,         -4.9432 Debye
        Dipole field         -0.0057 Ry au
 
        Potential amp.        0.5124 Ry
        Total length         45.0992 bohr
 
     Starting wfc are  160 randomized atomic wfcs

     total cpu time spent up to now is       10.3 secs

     per-process dynamical memory:    74.2 Mb

     Self-consistent Calculation

     iteration #  1     ecut=    36.75 Ry     beta=0.30
     Davidson diagonalization with overlap
     ethr =  1.00E-02,  avg # of iterations =  3.4

     negative rho (up, down):  1.602E+00 0.000E+00
 
     Adding external electric field

     Computed dipole along edir(3) : 
        Dipole               32.6367 Ry au,         82.9542 Debye
        Dipole field          0.0953 Ry au
 
        Potential amp.       -8.5997 Ry
        Total length         45.0992 bohr
 

     total cpu time spent up to now is       27.3 secs

     total energy              =   -2043.70609042 Ry
     Harris-Foulkes estimate   =   -2118.28275390 Ry
     estimated scf accuracy    <     156.00882457 Ry

     iteration #  2     ecut=    36.75 Ry     beta=0.30
     Davidson diagonalization with overlap
     ethr =  1.00E-02,  avg # of iterations = 14.7

     negative rho (up, down):  1.587E+00 0.000E+00
 
     Adding external electric field

     Computed dipole along edir(3) : 
        Dipole               -0.8983 Ry au,         -2.2833 Debye
        Dipole field         -0.0026 Ry au
 
        Potential amp.        0.2367 Ry
        Total length         45.0992 bohr
 

     total cpu time spent up to now is       66.0 secs

     total energy              =   -1930.16626859 Ry
     Harris-Foulkes estimate   =   -2482.81751733 Ry
     estimated scf accuracy    <   11145.97360102 Ry

     iteration #  3     ecut=    36.75 Ry     beta=0.30
     Davidson diagonalization with overlap
     ethr =  1.00E-02,  avg # of iterations =  8.2

     negative rho (up, down):  1.592E+00 0.000E+00
 
     Adding external electric field

     Computed dipole along edir(3) : 
        Dipole                1.5384 Ry au,          3.9102 Debye
        Dipole field          0.0045 Ry au
 
        Potential amp.       -0.4054 Ry
        Total length         45.0992 bohr
 

     total cpu time spent up to now is       96.3 secs

     total energy              =   -2109.20320031 Ry
     Harris-Foulkes estimate   =   -2174.38243443 Ry
     estimated scf accuracy    <     804.71674082 Ry

     iteration #  4     ecut=    36.75 Ry     beta=0.30
     Davidson diagonalization with overlap
     ethr =  1.00E-02,  avg # of iterations =  5.8

     negative rho (up, down):  1.651E+00 0.000E+00
 
     Adding external electric field

     Computed dipole along edir(3) : 
        Dipole                1.8836 Ry au,          4.7877 Debye
        Dipole field          0.0055 Ry au
 
        Potential amp.       -0.4963 Ry
        Total length         45.0992 bohr
 

     total cpu time spent up to now is      116.6 secs

     total energy              =   -2109.34122929 Ry
     Harris-Foulkes estimate   =   -2118.99060410 Ry
     estimated scf accuracy    <     190.63270634 Ry

     iteration #  5     ecut=    36.75 Ry     beta=0.30
     Davidson diagonalization with overlap
     ethr =  1.00E-02,  avg # of iterations =  5.2

     negative rho (up, down):  1.588E+00 0.000E+00
 
     Adding external electric field

     Computed dipole along edir(3) : 
        Dipole                0.3417 Ry au,          0.8686 Debye
        Dipole field          0.0010 Ry au
 
        Potential amp.       -0.0900 Ry
        Total length         45.0992 bohr
 

     total cpu time spent up to now is      136.0 secs

     total energy              =   -2112.19650042 Ry
     Harris-Foulkes estimate   =   -2116.94433800 Ry
     estimated scf accuracy    <     104.71419345 Ry

     iteration #  6     ecut=    36.75 Ry     beta=0.30
     Davidson diagonalization with overlap
     ethr =  1.00E-02,  avg # of iterations =  4.8

     negative rho (up, down):  1.588E+00 0.000E+00
 
     Adding external electric field

     Computed dipole along edir(3) : 
        Dipole               -0.5492 Ry au,         -1.3960 Debye
        Dipole field         -0.0016 Ry au
 
        Potential amp.        0.1447 Ry
        Total length         45.0992 bohr
 

     total cpu time spent up to now is      152.2 secs

     total energy              =   -2114.58068729 Ry
     Harris-Foulkes estimate   =   -2115.57996158 Ry
     estimated scf accuracy    <      35.92038671 Ry

     iteration #  7     ecut=    36.75 Ry     beta=0.30
     Davidson diagonalization with overlap
     ethr =  1.00E-02,  avg # of iterations =  1.3

     negative rho (up, down):  1.588E+00 0.000E+00
 
     Adding external electric field

     Computed dipole along edir(3) : 
        Dipole               -0.7117 Ry au,         -1.8089 Debye
        Dipole field         -0.0021 Ry au
 
        Potential amp.        0.1875 Ry
        Total length         45.0992 bohr
 

     total cpu time spent up to now is      166.5 secs

     total energy              =   -2114.64052987 Ry
     Harris-Foulkes estimate   =   -2115.17755902 Ry
     estimated scf accuracy    <      11.55104705 Ry

     iteration #  8     ecut=    36.75 Ry     beta=0.30
     Davidson diagonalization with overlap
     ethr =  6.28E-03,  avg # of iterations =  1.1

     negative rho (up, down):  1.590E+00 0.000E+00
 
     Adding external electric field

     Computed dipole along edir(3) : 
        Dipole               -0.7277 Ry au,         -1.8495 Debye
        Dipole field         -0.0021 Ry au
 
        Potential amp.        0.1917 Ry
        Total length         45.0992 bohr
 

     total cpu time spent up to now is      180.6 secs

     total energy              =   -2114.51512814 Ry
     Harris-Foulkes estimate   =   -2114.93846890 Ry
     estimated scf accuracy    <       7.86836215 Ry

     iteration #  9     ecut=    36.75 Ry     beta=0.30
     Davidson diagonalization with overlap
     ethr =  4.28E-03,  avg # of iterations =  2.8

     negative rho (up, down):  1.590E+00 0.000E+00
 
     Adding external electric field

     Computed dipole along edir(3) : 
        Dipole               -0.5870 Ry au,         -1.4920 Debye
        Dipole field         -0.0017 Ry au
 
        Potential amp.        0.1547 Ry
        Total length         45.0992 bohr
 

     total cpu time spent up to now is      195.7 secs

     total energy              =   -2114.76596883 Ry
     Harris-Foulkes estimate   =   -2114.89910474 Ry
     estimated scf accuracy    <       4.83568384 Ry

     iteration # 10     ecut=    36.75 Ry     beta=0.30
     Davidson diagonalization with overlap
     ethr =  2.63E-03,  avg # of iterations =  1.9

     negative rho (up, down):  1.591E+00 0.000E+00
 
     Adding external electric field

     Computed dipole along edir(3) : 
        Dipole               -0.4791 Ry au,         -1.2177 Debye
        Dipole field         -0.0014 Ry au
 
        Potential amp.        0.1262 Ry
        Total length         45.0992 bohr
 

     total cpu time spent up to now is      210.2 secs

     total energy              =   -2114.78453403 Ry
     Harris-Foulkes estimate   =   -2114.83891851 Ry
     estimated scf accuracy    <       0.69657155 Ry

     iteration # 11     ecut=    36.75 Ry     beta=0.30
     Davidson diagonalization with overlap
     ethr =  3.79E-04,  avg # of iterations =  4.8

     negative rho (up, down):  1.591E+00 0.000E+00
 
     Adding external electric field

     Computed dipole along edir(3) : 
        Dipole               -0.5932 Ry au,         -1.5077 Debye
        Dipole field         -0.0017 Ry au
 
        Potential amp.        0.1563 Ry
        Total length         45.0992 bohr
 

     total cpu time spent up to now is      226.9 secs

     total energy              =   -2114.83232960 Ry
     Harris-Foulkes estimate   =   -2114.86980172 Ry
     estimated scf accuracy    <       2.13622238 Ry

     iteration # 12     ecut=    36.75 Ry     beta=0.30
     Davidson diagonalization with overlap
     ethr =  3.79E-04,  avg # of iterations =  1.1

     negative rho (up, down):  1.590E+00 0.000E+00
 
     Adding external electric field

     Computed dipole along edir(3) : 
        Dipole               -0.6535 Ry au,         -1.6611 Debye
        Dipole field         -0.0019 Ry au
 
        Potential amp.        0.1722 Ry
        Total length         45.0992 bohr
 

     total cpu time spent up to now is      241.3 secs

     total energy              =   -2114.82670376 Ry
     Harris-Foulkes estimate   =   -2114.84252887 Ry
     estimated scf accuracy    <       0.67631030 Ry

     iteration # 13     ecut=    36.75 Ry     beta=0.30
     Davidson diagonalization with overlap
     ethr =  3.68E-04,  avg # of iterations =  1.1

     negative rho (up, down):  1.590E+00 0.000E+00
 
     Adding external electric field

     Computed dipole along edir(3) : 
        Dipole               -0.6307 Ry au,         -1.6032 Debye
        Dipole field         -0.0018 Ry au
 
        Potential amp.        0.1662 Ry
        Total length         45.0992 bohr
 

     total cpu time spent up to now is      256.2 secs

     total energy              =   -2114.82424493 Ry
     Harris-Foulkes estimate   =   -2114.83397550 Ry
     estimated scf accuracy    <       0.06536467 Ry

     iteration # 14     ecut=    36.75 Ry     beta=0.30
     Davidson diagonalization with overlap
     ethr =  3.55E-05,  avg # of iterations =  5.8

     negative rho (up, down):  1.590E+00 0.000E+00
 
     Adding external electric field

     Computed dipole along edir(3) : 
        Dipole               -0.4918 Ry au,         -1.2501 Debye
        Dipole field         -0.0014 Ry au
 
        Potential amp.        0.1296 Ry
        Total length         45.0992 bohr
 

     total cpu time spent up to now is      275.4 secs

     total energy              =   -2114.81717667 Ry
     Harris-Foulkes estimate   =   -2114.85267466 Ry
     estimated scf accuracy    <       1.24071627 Ry

     iteration # 15     ecut=    36.75 Ry     beta=0.30
     Davidson diagonalization with overlap
     ethr =  3.55E-05,  avg # of iterations =  5.0

     negative rho (up, down):  1.590E+00 0.000E+00
 
     Adding external electric field

     Computed dipole along edir(3) : 
        Dipole               -0.3250 Ry au,         -0.8262 Debye
        Dipole field         -0.0009 Ry au
 
        Potential amp.        0.0856 Ry
        Total length         45.0992 bohr
 

     total cpu time spent up to now is      292.8 secs

     total energy              =   -2114.83431497 Ry
     Harris-Foulkes estimate   =   -2114.83552396 Ry
     estimated scf accuracy    <       0.00705129 Ry

     iteration # 16     ecut=    36.75 Ry     beta=0.30
     Davidson diagonalization with overlap
     ethr =  3.83E-06,  avg # of iterations =  6.0

     negative rho (up, down):  1.590E+00 0.000E+00
 
     Adding external electric field

     Computed dipole along edir(3) : 
        Dipole               -0.2894 Ry au,         -0.7357 Debye
        Dipole field         -0.0008 Ry au
 
        Potential amp.        0.0763 Ry
        Total length         45.0992 bohr
 

     total cpu time spent up to now is      311.2 secs

     total energy              =   -2114.83406612 Ry
     Harris-Foulkes estimate   =   -2114.83556748 Ry
     estimated scf accuracy    <       0.03690989 Ry

     iteration # 17     ecut=    36.75 Ry     beta=0.30
     Davidson diagonalization with overlap
     ethr =  3.83E-06,  avg # of iterations =  3.0

     negative rho (up, down):  1.590E+00 0.000E+00
 
     Adding external electric field

     Computed dipole along edir(3) : 
        Dipole               -0.2724 Ry au,         -0.6925 Debye
        Dipole field         -0.0008 Ry au
 
        Potential amp.        0.0718 Ry
        Total length         45.0992 bohr
 

     total cpu time spent up to now is      327.2 secs

     total energy              =   -2114.83424252 Ry
     Harris-Foulkes estimate   =   -2114.83454306 Ry
     estimated scf accuracy    <       0.00568032 Ry

     iteration # 18     ecut=    36.75 Ry     beta=0.30
     Davidson diagonalization with overlap
     ethr =  3.09E-06,  avg # of iterations =  3.5

     negative rho (up, down):  1.590E+00 0.000E+00
 
     Adding external electric field

     Computed dipole along edir(3) : 
        Dipole               -0.2532 Ry au,         -0.6436 Debye
        Dipole field         -0.0007 Ry au
 
        Potential amp.        0.0667 Ry
        Total length         45.0992 bohr
 

     total cpu time spent up to now is      343.3 secs

     total energy              =   -2114.83439535 Ry
     Harris-Foulkes estimate   =   -2114.83456258 Ry
     estimated scf accuracy    <       0.00180656 Ry

     iteration # 19     ecut=    36.75 Ry     beta=0.30
     Davidson diagonalization with overlap
     ethr =  9.82E-07,  avg # of iterations =  3.5

     negative rho (up, down):  1.591E+00 0.000E+00
 
     Adding external electric field

     Computed dipole along edir(3) : 
        Dipole               -0.2425 Ry au,         -0.6164 Debye
        Dipole field         -0.0007 Ry au
 
        Potential amp.        0.0639 Ry
        Total length         45.0992 bohr
 

     total cpu time spent up to now is      359.7 secs

     total energy              =   -2114.83446869 Ry
     Harris-Foulkes estimate   =   -2114.83451332 Ry
     estimated scf accuracy    <       0.00028031 Ry

     iteration # 20     ecut=    36.75 Ry     beta=0.30
     Davidson diagonalization with overlap
     ethr =  1.52E-07,  avg # of iterations =  5.1

     negative rho (up, down):  1.591E+00 0.000E+00
 
     Adding external electric field

     Computed dipole along edir(3) : 
        Dipole               -0.2357 Ry au,         -0.5991 Debye
        Dipole field         -0.0007 Ry au
 
        Potential amp.        0.0621 Ry
        Total length         45.0992 bohr
 

     total cpu time spent up to now is      377.6 secs

     total energy              =   -2114.83447600 Ry
     Harris-Foulkes estimate   =   -2114.83451815 Ry
     estimated scf accuracy    <       0.00129517 Ry

     iteration # 21     ecut=    36.75 Ry     beta=0.30
     Davidson diagonalization with overlap
     ethr =  1.52E-07,  avg # of iterations =  1.1

     negative rho (up, down):  1.591E+00 0.000E+00
 
     Adding external electric field

     Computed dipole along edir(3) : 
        Dipole               -0.2273 Ry au,         -0.5776 Debye
        Dipole field         -0.0007 Ry au
 
        Potential amp.        0.0599 Ry
        Total length         45.0992 bohr
 

     total cpu time spent up to now is      392.3 secs

     total energy              =   -2114.83447585 Ry
     Harris-Foulkes estimate   =   -2114.83449917 Ry
     estimated scf accuracy    <       0.00033494 Ry

     iteration # 22     ecut=    36.75 Ry     beta=0.30
     Davidson diagonalization with overlap
     ethr =  1.52E-07,  avg # of iterations =  2.2

     negative rho (up, down):  1.591E+00 0.000E+00
 
     Adding external electric field

     Computed dipole along edir(3) : 
        Dipole               -0.2243 Ry au,         -0.5702 Debye
        Dipole field         -0.0007 Ry au
 
        Potential amp.        0.0591 Ry
        Total length         45.0992 bohr
 

     total cpu time spent up to now is      407.7 secs

     total energy              =   -2114.83448120 Ry
     Harris-Foulkes estimate   =   -2114.83448616 Ry
     estimated scf accuracy    <       0.00001469 Ry

     iteration # 23     ecut=    36.75 Ry     beta=0.30
     Davidson diagonalization with overlap
     ethr =  7.98E-09,  avg # of iterations =  5.5

     negative rho (up, down):  1.591E+00 0.000E+00
 
     Adding external electric field

     Computed dipole along edir(3) : 
        Dipole               -0.2236 Ry au,         -0.5684 Debye
        Dipole field         -0.0007 Ry au
 
        Potential amp.        0.0589 Ry
        Total length         45.0992 bohr
 

     total cpu time spent up to now is      427.5 secs

     total energy              =   -2114.83448398 Ry
     Harris-Foulkes estimate   =   -2114.83448624 Ry
     estimated scf accuracy    <       0.00003015 Ry

     iteration # 24     ecut=    36.75 Ry     beta=0.30
     Davidson diagonalization with overlap
     ethr =  7.98E-09,  avg # of iterations =  1.0

     negative rho (up, down):  1.591E+00 0.000E+00
 
     Adding external electric field

     Computed dipole along edir(3) : 
        Dipole               -0.2236 Ry au,         -0.5682 Debye
        Dipole field         -0.0007 Ry au
 
        Potential amp.        0.0589 Ry
        Total length         45.0992 bohr
 

     total cpu time spent up to now is      442.2 secs

     total energy              =   -2114.83448361 Ry
     Harris-Foulkes estimate   =   -2114.83448453 Ry
     estimated scf accuracy    <       0.00001013 Ry

     iteration # 25     ecut=    36.75 Ry     beta=0.30
     Davidson diagonalization with overlap
     ethr =  5.50E-09,  avg # of iterations =  4.0

     negative rho (up, down):  1.591E+00 0.000E+00

     negative rho (up, down):  1.591E+00 0.000E+00

     negative rho (up, down):  1.591E+00 0.000E+00

     negative rho (up, down):  1.591E+00 0.000E+00

     negative rho (up, down):  1.591E+00 0.000E+00

     negative rho (up, down):  1.591E+00 0.000E+00

     negative rho (up, down):  1.591E+00 0.000E+00

     negative rho (up, down):  1.591E+00 0.000E+00

     negative rho (up, down):  1.591E+00 0.000E+00

     negative rho (up, down):  1.591E+00 0.000E+00

     negative rho (up, down):  1.591E+00 0.000E+00

     negative rho (up, down):  1.591E+00 0.000E+00

     negative rho (up, down):  1.591E+00 0.000E+00

     negative rho (up, down):  1.591E+00 0.000E+00

     negative rho (up, down):  1.591E+00 0.000E+00

     negative rho (up, down):  1.591E+00 0.000E+00

     negative rho (up, down):  1.591E+00 0.000E+00

     negative rho (up, down):  1.591E+00 0.000E+00

     negative rho (up, down):  1.591E+00 0.000E+00

     negative rho (up, down):  1.591E+00 0.000E+00

     negative rho (up, down):  1.591E+00 0.000E+00

     negative rho (up, down):  1.591E+00 0.000E+00

     negative rho (up, down):  1.591E+00 0.000E+00

     negative rho (up, down):  1.591E+00 0.000E+00

     negative rho (up, down):  1.591E+00 0.000E+00

     negative rho (up, down):  1.591E+00 0.000E+00

     negative rho (up, down):  1.591E+00 0.000E+00

     negative rho (up, down):  1.591E+00 0.000E+00

     negative rho (up, down):  1.591E+00 0.000E+00

     negative rho (up, down):  1.591E+00 0.000E+00

     negative rho (up, down):  1.591E+00 0.000E+00

     negative rho (up, down):  1.591E+00 0.000E+00

     negative rho (up, down):  1.591E+00 0.000E+00

     negative rho (up, down):  1.591E+00 0.000E+00

     negative rho (up, down):  1.591E+00 0.000E+00
 
     Adding external electric field

     Computed dipole along edir(3) : 
        Dipole               -0.2175 Ry au,         -0.5529 Debye
        Dipole field         -0.0006 Ry au
 
        Potential amp.        0.0573 Ry
        Total length         45.0992 bohr
 

     total cpu time spent up to now is      499.5 secs

     End of self-consistent calculation

          k = 0.0000 0.0000 0.0000 ( 16073 PWs)   bands (ev):

   -65.0609 -64.9169 -64.9031 -64.9028 -64.8953 -64.8087 -64.8078 -64.7958
   -64.7525 -64.6735 -64.6729 -64.6725 -37.4970 -37.4941 -37.4939 -37.4231
   -37.3711 -37.3516 -37.3512 -37.2094 -37.2049 -37.2049 -36.8961 -36.8601
   -36.8598 -36.8351 -36.7778 -36.7778 -36.7697 -36.7647 -36.7646 -36.7591
   -36.6126 -36.6125 -36.6044 -36.5980 -36.5852 -36.5848 -36.5355 -36.5330
   -36.5330 -36.4683 -36.4639 -36.4637 -36.3916 -36.3915 -36.2683 -36.2683
    -7.6637  -4.1789  -3.0535  -3.0535  -3.0154  -2.8849  -2.7872  -2.6217
    -2.6216  -2.5238  -2.3752  -2.3751  -2.2347  -2.1081  -2.1081  -2.0977
    -1.0635  -1.0635  -0.7750  -0.1392  -0.1392   0.0076   0.2291   0.2733
     0.2735   0.5380   0.5380   0.5500   0.8735   0.8736   0.9317   1.0412
     1.0412   1.2255   1.2256   1.4917   1.8446   1.8447   1.9242   2.5567
     2.5578   2.5811   2.5811   2.9160   2.9161   3.1666   3.1668   3.4742
     3.4742   3.7044   3.9630   4.1473   4.1474   4.2541

          k = 0.0000 0.0351 0.0000 ( 16137 PWs)   bands (ev):

   -65.0506 -64.9138 -64.9085 -64.9029 -64.8965 -64.8133 -64.8085 -64.7877
   -64.7545 -64.6813 -64.6732 -64.6726 -37.4635 -37.4616 -37.4387 -37.3921
   -37.3491 -37.3230 -37.3147 -37.1800 -37.1748 -37.1553 -36.9033 -36.8913
   -36.8723 -36.8644 -36.8218 -36.8073 -36.7569 -36.7483 -36.7381 -36.7293
   -36.6490 -36.6419 -36.6010 -36.5931 -36.5874 -36.5817 -36.5775 -36.5487
   -36.5487 -36.4980 -36.4953 -36.4523 -36.4423 -36.4044 -36.3258 -36.2817
    -7.6184  -3.9475  -2.9168  -2.8523  -2.8205  -2.6566  -2.5693  -2.5025
    -2.4319  -2.3601  -2.2662  -2.2211  -2.1424  -1.9616  -1.8689  -1.8557
    -0.9927  -0.9804  -0.7262  -0.1861  -0.1837   0.0661   0.1412   0.2111
     0.3116   0.3148   0.4234   0.7295   0.7809   0.8025   0.9766   0.9924
     1.0904   1.1834   1.3087   1.3529   1.5958   1.6962   1.7796   2.0850
     2.2193   2.3404   2.5557   2.6791   2.7656   2.9620   3.0915   3.1251
     3.2609   3.4060   3.6112   3.6233   3.9409   3.9566

          k = 0.0000 0.0702 0.0000 ( 16149 PWs)   bands (ev):

   -65.0221 -64.9425 -64.9030 -64.8996 -64.8862 -64.8295 -64.8085 -64.7658
   -64.7577 -64.7039 -64.6733 -64.6727 -37.3818 -37.3805 -37.3270 -37.2929
   -37.2837 -37.2585 -37.2421 -37.1167 -37.1027 -37.0308 -36.9575 -36.9500
   -36.9346 -36.8931 -36.8278 -36.8132 -36.7515 -36.7470 -36.7170 -36.7147
   -36.7052 -36.7026 -36.6973 -36.6387 -36.6139 -36.6072 -36.5957 -36.5661
   -36.5570 -36.5564 -36.5434 -36.5416 -36.4580 -36.4391 -36.4163 -36.3182
    -7.5276  -3.3484  -2.6211  -2.3832  -2.3684  -2.3103  -2.1567  -1.9911
    -1.9395  -1.9243  -1.8762  -1.8056  -1.7940  -1.5937  -1.3049  -1.2632
    -0.8323  -0.7403  -0.6246  -0.4510  -0.4343  -0.2927  -0.1290   0.1388
     0.1921   0.3048   0.3379   0.5711   0.7014   0.7401   0.8270   0.8851
     0.9879   1.1059   1.2235   1.2944   1.3686   1.3903   1.5388   1.7496
     1.7945   1.8992   1.9133   2.0270   2.1668   2.1865   2.4260   2.6009
     2.6433   2.9596   3.1641   3.2791   3.2953   3.3497

          k = 0.0000-0.1053 0.0000 ( 16164 PWs)   bands (ev):

   -64.9840 -64.9813 -64.9031 -64.8991 -64.8664 -64.8481 -64.8085 -64.7598
   -64.7351 -64.7343 -64.6733 -64.6727 -37.3228 -37.3225 -37.2768 -37.2511
   -37.2403 -37.2226 -37.0988 -37.0822 -37.0697 -37.0513 -37.0184 -37.0118
   -36.8856 -36.8509 -36.8196 -36.7900 -36.7840 -36.7736 -36.7617 -36.7422
   -36.7242 -36.7211 -36.6907 -36.6862 -36.6573 -36.6529 -36.6496 -36.6414
   -36.5716 -36.5678 -36.5310 -36.5238 -36.5120 -36.4715 -36.3695 -36.3657
    -7.4822  -2.7701  -2.6905  -2.1467  -2.0169  -1.9921  -1.9873  -1.7898
    -1.7022  -1.5827  -1.4819  -1.4131  -1.3000  -1.1194  -1.1088  -1.0084
    -1.0001  -0.5918  -0.5727  -0.5090  -0.3702  -0.3056  -0.2689  -0.1739
    -0.1559   0.1084   0.2357   0.4068   0.6372   0.7014   0.7993   0.8028
     0.8405   0.9194   0.9780   1.0316   1.1059   1.1427   1.2926   1.2997
     1.3761   1.8384   1.8693   2.1095   2.1174   2.1442   2.1868   2.2826
     2.5887   2.6569   2.6711   2.7869   2.8770   2.9366

          k = 0.0304-0.0175 0.0000 ( 16137 PWs)   bands (ev):

   -65.0506 -64.9138 -64.9084 -64.9030 -64.8965 -64.8134 -64.8084 -64.7877
   -64.7545 -64.6813 -64.6733 -64.6726 -37.4635 -37.4615 -37.4387 -37.3921
   -37.3491 -37.3231 -37.3146 -37.1800 -37.1749 -37.1553 -36.9033 -36.8913
   -36.8723 -36.8644 -36.8218 -36.8072 -36.7569 -36.7483 -36.7381 -36.7293
   -36.6489 -36.6420 -36.6010 -36.5931 -36.5874 -36.5817 -36.5775 -36.5487
   -36.5486 -36.4980 -36.4953 -36.4523 -36.4423 -36.4044 -36.3257 -36.2817
    -7.6184  -3.9475  -2.9168  -2.8523  -2.8206  -2.6566  -2.5693  -2.5025
    -2.4319  -2.3602  -2.2662  -2.2211  -2.1424  -1.9616  -1.8689  -1.8557
    -0.9927  -0.9804  -0.7262  -0.1861  -0.1837   0.0661   0.1413   0.2111
     0.3116   0.3148   0.4233   0.7295   0.7809   0.8025   0.9766   0.9923
     1.0904   1.1834   1.3087   1.3529   1.5958   1.6962   1.7796   2.0850
     2.2193   2.3404   2.5557   2.6791   2.7656   2.9620   3.0915   3.1251
     3.2609   3.4060   3.6112   3.6233   3.9409   3.9566

          k = 0.0304 0.0175 0.0000 ( 16137 PWs)   bands (ev):

   -65.0506 -64.9137 -64.9085 -64.9031 -64.8964 -64.8140 -64.8078 -64.7877
   -64.7546 -64.6813 -64.6730 -64.6729 -37.4636 -37.4614 -37.4388 -37.3920
   -37.3490 -37.3233 -37.3145 -37.1800 -37.1749 -37.1553 -36.9034 -36.8913
   -36.8721 -36.8644 -36.8218 -36.8072 -36.7569 -36.7485 -36.7379 -36.7293
   -36.6488 -36.6421 -36.6011 -36.5931 -36.5875 -36.5816 -36.5773 -36.5487
   -36.5487 -36.4981 -36.4952 -36.4523 -36.4422 -36.4045 -36.3257 -36.2817
    -7.6184  -3.9475  -2.9167  -2.8523  -2.8205  -2.6566  -2.5693  -2.5025
    -2.4318  -2.3602  -2.2661  -2.2212  -2.1424  -1.9615  -1.8689  -1.8556
    -0.9927  -0.9804  -0.7262  -0.1862  -0.1836   0.0661   0.1413   0.2111
     0.3116   0.3148   0.4233   0.7295   0.7809   0.8026   0.9766   0.9923
     1.0903   1.1835   1.3087   1.3528   1.5957   1.6962   1.7797   2.0850
     2.2193   2.3404   2.5557   2.6792   2.7656   2.9620   3.0915   3.1251
     3.2609   3.4060   3.6113   3.6233   3.9410   3.9566

          k = 0.0304 0.0526 0.0000 ( 16202 PWs)   bands (ev):

   -65.0312 -64.9237 -64.9205 -64.8947 -64.8893 -64.8226 -64.8103 -64.7727
   -64.7569 -64.6889 -64.6881 -64.6657 -37.4207 -37.3623 -37.3609 -37.3432
   -37.3068 -37.2696 -37.2618 -37.1430 -37.0967 -37.0842 -36.9493 -36.9267
   -36.9127 -36.9043 -36.8444 -36.7740 -36.7628 -36.7451 -36.7367 -36.7145
   -36.7105 -36.6596 -36.6365 -36.6201 -36.6183 -36.6097 -36.5807 -36.5745
   -36.5641 -36.5570 -36.5160 -36.4697 -36.4665 -36.4334 -36.4172 -36.3107
    -7.5503  -3.5244  -2.6131  -2.5735  -2.4759  -2.3143  -2.2535  -2.2260
    -2.1175  -2.0664  -1.9904  -1.9701  -1.8495  -1.6305  -1.5860  -1.3857
    -0.8608  -0.8348  -0.6531  -0.4094  -0.3093  -0.2259   0.0043   0.0910
     0.2328   0.2557   0.4966   0.6830   0.7214   0.7591   0.7907   0.9335
     1.0399   1.1021   1.1341   1.3121   1.3810   1.5472   1.6884   1.7622
     1.8935   1.9654   2.1941   2.3019   2.3241   2.4284   2.4338   2.6563
     2.8057   3.0545   3.1131   3.3888   3.4263   3.6244

          k = 0.0304-0.1228 0.0000 ( 16203 PWs)   bands (ev):

   -64.9972 -64.9572 -64.9274 -64.8856 -64.8701 -64.8398 -64.8141 -64.7589
   -64.7458 -64.7152 -64.6926 -64.6616 -37.3351 -37.2820 -37.2746 -37.2469
   -37.2244 -37.2157 -37.1884 -37.1110 -37.0488 -37.0271 -37.0092 -36.9622
   -36.9344 -36.9000 -36.8501 -36.8009 -36.7837 -36.7617 -36.7433 -36.7303
   -36.7156 -36.7077 -36.6929 -36.6728 -36.6603 -36.6570 -36.6151 -36.6093
   -36.5772 -36.5715 -36.5315 -36.5116 -36.5034 -36.4766 -36.4191 -36.3617
    -7.4819  -2.8647  -2.4145  -2.1084  -2.0369  -2.0052  -1.8875  -1.8188
    -1.6601  -1.5833  -1.5316  -1.5040  -1.3058  -1.1876  -1.1634  -1.0454
    -0.8369  -0.6886  -0.6411  -0.5875  -0.4655  -0.3396  -0.2685  -0.1167
    -0.0327   0.0805   0.1743   0.3574   0.4504   0.5714   0.6012   0.6903
     0.8119   0.8560   0.9288   0.9462   1.1167   1.2618   1.3390   1.4628
     1.5709   1.6363   1.9154   1.9997   2.1643   2.1839   2.3151   2.4298
     2.5187   2.6798   2.7382   2.9222   3.0738   3.2173

          k = 0.0304-0.0877 0.0000 ( 16203 PWs)   bands (ev):

   -64.9972 -64.9573 -64.9274 -64.8856 -64.8702 -64.8396 -64.8143 -64.7588
   -64.7458 -64.7152 -64.6926 -64.6616 -37.3352 -37.2819 -37.2747 -37.2469
   -37.2244 -37.2157 -37.1884 -37.1109 -37.0488 -37.0270 -37.0092 -36.9623
   -36.9344 -36.8997 -36.8501 -36.8008 -36.7839 -36.7618 -36.7434 -36.7303
   -36.7154 -36.7077 -36.6929 -36.6729 -36.6605 -36.6568 -36.6151 -36.6094
   -36.5771 -36.5715 -36.5315 -36.5115 -36.5034 -36.4765 -36.4191 -36.3617
    -7.4819  -2.8647  -2.4145  -2.1084  -2.0369  -2.0052  -1.8875  -1.8188
    -1.6602  -1.5834  -1.5316  -1.5039  -1.3058  -1.1876  -1.1634  -1.0454
    -0.8369  -0.6886  -0.6410  -0.5875  -0.4655  -0.3396  -0.2685  -0.1167
    -0.0327   0.0805   0.1743   0.3574   0.4505   0.5714   0.6013   0.6903
     0.8119   0.8560   0.9288   0.9461   1.1167   1.2618   1.3390   1.4628
     1.5709   1.6363   1.9154   1.9998   2.1642   2.1839   2.3150   2.4297
     2.5187   2.6798   2.7382   2.9222   3.0738   3.2172

          k = 0.0304-0.0526 0.0000 ( 16202 PWs)   bands (ev):

   -65.0312 -64.9238 -64.9204 -64.8946 -64.8894 -64.8220 -64.8110 -64.7726
   -64.7568 -64.6886 -64.6884 -64.6657 -37.4207 -37.3623 -37.3609 -37.3432
   -37.3069 -37.2694 -37.2619 -37.1430 -37.0966 -37.0842 -36.9492 -36.9267
   -36.9126 -36.9045 -36.8443 -36.7741 -36.7628 -36.7450 -36.7367 -36.7146
   -36.7104 -36.6596 -36.6367 -36.6202 -36.6184 -36.6095 -36.5807 -36.5745
   -36.5642 -36.5570 -36.5160 -36.4698 -36.4665 -36.4333 -36.4172 -36.3107
    -7.5503  -3.5244  -2.6131  -2.5735  -2.4759  -2.3143  -2.2535  -2.2260
    -2.1175  -2.0664  -1.9904  -1.9701  -1.8495  -1.6305  -1.5860  -1.3857
    -0.8608  -0.8348  -0.6531  -0.4093  -0.3093  -0.2259   0.0043   0.0910
     0.2329   0.2557   0.4966   0.6830   0.7213   0.7591   0.7907   0.9336
     1.0400   1.1021   1.1341   1.3121   1.3809   1.5472   1.6884   1.7622
     1.8936   1.9654   2.1940   2.3019   2.3241   2.4284   2.4337   2.6562
     2.8057   3.0546   3.1130   3.3887   3.4264   3.6244

          k = 0.0608-0.0351 0.0000 ( 16149 PWs)   bands (ev):

   -65.0221 -64.9425 -64.9031 -64.8995 -64.8862 -64.8296 -64.8084 -64.7658
   -64.7578 -64.7039 -64.6733 -64.6726 -37.3819 -37.3804 -37.3270 -37.2928
   -37.2837 -37.2586 -37.2420 -37.1167 -37.1028 -37.0308 -36.9575 -36.9500
   -36.9346 -36.8931 -36.8278 -36.8131 -36.7515 -36.7470 -36.7170 -36.7148
   -36.7052 -36.7026 -36.6972 -36.6386 -36.6139 -36.6072 -36.5957 -36.5661
   -36.5570 -36.5564 -36.5434 -36.5416 -36.4580 -36.4392 -36.4163 -36.3182
    -7.5276  -3.3484  -2.6211  -2.3832  -2.3684  -2.3103  -2.1567  -1.9911
    -1.9395  -1.9243  -1.8762  -1.8056  -1.7940  -1.5937  -1.3049  -1.2632
    -0.8323  -0.7403  -0.6246  -0.4510  -0.4343  -0.2927  -0.1290   0.1388
     0.1921   0.3048   0.3379   0.5711   0.7014   0.7401   0.8270   0.8851
     0.9879   1.1059   1.2235   1.2944   1.3686   1.3903   1.5388   1.7496
     1.7945   1.8992   1.9133   2.0270   2.1668   2.1865   2.4260   2.6009
     2.6432   2.9596   3.1642   3.2791   3.2953   3.3498

          k = 0.0608 0.0000 0.0000 ( 16202 PWs)   bands (ev):

   -65.0312 -64.9235 -64.9206 -64.8946 -64.8893 -64.8227 -64.8102 -64.7727
   -64.7569 -64.6888 -64.6881 -64.6657 -37.4206 -37.3623 -37.3609 -37.3432
   -37.3068 -37.2697 -37.2617 -37.1430 -37.0967 -37.0841 -36.9493 -36.9267
   -36.9127 -36.9043 -36.8444 -36.7740 -36.7628 -36.7451 -36.7367 -36.7145
   -36.7105 -36.6596 -36.6365 -36.6201 -36.6183 -36.6097 -36.5807 -36.5745
   -36.5641 -36.5570 -36.5160 -36.4697 -36.4665 -36.4334 -36.4172 -36.3107
    -7.5503  -3.5244  -2.6131  -2.5735  -2.4759  -2.3143  -2.2535  -2.2260
    -2.1175  -2.0663  -1.9904  -1.9701  -1.8495  -1.6305  -1.5860  -1.3857
    -0.8608  -0.8348  -0.6531  -0.4094  -0.3093  -0.2259   0.0043   0.0910
     0.2328   0.2557   0.4966   0.6830   0.7214   0.7591   0.7907   0.9335
     1.0399   1.1021   1.1341   1.3121   1.3810   1.5472   1.6884   1.7622
     1.8935   1.9654   2.1941   2.3019   2.3241   2.4284   2.4338   2.6563
     2.8057   3.0545   3.1131   3.3888   3.4262   3.6244

          k = 0.0608 0.0351 0.0000 ( 16149 PWs)   bands (ev):

   -65.0221 -64.9424 -64.9032 -64.8994 -64.8861 -64.8302 -64.8078 -64.7658
   -64.7579 -64.7039 -64.6730 -64.6729 -37.3820 -37.3803 -37.3269 -37.2927
   -37.2836 -37.2589 -37.2420 -37.1167 -37.1028 -37.0309 -36.9576 -36.9500
   -36.9346 -36.8931 -36.8276 -36.8131 -36.7513 -36.7473 -36.7169 -36.7148
   -36.7056 -36.7024 -36.6972 -36.6385 -36.6140 -36.6071 -36.5956 -36.5661
   -36.5571 -36.5563 -36.5434 -36.5414 -36.4580 -36.4393 -36.4164 -36.3182
    -7.5276  -3.3484  -2.6210  -2.3832  -2.3684  -2.3103  -2.1567  -1.9912
    -1.9394  -1.9243  -1.8763  -1.8057  -1.7939  -1.5937  -1.3050  -1.2632
    -0.8322  -0.7404  -0.6246  -0.4511  -0.4342  -0.2927  -0.1290   0.1389
     0.1920   0.3049   0.3379   0.5711   0.7014   0.7402   0.8269   0.8852
     0.9880   1.1058   1.2234   1.2944   1.3686   1.3903   1.5388   1.7496
     1.7945   1.8992   1.9133   2.0271   2.1667   2.1865   2.4261   2.6009
     2.6433   2.9596   3.1642   3.2791   3.2953   3.3497

          k = 0.0608-0.1404 0.0000 ( 16203 PWs)   bands (ev):

   -64.9972 -64.9572 -64.9274 -64.8856 -64.8699 -64.8404 -64.8136 -64.7590
   -64.7458 -64.7152 -64.6926 -64.6616 -37.3351 -37.2818 -37.2747 -37.2468
   -37.2243 -37.2160 -37.1884 -37.1110 -37.0487 -37.0273 -37.0092 -36.9624
   -36.9343 -36.8997 -36.8501 -36.8009 -36.7837 -36.7617 -36.7433 -36.7305
   -36.7153 -36.7078 -36.6929 -36.6730 -36.6605 -36.6568 -36.6151 -36.6093
   -36.5771 -36.5714 -36.5313 -36.5116 -36.5033 -36.4768 -36.4191 -36.3617
    -7.4819  -2.8647  -2.4146  -2.1083  -2.0369  -2.0052  -1.8876  -1.8188
    -1.6602  -1.5833  -1.5317  -1.5039  -1.3058  -1.1876  -1.1634  -1.0454
    -0.8369  -0.6887  -0.6410  -0.5874  -0.4654  -0.3397  -0.2685  -0.1167
    -0.0327   0.0805   0.1743   0.3573   0.4505   0.5714   0.6012   0.6903
     0.8119   0.8560   0.9288   0.9462   1.1167   1.2618   1.3391   1.4629
     1.5709   1.6363   1.9153   1.9998   2.1642   2.1839   2.3151   2.4298
     2.5187   2.6798   2.7382   2.9223   3.0737   3.2173

          k = 0.0608-0.1053 0.0000 ( 16272 PWs)   bands (ev):

   -64.9654 -64.9620 -64.9604 -64.8799 -64.8525 -64.8502 -64.8218 -64.7582
   -64.7200 -64.7192 -64.7189 -64.6574 -37.2412 -37.2371 -37.2302 -37.2250
   -37.2198 -37.1776 -37.1457 -37.1375 -37.1321 -37.0328 -36.9642 -36.9372
   -36.9278 -36.9027 -36.8827 -36.8277 -36.8204 -36.8203 -36.7371 -36.7233
   -36.7195 -36.7097 -36.6815 -36.6754 -36.6710 -36.6693 -36.6381 -36.6052
   -36.5793 -36.5720 -36.5314 -36.5304 -36.5238 -36.4361 -36.4356 -36.4298
    -7.4588  -2.3879  -2.2087  -2.1987  -1.6626  -1.6236  -1.6160  -1.5846
    -1.5730  -1.4196  -1.2894  -1.2118  -1.1849  -1.1833  -1.1624  -1.1315
    -0.8674  -0.6969  -0.6392  -0.5472  -0.5406  -0.2702  -0.1728  -0.1710
    -0.1302  -0.0876   0.0572   0.0615   0.1395   0.1672   0.2741   0.4142
     0.4194   0.5255   0.7697   0.8027   1.1412   1.2576   1.2700   1.3040
     1.3553   1.5450   1.7577   2.0584   2.1807   2.3491   2.4525   2.4787
     2.6135   2.8540   2.8857   2.9032   3.0259   3.0418

          k = 0.0608-0.0702 0.0000 ( 16203 PWs)   bands (ev):

   -64.9972 -64.9572 -64.9274 -64.8856 -64.8702 -64.8397 -64.8143 -64.7588
   -64.7458 -64.7152 -64.6926 -64.6616 -37.3352 -37.2819 -37.2747 -37.2469
   -37.2244 -37.2158 -37.1884 -37.1109 -37.0488 -37.0271 -37.0092 -36.9623
   -36.9343 -36.8996 -36.8501 -36.8008 -36.7839 -36.7619 -36.7433 -36.7303
   -36.7154 -36.7077 -36.6929 -36.6730 -36.6605 -36.6568 -36.6151 -36.6094
   -36.5771 -36.5715 -36.5315 -36.5116 -36.5033 -36.4765 -36.4191 -36.3617
    -7.4819  -2.8647  -2.4146  -2.1084  -2.0369  -2.0052  -1.8875  -1.8188
    -1.6602  -1.5834  -1.5316  -1.5039  -1.3058  -1.1876  -1.1634  -1.0454
    -0.8369  -0.6886  -0.6410  -0.5874  -0.4654  -0.3396  -0.2685  -0.1167
    -0.0327   0.0805   0.1742   0.3574   0.4505   0.5714   0.6013   0.6903
     0.8119   0.8560   0.9288   0.9461   1.1167   1.2618   1.3390   1.4628
     1.5709   1.6363   1.9153   1.9998   2.1642   2.1839   2.3150   2.4298
     2.5187   2.6798   2.7382   2.9223   3.0738   3.2172

          k =-0.0912 0.0526 0.0000 ( 16164 PWs)   bands (ev):

   -64.9840 -64.9812 -64.9032 -64.8990 -64.8663 -64.8483 -64.8084 -64.7599
   -64.7351 -64.7342 -64.6733 -64.6726 -37.3227 -37.3226 -37.2767 -37.2512
   -37.2402 -37.2227 -37.0988 -37.0823 -37.0696 -37.0514 -37.0183 -37.0119
   -36.8856 -36.8510 -36.8196 -36.7900 -36.7841 -36.7736 -36.7617 -36.7422
   -36.7241 -36.7211 -36.6907 -36.6862 -36.6572 -36.6530 -36.6495 -36.6415
   -36.5716 -36.5678 -36.5309 -36.5239 -36.5119 -36.4716 -36.3696 -36.3656
    -7.4822  -2.7701  -2.6905  -2.1467  -2.0169  -1.9921  -1.9873  -1.7898
    -1.7022  -1.5827  -1.4818  -1.4131  -1.3001  -1.1194  -1.1088  -1.0084
    -1.0001  -0.5918  -0.5727  -0.5090  -0.3702  -0.3056  -0.2690  -0.1739
    -0.1560   0.1084   0.2357   0.4068   0.6372   0.7014   0.7993   0.8028
     0.8405   0.9194   0.9780   1.0315   1.1059   1.1428   1.2926   1.2997
     1.3760   1.8384   1.8693   2.1095   2.1174   2.1443   2.1869   2.2826
     2.5887   2.6569   2.6711   2.7869   2.8770   2.9366

          k =-0.0912 0.0877 0.0000 ( 16203 PWs)   bands (ev):

   -64.9972 -64.9572 -64.9274 -64.8856 -64.8701 -64.8400 -64.8140 -64.7589
   -64.7458 -64.7152 -64.6926 -64.6616 -37.3351 -37.2820 -37.2746 -37.2469
   -37.2244 -37.2158 -37.1884 -37.1110 -37.0487 -37.0271 -37.0092 -36.9622
   -36.9344 -36.9000 -36.8501 -36.8009 -36.7836 -36.7617 -36.7432 -36.7303
   -36.7156 -36.7077 -36.6929 -36.6729 -36.6604 -36.6570 -36.6151 -36.6093
   -36.5772 -36.5715 -36.5314 -36.5116 -36.5033 -36.4766 -36.4191 -36.3617
    -7.4819  -2.8647  -2.4145  -2.1084  -2.0369  -2.0052  -1.8875  -1.8188
    -1.6601  -1.5833  -1.5316  -1.5040  -1.3058  -1.1876  -1.1634  -1.0454
    -0.8369  -0.6886  -0.6411  -0.5874  -0.4655  -0.3396  -0.2685  -0.1167
    -0.0327   0.0805   0.1743   0.3574   0.4504   0.5714   0.6012   0.6903
     0.8119   0.8560   0.9289   0.9462   1.1167   1.2618   1.3390   1.4628
     1.5709   1.6363   1.9154   1.9997   2.1643   2.1839   2.3151   2.4298
     2.5187   2.6798   2.7382   2.9222   3.0738   3.2173

          k =-0.0912 0.1228 0.0000 ( 16203 PWs)   bands (ev):

   -64.9972 -64.9572 -64.9274 -64.8856 -64.8699 -64.8405 -64.8136 -64.7590
   -64.7458 -64.7152 -64.6926 -64.6616 -37.3351 -37.2819 -37.2747 -37.2468
   -37.2242 -37.2160 -37.1884 -37.1110 -37.0487 -37.0273 -37.0092 -36.9624
   -36.9343 -36.8998 -36.8501 -36.8010 -36.7837 -36.7617 -36.7433 -36.7305
   -36.7154 -36.7078 -36.6929 -36.6730 -36.6605 -36.6568 -36.6151 -36.6093
   -36.5771 -36.5714 -36.5313 -36.5116 -36.5033 -36.4768 -36.4191 -36.3617
    -7.4819  -2.8647  -2.4146  -2.1083  -2.0369  -2.0052  -1.8876  -1.8188
    -1.6602  -1.5833  -1.5317  -1.5039  -1.3058  -1.1876  -1.1634  -1.0454
    -0.8369  -0.6887  -0.6410  -0.5874  -0.4655  -0.3396  -0.2685  -0.1167
    -0.0327   0.0805   0.1743   0.3573   0.4505   0.5714   0.6012   0.6903
     0.8119   0.8560   0.9288   0.9462   1.1167   1.2618   1.3391   1.4629
     1.5709   1.6363   1.9153   1.9998   2.1642   2.1839   2.3151   2.4299
     2.5187   2.6798   2.7382   2.9222   3.0737   3.2173

          k =-0.0912-0.0526 0.0000 ( 16164 PWs)   bands (ev):

   -64.9841 -64.9812 -64.9033 -64.8989 -64.8658 -64.8493 -64.8078 -64.7600
   -64.7349 -64.7345 -64.6730 -64.6729 -37.3227 -37.3226 -37.2765 -37.2514
   -37.2399 -37.2230 -37.0989 -37.0824 -37.0695 -37.0515 -37.0184 -37.0118
   -36.8857 -36.8512 -36.8191 -36.7900 -36.7840 -36.7737 -36.7616 -36.7425
   -36.7239 -36.7214 -36.6905 -36.6864 -36.6571 -36.6531 -36.6496 -36.6413
   -36.5715 -36.5679 -36.5309 -36.5239 -36.5113 -36.4721 -36.3694 -36.3658
    -7.4822  -2.7700  -2.6906  -2.1466  -2.0170  -1.9920  -1.9873  -1.7897
    -1.7024  -1.5827  -1.4818  -1.4130  -1.3001  -1.1193  -1.1089  -1.0083
    -1.0002  -0.5917  -0.5726  -0.5090  -0.3702  -0.3056  -0.2691  -0.1739
    -0.1559   0.1084   0.2356   0.4068   0.6372   0.7015   0.7994   0.8029
     0.8406   0.9193   0.9780   1.0315   1.1059   1.1428   1.2928   1.2998
     1.3759   1.8384   1.8693   2.1094   2.1174   2.1444   2.1870   2.2825
     2.5887   2.6569   2.6712   2.7867   2.8772   2.9365

     the Fermi energy is     2.2100 ev

!    total energy              =   -2114.83448305 Ry
     Harris-Foulkes estimate   =   -2114.83449205 Ry
     estimated scf accuracy    <       0.00000131 Ry

     The total energy is the sum of the following terms:

     one-electron contribution =  -18970.10477759 Ry
     hartree contribution      =    9483.84007731 Ry
     xc contribution           =    -400.46118419 Ry
     ewald contribution        =    7771.98124734 Ry
     electric field correction =       0.00013825 Ry
     smearing contrib. (-TS)   =      -0.08998416 Ry

     convergence has been achieved in  25 iterations
 
 BEEF-vdW xc energy contributions
           1 :   -350.829362547964     
           2 :    322.617054523978     
           3 :   -272.426358406181     
           4 :    210.312319691140     
           5 :   -147.019951831118     
           6 :    91.0171989406881     
           7 :   -46.8367844243546     
           8 :    14.9552351267789     
           9 :    6.95952498130214     
          10 :   -22.2064846795266     
          11 :    33.3720197823612     
          12 :   -41.4640844804089     
          13 :    45.9816945100297     
          14 :   -45.7262143923691     
          15 :    39.8505846340120     
          16 :   -28.6733373438254     
          17 :    13.9129507074565     
          18 :    1.69961149211457     
          19 :   -15.2406239746753     
          20 :    24.4640228892863     
          21 :   -28.3782545016039     
          22 :    27.3186586523900     
          23 :   -22.5593317120841     
          24 :    15.6853695778695     
          25 :   -8.03366933844109     
          26 :   0.420771240382919     
          27 :    6.78490648064559     
          28 :   -13.3746758239442     
          29 :    19.0006187442877     
          30 :   -23.0532693418461     
          31 :   -33.4633370170629     
          32 :   -24.5835313365517     

     Forces acting on atoms (Ry/au):


     negative rho (up, down):  1.591E+00 0.000E+00
     atom    1 type  1   force =    -0.00000188   -0.00001542    0.02841428
     atom    2 type  1   force =     0.00000346   -0.00118034    0.03028780
     atom    3 type  1   force =    -0.00101484    0.00060216    0.03030128
     atom    4 type  1   force =     0.00101114    0.00059480    0.03031284
     atom    5 type  1   force =    -0.00101285    0.00051385   -0.00203438
     atom    6 type  1   force =     0.00102756    0.00058826   -0.00211206
     atom    7 type  1   force =     0.00004229    0.00003362   -0.04715996
     atom    8 type  1   force =    -0.00005925   -0.00114192   -0.00206129
     atom    9 type  1   force =     0.01247455    0.00719335    0.04284571
     atom   10 type  1   force =    -0.01245169    0.00718537    0.04284580
     atom   11 type  1   force =     0.00000037   -0.01438160    0.04288324
     atom   12 type  1   force =    -0.00000572    0.00000954   -0.05042199
     atom   13 type  2   force =    -0.00001313   -0.00000167   -0.14410129

     Total force =     0.171578     Total SCF correction =     0.001275


     entering subroutine stress ...


     negative rho (up, down):  1.591E+00 0.000E+00
          total   stress  (Ry/bohr**3)                   (kbar)     P=  -35.48
  -0.00021648  -0.00000002  -0.00000003        -31.85     -0.00     -0.00
  -0.00000002  -0.00021645  -0.00000002         -0.00    -31.84     -0.00
  -0.00000003  -0.00000002  -0.00029072         -0.00     -0.00    -42.77


     BFGS Geometry Optimization

     number of scf cycles    =   1
     number of bfgs steps    =   0

     energy   new            =   -2114.8344830472 Ry

     new trust radius        =       0.1441012933 bohr
     new conv_thr            =       0.0000099958 Ry


ATOMIC_POSITIONS (crystal)
Tc1      0.166666667   0.166666667   0.408540475    0   0   0
Tc1      0.666666667   0.166666667   0.408540475    0   0   0
Tc1      0.166666667   0.666666667   0.408540475    0   0   0
Tc1      0.666666667   0.666666667   0.408540475    0   0   0
Tc1      0.833333333   0.333333333   0.500000000    0   0   0
Tc1      0.333333333   0.333333333   0.500000000    0   0   0
Tc1      0.833333333   0.833333333   0.500000000    0   0   0
Tc1      0.333333333   0.833333333   0.500000000    0   0   0
Tc1      0.000803029   0.000801553   0.592385808
Tc1      0.498398068   0.000800664   0.592385810
Tc1      0.000801304   0.498397463   0.592386619
Tc1      0.499998916   0.500001063   0.590369451
C1       0.166665493   0.166666481   0.647562137



     Writing output data file calc.save
     Check: negative starting charge=   -1.504774
     NEW-OLD atomic charge density approx. for the potential

     Check: negative/imaginary core charge=   -0.000022    0.000000
     Check: negative starting charge=   -1.508120

     negative rho (up, down):  1.594E+00 0.000E+00
 
     Adding external electric field

     Computed dipole along edir(3) : 
        Dipole               -0.1394 Ry au,         -0.3543 Debye
        Dipole field         -0.0004 Ry au
 
        Potential amp.        0.0367 Ry
        Total length         45.0992 bohr
 

     total cpu time spent up to now is      555.3 secs

     per-process dynamical memory:   101.3 Mb

     Self-consistent Calculation

     iteration #  1     ecut=    36.75 Ry     beta=0.30
     Davidson diagonalization with overlap
     ethr =  1.00E-06,  avg # of iterations = 12.1

     negative rho (up, down):  1.594E+00 0.000E+00
 
     Adding external electric field

     Computed dipole along edir(3) : 
        Dipole               -1.8572 Ry au,         -4.7207 Debye
        Dipole field         -0.0054 Ry au
 
        Potential amp.        0.4894 Ry
        Total length         45.0992 bohr
 

     total cpu time spent up to now is      587.1 secs

     total energy              =   -2114.65694651 Ry
     Harris-Foulkes estimate   =   -2114.85814814 Ry
     estimated scf accuracy    <       0.41905330 Ry

     iteration #  2     ecut=    36.75 Ry     beta=0.30
     Davidson diagonalization with overlap
     ethr =  2.28E-04,  avg # of iterations =  6.8

     negative rho (up, down):  1.594E+00 0.000E+00
 
     Adding external electric field

     Computed dipole along edir(3) : 
        Dipole               -0.2240 Ry au,         -0.5694 Debye
        Dipole field         -0.0007 Ry au
 
        Potential amp.        0.0590 Ry
        Total length         45.0992 bohr
 

     total cpu time spent up to now is      610.3 secs

     total energy              =   -2112.19837255 Ry
     Harris-Foulkes estimate   =   -2117.65915550 Ry
     estimated scf accuracy    <     232.63463430 Ry

     iteration #  3     ecut=    36.75 Ry     beta=0.30
     Davidson diagonalization with overlap
     ethr =  2.28E-04,  avg # of iterations =  6.0

     negative rho (up, down):  1.594E+00 0.000E+00
 
     Adding external electric field

     Computed dipole along edir(3) : 
        Dipole               -0.2332 Ry au,         -0.5927 Debye
        Dipole field         -0.0007 Ry au
 
        Potential amp.        0.0614 Ry
        Total length         45.0992 bohr
 

     total cpu time spent up to now is      633.0 secs

     total energy              =   -2114.83628653 Ry
     Harris-Foulkes estimate   =   -2114.88100976 Ry
     estimated scf accuracy    <       0.54500751 Ry

     iteration #  4     ecut=    36.75 Ry     beta=0.30
     Davidson diagonalization with overlap
     ethr =  2.28E-04,  avg # of iterations =  2.4

     negative rho (up, down):  1.594E+00 0.000E+00
 
     Adding external electric field

     Computed dipole along edir(3) : 
        Dipole               -0.1967 Ry au,         -0.5000 Debye
        Dipole field         -0.0006 Ry au
 
        Potential amp.        0.0518 Ry
        Total length         45.0992 bohr
 

     total cpu time spent up to now is      648.6 secs

     total energy              =   -2114.85529015 Ry
     Harris-Foulkes estimate   =   -2114.85715878 Ry
     estimated scf accuracy    <       0.00959083 Ry

     iteration #  5     ecut=    36.75 Ry     beta=0.30
     Davidson diagonalization with overlap
     ethr =  5.21E-06,  avg # of iterations =  6.0

     negative rho (up, down):  1.594E+00 0.000E+00
 
     Adding external electric field

     Computed dipole along edir(3) : 
        Dipole               -0.1954 Ry au,         -0.4965 Debye
        Dipole field         -0.0006 Ry au
 
        Potential amp.        0.0515 Ry
        Total length         45.0992 bohr
 

     total cpu time spent up to now is      670.1 secs

     total energy              =   -2114.86009126 Ry
     Harris-Foulkes estimate   =   -2114.86068239 Ry
     estimated scf accuracy    <       0.00692787 Ry

     iteration #  6     ecut=    36.75 Ry     beta=0.30
     Davidson diagonalization with overlap
     ethr =  3.77E-06,  avg # of iterations =  1.0

     negative rho (up, down):  1.594E+00 0.000E+00
 
     Adding external electric field

     Computed dipole along edir(3) : 
        Dipole               -0.1962 Ry au,         -0.4987 Debye
        Dipole field         -0.0006 Ry au
 
        Potential amp.        0.0517 Ry
        Total length         45.0992 bohr
 

     total cpu time spent up to now is      685.0 secs

     total energy              =   -2114.86008590 Ry
     Harris-Foulkes estimate   =   -2114.86038632 Ry
     estimated scf accuracy    <       0.00218122 Ry

     iteration #  7     ecut=    36.75 Ry     beta=0.30
     Davidson diagonalization with overlap
     ethr =  1.19E-06,  avg # of iterations =  4.0

     negative rho (up, down):  1.594E+00 0.000E+00
 
     Adding external electric field

     Computed dipole along edir(3) : 
        Dipole               -0.1953 Ry au,         -0.4964 Debye
        Dipole field         -0.0006 Ry au
 
        Potential amp.        0.0515 Ry
        Total length         45.0992 bohr
 

     total cpu time spent up to now is      701.6 secs

     total energy              =   -2114.86028445 Ry
     Harris-Foulkes estimate   =   -2114.86031486 Ry
     estimated scf accuracy    <       0.00038302 Ry

     iteration #  8     ecut=    36.75 Ry     beta=0.30
     Davidson diagonalization with overlap
     ethr =  2.08E-07,  avg # of iterations =  3.6

     negative rho (up, down):  1.594E+00 0.000E+00
 
     Adding external electric field

     Computed dipole along edir(3) : 
        Dipole               -0.1943 Ry au,         -0.4939 Debye
        Dipole field         -0.0006 Ry au
 
        Potential amp.        0.0512 Ry
        Total length         45.0992 bohr
 

     total cpu time spent up to now is      718.5 secs

     total energy              =   -2114.86029006 Ry
     Harris-Foulkes estimate   =   -2114.86033701 Ry
     estimated scf accuracy    <       0.00045165 Ry

     iteration #  9     ecut=    36.75 Ry     beta=0.30
     Davidson diagonalization with overlap
     ethr =  2.08E-07,  avg # of iterations =  1.0

     negative rho (up, down):  1.594E+00 0.000E+00
 
     Adding external electric field

     Computed dipole along edir(3) : 
        Dipole               -0.1955 Ry au,         -0.4968 Debye
        Dipole field         -0.0006 Ry au
 
        Potential amp.        0.0515 Ry
        Total length         45.0992 bohr
 

     total cpu time spent up to now is      733.6 secs

     total energy              =   -2114.86030402 Ry
     Harris-Foulkes estimate   =   -2114.86030819 Ry
     estimated scf accuracy    <       0.00006923 Ry

     iteration # 10     ecut=    36.75 Ry     beta=0.30
     Davidson diagonalization with overlap
     ethr =  3.76E-08,  avg # of iterations =  4.2

     negative rho (up, down):  1.594E+00 0.000E+00
 
     Adding external electric field

     Computed dipole along edir(3) : 
        Dipole               -0.1959 Ry au,         -0.4980 Debye
        Dipole field         -0.0006 Ry au
 
        Potential amp.        0.0516 Ry
        Total length         45.0992 bohr
 

     total cpu time spent up to now is      753.7 secs

     total energy              =   -2114.86031534 Ry
     Harris-Foulkes estimate   =   -2114.86031786 Ry
     estimated scf accuracy    <       0.00005711 Ry

     iteration # 11     ecut=    36.75 Ry     beta=0.30
     Davidson diagonalization with overlap
     ethr =  3.10E-08,  avg # of iterations =  1.0

     negative rho (up, down):  1.594E+00 0.000E+00
 
     Adding external electric field

     Computed dipole along edir(3) : 
        Dipole               -0.1966 Ry au,         -0.4997 Debye
        Dipole field         -0.0006 Ry au
 
        Potential amp.        0.0518 Ry
        Total length         45.0992 bohr
 

     total cpu time spent up to now is      770.3 secs

     total energy              =   -2114.86031256 Ry
     Harris-Foulkes estimate   =   -2114.86031599 Ry
     estimated scf accuracy    <       0.00003254 Ry

     iteration # 12     ecut=    36.75 Ry     beta=0.30
     Davidson diagonalization with overlap
     ethr =  1.77E-08,  avg # of iterations =  3.8

     negative rho (up, down):  1.594E+00 0.000E+00
 
     Adding external electric field

     Computed dipole along edir(3) : 
        Dipole               -0.1966 Ry au,         -0.4998 Debye
        Dipole field         -0.0006 Ry au
 
        Potential amp.        0.0518 Ry
        Total length         45.0992 bohr
 

     total cpu time spent up to now is      789.1 secs

     total energy              =   -2114.86031652 Ry
     Harris-Foulkes estimate   =   -2114.86031736 Ry
     estimated scf accuracy    <       0.00001482 Ry

     iteration # 13     ecut=    36.75 Ry     beta=0.30
     Davidson diagonalization with overlap
     ethr =  8.06E-09,  avg # of iterations =  1.0

     negative rho (up, down):  1.594E+00 0.000E+00

     negative rho (up, down):  1.594E+00 0.000E+00

     negative rho (up, down):  1.594E+00 0.000E+00

     negative rho (up, down):  1.594E+00 0.000E+00

     negative rho (up, down):  1.594E+00 0.000E+00

     negative rho (up, down):  1.594E+00 0.000E+00

     negative rho (up, down):  1.594E+00 0.000E+00

     negative rho (up, down):  1.594E+00 0.000E+00

     negative rho (up, down):  1.594E+00 0.000E+00

     negative rho (up, down):  1.594E+00 0.000E+00

     negative rho (up, down):  1.594E+00 0.000E+00

     negative rho (up, down):  1.594E+00 0.000E+00

     negative rho (up, down):  1.594E+00 0.000E+00

     negative rho (up, down):  1.594E+00 0.000E+00

     negative rho (up, down):  1.594E+00 0.000E+00

     negative rho (up, down):  1.594E+00 0.000E+00

     negative rho (up, down):  1.594E+00 0.000E+00

     negative rho (up, down):  1.594E+00 0.000E+00

     negative rho (up, down):  1.594E+00 0.000E+00

     negative rho (up, down):  1.594E+00 0.000E+00

     negative rho (up, down):  1.594E+00 0.000E+00

     negative rho (up, down):  1.594E+00 0.000E+00

     negative rho (up, down):  1.594E+00 0.000E+00

     negative rho (up, down):  1.594E+00 0.000E+00

     negative rho (up, down):  1.594E+00 0.000E+00

     negative rho (up, down):  1.594E+00 0.000E+00

     negative rho (up, down):  1.594E+00 0.000E+00

     negative rho (up, down):  1.594E+00 0.000E+00

     negative rho (up, down):  1.594E+00 0.000E+00

     negative rho (up, down):  1.594E+00 0.000E+00

     negative rho (up, down):  1.594E+00 0.000E+00

     negative rho (up, down):  1.594E+00 0.000E+00

     negative rho (up, down):  1.594E+00 0.000E+00

     negative rho (up, down):  1.594E+00 0.000E+00

     negative rho (up, down):  1.594E+00 0.000E+00
 
     Adding external electric field

     Computed dipole along edir(3) : 
        Dipole               -0.1959 Ry au,         -0.4978 Debye
        Dipole field         -0.0006 Ry au
 
        Potential amp.        0.0516 Ry
        Total length         45.0992 bohr
 

     total cpu time spent up to now is      847.2 secs

     End of self-consistent calculation

          k = 0.0000 0.0000 0.0000 ( 16073 PWs)   bands (ev):

   -65.0232 -64.8885 -64.8674 -64.8672 -64.8541 -64.7808 -64.7791 -64.7528
   -64.7182 -64.6330 -64.6276 -64.6271 -37.4656 -37.4518 -37.4517 -37.4050
   -37.3323 -37.3153 -37.3147 -37.1701 -37.1664 -37.1662 -36.8625 -36.8360
   -36.8352 -36.7963 -36.7439 -36.7436 -36.7294 -36.7287 -36.7284 -36.7225
   -36.5781 -36.5777 -36.5655 -36.5632 -36.5556 -36.5549 -36.4992 -36.4948
   -36.4948 -36.4254 -36.4220 -36.4218 -36.3609 -36.3606 -36.2253 -36.2253
    -7.9197  -4.1376  -3.0329  -3.0327  -2.9720  -2.8427  -2.7493  -2.5913
    -2.5913  -2.4962  -2.3317  -2.3316  -2.1803  -2.0929  -2.0927  -2.0802
    -1.1012  -1.1011  -0.7263  -0.1732  -0.1731   0.0462   0.2206   0.2209
     0.2514   0.5836   0.5866   0.5866   0.9023   0.9023   0.9988   1.0832
     1.0832   1.2754   1.2756   1.5175   1.8679   1.8681   1.9616   2.5972
     2.6138   2.6139   2.6419   2.9490   2.9491   3.2175   3.2178   3.5327
     3.5329   3.7557   4.0678   4.1709   4.1711   4.2665

          k = 0.0000 0.0351 0.0000 ( 16137 PWs)   bands (ev):

   -65.0129 -64.8816 -64.8755 -64.8675 -64.8562 -64.7857 -64.7794 -64.7448
   -64.7201 -64.6387 -64.6298 -64.6276 -37.4301 -37.4191 -37.3994 -37.3697
   -37.3121 -37.2871 -37.2778 -37.1419 -37.1363 -37.1180 -36.8738 -36.8595
   -36.8435 -36.8275 -36.7855 -36.7678 -36.7220 -36.7193 -36.7070 -36.6908
   -36.6144 -36.6091 -36.5660 -36.5584 -36.5501 -36.5479 -36.5437 -36.5117
   -36.5106 -36.4558 -36.4531 -36.4107 -36.4101 -36.3734 -36.2829 -36.2388
    -7.8707  -3.9063  -2.8951  -2.8334  -2.7819  -2.6155  -2.5328  -2.4767
    -2.3966  -2.3318  -2.2254  -2.1787  -2.0968  -1.9399  -1.8616  -1.8418
    -1.0367  -1.0082  -0.6818  -0.2430  -0.2380   0.0998   0.1594   0.2568
     0.2981   0.3310   0.4571   0.7739   0.8040   0.8470   1.0089   1.0277
     1.1280   1.2267   1.3432   1.3810   1.6355   1.7343   1.8018   2.1538
     2.2621   2.3701   2.5856   2.7089   2.7974   3.0346   3.1433   3.1869
     3.3012   3.4466   3.6595   3.6658   3.9702   3.9792

          k = 0.0000 0.0702 0.0000 ( 16149 PWs)   bands (ev):

   -64.9846 -64.9053 -64.8676 -64.8625 -64.8552 -64.8017 -64.7795 -64.7256
   -64.7205 -64.6606 -64.6306 -64.6276 -37.3482 -37.3374 -37.2944 -37.2632
   -37.2415 -37.2238 -37.2035 -37.0837 -37.0639 -37.0036 -36.9234 -36.9109
   -36.8963 -36.8571 -36.7989 -36.7782 -36.7266 -36.7228 -36.6798 -36.6795
   -36.6700 -36.6669 -36.6598 -36.6057 -36.5734 -36.5658 -36.5572 -36.5282
   -36.5211 -36.5154 -36.5104 -36.5048 -36.4179 -36.4075 -36.3739 -36.2753
    -7.7717  -3.3108  -2.5974  -2.3841  -2.3463  -2.2735  -2.1193  -1.9636
    -1.8999  -1.8847  -1.8491  -1.7629  -1.7504  -1.5665  -1.3382  -1.2806
    -0.8521  -0.7083  -0.6149  -0.5265  -0.4085  -0.2937  -0.0958   0.1477
     0.2278   0.3362   0.3739   0.5953   0.7156   0.7625   0.8590   0.9232
     1.0049   1.1337   1.2512   1.3468   1.4139   1.4440   1.5821   1.7807
     1.8311   1.9321   1.9576   2.0515   2.1710   2.2473   2.4563   2.6336
     2.7358   3.0201   3.2113   3.3178   3.3221   3.4237

          k = 0.0000-0.1053 0.0000 ( 16164 PWs)   bands (ev):

   -64.9485 -64.9419 -64.8677 -64.8592 -64.8392 -64.8195 -64.7794 -64.7256
   -64.6932 -64.6894 -64.6307 -64.6276 -37.2885 -37.2788 -37.2445 -37.2136
   -37.2008 -37.1897 -37.0683 -37.0475 -37.0341 -37.0110 -36.9805 -36.9708
   -36.8751 -36.8157 -36.7987 -36.7545 -36.7508 -36.7405 -36.7256 -36.7070
   -36.6930 -36.6846 -36.6512 -36.6433 -36.6181 -36.6150 -36.6064 -36.5991
   -36.5311 -36.5310 -36.4959 -36.4863 -36.4853 -36.4373 -36.3284 -36.3214
    -7.7218  -2.7549  -2.6538  -2.1665  -1.9811  -1.9496  -1.9492  -1.7677
    -1.6643  -1.5451  -1.4538  -1.4249  -1.2847  -1.1015  -1.0623  -0.9974
    -0.9960  -0.6829  -0.5594  -0.5177  -0.3595  -0.2740  -0.2194  -0.1647
    -0.1521   0.1054   0.2893   0.4313   0.6695   0.7154   0.8372   0.8577
     0.8692   0.9615   1.0177   1.0661   1.1436   1.1590   1.3187   1.3521
     1.4148   1.8794   1.9010   2.1400   2.1443   2.1779   2.2278   2.3490
     2.6360   2.6635   2.7629   2.8350   2.9220   2.9755

          k = 0.0304-0.0175 0.0000 ( 16137 PWs)   bands (ev):

   -65.0129 -64.8816 -64.8756 -64.8673 -64.8563 -64.7858 -64.7794 -64.7448
   -64.7201 -64.6385 -64.6305 -64.6272 -37.4300 -37.4192 -37.3994 -37.3697
   -37.3121 -37.2871 -37.2778 -37.1417 -37.1365 -37.1180 -36.8737 -36.8596
   -36.8435 -36.8276 -36.7854 -36.7680 -36.7219 -36.7193 -36.7069 -36.6909
   -36.6142 -36.6093 -36.5659 -36.5583 -36.5503 -36.5478 -36.5436 -36.5117
   -36.5106 -36.4555 -36.4533 -36.4107 -36.4101 -36.3734 -36.2829 -36.2388
    -7.8707  -3.9063  -2.8951  -2.8334  -2.7818  -2.6155  -2.5328  -2.4767
    -2.3966  -2.3318  -2.2254  -2.1787  -2.0968  -1.9399  -1.8617  -1.8417
    -1.0366  -1.0082  -0.6818  -0.2431  -0.2379   0.0998   0.1595   0.2568
     0.2982   0.3310   0.4571   0.7739   0.8039   0.8470   1.0089   1.0277
     1.1280   1.2267   1.3432   1.3810   1.6355   1.7343   1.8017   2.1537
     2.2622   2.3701   2.5856   2.7089   2.7974   3.0346   3.1433   3.1869
     3.3012   3.4466   3.6595   3.6659   3.9701   3.9793

          k = 0.0304 0.0175 0.0000 ( 16137 PWs)   bands (ev):

   -65.0129 -64.8818 -64.8754 -64.8673 -64.8563 -64.7844 -64.7808 -64.7448
   -64.7200 -64.6385 -64.6303 -64.6273 -37.4301 -37.4192 -37.3993 -37.3698
   -37.3122 -37.2867 -37.2781 -37.1419 -37.1363 -37.1180 -36.8735 -36.8594
   -36.8440 -36.8275 -36.7855 -36.7678 -36.7216 -36.7195 -36.7072 -36.6908
   -36.6146 -36.6086 -36.5659 -36.5585 -36.5501 -36.5482 -36.5437 -36.5117
   -36.5106 -36.4556 -36.4533 -36.4109 -36.4101 -36.3732 -36.2829 -36.2388
    -7.8707  -3.9063  -2.8952  -2.8333  -2.7819  -2.6155  -2.5328  -2.4767
    -2.3967  -2.3318  -2.2255  -2.1786  -2.0968  -1.9399  -1.8615  -1.8418
    -1.0367  -1.0081  -0.6818  -0.2431  -0.2378   0.0998   0.1594   0.2568
     0.2980   0.3310   0.4572   0.7739   0.8040   0.8468   1.0089   1.0278
     1.1281   1.2266   1.3431   1.3811   1.6355   1.7343   1.8017   2.1537
     2.2622   2.3702   2.5855   2.7088   2.7974   3.0347   3.1434   3.1870
     3.3012   3.4466   3.6594   3.6658   3.9701   3.9792

          k = 0.0304 0.0526 0.0000 ( 16202 PWs)   bands (ev):

   -64.9936 -64.8882 -64.8819 -64.8656 -64.8518 -64.7939 -64.7823 -64.7301
   -64.7219 -64.6472 -64.6427 -64.6217 -37.3830 -37.3282 -37.3204 -37.3101
   -37.2734 -37.2342 -37.2242 -37.1055 -37.0642 -37.0484 -36.9139 -36.8951
   -36.8779 -36.8657 -36.8105 -36.7453 -36.7286 -36.7145 -36.7077 -36.6768
   -36.6751 -36.6234 -36.6028 -36.5854 -36.5816 -36.5713 -36.5446 -36.5362
   -36.5300 -36.5191 -36.4807 -36.4272 -36.4246 -36.4012 -36.3763 -36.2678
    -7.7965  -3.4851  -2.6049  -2.5427  -2.4449  -2.3048  -2.2079  -2.1910
    -2.0830  -2.0374  -1.9404  -1.9293  -1.8138  -1.6273  -1.5644  -1.4030
    -0.9134  -0.8213  -0.6279  -0.4718  -0.3312  -0.1936   0.0346   0.1135
     0.2729   0.2891   0.5161   0.7062   0.7345   0.7851   0.8235   0.9543
     1.0641   1.1512   1.1752   1.3696   1.4072   1.5855   1.7233   1.8072
     1.9287   2.0126   2.2191   2.3243   2.3790   2.4400   2.4706   2.7111
     2.8772   3.1169   3.1764   3.4205   3.4735   3.6536

          k = 0.0304-0.1228 0.0000 ( 16203 PWs)   bands (ev):

   -64.9599 -64.9199 -64.8897 -64.8481 -64.8422 -64.8116 -64.7849 -64.7247
   -64.7026 -64.6718 -64.6488 -64.6177 -37.2975 -37.2437 -37.2349 -37.2149
   -37.1851 -37.1812 -37.1488 -37.0781 -37.0233 -36.9910 -36.9736 -36.9342
   -36.8960 -36.8641 -36.8124 -36.7676 -36.7568 -36.7341 -36.7103 -36.7006
   -36.6827 -36.6661 -36.6541 -36.6376 -36.6216 -36.6171 -36.5762 -36.5688
   -36.5417 -36.5346 -36.4995 -36.4741 -36.4626 -36.4435 -36.3767 -36.3188
    -7.7215  -2.8379  -2.4007  -2.1188  -2.0060  -1.9668  -1.8547  -1.7806
    -1.6356  -1.5460  -1.4944  -1.4734  -1.2959  -1.1717  -1.1465  -1.0614
    -0.8482  -0.7290  -0.6499  -0.5808  -0.4268  -0.3408  -0.2440  -0.0938
    -0.0070   0.0934   0.2141   0.3873   0.4785   0.6116   0.6453   0.7223
     0.8390   0.8915   0.9419   0.9858   1.1473   1.3018   1.3699   1.5030
     1.6113   1.6960   1.9276   2.0485   2.1973   2.2320   2.3623   2.4742
     2.5515   2.7339   2.7849   2.9542   3.1355   3.2629

          k = 0.0304-0.0877 0.0000 ( 16203 PWs)   bands (ev):

   -64.9599 -64.9199 -64.8897 -64.8481 -64.8420 -64.8121 -64.7844 -64.7248
   -64.7026 -64.6718 -64.6488 -64.6177 -37.2974 -37.2440 -37.2347 -37.2149
   -37.1851 -37.1812 -37.1488 -37.0781 -37.0232 -36.9911 -36.9736 -36.9340
   -36.8962 -36.8648 -36.8123 -36.7677 -36.7566 -36.7336 -36.7101 -36.7003
   -36.6833 -36.6661 -36.6541 -36.6374 -36.6215 -36.6173 -36.5762 -36.5687
   -36.5418 -36.5347 -36.4993 -36.4741 -36.4626 -36.4436 -36.3767 -36.3188
    -7.7215  -2.8379  -2.4007  -2.1188  -2.0060  -1.9668  -1.8547  -1.7805
    -1.6356  -1.5460  -1.4945  -1.4734  -1.2959  -1.1717  -1.1465  -1.0613
    -0.8481  -0.7290  -0.6500  -0.5808  -0.4268  -0.3409  -0.2440  -0.0938
    -0.0071   0.0934   0.2141   0.3873   0.4784   0.6115   0.6453   0.7223
     0.8390   0.8915   0.9419   0.9860   1.1474   1.3017   1.3700   1.5031
     1.6113   1.6959   1.9276   2.0484   2.1974   2.2319   2.3624   2.4743
     2.5513   2.7339   2.7847   2.9543   3.1356   3.2629

          k = 0.0304-0.0526 0.0000 ( 16202 PWs)   bands (ev):

   -64.9936 -64.8882 -64.8818 -64.8657 -64.8517 -64.7951 -64.7810 -64.7301
   -64.7221 -64.6470 -64.6428 -64.6217 -37.3829 -37.3283 -37.3204 -37.3099
   -37.2732 -37.2346 -37.2240 -37.1055 -37.0644 -37.0483 -36.9140 -36.8950
   -36.8782 -36.8654 -36.8106 -36.7451 -36.7288 -36.7146 -36.7077 -36.6770
   -36.6750 -36.6234 -36.6025 -36.5851 -36.5817 -36.5714 -36.5445 -36.5362
   -36.5299 -36.5192 -36.4807 -36.4273 -36.4246 -36.4014 -36.3763 -36.2677
    -7.7965  -3.4851  -2.6048  -2.5428  -2.4448  -2.3048  -2.2079  -2.1911
    -2.0830  -2.0374  -1.9404  -1.9294  -1.8139  -1.6273  -1.5643  -1.4030
    -0.9135  -0.8213  -0.6279  -0.4719  -0.3312  -0.1936   0.0346   0.1136
     0.2728   0.2892   0.5160   0.7062   0.7346   0.7850   0.8235   0.9542
     1.0642   1.1512   1.1752   1.3695   1.4073   1.5855   1.7234   1.8071
     1.9287   2.0127   2.2192   2.3244   2.3789   2.4399   2.4707   2.7111
     2.8772   3.1168   3.1764   3.4207   3.4734   3.6536

          k = 0.0608-0.0351 0.0000 ( 16149 PWs)   bands (ev):

   -64.9846 -64.9053 -64.8674 -64.8626 -64.8553 -64.8017 -64.7794 -64.7256
   -64.7205 -64.6605 -64.6311 -64.6272 -37.3481 -37.3375 -37.2944 -37.2632
   -37.2415 -37.2238 -37.2036 -37.0836 -37.0641 -37.0036 -36.9234 -36.9108
   -36.8963 -36.8571 -36.7989 -36.7783 -36.7265 -36.7228 -36.6799 -36.6794
   -36.6701 -36.6669 -36.6599 -36.6057 -36.5732 -36.5661 -36.5572 -36.5281
   -36.5209 -36.5156 -36.5102 -36.5049 -36.4180 -36.4075 -36.3739 -36.2753
    -7.7717  -3.3108  -2.5974  -2.3841  -2.3464  -2.2734  -2.1193  -1.9635
    -1.8999  -1.8847  -1.8491  -1.7629  -1.7504  -1.5666  -1.3382  -1.2806
    -0.8520  -0.7084  -0.6149  -0.5265  -0.4085  -0.2937  -0.0958   0.1476
     0.2278   0.3363   0.3739   0.5953   0.7156   0.7625   0.8590   0.9232
     1.0049   1.1337   1.2512   1.3468   1.4139   1.4440   1.5821   1.7808
     1.8311   1.9320   1.9576   2.0516   2.1711   2.2472   2.4564   2.6335
     2.7358   3.0202   3.2113   3.3179   3.3221   3.4237

          k = 0.0608 0.0000 0.0000 ( 16202 PWs)   bands (ev):

   -64.9936 -64.8884 -64.8817 -64.8656 -64.8518 -64.7939 -64.7823 -64.7301
   -64.7219 -64.6468 -64.6432 -64.6217 -37.3830 -37.3283 -37.3204 -37.3101
   -37.2734 -37.2341 -37.2242 -37.1054 -37.0642 -37.0484 -36.9139 -36.8950
   -36.8779 -36.8657 -36.8105 -36.7454 -36.7286 -36.7145 -36.7077 -36.6767
   -36.6752 -36.6234 -36.6028 -36.5854 -36.5816 -36.5713 -36.5446 -36.5362
   -36.5301 -36.5191 -36.4807 -36.4274 -36.4245 -36.4012 -36.3763 -36.2677
    -7.7965  -3.4851  -2.6049  -2.5428  -2.4449  -2.3048  -2.2079  -2.1910
    -2.0830  -2.0374  -1.9404  -1.9293  -1.8138  -1.6273  -1.5644  -1.4030
    -0.9134  -0.8213  -0.6279  -0.4718  -0.3312  -0.1936   0.0346   0.1135
     0.2729   0.2891   0.5160   0.7061   0.7345   0.7851   0.8235   0.9543
     1.0642   1.1512   1.1752   1.3696   1.4071   1.5855   1.7233   1.8072
     1.9288   2.0127   2.2190   2.3244   2.3789   2.4400   2.4706   2.7110
     2.8772   3.1169   3.1764   3.4206   3.4736   3.6536

          k = 0.0608 0.0351 0.0000 ( 16149 PWs)   bands (ev):

   -64.9846 -64.9053 -64.8674 -64.8625 -64.8555 -64.8005 -64.7808 -64.7254
   -64.7204 -64.6605 -64.6310 -64.6273 -37.3482 -37.3376 -37.2946 -37.2633
   -37.2416 -37.2233 -37.2037 -37.0836 -37.0637 -37.0035 -36.9232 -36.9110
   -36.8963 -36.8571 -36.7994 -36.7781 -36.7268 -36.7224 -36.6797 -36.6791
   -36.6697 -36.6673 -36.6599 -36.6059 -36.5733 -36.5660 -36.5573 -36.5282
   -36.5212 -36.5154 -36.5105 -36.5049 -36.4180 -36.4071 -36.3739 -36.2753
    -7.7717  -3.3108  -2.5974  -2.3841  -2.3463  -2.2735  -2.1192  -1.9635
    -1.9000  -1.8847  -1.8490  -1.7628  -1.7504  -1.5665  -1.3380  -1.2807
    -0.8522  -0.7081  -0.6149  -0.5267  -0.4084  -0.2937  -0.0958   0.1476
     0.2279   0.3361   0.3739   0.5953   0.7156   0.7625   0.8592   0.9232
     1.0047   1.1337   1.2514   1.3467   1.4138   1.4440   1.5820   1.7808
     1.8312   1.9321   1.9575   2.0514   2.1710   2.2473   2.4561   2.6336
     2.7358   3.0201   3.2113   3.3179   3.3220   3.4238

          k = 0.0608-0.1404 0.0000 ( 16203 PWs)   bands (ev):

   -64.9599 -64.9199 -64.8897 -64.8481 -64.8425 -64.8104 -64.7858 -64.7246
   -64.7026 -64.6718 -64.6489 -64.6176 -37.2975 -37.2441 -37.2348 -37.2152
   -37.1853 -37.1807 -37.1487 -37.0779 -37.0233 -36.9907 -36.9735 -36.9340
   -36.8962 -36.8646 -36.8124 -36.7675 -36.7569 -36.7341 -36.7101 -36.7002
   -36.6832 -36.6660 -36.6541 -36.6372 -36.6215 -36.6173 -36.5762 -36.5688
[...]

   -64.9238 -64.8414 -64.8046 -64.7888 -64.7694 -64.7157 -64.6941 -64.6531
   -64.6301 -64.5681 -64.5369 -64.5258 -37.3547 -37.3054 -37.2809 -37.2322
   -37.1810 -37.1747 -37.1519 -37.0063 -36.9721 -36.9281 -36.8860 -36.8418
   -36.8238 -36.7760 -36.7596 -36.7083 -36.6621 -36.6569 -36.6103 -36.6012
   -36.5907 -36.5675 -36.5620 -36.5142 -36.4958 -36.4752 -36.4726 -36.4368
   -36.4342 -36.4230 -36.4185 -36.3917 -36.3227 -36.3166 -36.2820 -36.1816
    -8.2020  -3.2797  -2.7420  -2.4604  -2.4494  -2.3311  -2.1393  -1.9870
    -1.8842  -1.8627  -1.8316  -1.7476  -1.7320  -1.5084  -1.4464  -1.3375
    -0.8945  -0.7591  -0.6274  -0.5959  -0.4003  -0.2714  -0.0719   0.1180
     0.2476   0.3409   0.4472   0.6136   0.7744   0.8036   0.9414   0.9591
     1.0145   1.1793   1.1973   1.3835   1.4871   1.5284   1.6669   1.8796
     1.9426   2.0193   2.0340   2.1317   2.1835   2.4367   2.5049   2.6648
     2.9514   3.2167   3.3158   3.3209   3.4249   3.5506

          k = 0.0608 0.0000 0.0000 ( 16202 PWs)   bands (ev):

   -64.9328 -64.8267 -64.8139 -64.7880 -64.7721 -64.7087 -64.6963 -64.6528
   -64.6362 -64.5598 -64.5415 -64.5228 -37.3794 -37.3273 -37.2953 -37.2677
   -37.2132 -37.1850 -37.1709 -37.0206 -36.9760 -36.9617 -36.8760 -36.8335
   -36.8076 -36.7820 -36.7577 -36.6960 -36.6592 -36.6480 -36.6342 -36.5806
   -36.5799 -36.5561 -36.5247 -36.5004 -36.4845 -36.4822 -36.4679 -36.4464
   -36.4348 -36.4209 -36.3762 -36.3353 -36.3324 -36.3153 -36.2799 -36.1741
    -8.2375  -3.4428  -2.7795  -2.6364  -2.5037  -2.3741  -2.2104  -2.1771
    -2.0869  -2.0023  -1.9243  -1.8893  -1.8024  -1.6191  -1.5291  -1.4668
    -1.0338  -0.8283  -0.6391  -0.5011  -0.4381  -0.1276   0.0251   0.1472
     0.2948   0.3778   0.5271   0.6641   0.7891   0.8289   0.9056   0.9567
     1.0794   1.1419   1.2561   1.4056   1.4954   1.6870   1.7934   1.9152
     2.0156   2.1547   2.2520   2.3613   2.4151   2.5270   2.5517   2.7993
     3.0681   3.2605   3.3222   3.5076   3.5930   3.7735

          k = 0.0608 0.0351 0.0000 ( 16149 PWs)   bands (ev):

   -64.9238 -64.8414 -64.8047 -64.7888 -64.7694 -64.7157 -64.6942 -64.6531
   -64.6301 -64.5682 -64.5369 -64.5258 -37.3548 -37.3055 -37.2809 -37.2322
   -37.1811 -37.1747 -37.1519 -37.0063 -36.9720 -36.9281 -36.8860 -36.8418
   -36.8238 -36.7760 -36.7597 -36.7083 -36.6621 -36.6570 -36.6103 -36.6012
   -36.5906 -36.5676 -36.5620 -36.5142 -36.4958 -36.4752 -36.4726 -36.4368
   -36.4342 -36.4231 -36.4185 -36.3917 -36.3227 -36.3166 -36.2820 -36.1816
    -8.2021  -3.2797  -2.7420  -2.4604  -2.4493  -2.3311  -2.1393  -1.9870
    -1.8842  -1.8627  -1.8316  -1.7476  -1.7320  -1.5084  -1.4464  -1.3375
    -0.8945  -0.7591  -0.6274  -0.5959  -0.4003  -0.2714  -0.0719   0.1180
     0.2476   0.3409   0.4472   0.6136   0.7744   0.8037   0.9413   0.9591
     1.0145   1.1793   1.1973   1.3835   1.4871   1.5284   1.6669   1.8796
     1.9426   2.0193   2.0340   2.1317   2.1835   2.4367   2.5048   2.6649
     2.9514   3.2167   3.3158   3.3209   3.4249   3.5506

          k = 0.0608-0.1404 0.0000 ( 16203 PWs)   bands (ev):

   -64.8996 -64.8562 -64.8226 -64.7790 -64.7561 -64.7256 -64.6994 -64.6524
   -64.6135 -64.5772 -64.5515 -64.5196 -37.2941 -37.2476 -37.2078 -37.1691
   -37.1474 -37.1342 -37.0870 -37.0306 -36.9603 -36.9120 -36.9009 -36.8717
   -36.8219 -36.7944 -36.7345 -36.7100 -36.6977 -36.6518 -36.6325 -36.6195
   -36.5994 -36.5872 -36.5611 -36.5449 -36.5361 -36.5195 -36.4912 -36.4753
   -36.4565 -36.4367 -36.4087 -36.3731 -36.3603 -36.3483 -36.2847 -36.2245
    -8.1290  -2.9005  -2.5166  -2.2133  -2.0817  -2.0352  -1.8996  -1.7696
    -1.6991  -1.5823  -1.5029  -1.4487  -1.3530  -1.2270  -1.1288  -1.1070
    -0.9869  -0.7639  -0.6844  -0.5383  -0.3743  -0.3267  -0.1802  -0.1150
     0.0104   0.0820   0.3040   0.3717   0.4991   0.6323   0.6693   0.7789
     0.8799   0.9618   1.0064   1.1071   1.2272   1.3768   1.4455   1.5229
     1.6324   1.8498   1.9963   2.1494   2.2493   2.3384   2.4955   2.5896
     2.6702   2.8626   2.9133   3.0612   3.2527   3.4345

          k = 0.0608-0.1053 0.0000 ( 16272 PWs)   bands (ev):

   -64.8755 -64.8642 -64.8441 -64.7734 -64.7433 -64.7331 -64.7059 -64.6515
   -64.6008 -64.5727 -64.5725 -64.5159 -37.2322 -37.2011 -37.1861 -37.1168
   -37.1165 -37.1112 -37.0672 -37.0417 -37.0226 -36.9690 -36.8775 -36.8147
   -36.8131 -36.7969 -36.7595 -36.7110 -36.7010 -36.6882 -36.6776 -36.6106
   -36.6062 -36.5722 -36.5559 -36.5515 -36.5458 -36.5433 -36.5003 -36.4985
   -36.4662 -36.4321 -36.4060 -36.3902 -36.3762 -36.3048 -36.2993 -36.2868
    -8.0914  -2.7279  -2.1335  -2.1164  -1.7324  -1.7293  -1.6944  -1.5548
    -1.5290  -1.5278  -1.4447  -1.3221  -1.2644  -1.2341  -1.0630  -1.0218
    -0.9072  -0.7724  -0.6522  -0.5408  -0.5098  -0.2876  -0.1237  -0.1154
     0.0357   0.0635   0.0896   0.1699   0.2193   0.2589   0.3684   0.4064
     0.5083   0.5491   0.9039   0.9324   1.2592   1.3391   1.3715   1.4487
     1.5602   1.7151   1.8538   2.1155   2.4120   2.4294   2.6118   2.6125
     2.7848   2.8688   3.0024   3.2327   3.2429   3.3470

          k = 0.0608-0.0702 0.0000 ( 16203 PWs)   bands (ev):

   -64.8996 -64.8563 -64.8225 -64.7790 -64.7561 -64.7257 -64.6993 -64.6524
   -64.6135 -64.5771 -64.5515 -64.5196 -37.2941 -37.2475 -37.2079 -37.1692
   -37.1474 -37.1342 -37.0870 -37.0306 -36.9603 -36.9120 -36.9009 -36.8717
   -36.8218 -36.7944 -36.7345 -36.7100 -36.6977 -36.6518 -36.6325 -36.6194
   -36.5994 -36.5872 -36.5611 -36.5449 -36.5362 -36.5195 -36.4912 -36.4753
   -36.4565 -36.4367 -36.4087 -36.3731 -36.3603 -36.3483 -36.2847 -36.2245
    -8.1290  -2.9005  -2.5166  -2.2134  -2.0818  -2.0352  -1.8996  -1.7696
    -1.6991  -1.5823  -1.5029  -1.4487  -1.3530  -1.2270  -1.1288  -1.1070
    -0.9869  -0.7639  -0.6844  -0.5384  -0.3743  -0.3267  -0.1802  -0.1150
     0.0104   0.0820   0.3040   0.3717   0.4991   0.6323   0.6693   0.7789
     0.8799   0.9618   1.0064   1.1071   1.2272   1.3768   1.4455   1.5229
     1.6324   1.8498   1.9963   2.1494   2.2493   2.3384   2.4955   2.5896
     2.6702   2.8626   2.9133   3.0612   3.2527   3.4345

          k =-0.0912 0.0526 0.0000 ( 16164 PWs)   bands (ev):

   -64.8920 -64.8734 -64.8046 -64.7869 -64.7537 -64.7326 -64.6941 -64.6535
   -64.6094 -64.5880 -64.5384 -64.5258 -37.2943 -37.2596 -37.2193 -37.1682
   -37.1519 -37.1502 -37.0227 -37.0101 -36.9684 -36.9231 -36.9168 -36.8918
   -36.8089 -36.7649 -36.7602 -36.6821 -36.6705 -36.6491 -36.6479 -36.6144
   -36.5929 -36.5924 -36.5673 -36.5581 -36.5414 -36.5336 -36.5073 -36.5052
   -36.4399 -36.4314 -36.4118 -36.4020 -36.3632 -36.3463 -36.2425 -36.2222
    -8.1297  -2.8892  -2.6150  -2.3261  -2.0591  -1.9887  -1.9556  -1.7811
    -1.6644  -1.6061  -1.5434  -1.4591  -1.2920  -1.1283  -1.0642  -1.0416
    -1.0078  -0.8597  -0.6454  -0.4269  -0.3945  -0.2620  -0.1668  -0.1465
    -0.1153   0.1010   0.3652   0.4900   0.6209   0.6512   0.9162   0.9733
     0.9789   0.9846   1.1062   1.1630   1.1818   1.2678   1.3515   1.3706
     1.4184   1.9992   2.1052   2.1238   2.1975   2.2648   2.3718   2.5501
     2.6785   2.7793   2.8786   3.0056   3.0286   3.0447

          k =-0.0912 0.0877 0.0000 ( 16203 PWs)   bands (ev):

   -64.8996 -64.8562 -64.8225 -64.7790 -64.7561 -64.7256 -64.6993 -64.6524
   -64.6135 -64.5771 -64.5515 -64.5196 -37.2941 -37.2475 -37.2079 -37.1692
   -37.1474 -37.1342 -37.0870 -37.0306 -36.9603 -36.9120 -36.9009 -36.8717
   -36.8218 -36.7944 -36.7345 -36.7100 -36.6977 -36.6518 -36.6325 -36.6195
   -36.5994 -36.5872 -36.5611 -36.5449 -36.5362 -36.5195 -36.4912 -36.4753
   -36.4565 -36.4367 -36.4087 -36.3731 -36.3603 -36.3483 -36.2847 -36.2245
    -8.1290  -2.9005  -2.5166  -2.2133  -2.0818  -2.0352  -1.8996  -1.7696
    -1.6991  -1.5823  -1.5029  -1.4487  -1.3530  -1.2270  -1.1288  -1.1071
    -0.9869  -0.7639  -0.6844  -0.5384  -0.3743  -0.3267  -0.1802  -0.1150
     0.0104   0.0820   0.3040   0.3717   0.4991   0.6323   0.6693   0.7789
     0.8799   0.9618   1.0064   1.1071   1.2272   1.3768   1.4455   1.5229
     1.6324   1.8498   1.9963   2.1494   2.2493   2.3385   2.4955   2.5896
     2.6702   2.8626   2.9133   3.0612   3.2527   3.4345

          k =-0.0912 0.1228 0.0000 ( 16203 PWs)   bands (ev):

   -64.8996 -64.8562 -64.8226 -64.7790 -64.7561 -64.7256 -64.6994 -64.6524
   -64.6135 -64.5771 -64.5515 -64.5196 -37.2941 -37.2476 -37.2078 -37.1691
   -37.1474 -37.1342 -37.0870 -37.0306 -36.9603 -36.9120 -36.9009 -36.8717
   -36.8219 -36.7944 -36.7345 -36.7100 -36.6977 -36.6518 -36.6325 -36.6195
   -36.5994 -36.5872 -36.5611 -36.5449 -36.5361 -36.5195 -36.4912 -36.4753
   -36.4565 -36.4367 -36.4087 -36.3731 -36.3603 -36.3483 -36.2847 -36.2245
    -8.1290  -2.9005  -2.5166  -2.2133  -2.0817  -2.0352  -1.8996  -1.7696
    -1.6991  -1.5823  -1.5029  -1.4487  -1.3530  -1.2270  -1.1288  -1.1070
    -0.9869  -0.7639  -0.6844  -0.5383  -0.3743  -0.3267  -0.1802  -0.1150
     0.0104   0.0820   0.3040   0.3717   0.4991   0.6323   0.6693   0.7789
     0.8799   0.9618   1.0064   1.1071   1.2272   1.3768   1.4455   1.5229
     1.6324   1.8498   1.9963   2.1494   2.2493   2.3384   2.4955   2.5896
     2.6702   2.8626   2.9133   3.0612   3.2527   3.4345

          k =-0.0912-0.0526 0.0000 ( 16164 PWs)   bands (ev):

   -64.8921 -64.8733 -64.8047 -64.7868 -64.7537 -64.7325 -64.6942 -64.6535
   -64.6094 -64.5881 -64.5384 -64.5258 -37.2943 -37.2596 -37.2192 -37.1681
   -37.1519 -37.1503 -37.0226 -37.0100 -36.9684 -36.9231 -36.9168 -36.8918
   -36.8089 -36.7649 -36.7603 -36.6821 -36.6705 -36.6491 -36.6479 -36.6144
   -36.5929 -36.5924 -36.5674 -36.5581 -36.5413 -36.5336 -36.5074 -36.5052
   -36.4400 -36.4313 -36.4118 -36.4020 -36.3632 -36.3463 -36.2425 -36.2222
    -8.1297  -2.8892  -2.6150  -2.3261  -2.0592  -1.9887  -1.9556  -1.7811
    -1.6644  -1.6061  -1.5435  -1.4591  -1.2920  -1.1283  -1.0643  -1.0416
    -1.0078  -0.8597  -0.6454  -0.4269  -0.3945  -0.2619  -0.1668  -0.1466
    -0.1153   0.1010   0.3652   0.4900   0.6208   0.6512   0.9163   0.9733
     0.9789   0.9846   1.1062   1.1630   1.1818   1.2678   1.3515   1.3706
     1.4184   1.9992   2.1052   2.1238   2.1975   2.2648   2.3718   2.5501
     2.6785   2.7794   2.8786   3.0056   3.0286   3.0447

     the Fermi energy is     2.3395 ev

!    total energy              =   -2114.89461313 Ry
     Harris-Foulkes estimate   =   -2114.89461337 Ry
     estimated scf accuracy    <       0.00000002 Ry

     The total energy is the sum of the following terms:

     one-electron contribution =  -19141.38956536 Ry
     hartree contribution      =    9570.10589659 Ry
     xc contribution           =    -400.82019688 Ry
     ewald contribution        =    7857.29723172 Ry
     electric field correction =       0.00004698 Ry
     smearing contrib. (-TS)   =      -0.08802616 Ry

     convergence has been achieved in  12 iterations
 
 BEEF-vdW xc energy contributions
           1 :   -351.188171898234     
           2 :    323.066814806900     
           3 :   -272.990473084589     
           4 :    210.929108660921     
           5 :   -147.573609390325     
           6 :    91.3894997351740     
           7 :   -46.9564880430991     
           8 :    14.8276879333724     
           9 :    7.25135200550932     
          10 :   -22.5335979148638     
          11 :    33.6119608997648     
          12 :   -41.5498881605817     
          13 :    45.9261023424926     
          14 :   -45.6092909565295     
          15 :    39.7775306971554     
          16 :   -28.7238715308065     
          17 :    14.1035697304695     
          18 :    1.42325442243964     
          19 :   -14.9782051190244     
          20 :    24.3157192990029     
          21 :   -28.4001761998557     
          22 :    27.4997586050750     
          23 :   -22.8285931434075     
          24 :    15.9446813156096     
          25 :   -8.20088014433890     
          26 :   0.461738054539865     
          27 :    6.84756881987011     
          28 :   -13.4778988314553     
          29 :    19.0725731800533     
          30 :   -23.0455433167279     
          31 :   -33.4859561372846     
          32 :   -24.6262172095107     

     Forces acting on atoms (Ry/au):


     negative rho (up, down):  1.589E+00 0.000E+00
     atom    1 type  1   force =    -0.00000221    0.00000080    0.02383981
     atom    2 type  1   force =     0.00000242   -0.00348673    0.02783844
     atom    3 type  1   force =    -0.00302071    0.00174437    0.02783481
     atom    4 type  1   force =     0.00301933    0.00174032    0.02783923
     atom    5 type  1   force =     0.00264070   -0.00152174   -0.01134944
     atom    6 type  1   force =    -0.00264018   -0.00152148   -0.01134817
     atom    7 type  1   force =     0.00000111   -0.00000168   -0.07314439
     atom    8 type  1   force =    -0.00000050    0.00304617   -0.01135020
     atom    9 type  1   force =    -0.00132431   -0.00076376   -0.00026751
     atom   10 type  1   force =     0.00132344   -0.00076369   -0.00026796
     atom   11 type  1   force =     0.00000006    0.00152915   -0.00027260
     atom   12 type  1   force =     0.00000000   -0.00000074    0.00016011
     atom   13 type  2   force =     0.00000085   -0.00000100    0.00048786

     Total force =     0.002737     Total SCF correction =     0.000234


     entering subroutine stress ...


     negative rho (up, down):  1.589E+00 0.000E+00
          total   stress  (Ry/bohr**3)                   (kbar)     P=  -18.59
  -0.00012830   0.00000000   0.00000000        -18.87      0.00      0.00
   0.00000000  -0.00012830   0.00000000          0.00    -18.87      0.00
   0.00000000   0.00000000  -0.00012245          0.00      0.00    -18.01


     bfgs converged in  13 scf cycles and  12 bfgs steps
     (criteria: energy <  1.0E+00, force <  1.9E-03)

     End of BFGS Geometry Optimization

     Final energy   =   -2114.8946131305 Ry
Begin final coordinates

ATOMIC_POSITIONS (crystal)
Tc1      0.166666667   0.166666667   0.408540475    0   0   0
Tc1      0.666666667   0.166666667   0.408540475    0   0   0
Tc1      0.166666667   0.666666667   0.408540475    0   0   0
Tc1      0.666666667   0.666666667   0.408540475    0   0   0
Tc1      0.833333333   0.333333333   0.500000000    0   0   0
Tc1      0.333333333   0.333333333   0.500000000    0   0   0
Tc1      0.833333333   0.833333333   0.500000000    0   0   0
Tc1      0.333333333   0.833333333   0.500000000    0   0   0
Tc1     -0.003120369  -0.003118336   0.592029724
Tc1      0.506238932  -0.003120552   0.592029930
Tc1     -0.003122192   0.506238961   0.592029941
Tc1      0.500001311   0.499999327   0.583936965
C1       0.166666817   0.166667084   0.637276666
End final coordinates



     Writing output data file calc.save
 
     init_run     :      9.56s CPU      9.89s WALL (       1 calls)
     electrons    :   4227.63s CPU   4602.53s WALL (      13 calls)
     update_pot   :     29.09s CPU     30.15s WALL (      12 calls)
     forces       :    170.16s CPU    186.83s WALL (      13 calls)
     stress       :    534.83s CPU    590.85s WALL (      13 calls)

     Called by init_run:
     wfcinit      :      3.90s CPU      3.96s WALL (       1 calls)
     potinit      :      1.56s CPU      1.64s WALL (       1 calls)

     Called by electrons:
     c_bands      :   1856.38s CPU   1979.21s WALL (     203 calls)
     sum_band     :    810.98s CPU    899.19s WALL (     203 calls)
     v_of_rho     :    286.08s CPU    317.06s WALL (     215 calls)
     newd         :    663.04s CPU    676.58s WALL (     215 calls)
     mix_rho      :      9.90s CPU     10.15s WALL (     203 calls)
     vdW_energy   :    131.07s CPU    143.89s WALL (     683 calls)
     vdW_ffts     :    277.31s CPU    290.64s WALL (    1392 calls)
     vdW_v        :    111.05s CPU    114.90s WALL (     683 calls)

     Called by c_bands:
     init_us_2    :      9.45s CPU      9.51s WALL (    2165 calls)
     cegterg      :   1672.03s CPU   1714.30s WALL (    1015 calls)

     Called by *egterg:
     h_psi        :    967.52s CPU    989.25s WALL (    4992 calls)
     s_psi        :    102.88s CPU    103.02s WALL (    4992 calls)
     g_psi        :      6.91s CPU      6.94s WALL (    3972 calls)
     cdiaghg      :    227.94s CPU    229.24s WALL (    4922 calls)

     Called by h_psi:
     add_vuspsi   :    105.47s CPU    105.73s WALL (    4992 calls)

     General routines
     calbec       :    160.44s CPU    162.83s WALL (    6137 calls)
     fft          :    419.64s CPU    448.54s WALL (   41545 calls)
     ffts         :      0.60s CPU      0.62s WALL (     418 calls)
     fftw         :    568.88s CPU    590.96s WALL (  636796 calls)
     interpolate  :      5.41s CPU      5.54s WALL (     418 calls)
     davcio       :      0.00s CPU      0.03s WALL (       5 calls)
 
     Parallel routines
     fft_scatter  :    563.54s CPU    613.85s WALL (  678759 calls)
 
     PWSCF        :     1h23m CPU        1h31m WALL

 
   This run was terminated on:  17:31:31   2May2018            

=------------------------------------------------------------------------------=
   JOB DONE.
=------------------------------------------------------------------------------=
Job  /afs/slac/g/suncat/bin/suncat-tsmpirun -x LD_LIBRARY_PATH -wdir /scratch/qe791674_39w01 pw.x -npool 4 -in pw.inp

TID   HOST_NAME   COMMAND_LINE            STATUS            TERMINATION_TIME
===== ========== ================  =======================  ===================
00000 suncat0169 pw.x -npool 4 -i  Done                     05/02/2018 17:31:31
00001 suncat0169 pw.x -npool 4 -i  Done                     05/02/2018 17:31:31
00002 suncat0169 pw.x -npool 4 -i  Done                     05/02/2018 17:31:31
00003 suncat0169 pw.x -npool 4 -i  Done                     05/02/2018 17:31:31
00004 suncat0169 pw.x -npool 4 -i  Done                     05/02/2018 17:31:31
00005 suncat0169 pw.x -npool 4 -i  Done                     05/02/2018 17:31:31
00006 suncat0169 pw.x -npool 4 -i  Done                     05/02/2018 17:31:31
00007 suncat0169 pw.x -npool 4 -i  Done                     05/02/2018 17:31:31
00008 suncat0167 pw.x -npool 4 -i  Done                     05/02/2018 17:31:31
00009 suncat0167 pw.x -npool 4 -i  Done                     05/02/2018 17:31:31
00010 suncat0167 pw.x -npool 4 -i  Done                     05/02/2018 17:31:31
00011 suncat0167 pw.x -npool 4 -i  Done                     05/02/2018 17:31:31
00012 suncat0167 pw.x -npool 4 -i  Done                     05/02/2018 17:31:31
00013 suncat0167 pw.x -npool 4 -i  Done                     05/02/2018 17:31:31
00014 suncat0167 pw.x -npool 4 -i  Done                     05/02/2018 17:31:31
00015 suncat0167 pw.x -npool 4 -i  Done                     05/02/2018 17:31:31
00016 suncat0123 pw.x -npool 4 -i  Done                     05/02/2018 17:31:31
00017 suncat0123 pw.x -npool 4 -i  Done                     05/02/2018 17:31:31
00018 suncat0123 pw.x -npool 4 -i  Done                     05/02/2018 17:31:31
00019 suncat0123 pw.x -npool 4 -i  Done                     05/02/2018 17:31:31
00020 suncat0123 pw.x -npool 4 -i  Done                     05/02/2018 17:31:31
00021 suncat0123 pw.x -npool 4 -i  Done                     05/02/2018 17:31:31
00022 suncat0123 pw.x -npool 4 -i  Done                     05/02/2018 17:31:31
00023 suncat0123 pw.x -npool 4 -i  Done                     05/02/2018 17:31:31
00024 suncat0121 pw.x -npool 4 -i  Done                     05/02/2018 17:31:31
00025 suncat0121 pw.x -npool 4 -i  Done                     05/02/2018 17:31:31
00026 suncat0121 pw.x -npool 4 -i  Done                     05/02/2018 17:31:31
00027 suncat0121 pw.x -npool 4 -i  Done                     05/02/2018 17:31:31
00028 suncat0121 pw.x -npool 4 -i  Done                     05/02/2018 17:31:31
00029 suncat0121 pw.x -npool 4 -i  Done                     05/02/2018 17:31:31
00030 suncat0121 pw.x -npool 4 -i  Done                     05/02/2018 17:31:31
00031 suncat0121 pw.x -npool 4 -i  Done                     05/02/2018 17:31:31
