  python dir          : /u/if/mamunm/src/espresso
  espresso dir        : /nfs/slac/g/suncatfs/sw/espv18/espresso-dynpy-beef/bin
  pseudo dir          : /u/if/mamunm/psp/gbrv1.5pbe
  ase-espresso py git : GITVERSION



     Program PWSCF v.5.1rc2 (svn rev. 11289) starts on  3May2018 at 19:57:13 

     This program is part of the open-source Quantum ESPRESSO suite
     for quantum simulation of materials; please cite
         "P. Giannozzi et al., J. Phys.:Condens. Matter 21 395502 (2009);
          URL http://www.quantum-espresso.org", 
     in publications or presentations arising from this work. More details at
     http://www.quantum-espresso.org/quote

     Parallel version (MPI), running on    32 processors
     K-points division:     npool     =       4
     R & G space division:  proc/nbgrp/npool/nimage =       8
     Reading input from pw.inp
     Message from routine read_cards :
     DEPRECATED: no units specified in CELL_PARAMETERS card

     Current dimensions of program PWSCF are:
     Max number of different atomic species (ntypx) = 10
     Max number of k-points (npk) =  40000
     Max angular momentum in pseudopotentials (lmaxx) =  3
     Presently stress not available with electric field


     **************************************************************************
     Initializing libbeef V0.1.1 with the BEEF-vdW functional.
     Citation: Wellendorff et al., PRB 85, 235149 (2012).
     **************************************************************************


     IMPORTANT: XC functional enforced from input :
     Exchange-correlation      = BEEF-VDW ( 1  4 27 13 2)
     Any further DFT definition will be discarded
     Please, verify this is what you really want


     Subspace diagonalization in iterative solution of the eigenvalue problem:
     a serial algorithm will be used

 
     Parallelization info
     --------------------
     sticks:   dense  smooth     PW     G-vecs:    dense   smooth      PW
     Min         417     168     47                80423    20354    3153
     Max         418     169     48                80438    20375    3172
     Sum        3343    1345    379               643481   162939   25279
 


     bravais-lattice index     =            0
     lattice parameter (alat)  =       1.8897  a.u.
     unit-cell volume          =    5409.9593 (a.u.)^3
     number of atoms/cell      =           13
     number of atomic types    =            2
     number of electrons       =       234.00
     number of Kohn-Sham states=          127
     kinetic-energy cutoff     =      36.7493  Ry
     charge density cutoff     =     367.4932  Ry
     convergence threshold     =      1.0E-05
     mixing beta               =       0.3000
     number of iterations used =           10  plain     mixing
     Exchange-correlation      = BEEF-VDW ( 1  4 27 13 2)
     nstep                     =           50


     celldm(1)=   1.889726  celldm(2)=   0.000000  celldm(3)=   0.000000
     celldm(4)=   0.000000  celldm(5)=   0.000000  celldm(6)=   0.000000

     crystal axes: (cart. coord. in units of alat)
               a(1) = (   6.088539   0.000000   0.000000 )  
               a(2) = (   3.044269   5.272829   0.000000 )  
               a(3) = (   0.000000   0.000000  24.971271 )  

     reciprocal axes: (cart. coord. in units 2 pi/alat)
               b(1) = (  0.164243 -0.094826  0.000000 )  
               b(2) = (  0.000000  0.189652  0.000000 )  
               b(3) = (  0.000000  0.000000  0.040046 )  


     PseudoPot. # 1 for Ga read from file:
     /u/if/mamunm/psp/gbrv1.5pbe/Ga.UPF
     MD5 check sum: ccd671392a58a050fbb373893b4fcd66
     Pseudo is Ultrasoft + core correction, Zval = 19.0
     Generated by new atomic code, or converted to UPF format
     Using radial grid of  871 points,  6 beta functions with: 
                l(1) =   0
                l(2) =   0
                l(3) =   1
                l(4) =   1
                l(5) =   2
                l(6) =   2
     Q(r) pseudized with  8 coefficients,  rinner =    1.250   1.250   1.250
                                                       1.250   1.250

     PseudoPot. # 2 for O  read from file:
     /u/if/mamunm/psp/gbrv1.5pbe/O.UPF
     MD5 check sum: 734c27235a0248c51dbae37a1fbe46ec
     Pseudo is Ultrasoft + core correction, Zval =  6.0
     Generated by new atomic code, or converted to UPF format
     Using radial grid of  737 points,  5 beta functions with: 
                l(1) =   0
                l(2) =   0
                l(3) =   1
                l(4) =   1
                l(5) =   2
     Q(r) pseudized with  8 coefficients,  rinner =    0.900   0.900   0.900
                                                       0.900   0.900

     vdW kernel table read from file vdW_kernel_table
     MD5 check sum: 095c7af220d748ca6e76c0b4c6cfb241

     atomic species   valence    mass     pseudopotential
        Ga1           19.00    69.72300     Ga( 1.00)
        O1             6.00    15.99900     O ( 1.00)

     No symmetry found



   Cartesian axes

     site n.     atom                  positions (alat units)
         1           Ga1 tau(   1) = (   1.5221346   0.8788048  10.0000000  )
         2           Ga1 tau(   2) = (   4.5664039   0.8788048  10.0000000  )
         3           Ga1 tau(   3) = (   3.0442693   3.5152194  10.0000000  )
         4           Ga1 tau(   4) = (   6.0885386   3.5152194  10.0000000  )
         5           Ga1 tau(   5) = (   6.0885386   1.7576097  12.4856355  )
         6           Ga1 tau(   6) = (   3.0442693   1.7576097  12.4856355  )
         7           Ga1 tau(   7) = (   7.6106732   4.3940242  12.4856355  )
         8           Ga1 tau(   8) = (   4.5664039   4.3940242  12.4856355  )
         9           Ga1 tau(   9) = (   0.0000000   0.0000000  14.9712709  )
        10           Ga1 tau(  10) = (   3.0442693   0.0000000  14.9712709  )
        11           Ga1 tau(  11) = (   1.5221346   2.6364145  14.9712709  )
        12           Ga1 tau(  12) = (   4.5664039   2.6364145  14.9712709  )
        13           O1  tau(  13) = (   1.5221346   0.8788048  16.1932709  )

     number of k points=    20  Fermi-Dirac smearing, width (Ry)=  0.0110
                       cart. coord. in units 2pi/alat
        k(    1) = (   0.0000000   0.0000000   0.0000000), wk =   0.0555556
        k(    2) = (   0.0000000   0.0316086   0.0000000), wk =   0.1111111
        k(    3) = (   0.0000000   0.0632172   0.0000000), wk =   0.1111111
        k(    4) = (   0.0000000  -0.0948258   0.0000000), wk =   0.0555556
        k(    5) = (   0.0273738  -0.0158043   0.0000000), wk =   0.1111111
        k(    6) = (   0.0273738   0.0158043   0.0000000), wk =   0.1111111
        k(    7) = (   0.0273738   0.0474129   0.0000000), wk =   0.1111111
        k(    8) = (   0.0273738  -0.1106300   0.0000000), wk =   0.1111111
        k(    9) = (   0.0273738  -0.0790215   0.0000000), wk =   0.1111111
        k(   10) = (   0.0273738  -0.0474129   0.0000000), wk =   0.1111111
        k(   11) = (   0.0547477  -0.0316086   0.0000000), wk =   0.1111111
        k(   12) = (   0.0547477   0.0000000   0.0000000), wk =   0.1111111
        k(   13) = (   0.0547477   0.0316086   0.0000000), wk =   0.1111111
        k(   14) = (   0.0547477  -0.1264343   0.0000000), wk =   0.1111111
        k(   15) = (   0.0547477  -0.0948258   0.0000000), wk =   0.1111111
        k(   16) = (   0.0547477  -0.0632172   0.0000000), wk =   0.1111111
        k(   17) = (  -0.0821215   0.0474129   0.0000000), wk =   0.0555556
        k(   18) = (  -0.0821215   0.0790215   0.0000000), wk =   0.1111111
        k(   19) = (  -0.0821215   0.1106300   0.0000000), wk =   0.1111111
        k(   20) = (  -0.0821215  -0.0474129   0.0000000), wk =   0.0555556

     Dense  grid:   643481 G-vectors     FFT dimensions: (  72,  72, 288)

     Smooth grid:   162939 G-vectors     FFT dimensions: (  45,  45, 192)

     Largest allocated arrays     est. size (Mb)     dimensions
        Kohn-Sham Wavefunctions         4.97 Mb     (    2564,  127)
        NL pseudopotentials             8.96 Mb     (    2564,  229)
        Each V/rho on FFT grid          2.85 Mb     (  186624)
        Each G-vector array             0.61 Mb     (   80438)
        G-vector shells                 0.16 Mb     (   21346)
     Largest temporary arrays     est. size (Mb)     dimensions
        Auxiliary wavefunctions        19.87 Mb     (    2564,  508)
        Each subspace H/S matrix        3.94 Mb     (     508,  508)
        Each <psi_i|beta_j> matrix      0.44 Mb     (     229,  127)
        Arrays for rho mixing          28.48 Mb     (  186624,   10)

     Initial potential from superposition of free atoms
     Check: negative starting charge=   -0.001367

     starting charge  221.99999, renormalised to  234.00000

     negative rho (up, down):  1.441E-03 0.000E+00


     ************************************************************************
     *
     * You are using vdW-DF for exchange-correlation in this calculation.
     * Please cite the following three references that made this development
     * possible:
     *
     *   M. Dion, H. Rydberg, E. Schroder, D. C. Langreth, and
     *   B. I. Lundqvist, Phys. Rev. Lett. 92, 246401 (2004).
     *
     *   T. Thonhauser, V. R. Cooper, S. Li, A. Puzder, P. Hyldgaard, and
     *   D. C. Langreth, Phys. Rev. B 76, 125112 (2007).
     *
     *   G. Roman-Perez and J. M. Soler, Phys. Rev. Lett. 103, 096102 (2009).
     *
     *
     * If you are using vdW-DF2, please also cite:
     *
     *   K. Lee, E. D. Murray, L. Kong, B. I. Lundqvist, and
     *   D. C. Langreth, Phys. Rev. B 82, 081101(R) (2010).
     *
     *
     * If you are calculating the stress with vdW-DF, please also cite:
     *
     *   R. Sabatini, E. Kucukbenli, B. Kolb, T. Thonhauser, and
     *   S. de Gironcoli, J. Phys.: Condens. Matter 24, 424209 (2012).
     *
     ************************************************************************

     Carrying out vdW-DF run using the following parameters:

     Nqs =      20    Nr_points =    1024   r_max =   100.000
     q_mesh =
               0.00001000     0.04494208     0.09755937     0.15916263
               0.23128650     0.31572767     0.41458969     0.53033537
               0.66584808     0.82450364     1.01025438     1.22772762
               1.48234092     1.78043706     2.12944203     2.53805004
               3.01644009     3.57652955     4.23227104     5.00000000

     Gradients computed in reciprocal space

     ************************************************************************


 
     Adding external electric field

     Computed dipole along edir(3) : 
        Dipole               -2.2723 Ry au,         -5.7757 Debye
        Dipole field         -0.0053 Ry au
 
        Potential amp.        0.4857 Ry
        Total length         46.0091 bohr
 
     Starting wfc are  148 randomized atomic wfcs

     total cpu time spent up to now is       13.7 secs

     per-process dynamical memory:    97.0 Mb

     Self-consistent Calculation

     iteration #  1     ecut=    36.75 Ry     beta=0.30
     Davidson diagonalization with overlap
     ethr =  1.00E-02,  avg # of iterations =  6.9

     negative rho (up, down):  1.152E-07 0.000E+00
 
     Adding external electric field

     Computed dipole along edir(3) : 
        Dipole               81.6016 Ry au,        207.4105 Debye
        Dipole field          0.1895 Ry au
 
        Potential amp.      -17.4417 Ry
        Total length         46.0091 bohr
 

     total cpu time spent up to now is       52.4 secs

     total energy              =   -4729.43522442 Ry
     Harris-Foulkes estimate   =   -5041.26733902 Ry
     estimated scf accuracy    <     658.68708405 Ry

     iteration #  2     ecut=    36.75 Ry     beta=0.30
     Davidson diagonalization with overlap
     c_bands:  2 eigenvalues not converged
     ethr =  1.00E-02,  avg # of iterations = 20.6
 
     Adding external electric field

     Computed dipole along edir(3) : 
        Dipole               21.7028 Ry au,         55.1630 Debye
        Dipole field          0.0504 Ry au
 
        Potential amp.       -4.6388 Ry
        Total length         46.0091 bohr
 

     total cpu time spent up to now is      143.5 secs

     total energy              =   -4593.89242032 Ry
     Harris-Foulkes estimate   =   -5798.83179727 Ry
     estimated scf accuracy    <   20345.80319490 Ry

     iteration #  3     ecut=    36.75 Ry     beta=0.30
     Davidson diagonalization with overlap
     ethr =  1.00E-02,  avg # of iterations = 10.1
 
     Adding external electric field

     Computed dipole along edir(3) : 
        Dipole               25.1070 Ry au,         63.8157 Debye
        Dipole field          0.0583 Ry au
 
        Potential amp.       -5.3664 Ry
        Total length         46.0091 bohr
 

     total cpu time spent up to now is      194.4 secs

     total energy              =   -4900.13396189 Ry
     Harris-Foulkes estimate   =   -5157.60197113 Ry
     estimated scf accuracy    <    2691.88430330 Ry

     iteration #  4     ecut=    36.75 Ry     beta=0.30
     Davidson diagonalization with overlap
     ethr =  1.00E-02,  avg # of iterations =  6.8
 
     Adding external electric field

     Computed dipole along edir(3) : 
        Dipole               19.0353 Ry au,         48.3828 Debye
        Dipole field          0.0442 Ry au
 
        Potential amp.       -4.0686 Ry
        Total length         46.0091 bohr
 

     total cpu time spent up to now is      233.3 secs

     total energy              =   -5038.30160139 Ry
     Harris-Foulkes estimate   =   -5051.79337004 Ry
     estimated scf accuracy    <      37.26706388 Ry

     iteration #  5     ecut=    36.75 Ry     beta=0.30
     Davidson diagonalization with overlap
     ethr =  1.00E-02,  avg # of iterations =  2.0
 
     Adding external electric field

     Computed dipole along edir(3) : 
        Dipole               13.1073 Ry au,         33.3154 Debye
        Dipole field          0.0304 Ry au
 
        Potential amp.       -2.8016 Ry
        Total length         46.0091 bohr
 

     total cpu time spent up to now is      256.6 secs

     total energy              =   -5033.67437558 Ry
     Harris-Foulkes estimate   =   -5040.30065424 Ry
     estimated scf accuracy    <      21.25882542 Ry

     iteration #  6     ecut=    36.75 Ry     beta=0.30
     Davidson diagonalization with overlap
     ethr =  9.08E-03,  avg # of iterations =  2.0

     negative rho (up, down):  6.887E-06 0.000E+00
 
     Adding external electric field

     Computed dipole along edir(3) : 
        Dipole                9.2214 Ry au,         23.4385 Debye
        Dipole field          0.0214 Ry au
 
        Potential amp.       -1.9710 Ry
        Total length         46.0091 bohr
 

     total cpu time spent up to now is      279.8 secs

     total energy              =   -5032.58888954 Ry
     Harris-Foulkes estimate   =   -5034.65804191 Ry
     estimated scf accuracy    <       7.64873274 Ry

     iteration #  7     ecut=    36.75 Ry     beta=0.30
     Davidson diagonalization with overlap
     ethr =  3.27E-03,  avg # of iterations =  2.5

     negative rho (up, down):  3.389E-02 0.000E+00
 
     Adding external electric field

     Computed dipole along edir(3) : 
        Dipole                8.2997 Ry au,         21.0958 Debye
        Dipole field          0.0193 Ry au
 
        Potential amp.       -1.7740 Ry
        Total length         46.0091 bohr
 

     total cpu time spent up to now is      303.2 secs

     total energy              =   -5032.50356956 Ry
     Harris-Foulkes estimate   =   -5032.88863246 Ry
     estimated scf accuracy    <       3.58114095 Ry

     iteration #  8     ecut=    36.75 Ry     beta=0.30
     Davidson diagonalization with overlap
     ethr =  1.53E-03,  avg # of iterations =  2.9

     negative rho (up, down):  8.812E-02 0.000E+00
 
     Adding external electric field

     Computed dipole along edir(3) : 
        Dipole                3.2006 Ry au,          8.1351 Debye
        Dipole field          0.0074 Ry au
 
        Potential amp.       -0.6841 Ry
        Total length         46.0091 bohr
 

     total cpu time spent up to now is      326.9 secs

     total energy              =   -5031.61992202 Ry
     Harris-Foulkes estimate   =   -5032.71528346 Ry
     estimated scf accuracy    <       2.94754321 Ry

     iteration #  9     ecut=    36.75 Ry     beta=0.30
     Davidson diagonalization with overlap
     ethr =  1.26E-03,  avg # of iterations =  5.4

     negative rho (up, down):  1.271E-01 0.000E+00
 
     Adding external electric field

     Computed dipole along edir(3) : 
        Dipole                0.6020 Ry au,          1.5302 Debye
        Dipole field          0.0014 Ry au
 
        Potential amp.       -0.1287 Ry
        Total length         46.0091 bohr
 

     total cpu time spent up to now is      353.4 secs

     total energy              =   -5031.53329802 Ry
     Harris-Foulkes estimate   =   -5031.75430788 Ry
     estimated scf accuracy    <       0.61358705 Ry

     iteration # 10     ecut=    36.75 Ry     beta=0.30
     Davidson diagonalization with overlap
     ethr =  2.62E-04,  avg # of iterations =  7.3

     negative rho (up, down):  1.115E-01 0.000E+00
 
     Adding external electric field

     Computed dipole along edir(3) : 
        Dipole                1.0869 Ry au,          2.7627 Debye
        Dipole field          0.0025 Ry au
 
        Potential amp.       -0.2323 Ry
        Total length         46.0091 bohr
 

     total cpu time spent up to now is      385.2 secs

     total energy              =   -5031.64588283 Ry
     Harris-Foulkes estimate   =   -5031.72439391 Ry
     estimated scf accuracy    <       1.07965938 Ry

     iteration # 11     ecut=    36.75 Ry     beta=0.30
     Davidson diagonalization with overlap
     ethr =  2.62E-04,  avg # of iterations =  4.7

     negative rho (up, down):  8.806E-02 0.000E+00
 
     Adding external electric field

     Computed dipole along edir(3) : 
        Dipole                0.6205 Ry au,          1.5772 Debye
        Dipole field          0.0014 Ry au
 
        Potential amp.       -0.1326 Ry
        Total length         46.0091 bohr
 

     total cpu time spent up to now is      411.1 secs

     total energy              =   -5031.58047268 Ry
     Harris-Foulkes estimate   =   -5031.67052680 Ry
     estimated scf accuracy    <       0.30066332 Ry

     iteration # 12     ecut=    36.75 Ry     beta=0.30
     Davidson diagonalization with overlap
     ethr =  1.28E-04,  avg # of iterations =  5.2

     negative rho (up, down):  8.211E-02 0.000E+00
 
     Adding external electric field

     Computed dipole along edir(3) : 
        Dipole                0.3629 Ry au,          0.9223 Debye
        Dipole field          0.0008 Ry au
 
        Potential amp.       -0.0776 Ry
        Total length         46.0091 bohr
 

     total cpu time spent up to now is      438.7 secs

     total energy              =   -5031.61428553 Ry
     Harris-Foulkes estimate   =   -5031.63815122 Ry
     estimated scf accuracy    <       0.08563527 Ry

     iteration # 13     ecut=    36.75 Ry     beta=0.30
     Davidson diagonalization with overlap
     ethr =  3.66E-05,  avg # of iterations =  4.5

     negative rho (up, down):  5.063E-02 0.000E+00
 
     Adding external electric field

     Computed dipole along edir(3) : 
        Dipole               -0.0780 Ry au,         -0.1982 Debye
        Dipole field         -0.0002 Ry au
 
        Potential amp.        0.0167 Ry
        Total length         46.0091 bohr
 

     total cpu time spent up to now is      465.6 secs

     total energy              =   -5031.61334510 Ry
     Harris-Foulkes estimate   =   -5031.62921192 Ry
     estimated scf accuracy    <       0.05533149 Ry

     iteration # 14     ecut=    36.75 Ry     beta=0.30
     Davidson diagonalization with overlap
     ethr =  2.36E-05,  avg # of iterations =  6.7

     negative rho (up, down):  1.010E-02 0.000E+00
 
     Adding external electric field

     Computed dipole along edir(3) : 
        Dipole               -0.1725 Ry au,         -0.4384 Debye
        Dipole field         -0.0004 Ry au
 
        Potential amp.        0.0369 Ry
        Total length         46.0091 bohr
 

     total cpu time spent up to now is      493.1 secs

     total energy              =   -5031.61685834 Ry
     Harris-Foulkes estimate   =   -5031.61952978 Ry
     estimated scf accuracy    <       0.00605031 Ry

     iteration # 15     ecut=    36.75 Ry     beta=0.30
     Davidson diagonalization with overlap
     ethr =  2.59E-06,  avg # of iterations =  6.3

     negative rho (up, down):  2.897E-03 0.000E+00
 
     Adding external electric field

     Computed dipole along edir(3) : 
        Dipole               -0.3217 Ry au,         -0.8178 Debye
        Dipole field         -0.0007 Ry au
 
        Potential amp.        0.0688 Ry
        Total length         46.0091 bohr
 

     total cpu time spent up to now is      520.6 secs

     total energy              =   -5031.61562047 Ry
     Harris-Foulkes estimate   =   -5031.61721729 Ry
     estimated scf accuracy    <       0.00780239 Ry

     iteration # 16     ecut=    36.75 Ry     beta=0.30
     Davidson diagonalization with overlap
     ethr =  2.59E-06,  avg # of iterations =  3.7

     negative rho (up, down):  1.710E-03 0.000E+00
 
     Adding external electric field

     Computed dipole along edir(3) : 
        Dipole               -0.3704 Ry au,         -0.9414 Debye
        Dipole field         -0.0009 Ry au
 
        Potential amp.        0.0792 Ry
        Total length         46.0091 bohr
 

     total cpu time spent up to now is      546.2 secs

     total energy              =   -5031.61625570 Ry
     Harris-Foulkes estimate   =   -5031.61623465 Ry
     estimated scf accuracy    <       0.00015282 Ry

     iteration # 17     ecut=    36.75 Ry     beta=0.30
     Davidson diagonalization with overlap
     ethr =  6.53E-08,  avg # of iterations =  4.0

     negative rho (up, down):  1.288E-03 0.000E+00
 
     Adding external electric field

     Computed dipole along edir(3) : 
        Dipole               -0.3655 Ry au,         -0.9290 Debye
        Dipole field         -0.0008 Ry au
 
        Potential amp.        0.0781 Ry
        Total length         46.0091 bohr
 

     total cpu time spent up to now is      574.8 secs

     total energy              =   -5031.61628773 Ry
     Harris-Foulkes estimate   =   -5031.61630661 Ry
     estimated scf accuracy    <       0.00004621 Ry

     iteration # 18     ecut=    36.75 Ry     beta=0.30
     Davidson diagonalization with overlap
     ethr =  1.97E-08,  avg # of iterations =  2.8

     negative rho (up, down):  1.107E-03 0.000E+00

     negative rho (up, down):  1.107E-03 0.000E+00

     negative rho (up, down):  1.107E-03 0.000E+00

     negative rho (up, down):  1.107E-03 0.000E+00

     negative rho (up, down):  1.107E-03 0.000E+00

     negative rho (up, down):  1.107E-03 0.000E+00

     negative rho (up, down):  1.107E-03 0.000E+00

     negative rho (up, down):  1.107E-03 0.000E+00

     negative rho (up, down):  1.107E-03 0.000E+00

     negative rho (up, down):  1.107E-03 0.000E+00

     negative rho (up, down):  1.107E-03 0.000E+00

     negative rho (up, down):  1.107E-03 0.000E+00

     negative rho (up, down):  1.107E-03 0.000E+00

     negative rho (up, down):  1.107E-03 0.000E+00

     negative rho (up, down):  1.107E-03 0.000E+00

     negative rho (up, down):  1.107E-03 0.000E+00

     negative rho (up, down):  1.107E-03 0.000E+00

     negative rho (up, down):  1.107E-03 0.000E+00

     negative rho (up, down):  1.107E-03 0.000E+00

     negative rho (up, down):  1.107E-03 0.000E+00

     negative rho (up, down):  1.107E-03 0.000E+00

     negative rho (up, down):  1.107E-03 0.000E+00

     negative rho (up, down):  1.107E-03 0.000E+00

     negative rho (up, down):  1.107E-03 0.000E+00

     negative rho (up, down):  1.107E-03 0.000E+00

     negative rho (up, down):  1.107E-03 0.000E+00

     negative rho (up, down):  1.107E-03 0.000E+00

     negative rho (up, down):  1.107E-03 0.000E+00

     negative rho (up, down):  1.107E-03 0.000E+00

     negative rho (up, down):  1.107E-03 0.000E+00

     negative rho (up, down):  1.107E-03 0.000E+00

     negative rho (up, down):  1.107E-03 0.000E+00

     negative rho (up, down):  1.107E-03 0.000E+00

     negative rho (up, down):  1.107E-03 0.000E+00

     negative rho (up, down):  1.107E-03 0.000E+00
 
     Adding external electric field

     Computed dipole along edir(3) : 
        Dipole               -0.3794 Ry au,         -0.9644 Debye
        Dipole field         -0.0009 Ry au
 
        Potential amp.        0.0811 Ry
        Total length         46.0091 bohr
 

     total cpu time spent up to now is      649.5 secs

     End of self-consistent calculation

          k = 0.0000 0.0000 0.0000 ( 20347 PWs)   bands (ev):

   -95.0192 -95.0098 -95.0098 -94.9769 -94.9768 -94.9767 -94.9680 -94.9634
   -94.9621 -94.9621 -94.9604 -94.9604 -94.9599 -94.9507 -94.9507 -94.9502
   -94.9474 -94.9474 -94.9472 -94.9457 -94.9457 -94.9373 -94.9371 -94.9371
   -94.9309 -94.9179 -94.9173 -94.9173 -94.9071 -94.9070 -94.9027 -94.9026
   -94.9022 -94.8501 -94.8491 -94.8491 -18.0438 -15.4669 -15.4669 -15.4638
   -15.4232 -15.4232 -15.4069 -15.4069 -15.4066 -15.4027 -15.3990 -15.3782
   -15.3753 -15.3753 -15.3598 -15.3514 -15.3514 -15.3430 -15.3430 -15.3399
   -15.3351 -15.3351 -15.3223 -15.3223 -15.3131 -15.3107 -15.3107 -15.3085
   -15.2856 -15.2856 -15.2497 -15.2496 -15.2496 -15.2405 -15.2405 -15.2379
   -15.2204 -15.2204 -15.2142 -15.2114 -15.2114 -15.1818 -15.1817 -15.1733
   -15.1733 -15.1707 -15.1665 -15.1643 -15.1643 -15.1620 -15.1596 -15.1596
   -15.1525 -15.1525 -15.1480 -15.1357 -15.1357 -15.0959 -15.0959 -15.0902
   -14.9878 -10.2838  -8.6796  -6.4130  -5.4882  -5.4882  -5.1422  -4.9351
    -4.9351  -4.7661  -4.0437  -4.0437  -3.9161  -3.2166  -3.2166  -3.1342
    -2.4220  -2.2424  -2.2424  -2.0934  -1.1256  -1.1255  -1.0771  -0.0679
    -0.0679   0.6850   1.1523   2.8283   2.8283   2.8748   3.0422

          k = 0.0000 0.0316 0.0000 ( 20271 PWs)   bands (ev):

   -95.0191 -95.0098 -95.0098 -94.9769 -94.9768 -94.9767 -94.9680 -94.9633
   -94.9621 -94.9620 -94.9604 -94.9603 -94.9599 -94.9507 -94.9507 -94.9501
   -94.9474 -94.9473 -94.9471 -94.9458 -94.9457 -94.9373 -94.9371 -94.9371
   -94.9309 -94.9179 -94.9174 -94.9173 -94.9070 -94.9070 -94.9026 -94.9026
   -94.9022 -94.8500 -94.8492 -94.8490 -18.0423 -15.4604 -15.4541 -15.4517
   -15.4180 -15.4168 -15.4034 -15.3976 -15.3933 -15.3923 -15.3891 -15.3770
   -15.3678 -15.3677 -15.3572 -15.3490 -15.3444 -15.3423 -15.3379 -15.3343
   -15.3322 -15.3264 -15.3239 -15.3217 -15.3151 -15.3061 -15.3004 -15.3003
   -15.2859 -15.2794 -15.2582 -15.2539 -15.2492 -15.2427 -15.2421 -15.2384
   -15.2269 -15.2256 -15.2213 -15.2164 -15.2113 -15.1924 -15.1897 -15.1800
   -15.1795 -15.1769 -15.1745 -15.1730 -15.1701 -15.1667 -15.1658 -15.1621
   -15.1618 -15.1577 -15.1559 -15.1414 -15.1401 -15.1124 -15.1051 -15.0991
   -14.9754 -10.1341  -8.5424  -6.5778  -6.2916  -5.8264  -5.6743  -5.3677
    -4.9929  -4.5821  -3.9570  -3.7226  -3.6767  -3.1719  -3.0744  -2.5392
    -2.2574  -2.1278  -1.7963  -1.6786  -1.2100  -1.1126  -0.4249   0.3750
     0.4467   0.9794   1.5238   1.8572   2.4895   2.9078   3.1708

          k = 0.0000 0.0632 0.0000 ( 20353 PWs)   bands (ev):

   -95.0191 -95.0098 -95.0098 -94.9769 -94.9768 -94.9767 -94.9680 -94.9631
   -94.9623 -94.9620 -94.9604 -94.9603 -94.9600 -94.9507 -94.9506 -94.9502
   -94.9474 -94.9474 -94.9469 -94.9460 -94.9457 -94.9373 -94.9371 -94.9371
   -94.9309 -94.9178 -94.9175 -94.9173 -94.9070 -94.9069 -94.9027 -94.9026
   -94.9023 -94.8499 -94.8493 -94.8490 -18.0392 -15.4458 -15.4258 -15.4214
   -15.4027 -15.4004 -15.3947 -15.3868 -15.3752 -15.3703 -15.3699 -15.3620
   -15.3566 -15.3521 -15.3519 -15.3488 -15.3347 -15.3325 -15.3300 -15.3224
   -15.3193 -15.3128 -15.3116 -15.3052 -15.3000 -15.2989 -15.2881 -15.2822
   -15.2815 -15.2715 -15.2677 -15.2582 -15.2532 -15.2522 -15.2485 -15.2468
   -15.2410 -15.2376 -15.2342 -15.2258 -15.2160 -15.2128 -15.2091 -15.2048
   -15.1992 -15.1983 -15.1971 -15.1931 -15.1907 -15.1842 -15.1803 -15.1777
   -15.1687 -15.1604 -15.1593 -15.1591 -15.1516 -15.1365 -15.1339 -15.1081
   -14.9554  -9.6842  -8.1450  -7.8632  -6.5028  -6.2029  -6.0836  -5.8890
    -5.2060  -4.7880  -4.5303  -3.6067  -3.5004  -2.9720  -2.3323  -2.0596
    -1.6661  -1.4566  -1.2409  -0.7125  -0.4419  -0.0332   0.2441   1.1001
     1.1375   1.3507   1.6543   1.6668   1.8807   2.5336   2.6440

          k = 0.0000-0.0948 0.0000 ( 20384 PWs)   bands (ev):

   -95.0192 -95.0098 -95.0098 -94.9769 -94.9768 -94.9767 -94.9680 -94.9629
   -94.9624 -94.9620 -94.9605 -94.9603 -94.9600 -94.9507 -94.9505 -94.9503
   -94.9474 -94.9474 -94.9467 -94.9462 -94.9457 -94.9372 -94.9372 -94.9371
   -94.9309 -94.9177 -94.9175 -94.9173 -94.9070 -94.9069 -94.9028 -94.9025
   -94.9024 -94.8497 -94.8495 -94.8491 -18.0377 -15.4339 -15.4119 -15.4091
   -15.3977 -15.3855 -15.3803 -15.3785 -15.3777 -15.3715 -15.3656 -15.3543
   -15.3478 -15.3415 -15.3371 -15.3360 -15.3339 -15.3193 -15.3147 -15.3146
   -15.3106 -15.3086 -15.3044 -15.2978 -15.2955 -15.2877 -15.2850 -15.2825
   -15.2735 -15.2730 -15.2623 -15.2595 -15.2586 -15.2545 -15.2517 -15.2484
   -15.2429 -15.2413 -15.2372 -15.2352 -15.2338 -15.2236 -15.2229 -15.2211
   -15.2146 -15.2121 -15.2078 -15.2076 -15.1999 -15.1957 -15.1879 -15.1860
   -15.1811 -15.1713 -15.1669 -15.1597 -15.1553 -15.1520 -15.1408 -15.1102
   -14.9469  -8.9690  -8.8955  -7.5586  -7.2958  -6.3391  -6.2110  -5.5411
    -5.3023  -5.1313  -4.8340  -3.6589  -3.4392  -3.0152  -1.8933  -1.8010
    -0.9484  -0.7557  -0.6197  -0.5913  -0.3070   0.0194   0.8396   1.0280
     1.1030   1.5681   1.9569   2.0716   2.1345   2.3098   2.5592

          k = 0.0274-0.0158 0.0000 ( 20271 PWs)   bands (ev):

   -95.0191 -95.0098 -95.0098 -94.9769 -94.9768 -94.9767 -94.9680 -94.9633
   -94.9621 -94.9620 -94.9604 -94.9603 -94.9599 -94.9507 -94.9507 -94.9501
   -94.9474 -94.9473 -94.9471 -94.9458 -94.9457 -94.9373 -94.9371 -94.9371
   -94.9309 -94.9179 -94.9173 -94.9173 -94.9070 -94.9070 -94.9027 -94.9026
   -94.9022 -94.8500 -94.8491 -94.8491 -18.0423 -15.4604 -15.4541 -15.4517
   -15.4180 -15.4168 -15.4034 -15.3976 -15.3933 -15.3923 -15.3891 -15.3770
   -15.3678 -15.3677 -15.3572 -15.3490 -15.3444 -15.3423 -15.3379 -15.3343
   -15.3322 -15.3264 -15.3239 -15.3217 -15.3151 -15.3061 -15.3004 -15.3003
   -15.2859 -15.2794 -15.2582 -15.2539 -15.2492 -15.2427 -15.2421 -15.2384
   -15.2269 -15.2256 -15.2213 -15.2164 -15.2113 -15.1924 -15.1897 -15.1800
   -15.1795 -15.1769 -15.1745 -15.1730 -15.1701 -15.1667 -15.1658 -15.1622
   -15.1618 -15.1577 -15.1559 -15.1414 -15.1401 -15.1123 -15.1051 -15.0991
   -14.9754 -10.1341  -8.5424  -6.5778  -6.2916  -5.8264  -5.6743  -5.3677
    -4.9929  -4.5821  -3.9570  -3.7226  -3.6767  -3.1719  -3.0744  -2.5392
    -2.2574  -2.1278  -1.7963  -1.6786  -1.2100  -1.1126  -0.4249   0.3750
     0.4467   0.9794   1.5238   1.8572   2.4895   2.9078   3.1708

          k = 0.0274 0.0158 0.0000 ( 20271 PWs)   bands (ev):

   -95.0191 -95.0098 -95.0098 -94.9769 -94.9768 -94.9767 -94.9680 -94.9633
   -94.9621 -94.9620 -94.9604 -94.9604 -94.9599 -94.9507 -94.9507 -94.9501
   -94.9474 -94.9473 -94.9471 -94.9458 -94.9457 -94.9373 -94.9371 -94.9371
   -94.9309 -94.9179 -94.9173 -94.9173 -94.9070 -94.9070 -94.9027 -94.9026
   -94.9022 -94.8500 -94.8492 -94.8490 -18.0423 -15.4604 -15.4541 -15.4517
   -15.4180 -15.4168 -15.4034 -15.3976 -15.3933 -15.3923 -15.3891 -15.3770
   -15.3678 -15.3677 -15.3572 -15.3490 -15.3444 -15.3423 -15.3379 -15.3343
   -15.3322 -15.3264 -15.3240 -15.3217 -15.3151 -15.3061 -15.3004 -15.3003
   -15.2859 -15.2794 -15.2582 -15.2539 -15.2492 -15.2426 -15.2421 -15.2384
   -15.2269 -15.2256 -15.2213 -15.2164 -15.2113 -15.1924 -15.1897 -15.1800
   -15.1795 -15.1769 -15.1745 -15.1730 -15.1701 -15.1667 -15.1658 -15.1622
   -15.1618 -15.1577 -15.1559 -15.1414 -15.1401 -15.1124 -15.1051 -15.0991
   -14.9754 -10.1341  -8.5424  -6.5778  -6.2916  -5.8264  -5.6743  -5.3677
    -4.9929  -4.5821  -3.9570  -3.7226  -3.6767  -3.1719  -3.0744  -2.5392
    -2.2574  -2.1278  -1.7963  -1.6786  -1.2100  -1.1126  -0.4249   0.3750
     0.4467   0.9794   1.5238   1.8572   2.4895   2.9078   3.1708

          k = 0.0274 0.0474 0.0000 ( 20341 PWs)   bands (ev):

   -95.0191 -95.0098 -95.0098 -94.9769 -94.9768 -94.9767 -94.9680 -94.9631
   -94.9622 -94.9620 -94.9604 -94.9603 -94.9600 -94.9507 -94.9506 -94.9502
   -94.9474 -94.9474 -94.9469 -94.9459 -94.9457 -94.9373 -94.9371 -94.9371
   -94.9309 -94.9178 -94.9174 -94.9173 -94.9070 -94.9069 -94.9027 -94.9026
   -94.9023 -94.8499 -94.8493 -94.8491 -18.0400 -15.4439 -15.4420 -15.4281
   -15.4057 -15.4052 -15.3926 -15.3880 -15.3797 -15.3778 -15.3733 -15.3658
   -15.3595 -15.3560 -15.3545 -15.3481 -15.3419 -15.3382 -15.3332 -15.3254
   -15.3205 -15.3190 -15.3140 -15.3095 -15.3068 -15.2999 -15.2901 -15.2890
   -15.2830 -15.2730 -15.2657 -15.2592 -15.2552 -15.2459 -15.2434 -15.2421
   -15.2395 -15.2346 -15.2340 -15.2219 -15.2134 -15.2093 -15.2046 -15.2011
   -15.1937 -15.1926 -15.1868 -15.1842 -15.1805 -15.1770 -15.1750 -15.1720
   -15.1692 -15.1619 -15.1606 -15.1545 -15.1486 -15.1348 -15.1164 -15.1135
   -14.9601  -9.8342  -8.2701  -7.1462  -7.1300  -6.1469  -5.8618  -5.7185
    -4.9410  -4.5520  -4.1991  -3.9469  -3.5947  -3.1527  -2.5734  -1.9766
    -1.8927  -1.7354  -1.2307  -1.1777  -0.4126  -0.2276  -0.0807   0.6992
     1.0381   1.2746   1.3650   1.7503   2.0584   2.6134   3.1867

          k = 0.0274-0.1106 0.0000 ( 20377 PWs)   bands (ev):

   -95.0192 -95.0098 -95.0098 -94.9769 -94.9768 -94.9767 -94.9680 -94.9629
   -94.9624 -94.9619 -94.9605 -94.9603 -94.9601 -94.9507 -94.9505 -94.9503
   -94.9474 -94.9474 -94.9467 -94.9462 -94.9457 -94.9372 -94.9372 -94.9371
   -94.9309 -94.9177 -94.9175 -94.9173 -94.9070 -94.9069 -94.9028 -94.9025
   -94.9024 -94.8497 -94.8495 -94.8491 -18.0377 -15.4283 -15.4147 -15.4072
   -15.3959 -15.3886 -15.3845 -15.3757 -15.3697 -15.3678 -15.3635 -15.3542
   -15.3514 -15.3459 -15.3435 -15.3390 -15.3328 -15.3222 -15.3172 -15.3135
   -15.3087 -15.3058 -15.3036 -15.2991 -15.2958 -15.2926 -15.2850 -15.2817
   -15.2790 -15.2732 -15.2677 -15.2633 -15.2586 -15.2554 -15.2531 -15.2498
   -15.2466 -15.2412 -15.2356 -15.2324 -15.2307 -15.2256 -15.2211 -15.2179
   -15.2128 -15.2092 -15.2057 -15.2019 -15.1966 -15.1928 -15.1870 -15.1845
   -15.1784 -15.1699 -15.1645 -15.1606 -15.1593 -15.1471 -15.1435 -15.1190
   -14.9471  -9.2339  -8.3335  -7.7247  -7.4285  -6.8709  -6.1089  -5.5838
    -5.0019  -4.8166  -4.3678  -3.9262  -3.3735  -2.9396  -2.3747  -2.0448
    -1.2862  -1.1389  -0.4103  -0.2763  -0.0831   0.2451   0.5888   0.8578
     1.0484   1.3783   1.7349   1.9655   2.2939   2.6412   2.8109

          k = 0.0274-0.0790 0.0000 ( 20377 PWs)   bands (ev):

   -95.0192 -95.0098 -95.0098 -94.9769 -94.9768 -94.9767 -94.9680 -94.9629
   -94.9624 -94.9619 -94.9605 -94.9603 -94.9601 -94.9507 -94.9505 -94.9503
   -94.9474 -94.9474 -94.9467 -94.9462 -94.9457 -94.9372 -94.9372 -94.9371
   -94.9309 -94.9177 -94.9175 -94.9173 -94.9070 -94.9069 -94.9028 -94.9025
   -94.9024 -94.8498 -94.8495 -94.8491 -18.0377 -15.4283 -15.4147 -15.4072
   -15.3959 -15.3886 -15.3845 -15.3757 -15.3698 -15.3678 -15.3635 -15.3542
   -15.3514 -15.3459 -15.3435 -15.3390 -15.3327 -15.3222 -15.3172 -15.3135
   -15.3087 -15.3058 -15.3036 -15.2991 -15.2958 -15.2926 -15.2850 -15.2817
   -15.2790 -15.2732 -15.2677 -15.2633 -15.2586 -15.2554 -15.2531 -15.2498
   -15.2466 -15.2412 -15.2356 -15.2324 -15.2307 -15.2256 -15.2211 -15.2179
   -15.2128 -15.2092 -15.2057 -15.2019 -15.1966 -15.1928 -15.1870 -15.1845
   -15.1784 -15.1699 -15.1645 -15.1606 -15.1593 -15.1471 -15.1435 -15.1190
   -14.9471  -9.2339  -8.3335  -7.7247  -7.4285  -6.8709  -6.1089  -5.5838
    -5.0019  -4.8166  -4.3678  -3.9262  -3.3735  -2.9396  -2.3747  -2.0448
    -1.2862  -1.1389  -0.4103  -0.2763  -0.0831   0.2451   0.5888   0.8578
     1.0484   1.3783   1.7349   1.9655   2.2939   2.6412   2.8109

          k = 0.0274-0.0474 0.0000 ( 20341 PWs)   bands (ev):

   -95.0191 -95.0098 -95.0098 -94.9769 -94.9768 -94.9767 -94.9680 -94.9631
   -94.9622 -94.9620 -94.9604 -94.9603 -94.9600 -94.9507 -94.9506 -94.9502
   -94.9474 -94.9474 -94.9469 -94.9459 -94.9457 -94.9373 -94.9371 -94.9371
   -94.9309 -94.9178 -94.9174 -94.9173 -94.9070 -94.9069 -94.9027 -94.9026
   -94.9023 -94.8499 -94.8493 -94.8491 -18.0400 -15.4439 -15.4420 -15.4281
   -15.4056 -15.4052 -15.3926 -15.3880 -15.3797 -15.3778 -15.3733 -15.3658
   -15.3595 -15.3560 -15.3545 -15.3481 -15.3419 -15.3382 -15.3333 -15.3254
   -15.3205 -15.3190 -15.3140 -15.3095 -15.3068 -15.2999 -15.2901 -15.2890
   -15.2830 -15.2730 -15.2657 -15.2592 -15.2551 -15.2459 -15.2434 -15.2421
   -15.2395 -15.2346 -15.2340 -15.2219 -15.2134 -15.2093 -15.2046 -15.2011
   -15.1938 -15.1926 -15.1868 -15.1842 -15.1805 -15.1770 -15.1750 -15.1720
   -15.1692 -15.1619 -15.1606 -15.1545 -15.1486 -15.1347 -15.1164 -15.1135
   -14.9601  -9.8342  -8.2701  -7.1462  -7.1300  -6.1469  -5.8618  -5.7185
    -4.9410  -4.5520  -4.1991  -3.9469  -3.5947  -3.1527  -2.5734  -1.9766
    -1.8927  -1.7354  -1.2307  -1.1777  -0.4126  -0.2276  -0.0807   0.6992
     1.0380   1.2746   1.3650   1.7503   2.0584   2.6134   3.1867

          k = 0.0547-0.0316 0.0000 ( 20353 PWs)   bands (ev):

   -95.0191 -95.0098 -95.0098 -94.9769 -94.9768 -94.9767 -94.9680 -94.9631
   -94.9623 -94.9620 -94.9605 -94.9603 -94.9600 -94.9507 -94.9506 -94.9502
   -94.9474 -94.9474 -94.9469 -94.9460 -94.9457 -94.9372 -94.9371 -94.9371
   -94.9309 -94.9178 -94.9174 -94.9173 -94.9070 -94.9069 -94.9028 -94.9025
   -94.9023 -94.8499 -94.8492 -94.8491 -18.0392 -15.4458 -15.4258 -15.4214
   -15.4027 -15.4004 -15.3946 -15.3868 -15.3752 -15.3703 -15.3699 -15.3620
   -15.3566 -15.3521 -15.3519 -15.3488 -15.3347 -15.3325 -15.3300 -15.3224
   -15.3193 -15.3128 -15.3117 -15.3051 -15.3000 -15.2988 -15.2881 -15.2822
   -15.2815 -15.2715 -15.2677 -15.2582 -15.2532 -15.2522 -15.2486 -15.2468
   -15.2410 -15.2376 -15.2342 -15.2258 -15.2161 -15.2128 -15.2091 -15.2048
   -15.1992 -15.1983 -15.1971 -15.1931 -15.1907 -15.1842 -15.1803 -15.1777
   -15.1687 -15.1604 -15.1592 -15.1591 -15.1516 -15.1365 -15.1338 -15.1082
   -14.9554  -9.6842  -8.1450  -7.8632  -6.5028  -6.2030  -6.0836  -5.8890
    -5.2060  -4.7880  -4.5303  -3.6067  -3.5004  -2.9720  -2.3323  -2.0596
    -1.6661  -1.4566  -1.2409  -0.7125  -0.4419  -0.0332   0.2441   1.1001
     1.1375   1.3507   1.6543   1.6667   1.8807   2.5336   2.6440

          k = 0.0547 0.0000 0.0000 ( 20341 PWs)   bands (ev):

   -95.0191 -95.0098 -95.0098 -94.9769 -94.9768 -94.9767 -94.9680 -94.9631
   -94.9622 -94.9620 -94.9604 -94.9603 -94.9600 -94.9507 -94.9506 -94.9502
   -94.9474 -94.9474 -94.9469 -94.9459 -94.9457 -94.9373 -94.9371 -94.9371
   -94.9309 -94.9178 -94.9174 -94.9173 -94.9070 -94.9069 -94.9027 -94.9025
   -94.9023 -94.8499 -94.8492 -94.8491 -18.0400 -15.4439 -15.4420 -15.4281
   -15.4057 -15.4052 -15.3926 -15.3880 -15.3797 -15.3778 -15.3733 -15.3658
   -15.3595 -15.3560 -15.3545 -15.3481 -15.3419 -15.3382 -15.3333 -15.3254
   -15.3205 -15.3190 -15.3140 -15.3095 -15.3068 -15.2999 -15.2901 -15.2890
   -15.2830 -15.2730 -15.2657 -15.2592 -15.2552 -15.2459 -15.2434 -15.2421
   -15.2395 -15.2346 -15.2340 -15.2219 -15.2134 -15.2093 -15.2046 -15.2011
   -15.1938 -15.1926 -15.1868 -15.1842 -15.1805 -15.1770 -15.1750 -15.1720
   -15.1692 -15.1619 -15.1606 -15.1545 -15.1486 -15.1347 -15.1164 -15.1135
   -14.9601  -9.8342  -8.2701  -7.1462  -7.1300  -6.1469  -5.8618  -5.7185
    -4.9410  -4.5520  -4.1991  -3.9469  -3.5947  -3.1527  -2.5734  -1.9766
    -1.8927  -1.7354  -1.2307  -1.1777  -0.4126  -0.2276  -0.0807   0.6992
     1.0380   1.2746   1.3650   1.7502   2.0584   2.6134   3.1867

          k = 0.0547 0.0316 0.0000 ( 20353 PWs)   bands (ev):

   -95.0191 -95.0098 -95.0098 -94.9769 -94.9768 -94.9767 -94.9680 -94.9631
   -94.9623 -94.9620 -94.9604 -94.9604 -94.9600 -94.9507 -94.9506 -94.9502
   -94.9474 -94.9474 -94.9469 -94.9460 -94.9457 -94.9372 -94.9372 -94.9371
   -94.9309 -94.9178 -94.9174 -94.9173 -94.9070 -94.9069 -94.9027 -94.9025
   -94.9023 -94.8499 -94.8493 -94.8491 -18.0392 -15.4458 -15.4258 -15.4214
   -15.4027 -15.4004 -15.3946 -15.3868 -15.3752 -15.3702 -15.3699 -15.3620
   -15.3566 -15.3521 -15.3519 -15.3488 -15.3347 -15.3325 -15.3300 -15.3224
   -15.3193 -15.3128 -15.3117 -15.3052 -15.3000 -15.2989 -15.2881 -15.2822
   -15.2815 -15.2715 -15.2677 -15.2582 -15.2532 -15.2522 -15.2485 -15.2468
   -15.2410 -15.2376 -15.2342 -15.2258 -15.2160 -15.2128 -15.2091 -15.2048
   -15.1992 -15.1983 -15.1971 -15.1931 -15.1907 -15.1842 -15.1803 -15.1777
   -15.1687 -15.1604 -15.1593 -15.1591 -15.1516 -15.1365 -15.1339 -15.1081
   -14.9554  -9.6842  -8.1450  -7.8632  -6.5028  -6.2029  -6.0836  -5.8890
    -5.2060  -4.7880  -4.5303  -3.6067  -3.5004  -2.9720  -2.3323  -2.0596
    -1.6661  -1.4566  -1.2409  -0.7125  -0.4419  -0.0332   0.2441   1.1001
     1.1375   1.3507   1.6543   1.6668   1.8807   2.5336   2.6440

          k = 0.0547-0.1264 0.0000 ( 20377 PWs)   bands (ev):

   -95.0192 -95.0098 -95.0098 -94.9768 -94.9768 -94.9767 -94.9680 -94.9629
   -94.9625 -94.9619 -94.9605 -94.9603 -94.9600 -94.9507 -94.9505 -94.9503
   -94.9474 -94.9474 -94.9467 -94.9462 -94.9457 -94.9372 -94.9372 -94.9371
   -94.9309 -94.9177 -94.9175 -94.9173 -94.9070 -94.9069 -94.9028 -94.9025
   -94.9024 -94.8498 -94.8495 -94.8491 -18.0377 -15.4283 -15.4147 -15.4072
   -15.3959 -15.3886 -15.3845 -15.3757 -15.3697 -15.3678 -15.3635 -15.3542
   -15.3514 -15.3459 -15.3435 -15.3390 -15.3327 -15.3222 -15.3172 -15.3135
   -15.3087 -15.3058 -15.3036 -15.2991 -15.2958 -15.2926 -15.2850 -15.2817
   -15.2790 -15.2732 -15.2677 -15.2633 -15.2586 -15.2554 -15.2531 -15.2498
   -15.2466 -15.2412 -15.2356 -15.2324 -15.2307 -15.2256 -15.2211 -15.2179
   -15.2128 -15.2092 -15.2057 -15.2019 -15.1966 -15.1928 -15.1870 -15.1845
   -15.1784 -15.1699 -15.1645 -15.1606 -15.1593 -15.1471 -15.1435 -15.1190
   -14.9471  -9.2339  -8.3335  -7.7247  -7.4285  -6.8709  -6.1089  -5.5838
    -5.0019  -4.8166  -4.3678  -3.9262  -3.3735  -2.9396  -2.3747  -2.0448
    -1.2862  -1.1389  -0.4104  -0.2763  -0.0831   0.2451   0.5888   0.8578
     1.0484   1.3783   1.7349   1.9655   2.2939   2.6412   2.8109

          k = 0.0547-0.0948 0.0000 ( 20397 PWs)   bands (ev):

   -95.0192 -95.0098 -95.0098 -94.9768 -94.9768 -94.9767 -94.9680 -94.9627
   -94.9627 -94.9619 -94.9605 -94.9602 -94.9602 -94.9507 -94.9504 -94.9504
   -94.9474 -94.9474 -94.9464 -94.9464 -94.9457 -94.9372 -94.9372 -94.9371
   -94.9309 -94.9176 -94.9176 -94.9173 -94.9069 -94.9069 -94.9028 -94.9025
   -94.9024 -94.8496 -94.8496 -94.8491 -18.0369 -15.4094 -15.4082 -15.4023
   -15.3905 -15.3868 -15.3782 -15.3708 -15.3688 -15.3622 -15.3611 -15.3595
   -15.3527 -15.3359 -15.3333 -15.3261 -15.3218 -15.3180 -15.3155 -15.3115
   -15.3086 -15.3054 -15.3002 -15.3001 -15.2942 -15.2916 -15.2824 -15.2775
   -15.2749 -15.2735 -15.2716 -15.2669 -15.2653 -15.2645 -15.2643 -15.2511
   -15.2467 -15.2459 -15.2404 -15.2388 -15.2312 -15.2231 -15.2216 -15.2179
   -15.2176 -15.2150 -15.2116 -15.2105 -15.2035 -15.1928 -15.1905 -15.1903
   -15.1803 -15.1733 -15.1669 -15.1614 -15.1576 -15.1491 -15.1486 -15.1374
   -14.9433  -8.5122  -8.5087  -8.4230  -7.1193  -7.1152  -6.8086  -5.1998
    -5.1428  -4.7076  -4.0677  -3.6947  -3.2845  -3.0665  -2.4796  -2.2333
    -0.9338  -0.9187  -0.8003  -0.3618  -0.2700  -0.0449   1.1600   1.3175
     1.5698   2.0394   2.2215   2.2369   2.5707   2.6447   2.7325

          k = 0.0547-0.0632 0.0000 ( 20377 PWs)   bands (ev):

   -95.0192 -95.0098 -95.0098 -94.9769 -94.9768 -94.9767 -94.9680 -94.9629
   -94.9624 -94.9619 -94.9605 -94.9603 -94.9601 -94.9507 -94.9505 -94.9503
   -94.9474 -94.9474 -94.9467 -94.9462 -94.9457 -94.9372 -94.9372 -94.9371
   -94.9309 -94.9177 -94.9175 -94.9173 -94.9070 -94.9069 -94.9028 -94.9025
   -94.9024 -94.8498 -94.8494 -94.8491 -18.0377 -15.4283 -15.4147 -15.4072
   -15.3959 -15.3886 -15.3844 -15.3757 -15.3697 -15.3678 -15.3635 -15.3542
   -15.3514 -15.3459 -15.3435 -15.3390 -15.3327 -15.3222 -15.3172 -15.3135
   -15.3087 -15.3058 -15.3036 -15.2991 -15.2958 -15.2926 -15.2850 -15.2817
   -15.2791 -15.2732 -15.2677 -15.2633 -15.2586 -15.2554 -15.2531 -15.2498
   -15.2466 -15.2412 -15.2356 -15.2324 -15.2307 -15.2256 -15.2211 -15.2179
   -15.2128 -15.2092 -15.2057 -15.2018 -15.1966 -15.1928 -15.1870 -15.1845
   -15.1784 -15.1699 -15.1645 -15.1606 -15.1593 -15.1471 -15.1435 -15.1191
   -14.9471  -9.2339  -8.3335  -7.7247  -7.4285  -6.8709  -6.1089  -5.5838
    -5.0019  -4.8165  -4.3678  -3.9262  -3.3735  -2.9396  -2.3747  -2.0448
    -1.2862  -1.1389  -0.4104  -0.2763  -0.0831   0.2451   0.5888   0.8578
     1.0484   1.3783   1.7349   1.9655   2.2939   2.6412   2.8109

          k =-0.0821 0.0474 0.0000 ( 20384 PWs)   bands (ev):

   -95.0192 -95.0098 -95.0098 -94.9769 -94.9768 -94.9768 -94.9680 -94.9629
   -94.9624 -94.9620 -94.9605 -94.9603 -94.9600 -94.9507 -94.9505 -94.9503
   -94.9474 -94.9474 -94.9467 -94.9462 -94.9457 -94.9372 -94.9372 -94.9371
   -94.9309 -94.9177 -94.9175 -94.9173 -94.9070 -94.9069 -94.9028 -94.9024
   -94.9024 -94.8498 -94.8493 -94.8491 -18.0377 -15.4339 -15.4119 -15.4091
   -15.3977 -15.3855 -15.3803 -15.3785 -15.3777 -15.3715 -15.3656 -15.3543
   -15.3478 -15.3415 -15.3371 -15.3360 -15.3339 -15.3193 -15.3147 -15.3146
   -15.3106 -15.3086 -15.3044 -15.2978 -15.2955 -15.2877 -15.2850 -15.2825
   -15.2735 -15.2731 -15.2623 -15.2595 -15.2586 -15.2545 -15.2517 -15.2484
   -15.2429 -15.2414 -15.2372 -15.2352 -15.2338 -15.2236 -15.2229 -15.2211
   -15.2146 -15.2121 -15.2078 -15.2076 -15.1999 -15.1957 -15.1879 -15.1859
   -15.1811 -15.1714 -15.1669 -15.1598 -15.1553 -15.1520 -15.1407 -15.1102
   -14.9468  -8.9690  -8.8955  -7.5586  -7.2958  -6.3391  -6.2110  -5.5411
    -5.3023  -5.1313  -4.8340  -3.6590  -3.4392  -3.0152  -1.8933  -1.8010
    -0.9484  -0.7557  -0.6197  -0.5913  -0.3070   0.0194   0.8396   1.0280
     1.1030   1.5681   1.9569   2.0716   2.1345   2.3098   2.5592

          k =-0.0821 0.0790 0.0000 ( 20377 PWs)   bands (ev):

   -95.0192 -95.0098 -95.0098 -94.9769 -94.9768 -94.9767 -94.9680 -94.9629
   -94.9624 -94.9619 -94.9605 -94.9603 -94.9601 -94.9507 -94.9505 -94.9503
   -94.9474 -94.9474 -94.9467 -94.9462 -94.9457 -94.9372 -94.9372 -94.9371
   -94.9309 -94.9177 -94.9175 -94.9173 -94.9070 -94.9069 -94.9028 -94.9025
   -94.9024 -94.8498 -94.8494 -94.8491 -18.0377 -15.4283 -15.4147 -15.4072
   -15.3959 -15.3886 -15.3844 -15.3757 -15.3697 -15.3678 -15.3635 -15.3542
   -15.3514 -15.3459 -15.3435 -15.3390 -15.3328 -15.3222 -15.3172 -15.3135
   -15.3087 -15.3058 -15.3036 -15.2991 -15.2958 -15.2926 -15.2850 -15.2817
   -15.2790 -15.2732 -15.2677 -15.2633 -15.2586 -15.2554 -15.2531 -15.2498
   -15.2466 -15.2412 -15.2356 -15.2324 -15.2307 -15.2256 -15.2211 -15.2179
   -15.2128 -15.2092 -15.2057 -15.2018 -15.1966 -15.1928 -15.1870 -15.1845
   -15.1784 -15.1699 -15.1645 -15.1606 -15.1593 -15.1471 -15.1435 -15.1191
   -14.9471  -9.2339  -8.3335  -7.7247  -7.4285  -6.8709  -6.1089  -5.5838
    -5.0019  -4.8166  -4.3678  -3.9262  -3.3735  -2.9396  -2.3747  -2.0448
    -1.2862  -1.1389  -0.4103  -0.2763  -0.0831   0.2451   0.5888   0.8578
     1.0484   1.3783   1.7349   1.9655   2.2939   2.6412   2.8109

          k =-0.0821 0.1106 0.0000 ( 20377 PWs)   bands (ev):

   -95.0192 -95.0098 -95.0098 -94.9768 -94.9768 -94.9767 -94.9680 -94.9629
   -94.9625 -94.9619 -94.9605 -94.9603 -94.9600 -94.9507 -94.9505 -94.9503
   -94.9474 -94.9474 -94.9467 -94.9462 -94.9457 -94.9372 -94.9372 -94.9371
   -94.9309 -94.9177 -94.9175 -94.9173 -94.9070 -94.9069 -94.9028 -94.9025
   -94.9024 -94.8498 -94.8494 -94.8491 -18.0377 -15.4283 -15.4147 -15.4072
   -15.3959 -15.3886 -15.3845 -15.3757 -15.3697 -15.3678 -15.3635 -15.3542
   -15.3514 -15.3459 -15.3435 -15.3390 -15.3327 -15.3222 -15.3172 -15.3135
   -15.3087 -15.3058 -15.3036 -15.2991 -15.2958 -15.2926 -15.2850 -15.2817
   -15.2790 -15.2732 -15.2676 -15.2633 -15.2586 -15.2554 -15.2531 -15.2498
   -15.2466 -15.2412 -15.2356 -15.2324 -15.2307 -15.2256 -15.2211 -15.2179
   -15.2128 -15.2092 -15.2057 -15.2019 -15.1966 -15.1928 -15.1870 -15.1845
   -15.1784 -15.1699 -15.1645 -15.1606 -15.1593 -15.1471 -15.1435 -15.1190
   -14.9471  -9.2339  -8.3335  -7.7247  -7.4285  -6.8709  -6.1089  -5.5838
    -5.0019  -4.8166  -4.3678  -3.9262  -3.3735  -2.9396  -2.3747  -2.0448
    -1.2862  -1.1389  -0.4103  -0.2763  -0.0831   0.2451   0.5888   0.8578
     1.0484   1.3783   1.7349   1.9655   2.2939   2.6412   2.8109

          k =-0.0821-0.0474 0.0000 ( 20384 PWs)   bands (ev):

   -95.0192 -95.0098 -95.0098 -94.9768 -94.9768 -94.9767 -94.9680 -94.9629
   -94.9624 -94.9619 -94.9604 -94.9604 -94.9600 -94.9507 -94.9505 -94.9503
   -94.9474 -94.9474 -94.9467 -94.9462 -94.9457 -94.9372 -94.9372 -94.9371
   -94.9309 -94.9177 -94.9175 -94.9173 -94.9070 -94.9069 -94.9028 -94.9025
   -94.9024 -94.8498 -94.8494 -94.8491 -18.0377 -15.4339 -15.4119 -15.4091
   -15.3977 -15.3855 -15.3803 -15.3785 -15.3777 -15.3715 -15.3656 -15.3543
   -15.3478 -15.3415 -15.3371 -15.3360 -15.3339 -15.3193 -15.3147 -15.3146
   -15.3106 -15.3086 -15.3044 -15.2978 -15.2955 -15.2877 -15.2850 -15.2825
   -15.2735 -15.2730 -15.2623 -15.2595 -15.2586 -15.2545 -15.2517 -15.2484
   -15.2429 -15.2413 -15.2372 -15.2352 -15.2338 -15.2236 -15.2229 -15.2211
   -15.2146 -15.2121 -15.2078 -15.2076 -15.1999 -15.1957 -15.1879 -15.1860
   -15.1811 -15.1713 -15.1669 -15.1597 -15.1553 -15.1520 -15.1408 -15.1102
   -14.9469  -8.9690  -8.8955  -7.5586  -7.2958  -6.3391  -6.2110  -5.5411
    -5.3023  -5.1313  -4.8340  -3.6590  -3.4392  -3.0152  -1.8933  -1.8010
    -0.9484  -0.7557  -0.6197  -0.5913  -0.3070   0.0194   0.8396   1.0280
     1.1030   1.5681   1.9569   2.0716   2.1345   2.3098   2.5592

     the Fermi energy is    -0.2166 ev

!    total energy              =   -5031.61629220 Ry
     Harris-Foulkes estimate   =   -5031.61626841 Ry
     estimated scf accuracy    <       0.00000184 Ry

     The total energy is the sum of the following terms:

     one-electron contribution =  -27733.54899935 Ry
     hartree contribution      =   13871.08649534 Ry
     xc contribution           =    -604.03363687 Ry
     ewald contribution        =    9434.91536603 Ry
     electric field correction =       0.00033441 Ry
     smearing contrib. (-TS)   =      -0.03585176 Ry

     convergence has been achieved in  18 iterations
 
 BEEF-vdW xc energy contributions
           1 :   -539.801686580074     
           2 :    489.856638097938     
           3 :   -406.155739571942     
           4 :    313.064010869278     
           5 :   -232.114637557066     
           6 :    173.942604632667     
           7 :   -136.792138858476     
           8 :    111.331366327327     
           9 :   -88.1360245962265     
          10 :    63.1970802863885     
          11 :   -38.6843710369807     
          12 :    19.5019284319221     
          13 :   -8.71400739958369     
          14 :    5.13032369089899     
          15 :   -4.36467582003127     
          16 :    2.08582052538316     
          17 :    3.15859212550038     
          18 :   -9.50831364905468     
          19 :    13.7642438136460     
          20 :   -14.0721365843061     
          21 :    11.2906304945558     
          22 :   -8.18498596588699     
          23 :    7.25772875375992     
          24 :   -8.95533281824135     
          25 :    11.5553540973913     
          26 :   -12.6833881058513     
          27 :    11.1965637830066     
          28 :   -7.99989510488206     
          29 :    5.26139155249200     
          30 :   -4.72041834225809     
          31 :   -39.9931411882461     
          32 :   -27.1344479963627     

     Forces acting on atoms (Ry/au):


     negative rho (up, down):  1.107E-03 0.000E+00
     atom    1 type  1   force =    -0.00003453   -0.00004042    0.00256329
     atom    2 type  1   force =     0.00000705   -0.00030404    0.00231513
     atom    3 type  1   force =    -0.00031253    0.00011865    0.00198532
     atom    4 type  1   force =     0.00024458    0.00019876    0.00205331
     atom    5 type  1   force =    -0.00103312    0.00059122    0.00290659
     atom    6 type  1   force =     0.00104018    0.00060290    0.00292543
     atom    7 type  1   force =     0.00002155    0.00000377   -0.00992041
     atom    8 type  1   force =    -0.00000317   -0.00117432    0.00305704
     atom    9 type  1   force =     0.01260889    0.00727862    0.02626108
     atom   10 type  1   force =    -0.01256458    0.00725554    0.02643008
     atom   11 type  1   force =     0.00000613   -0.01454591    0.02622241
     atom   12 type  1   force =     0.00001231    0.00000860   -0.00744058
     atom   13 type  2   force =     0.00000723    0.00000664   -0.07935869

     Total force =     0.095200     Total SCF correction =     0.001355


     entering subroutine stress ...


     negative rho (up, down):  1.107E-03 0.000E+00
          total   stress  (Ry/bohr**3)                   (kbar)     P=   -9.29
  -0.00006874  -0.00000000   0.00000000        -10.11     -0.00      0.00
  -0.00000000  -0.00006874  -0.00000000         -0.00    -10.11     -0.00
   0.00000000  -0.00000000  -0.00005192          0.00     -0.00     -7.64


     BFGS Geometry Optimization

     number of scf cycles    =   1
     number of bfgs steps    =   0

     energy   new            =   -5031.6162921975 Ry

     new trust radius        =       0.0793586939 bohr
     new conv_thr            =       0.0000099958 Ry


ATOMIC_POSITIONS (crystal)
Ga1      0.166666667   0.166666667   0.400460194    0   0   0
Ga1      0.666666667   0.166666667   0.400460194    0   0   0
Ga1      0.166666667   0.666666667   0.400460194    0   0   0
Ga1      0.666666667   0.666666667   0.400460194    0   0   0
Ga1      0.833333333   0.333333333   0.500000000    0   0   0
Ga1      0.333333333   0.333333333   0.500000000    0   0   0
Ga1      0.833333333   0.833333333   0.500000000    0   0   0
Ga1      0.333333333   0.833333333   0.500000000    0   0   0
Ga1      0.000730646   0.000730477   0.600096316
Ga1      0.498543886   0.000728160   0.600099897
Ga1      0.000730441   0.498540184   0.600095497
Ga1      0.500000639   0.500000863   0.599382129
O1       0.166666962   0.166667333   0.646794317



     Writing output data file calc.save
     Check: negative starting charge=   -0.001367
     NEW-OLD atomic charge density approx. for the potential
     Check: negative starting charge=   -0.001348

     negative rho (up, down):  1.235E-03 0.000E+00
 
     Adding external electric field

     Computed dipole along edir(3) : 
        Dipole               -0.3080 Ry au,         -0.7827 Debye
        Dipole field         -0.0007 Ry au
 
        Potential amp.        0.0658 Ry
        Total length         46.0091 bohr
 

     total cpu time spent up to now is      721.6 secs

     per-process dynamical memory:   178.1 Mb

     Self-consistent Calculation

     iteration #  1     ecut=    36.75 Ry     beta=0.30
     Davidson diagonalization with overlap
     ethr =  1.00E-06,  avg # of iterations =  5.0

     negative rho (up, down):  1.136E-03 0.000E+00
 
     Adding external electric field

     Computed dipole along edir(3) : 
        Dipole               -0.6018 Ry au,         -1.5295 Debye
        Dipole field         -0.0014 Ry au
 
        Potential amp.        0.1286 Ry
        Total length         46.0091 bohr
 

     total cpu time spent up to now is      760.9 secs

     total energy              =   -5031.61941120 Ry
     Harris-Foulkes estimate   =   -5031.62461305 Ry
     estimated scf accuracy    <       0.01193007 Ry

     iteration #  2     ecut=    36.75 Ry     beta=0.30
     Davidson diagonalization with overlap
     ethr =  5.10E-06,  avg # of iterations =  5.5

     negative rho (up, down):  1.100E-03 0.000E+00
 
     Adding external electric field

     Computed dipole along edir(3) : 
        Dipole               -0.3157 Ry au,         -0.8024 Debye
        Dipole field         -0.0007 Ry au
 
        Potential amp.        0.0675 Ry
        Total length         46.0091 bohr
 

     total cpu time spent up to now is      788.9 secs

     total energy              =   -5031.60596563 Ry
     Harris-Foulkes estimate   =   -5031.64263843 Ry
     estimated scf accuracy    <       0.48877007 Ry

     iteration #  3     ecut=    36.75 Ry     beta=0.30
     Davidson diagonalization with overlap
     ethr =  5.10E-06,  avg # of iterations =  4.9

     negative rho (up, down):  1.091E-03 0.000E+00
 
     Adding external electric field

     Computed dipole along edir(3) : 
        Dipole               -0.3314 Ry au,         -0.8424 Debye
        Dipole field         -0.0008 Ry au
 
        Potential amp.        0.0708 Ry
        Total length         46.0091 bohr
 

     total cpu time spent up to now is      815.7 secs

     total energy              =   -5031.62415559 Ry
     Harris-Foulkes estimate   =   -5031.62475652 Ry
     estimated scf accuracy    <       0.00395006 Ry

     iteration #  4     ecut=    36.75 Ry     beta=0.30
     Davidson diagonalization with overlap
     ethr =  1.69E-06,  avg # of iterations =  2.5

     negative rho (up, down):  1.074E-03 0.000E+00
 
     Adding external electric field

     Computed dipole along edir(3) : 
        Dipole               -0.3267 Ry au,         -0.8303 Debye
        Dipole field         -0.0008 Ry au
 
        Potential amp.        0.0698 Ry
        Total length         46.0091 bohr
 

     total cpu time spent up to now is      840.3 secs

     total energy              =   -5031.62444419 Ry
     Harris-Foulkes estimate   =   -5031.62447864 Ry
     estimated scf accuracy    <       0.00010155 Ry

     iteration #  5     ecut=    36.75 Ry     beta=0.30
     Davidson diagonalization with overlap
     ethr =  4.34E-08,  avg # of iterations =  3.0

     negative rho (up, down):  1.075E-03 0.000E+00
 
     Adding external electric field

     Computed dipole along edir(3) : 
        Dipole               -0.3259 Ry au,         -0.8283 Debye
        Dipole field         -0.0008 Ry au
 
        Potential amp.        0.0697 Ry
        Total length         46.0091 bohr
 

     total cpu time spent up to now is      865.2 secs

     total energy              =   -5031.62445601 Ry
     Harris-Foulkes estimate   =   -5031.62445648 Ry
     estimated scf accuracy    <       0.00001040 Ry

     iteration #  6     ecut=    36.75 Ry     beta=0.30
     Davidson diagonalization with overlap
     ethr =  4.44E-09,  avg # of iterations =  2.4

     negative rho (up, down):  1.089E-03 0.000E+00

     negative rho (up, down):  1.089E-03 0.000E+00

     negative rho (up, down):  1.089E-03 0.000E+00

     negative rho (up, down):  1.089E-03 0.000E+00

     negative rho (up, down):  1.089E-03 0.000E+00

     negative rho (up, down):  1.089E-03 0.000E+00

     negative rho (up, down):  1.089E-03 0.000E+00

     negative rho (up, down):  1.089E-03 0.000E+00

     negative rho (up, down):  1.089E-03 0.000E+00

     negative rho (up, down):  1.089E-03 0.000E+00

     negative rho (up, down):  1.089E-03 0.000E+00

     negative rho (up, down):  1.089E-03 0.000E+00

     negative rho (up, down):  1.089E-03 0.000E+00

     negative rho (up, down):  1.089E-03 0.000E+00

     negative rho (up, down):  1.089E-03 0.000E+00

     negative rho (up, down):  1.089E-03 0.000E+00

     negative rho (up, down):  1.089E-03 0.000E+00

     negative rho (up, down):  1.089E-03 0.000E+00

     negative rho (up, down):  1.089E-03 0.000E+00

     negative rho (up, down):  1.089E-03 0.000E+00

     negative rho (up, down):  1.089E-03 0.000E+00

     negative rho (up, down):  1.089E-03 0.000E+00

     negative rho (up, down):  1.089E-03 0.000E+00

     negative rho (up, down):  1.089E-03 0.000E+00

     negative rho (up, down):  1.089E-03 0.000E+00

     negative rho (up, down):  1.089E-03 0.000E+00

     negative rho (up, down):  1.089E-03 0.000E+00

     negative rho (up, down):  1.089E-03 0.000E+00

     negative rho (up, down):  1.089E-03 0.000E+00

     negative rho (up, down):  1.089E-03 0.000E+00

     negative rho (up, down):  1.089E-03 0.000E+00

     negative rho (up, down):  1.089E-03 0.000E+00

     negative rho (up, down):  1.089E-03 0.000E+00

     negative rho (up, down):  1.089E-03 0.000E+00

     negative rho (up, down):  1.089E-03 0.000E+00
 
     Adding external electric field

     Computed dipole along edir(3) : 
        Dipole               -0.3256 Ry au,         -0.8275 Debye
        Dipole field         -0.0008 Ry au
 
        Potential amp.        0.0696 Ry
        Total length         46.0091 bohr
 

     total cpu time spent up to now is      941.1 secs

     End of self-consistent calculation

          k = 0.0000 0.0000 0.0000 ( 20347 PWs)   bands (ev):

   -94.9711 -94.9617 -94.9617 -94.9287 -94.9286 -94.9286 -94.9215 -94.9157
   -94.9144 -94.9144 -94.9128 -94.9128 -94.9124 -94.9040 -94.9040 -94.9034
   -94.9014 -94.9014 -94.9004 -94.8989 -94.8989 -94.8903 -94.8901 -94.8901
   -94.8820 -94.8712 -94.8706 -94.8706 -94.8591 -94.8591 -94.8558 -94.8558
   -94.8555 -94.8011 -94.8001 -94.8000 -18.2823 -15.4191 -15.4191 -15.4160
   -15.3749 -15.3749 -15.3596 -15.3596 -15.3588 -15.3553 -15.3517 -15.3304
   -15.3283 -15.3283 -15.3124 -15.3043 -15.3043 -15.2960 -15.2960 -15.2931
   -15.2880 -15.2880 -15.2748 -15.2748 -15.2653 -15.2645 -15.2645 -15.2627
   -15.2402 -15.2402 -15.2031 -15.2031 -15.2001 -15.1935 -15.1935 -15.1908
   -15.1732 -15.1732 -15.1669 -15.1645 -15.1645 -15.1359 -15.1359 -15.1272
   -15.1272 -15.1256 -15.1193 -15.1193 -15.1191 -15.1147 -15.1137 -15.1137
   -15.1058 -15.1058 -15.1016 -15.0901 -15.0901 -15.0502 -15.0502 -15.0430
   -14.9218 -10.2230  -8.6134  -6.3623  -5.5692  -5.5692  -5.0803  -4.9027
    -4.9027  -4.7334  -4.0553  -4.0553  -3.9485  -3.1638  -3.1638  -3.0849
    -2.3691  -2.2112  -2.2112  -2.0716  -1.0872  -1.0872  -1.0292  -0.0169
    -0.0169   0.7616   1.2087   2.8696   2.8696   2.9214   3.0761

          k = 0.0000 0.0316 0.0000 ( 20271 PWs)   bands (ev):

   -94.9710 -94.9617 -94.9617 -94.9287 -94.9286 -94.9286 -94.9214 -94.9156
   -94.9144 -94.9144 -94.9128 -94.9128 -94.9124 -94.9040 -94.9039 -94.9034
   -94.9014 -94.9014 -94.9003 -94.8990 -94.8989 -94.8903 -94.8901 -94.8901
   -94.8820 -94.8712 -94.8706 -94.8706 -94.8591 -94.8591 -94.8559 -94.8558
   -94.8555 -94.8010 -94.8001 -94.8000 -18.2808 -15.4125 -15.4061 -15.4038
   -15.3697 -15.3686 -15.3559 -15.3500 -15.3459 -15.3450 -15.3418 -15.3294
   -15.3205 -15.3204 -15.3098 -15.3019 -15.2974 -15.2953 -15.2911 -15.2872
   -15.2852 -15.2792 -15.2769 -15.2745 -15.2676 -15.2597 -15.2543 -15.2539
   -15.2407 -15.2334 -15.2095 -15.2076 -15.2028 -15.1957 -15.1940 -15.1913
   -15.1799 -15.1784 -15.1738 -15.1697 -15.1648 -15.1460 -15.1435 -15.1334
   -15.1330 -15.1314 -15.1293 -15.1265 -15.1236 -15.1206 -15.1197 -15.1170
   -15.1150 -15.1114 -15.1099 -15.0957 -15.0946 -15.0665 -15.0591 -15.0523
   -14.9095 -10.0736  -8.4785  -6.5433  -6.2447  -5.8471  -5.6430  -5.3828
    -5.0406  -4.5636  -4.0106  -3.7141  -3.6582  -3.1418  -3.0525  -2.5058
    -2.2027  -2.0875  -1.7493  -1.6440  -1.1736  -1.0661  -0.3771   0.4224
     0.5055   1.0217   1.5850   1.9061   2.5320   2.9621   3.1987

          k = 0.0000 0.0632 0.0000 ( 20353 PWs)   bands (ev):

   -94.9710 -94.9617 -94.9617 -94.9287 -94.9286 -94.9286 -94.9214 -94.9154
   -94.9146 -94.9143 -94.9129 -94.9128 -94.9124 -94.9040 -94.9039 -94.9035
   -94.9014 -94.9014 -94.9001 -94.8992 -94.8989 -94.8903 -94.8902 -94.8901
   -94.8820 -94.8711 -94.8707 -94.8706 -94.8591 -94.8590 -94.8560 -94.8558
   -94.8556 -94.8008 -94.8003 -94.8000 -18.2778 -15.3978 -15.3774 -15.3732
   -15.3549 -15.3524 -15.3469 -15.3395 -15.3274 -15.3227 -15.3224 -15.3147
   -15.3093 -15.3047 -15.3045 -15.3015 -15.2877 -15.2854 -15.2828 -15.2752
   -15.2719 -15.2654 -15.2652 -15.2581 -15.2531 -15.2518 -15.2418 -15.2369
   -15.2352 -15.2236 -15.2206 -15.2115 -15.2057 -15.2049 -15.2015 -15.2003
   -15.1938 -15.1901 -15.1882 -15.1796 -15.1696 -15.1658 -15.1631 -15.1580
   -15.1532 -15.1512 -15.1505 -15.1483 -15.1441 -15.1386 -15.1342 -15.1322
   -15.1220 -15.1158 -15.1137 -15.1132 -15.1057 -15.0908 -15.0877 -15.0618
   -14.8893  -9.6247  -8.0913  -7.8063  -6.4860  -6.1963  -6.0286  -5.8474
    -5.2636  -4.7937  -4.5214  -3.6194  -3.5645  -2.9857  -2.2915  -2.0319
    -1.6283  -1.4254  -1.2062  -0.6611  -0.3892   0.0209   0.2838   1.1570
     1.1867   1.3971   1.7049   1.7105   1.9352   2.5772   2.6846

          k = 0.0000-0.0948 0.0000 ( 20384 PWs)   bands (ev):

   -94.9710 -94.9617 -94.9617 -94.9287 -94.9286 -94.9286 -94.9214 -94.9153
   -94.9147 -94.9143 -94.9129 -94.9127 -94.9125 -94.9040 -94.9038 -94.9036
   -94.9014 -94.9014 -94.8999 -94.8994 -94.8989 -94.8902 -94.8902 -94.8901
   -94.8820 -94.8710 -94.8708 -94.8706 -94.8591 -94.8589 -94.8560 -94.8557
   -94.8556 -94.8007 -94.8004 -94.8000 -18.2763 -15.3857 -15.3630 -15.3617
   -15.3493 -15.3375 -15.3328 -15.3311 -15.3303 -15.3239 -15.3182 -15.3068
   -15.3006 -15.2947 -15.2894 -15.2887 -15.2864 -15.2722 -15.2675 -15.2670
   -15.2633 -15.2618 -15.2577 -15.2507 -15.2483 -15.2405 -15.2384 -15.2349
   -15.2275 -15.2261 -15.2166 -15.2125 -15.2114 -15.2075 -15.2042 -15.2013
   -15.1970 -15.1940 -15.1904 -15.1883 -15.1869 -15.1773 -15.1762 -15.1760
   -15.1671 -15.1658 -15.1622 -15.1606 -15.1552 -15.1505 -15.1416 -15.1392
   -15.1388 -15.1229 -15.1203 -15.1163 -15.1098 -15.1059 -15.0949 -15.0640
   -14.8805  -8.9137  -8.8361  -7.5256  -7.2342  -6.3267  -6.1559  -5.5532
    -5.3575  -5.0885  -4.8020  -3.6771  -3.5239  -3.0479  -1.8876  -1.7790
    -0.9066  -0.7322  -0.5707  -0.5410  -0.2534   0.0758   0.8927   1.0688
     1.1622   1.6351   1.9983   2.1172   2.1786   2.3611   2.6029

          k = 0.0274-0.0158 0.0000 ( 20271 PWs)   bands (ev):

   -94.9710 -94.9617 -94.9617 -94.9287 -94.9286 -94.9286 -94.9214 -94.9156
   -94.9144 -94.9144 -94.9128 -94.9128 -94.9124 -94.9040 -94.9039 -94.9034
   -94.9014 -94.9014 -94.9003 -94.8990 -94.8989 -94.8903 -94.8901 -94.8901
   -94.8820 -94.8712 -94.8706 -94.8706 -94.8591 -94.8591 -94.8559 -94.8558
   -94.8555 -94.8010 -94.8001 -94.8000 -18.2808 -15.4125 -15.4061 -15.4038
   -15.3697 -15.3686 -15.3559 -15.3500 -15.3459 -15.3450 -15.3418 -15.3294
   -15.3205 -15.3204 -15.3098 -15.3019 -15.2974 -15.2953 -15.2911 -15.2872
   -15.2852 -15.2792 -15.2768 -15.2745 -15.2676 -15.2597 -15.2543 -15.2539
   -15.2407 -15.2334 -15.2096 -15.2076 -15.2028 -15.1957 -15.1940 -15.1913
   -15.1799 -15.1784 -15.1738 -15.1697 -15.1648 -15.1460 -15.1435 -15.1334
   -15.1330 -15.1314 -15.1293 -15.1265 -15.1236 -15.1206 -15.1197 -15.1170
   -15.1150 -15.1114 -15.1099 -15.0957 -15.0946 -15.0665 -15.0591 -15.0523
   -14.9095 -10.0736  -8.4785  -6.5433  -6.2447  -5.8471  -5.6430  -5.3828
    -5.0405  -4.5636  -4.0106  -3.7141  -3.6582  -3.1418  -3.0525  -2.5058
    -2.2027  -2.0875  -1.7493  -1.6440  -1.1736  -1.0661  -0.3771   0.4224
     0.5055   1.0217   1.5850   1.9061   2.5320   2.9621   3.1987

          k = 0.0274 0.0158 0.0000 ( 20271 PWs)   bands (ev):

   -94.9710 -94.9617 -94.9617 -94.9287 -94.9286 -94.9286 -94.9214 -94.9156
   -94.9144 -94.9144 -94.9128 -94.9128 -94.9124 -94.9040 -94.9039 -94.9034
   -94.9014 -94.9014 -94.9003 -94.8990 -94.8989 -94.8903 -94.8901 -94.8901
   -94.8820 -94.8712 -94.8706 -94.8706 -94.8591 -94.8591 -94.8559 -94.8558
   -94.8555 -94.8010 -94.8001 -94.8000 -18.2808 -15.4125 -15.4061 -15.4038
   -15.3697 -15.3686 -15.3559 -15.3500 -15.3459 -15.3450 -15.3418 -15.3294
   -15.3205 -15.3204 -15.3098 -15.3019 -15.2974 -15.2953 -15.2911 -15.2872
   -15.2852 -15.2792 -15.2769 -15.2745 -15.2676 -15.2597 -15.2543 -15.2539
   -15.2407 -15.2334 -15.2095 -15.2076 -15.2028 -15.1957 -15.1940 -15.1913
   -15.1799 -15.1784 -15.1738 -15.1697 -15.1648 -15.1460 -15.1435 -15.1334
   -15.1330 -15.1314 -15.1293 -15.1265 -15.1236 -15.1206 -15.1197 -15.1170
   -15.1150 -15.1114 -15.1099 -15.0957 -15.0946 -15.0665 -15.0591 -15.0523
   -14.9095 -10.0736  -8.4785  -6.5433  -6.2447  -5.8471  -5.6430  -5.3828
    -5.0406  -4.5636  -4.0106  -3.7141  -3.6582  -3.1418  -3.0525  -2.5058
    -2.2027  -2.0875  -1.7493  -1.6440  -1.1736  -1.0661  -0.3771   0.4224
     0.5055   1.0217   1.5850   1.9061   2.5320   2.9621   3.1987

          k = 0.0274 0.0474 0.0000 ( 20341 PWs)   bands (ev):

   -94.9710 -94.9617 -94.9617 -94.9287 -94.9286 -94.9286 -94.9214 -94.9155
   -94.9146 -94.9143 -94.9129 -94.9128 -94.9124 -94.9040 -94.9039 -94.9035
   -94.9014 -94.9014 -94.9002 -94.8992 -94.8989 -94.8903 -94.8902 -94.8901
   -94.8820 -94.8711 -94.8707 -94.8706 -94.8591 -94.8590 -94.8559 -94.8558
   -94.8555 -94.8009 -94.8002 -94.8000 -18.2785 -15.3959 -15.3941 -15.3798
   -15.3576 -15.3570 -15.3451 -15.3405 -15.3322 -15.3303 -15.3258 -15.3184
   -15.3121 -15.3087 -15.3069 -15.3009 -15.2948 -15.2911 -15.2865 -15.2785
   -15.2732 -15.2717 -15.2670 -15.2627 -15.2596 -15.2531 -15.2438 -15.2432
   -15.2375 -15.2261 -15.2174 -15.2134 -15.2072 -15.1992 -15.1959 -15.1951
   -15.1930 -15.1874 -15.1870 -15.1754 -15.1672 -15.1633 -15.1578 -15.1545
   -15.1470 -15.1458 -15.1411 -15.1382 -15.1345 -15.1312 -15.1285 -15.1259
   -15.1240 -15.1164 -15.1147 -15.1084 -15.1034 -15.0892 -15.0695 -15.0679
   -14.8940  -9.7743  -8.2113  -7.0945  -7.0855  -6.1362  -5.8746  -5.6964
    -4.9588  -4.5353  -4.2526  -3.9329  -3.6200  -3.1521  -2.5455  -1.9561
    -1.8527  -1.7108  -1.1831  -1.1270  -0.3743  -0.1737  -0.0323   0.7679
     1.0880   1.3159   1.3972   1.8072   2.0984   2.6743   3.2448

          k = 0.0274-0.1106 0.0000 ( 20377 PWs)   bands (ev):

   -94.9710 -94.9617 -94.9617 -94.9287 -94.9286 -94.9286 -94.9214 -94.9152
   -94.9148 -94.9143 -94.9129 -94.9127 -94.9125 -94.9040 -94.9038 -94.9036
   -94.9014 -94.9014 -94.8999 -94.8994 -94.8989 -94.8903 -94.8902 -94.8901
   -94.8820 -94.8710 -94.8708 -94.8706 -94.8590 -94.8589 -94.8560 -94.8557
   -94.8556 -94.8007 -94.8004 -94.8000 -18.2763 -15.3801 -15.3662 -15.3588
   -15.3482 -15.3406 -15.3365 -15.3283 -15.3222 -15.3203 -15.3162 -15.3069
   -15.3040 -15.2986 -15.2960 -15.2916 -15.2855 -15.2753 -15.2699 -15.2661
   -15.2614 -15.2586 -15.2568 -15.2520 -15.2488 -15.2457 -15.2385 -15.2348
   -15.2326 -15.2260 -15.2206 -15.2166 -15.2120 -15.2091 -15.2070 -15.2026
   -15.1996 -15.1944 -15.1885 -15.1855 -15.1838 -15.1786 -15.1743 -15.1718
   -15.1663 -15.1634 -15.1603 -15.1557 -15.1503 -15.1479 -15.1408 -15.1383
   -15.1317 -15.1238 -15.1199 -15.1152 -15.1136 -15.1017 -15.0973 -15.0730
   -14.8807  -9.1757  -8.2789  -7.6768  -7.3772  -6.8346  -6.1098  -5.5691
    -5.0307  -4.7958  -4.3882  -3.9295  -3.4215  -2.9416  -2.3831  -2.0358
    -1.2376  -1.1007  -0.3658  -0.2255  -0.0395   0.2953   0.6296   0.9071
     1.1047   1.4368   1.7869   2.0017   2.3489   2.6936   2.8537

          k = 0.0274-0.0790 0.0000 ( 20377 PWs)   bands (ev):

   -94.9710 -94.9617 -94.9617 -94.9287 -94.9286 -94.9286 -94.9214 -94.9152
   -94.9148 -94.9143 -94.9129 -94.9127 -94.9125 -94.9040 -94.9038 -94.9036
   -94.9014 -94.9014 -94.8999 -94.8994 -94.8989 -94.8903 -94.8902 -94.8901
   -94.8820 -94.8710 -94.8708 -94.8706 -94.8590 -94.8589 -94.8560 -94.8557
   -94.8556 -94.8007 -94.8004 -94.8000 -18.2763 -15.3801 -15.3661 -15.3588
   -15.3482 -15.3406 -15.3365 -15.3283 -15.3222 -15.3203 -15.3162 -15.3069
   -15.3040 -15.2986 -15.2960 -15.2916 -15.2855 -15.2753 -15.2699 -15.2661
   -15.2614 -15.2586 -15.2568 -15.2520 -15.2488 -15.2457 -15.2385 -15.2348
   -15.2326 -15.2260 -15.2206 -15.2166 -15.2120 -15.2091 -15.2070 -15.2026
   -15.1996 -15.1944 -15.1885 -15.1855 -15.1838 -15.1786 -15.1743 -15.1718
   -15.1663 -15.1634 -15.1603 -15.1557 -15.1503 -15.1479 -15.1408 -15.1383
   -15.1317 -15.1238 -15.1199 -15.1152 -15.1136 -15.1017 -15.0973 -15.0730
   -14.8807  -9.1757  -8.2789  -7.6768  -7.3772  -6.8346  -6.1098  -5.5691
    -5.0306  -4.7959  -4.3882  -3.9295  -3.4215  -2.9416  -2.3831  -2.0357
    -1.2376  -1.1007  -0.3658  -0.2254  -0.0395   0.2953   0.6296   0.9071
     1.1047   1.4368   1.7869   2.0016   2.3489   2.6937   2.8537

          k = 0.0274-0.0474 0.0000 ( 20341 PWs)   bands (ev):

   -94.9710 -94.9617 -94.9617 -94.9287 -94.9286 -94.9286 -94.9214 -94.9155
   -94.9146 -94.9143 -94.9129 -94.9128 -94.9124 -94.9040 -94.9039 -94.9035
   -94.9014 -94.9014 -94.9002 -94.8992 -94.8989 -94.8903 -94.8902 -94.8901
   -94.8820 -94.8711 -94.8707 -94.8706 -94.8591 -94.8590 -94.8560 -94.8558
   -94.8555 -94.8009 -94.8002 -94.8000 -18.2785 -15.3959 -15.3941 -15.3798
   -15.3576 -15.3570 -15.3451 -15.3405 -15.3322 -15.3303 -15.3258 -15.3184
   -15.3121 -15.3087 -15.3069 -15.3009 -15.2948 -15.2911 -15.2865 -15.2785
   -15.2732 -15.2717 -15.2670 -15.2627 -15.2596 -15.2531 -15.2438 -15.2432
   -15.2375 -15.2261 -15.2174 -15.2134 -15.2072 -15.1992 -15.1959 -15.1951
   -15.1930 -15.1874 -15.1870 -15.1754 -15.1672 -15.1633 -15.1578 -15.1545
   -15.1470 -15.1458 -15.1411 -15.1382 -15.1345 -15.1312 -15.1285 -15.1259
   -15.1240 -15.1164 -15.1147 -15.1084 -15.1034 -15.0892 -15.0695 -15.0679
   -14.8940  -9.7743  -8.2113  -7.0945  -7.0855  -6.1362  -5.8746  -5.6964
    -4.9588  -4.5353  -4.2526  -3.9329  -3.6200  -3.1521  -2.5455  -1.9560
    -1.8528  -1.7108  -1.1831  -1.1270  -0.3743  -0.1737  -0.0323   0.7679
     1.0881   1.3159   1.3972   1.8072   2.0984   2.6743   3.2448

          k = 0.0547-0.0316 0.0000 ( 20353 PWs)   bands (ev):

   -94.9710 -94.9617 -94.9617 -94.9287 -94.9286 -94.9286 -94.9214 -94.9154
   -94.9146 -94.9143 -94.9129 -94.9128 -94.9124 -94.9040 -94.9039 -94.9035
   -94.9014 -94.9014 -94.9001 -94.8992 -94.8989 -94.8903 -94.8902 -94.8901
   -94.8820 -94.8711 -94.8707 -94.8706 -94.8591 -94.8590 -94.8560 -94.8558
   -94.8556 -94.8009 -94.8002 -94.8000 -18.2778 -15.3978 -15.3774 -15.3732
   -15.3549 -15.3524 -15.3469 -15.3395 -15.3274 -15.3227 -15.3224 -15.3147
   -15.3093 -15.3047 -15.3045 -15.3015 -15.2877 -15.2854 -15.2828 -15.2752
   -15.2719 -15.2654 -15.2652 -15.2581 -15.2531 -15.2518 -15.2418 -15.2369
   -15.2352 -15.2236 -15.2206 -15.2115 -15.2057 -15.2049 -15.2015 -15.2003
   -15.1938 -15.1901 -15.1882 -15.1796 -15.1696 -15.1658 -15.1631 -15.1580
   -15.1532 -15.1512 -15.1505 -15.1483 -15.1441 -15.1386 -15.1342 -15.1322
   -15.1220 -15.1159 -15.1137 -15.1132 -15.1057 -15.0908 -15.0877 -15.0619
   -14.8893  -9.6247  -8.0913  -7.8063  -6.4861  -6.1963  -6.0286  -5.8474
    -5.2636  -4.7937  -4.5214  -3.6194  -3.5645  -2.9857  -2.2915  -2.0319
    -1.6283  -1.4254  -1.2062  -0.6611  -0.3893   0.0209   0.2838   1.1570
     1.1867   1.3970   1.7049   1.7105   1.9352   2.5772   2.6846

          k = 0.0547 0.0000 0.0000 ( 20341 PWs)   bands (ev):

   -94.9710 -94.9617 -94.9617 -94.9287 -94.9286 -94.9286 -94.9214 -94.9155
   -94.9146 -94.9143 -94.9129 -94.9128 -94.9124 -94.9040 -94.9039 -94.9035
   -94.9014 -94.9014 -94.9002 -94.8992 -94.8989 -94.8903 -94.8902 -94.8901
   -94.8820 -94.8711 -94.8707 -94.8706 -94.8591 -94.8590 -94.8560 -94.8558
   -94.8555 -94.8009 -94.8002 -94.8000 -18.2785 -15.3959 -15.3941 -15.3798
   -15.3576 -15.3570 -15.3451 -15.3405 -15.3322 -15.3303 -15.3258 -15.3184
   -15.3121 -15.3087 -15.3069 -15.3009 -15.2948 -15.2911 -15.2865 -15.2785
   -15.2731 -15.2717 -15.2670 -15.2627 -15.2596 -15.2531 -15.2438 -15.2432
   -15.2375 -15.2261 -15.2174 -15.2134 -15.2072 -15.1992 -15.1959 -15.1951
   -15.1930 -15.1874 -15.1870 -15.1754 -15.1672 -15.1633 -15.1578 -15.1545
   -15.1470 -15.1458 -15.1411 -15.1382 -15.1345 -15.1312 -15.1285 -15.1259
   -15.1240 -15.1164 -15.1147 -15.1084 -15.1034 -15.0892 -15.0695 -15.0679
   -14.8940  -9.7743  -8.2113  -7.0945  -7.0855  -6.1362  -5.8746  -5.6964
    -4.9588  -4.5353  -4.2526  -3.9329  -3.6200  -3.1521  -2.5455  -1.9560
    -1.8528  -1.7108  -1.1831  -1.1270  -0.3743  -0.1737  -0.0323   0.7679
     1.0881   1.3159   1.3972   1.8072   2.0984   2.6742   3.2448

          k = 0.0547 0.0316 0.0000 ( 20353 PWs)   bands (ev):

   -94.9710 -94.9617 -94.9617 -94.9287 -94.9286 -94.9286 -94.9214 -94.9154
   -94.9146 -94.9143 -94.9129 -94.9128 -94.9124 -94.9040 -94.9039 -94.9035
   -94.9014 -94.9014 -94.9001 -94.8992 -94.8989 -94.8903 -94.8902 -94.8901
   -94.8820 -94.8711 -94.8707 -94.8706 -94.8591 -94.8590 -94.8560 -94.8558
   -94.8556 -94.8009 -94.8003 -94.8000 -18.2778 -15.3978 -15.3774 -15.3732
   -15.3549 -15.3524 -15.3469 -15.3395 -15.3274 -15.3227 -15.3224 -15.3147
   -15.3093 -15.3047 -15.3045 -15.3015 -15.2877 -15.2854 -15.2828 -15.2752
   -15.2719 -15.2654 -15.2652 -15.2581 -15.2531 -15.2518 -15.2418 -15.2369
   -15.2352 -15.2236 -15.2206 -15.2115 -15.2057 -15.2049 -15.2015 -15.2003
   -15.1938 -15.1901 -15.1882 -15.1796 -15.1696 -15.1658 -15.1631 -15.1580
   -15.1532 -15.1512 -15.1505 -15.1483 -15.1441 -15.1386 -15.1342 -15.1322
   -15.1220 -15.1158 -15.1137 -15.1132 -15.1057 -15.0908 -15.0877 -15.0618
   -14.8893  -9.6247  -8.0913  -7.8063  -6.4860  -6.1963  -6.0286  -5.8474
    -5.2636  -4.7937  -4.5214  -3.6194  -3.5645  -2.9857  -2.2915  -2.0319
    -1.6283  -1.4254  -1.2062  -0.6611  -0.3892   0.0209   0.2838   1.1570
     1.1867   1.3970   1.7049   1.7105   1.9352   2.5772   2.6846

          k = 0.0547-0.1264 0.0000 ( 20377 PWs)   bands (ev):

   -94.9710 -94.9617 -94.9617 -94.9287 -94.9286 -94.9286 -94.9214 -94.9152
   -94.9148 -94.9143 -94.9129 -94.9127 -94.9125 -94.9040 -94.9038 -94.9036
   -94.9014 -94.9014 -94.8999 -94.8994 -94.8989 -94.8903 -94.8902 -94.8901
   -94.8820 -94.8710 -94.8708 -94.8706 -94.8590 -94.8589 -94.8560 -94.8557
   -94.8556 -94.8007 -94.8004 -94.8000 -18.2763 -15.3801 -15.3662 -15.3588
   -15.3482 -15.3406 -15.3365 -15.3283 -15.3222 -15.3203 -15.3162 -15.3069
   -15.3040 -15.2986 -15.2960 -15.2916 -15.2855 -15.2753 -15.2699 -15.2661
   -15.2614 -15.2586 -15.2568 -15.2520 -15.2488 -15.2457 -15.2385 -15.2348
   -15.2326 -15.2260 -15.2206 -15.2166 -15.2120 -15.2091 -15.2070 -15.2026
   -15.1996 -15.1944 -15.1885 -15.1855 -15.1838 -15.1786 -15.1743 -15.1718
   -15.1663 -15.1634 -15.1603 -15.1557 -15.1503 -15.1479 -15.1408 -15.1383
   -15.1317 -15.1238 -15.1199 -15.1152 -15.1136 -15.1017 -15.0973 -15.0730
   -14.8807  -9.1757  -8.2789  -7.6768  -7.3772  -6.8346  -6.1098  -5.5691
    -5.0307  -4.7958  -4.3882  -3.9295  -3.4215  -2.9416  -2.3831  -2.0357
    -1.2376  -1.1007  -0.3658  -0.2255  -0.0394   0.2953   0.6296   0.9071
     1.1047   1.4368   1.7869   2.0017   2.3489   2.6936   2.8537

          k = 0.0547-0.0948 0.0000 ( 20397 PWs)   bands (ev):

   -94.9710 -94.9617 -94.9617 -94.9286 -94.9286 -94.9286 -94.9214 -94.9150
   -94.9150 -94.9142 -94.9129 -94.9126 -94.9126 -94.9040 -94.9037 -94.9037
   -94.9014 -94.9014 -94.8997 -94.8997 -94.8989 -94.8902 -94.8902 -94.8901
   -94.8820 -94.8709 -94.8709 -94.8706 -94.8590 -94.8590 -94.8560 -94.8557
   -94.8557 -94.8006 -94.8005 -94.8000 -18.2755 -15.3609 -15.3595 -15.3538
   -15.3428 -15.3387 -15.3304 -15.3234 -15.3217 -15.3146 -15.3140 -15.3120
   -15.3056 -15.2882 -15.2859 -15.2787 -15.2740 -15.2717 -15.2679 -15.2639
   -15.2610 -15.2579 -15.2530 -15.2529 -15.2475 -15.2453 -15.2357 -15.2303
   -15.2279 -15.2275 -15.2242 -15.2197 -15.2187 -15.2182 -15.2164 -15.2068
   -15.2007 -15.1995 -15.1948 -15.1923 -15.1834 -15.1762 -15.1748 -15.1708
   -15.1707 -15.1689 -15.1658 -15.1643 -15.1567 -15.1473 -15.1452 -15.1429
   -15.1347 -15.1275 -15.1215 -15.1150 -15.1147 -15.1036 -15.1010 -15.0924
   -14.8768  -8.4639  -8.4475  -8.3652  -7.0930  -7.0845  -6.7527  -5.2266
    -5.1838  -4.6813  -4.1213  -3.6680  -3.2388  -3.1252  -2.5375  -2.1964
    -0.8850  -0.8692  -0.7335  -0.3282  -0.2254  -0.0143   1.2059   1.3598
     1.6362   2.0856   2.2673   2.2911   2.6024   2.6817   2.7868

          k = 0.0547-0.0632 0.0000 ( 20377 PWs)   bands (ev):

[...]
     1.1785   1.4899   1.6941   2.0273   2.3251   3.0046   3.4564

          k = 0.0547 0.0316 0.0000 ( 20353 PWs)   bands (ev):

   -94.7336 -94.7336 -94.7327 -94.7144 -94.7090 -94.7088 -94.7086 -94.7085
   -94.7083 -94.7082 -94.7063 -94.7055 -94.7052 -94.6983 -94.6982 -94.6982
   -94.6948 -94.6948 -94.6945 -94.6943 -94.6943 -94.6938 -94.6937 -94.6933
   -94.6880 -94.6872 -94.6869 -94.6863 -94.6862 -94.6860 -94.6451 -94.6360
   -94.6360 -94.6308 -94.6298 -94.6295 -19.0657 -15.1892 -15.1662 -15.1660
   -15.1483 -15.1399 -15.1395 -15.1337 -15.1277 -15.1202 -15.1145 -15.1138
   -15.1095 -15.1012 -15.0990 -15.0971 -15.0917 -15.0914 -15.0842 -15.0781
   -15.0746 -15.0740 -15.0643 -15.0633 -15.0599 -15.0584 -15.0543 -15.0510
   -15.0428 -15.0269 -15.0268 -15.0161 -15.0122 -15.0073 -15.0016 -15.0007
   -14.9910 -14.9884 -14.9858 -14.9748 -14.9726 -14.9662 -14.9646 -14.9592
   -14.9576 -14.9519 -14.9496 -14.9484 -14.9416 -14.9388 -14.9322 -14.9279
   -14.9266 -14.9232 -14.9136 -14.9054 -14.9045 -14.8933 -14.8871 -14.8852
   -14.6424  -9.4331  -8.0070  -7.5571  -6.5203  -6.4382  -5.9233  -5.5005
    -5.3832  -4.8585  -4.3979  -3.6973  -3.5354  -2.9597  -2.1555  -1.8797
    -1.4530  -1.2376  -0.9914  -0.3800  -0.2894   0.2166   0.4899   1.3074
     1.4502   1.6475   1.8390   2.0049   2.2410   2.8034   2.8144

          k = 0.0547-0.1264 0.0000 ( 20377 PWs)   bands (ev):

   -94.7336 -94.7336 -94.7327 -94.7144 -94.7090 -94.7088 -94.7085 -94.7085
   -94.7083 -94.7082 -94.7061 -94.7057 -94.7053 -94.6983 -94.6983 -94.6982
   -94.6948 -94.6947 -94.6945 -94.6943 -94.6943 -94.6938 -94.6937 -94.6933
   -94.6878 -94.6873 -94.6868 -94.6864 -94.6862 -94.6860 -94.6451 -94.6360
   -94.6360 -94.6306 -94.6300 -94.6295 -19.0634 -15.1721 -15.1551 -15.1492
   -15.1464 -15.1352 -15.1271 -15.1237 -15.1199 -15.1174 -15.1130 -15.1082
   -15.1010 -15.0966 -15.0937 -15.0893 -15.0862 -15.0803 -15.0772 -15.0689
   -15.0669 -15.0623 -15.0600 -15.0553 -15.0518 -15.0461 -15.0413 -15.0391
   -15.0360 -15.0309 -15.0279 -15.0251 -15.0197 -15.0170 -15.0111 -15.0057
   -14.9988 -14.9949 -14.9915 -14.9888 -14.9864 -14.9770 -14.9750 -14.9707
   -14.9659 -14.9644 -14.9596 -14.9525 -14.9501 -14.9465 -14.9424 -14.9379
   -14.9325 -14.9296 -14.9219 -14.9158 -14.9090 -14.9031 -14.8974 -14.8856
   -14.6269  -9.0064  -8.1394  -7.5971  -7.2316  -6.6691  -6.2165  -5.5817
    -5.0668  -4.6734  -4.2980  -3.8701  -3.6031  -2.8147  -2.4434  -1.8410
    -1.0599  -0.8718  -0.2475   0.0244   0.1312   0.4960   0.7480   1.1418
     1.3182   1.7114   2.0262   2.1518   2.5804   2.8959   3.1739

          k = 0.0547-0.0948 0.0000 ( 20397 PWs)   bands (ev):

   -94.7336 -94.7336 -94.7327 -94.7144 -94.7090 -94.7087 -94.7086 -94.7084
   -94.7084 -94.7082 -94.7059 -94.7059 -94.7053 -94.6983 -94.6983 -94.6982
   -94.6948 -94.6947 -94.6945 -94.6944 -94.6943 -94.6938 -94.6936 -94.6934
   -94.6876 -94.6876 -94.6868 -94.6865 -94.6861 -94.6861 -94.6451 -94.6360
   -94.6360 -94.6305 -94.6301 -94.6295 -19.0623 -15.1599 -15.1438 -15.1401
   -15.1346 -15.1340 -15.1333 -15.1251 -15.1148 -15.1134 -15.1126 -15.1089
   -15.1083 -15.0855 -15.0811 -15.0759 -15.0756 -15.0716 -15.0703 -15.0700
   -15.0581 -15.0571 -15.0554 -15.0548 -15.0516 -15.0484 -15.0478 -15.0379
   -15.0361 -15.0337 -15.0313 -15.0274 -15.0250 -15.0184 -15.0177 -15.0148
   -15.0064 -15.0021 -15.0006 -14.9921 -14.9842 -14.9805 -14.9729 -14.9714
   -14.9692 -14.9636 -14.9573 -14.9568 -14.9544 -14.9494 -14.9485 -14.9376
   -14.9371 -14.9324 -14.9282 -14.9246 -14.9156 -14.9125 -14.9050 -14.8868
   -14.6197  -8.4130  -8.3378  -8.0527  -7.1883  -7.0453  -6.2635  -5.5480
    -5.3485  -4.2488  -4.0784  -3.9175  -3.1417  -3.0776  -2.7492  -1.9020
    -0.7542  -0.5325  -0.3272  -0.2340  -0.1444   0.0902   1.3782   1.7053
     1.9005   2.2196   2.4144   2.4484   2.7725   2.8746   3.0319

          k = 0.0547-0.0632 0.0000 ( 20377 PWs)   bands (ev):

   -94.7336 -94.7336 -94.7327 -94.7144 -94.7090 -94.7088 -94.7085 -94.7085
   -94.7083 -94.7082 -94.7061 -94.7057 -94.7053 -94.6983 -94.6983 -94.6982
   -94.6948 -94.6947 -94.6945 -94.6943 -94.6943 -94.6938 -94.6937 -94.6933
   -94.6878 -94.6873 -94.6868 -94.6864 -94.6862 -94.6860 -94.6451 -94.6360
   -94.6360 -94.6306 -94.6300 -94.6295 -19.0634 -15.1721 -15.1551 -15.1492
   -15.1464 -15.1352 -15.1271 -15.1237 -15.1199 -15.1174 -15.1130 -15.1082
   -15.1010 -15.0966 -15.0937 -15.0893 -15.0862 -15.0803 -15.0772 -15.0689
   -15.0669 -15.0623 -15.0600 -15.0553 -15.0518 -15.0461 -15.0413 -15.0391
   -15.0360 -15.0309 -15.0279 -15.0251 -15.0197 -15.0170 -15.0111 -15.0057
   -14.9988 -14.9949 -14.9915 -14.9888 -14.9864 -14.9770 -14.9750 -14.9707
   -14.9659 -14.9644 -14.9596 -14.9525 -14.9501 -14.9465 -14.9424 -14.9379
   -14.9325 -14.9296 -14.9219 -14.9158 -14.9090 -14.9031 -14.8974 -14.8856
   -14.6269  -9.0064  -8.1394  -7.5971  -7.2316  -6.6691  -6.2166  -5.5817
    -5.0667  -4.6735  -4.2980  -3.8701  -3.6031  -2.8147  -2.4433  -1.8409
    -1.0600  -0.8718  -0.2474   0.0244   0.1312   0.4960   0.7480   1.1418
     1.3182   1.7114   2.0262   2.1517   2.5804   2.8959   3.1739

          k =-0.0821 0.0474 0.0000 ( 20384 PWs)   bands (ev):

   -94.7337 -94.7336 -94.7327 -94.7144 -94.7090 -94.7088 -94.7085 -94.7085
   -94.7083 -94.7082 -94.7061 -94.7057 -94.7052 -94.6983 -94.6983 -94.6982
   -94.6948 -94.6948 -94.6945 -94.6943 -94.6943 -94.6938 -94.6937 -94.6933
   -94.6878 -94.6873 -94.6869 -94.6864 -94.6862 -94.6860 -94.6451 -94.6360
   -94.6360 -94.6306 -94.6300 -94.6295 -19.0634 -15.1764 -15.1603 -15.1447
   -15.1447 -15.1361 -15.1334 -15.1279 -15.1203 -15.1150 -15.1133 -15.1067
   -15.0974 -15.0945 -15.0916 -15.0901 -15.0870 -15.0777 -15.0766 -15.0650
   -15.0647 -15.0630 -15.0630 -15.0551 -15.0457 -15.0440 -15.0406 -15.0375
   -15.0306 -15.0293 -15.0279 -15.0197 -15.0195 -15.0145 -15.0094 -15.0046
   -15.0012 -14.9928 -14.9897 -14.9864 -14.9839 -14.9831 -14.9769 -14.9743
   -14.9742 -14.9696 -14.9678 -14.9626 -14.9561 -14.9536 -14.9406 -14.9367
   -14.9336 -14.9330 -14.9246 -14.9068 -14.9049 -14.8984 -14.8892 -14.8868
   -14.6268  -8.8292  -8.5752  -7.5328  -6.9302  -6.5274  -5.9799  -5.6454
    -5.4923  -4.8017  -4.4677  -3.9119  -3.6068  -3.0683  -1.7690  -1.6392
    -0.8355  -0.6522  -0.3450  -0.3053  -0.0291   0.3154   1.0574   1.3102
     1.3784   1.8934   2.0000   2.3934   2.4667   2.6729   2.7596

          k =-0.0821 0.0790 0.0000 ( 20377 PWs)   bands (ev):

   -94.7336 -94.7336 -94.7327 -94.7144 -94.7090 -94.7088 -94.7085 -94.7085
   -94.7083 -94.7082 -94.7061 -94.7057 -94.7053 -94.6983 -94.6983 -94.6982
   -94.6948 -94.6947 -94.6945 -94.6943 -94.6943 -94.6938 -94.6937 -94.6933
   -94.6878 -94.6873 -94.6868 -94.6864 -94.6862 -94.6860 -94.6451 -94.6360
   -94.6360 -94.6306 -94.6300 -94.6295 -19.0634 -15.1721 -15.1551 -15.1492
   -15.1464 -15.1352 -15.1271 -15.1237 -15.1199 -15.1174 -15.1130 -15.1082
   -15.1010 -15.0966 -15.0937 -15.0893 -15.0862 -15.0803 -15.0772 -15.0689
   -15.0669 -15.0623 -15.0600 -15.0553 -15.0518 -15.0461 -15.0413 -15.0391
   -15.0360 -15.0309 -15.0279 -15.0251 -15.0197 -15.0170 -15.0111 -15.0057
   -14.9988 -14.9949 -14.9915 -14.9888 -14.9864 -14.9770 -14.9750 -14.9707
   -14.9659 -14.9644 -14.9596 -14.9525 -14.9501 -14.9465 -14.9424 -14.9379
   -14.9325 -14.9296 -14.9219 -14.9158 -14.9090 -14.9031 -14.8974 -14.8856
   -14.6269  -9.0064  -8.1394  -7.5972  -7.2316  -6.6691  -6.2166  -5.5817
    -5.0667  -4.6735  -4.2980  -3.8701  -3.6031  -2.8147  -2.4433  -1.8409
    -1.0600  -0.8718  -0.2474   0.0244   0.1312   0.4960   0.7480   1.1418
     1.3182   1.7114   2.0262   2.1517   2.5804   2.8959   3.1739

          k =-0.0821 0.1106 0.0000 ( 20377 PWs)   bands (ev):

   -94.7336 -94.7336 -94.7327 -94.7144 -94.7090 -94.7088 -94.7085 -94.7085
   -94.7083 -94.7082 -94.7061 -94.7057 -94.7053 -94.6983 -94.6983 -94.6982
   -94.6948 -94.6947 -94.6945 -94.6943 -94.6943 -94.6938 -94.6937 -94.6933
   -94.6878 -94.6873 -94.6868 -94.6864 -94.6862 -94.6860 -94.6451 -94.6360
   -94.6360 -94.6306 -94.6300 -94.6295 -19.0634 -15.1721 -15.1551 -15.1492
   -15.1464 -15.1352 -15.1271 -15.1237 -15.1199 -15.1174 -15.1130 -15.1082
   -15.1010 -15.0966 -15.0937 -15.0893 -15.0862 -15.0803 -15.0772 -15.0689
   -15.0669 -15.0623 -15.0600 -15.0553 -15.0518 -15.0461 -15.0413 -15.0391
   -15.0360 -15.0309 -15.0279 -15.0251 -15.0197 -15.0170 -15.0111 -15.0057
   -14.9988 -14.9949 -14.9915 -14.9888 -14.9864 -14.9770 -14.9750 -14.9707
   -14.9659 -14.9644 -14.9596 -14.9525 -14.9501 -14.9465 -14.9424 -14.9379
   -14.9325 -14.9295 -14.9219 -14.9158 -14.9090 -14.9031 -14.8974 -14.8856
   -14.6269  -9.0064  -8.1394  -7.5971  -7.2316  -6.6691  -6.2166  -5.5816
    -5.0668  -4.6735  -4.2980  -3.8701  -3.6031  -2.8147  -2.4434  -1.8409
    -1.0600  -0.8718  -0.2474   0.0244   0.1312   0.4960   0.7480   1.1418
     1.3182   1.7114   2.0262   2.1518   2.5804   2.8960   3.1740

          k =-0.0821-0.0474 0.0000 ( 20384 PWs)   bands (ev):

   -94.7336 -94.7336 -94.7327 -94.7144 -94.7090 -94.7088 -94.7085 -94.7085
   -94.7083 -94.7082 -94.7061 -94.7057 -94.7052 -94.6983 -94.6983 -94.6982
   -94.6948 -94.6948 -94.6945 -94.6943 -94.6943 -94.6938 -94.6937 -94.6933
   -94.6878 -94.6873 -94.6869 -94.6864 -94.6862 -94.6860 -94.6451 -94.6360
   -94.6360 -94.6306 -94.6300 -94.6295 -19.0634 -15.1764 -15.1603 -15.1447
   -15.1447 -15.1361 -15.1334 -15.1279 -15.1203 -15.1150 -15.1133 -15.1067
   -15.0974 -15.0945 -15.0916 -15.0901 -15.0870 -15.0777 -15.0766 -15.0650
   -15.0647 -15.0630 -15.0630 -15.0551 -15.0457 -15.0440 -15.0406 -15.0375
   -15.0306 -15.0293 -15.0279 -15.0197 -15.0195 -15.0145 -15.0094 -15.0046
   -15.0012 -14.9928 -14.9897 -14.9864 -14.9839 -14.9831 -14.9769 -14.9743
   -14.9742 -14.9696 -14.9678 -14.9626 -14.9561 -14.9536 -14.9406 -14.9366
   -14.9336 -14.9330 -14.9246 -14.9068 -14.9049 -14.8984 -14.8892 -14.8868
   -14.6268  -8.8293  -8.5751  -7.5329  -6.9301  -6.5274  -5.9799  -5.6454
    -5.4923  -4.8017  -4.4677  -3.9119  -3.6068  -3.0683  -1.7690  -1.6392
    -0.8355  -0.6522  -0.3450  -0.3053  -0.0291   0.3154   1.0574   1.3103
     1.3785   1.8933   2.0001   2.3935   2.4668   2.6729   2.7595

     the Fermi energy is     0.0291 ev

!    total energy              =   -5031.64741510 Ry
     Harris-Foulkes estimate   =   -5031.64741500 Ry
     estimated scf accuracy    <       0.00000002 Ry

     The total energy is the sum of the following terms:

     one-electron contribution =  -27844.43296535 Ry
     hartree contribution      =   13928.26261954 Ry
     xc contribution           =    -604.19558550 Ry
     ewald contribution        =    9488.75261104 Ry
     electric field correction =       0.00003296 Ry
     smearing contrib. (-TS)   =      -0.03412779 Ry

     convergence has been achieved in   6 iterations
 
 BEEF-vdW xc energy contributions
           1 :   -539.968831636335     
           2 :    490.069082511574     
           3 :   -406.393737805756     
           4 :    313.257888719783     
           5 :   -232.202797399374     
           6 :    173.910518401096     
           7 :   -136.676357561602     
           8 :    111.196166719394     
           9 :   -88.0383867376199     
          10 :    63.1595894334295     
          11 :   -38.6896947052669     
          12 :    19.5119266487704     
          13 :   -8.70127512281465     
          14 :    5.09726582309145     
          15 :   -4.33483771749286     
          16 :    2.07919969975342     
          17 :    3.14399223942542     
          18 :   -9.49662223986684     
          19 :    13.7837993452983     
          20 :   -14.1307228731355     
          21 :    11.3627077998094     
          22 :   -8.22382357219612     
          23 :    7.22712671455565     
          24 :   -8.85978364337757     
          25 :    11.4461842717387     
          26 :   -12.6341563388482     
          27 :    11.2626902041185     
          28 :   -8.18456951119742     
          29 :    5.50408388484698     
          30 :   -4.91541347470184     
          31 :   -40.0032920047391     
          32 :   -27.1508863954351     

     Forces acting on atoms (Ry/au):


     negative rho (up, down):  1.061E-03 0.000E+00
     atom    1 type  1   force =     0.00000056   -0.00000033    0.00328783
     atom    2 type  1   force =    -0.00000008   -0.00159357    0.00159227
     atom    3 type  1   force =    -0.00138049    0.00079696    0.00159266
     atom    4 type  1   force =     0.00138005    0.00079685    0.00159217
     atom    5 type  1   force =     0.00280343   -0.00161858   -0.00025135
     atom    6 type  1   force =    -0.00280329   -0.00162133   -0.00025118
     atom    7 type  1   force =    -0.00000300    0.00000159   -0.00634982
     atom    8 type  1   force =     0.00000249    0.00323843   -0.00025114
     atom    9 type  1   force =    -0.00007476   -0.00004178   -0.00023111
     atom   10 type  1   force =     0.00007663   -0.00004483   -0.00023807
     atom   11 type  1   force =    -0.00000182    0.00008624   -0.00023112
     atom   12 type  1   force =     0.00000174   -0.00000039    0.00103808
     atom   13 type  2   force =    -0.00000147    0.00000073   -0.00129921

     Total force =     0.001718     Total SCF correction =     0.000157


     entering subroutine stress ...


     negative rho (up, down):  1.061E-03 0.000E+00
          total   stress  (Ry/bohr**3)                   (kbar)     P=   -5.22
  -0.00004574  -0.00000000  -0.00000000         -6.73     -0.00     -0.00
  -0.00000000  -0.00004574   0.00000000         -0.00     -6.73      0.00
  -0.00000000   0.00000000  -0.00001494         -0.00      0.00     -2.20


     bfgs converged in  17 scf cycles and  16 bfgs steps
     (criteria: energy <  1.0E+00, force <  1.9E-03)

     End of BFGS Geometry Optimization

     Final energy   =   -5031.6474150956 Ry
Begin final coordinates

ATOMIC_POSITIONS (crystal)
Ga1      0.166666667   0.166666667   0.400460194    0   0   0
Ga1      0.666666667   0.166666667   0.400460194    0   0   0
Ga1      0.166666667   0.666666667   0.400460194    0   0   0
Ga1      0.666666667   0.666666667   0.400460194    0   0   0
Ga1      0.833333333   0.333333333   0.500000000    0   0   0
Ga1      0.333333333   0.333333333   0.500000000    0   0   0
Ga1      0.833333333   0.833333333   0.500000000    0   0   0
Ga1      0.333333333   0.833333333   0.500000000    0   0   0
Ga1     -0.006912929  -0.006922288   0.602523203
Ga1      0.513846012  -0.006921264   0.602529428
Ga1     -0.006911940   0.513836866   0.602523300
Ga1      0.499997787   0.500001904   0.591643999
O1       0.166666226   0.166667702   0.633316874
End final coordinates



     Writing output data file calc.save
 
     init_run     :     12.64s CPU     13.20s WALL (       1 calls)
     electrons    :   4869.22s CPU   5127.12s WALL (      17 calls)
     update_pot   :     47.47s CPU     49.40s WALL (      16 calls)
     forces       :    309.81s CPU    323.76s WALL (      17 calls)
     stress       :    937.96s CPU    994.06s WALL (      17 calls)

     Called by init_run:
     wfcinit      :      4.97s CPU      5.04s WALL (       1 calls)
     potinit      :      1.93s CPU      2.13s WALL (       1 calls)

     Called by electrons:
     c_bands      :   2125.92s CPU   2203.34s WALL (     137 calls)
     sum_band     :    873.83s CPU    925.99s WALL (     137 calls)
     v_of_rho     :    253.40s CPU    275.14s WALL (     153 calls)
     newd         :    798.14s CPU    809.23s WALL (     153 calls)
     mix_rho      :      8.25s CPU      8.44s WALL (     137 calls)
     vdW_energy   :    175.22s CPU    193.23s WALL (     765 calls)
     vdW_ffts     :    441.72s CPU    466.75s WALL (    1564 calls)
     vdW_v        :    164.44s CPU    170.23s WALL (     765 calls)

     Called by c_bands:
     init_us_2    :      9.46s CPU      9.53s WALL (    1545 calls)
     cegterg      :   1996.14s CPU   2032.01s WALL (     687 calls)

     Called by *egterg:
     h_psi        :   1180.21s CPU   1207.77s WALL (    3529 calls)
     s_psi        :    107.57s CPU    107.87s WALL (    3529 calls)
     g_psi        :      7.13s CPU      7.18s WALL (    2837 calls)
     cdiaghg      :    249.31s CPU    251.09s WALL (    3439 calls)

     Called by h_psi:
     add_vuspsi   :    110.46s CPU    110.76s WALL (    3529 calls)

     General routines
     calbec       :    172.96s CPU    176.49s WALL (    4384 calls)
     fft          :    669.17s CPU    720.96s WALL (   45869 calls)
     ffts         :      0.57s CPU      0.61s WALL (     290 calls)
     fftw         :    740.34s CPU    769.20s WALL (  529687 calls)
     interpolate  :      5.79s CPU      5.94s WALL (     290 calls)
     davcio       :      0.00s CPU      0.05s WALL (       5 calls)
 
     Parallel routines
     fft_scatter  :    813.63s CPU    889.82s WALL (  575846 calls)
 
     PWSCF        :     1h44m CPU        1h50m WALL

 
   This run was terminated on:  21:47:15   3May2018            

=------------------------------------------------------------------------------=
   JOB DONE.
=------------------------------------------------------------------------------=
Job  /afs/slac/g/suncat/bin/suncat-tsmpirun -x LD_LIBRARY_PATH -wdir /scratch/qe831791_TF216 pw.x -npool 4 -in pw.inp

TID   HOST_NAME   COMMAND_LINE            STATUS            TERMINATION_TIME
===== ========== ================  =======================  ===================
00000 suncat0025 pw.x -npool 4 -i  Done                     05/03/2018 21:47:15
00001 suncat0025 pw.x -npool 4 -i  Done                     05/03/2018 21:47:15
00002 suncat0025 pw.x -npool 4 -i  Done                     05/03/2018 21:47:15
00003 suncat0025 pw.x -npool 4 -i  Done                     05/03/2018 21:47:15
00004 suncat0025 pw.x -npool 4 -i  Done                     05/03/2018 21:47:15
00005 suncat0025 pw.x -npool 4 -i  Done                     05/03/2018 21:47:15
00006 suncat0025 pw.x -npool 4 -i  Done                     05/03/2018 21:47:15
00007 suncat0025 pw.x -npool 4 -i  Done                     05/03/2018 21:47:15
00008 suncat0199 pw.x -npool 4 -i  Done                     05/03/2018 21:47:15
00009 suncat0199 pw.x -npool 4 -i  Done                     05/03/2018 21:47:15
00010 suncat0199 pw.x -npool 4 -i  Done                     05/03/2018 21:47:15
00011 suncat0199 pw.x -npool 4 -i  Done                     05/03/2018 21:47:15
00012 suncat0199 pw.x -npool 4 -i  Done                     05/03/2018 21:47:15
00013 suncat0199 pw.x -npool 4 -i  Done                     05/03/2018 21:47:15
00014 suncat0199 pw.x -npool 4 -i  Done                     05/03/2018 21:47:15
00015 suncat0199 pw.x -npool 4 -i  Done                     05/03/2018 21:47:15
00016 suncat0004 pw.x -npool 4 -i  Done                     05/03/2018 21:47:15
00017 suncat0004 pw.x -npool 4 -i  Done                     05/03/2018 21:47:15
00018 suncat0004 pw.x -npool 4 -i  Done                     05/03/2018 21:47:15
00019 suncat0004 pw.x -npool 4 -i  Done                     05/03/2018 21:47:15
00020 suncat0004 pw.x -npool 4 -i  Done                     05/03/2018 21:47:15
00021 suncat0004 pw.x -npool 4 -i  Done                     05/03/2018 21:47:15
00022 suncat0004 pw.x -npool 4 -i  Done                     05/03/2018 21:47:15
00023 suncat0004 pw.x -npool 4 -i  Done                     05/03/2018 21:47:15
00024 suncat0162 pw.x -npool 4 -i  Done                     05/03/2018 21:47:15
00025 suncat0162 pw.x -npool 4 -i  Done                     05/03/2018 21:47:15
00026 suncat0162 pw.x -npool 4 -i  Done                     05/03/2018 21:47:15
00027 suncat0162 pw.x -npool 4 -i  Done                     05/03/2018 21:47:15
00028 suncat0162 pw.x -npool 4 -i  Done                     05/03/2018 21:47:15
00029 suncat0162 pw.x -npool 4 -i  Done                     05/03/2018 21:47:15
00030 suncat0162 pw.x -npool 4 -i  Done                     05/03/2018 21:47:15
00031 suncat0162 pw.x -npool 4 -i  Done                     05/03/2018 21:47:15
