  python dir          : /home/mamunm/src/espresso
  espresso dir        : /home/vossj/suncat/esdld/espresso-dynpy-beef/bin
  pseudo dir          : /home/mamunm/src/pseudo/gbrv1.5pbe
  ase-espresso py git : GITVERSION



     Program PWSCF v.5.1rc2 (svn rev. ) starts on 18Apr2018 at 22:27:24 

     This program is part of the open-source Quantum ESPRESSO suite
     for quantum simulation of materials; please cite
         "P. Giannozzi et al., J. Phys.:Condens. Matter 21 395502 (2009);
          URL http://www.quantum-espresso.org", 
     in publications or presentations arising from this work. More details at
     http://www.quantum-espresso.org/quote

     Parallel version (MPI), running on    16 processors
     R & G space division:  proc/nbgrp/npool/nimage =      16
     Reading input from pw.inp
     Message from routine read_cards :
     DEPRECATED: no units specified in CELL_PARAMETERS card

     Current dimensions of program PWSCF are:
     Max number of different atomic species (ntypx) = 10
     Max number of k-points (npk) =  40000
     Max angular momentum in pseudopotentials (lmaxx) =  3
     Presently stress not available with electric field


     **************************************************************************
     Initializing libbeef V0.1.1 with the BEEF-vdW functional.
     Citation: Wellendorff et al., PRB 85, 235149 (2012).
     **************************************************************************


     IMPORTANT: XC functional enforced from input :
     Exchange-correlation      = BEEF-VDW ( 1  4 27 13 2)
     Any further DFT definition will be discarded
     Please, verify this is what you really want


     Subspace diagonalization in iterative solution of the eigenvalue problem:
     a serial algorithm will be used

 
     Parallelization info
     --------------------
     sticks:   dense  smooth     PW     G-vecs:    dense   smooth      PW
     Min         315     126     35                63229    15971    2391
     Max         316     127     37                63240    16003    2398
     Sum        5041    2029    571              1011733   255863   38327
 


     bravais-lattice index     =            0
     lattice parameter (alat)  =       1.8897  a.u.
     unit-cell volume          =    8507.0471 (a.u.)^3
     number of atoms/cell      =           15
     number of atomic types    =            3
     number of electrons       =       138.00
     number of Kohn-Sham states=           79
     kinetic-energy cutoff     =      36.7493  Ry
     charge density cutoff     =     367.4932  Ry
     convergence threshold     =      1.0E-05
     mixing beta               =       0.3000
     number of iterations used =           10  plain     mixing
     Exchange-correlation      = BEEF-VDW ( 1  4 27 13 2)
     nstep                     =           50


     celldm(1)=   1.889726  celldm(2)=   0.000000  celldm(3)=   0.000000
     celldm(4)=   0.000000  celldm(5)=   0.000000  celldm(6)=   0.000000

     crystal axes: (cart. coord. in units of alat)
               a(1) = (   7.468327   0.000000   0.000000 )  
               a(2) = (   3.734164   6.467761   0.000000 )  
               a(3) = (   0.000000   0.000000  26.097863 )  

     reciprocal axes: (cart. coord. in units 2 pi/alat)
               b(1) = (  0.133899 -0.077307  0.000000 )  
               b(2) = (  0.000000  0.154613  0.000000 )  
               b(3) = (  0.000000  0.000000  0.038317 )  


     PseudoPot. # 1 for La read from file:
     /home/mamunm/src/pseudo/gbrv1.5pbe/La.UPF
     MD5 check sum: 5937b0c7494ba0601a847275249473aa
     Pseudo is Ultrasoft + core correction, Zval = 11.0
     Generated by new atomic code, or converted to UPF format
     Using radial grid of  995 points,  8 beta functions with: 
                l(1) =   0
                l(2) =   0
                l(3) =   1
                l(4) =   1
                l(5) =   2
                l(6) =   2
                l(7) =   3
                l(8) =   3
     Q(r) pseudized with  8 coefficients,  rinner =    1.700   1.700   1.700
                                                       1.700   1.700   1.700
                                                       1.700

     PseudoPot. # 2 for C  read from file:
     /home/mamunm/src/pseudo/gbrv1.5pbe/C.UPF
     MD5 check sum: d1aef80898a10debaa0f26306b886e00
     Pseudo is Ultrasoft + core correction, Zval =  4.0
     Generated by new atomic code, or converted to UPF format
     Using radial grid of  721 points,  4 beta functions with: 
                l(1) =   0
                l(2) =   0
                l(3) =   1
                l(4) =   1
     Q(r) pseudized with  8 coefficients,  rinner =    1.100   1.100   1.100


     PseudoPot. # 3 for H  read from file:
     /home/mamunm/src/pseudo/gbrv1.5pbe/H.UPF
     MD5 check sum: 761ae9a214b05c3daf00ab9f6b793d6f
     Pseudo is Ultrasoft, Zval =  1.0
     Generated by new atomic code, or converted to UPF format
     Using radial grid of  615 points,  2 beta functions with: 
                l(1) =   0
                l(2) =   0
     Q(r) pseudized with  8 coefficients,  rinner =    0.700

     vdW kernel table read from file vdW_kernel_table
     MD5 check sum: 095c7af220d748ca6e76c0b4c6cfb241

     atomic species   valence    mass     pseudopotential
        La1           11.00   138.90547     La( 1.00)
        C1             4.00    12.01100     C ( 1.00)
        H1             1.00     1.00800     H ( 1.00)

     No symmetry found



   Cartesian axes

     site n.     atom                  positions (alat units)
         1           La1 tau(   1) = (   1.8670818   1.0779602  10.0000000  )
         2           La1 tau(   2) = (   5.6012453   1.0779602  10.0000000  )
         3           La1 tau(   3) = (   3.7341635   4.3118406  10.0000000  )
         4           La1 tau(   4) = (   7.4683270   4.3118406  10.0000000  )
         5           La1 tau(   5) = (   7.4683270   2.1559203  13.0489317  )
         6           La1 tau(   6) = (   3.7341635   2.1559203  13.0489317  )
         7           La1 tau(   7) = (   9.3354088   5.3898008  13.0489317  )
         8           La1 tau(   8) = (   5.6012453   5.3898008  13.0489317  )
         9           La1 tau(   9) = (   0.0000000   0.0000000  16.0978635  )
        10           La1 tau(  10) = (   3.7341635   0.0000000  16.0978635  )
        11           La1 tau(  11) = (   1.8670818   3.2338805  16.0978635  )
        12           La1 tau(  12) = (   5.6012453   3.2338805  16.0978635  )
        13           C1  tau(  13) = (   1.8670818   0.0000000  18.2203635  )
        14           H1  tau(  14) = (   2.4970818   0.6300000  18.8503635  )
        15           H1  tau(  15) = (   4.9712453   5.8377609  18.8503635  )

     number of k points=    20  Fermi-Dirac smearing, width (Ry)=  0.0110
                       cart. coord. in units 2pi/alat
        k(    1) = (   0.0000000   0.0000000   0.0000000), wk =   0.0555556
        k(    2) = (   0.0000000   0.0257688   0.0000000), wk =   0.1111111
        k(    3) = (   0.0000000   0.0515377   0.0000000), wk =   0.1111111
        k(    4) = (   0.0000000  -0.0773065   0.0000000), wk =   0.0555556
        k(    5) = (   0.0223165  -0.0128844   0.0000000), wk =   0.1111111
        k(    6) = (   0.0223165   0.0128844   0.0000000), wk =   0.1111111
        k(    7) = (   0.0223165   0.0386533   0.0000000), wk =   0.1111111
        k(    8) = (   0.0223165  -0.0901909   0.0000000), wk =   0.1111111
        k(    9) = (   0.0223165  -0.0644221   0.0000000), wk =   0.1111111
        k(   10) = (   0.0223165  -0.0386533   0.0000000), wk =   0.1111111
        k(   11) = (   0.0446329  -0.0257688   0.0000000), wk =   0.1111111
        k(   12) = (   0.0446329   0.0000000   0.0000000), wk =   0.1111111
        k(   13) = (   0.0446329   0.0257688   0.0000000), wk =   0.1111111
        k(   14) = (   0.0446329  -0.1030753   0.0000000), wk =   0.1111111
        k(   15) = (   0.0446329  -0.0773065   0.0000000), wk =   0.1111111
        k(   16) = (   0.0446329  -0.0515377   0.0000000), wk =   0.1111111
        k(   17) = (  -0.0669494   0.0386533   0.0000000), wk =   0.0555556
        k(   18) = (  -0.0669494   0.0644221   0.0000000), wk =   0.1111111
        k(   19) = (  -0.0669494   0.0901909   0.0000000), wk =   0.1111111
        k(   20) = (  -0.0669494  -0.0386533   0.0000000), wk =   0.0555556

     Dense  grid:  1011733 G-vectors     FFT dimensions: (  90,  90, 320)

     Smooth grid:   255863 G-vectors     FFT dimensions: (  60,  60, 192)

     Largest allocated arrays     est. size (Mb)     dimensions
        Kohn-Sham Wavefunctions         2.49 Mb     (    2068,   79)
        NL pseudopotentials            12.50 Mb     (    2068,  396)
        Each V/rho on FFT grid          2.47 Mb     (  162000)
        Each G-vector array             0.48 Mb     (   63235)
        G-vector shells                 0.18 Mb     (   23142)
     Largest temporary arrays     est. size (Mb)     dimensions
        Auxiliary wavefunctions         9.97 Mb     (    2068,  316)
        Each subspace H/S matrix        1.52 Mb     (     316,  316)
        Each <psi_i|beta_j> matrix      0.48 Mb     (     396,   79)
        Arrays for rho mixing          24.72 Mb     (  162000,   10)

     Initial potential from superposition of free atoms
     Check: negative starting charge=   -0.830966

     starting charge  137.61512, renormalised to  138.00000

     negative rho (up, down):  8.333E-01 0.000E+00


     ************************************************************************
     *
     * You are using vdW-DF for exchange-correlation in this calculation.
     * Please cite the following three references that made this development
     * possible:
     *
     *   M. Dion, H. Rydberg, E. Schroder, D. C. Langreth, and
     *   B. I. Lundqvist, Phys. Rev. Lett. 92, 246401 (2004).
     *
     *   T. Thonhauser, V. R. Cooper, S. Li, A. Puzder, P. Hyldgaard, and
     *   D. C. Langreth, Phys. Rev. B 76, 125112 (2007).
     *
     *   G. Roman-Perez and J. M. Soler, Phys. Rev. Lett. 103, 096102 (2009).
     *
     *
     * If you are using vdW-DF2, please also cite:
     *
     *   K. Lee, E. D. Murray, L. Kong, B. I. Lundqvist, and
     *   D. C. Langreth, Phys. Rev. B 82, 081101(R) (2010).
     *
     *
     * If you are calculating the stress with vdW-DF, please also cite:
     *
     *   R. Sabatini, E. Kucukbenli, B. Kolb, T. Thonhauser, and
     *   S. de Gironcoli, J. Phys.: Condens. Matter 24, 424209 (2012).
     *
     ************************************************************************

     Carrying out vdW-DF run using the following parameters:

     Nqs =      20    Nr_points =    1024   r_max =   100.000
     q_mesh =
               0.00001000     0.04494208     0.09755937     0.15916263
               0.23128650     0.31572767     0.41458969     0.53033537
               0.66584808     0.82450364     1.01025438     1.22772762
               1.48234092     1.78043706     2.12944203     2.53805004
               3.01644009     3.57652955     4.23227104     5.00000000

     Gradients computed in reciprocal space

     ************************************************************************


 
     Adding external electric field

     Computed dipole along edir(3) : 
        Dipole               -0.1701 Ry au,         -0.4322 Debye
        Dipole field         -0.0003 Ry au
 
        Potential amp.        0.0242 Ry
        Total length         48.0849 bohr
 
     Starting wfc are  246 randomized atomic wfcs

     total cpu time spent up to now is       29.6 secs

     Self-consistent Calculation

     iteration #  1     ecut=    36.75 Ry     beta=0.30
     Davidson diagonalization with overlap
     ethr =  1.00E-02,  avg # of iterations =  2.0

     negative rho (up, down):  7.198E-01 0.000E+00
 
     Adding external electric field

     Computed dipole along edir(3) : 
        Dipole               -3.0200 Ry au,         -7.6760 Debye
        Dipole field         -0.0045 Ry au
 
        Potential amp.        0.4290 Ry
        Total length         48.0849 bohr
 

     total cpu time spent up to now is       60.4 secs

     total energy              =   -1259.57449283 Ry
     Harris-Foulkes estimate   =   -1263.07917601 Ry
     estimated scf accuracy    <       7.48111333 Ry

     iteration #  2     ecut=    36.75 Ry     beta=0.30
     Davidson diagonalization with overlap
     ethr =  5.42E-03,  avg # of iterations =  9.6

     negative rho (up, down):  6.646E-01 0.000E+00
 
     Adding external electric field

     Computed dipole along edir(3) : 
        Dipole                3.0381 Ry au,          7.7220 Debye
        Dipole field          0.0045 Ry au
 
        Potential amp.       -0.4316 Ry
        Total length         48.0849 bohr
 

     total cpu time spent up to now is      110.9 secs

     total energy              =   -1253.30041421 Ry
     Harris-Foulkes estimate   =   -1268.95269827 Ry
     estimated scf accuracy    <     325.07040791 Ry

     iteration #  3     ecut=    36.75 Ry     beta=0.30
     Davidson diagonalization with overlap
     ethr =  5.42E-03,  avg # of iterations = 11.8

     negative rho (up, down):  5.377E-01 0.000E+00
 
     Adding external electric field

     Computed dipole along edir(3) : 
        Dipole                0.2776 Ry au,          0.7057 Debye
        Dipole field          0.0004 Ry au
 
        Potential amp.       -0.0394 Ry
        Total length         48.0849 bohr
 

     total cpu time spent up to now is      164.4 secs

     total energy              =   -1257.57060303 Ry
     Harris-Foulkes estimate   =   -1271.12002480 Ry
     estimated scf accuracy    <     354.21190225 Ry

     iteration #  4     ecut=    36.75 Ry     beta=0.30
     Davidson diagonalization with overlap
     ethr =  5.42E-03,  avg # of iterations =  8.6

     negative rho (up, down):  5.358E-01 0.000E+00
 
     Adding external electric field

     Computed dipole along edir(3) : 
        Dipole               -0.3190 Ry au,         -0.8109 Debye
        Dipole field         -0.0005 Ry au
 
        Potential amp.        0.0453 Ry
        Total length         48.0849 bohr
 

     total cpu time spent up to now is      210.4 secs

     total energy              =   -1261.15328275 Ry
     Harris-Foulkes estimate   =   -1262.46022539 Ry
     estimated scf accuracy    <      41.78868423 Ry

     iteration #  5     ecut=    36.75 Ry     beta=0.30
     Davidson diagonalization with overlap
     ethr =  5.42E-03,  avg # of iterations =  8.8

     negative rho (up, down):  5.349E-01 0.000E+00
 
     Adding external electric field

     Computed dipole along edir(3) : 
        Dipole               -0.1316 Ry au,         -0.3346 Debye
        Dipole field         -0.0002 Ry au
 
        Potential amp.        0.0187 Ry
        Total length         48.0849 bohr
 

     total cpu time spent up to now is      251.9 secs

     total energy              =   -1262.06392015 Ry
     Harris-Foulkes estimate   =   -1262.20493697 Ry
     estimated scf accuracy    <       0.67653917 Ry

     iteration #  6     ecut=    36.75 Ry     beta=0.30
     Davidson diagonalization with overlap
     ethr =  4.90E-04,  avg # of iterations =  8.8

     negative rho (up, down):  5.424E-01 0.000E+00
 
     Adding external electric field

     Computed dipole along edir(3) : 
        Dipole               -0.3459 Ry au,         -0.8792 Debye
        Dipole field         -0.0005 Ry au
 
        Potential amp.        0.0491 Ry
        Total length         48.0849 bohr
 

     total cpu time spent up to now is      295.8 secs

     total energy              =   -1262.15602170 Ry
     Harris-Foulkes estimate   =   -1262.21540312 Ry
     estimated scf accuracy    <       0.35348891 Ry

     iteration #  7     ecut=    36.75 Ry     beta=0.30
     Davidson diagonalization with overlap
     ethr =  2.56E-04,  avg # of iterations =  3.8

     negative rho (up, down):  5.410E-01 0.000E+00
 
     Adding external electric field

     Computed dipole along edir(3) : 
        Dipole               -0.2136 Ry au,         -0.5430 Debye
        Dipole field         -0.0003 Ry au
 
        Potential amp.        0.0303 Ry
        Total length         48.0849 bohr
 

     total cpu time spent up to now is      327.7 secs

     total energy              =   -1262.13979359 Ry
     Harris-Foulkes estimate   =   -1262.18105880 Ry
     estimated scf accuracy    <       0.19802441 Ry

     iteration #  8     ecut=    36.75 Ry     beta=0.30
     Davidson diagonalization with overlap
     ethr =  1.43E-04,  avg # of iterations =  6.8

     negative rho (up, down):  5.499E-01 0.000E+00
 
     Adding external electric field

     Computed dipole along edir(3) : 
        Dipole               -0.2905 Ry au,         -0.7384 Debye
        Dipole field         -0.0004 Ry au
 
        Potential amp.        0.0413 Ry
        Total length         48.0849 bohr
 

     total cpu time spent up to now is      363.6 secs

     total energy              =   -1262.14278235 Ry
     Harris-Foulkes estimate   =   -1262.15742185 Ry
     estimated scf accuracy    <       0.38438912 Ry

     iteration #  9     ecut=    36.75 Ry     beta=0.30
     Davidson diagonalization with overlap
     ethr =  1.43E-04,  avg # of iterations =  2.1

     negative rho (up, down):  5.695E-01 0.000E+00
 
     Adding external electric field

     Computed dipole along edir(3) : 
        Dipole               -0.3053 Ry au,         -0.7760 Debye
        Dipole field         -0.0005 Ry au
 
        Potential amp.        0.0434 Ry
        Total length         48.0849 bohr
 

     total cpu time spent up to now is      393.5 secs

     total energy              =   -1262.14027705 Ry
     Harris-Foulkes estimate   =   -1262.14821349 Ry
     estimated scf accuracy    <       0.10749319 Ry

     iteration # 10     ecut=    36.75 Ry     beta=0.30
     Davidson diagonalization with overlap
     ethr =  7.79E-05,  avg # of iterations =  5.9

     negative rho (up, down):  5.736E-01 0.000E+00
 
     Adding external electric field

     Computed dipole along edir(3) : 
        Dipole               -0.3109 Ry au,         -0.7902 Debye
        Dipole field         -0.0005 Ry au
 
        Potential amp.        0.0442 Ry
        Total length         48.0849 bohr
 

     total cpu time spent up to now is      430.7 secs

     total energy              =   -1262.14567514 Ry
     Harris-Foulkes estimate   =   -1262.14990901 Ry
     estimated scf accuracy    <       0.09868535 Ry

     iteration # 11     ecut=    36.75 Ry     beta=0.30
     Davidson diagonalization with overlap
     ethr =  7.15E-05,  avg # of iterations =  1.7

     negative rho (up, down):  5.757E-01 0.000E+00
 
     Adding external electric field

     Computed dipole along edir(3) : 
        Dipole               -0.3039 Ry au,         -0.7724 Debye
        Dipole field         -0.0004 Ry au
 
        Potential amp.        0.0432 Ry
        Total length         48.0849 bohr
 

     total cpu time spent up to now is      460.6 secs

     total energy              =   -1262.14501572 Ry
     Harris-Foulkes estimate   =   -1262.14742009 Ry
     estimated scf accuracy    <       0.08390507 Ry

     iteration # 12     ecut=    36.75 Ry     beta=0.30
     Davidson diagonalization with overlap
     c_bands:  1 eigenvalues not converged
     ethr =  6.08E-05,  avg # of iterations =  4.5

     negative rho (up, down):  5.828E-01 0.000E+00
 
     Adding external electric field

     Computed dipole along edir(3) : 
        Dipole               -0.3062 Ry au,         -0.7783 Debye
        Dipole field         -0.0005 Ry au
 
        Potential amp.        0.0435 Ry
        Total length         48.0849 bohr
 

     total cpu time spent up to now is      492.8 secs

     total energy              =   -1262.14332644 Ry
     Harris-Foulkes estimate   =   -1262.14612191 Ry
     estimated scf accuracy    <       0.04739076 Ry

     iteration # 13     ecut=    36.75 Ry     beta=0.30
     Davidson diagonalization with overlap
     ethr =  3.43E-05,  avg # of iterations =  6.3

     negative rho (up, down):  5.859E-01 0.000E+00
 
     Adding external electric field

     Computed dipole along edir(3) : 
        Dipole               -0.3120 Ry au,         -0.7931 Debye
        Dipole field         -0.0005 Ry au
 
        Potential amp.        0.0443 Ry
        Total length         48.0849 bohr
 

     total cpu time spent up to now is      527.7 secs

     total energy              =   -1262.14510977 Ry
     Harris-Foulkes estimate   =   -1262.14522359 Ry
     estimated scf accuracy    <       0.00158446 Ry

     iteration # 14     ecut=    36.75 Ry     beta=0.30
     Davidson diagonalization with overlap
     c_bands:  1 eigenvalues not converged
     c_bands:  1 eigenvalues not converged
     ethr =  1.15E-06,  avg # of iterations = 14.5

     negative rho (up, down):  5.841E-01 0.000E+00
 
     Adding external electric field

     Computed dipole along edir(3) : 
        Dipole               -0.3109 Ry au,         -0.7903 Debye
        Dipole field         -0.0005 Ry au
 
        Potential amp.        0.0442 Ry
        Total length         48.0849 bohr
 

     total cpu time spent up to now is      584.7 secs

     total energy              =   -1262.14620916 Ry
     Harris-Foulkes estimate   =   -1262.14642352 Ry
     estimated scf accuracy    <       0.00206866 Ry

     iteration # 15     ecut=    36.75 Ry     beta=0.30
     Davidson diagonalization with overlap
     ethr =  1.15E-06,  avg # of iterations =  5.0

     negative rho (up, down):  5.836E-01 0.000E+00
 
     Adding external electric field

     Computed dipole along edir(3) : 
        Dipole               -0.3152 Ry au,         -0.8012 Debye
        Dipole field         -0.0005 Ry au
 
        Potential amp.        0.0448 Ry
        Total length         48.0849 bohr
 

     total cpu time spent up to now is      618.0 secs

     total energy              =   -1262.14622866 Ry
     Harris-Foulkes estimate   =   -1262.14628250 Ry
     estimated scf accuracy    <       0.00021499 Ry

     iteration # 16     ecut=    36.75 Ry     beta=0.30
     Davidson diagonalization with overlap
     c_bands:  1 eigenvalues not converged
     ethr =  1.56E-07,  avg # of iterations = 10.8

     negative rho (up, down):  5.847E-01 0.000E+00
 
     Adding external electric field

     Computed dipole along edir(3) : 
        Dipole               -0.3076 Ry au,         -0.7818 Debye
        Dipole field         -0.0005 Ry au
 
        Potential amp.        0.0437 Ry
        Total length         48.0849 bohr
 

     total cpu time spent up to now is      666.2 secs

     total energy              =   -1262.14626575 Ry
     Harris-Foulkes estimate   =   -1262.14635232 Ry
     estimated scf accuracy    <       0.00033915 Ry

     iteration # 17     ecut=    36.75 Ry     beta=0.30
     Davidson diagonalization with overlap
     ethr =  1.56E-07,  avg # of iterations =  8.2

     negative rho (up, down):  5.857E-01 0.000E+00
 
     Adding external electric field

     Computed dipole along edir(3) : 
        Dipole               -0.3142 Ry au,         -0.7987 Debye
        Dipole field         -0.0005 Ry au
 
        Potential amp.        0.0446 Ry
        Total length         48.0849 bohr
 

     total cpu time spent up to now is      707.6 secs

     total energy              =   -1262.14632473 Ry
     Harris-Foulkes estimate   =   -1262.14631386 Ry
     estimated scf accuracy    <       0.00009576 Ry

     iteration # 18     ecut=    36.75 Ry     beta=0.30
     Davidson diagonalization with overlap
     ethr =  6.94E-08,  avg # of iterations =  5.3

     negative rho (up, down):  5.860E-01 0.000E+00
 
     Adding external electric field

     Computed dipole along edir(3) : 
        Dipole               -0.3135 Ry au,         -0.7969 Debye
        Dipole field         -0.0005 Ry au
 
        Potential amp.        0.0445 Ry
        Total length         48.0849 bohr
 

     total cpu time spent up to now is      741.9 secs

     total energy              =   -1262.14632774 Ry
     Harris-Foulkes estimate   =   -1262.14633161 Ry
     estimated scf accuracy    <       0.00003509 Ry

     iteration # 19     ecut=    36.75 Ry     beta=0.30
     Davidson diagonalization with overlap
     ethr =  2.54E-08,  avg # of iterations =  4.5

     negative rho (up, down):  5.860E-01 0.000E+00
 
     Adding external electric field

     Computed dipole along edir(3) : 
        Dipole               -0.3130 Ry au,         -0.7955 Debye
        Dipole field         -0.0005 Ry au
 
        Potential amp.        0.0445 Ry
        Total length         48.0849 bohr
 

     total cpu time spent up to now is      775.0 secs

     total energy              =   -1262.14632638 Ry
     Harris-Foulkes estimate   =   -1262.14633012 Ry
     estimated scf accuracy    <       0.00002801 Ry

     iteration # 20     ecut=    36.75 Ry     beta=0.30
     Davidson diagonalization with overlap
     ethr =  2.03E-08,  avg # of iterations =  5.0

     negative rho (up, down):  5.859E-01 0.000E+00

     negative rho (up, down):  5.859E-01 0.000E+00

     negative rho (up, down):  5.859E-01 0.000E+00

     negative rho (up, down):  5.859E-01 0.000E+00

     negative rho (up, down):  5.859E-01 0.000E+00

     negative rho (up, down):  5.859E-01 0.000E+00

     negative rho (up, down):  5.859E-01 0.000E+00

     negative rho (up, down):  5.859E-01 0.000E+00

     negative rho (up, down):  5.859E-01 0.000E+00

     negative rho (up, down):  5.859E-01 0.000E+00

     negative rho (up, down):  5.859E-01 0.000E+00

     negative rho (up, down):  5.859E-01 0.000E+00

     negative rho (up, down):  5.859E-01 0.000E+00

     negative rho (up, down):  5.859E-01 0.000E+00

     negative rho (up, down):  5.859E-01 0.000E+00

     negative rho (up, down):  5.859E-01 0.000E+00

     negative rho (up, down):  5.859E-01 0.000E+00

     negative rho (up, down):  5.859E-01 0.000E+00

     negative rho (up, down):  5.859E-01 0.000E+00

     negative rho (up, down):  5.859E-01 0.000E+00

     negative rho (up, down):  5.859E-01 0.000E+00

     negative rho (up, down):  5.859E-01 0.000E+00

     negative rho (up, down):  5.859E-01 0.000E+00

     negative rho (up, down):  5.859E-01 0.000E+00

     negative rho (up, down):  5.859E-01 0.000E+00

     negative rho (up, down):  5.859E-01 0.000E+00

     negative rho (up, down):  5.859E-01 0.000E+00

     negative rho (up, down):  5.859E-01 0.000E+00

     negative rho (up, down):  5.859E-01 0.000E+00

     negative rho (up, down):  5.859E-01 0.000E+00

     negative rho (up, down):  5.859E-01 0.000E+00

     negative rho (up, down):  5.859E-01 0.000E+00

     negative rho (up, down):  5.859E-01 0.000E+00

     negative rho (up, down):  5.859E-01 0.000E+00

     negative rho (up, down):  5.859E-01 0.000E+00
 
     Adding external electric field

     Computed dipole along edir(3) : 
        Dipole               -0.2937 Ry au,         -0.7465 Debye
        Dipole field         -0.0004 Ry au
 
        Potential amp.        0.0417 Ry
        Total length         48.0849 bohr
 

     total cpu time spent up to now is      845.5 secs

     End of self-consistent calculation

          k = 0.0000 0.0000 0.0000 ( 31997 PWs)   bands (ev):

   -31.6442 -31.6111 -31.5587 -31.4797 -31.4793 -31.4791 -31.3533 -31.3008
   -31.1483 -31.0358 -31.0263 -31.0194 -15.7285 -15.7109 -15.6976 -15.6571
   -15.6380 -15.5922 -15.5646 -15.4782 -15.4541 -15.4394 -15.2797 -15.1565
   -15.0663 -15.0412 -14.9504 -14.9100 -14.8799 -14.8791 -14.8681 -14.8591
   -14.8543 -14.8328 -14.7691 -14.6166 -14.6156 -14.5784 -14.5422 -14.5306
   -14.5236 -14.4991 -14.4917 -14.4297 -14.4232 -14.4163 -14.1993 -14.1974
    -9.6338  -3.8981  -1.1583  -0.7410  -0.2279   0.0559   0.0885   0.0942
     0.1717   0.3586   0.3845   0.4561   0.5358   0.5904   0.6766   0.6931
     0.7249   0.9062   1.2050   1.4540   1.7262   1.8940   1.9474   2.2872
     2.3020   2.4227   2.5809   2.6395   2.8506   2.9423   2.9473

          k = 0.0000 0.0258 0.0000 ( 32061 PWs)   bands (ev):

   -31.6405 -31.6025 -31.5586 -31.4884 -31.4796 -31.4792 -31.3573 -31.3009
   -31.1405 -31.0388 -31.0310 -31.0200 -15.6953 -15.6628 -15.6481 -15.6232
   -15.5772 -15.5548 -15.5405 -15.4522 -15.4176 -15.4109 -15.2745 -15.1656
   -15.0963 -15.0510 -14.9398 -14.9263 -14.9123 -14.9068 -14.8891 -14.8657
   -14.8467 -14.8299 -14.8045 -14.7015 -14.6591 -14.6333 -14.5356 -14.5335
   -14.5163 -14.4994 -14.4728 -14.4700 -14.4596 -14.4043 -14.2717 -14.2130
    -9.6332  -3.8986  -1.0254  -0.6451  -0.0757   0.1970   0.2343   0.2434
     0.2996   0.4538   0.4963   0.5633   0.6940   0.7708   0.7788   0.8082
     0.8470   0.9737   1.2631   1.4871   1.7197   1.8771   1.9367   2.2761
     2.3074   2.4007   2.4873   2.5145   2.6085   2.7295   2.7592

          k = 0.0000 0.0515 0.0000 ( 32002 PWs)   bands (ev):

   -31.6329 -31.5789 -31.5584 -31.5130 -31.4797 -31.4792 -31.3656 -31.3010
   -31.1191 -31.0582 -31.0334 -31.0203 -15.6167 -15.5708 -15.5400 -15.4987
   -15.4851 -15.4469 -15.4028 -15.3931 -15.3476 -15.3452 -15.2657 -15.1927
   -15.1409 -15.0916 -15.0456 -15.0226 -14.9997 -14.9139 -14.9090 -14.8898
   -14.8635 -14.8285 -14.8215 -14.8033 -14.7971 -14.6806 -14.5736 -14.5661
   -14.5517 -14.5170 -14.4957 -14.4826 -14.4646 -14.4556 -14.3665 -14.2549
    -9.6322  -3.8995  -0.8162  -0.3060   0.3040   0.4042   0.4964   0.5920
     0.6492   0.6950   0.8035   0.8953   0.9754   1.0639   1.0962   1.2049
     1.2479   1.3093   1.4363   1.5684   1.7096   1.7776   1.8720   2.0185
     2.1402   2.2233   2.2996   2.3388   2.4097   2.4241   2.5463

          k = 0.0000-0.0773 0.0000 ( 31970 PWs)   bands (ev):

   -31.6290 -31.5583 -31.5464 -31.5459 -31.4797 -31.4793 -31.3699 -31.3010
   -31.0947 -31.0826 -31.0337 -31.0203 -15.5674 -15.5064 -15.4840 -15.4509
   -15.3965 -15.3747 -15.3293 -15.3025 -15.3010 -15.2384 -15.2259 -15.1954
   -15.1681 -15.1470 -15.1350 -15.1143 -15.0885 -15.0483 -15.0257 -14.9574
   -14.8526 -14.8075 -14.7784 -14.7451 -14.7418 -14.6885 -14.6647 -14.6390
   -14.6255 -14.5687 -14.5128 -14.4831 -14.4792 -14.4634 -14.3158 -14.3072
    -9.6317  -3.9000  -0.7495   0.1400   0.2304   0.5482   0.6966   0.8136
     0.9172   0.9366   0.9843   0.9926   1.0796   1.2573   1.3951   1.4412
     1.5665   1.5777   1.6251   1.6834   1.8526   1.8725   1.9486   1.9513
     2.0096   2.0335   2.0984   2.1825   2.2767   2.3054   2.3656

          k = 0.0223-0.0129 0.0000 ( 32061 PWs)   bands (ev):

   -31.6381 -31.6025 -31.5630 -31.4884 -31.4795 -31.4793 -31.3507 -31.3055
   -31.1404 -31.0407 -31.0263 -31.0227 -15.6818 -15.6741 -15.6481 -15.6076
   -15.6019 -15.5510 -15.5381 -15.4495 -15.4273 -15.4034 -15.2735 -15.1769
   -15.0762 -15.0608 -14.9372 -14.9199 -14.9135 -14.9046 -14.8974 -14.8824
   -14.8525 -14.8360 -14.7747 -14.7002 -14.6360 -14.6321 -14.5699 -14.5303
   -14.5163 -14.5030 -14.4692 -14.4660 -14.4554 -14.4103 -14.2710 -14.2140
    -9.6321  -3.8981  -1.0069  -0.6296  -0.0678   0.1772   0.2344   0.2441
     0.2978   0.4058   0.5295   0.5694   0.6420   0.7496   0.8009   0.8189
     0.8398   1.0103   1.2289   1.5122   1.7199   1.8697   1.9467   2.2745
     2.2979   2.3916   2.4847   2.5196   2.5891   2.7037   2.7788

          k = 0.0223 0.0129 0.0000 ( 32061 PWs)   bands (ev):

   -31.6382 -31.6025 -31.5630 -31.4884 -31.4795 -31.4793 -31.3507 -31.3055
   -31.1404 -31.0399 -31.0288 -31.0211 -15.6837 -15.6738 -15.6467 -15.6100
   -15.6018 -15.5506 -15.5371 -15.4497 -15.4272 -15.4034 -15.2736 -15.1770
   -15.0766 -15.0609 -14.9371 -14.9200 -14.9143 -14.9046 -14.8993 -14.8737
   -14.8512 -14.8369 -14.7808 -14.7008 -14.6339 -14.6208 -14.5791 -14.5301
   -14.5175 -14.5041 -14.4696 -14.4647 -14.4547 -14.4116 -14.2701 -14.2148
    -9.6321  -3.9007  -1.0047  -0.6287  -0.0628   0.1947   0.2314   0.2445
     0.3017   0.4254   0.5043   0.5852   0.6513   0.7198   0.7929   0.8179
     0.8417   1.0103   1.2427   1.5096   1.6925   1.8804   1.9402   2.2656
     2.2968   2.3792   2.4774   2.5210   2.5842   2.7108   2.7784

          k = 0.0223 0.0387 0.0000 ( 32007 PWs)   bands (ev):

   -31.6321 -31.5864 -31.5633 -31.4964 -31.4961 -31.4716 -31.3573 -31.3050
   -31.1258 -31.0456 -31.0417 -31.0176 -15.6338 -15.5835 -15.5661 -15.5421
   -15.5089 -15.4906 -15.4593 -15.4085 -15.3707 -15.3550 -15.2668 -15.1962
   -15.1242 -15.0818 -15.0388 -15.0077 -14.9058 -14.9003 -14.8797 -14.8720
   -14.8585 -14.8401 -14.8359 -14.8042 -14.7455 -14.6707 -14.5901 -14.5778
   -14.5240 -14.5040 -14.4934 -14.4596 -14.4329 -14.4277 -14.3927 -14.2481
    -9.6313  -3.9027  -0.8223  -0.4143   0.2254   0.4227   0.4543   0.5064
     0.5545   0.5773   0.6745   0.7871   0.9059   0.9297   0.9868   1.0918
     1.1382   1.1822   1.3550   1.5589   1.6800   1.8313   1.8703   2.1271
     2.1449   2.2471   2.3094   2.3554   2.3856   2.5899   2.6375

          k = 0.0223-0.0902 0.0000 ( 31991 PWs)   bands (ev):

   -31.6259 -31.5635 -31.5581 -31.5252 -31.5008 -31.4672 -31.3643 -31.3045
   -31.1009 -31.0684 -31.0477 -31.0143 -15.5485 -15.4991 -15.4558 -15.4491
   -15.4106 -15.3595 -15.3471 -15.3132 -15.2991 -15.2945 -15.2557 -15.2270
   -15.2057 -15.1719 -15.1342 -15.0909 -15.0576 -15.0082 -14.9414 -14.8925
   -14.8451 -14.8332 -14.8144 -14.7728 -14.7544 -14.7384 -14.6952 -14.6173
   -14.5724 -14.5266 -14.5140 -14.4845 -14.4625 -14.4572 -14.3737 -14.3078
    -9.6305  -3.9021  -0.7068   0.0560   0.4690   0.6223   0.7441   0.7952
     0.8621   0.8879   0.9450   1.0709   1.1649   1.2380   1.3107   1.3798
     1.4292   1.4882   1.6289   1.6850   1.7110   1.7725   1.8324   1.9116
     1.9618   2.0270   2.1089   2.1678   2.2286   2.2934   2.3762

          k = 0.0223-0.0644 0.0000 ( 31991 PWs)   bands (ev):

   -31.6259 -31.5635 -31.5582 -31.5252 -31.5008 -31.4672 -31.3643 -31.3045
   -31.1008 -31.0689 -31.0471 -31.0144 -15.5471 -15.4996 -15.4558 -15.4483
   -15.4101 -15.3595 -15.3461 -15.3131 -15.3001 -15.2930 -15.2550 -15.2274
   -15.2052 -15.1650 -15.1459 -15.0895 -15.0583 -15.0122 -14.9415 -14.8893
   -14.8443 -14.8339 -14.8144 -14.7748 -14.7538 -14.7387 -14.6966 -14.6170
   -14.5703 -14.5263 -14.5140 -14.4841 -14.4621 -14.4574 -14.3738 -14.3074
    -9.6306  -3.8995  -0.7083   0.0445   0.4778   0.5878   0.7300   0.7680
     0.8281   0.8892   1.0041   1.1067   1.1538   1.2623   1.3021   1.3540
     1.4431   1.5042   1.6315   1.6924   1.7232   1.7724   1.8415   1.9321
     1.9665   2.0561   2.0870   2.1826   2.2064   2.2880   2.4031

          k = 0.0223-0.0387 0.0000 ( 32007 PWs)   bands (ev):

   -31.6321 -31.5864 -31.5633 -31.4963 -31.4961 -31.4716 -31.3573 -31.3050
   -31.1258 -31.0482 -31.0386 -31.0182 -15.6316 -15.5841 -15.5656 -15.5403
   -15.5087 -15.4900 -15.4609 -15.4082 -15.3707 -15.3549 -15.2666 -15.1961
   -15.1215 -15.0820 -15.0385 -15.0169 -14.9059 -14.9021 -14.8811 -14.8716
   -14.8587 -14.8394 -14.8303 -14.7954 -14.7626 -14.6713 -14.5880 -14.5738
   -14.5244 -14.5030 -14.4926 -14.4602 -14.4329 -14.4264 -14.3933 -14.2473
    -9.6313  -3.8975  -0.8261  -0.4195   0.2075   0.4032   0.4263   0.5143
     0.5446   0.5608   0.6512   0.8409   0.8989   0.9466   0.9954   1.0831
     1.1188   1.2216   1.3645   1.5689   1.7194   1.8224   1.8766   2.1329
     2.1768   2.2425   2.2974   2.3580   2.4094   2.5920   2.6258

          k = 0.0446-0.0258 0.0000 ( 32002 PWs)   bands (ev):

   -31.6227 -31.5790 -31.5747 -31.5129 -31.4796 -31.4793 -31.3432 -31.3172
   -31.1189 -31.0599 -31.0264 -31.0257 -15.5867 -15.5804 -15.5219 -15.5138
   -15.4907 -15.4767 -15.4024 -15.3846 -15.3660 -15.3273 -15.2615 -15.2215
   -15.1103 -15.1044 -15.0330 -15.0105 -15.0087 -14.9712 -14.9106 -14.8700
   -14.8589 -14.8206 -14.8085 -14.7901 -14.7450 -14.6817 -14.6247 -14.5682
   -14.5607 -14.5086 -14.4997 -14.4831 -14.4613 -14.4538 -14.3699 -14.2564
    -9.6288  -3.8981  -0.7004  -0.3104   0.2835   0.3743   0.4310   0.5783
     0.6262   0.7014   0.8016   0.8950   0.9248   1.0488   1.1457   1.1969
     1.2550   1.2967   1.4310   1.6049   1.7357   1.7838   1.8483   2.0217
     2.1416   2.1737   2.2885   2.3332   2.3544   2.4403   2.5461

          k = 0.0446 0.0000 0.0000 ( 32007 PWs)   bands (ev):

   -31.6254 -31.5864 -31.5740 -31.4965 -31.4960 -31.4716 -31.3401 -31.3183
   -31.1257 -31.0495 -31.0365 -31.0189 -15.6260 -15.5757 -15.5599 -15.5527
   -15.5076 -15.5020 -15.4607 -15.4024 -15.3866 -15.3443 -15.2631 -15.2142
   -15.1050 -15.0894 -15.0448 -15.0342 -14.9118 -14.8794 -14.8763 -14.8694
   -14.8431 -14.8320 -14.8257 -14.7935 -14.7382 -14.6713 -14.6288 -14.5784
   -14.5169 -14.5094 -14.4925 -14.4578 -14.4329 -14.4304 -14.3932 -14.2490
    -9.6291  -3.9017  -0.7549  -0.4084   0.2340   0.3944   0.4373   0.4826
     0.5515   0.5785   0.6162   0.7954   0.9043   0.9293   0.9881   1.0367
     1.1380   1.2210   1.3674   1.5909   1.6863   1.8167   1.8958   2.1274
     2.1402   2.2295   2.2824   2.3432   2.3713   2.5603   2.6509

          k = 0.0446 0.0258 0.0000 ( 32002 PWs)   bands (ev):

   -31.6228 -31.5790 -31.5747 -31.5129 -31.4795 -31.4794 -31.3432 -31.3172
   -31.1190 -31.0590 -31.0309 -31.0220 -15.5893 -15.5809 -15.5249 -15.5146
   -15.4906 -15.4779 -15.4008 -15.3836 -15.3657 -15.3274 -15.2616 -15.2215
   -15.1128 -15.1042 -15.0311 -15.0120 -15.0101 -14.9601 -14.9110 -14.8700
   -14.8553 -14.8244 -14.8084 -14.7685 -14.7558 -14.6813 -14.6352 -14.5693
   -14.5596 -14.5066 -14.5018 -14.4842 -14.4605 -14.4534 -14.3711 -14.2572
    -9.6288  -3.9059  -0.6959  -0.3000   0.3469   0.4195   0.4443   0.5817
     0.6132   0.6985   0.8065   0.8851   0.9213   1.0207   1.1036   1.1963
     1.2293   1.3033   1.4393   1.5763   1.6961   1.7605   1.8758   2.0050
     2.1053   2.1934   2.2881   2.3040   2.3545   2.4668   2.5462

          k = 0.0446-0.1031 0.0000 ( 31991 PWs)   bands (ev):

   -31.6175 -31.5763 -31.5581 -31.5251 -31.5008 -31.4672 -31.3496 -31.3150
   -31.1008 -31.0691 -31.0467 -31.0146 -15.5312 -15.4806 -15.4745 -15.4453
   -15.4128 -15.3974 -15.3527 -15.3224 -15.2989 -15.2877 -15.2625 -15.2241
   -15.2075 -15.1606 -15.1011 -15.0852 -15.0597 -15.0506 -14.9377 -14.8749
   -14.8413 -14.8122 -14.7897 -14.7805 -14.7396 -14.7306 -14.6948 -14.6758
   -14.5771 -14.5212 -14.5139 -14.4767 -14.4705 -14.4556 -14.3767 -14.3091
    -9.6283  -3.9063  -0.6147   0.0530   0.4638   0.6594   0.7026   0.8071
     0.8222   0.8724   0.9755   1.0671   1.1576   1.1845   1.2781   1.3602
     1.4369   1.4849   1.6309   1.6809   1.7151   1.7603   1.8183   1.9017
     1.9566   2.0325   2.0882   2.1755   2.2057   2.2785   2.3660

          k = 0.0446-0.0773 0.0000 ( 31986 PWs)   bands (ev):

   -31.6148 -31.5768 -31.5299 -31.5295 -31.5294 -31.4626 -31.3529 -31.3139
   -31.0820 -31.0722 -31.0663 -31.0109 -15.4402 -15.4240 -15.4103 -15.3869
   -15.3806 -15.3585 -15.3485 -15.3041 -15.2879 -15.2565 -15.2391 -15.2319
   -15.2311 -15.2130 -15.1795 -15.1661 -15.1215 -15.1039 -14.8518 -14.8488
   -14.8437 -14.8321 -14.8119 -14.7892 -14.7843 -14.7502 -14.6924 -14.6876
   -14.6635 -14.5231 -14.4853 -14.4767 -14.4664 -14.3997 -14.3955 -14.3918
    -9.6281  -3.9026  -0.5868   0.4739   0.5431   0.5616   0.8038   0.9923
     1.0344   1.0600   1.1065   1.2251   1.3758   1.4447   1.4473   1.4487
     1.4675   1.4922   1.5437   1.5892   1.6755   1.6828   1.6872   1.8212
     1.9327   2.0228   2.0428   2.0788   2.1188   2.1264   2.1423

          k = 0.0446-0.0515 0.0000 ( 31991 PWs)   bands (ev):

   -31.6175 -31.5763 -31.5581 -31.5251 -31.5008 -31.4672 -31.3496 -31.3150
   -31.1003 -31.0706 -31.0453 -31.0150 -15.5288 -15.4789 -15.4718 -15.4450
   -15.4126 -15.3949 -15.3530 -15.3222 -15.3004 -15.2876 -15.2619 -15.2242
   -15.2071 -15.1522 -15.1124 -15.0793 -15.0725 -15.0519 -14.9382 -14.8790
   -14.8431 -14.8136 -14.7933 -14.7790 -14.7408 -14.7297 -14.6987 -14.6624
   -14.5765 -14.5208 -14.5149 -14.4765 -14.4699 -14.4554 -14.3756 -14.3084
    -9.6283  -3.8986  -0.6181   0.0246   0.3999   0.5792   0.6932   0.7784
     0.8374   0.8944   1.0007   1.1006   1.1635   1.2529   1.2992   1.3713
     1.4489   1.5167   1.6401   1.6749   1.7138   1.7750   1.8159   1.9239
     1.9778   2.0273   2.0837   2.1719   2.2125   2.3042   2.3690

          k =-0.0669 0.0387 0.0000 ( 31970 PWs)   bands (ev):

   -31.6102 -31.5857 -31.5462 -31.5460 -31.4796 -31.4794 -31.3322 -31.3303
   -31.0912 -31.0872 -31.0265 -31.0263 -15.5233 -15.5151 -15.4617 -15.4507
   -15.4288 -15.4183 -15.3289 -15.3258 -15.2743 -15.2655 -15.1968 -15.1894
   -15.1757 -15.1717 -15.1379 -15.1332 -15.0568 -15.0518 -14.9834 -14.9765
   -14.8225 -14.8142 -14.7468 -14.7449 -14.6993 -14.6881 -14.6725 -14.6665
   -14.6304 -14.6246 -14.5029 -14.4945 -14.4695 -14.4630 -14.3143 -14.3129
    -9.6272  -3.8981  -0.5662   0.0823   0.1804   0.4934   0.6249   0.7985
     0.9101   0.9356   0.9769   0.9856   1.0698   1.3299   1.4096   1.4598
     1.5534   1.5603   1.5897   1.6766   1.8532   1.8765   1.9511   1.9644
     1.9777   2.0215   2.0581   2.1729   2.2623   2.3003   2.3422

          k =-0.0669 0.0644 0.0000 ( 31991 PWs)   bands (ev):

   -31.6106 -31.5851 -31.5581 -31.5252 -31.5008 -31.4672 -31.3352 -31.3275
   -31.1002 -31.0709 -31.0448 -31.0152 -15.5290 -15.4763 -15.4674 -15.4433
   -15.4193 -15.3917 -15.3437 -15.3282 -15.2917 -15.2842 -15.2628 -15.2385
   -15.2166 -15.1845 -15.1379 -15.0966 -15.0533 -14.9635 -14.9368 -14.8943
   -14.8341 -14.8243 -14.7955 -14.7653 -14.7413 -14.7293 -14.6997 -14.6825
   -14.5785 -14.5213 -14.5140 -14.4827 -14.4625 -14.4582 -14.3752 -14.3093
    -9.6272  -3.9007  -0.5674   0.0166   0.3984   0.5866   0.6975   0.7734
     0.8337   0.8964   0.9932   1.0775   1.1372   1.2396   1.3260   1.3849
     1.4255   1.5227   1.6203   1.6665   1.7199   1.7948   1.8347   1.9016
     1.9675   1.9916   2.0963   2.1543   2.2332   2.2612   2.3586

          k =-0.0669 0.0902 0.0000 ( 31991 PWs)   bands (ev):

   -31.6107 -31.5851 -31.5581 -31.5251 -31.5008 -31.4672 -31.3352 -31.3274
   -31.1005 -31.0700 -31.0457 -31.0149 -15.5300 -15.4784 -15.4692 -15.4432
   -15.4185 -15.3959 -15.3437 -15.3283 -15.2896 -15.2838 -15.2621 -15.2378
   -15.2166 -15.1834 -15.1393 -15.0970 -15.0541 -14.9601 -14.9339 -14.8879
   -14.8298 -14.8222 -14.7934 -14.7702 -14.7402 -14.7306 -14.7034 -14.6885
   -14.5781 -14.5214 -14.5126 -14.4827 -14.4633 -14.4580 -14.3764 -14.3096
    -9.6272  -3.9058  -0.5658   0.0339   0.4690   0.6436   0.6832   0.7524
     0.8293   0.8658   1.0122   1.0587   1.1553   1.1969   1.2842   1.3473
     1.4202   1.5124   1.6219   1.6636   1.7412   1.7750   1.8479   1.9047
     1.9735   2.0001   2.0787   2.1515   2.2214   2.2551   2.3639

          k =-0.0669-0.0387 0.0000 ( 31970 PWs)   bands (ev):

   -31.6102 -31.5857 -31.5462 -31.5460 -31.4796 -31.4794 -31.3323 -31.3302
   -31.0938 -31.0840 -31.0312 -31.0222 -15.5267 -15.5157 -15.4660 -15.4535
   -15.4291 -15.4193 -15.3299 -15.3256 -15.2732 -15.2662 -15.1931 -15.1897
   -15.1759 -15.1697 -15.1407 -15.1327 -15.0611 -15.0559 -14.9694 -14.9601
   -14.8228 -14.8059 -14.7473 -14.7441 -14.7079 -14.6906 -14.6753 -14.6697
   -14.6326 -14.6233 -14.5002 -14.4975 -14.4702 -14.4627 -14.3191 -14.3100
    -9.6271  -3.9084  -0.5632   0.1625   0.1816   0.6011   0.6240   0.8226
     0.9109   0.9592   0.9753   1.0037   1.0408   1.1026   1.3772   1.4326
     1.5501   1.5691   1.6008   1.6598   1.8428   1.8782   1.9520   1.9564
     1.9706   1.9970   2.0851   2.1783   2.2635   2.2811   2.3332

     the Fermi energy is     1.7467 ev

!    total energy              =   -1262.14632680 Ry
     Harris-Foulkes estimate   =   -1262.14634635 Ry
     estimated scf accuracy    <       0.00000299 Ry

     The total energy is the sum of the following terms:

     one-electron contribution =   -4741.94635156 Ry
     hartree contribution      =    2384.07261121 Ry
     xc contribution           =    -613.68844662 Ry
     ewald contribution        =    1709.53907828 Ry
     electric field correction =       0.00012742 Ry
     smearing contrib. (-TS)   =      -0.12334553 Ry

     convergence has been achieved in  20 iterations
 
 BEEF-vdW xc energy contributions
           1 :   -543.577579212003     
           2 :    499.919621110867     
           3 :   -422.771037737394     
           4 :    328.627084932907     
           5 :   -234.943696308794     
           6 :    155.518789673591     
           7 :   -97.9097496549455     
           8 :    63.1335242684023     
           9 :   -47.1478414381788     
          10 :    43.2284286339589     
          11 :   -44.3507201314757     
          12 :    44.9110987558809     
          13 :   -41.5407559950661     
          14 :    33.1573314474405     
          15 :   -20.5846532780113     
          16 :    5.98794221243907     
          17 :    7.79322056960928     
          18 :   -18.0138904455727     
          19 :    22.8127305523408     
          20 :   -21.8125636476557     
          21 :    16.2838581495637     
          22 :   -8.74266260366562     
          23 :    2.07406939002703     
          24 :    1.49873760416858     
          25 :   -1.17830931789558     
          26 :   -2.24017313355080     
          27 :    6.85971631659640     
          28 :   -10.5854319627488     
          29 :    12.0130122629776     
          30 :   -10.9140393797250     
          31 :   -46.3624873916280     
          32 :   -33.2650296567372     

     Forces acting on atoms (Ry/au):


     negative rho (up, down):  5.859E-01 0.000E+00
     atom    1 type  1   force =     0.00038615    0.00067118    0.00328514
     atom    2 type  1   force =    -0.00029946   -0.00173405    0.00454435
     atom    3 type  1   force =    -0.00167031    0.00066127    0.00432008
     atom    4 type  1   force =     0.00096664   -0.00006098    0.00390165
     atom    5 type  1   force =    -0.00095292    0.00275820   -0.00417505
     atom    6 type  1   force =     0.00229589    0.00065349   -0.00289666
     atom    7 type  1   force =     0.00203919    0.00089354   -0.00423342
     atom    8 type  1   force =    -0.00028929   -0.00293426   -0.00541249
     atom    9 type  1   force =     0.03321550   -0.00382264    0.03147578
     atom   10 type  1   force =    -0.03684757   -0.00159864    0.03185219
     atom   11 type  1   force =    -0.00254953   -0.01296612    0.00394496
     atom   12 type  1   force =     0.00236785    0.01657521    0.00438862
     atom   13 type  2   force =     0.00291009   -0.00064116   -0.08957748
     atom   14 type  3   force =     0.01140721   -0.00002401    0.00962622
     atom   15 type  3   force =    -0.01297943    0.00156898    0.00895613

     Total force =     0.116104     Total SCF correction =     0.003434


     entering subroutine stress ...


     negative rho (up, down):  5.859E-01 0.000E+00
          total   stress  (Ry/bohr**3)                   (kbar)     P=   -3.42
  -0.00001685   0.00000152  -0.00000085         -2.48      0.22     -0.13
   0.00000152  -0.00000924   0.00000031          0.22     -1.36      0.05
  -0.00000085   0.00000031  -0.00004372         -0.13      0.05     -6.43


     BFGS Geometry Optimization

     number of scf cycles    =   1
     number of bfgs steps    =   0

     energy   new            =   -1262.1463268004 Ry

     new trust radius        =       0.0896270346 bohr
     new conv_thr            =       0.0000099958 Ry


ATOMIC_POSITIONS (crystal)
La1      0.166666667   0.166666667   0.383173129    0   0   0
La1      0.666666667   0.166666667   0.383173129    0   0   0
La1      0.166666667   0.666666667   0.383173129    0   0   0
La1      0.666666667   0.666666667   0.383173129    0   0   0
La1      0.833333333   0.333333333   0.500000000    0   0   0
La1      0.333333333   0.333333333   0.500000000    0   0   0
La1      0.833333333   0.833333333   0.500000000    0   0   0
La1      0.333333333   0.833333333   0.500000000    0   0   0
La1      0.002509904  -0.000312760   0.617465094
La1      0.497454520  -0.000130797   0.617472727
La1      0.000349779   0.498939142   0.616906862
La1      0.499489704   0.501356145   0.616915858
C1       0.250232427  -0.000052458   0.696339037
H1       0.286462396   0.097404234   0.722490462
H1       0.213362999   0.902722172   0.722476875



     Writing output data file calc.save
     Check: negative starting charge=   -0.830966
     NEW-OLD atomic charge density approx. for the potential
     Check: negative starting charge=   -0.831371

     negative rho (up, down):  5.855E-01 0.000E+00
 
     Adding external electric field

     Computed dipole along edir(3) : 
        Dipole               -0.2914 Ry au,         -0.7407 Debye
        Dipole field         -0.0004 Ry au
 
        Potential amp.        0.0414 Ry
        Total length         48.0849 bohr
 

     total cpu time spent up to now is      935.1 secs

     Self-consistent Calculation

     iteration #  1     ecut=    36.75 Ry     beta=0.30
     Davidson diagonalization with overlap
     c_bands:  1 eigenvalues not converged
     ethr =  1.00E-06,  avg # of iterations = 14.1

     negative rho (up, down):  5.853E-01 0.000E+00
 
     Adding external electric field

     Computed dipole along edir(3) : 
        Dipole               -0.6655 Ry au,         -1.6915 Debye
        Dipole field         -0.0010 Ry au
 
        Potential amp.        0.0945 Ry
        Total length         48.0849 bohr
 

     total cpu time spent up to now is      999.0 secs

     total energy              =   -1262.15163359 Ry
     Harris-Foulkes estimate   =   -1262.15739048 Ry
     estimated scf accuracy    <       0.01338928 Ry

     iteration #  2     ecut=    36.75 Ry     beta=0.30
     Davidson diagonalization with overlap
     c_bands:  1 eigenvalues not converged
     c_bands:  3 eigenvalues not converged
     ethr =  9.70E-06,  avg # of iterations = 14.9

     negative rho (up, down):  5.852E-01 0.000E+00
 
     Adding external electric field

     Computed dipole along edir(3) : 
        Dipole               -0.2713 Ry au,         -0.6895 Debye
        Dipole field         -0.0004 Ry au
 
        Potential amp.        0.0385 Ry
        Total length         48.0849 bohr
 

     total cpu time spent up to now is     1054.7 secs

     total energy              =   -1262.09123317 Ry
     Harris-Foulkes estimate   =   -1262.22068305 Ry
     estimated scf accuracy    <       5.91360619 Ry

     iteration #  3     ecut=    36.75 Ry     beta=0.30
     Davidson diagonalization with overlap
     ethr =  9.70E-06,  avg # of iterations = 12.8

     negative rho (up, down):  5.853E-01 0.000E+00
 
     Adding external electric field

     Computed dipole along edir(3) : 
        Dipole               -0.2832 Ry au,         -0.7199 Debye
        Dipole field         -0.0004 Ry au
 
        Potential amp.        0.0402 Ry
        Total length         48.0849 bohr
 

     total cpu time spent up to now is     1108.0 secs

     total energy              =   -1262.15534910 Ry
     Harris-Foulkes estimate   =   -1262.15741494 Ry
     estimated scf accuracy    <       0.01385017 Ry

     iteration #  4     ecut=    36.75 Ry     beta=0.30
     Davidson diagonalization with overlap
     ethr =  9.70E-06,  avg # of iterations =  6.4

     negative rho (up, down):  5.856E-01 0.000E+00
 
     Adding external electric field

     Computed dipole along edir(3) : 
        Dipole               -0.2915 Ry au,         -0.7409 Debye
        Dipole field         -0.0004 Ry au
 
        Potential amp.        0.0414 Ry
        Total length         48.0849 bohr
 

     total cpu time spent up to now is     1145.6 secs

     total energy              =   -1262.15612205 Ry
     Harris-Foulkes estimate   =   -1262.15716097 Ry
     estimated scf accuracy    <       0.00897247 Ry

     iteration #  5     ecut=    36.75 Ry     beta=0.30
     Davidson diagonalization with overlap
     ethr =  6.50E-06,  avg # of iterations =  3.4

     negative rho (up, down):  5.858E-01 0.000E+00
 
     Adding external electric field

     Computed dipole along edir(3) : 
        Dipole               -0.2833 Ry au,         -0.7200 Debye
        Dipole field         -0.0004 Ry au
 
        Potential amp.        0.0402 Ry
        Total length         48.0849 bohr
 

     total cpu time spent up to now is     1177.3 secs

     total energy              =   -1262.15655026 Ry
     Harris-Foulkes estimate   =   -1262.15664143 Ry
     estimated scf accuracy    <       0.00045803 Ry

     iteration #  6     ecut=    36.75 Ry     beta=0.30
     Davidson diagonalization with overlap
     c_bands:  1 eigenvalues not converged
     ethr =  3.32E-07,  avg # of iterations =  8.9

     negative rho (up, down):  5.859E-01 0.000E+00
 
     Adding external electric field

     Computed dipole along edir(3) : 
        Dipole               -0.2899 Ry au,         -0.7369 Debye
        Dipole field         -0.0004 Ry au
 
        Potential amp.        0.0412 Ry
        Total length         48.0849 bohr
 

     total cpu time spent up to now is     1223.7 secs

     total energy              =   -1262.15668455 Ry
     Harris-Foulkes estimate   =   -1262.15674076 Ry
     estimated scf accuracy    <       0.00057628 Ry

     iteration #  7     ecut=    36.75 Ry     beta=0.30
     Davidson diagonalization with overlap
     ethr =  3.32E-07,  avg # of iterations =  2.7

     negative rho (up, down):  5.860E-01 0.000E+00
 
     Adding external electric field

     Computed dipole along edir(3) : 
        Dipole               -0.2892 Ry au,         -0.7351 Debye
        Dipole field         -0.0004 Ry au
 
        Potential amp.        0.0411 Ry
        Total length         48.0849 bohr
 

     total cpu time spent up to now is     1254.2 secs

     total energy              =   -1262.15669244 Ry
     Harris-Foulkes estimate   =   -1262.15670885 Ry
     estimated scf accuracy    <       0.00013340 Ry

     iteration #  8     ecut=    36.75 Ry     beta=0.30
     Davidson diagonalization with overlap
     ethr =  9.67E-08,  avg # of iterations =  8.5

     negative rho (up, down):  5.860E-01 0.000E+00
 
     Adding external electric field

     Computed dipole along edir(3) : 
        Dipole               -0.2900 Ry au,         -0.7371 Debye
        Dipole field         -0.0004 Ry au
 
        Potential amp.        0.0412 Ry
        Total length         48.0849 bohr
 

     total cpu time spent up to now is     1296.8 secs

     total energy              =   -1262.15671356 Ry
     Harris-Foulkes estimate   =   -1262.15671850 Ry
     estimated scf accuracy    <       0.00006875 Ry

     iteration #  9     ecut=    36.75 Ry     beta=0.30
     Davidson diagonalization with overlap
     ethr =  4.98E-08,  avg # of iterations =  3.5

     negative rho (up, down):  5.861E-01 0.000E+00
 
     Adding external electric field

     Computed dipole along edir(3) : 
        Dipole               -0.2895 Ry au,         -0.7358 Debye
        Dipole field         -0.0004 Ry au
 
        Potential amp.        0.0411 Ry
        Total length         48.0849 bohr
 

     total cpu time spent up to now is     1328.0 secs

     total energy              =   -1262.15671279 Ry
     Harris-Foulkes estimate   =   -1262.15671628 Ry
     estimated scf accuracy    <       0.00002118 Ry

     iteration # 10     ecut=    36.75 Ry     beta=0.30
     Davidson diagonalization with overlap
     ethr =  1.54E-08,  avg # of iterations =  8.1

     negative rho (up, down):  5.861E-01 0.000E+00
 
     Adding external electric field

     Computed dipole along edir(3) : 
        Dipole               -0.2896 Ry au,         -0.7362 Debye
        Dipole field         -0.0004 Ry au
 
        Potential amp.        0.0411 Ry
        Total length         48.0849 bohr
 

     total cpu time spent up to now is     1370.1 secs

     total energy              =   -1262.15671651 Ry
     Harris-Foulkes estimate   =   -1262.15671917 Ry
     estimated scf accuracy    <       0.00002283 Ry

     iteration # 11     ecut=    36.75 Ry     beta=0.30
     Davidson diagonalization with overlap
     ethr =  1.54E-08,  avg # of iterations =  4.0

     negative rho (up, down):  5.861E-01 0.000E+00

     negative rho (up, down):  5.861E-01 0.000E+00

     negative rho (up, down):  5.861E-01 0.000E+00

     negative rho (up, down):  5.861E-01 0.000E+00

     negative rho (up, down):  5.861E-01 0.000E+00

     negative rho (up, down):  5.861E-01 0.000E+00

     negative rho (up, down):  5.861E-01 0.000E+00

     negative rho (up, down):  5.861E-01 0.000E+00

     negative rho (up, down):  5.861E-01 0.000E+00

     negative rho (up, down):  5.861E-01 0.000E+00

     negative rho (up, down):  5.861E-01 0.000E+00

     negative rho (up, down):  5.861E-01 0.000E+00

     negative rho (up, down):  5.861E-01 0.000E+00

     negative rho (up, down):  5.861E-01 0.000E+00

     negative rho (up, down):  5.861E-01 0.000E+00

     negative rho (up, down):  5.861E-01 0.000E+00

     negative rho (up, down):  5.861E-01 0.000E+00

     negative rho (up, down):  5.861E-01 0.000E+00

     negative rho (up, down):  5.861E-01 0.000E+00

     negative rho (up, down):  5.861E-01 0.000E+00

     negative rho (up, down):  5.861E-01 0.000E+00

     negative rho (up, down):  5.861E-01 0.000E+00

     negative rho (up, down):  5.861E-01 0.000E+00

     negative rho (up, down):  5.861E-01 0.000E+00

     negative rho (up, down):  5.861E-01 0.000E+00

     negative rho (up, down):  5.861E-01 0.000E+00

     negative rho (up, down):  5.861E-01 0.000E+00

     negative rho (up, down):  5.861E-01 0.000E+00

     negative rho (up, down):  5.861E-01 0.000E+00

     negative rho (up, down):  5.861E-01 0.000E+00

     negative rho (up, down):  5.861E-01 0.000E+00

     negative rho (up, down):  5.861E-01 0.000E+00

     negative rho (up, down):  5.861E-01 0.000E+00

     negative rho (up, down):  5.861E-01 0.000E+00

     negative rho (up, down):  5.861E-01 0.000E+00
 
     Adding external electric field

     Computed dipole along edir(3) : 
        Dipole               -0.2905 Ry au,         -0.7384 Debye
        Dipole field         -0.0004 Ry au
 
        Potential amp.        0.0413 Ry
        Total length         48.0849 bohr
 

     total cpu time spent up to now is     1436.8 secs

     End of self-consistent calculation

          k = 0.0000 0.0000 0.0000 ( 31997 PWs)   bands (ev):

   -31.6303 -31.5936 -31.5453 -31.4621 -31.4617 -31.4616 -31.3285 -31.2749
   -31.1362 -31.0262 -31.0119 -31.0052 -15.7110 -15.6928 -15.6801 -15.6399
   -15.6209 -15.5763 -15.5487 -15.4632 -15.4369 -15.4215 -15.2640 -15.1419
   -15.0476 -15.0216 -14.9360 -14.8960 -14.8637 -14.8631 -14.8505 -14.8419
   -14.8390 -14.8161 -14.7461 -14.5991 -14.5980 -14.5583 -14.5340 -14.5145
   -14.5094 -14.4810 -14.4799 -14.4175 -14.4109 -14.4025 -14.1863 -14.1844
    -9.4802  -3.6366  -1.2085  -0.8158  -0.2288   0.0735   0.1055   0.1132
     0.1741   0.3683   0.4034   0.4647   0.5430   0.6068   0.6926   0.7097
     0.7439   0.9107   1.1908   1.4679   1.7439   1.9156   1.9630   2.3044
     2.3171   2.4457   2.5939   2.6515   2.8671   2.9579   2.9643

          k = 0.0000 0.0258 0.0000 ( 32061 PWs)   bands (ev):

   -31.6268 -31.5850 -31.5452 -31.4708 -31.4620 -31.4616 -31.3323 -31.2750
   -31.1284 -31.0291 -31.0165 -31.0058 -15.6780 -15.6450 -15.6304 -15.6061
   -15.5604 -15.5380 -15.5251 -15.4373 -15.4004 -15.3930 -15.2588 -15.1510
   -15.0772 -15.0309 -14.9250 -14.9109 -14.8948 -14.8904 -14.8769 -14.8494
   -14.8290 -14.8121 -14.7833 -14.6843 -14.6389 -14.6156 -14.5261 -14.5158
   -14.5021 -14.4829 -14.4614 -14.4579 -14.4464 -14.3915 -14.2588 -14.2000
    -9.4796  -3.6371  -1.1080  -0.6981  -0.0698   0.2135   0.2512   0.2602
     0.3069   0.4671   0.5033   0.5783   0.6947   0.7851   0.7951   0.8258
     0.8670   0.9812   1.2515   1.5006   1.7391   1.8998   1.9525   2.2951
     2.3223   2.4216   2.5043   2.5338   2.6236   2.7490   2.7755

          k = 0.0000 0.0515 0.0000 ( 32002 PWs)   bands (ev):

   -31.6195 -31.5614 -31.5450 -31.4954 -31.4621 -31.4617 -31.3403 -31.2751
   -31.1073 -31.0462 -31.0210 -31.0062 -15.6002 -15.5531 -15.5230 -15.4812
   -15.4690 -15.4306 -15.3858 -15.3784 -15.3309 -15.3275 -15.2500 -15.1777
   -15.1204 -15.0710 -15.0319 -15.0055 -14.9812 -14.8953 -14.8869 -14.8756
   -14.8439 -14.8130 -14.8079 -14.7863 -14.7809 -14.6629 -14.5623 -14.5508
   -14.5315 -14.5076 -14.4818 -14.4687 -14.4525 -14.4440 -14.3539 -14.2419
    -9.4784  -3.6379  -0.9642  -0.3079   0.3171   0.4189   0.5103   0.6003
     0.6661   0.7012   0.7988   0.9142   0.9821   1.0717   1.1079   1.2230
     1.2630   1.3224   1.4476   1.5800   1.7335   1.7963   1.8923   2.0317
     2.1634   2.2480   2.3162   2.3601   2.4276   2.4383   2.5627

          k = 0.0000-0.0773 0.0000 ( 31970 PWs)   bands (ev):

   -31.6158 -31.5449 -31.5288 -31.5284 -31.4621 -31.4617 -31.3445 -31.2751
   -31.0846 -31.0686 -31.0216 -31.0062 -15.5516 -15.4887 -15.4668 -15.4349
   -15.3813 -15.3556 -15.3136 -15.2863 -15.2845 -15.2258 -15.2090 -15.1778
   -15.1509 -15.1274 -15.1219 -15.0955 -15.0715 -15.0256 -15.0028 -14.9330
   -14.8380 -14.7923 -14.7645 -14.7276 -14.7241 -14.6769 -14.6525 -14.6270
   -14.6113 -14.5464 -14.5034 -14.4690 -14.4656 -14.4533 -14.3044 -14.2930
    -9.4778  -3.6384  -0.9147   0.1549   0.2399   0.5604   0.7100   0.7874
     0.9389   0.9513   1.0023   1.0108   1.0721   1.2663   1.4134   1.4563
     1.5837   1.5960   1.6390   1.7063   1.8719   1.8894   1.9648   1.9667
     2.0353   2.0562   2.1124   2.2055   2.2910   2.3234   2.3819

          k = 0.0223-0.0129 0.0000 ( 32061 PWs)   bands (ev):

   -31.6244 -31.5850 -31.5496 -31.4708 -31.4620 -31.4616 -31.3259 -31.2795
   -31.1284 -31.0306 -31.0119 -31.0090 -15.6643 -15.6560 -15.6306 -15.5906
   -15.5847 -15.5340 -15.5233 -15.4346 -15.4101 -15.3854 -15.2578 -15.1620
   -15.0573 -15.0405 -14.9225 -14.9032 -14.8963 -14.8877 -14.8826 -14.8691
   -14.8348 -14.8199 -14.7526 -14.6830 -14.6175 -14.6131 -14.5521 -14.5191
   -14.5020 -14.4888 -14.4578 -14.4533 -14.4425 -14.3974 -14.2580 -14.2010
    -9.4782  -3.6365  -1.0808  -0.6908  -0.0649   0.1890   0.2507   0.2624
     0.3009   0.4195   0.5450   0.5764   0.6539   0.7615   0.8192   0.8368
     0.8573   1.0186   1.2183   1.5267   1.7386   1.8935   1.9627   2.2899
     2.3137   2.4103   2.5032   2.5381   2.6024   2.7232   2.7960

          k = 0.0223 0.0129 0.0000 ( 32061 PWs)   bands (ev):

   -31.6244 -31.5850 -31.5496 -31.4708 -31.4619 -31.4617 -31.3259 -31.2795
   -31.1284 -31.0297 -31.0151 -31.0067 -15.6660 -15.6560 -15.6292 -15.5927
   -15.5849 -15.5336 -15.5222 -15.4347 -15.4100 -15.3854 -15.2578 -15.1621
   -15.0579 -15.0405 -14.9225 -14.9033 -14.8972 -14.8878 -14.8843 -14.8608
   -14.8336 -14.8208 -14.7583 -14.6836 -14.6162 -14.6012 -14.5603 -14.5193
   -14.5032 -14.4904 -14.4581 -14.4524 -14.4416 -14.3987 -14.2573 -14.2017
    -9.4782  -3.6398  -1.0787  -0.6893  -0.0592   0.2135   0.2463   0.2630
     0.3030   0.4421   0.5143   0.5916   0.6604   0.7327   0.8119   0.8344
     0.8603   1.0183   1.2308   1.5239   1.7113   1.9028   1.9561   2.2828
     2.3116   2.3997   2.4956   2.5395   2.5979   2.7296   2.7948

          k = 0.0223 0.0387 0.0000 ( 32007 PWs)   bands (ev):

   -31.6186 -31.5689 -31.5499 -31.4789 -31.4785 -31.4541 -31.3322 -31.2791
   -31.1140 -31.0355 -31.0272 -31.0037 -15.6164 -15.5665 -15.5481 -15.5249
   -15.4930 -15.4733 -15.4440 -15.3934 -15.3536 -15.3372 -15.2510 -15.1809
   -15.1040 -15.0617 -15.0204 -14.9917 -14.8916 -14.8852 -14.8637 -14.8547
   -14.8430 -14.8225 -14.8190 -14.7849 -14.7255 -14.6532 -14.5739 -14.5617
   -14.5134 -14.4898 -14.4799 -14.4483 -14.4205 -14.4151 -14.3798 -14.2351
    -9.4773  -3.6420  -0.9542  -0.4296   0.2366   0.4396   0.4685   0.5168
     0.5718   0.5944   0.6813   0.7737   0.9195   0.9439   1.0059   1.1036
     1.1507   1.1945   1.3583   1.5745   1.6994   1.8520   1.8888   2.1437
     2.1654   2.2685   2.3265   2.3758   2.4023   2.6063   2.6544

          k = 0.0223-0.0902 0.0000 ( 31991 PWs)   bands (ev):

   -31.6127 -31.5501 -31.5406 -31.5076 -31.4832 -31.4496 -31.3388 -31.2787
   -31.0898 -31.0557 -31.0348 -31.0008 -15.5321 -15.4821 -15.4393 -15.4318
   -15.3943 -15.3427 -15.3321 -15.2974 -15.2819 -15.2781 -15.2400 -15.2100
   -15.1877 -15.1520 -15.1177 -15.0697 -15.0400 -14.9884 -14.9241 -14.8705
   -14.8304 -14.8164 -14.7971 -14.7586 -14.7407 -14.7214 -14.6828 -14.5980
   -14.5582 -14.5158 -14.5006 -14.4708 -14.4498 -14.4464 -14.3612 -14.2948
    -9.4764  -3.6410  -0.8724   0.0660   0.4809   0.6310   0.7591   0.7871
     0.8665   0.9071   0.9473   1.0819   1.1814   1.2549   1.3170   1.3965
     1.4428   1.5100   1.6462   1.7032   1.7326   1.7893   1.8446   1.9366
     1.9816   2.0460   2.1260   2.1896   2.2453   2.3110   2.3909

          k = 0.0223-0.0644 0.0000 ( 31991 PWs)   bands (ev):

   -31.6127 -31.5501 -31.5406 -31.5076 -31.4832 -31.4496 -31.3389 -31.2787
   -31.0896 -31.0565 -31.0339 -31.0010 -15.5308 -15.4826 -15.4393 -15.4310
   -15.3937 -15.3426 -15.3308 -15.2973 -15.2818 -15.2777 -15.2395 -15.2110
   -15.1872 -15.1472 -15.1266 -15.0685 -15.0408 -14.9924 -14.9242 -14.8675
   -14.8293 -14.8170 -14.7973 -14.7607 -14.7402 -14.7219 -14.6841 -14.5980
   -14.5557 -14.5155 -14.5008 -14.4703 -14.4497 -14.4464 -14.3613 -14.2944
    -9.4765  -3.6379  -0.8738   0.0525   0.4909   0.5838   0.7311   0.7738
     0.8435   0.9077   1.0177   1.1118   1.1704   1.2792   1.3118   1.3709
     1.4581   1.5228   1.6480   1.7140   1.7402   1.7908   1.8546   1.9556
     1.9836   2.0702   2.1062   2.2009   2.2231   2.3061   2.4176

          k = 0.0223-0.0387 0.0000 ( 32007 PWs)   bands (ev):

   -31.6186 -31.5689 -31.5499 -31.4788 -31.4785 -31.4540 -31.3322 -31.2791
   -31.1139 -31.0379 -31.0240 -31.0046 -15.6143 -15.5669 -15.5477 -15.5230
   -15.4927 -15.4726 -15.4455 -15.3932 -15.3537 -15.3371 -15.2509 -15.1809
   -15.1015 -15.0619 -15.0203 -15.0004 -14.8917 -14.8869 -14.8652 -14.8543
   -14.8435 -14.8217 -14.8132 -14.7766 -14.7424 -14.6538 -14.5741 -14.5558
   -14.5136 -14.4888 -14.4787 -14.4491 -14.4206 -14.4137 -14.3804 -14.2344
    -9.4773  -3.6356  -0.9575  -0.4366   0.2155   0.4009   0.4428   0.5253
     0.5634   0.5786   0.6601   0.8432   0.9147   0.9620   1.0158   1.0950
     1.1301   1.2330   1.3699   1.5826   1.7408   1.8444   1.8935   2.1503
     2.1925   2.2615   2.3151   2.3793   2.4269   2.6095   2.6441

          k = 0.0446-0.0258 0.0000 ( 32002 PWs)   bands (ev):

   -31.6093 -31.5621 -31.5605 -31.4954 -31.4621 -31.4617 -31.3183 -31.2912
   -31.1070 -31.0483 -31.0134 -31.0118 -15.5687 -15.5630 -15.5051 -15.4964
   -15.4744 -15.4599 -15.3877 -15.3689 -15.3487 -15.3096 -15.2455 -15.2058
   -15.0910 -15.0830 -15.0173 -14.9930 -14.9903 -14.9537 -14.8933 -14.8567
   -14.8439 -14.8031 -14.7909 -14.7743 -14.7250 -14.6642 -14.6046 -14.5568
   -14.5473 -14.4968 -14.4863 -14.4705 -14.4487 -14.4425 -14.3571 -14.2435
    -9.4744  -3.6364  -0.8427  -0.3224   0.2756   0.3843   0.4465   0.5890
     0.6445   0.7148   0.8080   0.9124   0.9392   1.0651   1.1509   1.2148
     1.2673   1.3125   1.4425   1.6235   1.7580   1.8000   1.8683   2.0360
     2.1545   2.1914   2.3062   2.3511   2.3739   2.4610   2.5628

          k = 0.0446 0.0000 0.0000 ( 32007 PWs)   bands (ev):

   -31.6118 -31.5689 -31.5605 -31.4789 -31.4785 -31.4540 -31.3154 -31.2922
   -31.1138 -31.0388 -31.0224 -31.0053 -15.6081 -15.5577 -15.5425 -15.5357
   -15.4912 -15.4848 -15.4459 -15.3875 -15.3693 -15.3262 -15.2471 -15.1988
   -15.0831 -15.0712 -15.0287 -15.0159 -14.8971 -14.8641 -14.8595 -14.8522
   -14.8253 -14.8191 -14.8111 -14.7723 -14.7175 -14.6539 -14.6084 -14.5664
   -14.5063 -14.4955 -14.4796 -14.4462 -14.4205 -14.4175 -14.3803 -14.2360
    -9.4746  -3.6410  -0.8771  -0.4352   0.2393   0.3918   0.4532   0.4947
     0.5699   0.5946   0.6296   0.7928   0.9183   0.9472   1.0047   1.0547
     1.1540   1.2294   1.3719   1.6096   1.7026   1.8391   1.9151   2.1387
     2.1584   2.2471   2.3001   2.3623   2.3895   2.5799   2.6657

          k = 0.0446 0.0258 0.0000 ( 32002 PWs)   bands (ev):

   -31.6093 -31.5622 -31.5605 -31.4954 -31.4620 -31.4618 -31.3183 -31.2912
   -31.1072 -31.0469 -31.0189 -31.0075 -15.5708 -15.5639 -15.5078 -15.4978
   -15.4744 -15.4610 -15.3861 -15.3679 -15.3484 -15.3096 -15.2456 -15.2058
   -15.0939 -15.0823 -15.0154 -14.9945 -14.9918 -14.9426 -14.8938 -14.8559
   -14.8411 -14.8091 -14.7907 -14.7522 -14.7342 -14.6637 -14.6151 -14.5581
   -14.5458 -14.4957 -14.4878 -14.4717 -14.4480 -14.4422 -14.3584 -14.2441
    -9.4743  -3.6459  -0.8388  -0.3088   0.3587   0.4332   0.4611   0.5789
     0.6301   0.7088   0.8041   0.8996   0.9347   1.0298   1.1144   1.2137
     1.2463   1.3179   1.4496   1.5967   1.7101   1.7799   1.8955   2.0252
     2.1187   2.2091   2.3063   2.3257   2.3745   2.4848   2.5633

          k = 0.0446-0.1031 0.0000 ( 31991 PWs)   bands (ev):

   -31.6042 -31.5627 -31.5406 -31.5076 -31.4832 -31.4496 -31.3243 -31.2892
   -31.0896 -31.0563 -31.0339 -31.0011 -15.5135 -15.4632 -15.4576 -15.4297
   -15.3961 -15.3812 -15.3374 -15.3061 -15.2832 -15.2699 -15.2465 -15.2078
   -15.1897 -15.1385 -15.0812 -15.0627 -15.0472 -15.0327 -14.9205 -14.8563
   -14.8258 -14.7958 -14.7744 -14.7620 -14.7225 -14.7152 -14.6816 -14.6571
   -14.5645 -14.5094 -14.5006 -14.4639 -14.4575 -14.4453 -14.3640 -14.2960
    -9.4738  -3.6463  -0.7824   0.0625   0.4767   0.6676   0.7176   0.7938
     0.8358   0.8843   0.9714   1.0829   1.1705   1.2013   1.2958   1.3778
     1.4568   1.5013   1.6478   1.6988   1.7318   1.7818   1.8351   1.9190
     1.9749   2.0501   2.1050   2.1936   2.2203   2.2982   2.3819

          k = 0.0446-0.0773 0.0000 ( 31986 PWs)   bands (ev):

   -31.6017 -31.5632 -31.5124 -31.5119 -31.5118 -31.4451 -31.3274 -31.2882
   -31.0736 -31.0577 -31.0522 -30.9977 -15.4229 -15.4070 -15.3949 -15.3727
   -15.3632 -15.3402 -15.3317 -15.2885 -15.2725 -15.2428 -15.2211 -15.2145
   -15.2137 -15.1971 -15.1610 -15.1399 -15.0987 -15.0894 -14.8355 -14.8320
   -14.8256 -14.8137 -14.7940 -14.7728 -14.7693 -14.7334 -14.6797 -14.6731
   -14.6490 -14.5116 -14.4718 -14.4629 -14.4563 -14.3876 -14.3836 -14.3779
    -9.4735  -3.6418  -0.7612   0.4651   0.5577   0.5748   0.7899   1.0089
     1.0469   1.0724   1.1232   1.2342   1.3956   1.4619   1.4656   1.4674
     1.4924   1.5074   1.5578   1.6152   1.6890   1.6978   1.7069   1.8338
     1.9439   2.0457   2.0610   2.0901   2.1360   2.1450   2.1577

          k = 0.0446-0.0515 0.0000 ( 31991 PWs)   bands (ev):

   -31.6042 -31.5627 -31.5406 -31.5076 -31.4832 -31.4496 -31.3243 -31.2892
   -31.0890 -31.0585 -31.0316 -31.0018 -15.5112 -15.4616 -15.4548 -15.4294
   -15.3959 -15.3782 -15.3378 -15.3060 -15.2845 -15.2701 -15.2459 -15.2080
   -15.1892 -15.1300 -15.0930 -15.0628 -15.0537 -15.0342 -14.9210 -14.8588
   -14.8283 -14.7970 -14.7788 -14.7620 -14.7237 -14.7136 -14.6854 -14.6436
   -14.5638 -14.5093 -14.5015 -14.4632 -14.4571 -14.4451 -14.3629 -14.2955
    -9.4738  -3.6369  -0.7858   0.0281   0.3925   0.5847   0.7064   0.7892
     0.8549   0.9094   1.0147   1.1129   1.1784   1.2709   1.3112   1.3847
     1.4665   1.5320   1.6550   1.6925   1.7358   1.7909   1.8338   1.9428
     1.9923   2.0409   2.1009   2.1900   2.2274   2.3209   2.3870

          k =-0.0669 0.0387 0.0000 ( 31970 PWs)   bands (ev):

   -31.5971 -31.5719 -31.5288 -31.5283 -31.4621 -31.4617 -31.3088 -31.3028
   -31.0819 -31.0727 -31.0145 -31.0118 -15.5051 -15.4980 -15.4455 -15.4334
   -15.4139 -15.4016 -15.3125 -15.3090 -15.2581 -15.2491 -15.1813 -15.1745
   -15.1585 -15.1537 -15.1185 -15.1141 -15.0383 -15.0298 -14.9751 -14.9456
   -14.8067 -14.8033 -14.7291 -14.7275 -14.6835 -14.6688 -14.6601 -14.6496
   -14.6192 -14.6111 -14.4911 -14.4813 -14.4565 -14.4530 -14.3029 -14.2985
    -9.4725  -3.6364  -0.7370   0.0796   0.1916   0.4900   0.6401   0.7993
     0.9262   0.9557   0.9960   1.0039   1.0809   1.3447   1.4230   1.4651
     1.5699   1.5785   1.6082   1.6961   1.8709   1.8949   1.9659   1.9787
     1.9961   2.0432   2.0687   2.1974   2.2838   2.3022   2.3604

          k =-0.0669 0.0644 0.0000 ( 31991 PWs)   bands (ev):

   -31.5975 -31.5714 -31.5406 -31.5076 -31.4832 -31.4496 -31.3105 -31.3012
   -31.0889 -31.0588 -31.0312 -31.0019 -15.5112 -15.4587 -15.4506 -15.4272
   -15.4024 -15.3757 -15.3285 -15.3114 -15.2754 -15.2673 -15.2460 -15.2227
   -15.1993 -15.1681 -15.1154 -15.0759 -15.0348 -14.9471 -14.9205 -14.8726
   -14.8199 -14.8075 -14.7798 -14.7511 -14.7244 -14.7119 -14.6843 -14.6658
   -14.5659 -14.5094 -14.5010 -14.4696 -14.4494 -14.4480 -14.3625 -14.2964
    -9.4725  -3.6395  -0.7371   0.0208   0.3920   0.5900   0.7120   0.7844
     0.8506   0.9137   1.0020   1.0881   1.1551   1.2578   1.3394   1.3954
     1.4448   1.5374   1.6376   1.6843   1.7450   1.8099   1.8468   1.9230
     1.9777   2.0110   2.1150   2.1726   2.2514   2.2761   2.3749

          k =-0.0669 0.0902 0.0000 ( 31991 PWs)   bands (ev):

   -31.5975 -31.5714 -31.5406 -31.5076 -31.4832 -31.4496 -31.3104 -31.3012
   -31.0893 -31.0574 -31.0327 -31.0015 -15.5121 -15.4607 -15.4525 -15.4271
   -15.4019 -15.3801 -15.3284 -15.3117 -15.2726 -15.2671 -15.2454 -15.2218
   -15.1996 -15.1669 -15.1167 -15.0761 -15.0356 -14.9429 -14.9181 -14.8683
   -14.8142 -14.8055 -14.7773 -14.7544 -14.7231 -14.7146 -14.6877 -14.6725
   -14.5654 -14.5099 -14.4992 -14.4697 -14.4501 -14.4480 -14.3638 -14.2965
    -9.4724  -3.6458  -0.7353   0.0422   0.4820   0.6313   0.6950   0.7571
     0.8451   0.8822   1.0118   1.0737   1.1709   1.2128   1.3005   1.3664
     1.4393   1.5307   1.6393   1.6815   1.7600   1.7898   1.8680   1.9148
     1.9897   2.0178   2.0984   2.1682   2.2406   2.2722   2.3788

          k =-0.0669-0.0387 0.0000 ( 31970 PWs)   bands (ev):

   -31.5971 -31.5719 -31.5287 -31.5284 -31.4621 -31.4618 -31.3086 -31.3029
   -31.0842 -31.0694 -31.0197 -31.0077 -15.5078 -15.4991 -15.4493 -15.4367
   -15.4138 -15.4034 -15.3131 -15.3092 -15.2568 -15.2497 -15.1793 -15.1732
   -15.1583 -15.1520 -15.1205 -15.1137 -15.0430 -15.0336 -14.9582 -14.9330
   -14.8077 -14.7939 -14.7294 -14.7267 -14.6887 -14.6692 -14.6655 -14.6555
   -14.6222 -14.6088 -14.4894 -14.4833 -14.4575 -14.4524 -14.3078 -14.2955
    -9.4724  -3.6489  -0.7335   0.1773   0.1928   0.6127   0.6387   0.7911
     0.9259   0.9644   0.9959   1.0212   1.0571   1.1062   1.4016   1.4467
     1.5670   1.5888   1.6173   1.6794   1.8640   1.8940   1.9647   1.9672
     1.9891   2.0179   2.1020   2.2027   2.2824   2.2881   2.3513

     the Fermi energy is     1.7641 ev

!    total energy              =   -1262.15671386 Ry
     Harris-Foulkes estimate   =   -1262.15671671 Ry
     estimated scf accuracy    <       0.00000419 Ry

     The total energy is the sum of the following terms:

     one-electron contribution =   -4740.07468723 Ry
     hartree contribution      =    2383.22747432 Ry
     xc contribution           =    -613.65784958 Ry
     ewald contribution        =    1708.47113381 Ry
     electric field correction =       0.00012465 Ry
     smearing contrib. (-TS)   =      -0.12290982 Ry

     convergence has been achieved in  11 iterations
 
 BEEF-vdW xc energy contributions
           1 :   -543.552208186343     
           2 :    499.903648923449     
           3 :   -422.766733524040     
           4 :    328.630198298835     
           5 :   -234.948664463063     
           6 :    155.521518699557     
           7 :   -97.9073119632161     
           8 :    63.1240769441665     
           9 :   -47.1315613065445     
          10 :    43.2084363066892     
          11 :   -44.3328546960923     
          12 :    44.9018942894497     
          13 :   -41.5439252700600     
          14 :    33.1707911372457     
          15 :   -20.6011398417631     
          16 :    5.99930515964923     
          17 :    7.79132050147928     
          18 :   -18.0196052508400     
          19 :    22.8192098751713     
          20 :   -21.8121200135829     
          21 :    16.2727249385284     
          22 :   -8.72328606772089     
          23 :    2.05335506205438     
          24 :    1.51395171201443     
          25 :   -1.18558924197714     
          26 :   -2.23769862635959     
          27 :    6.85604924154904     
          28 :   -10.5761160177547     
          29 :    11.9981971906377     
          30 :   -10.8981387035332     
          31 :   -46.3611358057303     
          32 :   -33.2657156043322     

     Forces acting on atoms (Ry/au):


     negative rho (up, down):  5.861E-01 0.000E+00
     atom    1 type  1   force =     0.00038254    0.00059150    0.00379545
     atom    2 type  1   force =    -0.00028595   -0.00179796    0.00490943
     atom    3 type  1   force =    -0.00156716    0.00077324    0.00483701
     atom    4 type  1   force =     0.00085962    0.00000380    0.00444318
     atom    5 type  1   force =    -0.00074032    0.00273818   -0.00405743
     atom    6 type  1   force =     0.00210255    0.00055899   -0.00267251
     atom    7 type  1   force =     0.00201778    0.00092873   -0.00364085
     atom    8 type  1   force =    -0.00028145   -0.00290370   -0.00535147
     atom    9 type  1   force =     0.02965996   -0.00410965    0.02955745
     atom   10 type  1   force =    -0.03322885   -0.00106192    0.03002741
     atom   11 type  1   force =    -0.00238299   -0.01214539    0.00340759
     atom   12 type  1   force =     0.00216944    0.01571607    0.00376256
     atom   13 type  2   force =     0.00195357   -0.00139579   -0.03502665
     atom   14 type  3   force =    -0.00559746   -0.01822631   -0.01635567
     atom   15 type  3   force =     0.00493872    0.02033020   -0.01763548

     Total force =     0.082585     Total SCF correction =     0.004052


     entering subroutine stress ...


     negative rho (up, down):  5.861E-01 0.000E+00
          total   stress  (Ry/bohr**3)                   (kbar)     P=   -4.16
  -0.00002028  -0.00000350  -0.00000080         -2.98     -0.51     -0.12
  -0.00000350  -0.00001409   0.00000031         -0.51     -2.07      0.05
  -0.00000080   0.00000031  -0.00005053         -0.12      0.05     -7.43


     number of scf cycles    =   2
     number of bfgs steps    =   1

     energy   old            =   -1262.1463268004 Ry
     energy   new            =   -1262.1567138632 Ry

     CASE: energy  _new < energy  _old

     new trust radius        =       0.1344405520 bohr
     new conv_thr            =       0.0000001000 Ry


ATOMIC_POSITIONS (crystal)
La1      0.166666667   0.166666667   0.383173129    0   0   0
La1      0.666666667   0.166666667   0.383173129    0   0   0
La1      0.166666667   0.666666667   0.383173129    0   0   0
La1      0.666666667   0.666666667   0.383173129    0   0   0
La1      0.833333333   0.333333333   0.500000000    0   0   0
La1      0.333333333   0.333333333   0.500000000    0   0   0
La1      0.833333333   0.833333333   0.500000000    0   0   0
La1      0.333333333   0.833333333   0.500000000    0   0   0
La1      0.008532987  -0.001157021   0.619035573
La1      0.491330018  -0.000389582   0.619066131
La1      0.001209680   0.496333062   0.617093130
La1      0.498216448   0.504714905   0.617122069
C1       0.250764462  -0.000295492   0.693616231
H1       0.287732670   0.094785962   0.722067211
H1       0.211717857   0.905745251   0.721997044



     Writing output data file calc.save
     Check: negative starting charge=   -0.831371
     NEW-OLD atomic charge density approx. for the potential
     Check: negative starting charge=   -0.833007

     negative rho (up, down):  5.871E-01 0.000E+00
 
     Adding external electric field

     Computed dipole along edir(3) : 
        Dipole               -0.2849 Ry au,         -0.7241 Debye
        Dipole field         -0.0004 Ry au
 
        Potential amp.        0.0405 Ry
        Total length         48.0849 bohr
 

     total cpu time spent up to now is     1526.6 secs

     Self-consistent Calculation

     iteration #  1     ecut=    36.75 Ry     beta=0.30
     Davidson diagonalization with overlap
     c_bands:  2 eigenvalues not converged
     c_bands:  1 eigenvalues not converged
     c_bands:  1 eigenvalues not converged
[...]
   -30.9614 -30.8696 -30.8570 -30.8055 -15.5424 -15.4992 -15.4749 -15.4248
   -15.4144 -15.3958 -15.3394 -15.2371 -15.2159 -15.2069 -15.1040 -15.0054
   -14.9097 -14.8759 -14.7994 -14.7625 -14.7398 -14.6988 -14.6953 -14.6778
   -14.6616 -14.6334 -14.5086 -14.4885 -14.4163 -14.4093 -14.3772 -14.3462
   -14.3326 -14.2979 -14.2851 -14.2680 -14.2527 -14.2223 -14.0824 -14.0255
   -10.1212  -4.4238  -1.7053  -0.6098  -0.3445   0.1121   0.4335   0.4668
     0.4864   0.6273   0.6747   0.7632   0.8439   0.9417   1.0325   1.0435
     1.0757   1.2588   1.3164   1.6761   1.9872   2.1266   2.2099   2.4233
     2.4892   2.6278   2.6702   2.7070   2.7969   2.9090   2.9556

          k = 0.0223 0.0129 0.0000 ( 32061 PWs)   bands (ev):

   -31.4994 -31.4095 -31.3848 -31.2710 -31.2619 -31.2591 -31.0920 -31.0401
   -30.9614 -30.8698 -30.8568 -30.8055 -15.5428 -15.4985 -15.4750 -15.4250
   -15.4147 -15.3957 -15.3392 -15.2369 -15.2149 -15.2076 -15.1041 -15.0054
   -14.9104 -14.8759 -14.7972 -14.7625 -14.7403 -14.6990 -14.6953 -14.6779
   -14.6621 -14.6334 -14.5096 -14.4887 -14.4163 -14.4110 -14.3771 -14.3450
   -14.3329 -14.2975 -14.2844 -14.2685 -14.2520 -14.2226 -14.0821 -14.0258
   -10.1212  -4.4238  -1.7049  -0.6096  -0.3440   0.1115   0.4349   0.4666
     0.4846   0.6277   0.6733   0.7650   0.8447   0.9412   1.0331   1.0479
     1.0710   1.2596   1.3154   1.6760   1.9875   2.1264   2.2096   2.4223
     2.4925   2.6261   2.6721   2.7059   2.7969   2.9105   2.9557

          k = 0.0223 0.0387 0.0000 ( 32007 PWs)   bands (ev):

   -31.4946 -31.4108 -31.3686 -31.2789 -31.2772 -31.2528 -31.0957 -31.0398
   -30.9481 -30.8806 -30.8572 -30.8087 -15.5014 -15.4149 -15.3925 -15.3731
   -15.3189 -15.3064 -15.2975 -15.1980 -15.1605 -15.1546 -15.0874 -15.0279
   -14.9552 -14.8976 -14.8537 -14.8293 -14.7570 -14.7382 -14.6921 -14.6608
   -14.6553 -14.6492 -14.6263 -14.5230 -14.4740 -14.4541 -14.3966 -14.3818
   -14.3427 -14.3245 -14.3133 -14.2559 -14.2514 -14.2361 -14.2009 -14.0593
   -10.1196  -4.4238  -1.6643  -0.3410  -0.1841   0.4285   0.6471   0.7060
     0.7762   0.7857   0.8260   0.9224   1.1079   1.1712   1.2280   1.2801
     1.3745   1.4151   1.5389   1.7523   1.9477   2.0478   2.1274   2.3282
     2.3603   2.4446   2.5394   2.5734   2.6143   2.7951   2.8323

          k = 0.0223-0.0902 0.0000 ( 31991 PWs)   bands (ev):

   -31.4896 -31.4124 -31.3403 -31.3067 -31.2827 -31.2484 -31.0996 -31.0395
   -30.9252 -30.8998 -30.8598 -30.8107 -15.4319 -15.3365 -15.2918 -15.2660
   -15.2390 -15.2219 -15.1726 -15.1325 -15.1008 -15.0955 -15.0592 -15.0432
   -14.9980 -14.9871 -14.9327 -14.9080 -14.8576 -14.8447 -14.7420 -14.6763
   -14.6301 -14.6190 -14.5831 -14.5514 -14.5282 -14.5226 -14.4880 -14.4192
   -14.3847 -14.3475 -14.3319 -14.3129 -14.2839 -14.2487 -14.1881 -14.1182
   -10.1181  -4.4239  -1.6272  -0.1228   0.2466   0.6694   0.8560   0.9490
     1.0329   1.0968   1.1377   1.2661   1.3778   1.4480   1.5118   1.5768
     1.6892   1.7209   1.8622   1.8925   1.9653   1.9909   2.0788   2.1574
     2.1895   2.2535   2.3206   2.4143   2.4317   2.4887   2.5752

          k = 0.0223-0.0644 0.0000 ( 31991 PWs)   bands (ev):

   -31.4896 -31.4124 -31.3403 -31.3067 -31.2826 -31.2484 -31.0995 -31.0395
   -30.9253 -30.8996 -30.8599 -30.8107 -15.4317 -15.3356 -15.2924 -15.2659
   -15.2395 -15.2219 -15.1733 -15.1327 -15.1007 -15.0959 -15.0591 -15.0429
   -14.9976 -14.9872 -14.9350 -14.9071 -14.8570 -14.8447 -14.7421 -14.6755
   -14.6297 -14.6183 -14.5825 -14.5511 -14.5277 -14.5227 -14.4878 -14.4206
   -14.3843 -14.3483 -14.3320 -14.3131 -14.2840 -14.2483 -14.1885 -14.1179
   -10.1181  -4.4239  -1.6275  -0.1233   0.2467   0.6695   0.8556   0.9504
     1.0336   1.0980   1.1392   1.2660   1.3722   1.4462   1.5119   1.5753
     1.6888   1.7229   1.8639   1.8926   1.9628   1.9921   2.0789   2.1552
     2.1908   2.2531   2.3191   2.4145   2.4325   2.4898   2.5778

          k = 0.0223-0.0387 0.0000 ( 32007 PWs)   bands (ev):

   -31.4946 -31.4109 -31.3686 -31.2791 -31.2770 -31.2528 -31.0957 -31.0398
   -30.9481 -30.8803 -30.8574 -30.8087 -15.5010 -15.4151 -15.3933 -15.3722
   -15.3186 -15.3064 -15.2980 -15.1987 -15.1619 -15.1541 -15.0871 -15.0276
   -14.9549 -14.8976 -14.8566 -14.8299 -14.7551 -14.7377 -14.6916 -14.6598
   -14.6552 -14.6494 -14.6264 -14.5211 -14.4713 -14.4541 -14.3973 -14.3825
   -14.3446 -14.3235 -14.3148 -14.2552 -14.2519 -14.2362 -14.2014 -14.0589
   -10.1197  -4.4238  -1.6650  -0.3421  -0.1841   0.4292   0.6468   0.7077
     0.7759   0.7870   0.8275   0.9212   1.1017   1.1728   1.2237   1.2805
     1.3787   1.4157   1.5375   1.7527   1.9479   2.0482   2.1279   2.3295
     2.3583   2.4374   2.5404   2.5732   2.6167   2.7975   2.8347

          k = 0.0446-0.0258 0.0000 ( 32002 PWs)   bands (ev):

   -31.4897 -31.4169 -31.3610 -31.2949 -31.2620 -31.2598 -31.0827 -31.0521
   -30.9424 -30.8813 -30.8621 -30.8086 -15.4654 -15.4058 -15.3481 -15.3336
   -15.3235 -15.2889 -15.2298 -15.1834 -15.1528 -15.1353 -15.0855 -15.0347
   -14.9517 -14.9346 -14.9078 -14.8048 -14.8017 -14.7252 -14.7150 -14.6982
   -14.6541 -14.6421 -14.5903 -14.5595 -14.4970 -14.4637 -14.4073 -14.3812
   -14.3548 -14.3403 -14.3213 -14.3097 -14.2659 -14.2456 -14.1849 -14.0668
   -10.1095  -4.4356  -1.5504  -0.2737  -0.1180   0.5442   0.6377   0.7034
     0.8240   0.8939   0.9510   1.0826   1.1455   1.2179   1.2807   1.4051
     1.4496   1.5263   1.6597   1.8229   1.9457   1.9803   2.1039   2.1780
     2.2691   2.4118   2.4606   2.5465   2.5901   2.6830   2.7730

          k = 0.0446 0.0000 0.0000 ( 32007 PWs)   bands (ev):

   -31.4916 -31.4161 -31.3685 -31.2808 -31.2751 -31.2530 -31.0810 -31.0528
   -30.9482 -30.8703 -30.8683 -30.8073 -15.4602 -15.4549 -15.3863 -15.3693
   -15.3246 -15.3052 -15.2943 -15.1942 -15.1720 -15.1501 -15.0920 -15.0256
   -14.9477 -14.9093 -14.8964 -14.8299 -14.7402 -14.7195 -14.6743 -14.6560
   -14.6520 -14.6332 -14.6167 -14.5451 -14.5011 -14.4550 -14.3987 -14.3828
   -14.3441 -14.3251 -14.3061 -14.2594 -14.2481 -14.2361 -14.2002 -14.0600
   -10.1100  -4.4356  -1.5638  -0.2913  -0.2675   0.4266   0.6568   0.6715
     0.7754   0.7963   0.8466   0.8646   1.0510   1.1770   1.2385   1.2461
     1.3334   1.4000   1.5983   1.7596   1.9621   2.0551   2.1338   2.2159
     2.3254   2.4533   2.5097   2.5501   2.6165   2.7725   2.8175

          k = 0.0446 0.0258 0.0000 ( 32002 PWs)   bands (ev):

   -31.4899 -31.4167 -31.3610 -31.2949 -31.2621 -31.2597 -31.0828 -31.0521
   -30.9423 -30.8819 -30.8615 -30.8086 -15.4650 -15.4075 -15.3469 -15.3338
   -15.3240 -15.2889 -15.2292 -15.1823 -15.1519 -15.1344 -15.0860 -15.0351
   -14.9500 -14.9344 -14.9068 -14.8046 -14.8017 -14.7286 -14.7158 -14.6985
   -14.6562 -14.6416 -14.5904 -14.5606 -14.4980 -14.4636 -14.4068 -14.3799
   -14.3554 -14.3400 -14.3223 -14.3075 -14.2658 -14.2451 -14.1848 -14.0671
   -10.1094  -4.4356  -1.5493  -0.2706  -0.1195   0.5426   0.6374   0.7034
     0.8209   0.8935   0.9539   1.0841   1.1460   1.2170   1.2841   1.4060
     1.4495   1.5245   1.6584   1.8231   1.9466   1.9810   2.1033   2.1770
     2.2719   2.4102   2.4638   2.5481   2.5881   2.6822   2.7734

          k = 0.0446-0.1031 0.0000 ( 31991 PWs)   bands (ev):

   -31.4863 -31.4180 -31.3402 -31.3071 -31.2823 -31.2485 -31.0865 -31.0508
   -30.9272 -30.8931 -30.8655 -30.8093 -15.4197 -15.3323 -15.2857 -15.2511
   -15.2481 -15.2231 -15.1760 -15.1363 -15.1052 -15.0950 -15.0658 -15.0449
   -15.0201 -14.9869 -14.9618 -14.9145 -14.8451 -14.7929 -14.7337 -14.6803
   -14.6429 -14.6154 -14.5796 -14.5701 -14.5268 -14.5141 -14.4791 -14.4367
   -14.3924 -14.3406 -14.3268 -14.3106 -14.2922 -14.2424 -14.1921 -14.1181
   -10.1084  -4.4356  -1.5232  -0.1750   0.2545   0.6893   0.8656   0.9340
     1.0117   1.0940   1.1340   1.2817   1.3391   1.4284   1.4846   1.5556
     1.6548   1.7288   1.8302   1.8981   1.9390   1.9882   2.0583   2.1113
     2.1731   2.2403   2.2908   2.3577   2.4274   2.5160   2.5726

          k = 0.0446-0.0773 0.0000 ( 31986 PWs)   bands (ev):

   -31.4844 -31.4187 -31.3143 -31.3120 -31.3080 -31.2440 -31.0883 -31.0501
   -30.9146 -30.8998 -30.8721 -30.8088 -15.3701 -15.2903 -15.2228 -15.2188
   -15.1884 -15.1713 -15.1607 -15.1435 -15.1018 -15.0751 -15.0440 -15.0265
   -15.0164 -15.0149 -15.0106 -14.9942 -14.9512 -14.8413 -14.6641 -14.6484
   -14.6363 -14.6149 -14.6092 -14.5621 -14.5457 -14.5414 -14.5026 -14.4787
   -14.4511 -14.3451 -14.3167 -14.3079 -14.2552 -14.2195 -14.2037 -14.1987
   -10.1080  -4.4355  -1.5116  -0.1113   0.7150   0.7422   0.7709   1.1593
     1.1939   1.2312   1.3123   1.3711   1.5537   1.6045   1.6575   1.6668
     1.6848   1.7481   1.7645   1.8244   1.8459   1.9183   1.9272   2.0316
     2.1488   2.2099   2.2657   2.2779   2.3080   2.3493   2.3761

          k = 0.0446-0.0515 0.0000 ( 31991 PWs)   bands (ev):

   -31.4861 -31.4182 -31.3402 -31.3071 -31.2823 -31.2485 -31.0864 -31.0508
   -30.9274 -30.8924 -30.8660 -30.8093 -15.4196 -15.3305 -15.2858 -15.2521
   -15.2476 -15.2239 -15.1771 -15.1370 -15.1067 -15.0953 -15.0658 -15.0450
   -15.0225 -14.9868 -14.9622 -14.9135 -14.8452 -14.7906 -14.7334 -14.6793
   -14.6404 -14.6155 -14.5788 -14.5679 -14.5268 -14.5143 -14.4799 -14.4381
   -14.3932 -14.3419 -14.3255 -14.3118 -14.2920 -14.2428 -14.1924 -14.1176
   -10.1085  -4.4355  -1.5243  -0.1770   0.2549   0.6900   0.8671   0.9347
     1.0135   1.0961   1.1348   1.2771   1.3385   1.4290   1.4831   1.5502
     1.6514   1.7304   1.8328   1.8989   1.9366   1.9855   2.0614   2.1045
     2.1776   2.2375   2.2939   2.3575   2.4275   2.5180   2.5741

          k =-0.0669 0.0387 0.0000 ( 31970 PWs)   bands (ev):

   -31.4841 -31.4214 -31.3289 -31.3273 -31.2620 -31.2599 -31.0727 -31.0636
   -30.9257 -30.8962 -30.8630 -30.8099 -15.4138 -15.3558 -15.2815 -15.2712
   -15.2413 -15.2078 -15.1746 -15.1310 -15.1148 -15.0936 -15.0493 -15.0432
   -14.9748 -14.9701 -14.9470 -14.9288 -14.8651 -14.8572 -14.7325 -14.6781
   -14.6688 -14.6153 -14.5293 -14.5273 -14.5171 -14.5043 -14.4914 -14.4555
   -14.4217 -14.3804 -14.3381 -14.3151 -14.3078 -14.2441 -14.1444 -14.1087
   -10.1037  -4.4413  -1.4707  -0.2028   0.3704   0.4150   0.8277   0.8658
     1.0883   1.1408   1.1984   1.2086   1.2372   1.3464   1.5798   1.6076
     1.7216   1.7915   1.8211   1.9064   2.0450   2.0849   2.1052   2.1513
     2.1686   2.2192   2.3039   2.3839   2.4437   2.5325   2.5602

          k =-0.0669 0.0644 0.0000 ( 31991 PWs)   bands (ev):

   -31.4842 -31.4212 -31.3402 -31.3073 -31.2821 -31.2486 -31.0733 -31.0630
   -30.9280 -30.8883 -30.8699 -30.8087 -15.3934 -15.3594 -15.2838 -15.2570
   -15.2442 -15.2130 -15.1612 -15.1404 -15.1147 -15.0980 -15.0697 -15.0409
   -15.0356 -14.9874 -14.9810 -14.9173 -14.8450 -14.7498 -14.7212 -14.6720
   -14.6580 -14.6109 -14.5857 -14.5699 -14.5304 -14.5142 -14.5060 -14.4326
   -14.3885 -14.3434 -14.3253 -14.3071 -14.2917 -14.2431 -14.1909 -14.1185
   -10.1037  -4.4413  -1.4709  -0.1804   0.2412   0.6868   0.8771   0.9308
     1.0062   1.0881   1.1219   1.2686   1.3410   1.3993   1.4719   1.5732
     1.6680   1.7233   1.7920   1.8690   1.9346   1.9756   2.0280   2.0636
     2.1881   2.2363   2.3035   2.3232   2.4649   2.5133   2.5669

          k =-0.0669 0.0902 0.0000 ( 31991 PWs)   bands (ev):

   -31.4843 -31.4211 -31.3402 -31.3072 -31.2821 -31.2486 -31.0733 -31.0630
   -30.9278 -30.8889 -30.8694 -30.8087 -15.3927 -15.3610 -15.2838 -15.2560
   -15.2451 -15.2134 -15.1606 -15.1398 -15.1134 -15.0969 -15.0692 -15.0398
   -15.0358 -14.9871 -14.9815 -14.9182 -14.8450 -14.7508 -14.7232 -14.6713
   -14.6590 -14.6115 -14.5873 -14.5705 -14.5302 -14.5134 -14.5051 -14.4322
   -14.3880 -14.3427 -14.3267 -14.3054 -14.2922 -14.2426 -14.1908 -14.1188
   -10.1037  -4.4413  -1.4701  -0.1788   0.2405   0.6866   0.8758   0.9313
     1.0052   1.0850   1.1227   1.2720   1.3411   1.3994   1.4743   1.5710
     1.6663   1.7257   1.7902   1.8697   1.9335   1.9803   2.0340   2.0666
     2.1842   2.2323   2.3039   2.3225   2.4625   2.5116   2.5685

          k =-0.0669-0.0387 0.0000 ( 31970 PWs)   bands (ev):

   -31.4843 -31.4211 -31.3290 -31.3272 -31.2622 -31.2598 -31.0728 -31.0636
   -30.9254 -30.8971 -30.8625 -30.8099 -15.4135 -15.3574 -15.2815 -15.2716
   -15.2411 -15.2075 -15.1762 -15.1306 -15.1110 -15.0913 -15.0458 -15.0407
   -14.9757 -14.9723 -14.9477 -14.9293 -14.8651 -14.8572 -14.7390 -14.6805
   -14.6666 -14.6189 -14.5293 -14.5271 -14.5170 -14.5041 -14.4924 -14.4536
   -14.4190 -14.3817 -14.3378 -14.3159 -14.3056 -14.2440 -14.1437 -14.1095
   -10.1036  -4.4414  -1.4691  -0.2000   0.3702   0.4138   0.8250   0.8663
     1.0828   1.1407   1.2028   1.2084   1.2407   1.3428   1.5774   1.6114
     1.7262   1.7907   1.8201   1.9141   2.0436   2.0904   2.1099   2.1552
     2.1708   2.2130   2.2998   2.3793   2.4353   2.5322   2.5618

     the Fermi energy is     1.9635 ev

!    total energy              =   -1262.21618795 Ry
     Harris-Foulkes estimate   =   -1262.21618793 Ry
     estimated scf accuracy    <       0.00000001 Ry

     The total energy is the sum of the following terms:

     one-electron contribution =   -4753.96243636 Ry
     hartree contribution      =    2390.72205392 Ry
     xc contribution           =    -613.80002552 Ry
     ewald contribution        =    1714.94622815 Ry
     electric field correction =       0.00000039 Ry
     smearing contrib. (-TS)   =      -0.12200853 Ry

     convergence has been achieved in  11 iterations
 
 BEEF-vdW xc energy contributions
           1 :   -543.699536377598     
           2 :    500.109630530484     
           3 :   -423.028492876757     
           4 :    328.896268131777     
           5 :   -235.165909923434     
           6 :    155.658387905547     
           7 :   -97.9484510627487     
           8 :    63.0601521286534     
           9 :   -46.9672658569604     
          10 :    42.9821498577219     
          11 :   -44.1188096263332     
          12 :    44.7791466175618     
          13 :   -41.5501864097373     
          14 :    33.2763691684817     
          15 :   -20.7243997730850     
          16 :    6.05469675658037     
          17 :    7.84397365097038     
          18 :   -18.1556069340008     
          19 :    22.9694793241554     
          20 :   -21.9095209888092     
          21 :    16.2943446540901     
          22 :   -8.70084277668934     
          23 :    2.04527092493061     
          24 :    1.46786719401007     
          25 :   -1.09285167916823     
          26 :   -2.33081014403410     
          27 :    6.90176728755125     
          28 :   -10.5623375726520     
          29 :    11.9585835326985     
          30 :   -10.8887874723080     
          31 :   -46.3705547982304     
          32 :   -33.2899723554782     

     Forces acting on atoms (Ry/au):


     negative rho (up, down):  5.841E-01 0.000E+00
     atom    1 type  1   force =    -0.00000984    0.00022718    0.00389532
     atom    2 type  1   force =     0.00000621   -0.00188364    0.00472675
     atom    3 type  1   force =    -0.00121862    0.00038724    0.00483139
     atom    4 type  1   force =     0.00115428    0.00043061    0.00487793
     atom    5 type  1   force =    -0.00190709    0.00205548   -0.00011935
     atom    6 type  1   force =     0.00165451    0.00263096   -0.00048793
     atom    7 type  1   force =    -0.00017431   -0.00338927   -0.00525364
     atom    8 type  1   force =    -0.00027988    0.00016321   -0.00789738
     atom    9 type  1   force =    -0.00046327    0.00001939   -0.00030276
     atom   10 type  1   force =     0.00070566   -0.00115151    0.00038114
     atom   11 type  1   force =     0.00026486    0.00170890    0.00016849
     atom   12 type  1   force =    -0.00018921   -0.00150590   -0.00044162
     atom   13 type  2   force =     0.00077740    0.00001147   -0.00147427
     atom   14 type  3   force =    -0.00117044    0.00009664   -0.00135059
     atom   15 type  3   force =     0.00084974    0.00019924   -0.00155349

     Total force =     0.004117     Total SCF correction =     0.000121


     entering subroutine stress ...


     negative rho (up, down):  5.841E-01 0.000E+00
          total   stress  (Ry/bohr**3)                   (kbar)     P=   -1.45
  -0.00000148   0.00000017   0.00000071         -0.22      0.02      0.10
   0.00000017  -0.00000962   0.00000029          0.02     -1.41      0.04
   0.00000071   0.00000029  -0.00001850          0.10      0.04     -2.72


     bfgs converged in  23 scf cycles and  22 bfgs steps
     (criteria: energy <  1.0E+00, force <  1.9E-03)

     End of BFGS Geometry Optimization

     Final energy   =   -1262.2161879482 Ry
Begin final coordinates

ATOMIC_POSITIONS (crystal)
La1      0.166666667   0.166666667   0.383173129    0   0   0
La1      0.666666667   0.166666667   0.383173129    0   0   0
La1      0.166666667   0.666666667   0.383173129    0   0   0
La1      0.666666667   0.666666667   0.383173129    0   0   0
La1      0.833333333   0.333333333   0.500000000    0   0   0
La1      0.333333333   0.333333333   0.500000000    0   0   0
La1      0.833333333   0.833333333   0.500000000    0   0   0
La1      0.333333333   0.833333333   0.500000000    0   0   0
La1      0.005276869  -0.003096253   0.617460667
La1      0.491839874  -0.000740247   0.617087555
La1      0.014363818   0.466594870   0.622091834
La1      0.479060882   0.539768864   0.622200043
C1       0.249454991  -0.003198359   0.681202052
H1       0.364979286   0.000116783   0.707507577
H1       0.132379055   0.998560224   0.707863298
End final coordinates



     Writing output data file calc.save
 
     init_run     :     21.94s CPU     29.23s WALL (       1 calls)
     electrons    :  10439.94s CPU  13025.02s WALL (      23 calls)
     update_pot   :     51.44s CPU     59.12s WALL (      22 calls)
     forces       :    430.67s CPU    452.64s WALL (      23 calls)
     stress       :   1363.22s CPU   1431.28s WALL (      23 calls)

     Called by init_run:
     wfcinit      :     15.71s CPU     21.89s WALL (       1 calls)
     potinit      :      1.28s CPU      1.64s WALL (       1 calls)

     Called by electrons:
     c_bands      :   6750.56s CPU   8546.77s WALL (     291 calls)
     sum_band     :   1735.37s CPU   2061.22s WALL (     291 calls)
     v_of_rho     :    262.22s CPU    347.17s WALL (     314 calls)
     newd         :   1193.13s CPU   1379.80s WALL (     314 calls)
     mix_rho      :      8.95s CPU     11.69s WALL (     291 calls)
     vdW_energy   :    175.64s CPU    225.11s WALL (    1142 calls)
     vdW_ffts     :    326.78s CPU    440.98s WALL (    2330 calls)
     vdW_v        :    120.99s CPU    143.93s WALL (    1142 calls)

     Called by c_bands:
     init_us_2    :     59.32s CPU     69.35s WALL (   12580 calls)
     cegterg      :   6091.78s CPU   7867.97s WALL (    5820 calls)

     Called by *egterg:
     h_psi        :   3719.89s CPU   5275.14s WALL (   51565 calls)
     s_psi        :    397.54s CPU    411.98s WALL (   51565 calls)
     g_psi        :     25.16s CPU     25.76s WALL (   45725 calls)
     cdiaghg      :    970.10s CPU    991.59s WALL (   51105 calls)

     Called by h_psi:
     add_vuspsi   :    398.18s CPU    412.80s WALL (   51565 calls)

     General routines
     calbec       :    511.24s CPU    522.90s WALL (   58305 calls)
     fft          :    534.60s CPU    704.56s WALL (   69115 calls)
     ffts         :      0.73s CPU      1.10s WALL (     605 calls)
     fftw         :   2335.77s CPU   4127.69s WALL ( 3273732 calls)
     interpolate  :      5.25s CPU      8.78s WALL (     605 calls)
     davcio       :      0.02s CPU      0.47s WALL (      20 calls)
 
     Parallel routines
     fft_scatter  :   1674.03s CPU   2806.88s WALL ( 3343452 calls)
 
     PWSCF        :     3h26m CPU        4h11m WALL

 
   This run was terminated on:   2:39:17  19Apr2018            

=------------------------------------------------------------------------------=
   JOB DONE.
=------------------------------------------------------------------------------=
