  python dir          : /nfs/slac/g/suncatfs/sw/espv20/lib/python2.7/site-packages/espresso
  espresso dir        : /nfs/slac/g/suncatfs/sw/espv18/espresso-dynpy-beef/bin
  pseudo dir          : /afs/slac.stanford.edu/u/if/mamunm/psp/gbrv1.5pbe
  ase-espresso py git : ffa2778-git



     Program PWSCF v.5.1rc2 (svn rev. 11289) starts on 17Jan2018 at  0: 7:31 

     This program is part of the open-source Quantum ESPRESSO suite
     for quantum simulation of materials; please cite
         "P. Giannozzi et al., J. Phys.:Condens. Matter 21 395502 (2009);
          URL http://www.quantum-espresso.org", 
     in publications or presentations arising from this work. More details at
     http://www.quantum-espresso.org/quote

     Parallel version (MPI), running on    32 processors
     R & G space division:  proc/nbgrp/npool/nimage =      32
     Reading input from pw.inp
     Message from routine read_cards :
     DEPRECATED: no units specified in CELL_PARAMETERS card

     Current dimensions of program PWSCF are:
     Max number of different atomic species (ntypx) = 10
     Max number of k-points (npk) =  40000
     Max angular momentum in pseudopotentials (lmaxx) =  3
     Presently stress not available with electric field


     **************************************************************************
     Initializing libbeef V0.1.1 with the BEEF-vdW functional.
     Citation: Wellendorff et al., PRB 85, 235149 (2012).
     **************************************************************************


     IMPORTANT: XC functional enforced from input :
     Exchange-correlation      = BEEF-VDW ( 1  4 27 13 2)
     Any further DFT definition will be discarded
     Please, verify this is what you really want


     Subspace diagonalization in iterative solution of the eigenvalue problem:
     a serial algorithm will be used

 
     Parallelization info
     --------------------
     sticks:   dense  smooth     PW     G-vecs:    dense   smooth      PW
     Min         134      54     15                26644     6724    1019
     Max         135      55     16                26659     6775    1034
     Sum        4315    1735    499               852865   215821   32865
 


     bravais-lattice index     =            0
     lattice parameter (alat)  =       1.8897  a.u.
     unit-cell volume          =    7171.5276 (a.u.)^3
     number of atoms/cell      =           13
     number of atomic types    =            2
     number of electrons       =       169.00
     number of Kohn-Sham states=           94
     kinetic-energy cutoff     =      36.7493  Ry
     charge density cutoff     =     367.4932  Ry
     convergence threshold     =      1.0E-05
     mixing beta               =       0.3000
     number of iterations used =           10  plain     mixing
     Exchange-correlation      = BEEF-VDW ( 1  4 27 13 2)
     nstep                     =           50


     celldm(1)=   1.889726  celldm(2)=   0.000000  celldm(3)=   0.000000
     celldm(4)=   0.000000  celldm(5)=   0.000000  celldm(6)=   0.000000

     crystal axes: (cart. coord. in units of alat)
               a(1) = (   6.917003   0.000000   0.000000 )  
               a(2) = (   3.458501   5.990300   0.000000 )  
               a(3) = (   0.000000   0.000000  25.647709 )  

     reciprocal axes: (cart. coord. in units 2 pi/alat)
               b(1) = (  0.144571 -0.083468  0.000000 )  
               b(2) = (  0.000000  0.166937  0.000000 )  
               b(3) = (  0.000000  0.000000  0.038990 )  


     PseudoPot. # 1 for Pb read from file:
     /afs/slac.stanford.edu/u/if/mamunm/psp/gbrv1.5pbe/Pb.UPF
     MD5 check sum: 3d1c1779aa92214d1e8f3a7db79003e2
     Pseudo is Ultrasoft + core correction, Zval = 14.0
     Generated by new atomic code, or converted to UPF format
     Using radial grid of  899 points,  6 beta functions with: 
                l(1) =   0
                l(2) =   0
                l(3) =   1
                l(4) =   1
                l(5) =   2
                l(6) =   2
     Q(r) pseudized with  6 coefficients,  rinner =    1.000   1.000   1.000
                                                       1.000   1.000

     PseudoPot. # 2 for H  read from file:
     /afs/slac.stanford.edu/u/if/mamunm/psp/gbrv1.5pbe/H.UPF
     MD5 check sum: 761ae9a214b05c3daf00ab9f6b793d6f
     Pseudo is Ultrasoft, Zval =  1.0
     Generated by new atomic code, or converted to UPF format
     Using radial grid of  615 points,  2 beta functions with: 
                l(1) =   0
                l(2) =   0
     Q(r) pseudized with  8 coefficients,  rinner =    0.700

     vdW kernel table read from file vdW_kernel_table
     MD5 check sum: 095c7af220d748ca6e76c0b4c6cfb241

     atomic species   valence    mass     pseudopotential
        Pb1           14.00   207.20000     Pb( 1.00)
        H1             1.00     1.00800     H ( 1.00)

     No symmetry found



   Cartesian axes

     site n.     atom                  positions (alat units)
         1           Pb1 tau(   1) = (   1.7292506   0.9983833  10.0000000  )
         2           Pb1 tau(   2) = (   5.1877519   0.9983833  10.0000000  )
         3           Pb1 tau(   3) = (   3.4585013   3.9935333  10.0000000  )
         4           Pb1 tau(   4) = (   6.9170025   3.9935333  10.0000000  )
         5           Pb1 tau(   5) = (   6.9170025   1.9967666  12.8238544  )
         6           Pb1 tau(   6) = (   3.4585013   1.9967666  12.8238544  )
         7           Pb1 tau(   7) = (   8.6462531   4.9919166  12.8238544  )
         8           Pb1 tau(   8) = (   5.1877519   4.9919166  12.8238544  )
         9           Pb1 tau(   9) = (   0.0000000   0.0000000  15.6477089  )
        10           Pb1 tau(  10) = (   3.4585013   0.0000000  15.6477089  )
        11           Pb1 tau(  11) = (   1.7292506   2.9951499  15.6477089  )
        12           Pb1 tau(  12) = (   5.1877519   2.9951499  15.6477089  )
        13           H1  tau(  13) = (   3.4585013   1.9967666  17.4177089  )

     number of k points=    20  Fermi-Dirac smearing, width (Ry)=  0.0110
                       cart. coord. in units 2pi/alat
        k(    1) = (   0.0000000   0.0000000   0.0000000), wk =   0.0555556
        k(    2) = (   0.0000000   0.0278228   0.0000000), wk =   0.1111111
        k(    3) = (   0.0000000   0.0556455   0.0000000), wk =   0.1111111
        k(    4) = (   0.0000000  -0.0834683   0.0000000), wk =   0.0555556
        k(    5) = (   0.0240952  -0.0139114   0.0000000), wk =   0.1111111
        k(    6) = (   0.0240952   0.0139114   0.0000000), wk =   0.1111111
        k(    7) = (   0.0240952   0.0417341   0.0000000), wk =   0.1111111
        k(    8) = (   0.0240952  -0.0973797   0.0000000), wk =   0.1111111
        k(    9) = (   0.0240952  -0.0695569   0.0000000), wk =   0.1111111
        k(   10) = (   0.0240952  -0.0417341   0.0000000), wk =   0.1111111
        k(   11) = (   0.0481904  -0.0278228   0.0000000), wk =   0.1111111
        k(   12) = (   0.0481904   0.0000000   0.0000000), wk =   0.1111111
        k(   13) = (   0.0481904   0.0278228   0.0000000), wk =   0.1111111
        k(   14) = (   0.0481904  -0.1112910   0.0000000), wk =   0.1111111
        k(   15) = (   0.0481904  -0.0834683   0.0000000), wk =   0.1111111
        k(   16) = (   0.0481904  -0.0556455   0.0000000), wk =   0.1111111
        k(   17) = (  -0.0722856   0.0417341   0.0000000), wk =   0.0555556
        k(   18) = (  -0.0722856   0.0695569   0.0000000), wk =   0.1111111
        k(   19) = (  -0.0722856   0.0973797   0.0000000), wk =   0.1111111
        k(   20) = (  -0.0722856  -0.0417341   0.0000000), wk =   0.0555556

     Dense  grid:   852865 G-vectors     FFT dimensions: (  80,  80, 300)

     Smooth grid:   215821 G-vectors     FFT dimensions: (  54,  54, 192)

     Largest allocated arrays     est. size (Mb)     dimensions
        Kohn-Sham Wavefunctions         1.23 Mb     (     858,   94)
        NL pseudopotentials             2.85 Mb     (     858,  218)
        Each V/rho on FFT grid          0.98 Mb     (   64000)
        Each G-vector array             0.20 Mb     (   26644)
        G-vector shells                 0.09 Mb     (   12051)
     Largest temporary arrays     est. size (Mb)     dimensions
        Auxiliary wavefunctions         4.92 Mb     (     858,  376)
        Each subspace H/S matrix        2.16 Mb     (     376,  376)
        Each <psi_i|beta_j> matrix      0.31 Mb     (     218,   94)
        Arrays for rho mixing           9.77 Mb     (   64000,   10)

     Check: negative/imaginary core charge=   -0.000001    0.000000

     Initial potential from superposition of free atoms
     Check: negative starting charge=   -0.198286

     starting charge  168.97177, renormalised to  169.00000

     negative rho (up, down):  1.983E-01 0.000E+00


     ************************************************************************
     *
     * You are using vdW-DF for exchange-correlation in this calculation.
     * Please cite the following three references that made this development
     * possible:
     *
     *   M. Dion, H. Rydberg, E. Schroder, D. C. Langreth, and
     *   B. I. Lundqvist, Phys. Rev. Lett. 92, 246401 (2004).
     *
     *   T. Thonhauser, V. R. Cooper, S. Li, A. Puzder, P. Hyldgaard, and
     *   D. C. Langreth, Phys. Rev. B 76, 125112 (2007).
     *
     *   G. Roman-Perez and J. M. Soler, Phys. Rev. Lett. 103, 096102 (2009).
     *
     *
     * If you are using vdW-DF2, please also cite:
     *
     *   K. Lee, E. D. Murray, L. Kong, B. I. Lundqvist, and
     *   D. C. Langreth, Phys. Rev. B 82, 081101(R) (2010).
     *
     *
     * If you are calculating the stress with vdW-DF, please also cite:
     *
     *   R. Sabatini, E. Kucukbenli, B. Kolb, T. Thonhauser, and
     *   S. de Gironcoli, J. Phys.: Condens. Matter 24, 424209 (2012).
     *
     ************************************************************************

     Carrying out vdW-DF run using the following parameters:

     Nqs =      20    Nr_points =    1024   r_max =   100.000
     q_mesh =
               0.00001000     0.04494208     0.09755937     0.15916263
               0.23128650     0.31572767     0.41458969     0.53033537
               0.66584808     0.82450364     1.01025438     1.22772762
               1.48234092     1.78043706     2.12944203     2.53805004
               3.01644009     3.57652955     4.23227104     5.00000000

     Gradients computed in reciprocal space

     ************************************************************************


 
     Adding external electric field

     Computed dipole along edir(3) : 
        Dipole               -0.0014 Ry au,         -0.0035 Debye
        Dipole field         -0.0000 Ry au
 
        Potential amp.        0.0002 Ry
        Total length         47.2555 bohr
 
     Starting wfc are  109 randomized atomic wfcs

     total cpu time spent up to now is       22.0 secs

     per-process dynamical memory:    60.5 Mb

     Self-consistent Calculation

     iteration #  1     ecut=    36.75 Ry     beta=0.30
     Davidson diagonalization with overlap
     ethr =  1.00E-02,  avg # of iterations =  2.0

     Threshold (ethr) on eigenvalues was too large:
     Diagonalizing with lowered threshold

     Davidson diagonalization with overlap
     ethr =  1.66E-04,  avg # of iterations =  2.4

     negative rho (up, down):  2.000E-01 0.000E+00
 
     Adding external electric field

     Computed dipole along edir(3) : 
        Dipole               -1.3376 Ry au,         -3.3999 Debye
        Dipole field         -0.0023 Ry au
 
        Potential amp.        0.2215 Ry
        Total length         47.2555 bohr
 

     total cpu time spent up to now is      107.4 secs

     total energy              =   -1993.25612674 Ry
     Harris-Foulkes estimate   =   -1993.37116030 Ry
     estimated scf accuracy    <       0.29951003 Ry

     iteration #  2     ecut=    36.75 Ry     beta=0.30
     Davidson diagonalization with overlap
     ethr =  1.77E-04,  avg # of iterations =  4.7

     negative rho (up, down):  1.993E-01 0.000E+00
 
     Adding external electric field

     Computed dipole along edir(3) : 
        Dipole               -0.0682 Ry au,         -0.1734 Debye
        Dipole field         -0.0001 Ry au
 
        Potential amp.        0.0113 Ry
        Total length         47.2555 bohr
 

     total cpu time spent up to now is      159.7 secs

     total energy              =   -1993.05745839 Ry
     Harris-Foulkes estimate   =   -1993.50923971 Ry
     estimated scf accuracy    <       5.79680549 Ry

     iteration #  3     ecut=    36.75 Ry     beta=0.30
     Davidson diagonalization with overlap
     ethr =  1.77E-04,  avg # of iterations =  4.5

     negative rho (up, down):  2.005E-01 0.000E+00
 
     Adding external electric field

     Computed dipole along edir(3) : 
        Dipole               -0.3163 Ry au,         -0.8039 Debye
        Dipole field         -0.0006 Ry au
 
        Potential amp.        0.0524 Ry
        Total length         47.2555 bohr
 

     total cpu time spent up to now is      210.8 secs

     total energy              =   -1993.30502588 Ry
     Harris-Foulkes estimate   =   -1993.34604702 Ry
     estimated scf accuracy    <       0.51475975 Ry

     iteration #  4     ecut=    36.75 Ry     beta=0.30
     Davidson diagonalization with overlap
     ethr =  1.77E-04,  avg # of iterations =  2.7

     negative rho (up, down):  2.019E-01 0.000E+00
 
     Adding external electric field

     Computed dipole along edir(3) : 
        Dipole               -0.2942 Ry au,         -0.7478 Debye
        Dipole field         -0.0005 Ry au
 
        Potential amp.        0.0487 Ry
        Total length         47.2555 bohr
 

     total cpu time spent up to now is      256.5 secs

     total energy              =   -1993.32358396 Ry
     Harris-Foulkes estimate   =   -1993.33161125 Ry
     estimated scf accuracy    <       0.03943141 Ry

     iteration #  5     ecut=    36.75 Ry     beta=0.30
     Davidson diagonalization with overlap
     ethr =  2.33E-05,  avg # of iterations =  3.5

     negative rho (up, down):  2.048E-01 0.000E+00
 
     Adding external electric field

     Computed dipole along edir(3) : 
        Dipole               -0.3112 Ry au,         -0.7909 Debye
        Dipole field         -0.0005 Ry au
 
        Potential amp.        0.0515 Ry
        Total length         47.2555 bohr
 

     total cpu time spent up to now is      303.9 secs

     total energy              =   -1993.32812521 Ry
     Harris-Foulkes estimate   =   -1993.32821479 Ry
     estimated scf accuracy    <       0.00299941 Ry

     iteration #  6     ecut=    36.75 Ry     beta=0.30
     Davidson diagonalization with overlap
     ethr =  1.77E-06,  avg # of iterations =  5.3

     negative rho (up, down):  2.088E-01 0.000E+00
 
     Adding external electric field

     Computed dipole along edir(3) : 
        Dipole               -0.3026 Ry au,         -0.7692 Debye
        Dipole field         -0.0005 Ry au
 
        Potential amp.        0.0501 Ry
        Total length         47.2555 bohr
 

     total cpu time spent up to now is      369.0 secs

     total energy              =   -1993.33037427 Ry
     Harris-Foulkes estimate   =   -1993.33036376 Ry
     estimated scf accuracy    <       0.00081785 Ry

     iteration #  7     ecut=    36.75 Ry     beta=0.30
     Davidson diagonalization with overlap
     ethr =  4.84E-07,  avg # of iterations =  2.1

     negative rho (up, down):  2.139E-01 0.000E+00
 
     Adding external electric field

     Computed dipole along edir(3) : 
        Dipole               -0.3048 Ry au,         -0.7748 Debye
        Dipole field         -0.0005 Ry au
 
        Potential amp.        0.0505 Ry
        Total length         47.2555 bohr
 

     total cpu time spent up to now is      411.9 secs

     total energy              =   -1993.33044168 Ry
     Harris-Foulkes estimate   =   -1993.33042161 Ry
     estimated scf accuracy    <       0.00024224 Ry

     iteration #  8     ecut=    36.75 Ry     beta=0.30
     Davidson diagonalization with overlap
     ethr =  1.43E-07,  avg # of iterations =  3.0

     negative rho (up, down):  2.146E-01 0.000E+00
 
     Adding external electric field

     Computed dipole along edir(3) : 
        Dipole               -0.3041 Ry au,         -0.7730 Debye
        Dipole field         -0.0005 Ry au
 
        Potential amp.        0.0504 Ry
        Total length         47.2555 bohr
 

     total cpu time spent up to now is      461.9 secs

     total energy              =   -1993.33045522 Ry
     Harris-Foulkes estimate   =   -1993.33047981 Ry
     estimated scf accuracy    <       0.00002289 Ry

     iteration #  9     ecut=    36.75 Ry     beta=0.30
     Davidson diagonalization with overlap
     ethr =  1.35E-08,  avg # of iterations =  5.0

     negative rho (up, down):  2.144E-01 0.000E+00

     negative rho (up, down):  2.144E-01 0.000E+00

     negative rho (up, down):  2.144E-01 0.000E+00

     negative rho (up, down):  2.144E-01 0.000E+00

     negative rho (up, down):  2.144E-01 0.000E+00

     negative rho (up, down):  2.144E-01 0.000E+00

     negative rho (up, down):  2.144E-01 0.000E+00

     negative rho (up, down):  2.144E-01 0.000E+00

     negative rho (up, down):  2.144E-01 0.000E+00

     negative rho (up, down):  2.144E-01 0.000E+00

     negative rho (up, down):  2.144E-01 0.000E+00

     negative rho (up, down):  2.144E-01 0.000E+00

     negative rho (up, down):  2.144E-01 0.000E+00

     negative rho (up, down):  2.144E-01 0.000E+00

     negative rho (up, down):  2.144E-01 0.000E+00

     negative rho (up, down):  2.144E-01 0.000E+00

     negative rho (up, down):  2.144E-01 0.000E+00

     negative rho (up, down):  2.144E-01 0.000E+00

     negative rho (up, down):  2.144E-01 0.000E+00

     negative rho (up, down):  2.144E-01 0.000E+00

     negative rho (up, down):  2.144E-01 0.000E+00

     negative rho (up, down):  2.144E-01 0.000E+00

     negative rho (up, down):  2.144E-01 0.000E+00

     negative rho (up, down):  2.144E-01 0.000E+00

     negative rho (up, down):  2.144E-01 0.000E+00

     negative rho (up, down):  2.144E-01 0.000E+00

     negative rho (up, down):  2.144E-01 0.000E+00

     negative rho (up, down):  2.144E-01 0.000E+00

     negative rho (up, down):  2.144E-01 0.000E+00

     negative rho (up, down):  2.144E-01 0.000E+00

     negative rho (up, down):  2.144E-01 0.000E+00

     negative rho (up, down):  2.144E-01 0.000E+00

     negative rho (up, down):  2.144E-01 0.000E+00

     negative rho (up, down):  2.144E-01 0.000E+00

     negative rho (up, down):  2.144E-01 0.000E+00
 
     Adding external electric field

     Computed dipole along edir(3) : 
        Dipole               -0.3086 Ry au,         -0.7844 Debye
        Dipole field         -0.0005 Ry au
 
        Potential amp.        0.0511 Ry
        Total length         47.2555 bohr
 

     total cpu time spent up to now is      625.7 secs

     End of self-consistent calculation

          k = 0.0000 0.0000 0.0000 ( 27033 PWs)   bands (ev):

   -16.6259 -16.6259 -16.6249 -16.5845 -16.5829 -16.5829 -16.5418 -16.5392
   -16.5319 -16.5319 -16.5234 -16.4965 -16.4965 -16.4946 -16.4892 -16.4892
   -16.4747 -16.4711 -16.4711 -16.4691 -16.4690 -16.4520 -16.4520 -16.4486
   -16.4428 -16.4406 -16.4350 -16.4350 -16.4281 -16.4281 -16.3698 -16.3634
   -16.3634 -16.3386 -16.3386 -16.3284 -16.3284 -16.3205 -16.3205 -16.3084
   -16.2425 -16.2425 -16.2398 -16.2372 -16.2323 -16.2323 -16.2256 -16.2156
   -16.2156 -16.2071 -16.2071 -16.2046 -16.1978 -16.1978 -16.1813 -16.1813
   -16.1694 -16.1488 -16.1377 -16.1377 -10.5758  -9.4809  -7.9662  -7.0342
    -7.0342  -7.0242  -6.6044  -6.6012  -6.6012  -5.9625  -5.9623  -5.9623
    -2.9790  -2.7408  -2.7408  -2.3903  -1.8510  -1.6861  -1.6861  -1.6696
    -1.5689  -1.5689  -0.2221   1.1759   2.1523   2.1523   2.1736   2.1964
     2.1964   2.7011   3.5682   3.5714   3.5714   3.6663

          k = 0.0000 0.0278 0.0000 ( 27010 PWs)   bands (ev):

   -16.6178 -16.6066 -16.6056 -16.5782 -16.5648 -16.5632 -16.5333 -16.5305
   -16.5229 -16.5218 -16.5166 -16.4978 -16.4905 -16.4820 -16.4802 -16.4751
   -16.4751 -16.4686 -16.4654 -16.4595 -16.4535 -16.4518 -16.4495 -16.4431
   -16.4405 -16.4376 -16.4309 -16.4274 -16.4271 -16.4222 -16.3702 -16.3646
   -16.3627 -16.3492 -16.3432 -16.3325 -16.3293 -16.3292 -16.3246 -16.3190
   -16.2569 -16.2521 -16.2496 -16.2468 -16.2457 -16.2407 -16.2339 -16.2296
   -16.2266 -16.2183 -16.2161 -16.2090 -16.2062 -16.2017 -16.1941 -16.1862
   -16.1774 -16.1623 -16.1538 -16.1488 -10.4537  -9.3635  -7.8628  -7.6998
    -7.1890  -7.1839  -6.8932  -6.5879  -6.5841  -6.0091  -5.9270  -5.9267
    -2.7173  -2.4989  -2.3288  -2.1791  -1.7553  -1.6449  -1.5204  -1.2299
    -1.1186  -0.6725  -0.1446   0.9592   1.4074   1.6851   2.0117   2.5298
     2.6401   2.9102   2.9498   2.9676   3.5591   3.6590

          k = 0.0000 0.0556 0.0000 ( 26980 PWs)   bands (ev):

   -16.5967 -16.5630 -16.5587 -16.5571 -16.5382 -16.5199 -16.5188 -16.5136
   -16.5015 -16.4964 -16.4959 -16.4840 -16.4802 -16.4732 -16.4722 -16.4674
   -16.4645 -16.4615 -16.4484 -16.4407 -16.4360 -16.4353 -16.4311 -16.4252
   -16.4204 -16.4185 -16.4165 -16.4162 -16.4108 -16.3956 -16.3724 -16.3687
   -16.3686 -16.3627 -16.3599 -16.3592 -16.3550 -16.3481 -16.3236 -16.3102
   -16.2988 -16.2931 -16.2883 -16.2784 -16.2770 -16.2737 -16.2629 -16.2422
   -16.2408 -16.2348 -16.2318 -16.2303 -16.2238 -16.2207 -16.2155 -16.2140
   -16.2057 -16.1952 -16.1658 -16.1551 -10.0875  -9.0130  -8.6583  -7.6825
    -7.5530  -7.4004  -7.3960  -6.6452  -6.6372  -6.4566  -5.8683  -5.8664
    -2.1668  -1.8465  -1.7814  -1.2895  -1.1238  -0.9583  -0.6754  -0.5462
    -0.4726  -0.1652   0.4993   0.9537   0.9935   1.2109   1.5244   1.9630
     2.0864   2.3233   2.3741   2.7701   2.9915   3.0859

          k = 0.0000-0.0835 0.0000 ( 26962 PWs)   bands (ev):

   -16.5736 -16.5605 -16.5411 -16.5386 -16.5192 -16.5189 -16.5057 -16.5045
   -16.4831 -16.4783 -16.4748 -16.4722 -16.4604 -16.4559 -16.4559 -16.4534
   -16.4514 -16.4506 -16.4397 -16.4381 -16.4332 -16.4297 -16.4158 -16.4146
   -16.4133 -16.4126 -16.4095 -16.4081 -16.4075 -16.3984 -16.3945 -16.3924
   -16.3689 -16.3571 -16.3535 -16.3524 -16.3469 -16.3415 -16.3394 -16.3383
   -16.3151 -16.3069 -16.3012 -16.2950 -16.2894 -16.2834 -16.2800 -16.2724
   -16.2689 -16.2632 -16.2591 -16.2564 -16.2383 -16.2300 -16.2284 -16.2199
   -16.2081 -16.2009 -16.1659 -16.1553  -9.4846  -9.4786  -8.4500  -8.4278
    -7.4841  -7.4815  -7.0719  -7.0471  -6.6839  -6.6757  -5.8493  -5.8463
    -1.7662  -1.0894  -1.0385  -1.0193  -1.0114  -1.0043  -0.4358  -0.2034
     0.0631   0.4103   0.4314   0.7193   1.0493   1.6918   1.6953   1.6963
     2.0104   2.0892   2.1247   2.1870   2.4146   2.5111

          k = 0.0241-0.0139 0.0000 ( 27010 PWs)   bands (ev):

   -16.6178 -16.6066 -16.6056 -16.5782 -16.5648 -16.5632 -16.5333 -16.5305
   -16.5229 -16.5218 -16.5166 -16.4978 -16.4905 -16.4820 -16.4802 -16.4751
   -16.4751 -16.4686 -16.4654 -16.4595 -16.4535 -16.4518 -16.4495 -16.4431
   -16.4405 -16.4376 -16.4309 -16.4274 -16.4271 -16.4222 -16.3702 -16.3646
   -16.3627 -16.3492 -16.3432 -16.3325 -16.3293 -16.3292 -16.3246 -16.3190
   -16.2569 -16.2521 -16.2496 -16.2468 -16.2457 -16.2407 -16.2339 -16.2296
   -16.2266 -16.2183 -16.2161 -16.2090 -16.2062 -16.2017 -16.1941 -16.1862
   -16.1774 -16.1623 -16.1538 -16.1488 -10.4537  -9.3635  -7.8628  -7.6998
    -7.1890  -7.1839  -6.8932  -6.5879  -6.5840  -6.0091  -5.9270  -5.9267
    -2.7173  -2.4989  -2.3288  -2.1791  -1.7553  -1.6449  -1.5204  -1.2299
    -1.1186  -0.6725  -0.1446   0.9592   1.4074   1.6851   2.0117   2.5298
     2.6401   2.9102   2.9498   2.9676   3.5591   3.6590

          k = 0.0241 0.0139 0.0000 ( 27010 PWs)   bands (ev):

   -16.6178 -16.6066 -16.6056 -16.5782 -16.5648 -16.5632 -16.5333 -16.5305
   -16.5229 -16.5218 -16.5166 -16.4978 -16.4905 -16.4820 -16.4802 -16.4751
   -16.4751 -16.4686 -16.4654 -16.4595 -16.4535 -16.4518 -16.4495 -16.4431
   -16.4405 -16.4376 -16.4309 -16.4274 -16.4271 -16.4222 -16.3702 -16.3646
   -16.3627 -16.3492 -16.3432 -16.3325 -16.3293 -16.3292 -16.3246 -16.3190
   -16.2569 -16.2521 -16.2496 -16.2468 -16.2457 -16.2407 -16.2339 -16.2296
   -16.2266 -16.2183 -16.2161 -16.2090 -16.2062 -16.2017 -16.1941 -16.1862
   -16.1774 -16.1623 -16.1538 -16.1488 -10.4537  -9.3635  -7.8628  -7.6998
    -7.1890  -7.1839  -6.8932  -6.5879  -6.5840  -6.0091  -5.9270  -5.9267
    -2.7173  -2.4989  -2.3288  -2.1791  -1.7553  -1.6449  -1.5204  -1.2299
    -1.1186  -0.6725  -0.1446   0.9592   1.4074   1.6851   2.0117   2.5298
     2.6401   2.9102   2.9498   2.9676   3.5591   3.6590

          k = 0.0241 0.0417 0.0000 ( 26981 PWs)   bands (ev):

   -16.5924 -16.5911 -16.5646 -16.5555 -16.5535 -16.5236 -16.5206 -16.5091
   -16.5059 -16.5044 -16.5025 -16.5025 -16.4835 -16.4799 -16.4787 -16.4776
   -16.4641 -16.4538 -16.4466 -16.4454 -16.4428 -16.4395 -16.4365 -16.4328
   -16.4322 -16.4249 -16.4219 -16.4204 -16.4183 -16.3994 -16.3685 -16.3647
   -16.3632 -16.3607 -16.3569 -16.3527 -16.3519 -16.3372 -16.3356 -16.3098
   -16.2866 -16.2815 -16.2783 -16.2684 -16.2657 -16.2584 -16.2448 -16.2424
   -16.2396 -16.2349 -16.2311 -16.2267 -16.2197 -16.2116 -16.2102 -16.2039
   -16.1842 -16.1801 -16.1699 -16.1672 -10.2095  -9.1294  -8.1064  -8.1018
    -7.6560  -7.2049  -7.1905  -6.7620  -6.3804  -6.1402  -6.1310  -5.8626
    -2.4350  -2.0845  -1.6439  -1.5654  -1.3398  -1.2649  -0.9524  -0.8856
    -0.4144   0.0537   0.2158   0.8179   0.8865   1.0941   1.7239   1.9067
     2.4509   2.7290   2.7432   3.0915   3.1660   3.1694

          k = 0.0241-0.0974 0.0000 ( 26956 PWs)   bands (ev):

   -16.5676 -16.5407 -16.5394 -16.5328 -16.5245 -16.5146 -16.5085 -16.4973
   -16.4910 -16.4882 -16.4819 -16.4772 -16.4756 -16.4700 -16.4622 -16.4556
   -16.4511 -16.4491 -16.4449 -16.4399 -16.4297 -16.4256 -16.4237 -16.4172
   -16.4125 -16.4096 -16.4071 -16.4034 -16.4012 -16.3958 -16.3854 -16.3754
   -16.3723 -16.3672 -16.3635 -16.3602 -16.3539 -16.3349 -16.3295 -16.3259
   -16.3218 -16.3095 -16.3077 -16.3035 -16.2974 -16.2827 -16.2789 -16.2646
   -16.2605 -16.2538 -16.2501 -16.2437 -16.2371 -16.2280 -16.2194 -16.2150
   -16.2087 -16.2020 -16.1807 -16.1695  -9.7230  -9.0064  -8.6665  -8.3200
    -7.9961  -7.3771  -7.2516  -6.6964  -6.6585  -6.2324  -6.1836  -5.8091
    -1.8978  -1.5772  -1.0821  -0.9336  -0.7242  -0.6686  -0.4173  -0.2698
     0.0409   0.2008   0.5922   0.7494   0.9167   1.0203   1.5012   1.6843
     1.8310   2.4173   2.5346   2.5984   2.7365   2.8813

          k = 0.0241-0.0696 0.0000 ( 26956 PWs)   bands (ev):

   -16.5676 -16.5407 -16.5394 -16.5328 -16.5245 -16.5146 -16.5085 -16.4973
   -16.4910 -16.4882 -16.4819 -16.4772 -16.4756 -16.4700 -16.4622 -16.4556
   -16.4511 -16.4491 -16.4449 -16.4399 -16.4297 -16.4256 -16.4237 -16.4172
   -16.4125 -16.4096 -16.4071 -16.4034 -16.4012 -16.3958 -16.3854 -16.3754
   -16.3723 -16.3672 -16.3635 -16.3602 -16.3539 -16.3349 -16.3295 -16.3259
   -16.3218 -16.3095 -16.3077 -16.3035 -16.2974 -16.2827 -16.2789 -16.2646
   -16.2605 -16.2538 -16.2501 -16.2437 -16.2371 -16.2279 -16.2194 -16.2150
   -16.2087 -16.2020 -16.1807 -16.1695  -9.7230  -9.0064  -8.6665  -8.3200
    -7.9961  -7.3771  -7.2516  -6.6964  -6.6585  -6.2324  -6.1836  -5.8091
    -1.8978  -1.5772  -1.0821  -0.9336  -0.7242  -0.6686  -0.4173  -0.2698
     0.0409   0.2008   0.5922   0.7494   0.9167   1.0203   1.5012   1.6843
     1.8310   2.4173   2.5346   2.5984   2.7365   2.8813

          k = 0.0241-0.0417 0.0000 ( 26981 PWs)   bands (ev):

   -16.5924 -16.5911 -16.5646 -16.5555 -16.5535 -16.5236 -16.5206 -16.5091
   -16.5059 -16.5044 -16.5025 -16.5025 -16.4835 -16.4799 -16.4787 -16.4776
   -16.4641 -16.4538 -16.4466 -16.4454 -16.4428 -16.4395 -16.4365 -16.4328
   -16.4322 -16.4249 -16.4219 -16.4204 -16.4183 -16.3994 -16.3685 -16.3647
   -16.3632 -16.3607 -16.3569 -16.3527 -16.3519 -16.3372 -16.3356 -16.3098
   -16.2866 -16.2815 -16.2783 -16.2684 -16.2657 -16.2584 -16.2448 -16.2424
   -16.2396 -16.2349 -16.2311 -16.2267 -16.2197 -16.2116 -16.2102 -16.2039
   -16.1842 -16.1801 -16.1699 -16.1672 -10.2095  -9.1294  -8.1064  -8.1018
    -7.6560  -7.2049  -7.1905  -6.7620  -6.3804  -6.1401  -6.1310  -5.8626
    -2.4350  -2.0845  -1.6439  -1.5654  -1.3397  -1.2649  -0.9524  -0.8856
    -0.4144   0.0537   0.2158   0.8179   0.8865   1.0941   1.7239   1.9067
     2.4509   2.7290   2.7432   3.0915   3.1660   3.1694

          k = 0.0482-0.0278 0.0000 ( 26980 PWs)   bands (ev):

   -16.5967 -16.5630 -16.5587 -16.5571 -16.5382 -16.5199 -16.5188 -16.5136
   -16.5015 -16.4964 -16.4959 -16.4840 -16.4802 -16.4732 -16.4723 -16.4674
   -16.4645 -16.4615 -16.4484 -16.4407 -16.4360 -16.4353 -16.4311 -16.4252
   -16.4204 -16.4185 -16.4165 -16.4162 -16.4108 -16.3956 -16.3724 -16.3687
   -16.3686 -16.3627 -16.3599 -16.3592 -16.3550 -16.3481 -16.3236 -16.3102
   -16.2988 -16.2931 -16.2883 -16.2784 -16.2770 -16.2737 -16.2629 -16.2422
   -16.2408 -16.2348 -16.2318 -16.2303 -16.2238 -16.2207 -16.2155 -16.2140
   -16.2057 -16.1952 -16.1657 -16.1551 -10.0875  -9.0130  -8.6583  -7.6825
    -7.5530  -7.4004  -7.3960  -6.6452  -6.6372  -6.4566  -5.8683  -5.8664
    -2.1668  -1.8465  -1.7814  -1.2895  -1.1238  -0.9583  -0.6754  -0.5462
    -0.4726  -0.1652   0.4993   0.9537   0.9935   1.2109   1.5244   1.9630
     2.0864   2.3233   2.3741   2.7701   2.9915   3.0859

          k = 0.0482 0.0000 0.0000 ( 26981 PWs)   bands (ev):

   -16.5924 -16.5911 -16.5646 -16.5555 -16.5535 -16.5236 -16.5206 -16.5091
   -16.5059 -16.5044 -16.5025 -16.5025 -16.4835 -16.4799 -16.4787 -16.4776
   -16.4641 -16.4538 -16.4466 -16.4454 -16.4428 -16.4395 -16.4365 -16.4328
   -16.4322 -16.4249 -16.4219 -16.4204 -16.4183 -16.3994 -16.3685 -16.3647
   -16.3632 -16.3607 -16.3569 -16.3527 -16.3519 -16.3372 -16.3356 -16.3098
   -16.2866 -16.2815 -16.2783 -16.2684 -16.2657 -16.2584 -16.2448 -16.2424
   -16.2396 -16.2349 -16.2311 -16.2267 -16.2197 -16.2116 -16.2102 -16.2039
   -16.1842 -16.1801 -16.1699 -16.1672 -10.2095  -9.1294  -8.1064  -8.1018
    -7.6560  -7.2049  -7.1905  -6.7620  -6.3804  -6.1402  -6.1310  -5.8626
    -2.4350  -2.0845  -1.6439  -1.5654  -1.3397  -1.2649  -0.9524  -0.8856
    -0.4144   0.0537   0.2158   0.8179   0.8865   1.0941   1.7239   1.9067
     2.4509   2.7290   2.7432   3.0915   3.1660   3.1694

          k = 0.0482 0.0278 0.0000 ( 26980 PWs)   bands (ev):

   -16.5967 -16.5630 -16.5587 -16.5571 -16.5382 -16.5199 -16.5188 -16.5136
   -16.5015 -16.4964 -16.4959 -16.4840 -16.4802 -16.4732 -16.4723 -16.4674
   -16.4645 -16.4615 -16.4484 -16.4407 -16.4360 -16.4353 -16.4311 -16.4252
   -16.4204 -16.4185 -16.4165 -16.4162 -16.4108 -16.3956 -16.3724 -16.3687
   -16.3686 -16.3627 -16.3599 -16.3592 -16.3550 -16.3481 -16.3236 -16.3102
   -16.2988 -16.2931 -16.2883 -16.2784 -16.2770 -16.2737 -16.2629 -16.2422
   -16.2408 -16.2348 -16.2318 -16.2303 -16.2238 -16.2207 -16.2155 -16.2140
   -16.2057 -16.1952 -16.1658 -16.1551 -10.0875  -9.0130  -8.6583  -7.6825
    -7.5530  -7.4004  -7.3960  -6.6452  -6.6372  -6.4566  -5.8683  -5.8664
    -2.1668  -1.8465  -1.7814  -1.2895  -1.1238  -0.9583  -0.6754  -0.5461
    -0.4726  -0.1652   0.4993   0.9537   0.9935   1.2109   1.5244   1.9630
     2.0864   2.3233   2.3741   2.7701   2.9915   3.0859

          k = 0.0482-0.1113 0.0000 ( 26956 PWs)   bands (ev):

   -16.5676 -16.5407 -16.5394 -16.5329 -16.5245 -16.5146 -16.5085 -16.4973
   -16.4910 -16.4882 -16.4819 -16.4772 -16.4756 -16.4700 -16.4622 -16.4556
   -16.4511 -16.4491 -16.4449 -16.4399 -16.4297 -16.4256 -16.4237 -16.4172
   -16.4125 -16.4096 -16.4071 -16.4034 -16.4012 -16.3958 -16.3854 -16.3754
   -16.3723 -16.3672 -16.3635 -16.3602 -16.3539 -16.3349 -16.3295 -16.3259
   -16.3218 -16.3095 -16.3077 -16.3035 -16.2974 -16.2827 -16.2789 -16.2646
   -16.2605 -16.2538 -16.2501 -16.2437 -16.2371 -16.2280 -16.2194 -16.2150
   -16.2087 -16.2020 -16.1807 -16.1695  -9.7230  -9.0064  -8.6665  -8.3200
    -7.9961  -7.3771  -7.2516  -6.6964  -6.6585  -6.2324  -6.1836  -5.8091
    -1.8978  -1.5772  -1.0821  -0.9336  -0.7242  -0.6686  -0.4173  -0.2698
     0.0409   0.2008   0.5922   0.7494   0.9167   1.0203   1.5012   1.6843
     1.8310   2.4173   2.5346   2.5984   2.7365   2.8813

          k = 0.0482-0.0835 0.0000 ( 26934 PWs)   bands (ev):

   -16.5278 -16.5262 -16.5144 -16.5140 -16.5082 -16.5074 -16.5054 -16.4986
   -16.4961 -16.4948 -16.4916 -16.4904 -16.4657 -16.4647 -16.4638 -16.4585
   -16.4581 -16.4533 -16.4338 -16.4335 -16.4330 -16.4287 -16.4097 -16.4090
   -16.4063 -16.3997 -16.3976 -16.3966 -16.3955 -16.3904 -16.3801 -16.3760
   -16.3701 -16.3684 -16.3671 -16.3578 -16.3540 -16.3399 -16.3380 -16.3378
   -16.3267 -16.3260 -16.3225 -16.3101 -16.3100 -16.3087 -16.2833 -16.2814
   -16.2579 -16.2517 -16.2501 -16.2435 -16.2389 -16.2194 -16.2192 -16.2191
   -16.2100 -16.2057 -16.2057 -16.1928  -9.1291  -9.1247  -9.1192  -8.1248
    -8.0995  -8.0895  -6.8024  -6.7735  -6.7681  -6.1367  -6.0140  -6.0057
    -1.6331  -1.1633  -1.1512  -0.9260  -0.7489  -0.7446  -0.2586   0.3443
     0.4062   0.4084   0.6126   0.6134   1.0347   1.3520   1.3553   1.7472
     2.0336   2.0383   2.0514   2.3508   2.3521   2.8860

          k = 0.0482-0.0556 0.0000 ( 26956 PWs)   bands (ev):

   -16.5676 -16.5407 -16.5394 -16.5329 -16.5245 -16.5146 -16.5085 -16.4973
   -16.4910 -16.4882 -16.4819 -16.4772 -16.4756 -16.4700 -16.4622 -16.4556
   -16.4511 -16.4491 -16.4449 -16.4399 -16.4297 -16.4256 -16.4237 -16.4172
   -16.4125 -16.4096 -16.4071 -16.4034 -16.4012 -16.3958 -16.3854 -16.3754
   -16.3723 -16.3672 -16.3635 -16.3602 -16.3539 -16.3349 -16.3295 -16.3259
   -16.3218 -16.3095 -16.3077 -16.3035 -16.2974 -16.2827 -16.2789 -16.2646
   -16.2604 -16.2538 -16.2501 -16.2437 -16.2371 -16.2280 -16.2194 -16.2150
   -16.2087 -16.2020 -16.1807 -16.1695  -9.7230  -9.0064  -8.6665  -8.3200
    -7.9961  -7.3771  -7.2516  -6.6964  -6.6585  -6.2324  -6.1836  -5.8091
    -1.8978  -1.5772  -1.0821  -0.9336  -0.7242  -0.6686  -0.4173  -0.2698
     0.0409   0.2008   0.5922   0.7494   0.9167   1.0203   1.5012   1.6843
     1.8310   2.4173   2.5346   2.5984   2.7365   2.8813

          k =-0.0723 0.0417 0.0000 ( 26962 PWs)   bands (ev):

   -16.5736 -16.5605 -16.5411 -16.5386 -16.5192 -16.5189 -16.5057 -16.5045
   -16.4831 -16.4783 -16.4748 -16.4722 -16.4604 -16.4559 -16.4559 -16.4534
   -16.4514 -16.4506 -16.4397 -16.4381 -16.4332 -16.4297 -16.4158 -16.4146
   -16.4133 -16.4126 -16.4095 -16.4081 -16.4075 -16.3984 -16.3945 -16.3924
   -16.3689 -16.3571 -16.3535 -16.3524 -16.3469 -16.3415 -16.3394 -16.3383
   -16.3151 -16.3069 -16.3012 -16.2950 -16.2894 -16.2834 -16.2800 -16.2724
   -16.2688 -16.2632 -16.2591 -16.2564 -16.2382 -16.2300 -16.2284 -16.2199
   -16.2081 -16.2009 -16.1659 -16.1553  -9.4846  -9.4786  -8.4500  -8.4278
    -7.4841  -7.4815  -7.0719  -7.0471  -6.6839  -6.6757  -5.8494  -5.8463
    -1.7662  -1.0894  -1.0385  -1.0193  -1.0114  -1.0043  -0.4358  -0.2034
     0.0631   0.4103   0.4314   0.7193   1.0493   1.6918   1.6953   1.6963
     2.0104   2.0892   2.1247   2.1870   2.4146   2.5111

          k =-0.0723 0.0696 0.0000 ( 26956 PWs)   bands (ev):

   -16.5676 -16.5407 -16.5394 -16.5329 -16.5245 -16.5146 -16.5085 -16.4973
   -16.4910 -16.4882 -16.4819 -16.4772 -16.4756 -16.4700 -16.4622 -16.4556
   -16.4511 -16.4491 -16.4449 -16.4399 -16.4297 -16.4256 -16.4237 -16.4172
   -16.4125 -16.4096 -16.4071 -16.4034 -16.4012 -16.3958 -16.3854 -16.3754
   -16.3723 -16.3672 -16.3635 -16.3602 -16.3539 -16.3349 -16.3295 -16.3259
   -16.3218 -16.3095 -16.3077 -16.3035 -16.2974 -16.2827 -16.2789 -16.2646
   -16.2604 -16.2538 -16.2501 -16.2437 -16.2371 -16.2280 -16.2194 -16.2150
   -16.2087 -16.2020 -16.1807 -16.1695  -9.7230  -9.0064  -8.6665  -8.3200
    -7.9961  -7.3771  -7.2516  -6.6964  -6.6585  -6.2324  -6.1836  -5.8091
    -1.8978  -1.5772  -1.0821  -0.9336  -0.7242  -0.6686  -0.4173  -0.2698
     0.0409   0.2008   0.5922   0.7494   0.9167   1.0203   1.5012   1.6843
     1.8310   2.4173   2.5346   2.5984   2.7365   2.8813

          k =-0.0723 0.0974 0.0000 ( 26956 PWs)   bands (ev):

   -16.5676 -16.5407 -16.5394 -16.5329 -16.5245 -16.5146 -16.5085 -16.4973
   -16.4910 -16.4882 -16.4819 -16.4772 -16.4756 -16.4700 -16.4622 -16.4556
   -16.4511 -16.4491 -16.4449 -16.4399 -16.4297 -16.4256 -16.4237 -16.4172
   -16.4125 -16.4096 -16.4071 -16.4034 -16.4012 -16.3958 -16.3854 -16.3754
   -16.3723 -16.3672 -16.3635 -16.3602 -16.3539 -16.3349 -16.3295 -16.3259
   -16.3218 -16.3095 -16.3077 -16.3035 -16.2974 -16.2827 -16.2789 -16.2646
   -16.2605 -16.2538 -16.2501 -16.2437 -16.2371 -16.2279 -16.2194 -16.2150
   -16.2087 -16.2020 -16.1807 -16.1695  -9.7230  -9.0064  -8.6665  -8.3200
    -7.9961  -7.3771  -7.2516  -6.6964  -6.6585  -6.2324  -6.1836  -5.8091
    -1.8978  -1.5772  -1.0821  -0.9336  -0.7242  -0.6686  -0.4173  -0.2698
     0.0409   0.2008   0.5922   0.7494   0.9167   1.0203   1.5012   1.6843
     1.8310   2.4173   2.5346   2.5984   2.7365   2.8813

          k =-0.0723-0.0417 0.0000 ( 26962 PWs)   bands (ev):

   -16.5736 -16.5605 -16.5411 -16.5386 -16.5192 -16.5189 -16.5058 -16.5045
   -16.4831 -16.4783 -16.4748 -16.4722 -16.4604 -16.4559 -16.4559 -16.4534
   -16.4514 -16.4506 -16.4397 -16.4381 -16.4332 -16.4297 -16.4158 -16.4146
   -16.4133 -16.4126 -16.4095 -16.4081 -16.4075 -16.3984 -16.3945 -16.3924
   -16.3689 -16.3571 -16.3535 -16.3524 -16.3469 -16.3415 -16.3394 -16.3383
   -16.3151 -16.3069 -16.3012 -16.2950 -16.2894 -16.2834 -16.2800 -16.2724
   -16.2689 -16.2632 -16.2591 -16.2563 -16.2382 -16.2300 -16.2284 -16.2199
   -16.2081 -16.2009 -16.1659 -16.1553  -9.4846  -9.4786  -8.4500  -8.4278
    -7.4841  -7.4815  -7.0719  -7.0472  -6.6839  -6.6757  -5.8493  -5.8463
    -1.7662  -1.0894  -1.0385  -1.0193  -1.0114  -1.0043  -0.4358  -0.2034
     0.0631   0.4103   0.4314   0.7193   1.0493   1.6918   1.6953   1.6963
     2.0104   2.0892   2.1247   2.1870   2.4146   2.5111

     the Fermi energy is     1.0116 ev

!    total energy              =   -1993.33044917 Ry
     Harris-Foulkes estimate   =   -1993.33046875 Ry
     estimated scf accuracy    <       0.00000357 Ry

     The total energy is the sum of the following terms:

     one-electron contribution =   -9423.40253417 Ry
     hartree contribution      =    4780.64952140 Ry
     xc contribution           =    -784.52866376 Ry
     ewald contribution        =    3433.99207842 Ry
     electric field correction =       0.00016687 Ry
     smearing contrib. (-TS)   =      -0.04101793 Ry

     convergence has been achieved in   9 iterations
 
 BEEF-vdW xc energy contributions
           1 :   -699.410796769325     
           2 :    649.753340040094     
           3 :   -562.278695867319     
           4 :    456.114350137135     
           5 :   -351.026226650636     
           6 :    261.492918626731     
           7 :   -193.557587879692     
           8 :    145.223315703546     
           9 :   -109.710368906261     
          10 :    79.7948236323335     
          11 :   -51.2133141526306     
          12 :    23.8099179041900     
          13 :  -0.350774808095480     
          14 :   -15.9522297356535     
          15 :    23.7093711839740     
          16 :   -24.2718423592122     
          17 :    21.0239182992859     
          18 :   -17.6499556907703     
          19 :    16.4254194768308     
          20 :   -17.4400252491135     
          21 :    19.0605138924060     
          22 :   -19.2449757092101     
          23 :    16.8986550728625     
          24 :   -12.5217668537563     
          25 :    7.86137301295446     
          26 :   -4.85910432239996     
          27 :    4.54755745612067     
          28 :   -6.52097867887244     
          29 :    9.23697185706794     
          30 :   -10.9282632047839     
          31 :   -55.8896983603823     
          32 :   -40.9803938472935     

     Forces acting on atoms (Ry/au):


     negative rho (up, down):  2.144E-01 0.000E+00
     atom    1 type  1   force =     0.00180698    0.00102059   -0.00866175
     atom    2 type  1   force =    -0.00179042    0.00105395   -0.00862518
     atom    3 type  1   force =    -0.00000293   -0.00208115   -0.00867972
     atom    4 type  1   force =     0.00002122    0.00002342   -0.00569978
     atom    5 type  1   force =    -0.00000541   -0.00217415   -0.00555548
     atom    6 type  1   force =    -0.00001634   -0.00002402    0.00114637
     atom    7 type  1   force =     0.00187326    0.00105848   -0.00554370
     atom    8 type  1   force =    -0.00185622    0.00107411   -0.00552778
     atom    9 type  1   force =    -0.00001861    0.00002265    0.00747574
     atom   10 type  1   force =    -0.00000400    0.01019124    0.02235410
     atom   11 type  1   force =     0.00880555   -0.00508714    0.02232605
     atom   12 type  1   force =    -0.00881824   -0.00507968    0.02239681
     atom   13 type  2   force =     0.00000515    0.00000170   -0.02740568

     Total force =     0.054728     Total SCF correction =     0.009274
     SCF correction compared to forces is large: reduce conv_thr to get better values


     entering subroutine stress ...


     negative rho (up, down):  2.144E-01 0.000E+00
          total   stress  (Ry/bohr**3)                   (kbar)     P=    9.89
   0.00008200  -0.00000000  -0.00000000         12.06     -0.00     -0.00
  -0.00000000   0.00008200  -0.00000000         -0.00     12.06     -0.00
  -0.00000000  -0.00000000   0.00003769         -0.00     -0.00      5.54

 !ASE

     Writing output data file calc.save
 
     init_run     :     15.09s CPU     21.61s WALL (       1 calls)
     electrons    :    418.84s CPU    603.97s WALL (       1 calls)
     forces       :      6.45s CPU      7.84s WALL (       1 calls)
     stress       :     16.38s CPU     18.57s WALL (       1 calls)

     Called by init_run:
     wfcinit      :     11.23s CPU     16.94s WALL (       1 calls)
     potinit      :      2.22s CPU      2.92s WALL (       1 calls)

     Called by electrons:
     c_bands      :    290.90s CPU    415.34s WALL (      10 calls)
     sum_band     :     50.28s CPU     74.78s WALL (      10 calls)
     v_of_rho     :     17.28s CPU     25.27s WALL (      10 calls)
     newd         :      6.62s CPU      6.96s WALL (      10 calls)
     mix_rho      :      0.57s CPU      0.79s WALL (      10 calls)
     vdW_energy   :      3.31s CPU      3.63s WALL (      46 calls)
     vdW_ffts     :     47.28s CPU     73.88s WALL (      94 calls)
     vdW_v        :      9.18s CPU     12.97s WALL (      46 calls)

     Called by c_bands:
     init_us_2    :      0.68s CPU      0.71s WALL (     460 calls)
     cegterg      :    285.23s CPU    409.25s WALL (     200 calls)

     Called by *egterg:
     h_psi        :    218.14s CPU    340.54s WALL (     928 calls)
     s_psi        :      8.06s CPU      8.09s WALL (     928 calls)
     g_psi        :      0.51s CPU      0.51s WALL (     708 calls)
     cdiaghg      :     34.20s CPU     35.22s WALL (     888 calls)

     Called by h_psi:
     add_vuspsi   :      8.19s CPU      8.24s WALL (     928 calls)

     General routines
     calbec       :     15.65s CPU     18.27s WALL (    1168 calls)
     fft          :     71.28s CPU    110.72s WALL (    2767 calls)
     ffts         :      0.14s CPU      0.19s WALL (      20 calls)
     fftw         :    224.13s CPU    365.79s WALL (  117694 calls)
     interpolate  :      0.65s CPU      0.98s WALL (      20 calls)
     davcio       :      0.01s CPU      0.05s WALL (      20 calls)
 
     Parallel routines
     fft_scatter  :    263.90s CPU    441.79s WALL (  120481 calls)
 
     PWSCF        :  7m37.63s CPU    10m53.42s WALL

 
   This run was terminated on:   0:18:24  17Jan2018            

=------------------------------------------------------------------------------=
   JOB DONE.
=------------------------------------------------------------------------------=
Job  /afs/slac/g/suncat/bin/suncat-tsmpirun -x LD_LIBRARY_PATH -wdir /scratch/qe842467_SedKh pw.x -in pw.inp

TID   HOST_NAME   COMMAND_LINE            STATUS            TERMINATION_TIME
===== ========== ================  =======================  ===================
00000 suncat0100 pw.x -in pw.inp   Done                     01/17/2018 00:18:24
00001 suncat0100 pw.x -in pw.inp   Done                     01/17/2018 00:18:24
00002 suncat0100 pw.x -in pw.inp   Done                     01/17/2018 00:18:24
00003 suncat0100 pw.x -in pw.inp   Done                     01/17/2018 00:18:24
00004 suncat0100 pw.x -in pw.inp   Done                     01/17/2018 00:18:24
00005 suncat0100 pw.x -in pw.inp   Done                     01/17/2018 00:18:24
00006 suncat0100 pw.x -in pw.inp   Done                     01/17/2018 00:18:24
00007 suncat0100 pw.x -in pw.inp   Done                     01/17/2018 00:18:24
00008 suncat0283 pw.x -in pw.inp   Done                     01/17/2018 00:18:24
00009 suncat0283 pw.x -in pw.inp   Done                     01/17/2018 00:18:24
00010 suncat0283 pw.x -in pw.inp   Done                     01/17/2018 00:18:24
00011 suncat0283 pw.x -in pw.inp   Done                     01/17/2018 00:18:24
00012 suncat0283 pw.x -in pw.inp   Done                     01/17/2018 00:18:24
00013 suncat0283 pw.x -in pw.inp   Done                     01/17/2018 00:18:24
00014 suncat0283 pw.x -in pw.inp   Done                     01/17/2018 00:18:24
00015 suncat0283 pw.x -in pw.inp   Done                     01/17/2018 00:18:24
00016 suncat0282 pw.x -in pw.inp   Done                     01/17/2018 00:18:24
00017 suncat0282 pw.x -in pw.inp   Done                     01/17/2018 00:18:24
00018 suncat0282 pw.x -in pw.inp   Done                     01/17/2018 00:18:24
00019 suncat0282 pw.x -in pw.inp   Done                     01/17/2018 00:18:24
00020 suncat0282 pw.x -in pw.inp   Done                     01/17/2018 00:18:24
00021 suncat0282 pw.x -in pw.inp   Done                     01/17/2018 00:18:24
00022 suncat0282 pw.x -in pw.inp   Done                     01/17/2018 00:18:24
00023 suncat0282 pw.x -in pw.inp   Done                     01/17/2018 00:18:24
00024 suncat0214 pw.x -in pw.inp   Done                     01/17/2018 00:18:24
00025 suncat0214 pw.x -in pw.inp   Done                     01/17/2018 00:18:24
00026 suncat0214 pw.x -in pw.inp   Done                     01/17/2018 00:18:24
00027 suncat0214 pw.x -in pw.inp   Done                     01/17/2018 00:18:24
00028 suncat0214 pw.x -in pw.inp   Done                     01/17/2018 00:18:24
00029 suncat0214 pw.x -in pw.inp   Done                     01/17/2018 00:18:24
00030 suncat0214 pw.x -in pw.inp   Done                     01/17/2018 00:18:24
00031 suncat0214 pw.x -in pw.inp   Done                     01/17/2018 00:18:24

     Program PWSCF v.5.1rc2 (svn rev. 11289) starts on 17Jan2018 at  0:18:30 

     This program is part of the open-source Quantum ESPRESSO suite
     for quantum simulation of materials; please cite
         "P. Giannozzi et al., J. Phys.:Condens. Matter 21 395502 (2009);
          URL http://www.quantum-espresso.org", 
     in publications or presentations arising from this work. More details at
     http://www.quantum-espresso.org/quote

     Parallel version (MPI), running on    32 processors
     R & G space division:  proc/nbgrp/npool/nimage =      32
     Reading input from pw.inp
     Message from routine read_cards :
     DEPRECATED: no units specified in CELL_PARAMETERS card

     Current dimensions of program PWSCF are:
     Max number of different atomic species (ntypx) = 10
     Max number of k-points (npk) =  40000
     Max angular momentum in pseudopotentials (lmaxx) =  3
     Presently stress not available with electric field


     **************************************************************************
     Initializing libbeef V0.1.1 with the BEEF-vdW functional.
     Citation: Wellendorff et al., PRB 85, 235149 (2012).
     **************************************************************************


     IMPORTANT: XC functional enforced from input :
     Exchange-correlation      = BEEF-VDW ( 1  4 27 13 2)
     Any further DFT definition will be discarded
     Please, verify this is what you really want


     Subspace diagonalization in iterative solution of the eigenvalue problem:
     a serial algorithm will be used

 
     Parallelization info
     --------------------
     sticks:   dense  smooth     PW     G-vecs:    dense   smooth      PW
     Min         134      54     15                26644     6724    1019
     Max         135      55     16                26659     6775    1034
     Sum        4315    1735    499               852865   215821   32865
 


     bravais-lattice index     =            0
     lattice parameter (alat)  =       1.8897  a.u.
     unit-cell volume          =    7171.5276 (a.u.)^3
     number of atoms/cell      =           13
     number of atomic types    =            2
     number of electrons       =       169.00
     number of Kohn-Sham states=           94
     kinetic-energy cutoff     =      36.7493  Ry
     charge density cutoff     =     367.4932  Ry
     convergence threshold     =      1.0E-05
     mixing beta               =       0.3000
     number of iterations used =           10  plain     mixing
     Exchange-correlation      = BEEF-VDW ( 1  4 27 13 2)
     nstep                     =           50


     celldm(1)=   1.889726  celldm(2)=   0.000000  celldm(3)=   0.000000
     celldm(4)=   0.000000  celldm(5)=   0.000000  celldm(6)=   0.000000

     crystal axes: (cart. coord. in units of alat)
               a(1) = (   6.917003   0.000000   0.000000 )  
               a(2) = (   3.458501   5.990300   0.000000 )  
               a(3) = (   0.000000   0.000000  25.647709 )  

     reciprocal axes: (cart. coord. in units 2 pi/alat)
               b(1) = (  0.144571 -0.083468  0.000000 )  
               b(2) = (  0.000000  0.166937  0.000000 )  
               b(3) = (  0.000000  0.000000  0.038990 )  


     PseudoPot. # 1 for Pb read from file:
     /afs/slac.stanford.edu/u/if/mamunm/psp/gbrv1.5pbe/Pb.UPF
     MD5 check sum: 3d1c1779aa92214d1e8f3a7db79003e2
     Pseudo is Ultrasoft + core correction, Zval = 14.0
     Generated by new atomic code, or converted to UPF format
     Using radial grid of  899 points,  6 beta functions with: 
                l(1) =   0
                l(2) =   0
                l(3) =   1
                l(4) =   1
                l(5) =   2
                l(6) =   2
     Q(r) pseudized with  6 coefficients,  rinner =    1.000   1.000   1.000
                                                       1.000   1.000

     PseudoPot. # 2 for H  read from file:
     /afs/slac.stanford.edu/u/if/mamunm/psp/gbrv1.5pbe/H.UPF
     MD5 check sum: 761ae9a214b05c3daf00ab9f6b793d6f
     Pseudo is Ultrasoft, Zval =  1.0
     Generated by new atomic code, or converted to UPF format
     Using radial grid of  615 points,  2 beta functions with: 
                l(1) =   0
                l(2) =   0
     Q(r) pseudized with  8 coefficients,  rinner =    0.700

     vdW kernel table read from file vdW_kernel_table
     MD5 check sum: 095c7af220d748ca6e76c0b4c6cfb241

     atomic species   valence    mass     pseudopotential
        Pb1           14.00   207.20000     Pb( 1.00)
        H1             1.00     1.00800     H ( 1.00)

     No symmetry found



   Cartesian axes

     site n.     atom                  positions (alat units)
         1           Pb1 tau(   1) = (   1.7292506   0.9983833  10.0000000  )
         2           Pb1 tau(   2) = (   5.1877519   0.9983833  10.0000000  )
         3           Pb1 tau(   3) = (   3.4585013   3.9935333  10.0000000  )
         4           Pb1 tau(   4) = (   6.9170025   3.9935333  10.0000000  )
         5           Pb1 tau(   5) = (   6.9170025   1.9967666  12.8238544  )
         6           Pb1 tau(   6) = (   3.4585013   1.9967666  12.8238544  )
         7           Pb1 tau(   7) = (   8.6462531   4.9919166  12.8238544  )
         8           Pb1 tau(   8) = (   5.1877519   4.9919166  12.8238544  )
         9           Pb1 tau(   9) = (   6.9169547   0.0000582  15.6669298  )
        10           Pb1 tau(  10) = (   3.4584910   0.0262027  15.7051836  )
        11           Pb1 tau(  11) = (   1.7518906   2.9820704  15.7051115  )
        12           Pb1 tau(  12) = (   5.1650793   2.9820896  15.7052934  )
        13           H1  tau(  13) = (   3.4585145   1.9967710  17.3472461  )

     number of k points=    20  Fermi-Dirac smearing, width (Ry)=  0.0110
                       cart. coord. in units 2pi/alat
        k(    1) = (   0.0000000   0.0000000   0.0000000), wk =   0.0555556
        k(    2) = (   0.0000000   0.0278228   0.0000000), wk =   0.1111111
        k(    3) = (   0.0000000   0.0556455   0.0000000), wk =   0.1111111
        k(    4) = (   0.0000000  -0.0834683   0.0000000), wk =   0.0555556
        k(    5) = (   0.0240952  -0.0139114   0.0000000), wk =   0.1111111
        k(    6) = (   0.0240952   0.0139114   0.0000000), wk =   0.1111111
        k(    7) = (   0.0240952   0.0417341   0.0000000), wk =   0.1111111
        k(    8) = (   0.0240952  -0.0973797   0.0000000), wk =   0.1111111
        k(    9) = (   0.0240952  -0.0695569   0.0000000), wk =   0.1111111
        k(   10) = (   0.0240952  -0.0417341   0.0000000), wk =   0.1111111
        k(   11) = (   0.0481904  -0.0278228   0.0000000), wk =   0.1111111
        k(   12) = (   0.0481904   0.0000000   0.0000000), wk =   0.1111111
        k(   13) = (   0.0481904   0.0278228   0.0000000), wk =   0.1111111
        k(   14) = (   0.0481904  -0.1112910   0.0000000), wk =   0.1111111
        k(   15) = (   0.0481904  -0.0834683   0.0000000), wk =   0.1111111
        k(   16) = (   0.0481904  -0.0556455   0.0000000), wk =   0.1111111
        k(   17) = (  -0.0722856   0.0417341   0.0000000), wk =   0.0555556
        k(   18) = (  -0.0722856   0.0695569   0.0000000), wk =   0.1111111
        k(   19) = (  -0.0722856   0.0973797   0.0000000), wk =   0.1111111
        k(   20) = (  -0.0722856  -0.0417341   0.0000000), wk =   0.0555556

     Dense  grid:   852865 G-vectors     FFT dimensions: (  80,  80, 300)

     Smooth grid:   215821 G-vectors     FFT dimensions: (  54,  54, 192)

     Largest allocated arrays     est. size (Mb)     dimensions
        Kohn-Sham Wavefunctions         1.23 Mb     (     858,   94)
        NL pseudopotentials             2.85 Mb     (     858,  218)
        Each V/rho on FFT grid          0.98 Mb     (   64000)
        Each G-vector array             0.20 Mb     (   26644)
        G-vector shells                 0.09 Mb     (   12051)
     Largest temporary arrays     est. size (Mb)     dimensions
        Auxiliary wavefunctions         4.92 Mb     (     858,  376)
        Each subspace H/S matrix        2.16 Mb     (     376,  376)
        Each <psi_i|beta_j> matrix      0.31 Mb     (     218,   94)
        Arrays for rho mixing           9.77 Mb     (   64000,   10)

     Check: negative/imaginary core charge=   -0.000001    0.000000

     Initial potential from superposition of free atoms
     Check: negative starting charge=   -0.196611

     starting charge  168.97177, renormalised to  169.00000

     negative rho (up, down):  1.966E-01 0.000E+00


     ************************************************************************
     *
     * You are using vdW-DF for exchange-correlation in this calculation.
     * Please cite the following three references that made this development
     * possible:
     *
     *   M. Dion, H. Rydberg, E. Schroder, D. C. Langreth, and
     *   B. I. Lundqvist, Phys. Rev. Lett. 92, 246401 (2004).
     *
     *   T. Thonhauser, V. R. Cooper, S. Li, A. Puzder, P. Hyldgaard, and
     *   D. C. Langreth, Phys. Rev. B 76, 125112 (2007).
     *
     *   G. Roman-Perez and J. M. Soler, Phys. Rev. Lett. 103, 096102 (2009).
     *
     *
     * If you are using vdW-DF2, please also cite:
     *
     *   K. Lee, E. D. Murray, L. Kong, B. I. Lundqvist, and
     *   D. C. Langreth, Phys. Rev. B 82, 081101(R) (2010).
     *
     *
     * If you are calculating the stress with vdW-DF, please also cite:
     *
     *   R. Sabatini, E. Kucukbenli, B. Kolb, T. Thonhauser, and
     *   S. de Gironcoli, J. Phys.: Condens. Matter 24, 424209 (2012).
     *
     ************************************************************************

     Carrying out vdW-DF run using the following parameters:

     Nqs =      20    Nr_points =    1024   r_max =   100.000
     q_mesh =
               0.00001000     0.04494208     0.09755937     0.15916263
               0.23128650     0.31572767     0.41458969     0.53033537
               0.66584808     0.82450364     1.01025438     1.22772762
               1.48234092     1.78043706     2.12944203     2.53805004
               3.01644009     3.57652955     4.23227104     5.00000000

     Gradients computed in reciprocal space

     ************************************************************************


 
     Adding external electric field

     Computed dipole along edir(3) : 
        Dipole               -0.0014 Ry au,         -0.0034 Debye
        Dipole field         -0.0000 Ry au
 
        Potential amp.        0.0002 Ry
        Total length         47.2555 bohr
 
     Starting wfc are  109 randomized atomic wfcs

     total cpu time spent up to now is       21.6 secs

     per-process dynamical memory:    60.5 Mb

     Self-consistent Calculation

     iteration #  1     ecut=    36.75 Ry     beta=0.30
     Davidson diagonalization with overlap
     ethr =  1.00E-02,  avg # of iterations =  2.0

     Threshold (ethr) on eigenvalues was too large:
     Diagonalizing with lowered threshold

     Davidson diagonalization with overlap
     ethr =  1.41E-04,  avg # of iterations =  3.0

     negative rho (up, down):  1.983E-01 0.000E+00
 
     Adding external electric field

     Computed dipole along edir(3) : 
        Dipole               -1.0666 Ry au,         -2.7111 Debye
        Dipole field         -0.0019 Ry au
 
        Potential amp.        0.1766 Ry
        Total length         47.2555 bohr
 

     total cpu time spent up to now is      108.0 secs

     total energy              =   -1993.28322262 Ry
     Harris-Foulkes estimate   =   -1993.38007529 Ry
     estimated scf accuracy    <       0.25792612 Ry

     iteration #  2     ecut=    36.75 Ry     beta=0.30
     Davidson diagonalization with overlap
     ethr =  1.53E-04,  avg # of iterations =  4.7

     negative rho (up, down):  1.977E-01 0.000E+00
 
     Adding external electric field

     Computed dipole along edir(3) : 
        Dipole                0.0266 Ry au,          0.0677 Debye
        Dipole field          0.0000 Ry au
 
        Potential amp.       -0.0044 Ry
        Total length         47.2555 bohr
 

     total cpu time spent up to now is      160.1 secs

     total energy              =   -1993.14916355 Ry
     Harris-Foulkes estimate   =   -1993.45486352 Ry
     estimated scf accuracy    <       3.57162575 Ry

     iteration #  3     ecut=    36.75 Ry     beta=0.30
     Davidson diagonalization with overlap
     ethr =  1.53E-04,  avg # of iterations =  4.5

     negative rho (up, down):  1.988E-01 0.000E+00
 
     Adding external electric field

     Computed dipole along edir(3) : 
        Dipole               -0.2707 Ry au,         -0.6882 Debye
        Dipole field         -0.0005 Ry au
 
        Potential amp.        0.0448 Ry
        Total length         47.2555 bohr
 

     total cpu time spent up to now is      211.3 secs

     total energy              =   -1993.31128185 Ry
     Harris-Foulkes estimate   =   -1993.36165054 Ry
     estimated scf accuracy    <       0.63185247 Ry

     iteration #  4     ecut=    36.75 Ry     beta=0.30
     Davidson diagonalization with overlap
     ethr =  1.53E-04,  avg # of iterations =  3.0

     negative rho (up, down):  2.005E-01 0.000E+00
 
     Adding external electric field

     Computed dipole along edir(3) : 
        Dipole               -0.2376 Ry au,         -0.6039 Debye
        Dipole field         -0.0004 Ry au
 
        Potential amp.        0.0393 Ry
        Total length         47.2555 bohr
 

     total cpu time spent up to now is      258.0 secs

     total energy              =   -1993.33483581 Ry
     Harris-Foulkes estimate   =   -1993.34325684 Ry
     estimated scf accuracy    <       0.04123612 Ry

     iteration #  5     ecut=    36.75 Ry     beta=0.30
     Davidson diagonalization with overlap
     ethr =  2.44E-05,  avg # of iterations =  3.5

     negative rho (up, down):  2.035E-01 0.000E+00
 
     Adding external electric field

     Computed dipole along edir(3) : 
        Dipole               -0.2459 Ry au,         -0.6250 Debye
        Dipole field         -0.0004 Ry au
 
        Potential amp.        0.0407 Ry
        Total length         47.2555 bohr
 

     total cpu time spent up to now is      306.0 secs

     total energy              =   -1993.33956478 Ry
     Harris-Foulkes estimate   =   -1993.33957892 Ry
     estimated scf accuracy    <       0.00260438 Ry

     iteration #  6     ecut=    36.75 Ry     beta=0.30
     Davidson diagonalization with overlap
     ethr =  1.54E-06,  avg # of iterations =  5.3

     negative rho (up, down):  2.075E-01 0.000E+00
 
     Adding external electric field

     Computed dipole along edir(3) : 
        Dipole               -0.2403 Ry au,         -0.6107 Debye
        Dipole field         -0.0004 Ry au
 
        Potential amp.        0.0398 Ry
        Total length         47.2555 bohr
 

     total cpu time spent up to now is      371.6 secs

     total energy              =   -1993.34163972 Ry
     Harris-Foulkes estimate   =   -1993.34161290 Ry
     estimated scf accuracy    <       0.00071290 Ry

     iteration #  7     ecut=    36.75 Ry     beta=0.30
     Davidson diagonalization with overlap
     ethr =  4.22E-07,  avg # of iterations =  2.0

     negative rho (up, down):  2.126E-01 0.000E+00
 
     Adding external electric field

     Computed dipole along edir(3) : 
        Dipole               -0.2407 Ry au,         -0.6117 Debye
        Dipole field         -0.0004 Ry au
 
        Potential amp.        0.0399 Ry
        Total length         47.2555 bohr
 

     total cpu time spent up to now is      414.7 secs

     total energy              =   -1993.34169800 Ry
     Harris-Foulkes estimate   =   -1993.34168007 Ry
     estimated scf accuracy    <       0.00022214 Ry

     iteration #  8     ecut=    36.75 Ry     beta=0.30
     Davidson diagonalization with overlap
     ethr =  1.31E-07,  avg # of iterations =  3.0

     negative rho (up, down):  2.132E-01 0.000E+00
 
     Adding external electric field

     Computed dipole along edir(3) : 
        Dipole               -0.2409 Ry au,         -0.6123 Debye
        Dipole field         -0.0004 Ry au
 
        Potential amp.        0.0399 Ry
        Total length         47.2555 bohr
 

     total cpu time spent up to now is      464.6 secs

     total energy              =   -1993.34171249 Ry
     Harris-Foulkes estimate   =   -1993.34173066 Ry
     estimated scf accuracy    <       0.00001593 Ry

     iteration #  9     ecut=    36.75 Ry     beta=0.30
     Davidson diagonalization with overlap
     ethr =  9.43E-09,  avg # of iterations =  5.0

     negative rho (up, down):  2.131E-01 0.000E+00

     negative rho (up, down):  2.131E-01 0.000E+00

     negative rho (up, down):  2.131E-01 0.000E+00

     negative rho (up, down):  2.131E-01 0.000E+00

     negative rho (up, down):  2.131E-01 0.000E+00

     negative rho (up, down):  2.131E-01 0.000E+00

     negative rho (up, down):  2.131E-01 0.000E+00

     negative rho (up, down):  2.131E-01 0.000E+00

     negative rho (up, down):  2.131E-01 0.000E+00

     negative rho (up, down):  2.131E-01 0.000E+00

     negative rho (up, down):  2.131E-01 0.000E+00

     negative rho (up, down):  2.131E-01 0.000E+00

     negative rho (up, down):  2.131E-01 0.000E+00

     negative rho (up, down):  2.131E-01 0.000E+00

     negative rho (up, down):  2.131E-01 0.000E+00

     negative rho (up, down):  2.131E-01 0.000E+00

     negative rho (up, down):  2.131E-01 0.000E+00

     negative rho (up, down):  2.131E-01 0.000E+00

     negative rho (up, down):  2.131E-01 0.000E+00

     negative rho (up, down):  2.131E-01 0.000E+00

     negative rho (up, down):  2.131E-01 0.000E+00

     negative rho (up, down):  2.131E-01 0.000E+00

     negative rho (up, down):  2.131E-01 0.000E+00

     negative rho (up, down):  2.131E-01 0.000E+00

     negative rho (up, down):  2.131E-01 0.000E+00

     negative rho (up, down):  2.131E-01 0.000E+00

     negative rho (up, down):  2.131E-01 0.000E+00

     negative rho (up, down):  2.131E-01 0.000E+00

     negative rho (up, down):  2.131E-01 0.000E+00

     negative rho (up, down):  2.131E-01 0.000E+00

     negative rho (up, down):  2.131E-01 0.000E+00

     negative rho (up, down):  2.131E-01 0.000E+00

     negative rho (up, down):  2.131E-01 0.000E+00

     negative rho (up, down):  2.131E-01 0.000E+00

     negative rho (up, down):  2.131E-01 0.000E+00
 
     Adding external electric field

     Computed dipole along edir(3) : 
        Dipole               -0.2395 Ry au,         -0.6089 Debye
        Dipole field         -0.0004 Ry au
 
        Potential amp.        0.0397 Ry
        Total length         47.2555 bohr
 

     total cpu time spent up to now is      628.4 secs

     End of self-consistent calculation

          k = 0.0000 0.0000 0.0000 ( 27033 PWs)   bands (ev):

   -16.5765 -16.5729 -16.5729 -16.5379 -16.5345 -16.5345 -16.4932 -16.4901
   -16.4773 -16.4773 -16.4710 -16.4489 -16.4489 -16.4448 -16.4377 -16.4377
   -16.4294 -16.4211 -16.4211 -16.4186 -16.4186 -16.3979 -16.3979 -16.3963
   -16.3903 -16.3843 -16.3814 -16.3814 -16.3731 -16.3731 -16.3225 -16.3158
   -16.3158 -16.2884 -16.2884 -16.2767 -16.2767 -16.2751 -16.2751 -16.2551
   -16.1964 -16.1964 -16.1957 -16.1886 -16.1819 -16.1818 -16.1802 -16.1668
   -16.1668 -16.1582 -16.1582 -16.1546 -16.1488 -16.1488 -16.1326 -16.1326
   -16.1203 -16.0991 -16.0871 -16.0871 -10.4853  -9.4326  -7.9680  -6.9693
    -6.9501  -6.9500  -6.5502  -6.5362  -6.5361  -5.9332  -5.9331  -5.9024
    -3.0369  -2.6615  -2.6615  -2.3724  -1.8480  -1.6472  -1.6472  -1.6127
    -1.5316  -1.5316  -0.2278   1.2263   2.1803   2.1804   2.2136   2.2136
     2.2238   2.7732   3.6561   3.6562   3.6641   3.7296

          k = 0.0000 0.0278 0.0000 ( 27010 PWs)   bands (ev):

   -16.5669 -16.5554 -16.5533 -16.5302 -16.5176 -16.5146 -16.4851 -16.4809
   -16.4688 -16.4677 -16.4641 -16.4498 -16.4397 -16.4334 -16.4305 -16.4241
   -16.4239 -16.4197 -16.4140 -16.4108 -16.4030 -16.3983 -16.3962 -16.3904
   -16.3883 -16.3825 -16.3787 -16.3731 -16.3729 -16.3677 -16.3232 -16.3174
   -16.3152 -16.2975 -16.2919 -16.2870 -16.2833 -16.2788 -16.2741 -16.2656
   -16.2124 -16.2052 -16.2017 -16.1976 -16.1970 -16.1912 -16.1872 -16.1803
   -16.1767 -16.1693 -16.1672 -16.1600 -16.1582 -16.1539 -16.1453 -16.1375
   -16.1284 -16.1127 -16.1035 -16.0982 -10.3635  -9.3158  -7.8667  -7.6169
    -7.1153  -7.1036  -6.8420  -6.5339  -6.5237  -5.9808  -5.8973  -5.8774
    -2.7789  -2.4200  -2.2799  -2.1176  -1.7264  -1.5949  -1.4759  -1.1990
    -1.0875  -0.6453  -0.1394   0.9885   1.4556   1.7196   2.0855   2.5635
     2.6758   2.9526   3.0108   3.0251   3.5862   3.7023

          k = 0.0000 0.0556 0.0000 ( 26980 PWs)   bands (ev):

   -16.5469 -16.5150 -16.5057 -16.5039 -16.4875 -16.4735 -16.4675 -16.4643
   -16.4521 -16.4440 -16.4430 -16.4345 -16.4282 -16.4223 -16.4205 -16.4128
   -16.4114 -16.4105 -16.3974 -16.3904 -16.3872 -16.3827 -16.3813 -16.3736
   -16.3688 -16.3669 -16.3644 -16.3644 -16.3603 -16.3428 -16.3238 -16.3220
   -16.3220 -16.3156 -16.3113 -16.3086 -16.3008 -16.2956 -16.2749 -16.2611
   -16.2524 -16.2422 -16.2380 -16.2317 -16.2266 -16.2234 -16.2157 -16.1952
   -16.1932 -16.1854 -16.1829 -16.1822 -16.1762 -16.1707 -16.1658 -16.1658
   -16.1572 -16.1467 -16.1173 -16.1053  -9.9985  -8.9686  -8.5717  -7.6541
    -7.5367  -7.3175  -7.3135  -6.6008  -6.5816  -6.4357  -5.8396  -5.8269
    -2.2573  -1.7671  -1.7205  -1.2725  -1.0617  -0.8899  -0.6288  -0.5076
    -0.4402  -0.1353   0.5467   1.0014   1.0626   1.2370   1.5917   2.0032
     2.1382   2.3779   2.4240   2.8019   2.9979   3.1183

          k = 0.0000-0.0835 0.0000 ( 26962 PWs)   bands (ev):

   -16.5281 -16.5072 -16.4910 -16.4870 -16.4678 -16.4617 -16.4528 -16.4482
   -16.4311 -16.4278 -16.4239 -16.4229 -16.4115 -16.4087 -16.4047 -16.4028
   -16.4012 -16.4007 -16.3940 -16.3895 -16.3803 -16.3786 -16.3657 -16.3650
   -16.3647 -16.3600 -16.3576 -16.3571 -16.3539 -16.3448 -16.3421 -16.3403
   -16.3263 -16.3101 -16.3036 -16.2988 -16.2972 -16.2912 -16.2878 -16.2869
   -16.2665 -16.2575 -16.2555 -16.2442 -16.2398 -16.2357 -16.2306 -16.2232
   -16.2216 -16.2122 -16.2086 -16.2065 -16.1951 -16.1808 -16.1798 -16.1714
   -16.1596 -16.1538 -16.1177 -16.1057  -9.4098  -9.3796  -8.4400  -8.3451
    -7.4096  -7.3966  -7.0857  -7.0198  -6.6294  -6.6213  -5.8213  -5.8116
    -1.9089  -1.0369  -0.9771  -0.9567  -0.9436  -0.9122  -0.4153  -0.1642
     0.1050   0.4814   0.4962   0.7842   1.1290   1.7150   1.7469   1.7478
     2.0498   2.1154   2.1957   2.2384   2.4505   2.5288

          k = 0.0241-0.0139 0.0000 ( 27010 PWs)   bands (ev):

   -16.5669 -16.5554 -16.5533 -16.5302 -16.5176 -16.5146 -16.4851 -16.4809
   -16.4688 -16.4677 -16.4641 -16.4498 -16.4397 -16.4334 -16.4305 -16.4241
   -16.4239 -16.4197 -16.4140 -16.4107 -16.4030 -16.3983 -16.3962 -16.3904
   -16.3883 -16.3825 -16.3787 -16.3731 -16.3729 -16.3677 -16.3232 -16.3174
   -16.3151 -16.2975 -16.2920 -16.2870 -16.2833 -16.2788 -16.2741 -16.2656
   -16.2124 -16.2052 -16.2017 -16.1976 -16.1970 -16.1912 -16.1872 -16.1803
   -16.1767 -16.1693 -16.1672 -16.1600 -16.1582 -16.1539 -16.1453 -16.1375
   -16.1284 -16.1127 -16.1035 -16.0982 -10.3635  -9.3158  -7.8667  -7.6169
    -7.1153  -7.1036  -6.8420  -6.5339  -6.5237  -5.9808  -5.8973  -5.8775
    -2.7789  -2.4200  -2.2799  -2.1176  -1.7264  -1.5949  -1.4759  -1.1990
    -1.0875  -0.6453  -0.1394   0.9885   1.4557   1.7197   2.0855   2.5635
     2.6758   2.9526   3.0108   3.0251   3.5862   3.7024

          k = 0.0241 0.0139 0.0000 ( 27010 PWs)   bands (ev):

   -16.5669 -16.5554 -16.5533 -16.5301 -16.5176 -16.5146 -16.4851 -16.4809
   -16.4688 -16.4677 -16.4641 -16.4498 -16.4397 -16.4334 -16.4305 -16.4241
   -16.4239 -16.4197 -16.4140 -16.4108 -16.4030 -16.3983 -16.3962 -16.3904
   -16.3883 -16.3825 -16.3787 -16.3731 -16.3729 -16.3677 -16.3232 -16.3174
   -16.3151 -16.2975 -16.2919 -16.2870 -16.2833 -16.2788 -16.2741 -16.2656
   -16.2124 -16.2052 -16.2017 -16.1976 -16.1970 -16.1912 -16.1872 -16.1803
   -16.1767 -16.1693 -16.1672 -16.1600 -16.1582 -16.1539 -16.1453 -16.1375
   -16.1284 -16.1127 -16.1035 -16.0982 -10.3635  -9.3158  -7.8667  -7.6169
    -7.1153  -7.1036  -6.8420  -6.5339  -6.5237  -5.9808  -5.8973  -5.8775
    -2.7788  -2.4200  -2.2799  -2.1176  -1.7264  -1.5949  -1.4760  -1.1990
    -1.0875  -0.6453  -0.1394   0.9885   1.4557   1.7196   2.0855   2.5635
     2.6758   2.9525   3.0108   3.0251   3.5862   3.7023

          k = 0.0241 0.0417 0.0000 ( 26981 PWs)   bands (ev):

   -16.5419 -16.5398 -16.5116 -16.5073 -16.5048 -16.4749 -16.4722 -16.4593
   -16.4557 -16.4528 -16.4509 -16.4496 -16.4326 -16.4284 -16.4270 -16.4261
   -16.4092 -16.4017 -16.3966 -16.3949 -16.3924 -16.3883 -16.3858 -16.3811
   -16.3793 -16.3748 -16.3691 -16.3688 -16.3659 -16.3462 -16.3220 -16.3175
   -16.3165 -16.3135 -16.3044 -16.3027 -16.3004 -16.2859 -16.2850 -16.2609
   -16.2411 -16.2311 -16.2292 -16.2205 -16.2164 -16.2081 -16.1989 -16.1938
   -16.1907 -16.1859 -16.1829 -16.1785 -16.1702 -16.1638 -16.1608 -16.1563
   -16.1350 -16.1321 -16.1195 -16.1175 -10.1201  -9.0834  -8.0363  -8.0076
    -7.6564  -7.1780  -7.1137  -6.6882  -6.3201  -6.1298  -6.0970  -5.8184
    -2.4670  -2.0777  -1.5849  -1.4828  -1.3087  -1.2172  -0.9013  -0.8405
    -0.4045   0.0952   0.2492   0.8418   0.9166   1.1765   1.8081   1.9558
     2.4825   2.7366   2.7608   3.1376   3.2349   3.2472

          k = 0.0241-0.0974 0.0000 ( 26956 PWs)   bands (ev):

   -16.5191 -16.4919 -16.4886 -16.4792 -16.4698 -16.4636 -16.4596 -16.4426
   -16.4389 -16.4369 -16.4295 -16.4267 -16.4226 -16.4178 -16.4130 -16.4087
   -16.4001 -16.3995 -16.3957 -16.3894 -16.3809 -16.3746 -16.3718 -16.3662
   -16.3617 -16.3584 -16.3555 -16.3531 -16.3492 -16.3446 -16.3351 -16.3281
   -16.3223 -16.3172 -16.3139 -16.3092 -16.3029 -16.2861 -16.2804 -16.2783
   -16.2703 -16.2604 -16.2578 -16.2536 -16.2479 -16.2336 -16.2297 -16.2172
   -16.2114 -16.2046 -16.2009 -16.1979 -16.1883 -16.1800 -16.1704 -16.1665
   -16.1603 -16.1541 -16.1327 -16.1198  -9.6354  -8.9226  -8.6221  -8.2358
    -7.9473  -7.3380  -7.2336  -6.6851  -6.5831  -6.2131  -6.1284  -5.7609
    -1.9944  -1.5391  -1.0536  -0.8787  -0.6681  -0.5998  -0.3571  -0.2292
     0.1205   0.2583   0.6411   0.7928   0.9622   1.0681   1.5608   1.7099
     1.8886   2.4754   2.5866   2.6234   2.7571   2.9271

          k = 0.0241-0.0696 0.0000 ( 26956 PWs)   bands (ev):

   -16.5191 -16.4919 -16.4886 -16.4792 -16.4698 -16.4636 -16.4596 -16.4426
   -16.4389 -16.4369 -16.4295 -16.4267 -16.4226 -16.4178 -16.4130 -16.4087
   -16.4001 -16.3995 -16.3957 -16.3894 -16.3809 -16.3746 -16.3718 -16.3662
   -16.3617 -16.3584 -16.3555 -16.3531 -16.3492 -16.3446 -16.3351 -16.3281
   -16.3223 -16.3172 -16.3139 -16.3092 -16.3029 -16.2861 -16.2804 -16.2783
   -16.2703 -16.2604 -16.2579 -16.2536 -16.2479 -16.2336 -16.2297 -16.2172
   -16.2114 -16.2046 -16.2009 -16.1979 -16.1883 -16.1800 -16.1704 -16.1665
   -16.1603 -16.1541 -16.1327 -16.1198  -9.6354  -8.9226  -8.6221  -8.2358
    -7.9472  -7.3380  -7.2336  -6.6851  -6.5831  -6.2131  -6.1284  -5.7609
    -1.9945  -1.5391  -1.0536  -0.8787  -0.6681  -0.5998  -0.3571  -0.2292
     0.1205   0.2583   0.6411   0.7927   0.9622   1.0681   1.5608   1.7099
     1.8886   2.4754   2.5866   2.6234   2.7570   2.9271

          k = 0.0241-0.0417 0.0000 ( 26981 PWs)   bands (ev):

   -16.5419 -16.5398 -16.5116 -16.5073 -16.5048 -16.4749 -16.4722 -16.4593
   -16.4557 -16.4528 -16.4509 -16.4496 -16.4326 -16.4284 -16.4270 -16.4261
   -16.4092 -16.4017 -16.3966 -16.3949 -16.3924 -16.3883 -16.3858 -16.3811
   -16.3793 -16.3748 -16.3691 -16.3688 -16.3659 -16.3462 -16.3220 -16.3175
   -16.3165 -16.3135 -16.3044 -16.3027 -16.3004 -16.2859 -16.2850 -16.2609
   -16.2411 -16.2311 -16.2292 -16.2205 -16.2164 -16.2081 -16.1989 -16.1937
   -16.1906 -16.1859 -16.1829 -16.1785 -16.1702 -16.1638 -16.1608 -16.1563
   -16.1350 -16.1321 -16.1195 -16.1175 -10.1201  -9.0834  -8.0363  -8.0076
    -7.6564  -7.1781  -7.1137  -6.6882  -6.3201  -6.1298  -6.0970  -5.8185
    -2.4670  -2.0778  -1.5849  -1.4828  -1.3087  -1.2172  -0.9013  -0.8404
    -0.4045   0.0952   0.2492   0.8418   0.9166   1.1765   1.8081   1.9558
     2.4825   2.7367   2.7607   3.1376   3.2349   3.2472

          k = 0.0482-0.0278 0.0000 ( 26980 PWs)   bands (ev):

   -16.5469 -16.5150 -16.5057 -16.5039 -16.4875 -16.4735 -16.4675 -16.4643
   -16.4521 -16.4440 -16.4430 -16.4345 -16.4282 -16.4223 -16.4205 -16.4128
   -16.4114 -16.4105 -16.3974 -16.3904 -16.3872 -16.3827 -16.3813 -16.3736
   -16.3688 -16.3669 -16.3644 -16.3643 -16.3603 -16.3428 -16.3238 -16.3220
   -16.3220 -16.3156 -16.3113 -16.3086 -16.3008 -16.2956 -16.2749 -16.2611
   -16.2524 -16.2422 -16.2380 -16.2317 -16.2266 -16.2234 -16.2157 -16.1952
   -16.1932 -16.1855 -16.1829 -16.1822 -16.1762 -16.1707 -16.1658 -16.1658
   -16.1572 -16.1467 -16.1173 -16.1053  -9.9985  -8.9686  -8.5717  -7.6542
    -7.5367  -7.3174  -7.3135  -6.6008  -6.5816  -6.4357  -5.8396  -5.8269
    -2.2573  -1.7671  -1.7205  -1.2726  -1.0617  -0.8899  -0.6289  -0.5075
    -0.4402  -0.1352   0.5467   1.0014   1.0627   1.2370   1.5917   2.0032
     2.1381   2.3779   2.4240   2.8019   2.9979   3.1183

          k = 0.0482 0.0000 0.0000 ( 26981 PWs)   bands (ev):

   -16.5419 -16.5398 -16.5116 -16.5073 -16.5048 -16.4749 -16.4722 -16.4593
   -16.4557 -16.4528 -16.4509 -16.4496 -16.4326 -16.4284 -16.4270 -16.4261
   -16.4092 -16.4017 -16.3966 -16.3949 -16.3924 -16.3883 -16.3858 -16.3811
   -16.3793 -16.3748 -16.3691 -16.3688 -16.3659 -16.3462 -16.3220 -16.3175
   -16.3165 -16.3135 -16.3044 -16.3027 -16.3004 -16.2859 -16.2850 -16.2609
   -16.2411 -16.2311 -16.2292 -16.2205 -16.2164 -16.2081 -16.1989 -16.1937
   -16.1906 -16.1859 -16.1829 -16.1785 -16.1702 -16.1638 -16.1608 -16.1563
   -16.1350 -16.1321 -16.1195 -16.1175 -10.1201  -9.0834  -8.0363  -8.0076
    -7.6564  -7.1781  -7.1136  -6.6882  -6.3201  -6.1298  -6.0970  -5.8185
    -2.4670  -2.0777  -1.5849  -1.4828  -1.3087  -1.2172  -0.9012  -0.8405
    -0.4045   0.0952   0.2492   0.8418   0.9166   1.1765   1.8081   1.9558
     2.4825   2.7367   2.7608   3.1376   3.2349   3.2472

          k = 0.0482 0.0278 0.0000 ( 26980 PWs)   bands (ev):

   -16.5469 -16.5150 -16.5057 -16.5039 -16.4875 -16.4735 -16.4675 -16.4643
   -16.4521 -16.4440 -16.4430 -16.4345 -16.4282 -16.4223 -16.4205 -16.4128
   -16.4114 -16.4105 -16.3974 -16.3904 -16.3872 -16.3827 -16.3813 -16.3736
   -16.3688 -16.3669 -16.3644 -16.3644 -16.3603 -16.3428 -16.3238 -16.3220
   -16.3220 -16.3156 -16.3113 -16.3086 -16.3008 -16.2956 -16.2749 -16.2611
   -16.2524 -16.2422 -16.2380 -16.2317 -16.2266 -16.2234 -16.2157 -16.1952
   -16.1932 -16.1854 -16.1829 -16.1822 -16.1762 -16.1707 -16.1658 -16.1658
   -16.1572 -16.1467 -16.1173 -16.1053  -9.9985  -8.9686  -8.5717  -7.6541
    -7.5367  -7.3174  -7.3136  -6.6008  -6.5816  -6.4357  -5.8395  -5.8269
    -2.2573  -1.7671  -1.7205  -1.2725  -1.0617  -0.8899  -0.6288  -0.5076
    -0.4402  -0.1353   0.5466   1.0015   1.0626   1.2370   1.5916   2.0032
     2.1382   2.3779   2.4240   2.8018   2.9980   3.1183

          k = 0.0482-0.1113 0.0000 ( 26956 PWs)   bands (ev):

   -16.5191 -16.4919 -16.4886 -16.4792 -16.4698 -16.4636 -16.4596 -16.4426
   -16.4389 -16.4369 -16.4295 -16.4267 -16.4226 -16.4178 -16.4130 -16.4087
   -16.4001 -16.3995 -16.3957 -16.3894 -16.3809 -16.3746 -16.3718 -16.3662
   -16.3617 -16.3584 -16.3555 -16.3531 -16.3492 -16.3446 -16.3351 -16.3281
   -16.3223 -16.3172 -16.3139 -16.3092 -16.3029 -16.2861 -16.2804 -16.2783
   -16.2703 -16.2604 -16.2578 -16.2536 -16.2479 -16.2336 -16.2297 -16.2172
   -16.2114 -16.2046 -16.2009 -16.1979 -16.1883 -16.1801 -16.1704 -16.1665
   -16.1603 -16.1541 -16.1327 -16.1198  -9.6354  -8.9226  -8.6221  -8.2358
    -7.9473  -7.3380  -7.2336  -6.6851  -6.5831  -6.2131  -6.1284  -5.7609
    -1.9944  -1.5391  -1.0536  -0.8787  -0.6681  -0.5998  -0.3571  -0.2292
     0.1205   0.2583   0.6411   0.7927   0.9622   1.0681   1.5608   1.7099
     1.8886   2.4754   2.5866   2.6234   2.7570   2.9271

          k = 0.0482-0.0835 0.0000 ( 26934 PWs)   bands (ev):

   -16.4814 -16.4784 -16.4627 -16.4600 -16.4545 -16.4540 -16.4490 -16.4463
   -16.4450 -16.4432 -16.4391 -16.4390 -16.4168 -16.4152 -16.4138 -16.4134
   -16.4078 -16.4005 -16.3851 -16.3842 -16.3809 -16.3771 -16.3590 -16.3583
   -16.3558 -16.3475 -16.3467 -16.3451 -16.3438 -16.3366 -16.3320 -16.3286
   -16.3245 -16.3196 -16.3163 -16.3073 -16.3032 -16.2900 -16.2884 -16.2882
   -16.2801 -16.2736 -16.2710 -16.2610 -16.2607 -16.2577 -16.2352 -16.2306
   -16.2112 -16.2041 -16.2012 -16.1983 -16.1901 -16.1703 -16.1700 -16.1699
   -16.1623 -16.1581 -16.1565 -16.1444  -9.0647  -9.0392  -9.0123  -8.1424
    -8.0301  -7.9961  -6.8264  -6.7444  -6.7405  -6.0684  -5.9539  -5.9525
    -1.8006  -1.0975  -1.0680  -0.8575  -0.6916  -0.6890  -0.2458   0.4144
     0.4155   0.4697   0.6791   0.6905   1.0864   1.4177   1.4305   1.8334
     2.0602   2.0693   2.0798   2.3790   2.3889   2.9989

          k = 0.0482-0.0556 0.0000 ( 26956 PWs)   bands (ev):

   -16.5191 -16.4919 -16.4886 -16.4792 -16.4698 -16.4636 -16.4596 -16.4426
[...]
   -16.2935 -16.2887 -16.2865 -16.2811 -16.2727 -16.2661 -16.2642 -16.2606
   -16.2556 -16.2492 -16.2474 -16.2418 -16.2392 -16.2334 -16.2279 -16.2262
   -16.2147 -16.2116 -16.2065 -16.2028 -16.1938 -16.1814 -16.1763 -16.1747
   -16.1643 -16.1590 -16.1554 -16.1477 -16.1392 -16.1297 -16.1266 -16.1168
   -16.1063 -16.1031 -16.0980 -16.0940 -16.0857 -16.0766 -16.0664 -16.0633
   -16.0571 -16.0504 -16.0313 -16.0146  -9.4173  -8.7222  -8.5539  -8.0338
    -7.8592  -7.3157  -7.1719  -6.6870  -6.4074  -6.1989  -6.0064  -5.6617
    -2.3055  -1.3625  -1.0185  -0.7255  -0.5375  -0.4238  -0.2117  -0.0773
     0.3118   0.4013   0.7512   0.8651   1.0384   1.1734   1.6367   1.7310
     2.0980   2.5258   2.5998   2.6914   2.8231   3.0250

          k = 0.0241-0.0417 0.0000 ( 26981 PWs)   bands (ev):

   -16.4452 -16.4275 -16.4052 -16.4009 -16.3936 -16.3731 -16.3674 -16.3539
   -16.3497 -16.3398 -16.3341 -16.3324 -16.3254 -16.3216 -16.3158 -16.3135
   -16.2953 -16.2919 -16.2898 -16.2829 -16.2771 -16.2747 -16.2718 -16.2709
   -16.2680 -16.2652 -16.2607 -16.2517 -16.2500 -16.2330 -16.2248 -16.2206
   -16.2188 -16.2152 -16.2017 -16.1947 -16.1904 -16.1762 -16.1726 -16.1574
   -16.1434 -16.1281 -16.1228 -16.1186 -16.1120 -16.1025 -16.0991 -16.0899
   -16.0877 -16.0831 -16.0797 -16.0756 -16.0659 -16.0604 -16.0579 -16.0526
   -16.0310 -16.0300 -16.0133 -16.0117  -9.8976  -9.0090  -7.8621  -7.7971
    -7.6839  -7.1152  -6.9757  -6.5163  -6.1847  -6.1156  -6.0582  -5.7335
    -2.7310  -1.9351  -1.5107  -1.2908  -1.2281  -1.0913  -0.8072  -0.6768
    -0.2449   0.1541   0.3782   0.8320   0.9561   1.3719   2.0132   2.0945
     2.5310   2.6666   2.7467   3.2373   3.4019   3.4301

          k = 0.0482-0.0278 0.0000 ( 26980 PWs)   bands (ev):

   -16.4459 -16.4110 -16.3983 -16.3863 -16.3785 -16.3720 -16.3601 -16.3572
   -16.3476 -16.3341 -16.3268 -16.3268 -16.3187 -16.3116 -16.3076 -16.3016
   -16.2941 -16.2909 -16.2860 -16.2828 -16.2823 -16.2701 -16.2679 -16.2641
   -16.2615 -16.2577 -16.2536 -16.2512 -16.2456 -16.2292 -16.2260 -16.2234
   -16.2222 -16.2172 -16.2110 -16.2017 -16.1843 -16.1840 -16.1715 -16.1564
   -16.1509 -16.1379 -16.1321 -16.1318 -16.1204 -16.1174 -16.1135 -16.0974
   -16.0896 -16.0824 -16.0796 -16.0795 -16.0730 -16.0659 -16.0621 -16.0609
   -16.0532 -16.0426 -16.0148 -15.9999  -9.7770  -8.8985  -8.3605  -7.6723
    -7.4721  -7.1275  -7.1111  -6.5437  -6.4570  -6.3963  -5.7882  -5.7617
    -2.5510  -1.5723  -1.5504  -1.2860  -0.8986  -0.7050  -0.5045  -0.3703
    -0.3697   0.0095   0.6464   1.0754   1.2307   1.2551   1.7547   2.0810
     2.2177   2.4748   2.5272   2.8806   2.9522   3.2008

          k = 0.0482 0.0000 0.0000 ( 26981 PWs)   bands (ev):

   -16.4452 -16.4275 -16.4052 -16.4009 -16.3936 -16.3732 -16.3674 -16.3539
   -16.3497 -16.3398 -16.3341 -16.3324 -16.3254 -16.3216 -16.3158 -16.3135
   -16.2953 -16.2919 -16.2898 -16.2829 -16.2772 -16.2746 -16.2718 -16.2709
   -16.2680 -16.2652 -16.2607 -16.2517 -16.2500 -16.2330 -16.2248 -16.2207
   -16.2187 -16.2152 -16.2017 -16.1947 -16.1904 -16.1762 -16.1726 -16.1574
   -16.1434 -16.1281 -16.1228 -16.1186 -16.1120 -16.1025 -16.0991 -16.0899
   -16.0877 -16.0831 -16.0797 -16.0756 -16.0659 -16.0604 -16.0578 -16.0525
   -16.0310 -16.0300 -16.0133 -16.0117  -9.8976  -9.0089  -7.8622  -7.7970
    -7.6839  -7.1155  -6.9754  -6.5163  -6.1848  -6.1156  -6.0580  -5.7337
    -2.7307  -1.9351  -1.5106  -1.2909  -1.2281  -1.0913  -0.8071  -0.6770
    -0.2449   0.1541   0.3780   0.8320   0.9561   1.3719   2.0130   2.0946
     2.5309   2.6665   2.7467   3.2374   3.4019   3.4302

          k = 0.0482 0.0278 0.0000 ( 26980 PWs)   bands (ev):

   -16.4460 -16.4110 -16.3983 -16.3862 -16.3784 -16.3720 -16.3601 -16.3572
   -16.3477 -16.3341 -16.3268 -16.3267 -16.3187 -16.3116 -16.3076 -16.3016
   -16.2941 -16.2910 -16.2860 -16.2828 -16.2823 -16.2700 -16.2680 -16.2640
   -16.2615 -16.2577 -16.2536 -16.2512 -16.2457 -16.2292 -16.2259 -16.2234
   -16.2222 -16.2172 -16.2110 -16.2017 -16.1842 -16.1841 -16.1715 -16.1564
   -16.1509 -16.1379 -16.1321 -16.1318 -16.1204 -16.1174 -16.1135 -16.0974
   -16.0896 -16.0824 -16.0796 -16.0795 -16.0730 -16.0659 -16.0621 -16.0609
   -16.0532 -16.0426 -16.0148 -15.9999  -9.7770  -8.8985  -8.3605  -7.6721
    -7.4723  -7.1273  -7.1113  -6.5439  -6.4571  -6.3961  -5.7881  -5.7619
    -2.5504  -1.5722  -1.5504  -1.2858  -0.8987  -0.7052  -0.5046  -0.3702
    -0.3695   0.0091   0.6463   1.0757   1.2302   1.2552   1.7541   2.0811
     2.2178   2.4751   2.5270   2.8802   2.9524   3.2010

          k = 0.0482-0.1113 0.0000 ( 26956 PWs)   bands (ev):

   -16.4206 -16.3868 -16.3805 -16.3681 -16.3567 -16.3536 -16.3479 -16.3354
   -16.3276 -16.3192 -16.3185 -16.3140 -16.3083 -16.3072 -16.3044 -16.3002
   -16.2934 -16.2886 -16.2865 -16.2811 -16.2727 -16.2662 -16.2642 -16.2606
   -16.2556 -16.2492 -16.2474 -16.2418 -16.2392 -16.2334 -16.2279 -16.2262
   -16.2147 -16.2116 -16.2065 -16.2028 -16.1938 -16.1814 -16.1764 -16.1747
   -16.1643 -16.1590 -16.1554 -16.1477 -16.1392 -16.1297 -16.1266 -16.1168
   -16.1063 -16.1031 -16.0980 -16.0940 -16.0857 -16.0766 -16.0664 -16.0633
   -16.0571 -16.0504 -16.0313 -16.0146  -9.4173  -8.7222  -8.5539  -8.0337
    -7.8593  -7.3157  -7.1719  -6.6870  -6.4074  -6.1988  -6.0065  -5.6617
    -2.3049  -1.3625  -1.0183  -0.7255  -0.5376  -0.4238  -0.2117  -0.0775
     0.3117   0.4012   0.7511   0.8652   1.0385   1.1733   1.6367   1.7309
     2.0977   2.5257   2.5996   2.6917   2.8228   3.0248

          k = 0.0482-0.0835 0.0000 ( 26934 PWs)   bands (ev):

   -16.3876 -16.3754 -16.3579 -16.3504 -16.3420 -16.3402 -16.3363 -16.3335
   -16.3282 -16.3241 -16.3223 -16.3222 -16.3156 -16.3102 -16.3049 -16.3043
   -16.2966 -16.2885 -16.2781 -16.2759 -16.2710 -16.2678 -16.2527 -16.2518
   -16.2503 -16.2381 -16.2346 -16.2333 -16.2325 -16.2319 -16.2270 -16.2243
   -16.2237 -16.2168 -16.2064 -16.2013 -16.1970 -16.1863 -16.1828 -16.1800
   -16.1775 -16.1663 -16.1611 -16.1560 -16.1547 -16.1542 -16.1334 -16.1234
   -16.1092 -16.1065 -16.0998 -16.0983 -16.0835 -16.0672 -16.0659 -16.0650
   -16.0611 -16.0550 -16.0511 -16.0414  -8.8565  -8.8417  -8.7843  -8.1874
    -7.8883  -7.8433  -6.8603  -6.7600  -6.7109  -5.9071  -5.8423  -5.8152
    -2.1736  -0.9728  -0.8047  -0.6280  -0.5988  -0.5663  -0.2258   0.3885
     0.5930   0.6232   0.8234   0.8645   1.1900   1.5582   1.6284   1.9995
     2.0033   2.1432   2.1962   2.4166   2.4284   3.2952

          k = 0.0482-0.0556 0.0000 ( 26956 PWs)   bands (ev):

   -16.4205 -16.3868 -16.3805 -16.3682 -16.3567 -16.3536 -16.3479 -16.3353
   -16.3277 -16.3193 -16.3185 -16.3140 -16.3083 -16.3072 -16.3044 -16.3002
   -16.2934 -16.2887 -16.2865 -16.2811 -16.2727 -16.2661 -16.2642 -16.2606
   -16.2556 -16.2492 -16.2474 -16.2418 -16.2392 -16.2334 -16.2278 -16.2262
   -16.2147 -16.2116 -16.2065 -16.2028 -16.1938 -16.1814 -16.1763 -16.1747
   -16.1643 -16.1590 -16.1554 -16.1476 -16.1392 -16.1297 -16.1266 -16.1168
   -16.1063 -16.1031 -16.0980 -16.0940 -16.0857 -16.0766 -16.0664 -16.0633
   -16.0571 -16.0504 -16.0313 -16.0146  -9.4173  -8.7222  -8.5540  -8.0337
    -7.8594  -7.3156  -7.1718  -6.6869  -6.4074  -6.1989  -6.0064  -5.6617
    -2.3057  -1.3625  -1.0186  -0.7255  -0.5376  -0.4237  -0.2117  -0.0772
     0.3118   0.4014   0.7513   0.8652   1.0383   1.1735   1.6369   1.7309
     2.0982   2.5258   2.5996   2.6914   2.8231   3.0251

          k =-0.0723 0.0417 0.0000 ( 26962 PWs)   bands (ev):

   -16.4325 -16.3938 -16.3815 -16.3805 -16.3540 -16.3485 -16.3407 -16.3243
   -16.3220 -16.3178 -16.3137 -16.3113 -16.3074 -16.3023 -16.2956 -16.2955
   -16.2913 -16.2913 -16.2893 -16.2835 -16.2753 -16.2663 -16.2661 -16.2608
   -16.2561 -16.2499 -16.2485 -16.2424 -16.2397 -16.2331 -16.2306 -16.2285
   -16.2214 -16.2089 -16.2013 -16.1925 -16.1876 -16.1850 -16.1793 -16.1767
   -16.1669 -16.1568 -16.1559 -16.1414 -16.1355 -16.1306 -16.1264 -16.1192
   -16.1175 -16.1036 -16.1035 -16.0997 -16.0992 -16.0806 -16.0751 -16.0661
   -16.0584 -16.0508 -16.0158 -16.0007  -9.2002  -9.1580  -8.4379  -8.1964
    -7.2501  -7.1909  -7.1045  -7.0182  -6.5281  -6.4996  -5.7774  -5.7541
    -2.2295  -0.9416  -0.8330  -0.8176  -0.7925  -0.6652  -0.3737  -0.0680
     0.2926   0.6598   0.6780   0.9246   1.2433   1.7442   1.8537   1.8678
     2.0768   2.1325   2.2987   2.3701   2.4927   2.5609

          k =-0.0723 0.0696 0.0000 ( 26956 PWs)   bands (ev):

   -16.4205 -16.3868 -16.3805 -16.3682 -16.3567 -16.3536 -16.3479 -16.3353
   -16.3277 -16.3193 -16.3185 -16.3140 -16.3083 -16.3072 -16.3044 -16.3002
   -16.2934 -16.2887 -16.2865 -16.2811 -16.2727 -16.2662 -16.2642 -16.2606
   -16.2556 -16.2492 -16.2474 -16.2418 -16.2392 -16.2334 -16.2279 -16.2262
   -16.2147 -16.2116 -16.2065 -16.2028 -16.1938 -16.1814 -16.1763 -16.1747
   -16.1643 -16.1590 -16.1554 -16.1476 -16.1392 -16.1297 -16.1266 -16.1168
   -16.1063 -16.1031 -16.0980 -16.0940 -16.0857 -16.0766 -16.0664 -16.0633
   -16.0571 -16.0504 -16.0313 -16.0146  -9.4173  -8.7222  -8.5540  -8.0338
    -7.8594  -7.3154  -7.1721  -6.6869  -6.4074  -6.1989  -6.0064  -5.6618
    -2.3055  -1.3625  -1.0185  -0.7255  -0.5377  -0.4238  -0.2116  -0.0773
     0.3116   0.4015   0.7513   0.8654   1.0384   1.1731   1.6368   1.7310
     2.0980   2.5259   2.5995   2.6917   2.8231   3.0252

          k =-0.0723 0.0974 0.0000 ( 26956 PWs)   bands (ev):

   -16.4206 -16.3868 -16.3805 -16.3681 -16.3567 -16.3536 -16.3479 -16.3354
   -16.3276 -16.3193 -16.3185 -16.3140 -16.3083 -16.3072 -16.3044 -16.3002
   -16.2934 -16.2887 -16.2864 -16.2811 -16.2727 -16.2662 -16.2642 -16.2606
   -16.2556 -16.2492 -16.2474 -16.2418 -16.2392 -16.2334 -16.2279 -16.2262
   -16.2147 -16.2116 -16.2065 -16.2028 -16.1938 -16.1814 -16.1763 -16.1747
   -16.1643 -16.1590 -16.1554 -16.1477 -16.1392 -16.1297 -16.1266 -16.1168
   -16.1063 -16.1031 -16.0980 -16.0940 -16.0857 -16.0766 -16.0664 -16.0633
   -16.0571 -16.0504 -16.0313 -16.0146  -9.4173  -8.7222  -8.5539  -8.0338
    -7.8593  -7.3157  -7.1719  -6.6870  -6.4074  -6.1988  -6.0064  -5.6618
    -2.3051  -1.3625  -1.0184  -0.7255  -0.5376  -0.4238  -0.2117  -0.0775
     0.3118   0.4012   0.7511   0.8651   1.0385   1.1733   1.6366   1.7310
     2.0979   2.5258   2.5997   2.6917   2.8229   3.0249

          k =-0.0723-0.0417 0.0000 ( 26962 PWs)   bands (ev):

   -16.4326 -16.3937 -16.3815 -16.3804 -16.3541 -16.3485 -16.3406 -16.3242
   -16.3220 -16.3178 -16.3135 -16.3113 -16.3074 -16.3023 -16.2956 -16.2955
   -16.2913 -16.2913 -16.2893 -16.2836 -16.2755 -16.2663 -16.2661 -16.2608
   -16.2561 -16.2500 -16.2485 -16.2425 -16.2397 -16.2331 -16.2306 -16.2285
   -16.2214 -16.2088 -16.2013 -16.1925 -16.1876 -16.1850 -16.1793 -16.1767
   -16.1669 -16.1568 -16.1560 -16.1413 -16.1355 -16.1306 -16.1264 -16.1192
   -16.1175 -16.1036 -16.1035 -16.0997 -16.0992 -16.0806 -16.0751 -16.0661
   -16.0584 -16.0508 -16.0158 -16.0007  -9.2001  -9.1581  -8.4379  -8.1963
    -7.2501  -7.1910  -7.1043  -7.0184  -6.5280  -6.4997  -5.7772  -5.7542
    -2.2285  -0.9417  -0.8326  -0.8172  -0.7927  -0.6653  -0.3736  -0.0679
     0.2915   0.6599   0.6775   0.9246   1.2432   1.7448   1.8538   1.8676
     2.0761   2.1327   2.2989   2.3699   2.4928   2.5605

     the Fermi energy is     1.1530 ev

!    total energy              =   -1993.35753584 Ry
     Harris-Foulkes estimate   =   -1993.35756821 Ry
     estimated scf accuracy    <       0.00000430 Ry

     The total energy is the sum of the following terms:

     one-electron contribution =   -9133.65842873 Ry
     hartree contribution      =    4636.52029608 Ry
     xc contribution           =    -784.45284789 Ry
     ewald contribution        =    3288.27319063 Ry
     electric field correction =       0.00001128 Ry
     smearing contrib. (-TS)   =      -0.03975720 Ry

     convergence has been achieved in   9 iterations
 
 BEEF-vdW xc energy contributions
           1 :   -699.331134073264     
           2 :    649.608327640456     
           3 :   -562.039374996636     
           4 :    455.820522271602     
           5 :   -350.775690108209     
           6 :    261.379671487503     
           7 :   -193.603945466020     
           8 :    145.355442043687     
           9 :   -109.797163443457     
          10 :    79.7278375632546     
          11 :   -50.9776731026300     
          12 :    23.5007725914242     
          13 :  -0.122315008563874     
          14 :   -15.9772558771485     
          15 :    23.5162104339133     
          16 :   -23.9689997895742     
          17 :    20.7847799430115     
          18 :   -17.6130458346825     
          19 :    16.6122281474126     
          20 :   -17.7401034552111     
          21 :    19.2938035799177     
          22 :   -19.2661064997369     
          23 :    16.6823087866138     
          24 :   -12.1789053184939     
          25 :    7.57613485759271     
          26 :   -4.78250598290515     
          27 :    4.71024872377620     
          28 :   -6.81667095755540     
          29 :    9.48576953331246     
          30 :   -10.9821350836019     
          31 :   -55.8816501018462     
          32 :   -40.9537975782455     

     Forces acting on atoms (Ry/au):


     negative rho (up, down):  2.132E-01 0.000E+00
     atom    1 type  1   force =     0.00105649    0.00056984   -0.00989408
     atom    2 type  1   force =    -0.00104433    0.00059907   -0.00988379
     atom    3 type  1   force =     0.00000681   -0.00120742   -0.00986389
     atom    4 type  1   force =     0.00000105    0.00004586   -0.00685073
     atom    5 type  1   force =    -0.00002155    0.00051451    0.00679115
     atom    6 type  1   force =     0.00000152   -0.00001347    0.01311854
     atom    7 type  1   force =    -0.00045121   -0.00026400    0.00678888
     atom    8 type  1   force =     0.00045502   -0.00027090    0.00679349
     atom    9 type  1   force =    -0.00000246    0.00000406    0.00044398
     atom   10 type  1   force =    -0.00001527    0.00004418    0.00069800
     atom   11 type  1   force =     0.00003370   -0.00000436    0.00066098
     atom   12 type  1   force =    -0.00002910   -0.00002273    0.00071488
     atom   13 type  2   force =     0.00000933    0.00000537    0.00048258

     Total force =     0.025638     Total SCF correction =     0.013334
     SCF correction compared to forces is large: reduce conv_thr to get better values


     entering subroutine stress ...


     negative rho (up, down):  2.132E-01 0.000E+00
          total   stress  (Ry/bohr**3)                   (kbar)     P=    7.72
   0.00006826   0.00000001   0.00000001         10.04      0.00      0.00
   0.00000001   0.00006826  -0.00000000          0.00     10.04     -0.00
   0.00000001  -0.00000000   0.00002097          0.00     -0.00      3.09

 !ASE

     Writing output data file calc.save
 
     init_run     :     15.18s CPU     22.04s WALL (       1 calls)
     electrons    :    445.44s CPU    636.18s WALL (       1 calls)
     forces       :      6.80s CPU      7.54s WALL (       1 calls)
     stress       :     17.33s CPU     18.76s WALL (       1 calls)

     Called by init_run:
     wfcinit      :     10.89s CPU     16.66s WALL (       1 calls)
     potinit      :      2.10s CPU      2.90s WALL (       1 calls)

     Called by electrons:
     c_bands      :    309.49s CPU    446.84s WALL (      10 calls)
     sum_band     :     50.40s CPU     74.65s WALL (      10 calls)
     v_of_rho     :     17.68s CPU     25.55s WALL (      10 calls)
     newd         :      6.55s CPU      6.90s WALL (      10 calls)
     mix_rho      :      0.53s CPU      0.80s WALL (      10 calls)
     vdW_energy   :      3.32s CPU      3.67s WALL (      46 calls)
     vdW_ffts     :     53.29s CPU     74.10s WALL (      94 calls)
     vdW_v        :      9.87s CPU     13.18s WALL (      46 calls)

     Called by c_bands:
     init_us_2    :      0.92s CPU      0.96s WALL (     460 calls)
     cegterg      :    303.03s CPU    439.71s WALL (     200 calls)

     Called by *egterg:
     h_psi        :    232.20s CPU    365.33s WALL (     948 calls)
     s_psi        :      8.40s CPU      8.43s WALL (     948 calls)
     g_psi        :      0.52s CPU      0.52s WALL (     728 calls)
     cdiaghg      :     32.69s CPU     33.93s WALL (     908 calls)

     Called by h_psi:
     add_vuspsi   :      8.52s CPU      8.56s WALL (     948 calls)

     General routines
     calbec       :     17.17s CPU     20.27s WALL (    1188 calls)
     fft          :     79.93s CPU    111.47s WALL (    2767 calls)
     ffts         :      0.12s CPU      0.20s WALL (      20 calls)
     fftw         :    234.78s CPU    386.44s WALL (  119184 calls)
     interpolate  :      0.67s CPU      1.02s WALL (      20 calls)
     davcio       :      0.00s CPU      0.03s WALL (      20 calls)
 
     Parallel routines
     fft_scatter  :    283.12s CPU    463.00s WALL (  121971 calls)
 
     PWSCF        :  8m 5.57s CPU    11m25.96s WALL

 
   This run was terminated on:   6:47: 8  17Jan2018            

=------------------------------------------------------------------------------=
   JOB DONE.
=------------------------------------------------------------------------------=
Job  /afs/slac/g/suncat/bin/suncat-tsmpirun -x LD_LIBRARY_PATH -wdir /scratch/qe842467_SedKh pw.x -in pw.inp

TID   HOST_NAME   COMMAND_LINE            STATUS            TERMINATION_TIME
===== ========== ================  =======================  ===================
00000 suncat0100 pw.x -in pw.inp   Done                     01/17/2018 06:47:08
00001 suncat0100 pw.x -in pw.inp   Done                     01/17/2018 06:47:08
00002 suncat0100 pw.x -in pw.inp   Done                     01/17/2018 06:47:08
00003 suncat0100 pw.x -in pw.inp   Done                     01/17/2018 06:47:08
00004 suncat0100 pw.x -in pw.inp   Done                     01/17/2018 06:47:08
00005 suncat0100 pw.x -in pw.inp   Done                     01/17/2018 06:47:08
00006 suncat0100 pw.x -in pw.inp   Done                     01/17/2018 06:47:08
00007 suncat0100 pw.x -in pw.inp   Done                     01/17/2018 06:47:08
00008 suncat0283 pw.x -in pw.inp   Done                     01/17/2018 06:47:08
00009 suncat0283 pw.x -in pw.inp   Done                     01/17/2018 06:47:08
00010 suncat0283 pw.x -in pw.inp   Done                     01/17/2018 06:47:08
00011 suncat0283 pw.x -in pw.inp   Done                     01/17/2018 06:47:08
00012 suncat0283 pw.x -in pw.inp   Done                     01/17/2018 06:47:08
00013 suncat0283 pw.x -in pw.inp   Done                     01/17/2018 06:47:08
00014 suncat0283 pw.x -in pw.inp   Done                     01/17/2018 06:47:08
00015 suncat0283 pw.x -in pw.inp   Done                     01/17/2018 06:47:08
00016 suncat0282 pw.x -in pw.inp   Done                     01/17/2018 06:47:08
00017 suncat0282 pw.x -in pw.inp   Done                     01/17/2018 06:47:08
00018 suncat0282 pw.x -in pw.inp   Done                     01/17/2018 06:47:08
00019 suncat0282 pw.x -in pw.inp   Done                     01/17/2018 06:47:08
00020 suncat0282 pw.x -in pw.inp   Done                     01/17/2018 06:47:08
00021 suncat0282 pw.x -in pw.inp   Done                     01/17/2018 06:47:08
00022 suncat0282 pw.x -in pw.inp   Done                     01/17/2018 06:47:08
00023 suncat0282 pw.x -in pw.inp   Done                     01/17/2018 06:47:08
00024 suncat0214 pw.x -in pw.inp   Done                     01/17/2018 06:47:08
00025 suncat0214 pw.x -in pw.inp   Done                     01/17/2018 06:47:08
00026 suncat0214 pw.x -in pw.inp   Done                     01/17/2018 06:47:08
00027 suncat0214 pw.x -in pw.inp   Done                     01/17/2018 06:47:08
00028 suncat0214 pw.x -in pw.inp   Done                     01/17/2018 06:47:08
00029 suncat0214 pw.x -in pw.inp   Done                     01/17/2018 06:47:08
00030 suncat0214 pw.x -in pw.inp   Done                     01/17/2018 06:47:08
00031 suncat0214 pw.x -in pw.inp   Done                     01/17/2018 06:47:08
