  python dir          : /nfs/slac/g/suncatfs/sw/espv20/lib/python2.7/site-packages/espresso
  espresso dir        : /nfs/slac/g/suncatfs/sw/espv18/espresso-dynpy-beef/bin
  pseudo dir          : /afs/slac.stanford.edu/u/if/mamunm/psp/gbrv1.5pbe
  ase-espresso py git : ffa2778-git



     Program PWSCF v.5.1rc2 (svn rev. 11289) starts on 14Jan2018 at  2:13:12 

     This program is part of the open-source Quantum ESPRESSO suite
     for quantum simulation of materials; please cite
         "P. Giannozzi et al., J. Phys.:Condens. Matter 21 395502 (2009);
          URL http://www.quantum-espresso.org", 
     in publications or presentations arising from this work. More details at
     http://www.quantum-espresso.org/quote

     Parallel version (MPI), running on    32 processors
     R & G space division:  proc/nbgrp/npool/nimage =      32
     Reading input from pw.inp
     Message from routine read_cards :
     DEPRECATED: no units specified in CELL_PARAMETERS card

     Current dimensions of program PWSCF are:
     Max number of different atomic species (ntypx) = 10
     Max number of k-points (npk) =  40000
     Max angular momentum in pseudopotentials (lmaxx) =  3
     Presently stress not available with electric field


     **************************************************************************
     Initializing libbeef V0.1.1 with the BEEF-vdW functional.
     Citation: Wellendorff et al., PRB 85, 235149 (2012).
     **************************************************************************


     IMPORTANT: XC functional enforced from input :
     Exchange-correlation      = BEEF-VDW ( 1  4 27 13 2)
     Any further DFT definition will be discarded
     Please, verify this is what you really want


     Subspace diagonalization in iterative solution of the eigenvalue problem:
     a serial algorithm will be used

 
     Parallelization info
     --------------------
     sticks:   dense  smooth     PW     G-vecs:    dense   smooth      PW
     Min          89      35     10                16921     4265     672
     Max          90      36     12                16938     4304     683
     Sum        2869    1147    337               541807   137189   21637
 


     bravais-lattice index     =            0
     lattice parameter (alat)  =       1.8897  a.u.
     unit-cell volume          =    4552.2840 (a.u.)^3
     number of atoms/cell      =           13
     number of atomic types    =            2
     number of electrons       =       169.00
     number of Kohn-Sham states=           94
     kinetic-energy cutoff     =      36.7493  Ry
     charge density cutoff     =     367.4932  Ry
     convergence threshold     =      1.0E-05
     mixing beta               =       0.3000
     number of iterations used =           10  plain     mixing
     Exchange-correlation      = BEEF-VDW ( 1  4 27 13 2)
     nstep                     =           50


     celldm(1)=   1.889726  celldm(2)=   0.000000  celldm(3)=   0.000000
     celldm(4)=   0.000000  celldm(5)=   0.000000  celldm(6)=   0.000000

     crystal axes: (cart. coord. in units of alat)
               a(1) = (   5.627661   0.000000   0.000000 )  
               a(2) = (   2.813831   4.873698   0.000000 )  
               a(3) = (   0.000000   0.000000  24.594966 )  

     reciprocal axes: (cart. coord. in units 2 pi/alat)
               b(1) = (  0.177694 -0.102592  0.000000 )  
               b(2) = (  0.000000  0.205183  0.000000 )  
               b(3) = (  0.000000  0.000000  0.040659 )  


     PseudoPot. # 1 for Mo read from file:
     /afs/slac.stanford.edu/u/if/mamunm/psp/gbrv1.5pbe/Mo.UPF
     MD5 check sum: 30c4dcd161f5d35cd49bb5239c51a633
     Pseudo is Ultrasoft + core correction, Zval = 14.0
     Generated by new atomic code, or converted to UPF format
     Using radial grid of  889 points,  6 beta functions with: 
                l(1) =   0
                l(2) =   0
                l(3) =   1
                l(4) =   1
                l(5) =   2
                l(6) =   2
     Q(r) pseudized with  6 coefficients,  rinner =    1.000   1.000   1.000
                                                       1.000   1.000

     PseudoPot. # 2 for H  read from file:
     /afs/slac.stanford.edu/u/if/mamunm/psp/gbrv1.5pbe/H.UPF
     MD5 check sum: 761ae9a214b05c3daf00ab9f6b793d6f
     Pseudo is Ultrasoft, Zval =  1.0
     Generated by new atomic code, or converted to UPF format
     Using radial grid of  615 points,  2 beta functions with: 
                l(1) =   0
                l(2) =   0
     Q(r) pseudized with  8 coefficients,  rinner =    0.700

     vdW kernel table read from file vdW_kernel_table
     MD5 check sum: 095c7af220d748ca6e76c0b4c6cfb241

     atomic species   valence    mass     pseudopotential
        Mo1           14.00    95.95000     Mo( 1.00)
        H1             1.00     1.00800     H ( 1.00)

     No symmetry found



   Cartesian axes

     site n.     atom                  positions (alat units)
         1           Mo1 tau(   1) = (   1.4069153   0.8122829  10.0000000  )
         2           Mo1 tau(   2) = (   4.2207459   0.8122829  10.0000000  )
         3           Mo1 tau(   3) = (   2.8138306   3.2491317  10.0000000  )
         4           Mo1 tau(   4) = (   5.6276612   3.2491317  10.0000000  )
         5           Mo1 tau(   5) = (   5.6276612   1.6245658  12.2974831  )
         6           Mo1 tau(   6) = (   2.8138306   1.6245658  12.2974831  )
         7           Mo1 tau(   7) = (   7.0345765   4.0614146  12.2974831  )
         8           Mo1 tau(   8) = (   4.2207459   4.0614146  12.2974831  )
         9           Mo1 tau(   9) = (   0.0000000   0.0000000  14.5949661  )
        10           Mo1 tau(  10) = (   2.8138306   0.0000000  14.5949661  )
        11           Mo1 tau(  11) = (   1.4069153   2.4368488  14.5949661  )
        12           Mo1 tau(  12) = (   4.2207459   2.4368488  14.5949661  )
        13           H1  tau(  13) = (   1.4069153   0.8122829  16.4449661  )

     number of k points=    20  Fermi-Dirac smearing, width (Ry)=  0.0110
                       cart. coord. in units 2pi/alat
        k(    1) = (   0.0000000   0.0000000   0.0000000), wk =   0.0555556
        k(    2) = (   0.0000000   0.0341972   0.0000000), wk =   0.1111111
        k(    3) = (   0.0000000   0.0683943   0.0000000), wk =   0.1111111
        k(    4) = (   0.0000000  -0.1025915   0.0000000), wk =   0.0555556
        k(    5) = (   0.0296156  -0.0170986   0.0000000), wk =   0.1111111
        k(    6) = (   0.0296156   0.0170986   0.0000000), wk =   0.1111111
        k(    7) = (   0.0296156   0.0512958   0.0000000), wk =   0.1111111
        k(    8) = (   0.0296156  -0.1196901   0.0000000), wk =   0.1111111
        k(    9) = (   0.0296156  -0.0854929   0.0000000), wk =   0.1111111
        k(   10) = (   0.0296156  -0.0512958   0.0000000), wk =   0.1111111
        k(   11) = (   0.0592312  -0.0341972   0.0000000), wk =   0.1111111
        k(   12) = (   0.0592312   0.0000000   0.0000000), wk =   0.1111111
        k(   13) = (   0.0592312   0.0341972   0.0000000), wk =   0.1111111
        k(   14) = (   0.0592312  -0.1367887   0.0000000), wk =   0.1111111
        k(   15) = (   0.0592312  -0.1025915   0.0000000), wk =   0.1111111
        k(   16) = (   0.0592312  -0.0683943   0.0000000), wk =   0.1111111
        k(   17) = (  -0.0888469   0.0512958   0.0000000), wk =   0.0555556
        k(   18) = (  -0.0888469   0.0854929   0.0000000), wk =   0.1111111
        k(   19) = (  -0.0888469   0.1196901   0.0000000), wk =   0.1111111
        k(   20) = (  -0.0888469  -0.0512958   0.0000000), wk =   0.0555556

     Dense  grid:   541807 G-vectors     FFT dimensions: (  72,  72, 288)

     Smooth grid:   137189 G-vectors     FFT dimensions: (  45,  45, 180)

     Largest allocated arrays     est. size (Mb)     dimensions
        Kohn-Sham Wavefunctions         0.81 Mb     (     564,   94)
        NL pseudopotentials             1.88 Mb     (     564,  218)
        Each V/rho on FFT grid          0.71 Mb     (   46656)
        Each G-vector array             0.13 Mb     (   16923)
        G-vector shells                 0.06 Mb     (    7559)
     Largest temporary arrays     est. size (Mb)     dimensions
        Auxiliary wavefunctions         3.24 Mb     (     564,  376)
        Each subspace H/S matrix        2.16 Mb     (     376,  376)
        Each <psi_i|beta_j> matrix      0.31 Mb     (     218,   94)
        Arrays for rho mixing           7.12 Mb     (   46656,   10)

     Initial potential from superposition of free atoms
     Check: negative starting charge=   -0.005000

     starting charge  168.98723, renormalised to  169.00000

     negative rho (up, down):  5.001E-03 0.000E+00


     ************************************************************************
     *
     * You are using vdW-DF for exchange-correlation in this calculation.
     * Please cite the following three references that made this development
     * possible:
     *
     *   M. Dion, H. Rydberg, E. Schroder, D. C. Langreth, and
     *   B. I. Lundqvist, Phys. Rev. Lett. 92, 246401 (2004).
     *
     *   T. Thonhauser, V. R. Cooper, S. Li, A. Puzder, P. Hyldgaard, and
     *   D. C. Langreth, Phys. Rev. B 76, 125112 (2007).
     *
     *   G. Roman-Perez and J. M. Soler, Phys. Rev. Lett. 103, 096102 (2009).
     *
     *
     * If you are using vdW-DF2, please also cite:
     *
     *   K. Lee, E. D. Murray, L. Kong, B. I. Lundqvist, and
     *   D. C. Langreth, Phys. Rev. B 82, 081101(R) (2010).
     *
     *
     * If you are calculating the stress with vdW-DF, please also cite:
     *
     *   R. Sabatini, E. Kucukbenli, B. Kolb, T. Thonhauser, and
     *   S. de Gironcoli, J. Phys.: Condens. Matter 24, 424209 (2012).
     *
     ************************************************************************

     Carrying out vdW-DF run using the following parameters:

     Nqs =      20    Nr_points =    1024   r_max =   100.000
     q_mesh =
               0.00001000     0.04494208     0.09755937     0.15916263
               0.23128650     0.31572767     0.41458969     0.53033537
               0.66584808     0.82450364     1.01025438     1.22772762
               1.48234092     1.78043706     2.12944203     2.53805004
               3.01644009     3.57652955     4.23227104     5.00000000

     Gradients computed in reciprocal space

     ************************************************************************


 
     Adding external electric field

     Computed dipole along edir(3) : 
        Dipole               -0.0005 Ry au,         -0.0013 Debye
        Dipole field         -0.0000 Ry au
 
        Potential amp.        0.0001 Ry
        Total length         45.3158 bohr
 
     Starting wfc are  157 randomized atomic wfcs

     total cpu time spent up to now is       22.4 secs

     per-process dynamical memory:    48.6 Mb

     Self-consistent Calculation

     iteration #  1     ecut=    36.75 Ry     beta=0.30
     Davidson diagonalization with overlap
     ethr =  1.00E-02,  avg # of iterations =  2.0

     negative rho (up, down):  4.937E-03 0.000E+00
 
     Adding external electric field

     Computed dipole along edir(3) : 
        Dipole               -0.6306 Ry au,         -1.6027 Debye
        Dipole field         -0.0017 Ry au
 
        Potential amp.        0.1578 Ry
        Total length         45.3158 bohr
 

     total cpu time spent up to now is       58.0 secs

     total energy              =   -1677.66720942 Ry
     Harris-Foulkes estimate   =   -1681.02106188 Ry
     estimated scf accuracy    <       6.96086723 Ry

     iteration #  2     ecut=    36.75 Ry     beta=0.30
     Davidson diagonalization with overlap
     ethr =  4.12E-03,  avg # of iterations =  6.7

     negative rho (up, down):  4.681E-03 0.000E+00
 
     Adding external electric field

     Computed dipole along edir(3) : 
        Dipole                2.1248 Ry au,          5.4007 Debye
        Dipole field          0.0059 Ry au
 
        Potential amp.       -0.5316 Ry
        Total length         45.3158 bohr
 

     total cpu time spent up to now is      114.5 secs

     total energy              =   -1674.23211051 Ry
     Harris-Foulkes estimate   =   -1687.43037564 Ry
     estimated scf accuracy    <     136.01632440 Ry

     iteration #  3     ecut=    36.75 Ry     beta=0.30
     Davidson diagonalization with overlap
     ethr =  4.12E-03,  avg # of iterations =  6.5

     negative rho (up, down):  4.815E-03 0.000E+00
 
     Adding external electric field

     Computed dipole along edir(3) : 
        Dipole               -0.0979 Ry au,         -0.2488 Debye
        Dipole field         -0.0003 Ry au
 
        Potential amp.        0.0245 Ry
        Total length         45.3158 bohr
 

     total cpu time spent up to now is      169.7 secs

     total energy              =   -1676.65717703 Ry
     Harris-Foulkes estimate   =   -1685.04193976 Ry
     estimated scf accuracy    <     304.66802065 Ry

     iteration #  4     ecut=    36.75 Ry     beta=0.30
     Davidson diagonalization with overlap
     ethr =  4.12E-03,  avg # of iterations =  6.9

     negative rho (up, down):  4.457E-03 0.000E+00
 
     Adding external electric field

     Computed dipole along edir(3) : 
        Dipole               -0.1142 Ry au,         -0.2902 Debye
        Dipole field         -0.0003 Ry au
 
        Potential amp.        0.0286 Ry
        Total length         45.3158 bohr
 

     total cpu time spent up to now is      220.0 secs

     total energy              =   -1680.37667082 Ry
     Harris-Foulkes estimate   =   -1680.42285480 Ry
     estimated scf accuracy    <       0.30959097 Ry

     iteration #  5     ecut=    36.75 Ry     beta=0.30
     Davidson diagonalization with overlap
     ethr =  1.83E-04,  avg # of iterations =  6.3

     negative rho (up, down):  4.552E-03 0.000E+00
 
     Adding external electric field

     Computed dipole along edir(3) : 
        Dipole               -0.0983 Ry au,         -0.2499 Debye
        Dipole field         -0.0003 Ry au
 
        Potential amp.        0.0246 Ry
        Total length         45.3158 bohr
 

     total cpu time spent up to now is      262.2 secs

     total energy              =   -1680.39384032 Ry
     Harris-Foulkes estimate   =   -1680.40923881 Ry
     estimated scf accuracy    <       0.12871015 Ry

     iteration #  6     ecut=    36.75 Ry     beta=0.30
     Davidson diagonalization with overlap
     ethr =  7.62E-05,  avg # of iterations =  4.7

     negative rho (up, down):  4.622E-03 0.000E+00
 
     Adding external electric field

     Computed dipole along edir(3) : 
        Dipole               -0.0944 Ry au,         -0.2400 Debye
        Dipole field         -0.0003 Ry au
 
        Potential amp.        0.0236 Ry
        Total length         45.3158 bohr
 

     total cpu time spent up to now is      301.4 secs

     total energy              =   -1680.40381409 Ry
     Harris-Foulkes estimate   =   -1680.41501374 Ry
     estimated scf accuracy    <       0.06787240 Ry

     iteration #  7     ecut=    36.75 Ry     beta=0.30
     Davidson diagonalization with overlap
     ethr =  4.02E-05,  avg # of iterations =  3.8

     negative rho (up, down):  4.786E-03 0.000E+00
 
     Adding external electric field

     Computed dipole along edir(3) : 
        Dipole               -0.0935 Ry au,         -0.2377 Debye
        Dipole field         -0.0003 Ry au
 
        Potential amp.        0.0234 Ry
        Total length         45.3158 bohr
 

     total cpu time spent up to now is      337.8 secs

     total energy              =   -1680.40944456 Ry
     Harris-Foulkes estimate   =   -1680.41016049 Ry
     estimated scf accuracy    <       0.01795045 Ry

     iteration #  8     ecut=    36.75 Ry     beta=0.30
     Davidson diagonalization with overlap
     ethr =  1.06E-05,  avg # of iterations =  4.7

     negative rho (up, down):  4.877E-03 0.000E+00
 
     Adding external electric field

     Computed dipole along edir(3) : 
        Dipole               -0.0950 Ry au,         -0.2416 Debye
        Dipole field         -0.0003 Ry au
 
        Potential amp.        0.0238 Ry
        Total length         45.3158 bohr
 

     total cpu time spent up to now is      377.5 secs

     total energy              =   -1680.41045956 Ry
     Harris-Foulkes estimate   =   -1680.41120506 Ry
     estimated scf accuracy    <       0.00730467 Ry

     iteration #  9     ecut=    36.75 Ry     beta=0.30
     Davidson diagonalization with overlap
     ethr =  4.32E-06,  avg # of iterations =  3.7

     negative rho (up, down):  4.914E-03 0.000E+00
 
     Adding external electric field

     Computed dipole along edir(3) : 
        Dipole               -0.0994 Ry au,         -0.2527 Debye
        Dipole field         -0.0003 Ry au
 
        Potential amp.        0.0249 Ry
        Total length         45.3158 bohr
 

     total cpu time spent up to now is      413.9 secs

     total energy              =   -1680.41079905 Ry
     Harris-Foulkes estimate   =   -1680.41102636 Ry
     estimated scf accuracy    <       0.00683091 Ry

     iteration # 10     ecut=    36.75 Ry     beta=0.30
     Davidson diagonalization with overlap
     ethr =  4.04E-06,  avg # of iterations =  1.4

     negative rho (up, down):  4.958E-03 0.000E+00
 
     Adding external electric field

     Computed dipole along edir(3) : 
        Dipole               -0.0999 Ry au,         -0.2540 Debye
        Dipole field         -0.0003 Ry au
 
        Potential amp.        0.0250 Ry
        Total length         45.3158 bohr
 

     total cpu time spent up to now is      445.9 secs

     total energy              =   -1680.41100705 Ry
     Harris-Foulkes estimate   =   -1680.41100635 Ry
     estimated scf accuracy    <       0.00024507 Ry

     iteration # 11     ecut=    36.75 Ry     beta=0.30
     Davidson diagonalization with overlap
     ethr =  1.45E-07,  avg # of iterations =  5.2

     negative rho (up, down):  4.985E-03 0.000E+00
 
     Adding external electric field

     Computed dipole along edir(3) : 
        Dipole               -0.0976 Ry au,         -0.2480 Debye
        Dipole field         -0.0003 Ry au
 
        Potential amp.        0.0244 Ry
        Total length         45.3158 bohr
 

     total cpu time spent up to now is      496.0 secs

     total energy              =   -1680.41107590 Ry
     Harris-Foulkes estimate   =   -1680.41109988 Ry
     estimated scf accuracy    <       0.00050338 Ry

     iteration # 12     ecut=    36.75 Ry     beta=0.30
     Davidson diagonalization with overlap
     ethr =  1.45E-07,  avg # of iterations =  2.4

     negative rho (up, down):  4.996E-03 0.000E+00
 
     Adding external electric field

     Computed dipole along edir(3) : 
        Dipole               -0.0985 Ry au,         -0.2502 Debye
        Dipole field         -0.0003 Ry au
 
        Potential amp.        0.0246 Ry
        Total length         45.3158 bohr
 

     total cpu time spent up to now is      529.1 secs

     total energy              =   -1680.41108958 Ry
     Harris-Foulkes estimate   =   -1680.41109266 Ry
     estimated scf accuracy    <       0.00005956 Ry

     iteration # 13     ecut=    36.75 Ry     beta=0.30
     Davidson diagonalization with overlap
     ethr =  3.52E-08,  avg # of iterations =  4.6

     negative rho (up, down):  4.998E-03 0.000E+00
 
     Adding external electric field

     Computed dipole along edir(3) : 
        Dipole               -0.0994 Ry au,         -0.2525 Debye
        Dipole field         -0.0003 Ry au
 
        Potential amp.        0.0249 Ry
        Total length         45.3158 bohr
 

     total cpu time spent up to now is      575.4 secs

     total energy              =   -1680.41110255 Ry
     Harris-Foulkes estimate   =   -1680.41110830 Ry
     estimated scf accuracy    <       0.00012129 Ry

     iteration # 14     ecut=    36.75 Ry     beta=0.30
     Davidson diagonalization with overlap
     ethr =  3.52E-08,  avg # of iterations =  1.1

     negative rho (up, down):  5.000E-03 0.000E+00
 
     Adding external electric field

     Computed dipole along edir(3) : 
        Dipole               -0.1004 Ry au,         -0.2551 Debye
        Dipole field         -0.0003 Ry au
 
        Potential amp.        0.0251 Ry
        Total length         45.3158 bohr
 

     total cpu time spent up to now is      606.9 secs

     total energy              =   -1680.41109758 Ry
     Harris-Foulkes estimate   =   -1680.41110414 Ry
     estimated scf accuracy    <       0.00005191 Ry

     iteration # 15     ecut=    36.75 Ry     beta=0.30
     Davidson diagonalization with overlap
     ethr =  3.07E-08,  avg # of iterations =  3.6

     negative rho (up, down):  4.998E-03 0.000E+00
 
     Adding external electric field

     Computed dipole along edir(3) : 
        Dipole               -0.0998 Ry au,         -0.2536 Debye
        Dipole field         -0.0003 Ry au
 
        Potential amp.        0.0250 Ry
        Total length         45.3158 bohr
 

     total cpu time spent up to now is      647.7 secs

     total energy              =   -1680.41110349 Ry
     Harris-Foulkes estimate   =   -1680.41110603 Ry
     estimated scf accuracy    <       0.00002670 Ry

     iteration # 16     ecut=    36.75 Ry     beta=0.30
     Davidson diagonalization with overlap
     ethr =  1.58E-08,  avg # of iterations =  1.1

     negative rho (up, down):  4.996E-03 0.000E+00

     negative rho (up, down):  4.996E-03 0.000E+00

     negative rho (up, down):  4.996E-03 0.000E+00

     negative rho (up, down):  4.996E-03 0.000E+00

     negative rho (up, down):  4.996E-03 0.000E+00

     negative rho (up, down):  4.996E-03 0.000E+00

     negative rho (up, down):  4.996E-03 0.000E+00

     negative rho (up, down):  4.996E-03 0.000E+00

     negative rho (up, down):  4.996E-03 0.000E+00

     negative rho (up, down):  4.996E-03 0.000E+00

     negative rho (up, down):  4.996E-03 0.000E+00

     negative rho (up, down):  4.996E-03 0.000E+00

     negative rho (up, down):  4.996E-03 0.000E+00

     negative rho (up, down):  4.996E-03 0.000E+00

     negative rho (up, down):  4.996E-03 0.000E+00

     negative rho (up, down):  4.996E-03 0.000E+00

     negative rho (up, down):  4.996E-03 0.000E+00

     negative rho (up, down):  4.996E-03 0.000E+00

     negative rho (up, down):  4.996E-03 0.000E+00

     negative rho (up, down):  4.996E-03 0.000E+00

     negative rho (up, down):  4.996E-03 0.000E+00

     negative rho (up, down):  4.996E-03 0.000E+00

     negative rho (up, down):  4.996E-03 0.000E+00

     negative rho (up, down):  4.996E-03 0.000E+00

     negative rho (up, down):  4.996E-03 0.000E+00

     negative rho (up, down):  4.996E-03 0.000E+00

     negative rho (up, down):  4.996E-03 0.000E+00

     negative rho (up, down):  4.996E-03 0.000E+00

     negative rho (up, down):  4.996E-03 0.000E+00

     negative rho (up, down):  4.996E-03 0.000E+00

     negative rho (up, down):  4.996E-03 0.000E+00

     negative rho (up, down):  4.996E-03 0.000E+00

     negative rho (up, down):  4.996E-03 0.000E+00

     negative rho (up, down):  4.996E-03 0.000E+00

     negative rho (up, down):  4.996E-03 0.000E+00
 
     Adding external electric field

     Computed dipole along edir(3) : 
        Dipole               -0.1111 Ry au,         -0.2824 Debye
        Dipole field         -0.0003 Ry au
 
        Potential amp.        0.0278 Ry
        Total length         45.3158 bohr
 

     total cpu time spent up to now is      740.1 secs

     End of self-consistent calculation

          k = 0.0000 0.0000 0.0000 ( 17111 PWs)   bands (ev):

   -58.8471 -58.7599 -58.6671 -58.6640 -58.6632 -58.6259 -58.6060 -58.6059
   -58.5803 -58.5602 -58.5598 -58.5432 -33.3778 -33.3602 -33.3601 -33.2953
   -33.2909 -33.2716 -33.2714 -33.1876 -33.1805 -33.1802 -32.8612 -32.7326
   -32.7319 -32.7131 -32.6693 -32.6691 -32.6612 -32.5508 -32.5487 -32.5486
   -32.4445 -32.4444 -32.4312 -32.4308 -32.4276 -32.4202 -32.3478 -32.3262
   -32.3247 -32.3246 -32.2672 -32.2671 -32.1957 -32.1957 -32.1260 -32.1260
    -3.8005  -2.5900  -2.2880  -2.2721  -2.2720  -2.2568  -1.9168  -1.8217
    -1.8217  -1.6874  -1.6145  -1.6145  -1.4034  -1.3670  -1.3668  -0.7079
    -0.1769  -0.1766   0.2491   0.8189   0.8190   0.8351   1.0940   1.3342
     1.5050   1.5050   1.7685   1.7685   1.8758   1.8784   1.8785   1.9638
     1.9638   2.1666   2.1719   2.1723   2.7223   3.2706   3.2708   3.2928
     3.4775   3.4778   3.4859   4.0255   4.0255   4.3792

          k = 0.0000 0.0342 0.0000 ( 17130 PWs)   bands (ev):

   -58.8349 -58.7497 -58.6735 -58.6639 -58.6597 -58.6309 -58.6125 -58.6060
   -58.5843 -58.5633 -58.5601 -58.5445 -33.3375 -33.3236 -33.3018 -33.2711
   -33.2573 -33.2392 -33.2282 -33.1509 -33.1448 -33.1198 -32.8594 -32.7824
   -32.7565 -32.7473 -32.6590 -32.6485 -32.6394 -32.5746 -32.5736 -32.5321
   -32.5018 -32.4967 -32.4221 -32.4152 -32.4115 -32.4052 -32.3736 -32.3624
   -32.3596 -32.3257 -32.3138 -32.2851 -32.2458 -32.2112 -32.1909 -32.1388
    -3.5571  -2.3665  -2.1507  -2.0800  -2.0690  -2.0175  -1.8041  -1.6802
    -1.6281  -1.5329  -1.4771  -1.4617  -1.2640  -1.1403  -1.1094  -0.6582
    -0.1317  -0.0943   0.2683   0.8563   0.9057   0.9123   1.0654   1.1402
     1.2617   1.5574   1.5686   1.7153   1.7412   1.8600   1.9246   1.9372
     1.9487   2.1191   2.1345   2.1803   2.4037   2.8796   2.8806   2.9357
     3.3503   3.3520   3.5049   3.7306   3.8436   3.8836

          k = 0.0000 0.0684 0.0000 ( 17142 PWs)   bands (ev):

   -58.8015 -58.7232 -58.7049 -58.6641 -58.6491 -58.6399 -58.6251 -58.6061
   -58.5907 -58.5744 -58.5600 -58.5466 -33.2452 -33.2307 -33.2127 -33.1811
   -33.1652 -33.1425 -33.1313 -33.0664 -33.0580 -32.9504 -32.8677 -32.8289
   -32.8235 -32.8170 -32.6516 -32.6386 -32.6179 -32.6108 -32.6080 -32.5930
   -32.5864 -32.5354 -32.4837 -32.4772 -32.4690 -32.4593 -32.3940 -32.3880
   -32.3805 -32.3757 -32.3700 -32.3406 -32.2949 -32.2726 -32.2534 -32.1742
    -2.9129  -1.9214  -1.8625  -1.6206  -1.5963  -1.5856  -1.4177  -1.2372
    -1.1692  -1.1303  -1.0359  -0.9903  -0.9466  -0.6259  -0.4599  -0.4306
    -0.0255   0.0846   0.2359   0.4381   0.6882   0.9261   0.9471   1.0143
     1.1068   1.2392   1.2479   1.5091   1.5561   1.6383   1.6674   1.7619
     1.9869   2.1333   2.1394   2.2093   2.2650   2.2960   2.3123   2.5998
     2.6496   2.7001   2.8074   3.0178   3.0334   3.4301

          k = 0.0000-0.1026 0.0000 ( 17160 PWs)   bands (ev):

   -58.7598 -58.7496 -58.6840 -58.6817 -58.6642 -58.6374 -58.6103 -58.6061
   -58.6055 -58.5808 -58.5599 -58.5473 -33.1740 -33.1563 -33.1461 -33.1442
   -33.1376 -33.1309 -33.0038 -32.9908 -32.9512 -32.9463 -32.8879 -32.8833
   -32.7540 -32.7439 -32.6949 -32.6900 -32.6785 -32.6588 -32.6383 -32.6349
   -32.5761 -32.5673 -32.5558 -32.5547 -32.5524 -32.5383 -32.4190 -32.4116
   -32.3936 -32.3813 -32.3445 -32.3285 -32.3200 -32.3041 -32.2257 -32.2208
    -2.2130  -2.1455  -1.6201  -1.3712  -1.2387  -1.2170  -1.1695  -1.0045
    -0.9446  -0.8435  -0.6614  -0.4654  -0.4612  -0.3616  -0.2225  -0.2006
    -0.2004   0.2980   0.3405   0.4660   0.4742   0.4756   0.6188   0.9641
     1.0519   1.2186   1.2543   1.3856   1.3940   1.3986   1.5168   1.5241
     1.6304   1.6442   1.6634   1.7353   1.8852   1.9093   2.3419   2.3502
     2.5808   2.8834   3.0273   3.0867   3.1127   3.1236

          k = 0.0296-0.0171 0.0000 ( 17130 PWs)   bands (ev):

   -58.8349 -58.7497 -58.6736 -58.6638 -58.6598 -58.6309 -58.6124 -58.6060
   -58.5844 -58.5635 -58.5599 -58.5445 -33.3375 -33.3235 -33.3018 -33.2711
   -33.2573 -33.2392 -33.2282 -33.1508 -33.1449 -33.1198 -32.8594 -32.7825
   -32.7563 -32.7474 -32.6589 -32.6487 -32.6393 -32.5745 -32.5736 -32.5320
   -32.5017 -32.4968 -32.4221 -32.4152 -32.4115 -32.4052 -32.3736 -32.3623
   -32.3597 -32.3257 -32.3138 -32.2851 -32.2458 -32.2112 -32.1909 -32.1388
    -3.5571  -2.3665  -2.1507  -2.0800  -2.0690  -2.0175  -1.8041  -1.6802
    -1.6281  -1.5329  -1.4771  -1.4617  -1.2640  -1.1403  -1.1095  -0.6582
    -0.1318  -0.0942   0.2683   0.8563   0.9057   0.9123   1.0654   1.1402
     1.2617   1.5575   1.5685   1.7153   1.7412   1.8600   1.9246   1.9372
     1.9487   2.1190   2.1346   2.1803   2.4037   2.8796   2.8805   2.9357
     3.3504   3.3519   3.5049   3.7306   3.8436   3.8836

          k = 0.0296 0.0171 0.0000 ( 17130 PWs)   bands (ev):

   -58.8349 -58.7497 -58.6739 -58.6633 -58.6598 -58.6310 -58.6124 -58.6061
   -58.5844 -58.5636 -58.5597 -58.5446 -33.3375 -33.3235 -33.3018 -33.2711
   -33.2572 -33.2393 -33.2282 -33.1506 -33.1451 -33.1197 -32.8594 -32.7826
   -32.7560 -32.7477 -32.6588 -32.6488 -32.6393 -32.5744 -32.5738 -32.5320
   -32.5016 -32.4970 -32.4222 -32.4151 -32.4115 -32.4052 -32.3736 -32.3623
   -32.3598 -32.3257 -32.3137 -32.2852 -32.2458 -32.2113 -32.1909 -32.1388
    -3.5571  -2.3665  -2.1507  -2.0800  -2.0691  -2.0175  -1.8042  -1.6802
    -1.6281  -1.5329  -1.4771  -1.4617  -1.2641  -1.1402  -1.1096  -0.6581
    -0.1319  -0.0941   0.2683   0.8563   0.9057   0.9123   1.0654   1.1402
     1.2617   1.5575   1.5684   1.7153   1.7412   1.8599   1.9246   1.9372
     1.9487   2.1189   2.1348   2.1803   2.4037   2.8797   2.8805   2.9357
     3.3505   3.3518   3.5049   3.7306   3.8436   3.8836

          k = 0.0296 0.0513 0.0000 ( 17106 PWs)   bands (ev):

   -58.8121 -58.7310 -58.6881 -58.6754 -58.6464 -58.6340 -58.6195 -58.6163
   -58.5848 -58.5706 -58.5604 -58.5464 -33.2840 -33.2310 -33.2205 -33.2141
   -33.2012 -33.1708 -33.1664 -33.1043 -33.0390 -33.0332 -32.8620 -32.8233
   -32.8160 -32.7930 -32.6839 -32.6278 -32.6218 -32.6215 -32.6065 -32.5408
   -32.5378 -32.4800 -32.4692 -32.4644 -32.4573 -32.4284 -32.4127 -32.3878
   -32.3744 -32.3447 -32.3323 -32.3284 -32.3158 -32.2731 -32.2335 -32.1721
    -3.1073  -1.9979  -1.8374  -1.8323  -1.7104  -1.5965  -1.5549  -1.5382
    -1.2794  -1.2243  -1.1972  -1.1099  -0.9530  -0.8646  -0.6004  -0.5592
    -0.0528   0.0299   0.2518   0.5984   0.8364   0.9643   0.9850   1.0570
     1.0687   1.1050   1.4820   1.5008   1.6393   1.6574   1.8537   1.8941
     1.9307   2.0220   2.1600   2.2807   2.3562   2.3924   2.4074   2.6383
     2.8947   2.9553   3.0763   3.1053   3.2711   3.3098

          k = 0.0296-0.1197 0.0000 ( 17122 PWs)   bands (ev):

   -58.7723 -58.7250 -58.6986 -58.6846 -58.6569 -58.6329 -58.6232 -58.6140
   -58.5920 -58.5786 -58.5610 -58.5474 -33.1864 -33.1639 -33.1284 -33.1232
   -33.1146 -33.1067 -33.0368 -33.0180 -32.9500 -32.9105 -32.9002 -32.8588
   -32.8490 -32.7971 -32.7751 -32.7148 -32.6629 -32.6116 -32.6048 -32.5987
   -32.5951 -32.5578 -32.5471 -32.5122 -32.5004 -32.4668 -32.4346 -32.4278
   -32.4007 -32.3826 -32.3445 -32.3397 -32.3229 -32.2931 -32.2789 -32.2242
    -2.3727  -1.7836  -1.5722  -1.3247  -1.2883  -1.2512  -1.1724  -1.0117
    -0.8456  -0.8050  -0.7361  -0.6677  -0.4289  -0.4137  -0.3455  -0.1753
     0.0074   0.1870   0.2175   0.3211   0.4950   0.6144   0.6564   0.7732
     0.9054   1.0987   1.1783   1.2548   1.2687   1.3790   1.4064   1.5446
     1.6610   1.6658   1.7210   1.8713   2.0458   2.1709   2.2309   2.3767
     2.4949   2.7964   2.9934   3.0737   3.0960   3.1872

          k = 0.0296-0.0855 0.0000 ( 17122 PWs)   bands (ev):

   -58.7724 -58.7249 -58.6988 -58.6844 -58.6571 -58.6328 -58.6232 -58.6140
   -58.5919 -58.5787 -58.5610 -58.5474 -33.1864 -33.1639 -33.1284 -33.1232
   -33.1145 -33.1067 -33.0368 -33.0180 -32.9500 -32.9106 -32.9001 -32.8588
   -32.8490 -32.7971 -32.7749 -32.7147 -32.6630 -32.6116 -32.6048 -32.5987
   -32.5952 -32.5578 -32.5472 -32.5121 -32.5004 -32.4669 -32.4347 -32.4278
   -32.4008 -32.3826 -32.3446 -32.3396 -32.3230 -32.2931 -32.2789 -32.2242
    -2.3728  -1.7836  -1.5722  -1.3247  -1.2883  -1.2512  -1.1724  -1.0117
    -0.8456  -0.8050  -0.7361  -0.6677  -0.4289  -0.4137  -0.3455  -0.1753
     0.0074   0.1870   0.2175   0.3211   0.4950   0.6144   0.6564   0.7732
     0.9055   1.0986   1.1783   1.2547   1.2688   1.3790   1.4064   1.5446
     1.6611   1.6658   1.7211   1.8713   2.0457   2.1709   2.2309   2.3767
     2.4949   2.7965   2.9934   3.0737   3.0960   3.1872

          k = 0.0296-0.0513 0.0000 ( 17106 PWs)   bands (ev):

   -58.8121 -58.7310 -58.6876 -58.6759 -58.6463 -58.6341 -58.6195 -58.6162
   -58.5847 -58.5707 -58.5605 -58.5464 -33.2840 -33.2310 -33.2205 -33.2140
   -33.2012 -33.1707 -33.1664 -33.1044 -33.0389 -33.0333 -32.8620 -32.8231
   -32.8161 -32.7930 -32.6838 -32.6277 -32.6218 -32.6216 -32.6064 -32.5408
   -32.5378 -32.4800 -32.4693 -32.4645 -32.4572 -32.4285 -32.4127 -32.3879
   -32.3744 -32.3447 -32.3323 -32.3284 -32.3157 -32.2731 -32.2335 -32.1721
    -3.1074  -1.9979  -1.8374  -1.8323  -1.7103  -1.5964  -1.5549  -1.5382
    -1.2795  -1.2243  -1.1971  -1.1100  -0.9530  -0.8646  -0.6004  -0.5592
    -0.0527   0.0299   0.2518   0.5984   0.8364   0.9642   0.9850   1.0570
     1.0687   1.1050   1.4821   1.5008   1.6393   1.6574   1.8537   1.8941
     1.9307   2.0220   2.1600   2.2807   2.3563   2.3923   2.4074   2.6383
     2.8947   2.9552   3.0764   3.1053   3.2711   3.3098

          k = 0.0592-0.0342 0.0000 ( 17142 PWs)   bands (ev):

   -58.8015 -58.7232 -58.7049 -58.6640 -58.6492 -58.6397 -58.6252 -58.6061
   -58.5908 -58.5745 -58.5597 -58.5467 -33.2452 -33.2307 -33.2127 -33.1810
   -33.1653 -33.1425 -33.1313 -33.0663 -33.0582 -32.9504 -32.8676 -32.8290
   -32.8234 -32.8171 -32.6516 -32.6387 -32.6180 -32.6106 -32.6081 -32.5929
   -32.5865 -32.5353 -32.4837 -32.4772 -32.4690 -32.4593 -32.3940 -32.3880
   -32.3805 -32.3757 -32.3700 -32.3406 -32.2949 -32.2726 -32.2535 -32.1742
    -2.9129  -1.9214  -1.8625  -1.6206  -1.5963  -1.5856  -1.4177  -1.2372
    -1.1692  -1.1303  -1.0360  -0.9903  -0.9466  -0.6259  -0.4600  -0.4306
    -0.0257   0.0846   0.2359   0.4381   0.6882   0.9261   0.9471   1.0143
     1.1067   1.2393   1.2479   1.5091   1.5561   1.6383   1.6674   1.7619
     1.9869   2.1333   2.1394   2.2093   2.2650   2.2959   2.3123   2.5997
     2.6496   2.7002   2.8074   3.0177   3.0336   3.4301

          k = 0.0592 0.0000 0.0000 ( 17106 PWs)   bands (ev):

   -58.8121 -58.7310 -58.6882 -58.6752 -58.6465 -58.6339 -58.6194 -58.6164
   -58.5850 -58.5706 -58.5603 -58.5465 -33.2840 -33.2310 -33.2205 -33.2141
   -33.2012 -33.1708 -33.1663 -33.1043 -33.0391 -33.0332 -32.8620 -32.8233
   -32.8160 -32.7930 -32.6839 -32.6279 -32.6218 -32.6214 -32.6065 -32.5408
   -32.5378 -32.4799 -32.4692 -32.4644 -32.4574 -32.4284 -32.4127 -32.3878
   -32.3744 -32.3447 -32.3323 -32.3284 -32.3158 -32.2731 -32.2335 -32.1721
    -3.1073  -1.9979  -1.8374  -1.8323  -1.7104  -1.5964  -1.5550  -1.5382
    -1.2794  -1.2243  -1.1972  -1.1099  -0.9530  -0.8646  -0.6004  -0.5592
    -0.0529   0.0300   0.2518   0.5984   0.8364   0.9643   0.9850   1.0570
     1.0687   1.1050   1.4820   1.5008   1.6393   1.6574   1.8537   1.8941
     1.9307   2.0220   2.1600   2.2807   2.3562   2.3924   2.4074   2.6383
     2.8946   2.9554   3.0763   3.1053   3.2711   3.3098

          k = 0.0592 0.0342 0.0000 ( 17142 PWs)   bands (ev):

   -58.8014 -58.7231 -58.7053 -58.6635 -58.6496 -58.6396 -58.6252 -58.6061
   -58.5908 -58.5745 -58.5596 -58.5468 -33.2452 -33.2307 -33.2127 -33.1809
   -33.1654 -33.1425 -33.1313 -33.0660 -33.0584 -32.9504 -32.8676 -32.8291
   -32.8233 -32.8172 -32.6513 -32.6390 -32.6181 -32.6103 -32.6082 -32.5927
   -32.5867 -32.5353 -32.4836 -32.4773 -32.4690 -32.4592 -32.3939 -32.3879
   -32.3806 -32.3755 -32.3701 -32.3406 -32.2949 -32.2726 -32.2535 -32.1742
    -2.9129  -1.9214  -1.8625  -1.6207  -1.5962  -1.5856  -1.4176  -1.2371
    -1.1693  -1.1303  -1.0360  -0.9903  -0.9465  -0.6258  -0.4601  -0.4305
    -0.0258   0.0847   0.2360   0.4381   0.6882   0.9261   0.9471   1.0143
     1.1067   1.2393   1.2479   1.5091   1.5562   1.6383   1.6674   1.7619
     1.9869   2.1334   2.1394   2.2093   2.2650   2.2959   2.3123   2.5997
     2.6497   2.7002   2.8074   3.0175   3.0337   3.4301

          k = 0.0592-0.1368 0.0000 ( 17122 PWs)   bands (ev):

   -58.7723 -58.7251 -58.6989 -58.6842 -58.6570 -58.6326 -58.6236 -58.6140
   -58.5918 -58.5789 -58.5608 -58.5475 -33.1864 -33.1639 -33.1281 -33.1234
   -33.1145 -33.1068 -33.0368 -33.0180 -32.9501 -32.9105 -32.9002 -32.8588
   -32.8490 -32.7971 -32.7750 -32.7147 -32.6630 -32.6116 -32.6048 -32.5987
   -32.5950 -32.5578 -32.5471 -32.5121 -32.5004 -32.4668 -32.4347 -32.4276
   -32.4007 -32.3826 -32.3445 -32.3396 -32.3230 -32.2932 -32.2789 -32.2242
    -2.3727  -1.7835  -1.5721  -1.3247  -1.2883  -1.2512  -1.1724  -1.0116
    -0.8457  -0.8050  -0.7362  -0.6676  -0.4289  -0.4136  -0.3456  -0.1753
     0.0075   0.1869   0.2175   0.3211   0.4951   0.6144   0.6564   0.7732
     0.9055   1.0986   1.1783   1.2548   1.2688   1.3790   1.4064   1.5447
     1.6610   1.6658   1.7211   1.8712   2.0458   2.1709   2.2309   2.3767
     2.4949   2.7964   2.9934   3.0738   3.0961   3.1870

          k = 0.0592-0.1026 0.0000 ( 17100 PWs)   bands (ev):

   -58.7392 -58.7318 -58.7211 -58.6670 -58.6607 -58.6563 -58.6215 -58.5963
   -58.5949 -58.5918 -58.5575 -58.5489 -33.1134 -33.1114 -33.1031 -33.0770
   -33.0731 -33.0661 -32.9906 -32.9899 -32.9843 -32.8936 -32.8870 -32.8350
   -32.8225 -32.8114 -32.8111 -32.7598 -32.7591 -32.7561 -32.5986 -32.5982
   -32.5951 -32.5896 -32.5461 -32.4818 -32.4637 -32.4552 -32.4533 -32.3892
   -32.3888 -32.3829 -32.3741 -32.3658 -32.3618 -32.2932 -32.2914 -32.2889
    -1.7255  -1.6470  -1.6392  -1.3952  -0.9262  -0.9256  -0.8832  -0.8320
    -0.7390  -0.5801  -0.4044  -0.4003  -0.3898  -0.2963  -0.2913  -0.2352
     0.1915   0.1989   0.3304   0.3387   0.3618   0.4808   0.4838   0.6390
     0.6843   0.6943   0.7282   0.8224   0.8231   1.1333   1.2458   1.3792
     1.4393   1.4649   1.7806   1.9489   1.9592   2.1862   2.2375   2.2452
     2.3797   2.6951   2.7065   2.9415   3.2013   3.2066

          k = 0.0592-0.0684 0.0000 ( 17122 PWs)   bands (ev):

   -58.7723 -58.7249 -58.6988 -58.6843 -58.6571 -58.6327 -58.6233 -58.6140
   -58.5918 -58.5788 -58.5609 -58.5474 -33.1864 -33.1639 -33.1283 -33.1233
   -33.1145 -33.1068 -33.0368 -33.0180 -32.9501 -32.9106 -32.9001 -32.8588
   -32.8490 -32.7971 -32.7749 -32.7147 -32.6631 -32.6117 -32.6048 -32.5987
   -32.5951 -32.5578 -32.5472 -32.5121 -32.5004 -32.4668 -32.4347 -32.4277
   -32.4008 -32.3826 -32.3446 -32.3395 -32.3230 -32.2931 -32.2789 -32.2242
    -2.3727  -1.7836  -1.5722  -1.3247  -1.2883  -1.2512  -1.1724  -1.0117
    -0.8456  -0.8050  -0.7362  -0.6676  -0.4289  -0.4137  -0.3455  -0.1754
     0.0074   0.1869   0.2175   0.3211   0.4950   0.6144   0.6564   0.7732
     0.9055   1.0985   1.1783   1.2547   1.2688   1.3790   1.4064   1.5446
     1.6611   1.6658   1.7211   1.8712   2.0457   2.1709   2.2310   2.3767
     2.4949   2.7965   2.9934   3.0737   3.0960   3.1871

          k =-0.0888 0.0513 0.0000 ( 17160 PWs)   bands (ev):

   -58.7597 -58.7497 -58.6843 -58.6815 -58.6641 -58.6374 -58.6106 -58.6062
   -58.6053 -58.5809 -58.5597 -58.5474 -33.1741 -33.1562 -33.1460 -33.1443
   -33.1375 -33.1310 -33.0036 -32.9910 -32.9512 -32.9463 -32.8879 -32.8834
   -32.7540 -32.7441 -32.6948 -32.6902 -32.6783 -32.6589 -32.6380 -32.6351
   -32.5762 -32.5671 -32.5556 -32.5549 -32.5526 -32.5384 -32.4190 -32.4117
   -32.3936 -32.3812 -32.3447 -32.3284 -32.3198 -32.3043 -32.2260 -32.2206
    -2.2130  -2.1455  -1.6201  -1.3713  -1.2387  -1.2170  -1.1694  -1.0047
    -0.9445  -0.8435  -0.6614  -0.4653  -0.4613  -0.3617  -0.2224  -0.2005
    -0.2005   0.2979   0.3406   0.4660   0.4743   0.4755   0.6188   0.9641
     1.0519   1.2186   1.2543   1.3855   1.3940   1.3986   1.5169   1.5241
     1.6305   1.6442   1.6634   1.7352   1.8851   1.9094   2.3418   2.3504
     2.5807   2.8834   3.0272   3.0868   3.1127   3.1236

          k =-0.0888 0.0855 0.0000 ( 17122 PWs)   bands (ev):

   -58.7723 -58.7250 -58.6987 -58.6846 -58.6568 -58.6329 -58.6233 -58.6140
   -58.5919 -58.5787 -58.5609 -58.5475 -33.1864 -33.1639 -33.1283 -33.1232
   -33.1145 -33.1067 -33.0368 -33.0180 -32.9501 -32.9104 -32.9003 -32.8588
   -32.8490 -32.7971 -32.7751 -32.7148 -32.6629 -32.6116 -32.6048 -32.5987
   -32.5951 -32.5578 -32.5471 -32.5122 -32.5004 -32.4668 -32.4347 -32.4277
   -32.4007 -32.3826 -32.3444 -32.3398 -32.3229 -32.2931 -32.2789 -32.2242
    -2.3727  -1.7836  -1.5722  -1.3247  -1.2883  -1.2512  -1.1724  -1.0117
    -0.8456  -0.8049  -0.7361  -0.6677  -0.4289  -0.4137  -0.3455  -0.1753
     0.0074   0.1870   0.2175   0.3211   0.4951   0.6144   0.6564   0.7732
     0.9054   1.0987   1.1784   1.2548   1.2687   1.3789   1.4064   1.5447
     1.6610   1.6659   1.7210   1.8713   2.0458   2.1709   2.2309   2.3767
     2.4949   2.7963   2.9934   3.0737   3.0961   3.1872

          k =-0.0888 0.1197 0.0000 ( 17122 PWs)   bands (ev):

   -58.7723 -58.7251 -58.6989 -58.6842 -58.6569 -58.6326 -58.6236 -58.6140
   -58.5919 -58.5788 -58.5607 -58.5475 -33.1864 -33.1639 -33.1281 -33.1234
   -33.1145 -33.1068 -33.0368 -33.0180 -32.9501 -32.9105 -32.9003 -32.8588
   -32.8490 -32.7971 -32.7750 -32.7148 -32.6629 -32.6116 -32.6048 -32.5987
   -32.5950 -32.5578 -32.5471 -32.5122 -32.5004 -32.4668 -32.4348 -32.4276
   -32.4007 -32.3826 -32.3444 -32.3397 -32.3230 -32.2932 -32.2789 -32.2242
    -2.3727  -1.7835  -1.5721  -1.3247  -1.2884  -1.2512  -1.1724  -1.0116
    -0.8457  -0.8050  -0.7362  -0.6677  -0.4289  -0.4137  -0.3455  -0.1753
     0.0074   0.1869   0.2175   0.3211   0.4951   0.6144   0.6564   0.7732
     0.9054   1.0986   1.1783   1.2548   1.2687   1.3789   1.4063   1.5447
     1.6610   1.6659   1.7210   1.8713   2.0458   2.1709   2.2309   2.3767
     2.4949   2.7964   2.9934   3.0737   3.0961   3.1871

          k =-0.0888-0.0513 0.0000 ( 17160 PWs)   bands (ev):

   -58.7593 -58.7501 -58.6846 -58.6813 -58.6636 -58.6376 -58.6107 -58.6062
   -58.6052 -58.5809 -58.5595 -58.5475 -33.1742 -33.1560 -33.1459 -33.1443
   -33.1373 -33.1314 -33.0033 -32.9913 -32.9512 -32.9463 -32.8878 -32.8836
   -32.7538 -32.7444 -32.6947 -32.6903 -32.6778 -32.6591 -32.6377 -32.6354
   -32.5763 -32.5669 -32.5554 -32.5550 -32.5527 -32.5384 -32.4189 -32.4117
   -32.3935 -32.3812 -32.3448 -32.3283 -32.3196 -32.3046 -32.2262 -32.2204
    -2.2130  -2.1455  -1.6200  -1.3714  -1.2387  -1.2169  -1.1693  -1.0048
    -0.9445  -0.8435  -0.6615  -0.4652  -0.4613  -0.3617  -0.2223  -0.2006
    -0.2004   0.2980   0.3406   0.4660   0.4743   0.4753   0.6188   0.9641
     1.0519   1.2185   1.2544   1.3855   1.3940   1.3987   1.5170   1.5240
     1.6306   1.6443   1.6634   1.7351   1.8850   1.9096   2.3416   2.3506
     2.5807   2.8833   3.0272   3.0870   3.1127   3.1236

     the Fermi energy is     2.2118 ev

!    total energy              =   -1680.41079374 Ry
     Harris-Foulkes estimate   =   -1680.41109779 Ry
     estimated scf accuracy    <       0.00000778 Ry

     The total energy is the sum of the following terms:

     one-electron contribution =  -15228.87063624 Ry
     hartree contribution      =    7608.49392829 Ry
     xc contribution           =    -240.75255572 Ry
     ewald contribution        =    6180.81868105 Ry
     electric field correction =       0.00003408 Ry
     smearing contrib. (-TS)   =      -0.10024520 Ry

     convergence has been achieved in  16 iterations
 
 BEEF-vdW xc energy contributions
           1 :   -206.759496326046     
           2 :    188.879818052301     
           3 :   -158.259311928734     
           4 :    123.013631836350     
           5 :   -91.2628083946295     
           6 :    68.5305736226898     
           7 :   -56.4657159369222     
           8 :    53.1215979998812     
           9 :   -54.4547216156502     
          10 :    56.2442187796206     
          11 :   -55.6469737101148     
          12 :    51.8658377678118     
          13 :   -45.8833060969376     
          14 :    39.5544848099262     
          15 :   -34.5571370610867     
          16 :    31.6360362442229     
          17 :   -30.4090656755453     
          18 :    29.7225816844319     
          19 :   -28.3255748348882     
          20 :    25.5033859338460     
          21 :   -21.3808850152232     
          22 :    16.7790948621836     
          23 :   -12.7428813907749     
          24 :    10.0004800714728     
          25 :   -8.63159605135996     
          26 :    8.08172284131899     
          27 :   -7.48613376541448     
          28 :    6.11437374073012     
          29 :   -3.71201916660254     
          30 :   0.582902296280878     
          31 :   -23.5853947073325     
          32 :   -18.0867173095067     

     Forces acting on atoms (Ry/au):


     negative rho (up, down):  4.996E-03 0.000E+00
     atom    1 type  1   force =     0.00000232    0.00000797   -0.00592212
     atom    2 type  1   force =    -0.00000019   -0.00132951   -0.00409122
     atom    3 type  1   force =    -0.00115675    0.00066023   -0.00408301
     atom    4 type  1   force =     0.00115966    0.00066410   -0.00408198
     atom    5 type  1   force =     0.00227076   -0.00126789    0.00543425
     atom    6 type  1   force =    -0.00227205   -0.00131359    0.00548873
     atom    7 type  1   force =    -0.00004703   -0.00002590   -0.02224326
     atom    8 type  1   force =     0.00003750    0.00260492    0.00543216
     atom    9 type  1   force =     0.00709647    0.00410068    0.03373522
     atom   10 type  1   force =    -0.00709023    0.00409881    0.03371213
     atom   11 type  1   force =     0.00000070   -0.00819260    0.03372316
     atom   12 type  1   force =    -0.00000312   -0.00000693   -0.00537565
     atom   13 type  2   force =     0.00000194   -0.00000031   -0.07172843

     Total force =     0.097375     Total SCF correction =     0.014449
     SCF correction compared to forces is large: reduce conv_thr to get better values


     entering subroutine stress ...


     negative rho (up, down):  4.996E-03 0.000E+00
          total   stress  (Ry/bohr**3)                   (kbar)     P=  -21.70
  -0.00021530  -0.00000000   0.00000000        -31.67     -0.00      0.00
  -0.00000000  -0.00021529  -0.00000001         -0.00    -31.67     -0.00
   0.00000000  -0.00000001  -0.00001205          0.00     -0.00     -1.77

 !ASE

     Writing output data file calc.save
 
     init_run     :     13.16s CPU     21.97s WALL (       1 calls)
     electrons    :    446.65s CPU    717.90s WALL (       1 calls)
     forces       :      3.63s CPU      4.65s WALL (       1 calls)
     stress       :      9.34s CPU     11.22s WALL (       1 calls)

     Called by init_run:
     wfcinit      :     10.80s CPU     18.38s WALL (       1 calls)
     potinit      :      1.26s CPU      2.18s WALL (       1 calls)

     Called by electrons:
     c_bands      :    336.25s CPU    529.64s WALL (      16 calls)
     sum_band     :     52.33s CPU     88.61s WALL (      16 calls)
     v_of_rho     :     17.39s CPU     31.23s WALL (      17 calls)
     newd         :      7.65s CPU      7.92s WALL (      17 calls)
     mix_rho      :      0.65s CPU      1.15s WALL (      16 calls)
     vdW_energy   :      3.04s CPU      3.37s WALL (      53 calls)
     vdW_ffts     :     31.16s CPU     61.07s WALL (     108 calls)
     vdW_v        :      6.32s CPU     10.81s WALL (      53 calls)

     Called by c_bands:
     init_us_2    :      0.98s CPU      1.02s WALL (     700 calls)
     cegterg      :    329.50s CPU    521.81s WALL (     320 calls)

     Called by *egterg:
     h_psi        :    223.30s CPU    408.07s WALL (    1633 calls)
     s_psi        :      9.26s CPU      9.38s WALL (    1633 calls)
     g_psi        :      0.54s CPU      0.53s WALL (    1293 calls)
     cdiaghg      :     65.81s CPU     67.83s WALL (    1613 calls)

     Called by h_psi:
     add_vuspsi   :      9.66s CPU      9.66s WALL (    1633 calls)

     General routines
     calbec       :     17.81s CPU     22.31s WALL (    1993 calls)
     fft          :     46.75s CPU     91.60s WALL (    3225 calls)
     ffts         :      0.14s CPU      0.27s WALL (      33 calls)
     fftw         :    223.41s CPU    437.33s WALL (  182744 calls)
     interpolate  :      0.62s CPU      1.19s WALL (      33 calls)
     davcio       :      0.00s CPU      0.08s WALL (      20 calls)
 
     Parallel routines
     fft_scatter  :    235.87s CPU    491.81s WALL (  186002 calls)
 
     PWSCF        :  7m53.49s CPU    12m37.01s WALL

 
   This run was terminated on:   2:25:49  14Jan2018            

=------------------------------------------------------------------------------=
   JOB DONE.
=------------------------------------------------------------------------------=
Job  /afs/slac/g/suncat/bin/suncat-tsmpirun -x LD_LIBRARY_PATH -wdir /scratch/qe842458_PHsfh pw.x -in pw.inp

TID   HOST_NAME   COMMAND_LINE            STATUS            TERMINATION_TIME
===== ========== ================  =======================  ===================
00000 suncat1058 pw.x -in pw.inp   Done                     01/14/2018 02:25:49
00001 suncat1058 pw.x -in pw.inp   Done                     01/14/2018 02:25:49
00002 suncat1058 pw.x -in pw.inp   Done                     01/14/2018 02:25:49
00003 suncat1058 pw.x -in pw.inp   Done                     01/14/2018 02:25:49
00004 suncat1058 pw.x -in pw.inp   Done                     01/14/2018 02:25:49
00005 suncat1058 pw.x -in pw.inp   Done                     01/14/2018 02:25:49
00006 suncat1058 pw.x -in pw.inp   Done                     01/14/2018 02:25:49
00007 suncat1058 pw.x -in pw.inp   Done                     01/14/2018 02:25:49
00008 suncat1037 pw.x -in pw.inp   Done                     01/14/2018 02:25:49
00009 suncat1037 pw.x -in pw.inp   Done                     01/14/2018 02:25:49
00010 suncat1037 pw.x -in pw.inp   Done                     01/14/2018 02:25:49
00011 suncat1037 pw.x -in pw.inp   Done                     01/14/2018 02:25:49
00012 suncat1037 pw.x -in pw.inp   Done                     01/14/2018 02:25:49
00013 suncat1037 pw.x -in pw.inp   Done                     01/14/2018 02:25:49
00014 suncat1037 pw.x -in pw.inp   Done                     01/14/2018 02:25:49
00015 suncat1037 pw.x -in pw.inp   Done                     01/14/2018 02:25:49
00016 suncat1037 pw.x -in pw.inp   Done                     01/14/2018 02:25:49
00017 suncat1037 pw.x -in pw.inp   Done                     01/14/2018 02:25:49
00018 suncat1037 pw.x -in pw.inp   Done                     01/14/2018 02:25:49
00019 suncat1037 pw.x -in pw.inp   Done                     01/14/2018 02:25:49
00020 suncat1036 pw.x -in pw.inp   Done                     01/14/2018 02:25:49
00021 suncat1036 pw.x -in pw.inp   Done                     01/14/2018 02:25:49
00022 suncat1036 pw.x -in pw.inp   Done                     01/14/2018 02:25:49
00023 suncat1036 pw.x -in pw.inp   Done                     01/14/2018 02:25:49
00024 suncat1036 pw.x -in pw.inp   Done                     01/14/2018 02:25:49
00025 suncat1036 pw.x -in pw.inp   Done                     01/14/2018 02:25:49
00026 suncat1036 pw.x -in pw.inp   Done                     01/14/2018 02:25:49
00027 suncat1036 pw.x -in pw.inp   Done                     01/14/2018 02:25:49
00028 suncat1036 pw.x -in pw.inp   Done                     01/14/2018 02:25:49
00029 suncat1036 pw.x -in pw.inp   Done                     01/14/2018 02:25:49
00030 suncat1036 pw.x -in pw.inp   Done                     01/14/2018 02:25:49
00031 suncat1036 pw.x -in pw.inp   Done                     01/14/2018 02:25:49

     Program PWSCF v.5.1rc2 (svn rev. 11289) starts on 14Jan2018 at  2:25:55 

     This program is part of the open-source Quantum ESPRESSO suite
     for quantum simulation of materials; please cite
         "P. Giannozzi et al., J. Phys.:Condens. Matter 21 395502 (2009);
          URL http://www.quantum-espresso.org", 
     in publications or presentations arising from this work. More details at
     http://www.quantum-espresso.org/quote

     Parallel version (MPI), running on    32 processors
     R & G space division:  proc/nbgrp/npool/nimage =      32
     Reading input from pw.inp
     Message from routine read_cards :
     DEPRECATED: no units specified in CELL_PARAMETERS card

     Current dimensions of program PWSCF are:
     Max number of different atomic species (ntypx) = 10
     Max number of k-points (npk) =  40000
     Max angular momentum in pseudopotentials (lmaxx) =  3
     Presently stress not available with electric field


     **************************************************************************
     Initializing libbeef V0.1.1 with the BEEF-vdW functional.
     Citation: Wellendorff et al., PRB 85, 235149 (2012).
     **************************************************************************


     IMPORTANT: XC functional enforced from input :
     Exchange-correlation      = BEEF-VDW ( 1  4 27 13 2)
     Any further DFT definition will be discarded
     Please, verify this is what you really want


     Subspace diagonalization in iterative solution of the eigenvalue problem:
     a serial algorithm will be used

 
     Parallelization info
     --------------------
     sticks:   dense  smooth     PW     G-vecs:    dense   smooth      PW
     Min          89      35     10                16921     4265     672
     Max          90      36     12                16938     4304     683
     Sum        2869    1147    337               541807   137189   21637
 


     bravais-lattice index     =            0
     lattice parameter (alat)  =       1.8897  a.u.
     unit-cell volume          =    4552.2840 (a.u.)^3
     number of atoms/cell      =           13
     number of atomic types    =            2
     number of electrons       =       169.00
     number of Kohn-Sham states=           94
     kinetic-energy cutoff     =      36.7493  Ry
     charge density cutoff     =     367.4932  Ry
     convergence threshold     =      1.0E-05
     mixing beta               =       0.3000
     number of iterations used =           10  plain     mixing
     Exchange-correlation      = BEEF-VDW ( 1  4 27 13 2)
     nstep                     =           50


     celldm(1)=   1.889726  celldm(2)=   0.000000  celldm(3)=   0.000000
     celldm(4)=   0.000000  celldm(5)=   0.000000  celldm(6)=   0.000000

     crystal axes: (cart. coord. in units of alat)
               a(1) = (   5.627661   0.000000   0.000000 )  
               a(2) = (   2.813831   4.873698   0.000000 )  
               a(3) = (   0.000000   0.000000  24.594966 )  

     reciprocal axes: (cart. coord. in units 2 pi/alat)
               b(1) = (  0.177694 -0.102592  0.000000 )  
               b(2) = (  0.000000  0.205183  0.000000 )  
               b(3) = (  0.000000  0.000000  0.040659 )  


     PseudoPot. # 1 for Mo read from file:
     /afs/slac.stanford.edu/u/if/mamunm/psp/gbrv1.5pbe/Mo.UPF
     MD5 check sum: 30c4dcd161f5d35cd49bb5239c51a633
     Pseudo is Ultrasoft + core correction, Zval = 14.0
     Generated by new atomic code, or converted to UPF format
     Using radial grid of  889 points,  6 beta functions with: 
                l(1) =   0
                l(2) =   0
                l(3) =   1
                l(4) =   1
                l(5) =   2
                l(6) =   2
     Q(r) pseudized with  6 coefficients,  rinner =    1.000   1.000   1.000
                                                       1.000   1.000

     PseudoPot. # 2 for H  read from file:
     /afs/slac.stanford.edu/u/if/mamunm/psp/gbrv1.5pbe/H.UPF
     MD5 check sum: 761ae9a214b05c3daf00ab9f6b793d6f
     Pseudo is Ultrasoft, Zval =  1.0
     Generated by new atomic code, or converted to UPF format
     Using radial grid of  615 points,  2 beta functions with: 
                l(1) =   0
                l(2) =   0
     Q(r) pseudized with  8 coefficients,  rinner =    0.700

     vdW kernel table read from file vdW_kernel_table
     MD5 check sum: 095c7af220d748ca6e76c0b4c6cfb241

     atomic species   valence    mass     pseudopotential
        Mo1           14.00    95.95000     Mo( 1.00)
        H1             1.00     1.00800     H ( 1.00)

     No symmetry found



   Cartesian axes

     site n.     atom                  positions (alat units)
         1           Mo1 tau(   1) = (   1.4069153   0.8122829  10.0000000  )
         2           Mo1 tau(   2) = (   4.2207459   0.8122829  10.0000000  )
         3           Mo1 tau(   3) = (   2.8138306   3.2491317  10.0000000  )
         4           Mo1 tau(   4) = (   5.6276612   3.2491317  10.0000000  )
         5           Mo1 tau(   5) = (   5.6276612   1.6245658  12.2974831  )
         6           Mo1 tau(   6) = (   2.8138306   1.6245658  12.2974831  )
         7           Mo1 tau(   7) = (   7.0345765   4.0614146  12.2974831  )
         8           Mo1 tau(   8) = (   4.2207459   4.0614146  12.2974831  )
         9           Mo1 tau(   9) = (   0.0182458   0.0105433  14.6817028  )
        10           Mo1 tau(  10) = (   2.7956009   0.0105385  14.6816435  )
        11           Mo1 tau(  11) = (   1.4069171   2.4157847  14.6816718  )
        12           Mo1 tau(  12) = (   4.2207379   2.4368310  14.5811448  )
        13           H1  tau(  13) = (   1.4069203   0.8122821  16.2605449  )

     number of k points=    20  Fermi-Dirac smearing, width (Ry)=  0.0110
                       cart. coord. in units 2pi/alat
        k(    1) = (   0.0000000   0.0000000   0.0000000), wk =   0.0555556
        k(    2) = (   0.0000000   0.0341972   0.0000000), wk =   0.1111111
        k(    3) = (   0.0000000   0.0683943   0.0000000), wk =   0.1111111
        k(    4) = (   0.0000000  -0.1025915   0.0000000), wk =   0.0555556
        k(    5) = (   0.0296156  -0.0170986   0.0000000), wk =   0.1111111
        k(    6) = (   0.0296156   0.0170986   0.0000000), wk =   0.1111111
        k(    7) = (   0.0296156   0.0512958   0.0000000), wk =   0.1111111
        k(    8) = (   0.0296156  -0.1196901   0.0000000), wk =   0.1111111
        k(    9) = (   0.0296156  -0.0854929   0.0000000), wk =   0.1111111
        k(   10) = (   0.0296156  -0.0512958   0.0000000), wk =   0.1111111
        k(   11) = (   0.0592312  -0.0341972   0.0000000), wk =   0.1111111
        k(   12) = (   0.0592312   0.0000000   0.0000000), wk =   0.1111111
        k(   13) = (   0.0592312   0.0341972   0.0000000), wk =   0.1111111
        k(   14) = (   0.0592312  -0.1367887   0.0000000), wk =   0.1111111
        k(   15) = (   0.0592312  -0.1025915   0.0000000), wk =   0.1111111
        k(   16) = (   0.0592312  -0.0683943   0.0000000), wk =   0.1111111
        k(   17) = (  -0.0888469   0.0512958   0.0000000), wk =   0.0555556
        k(   18) = (  -0.0888469   0.0854929   0.0000000), wk =   0.1111111
        k(   19) = (  -0.0888469   0.1196901   0.0000000), wk =   0.1111111
        k(   20) = (  -0.0888469  -0.0512958   0.0000000), wk =   0.0555556

     Dense  grid:   541807 G-vectors     FFT dimensions: (  72,  72, 288)

     Smooth grid:   137189 G-vectors     FFT dimensions: (  45,  45, 180)

     Largest allocated arrays     est. size (Mb)     dimensions
        Kohn-Sham Wavefunctions         0.81 Mb     (     564,   94)
        NL pseudopotentials             1.88 Mb     (     564,  218)
        Each V/rho on FFT grid          0.71 Mb     (   46656)
        Each G-vector array             0.13 Mb     (   16923)
        G-vector shells                 0.06 Mb     (    7559)
     Largest temporary arrays     est. size (Mb)     dimensions
        Auxiliary wavefunctions         3.24 Mb     (     564,  376)
        Each subspace H/S matrix        2.16 Mb     (     376,  376)
        Each <psi_i|beta_j> matrix      0.31 Mb     (     218,   94)
        Arrays for rho mixing           7.12 Mb     (   46656,   10)

     Initial potential from superposition of free atoms
     Check: negative starting charge=   -0.004859

     starting charge  168.98723, renormalised to  169.00000

     negative rho (up, down):  4.859E-03 0.000E+00


     ************************************************************************
     *
     * You are using vdW-DF for exchange-correlation in this calculation.
     * Please cite the following three references that made this development
     * possible:
     *
     *   M. Dion, H. Rydberg, E. Schroder, D. C. Langreth, and
     *   B. I. Lundqvist, Phys. Rev. Lett. 92, 246401 (2004).
     *
     *   T. Thonhauser, V. R. Cooper, S. Li, A. Puzder, P. Hyldgaard, and
     *   D. C. Langreth, Phys. Rev. B 76, 125112 (2007).
     *
     *   G. Roman-Perez and J. M. Soler, Phys. Rev. Lett. 103, 096102 (2009).
     *
     *
     * If you are using vdW-DF2, please also cite:
     *
     *   K. Lee, E. D. Murray, L. Kong, B. I. Lundqvist, and
     *   D. C. Langreth, Phys. Rev. B 82, 081101(R) (2010).
     *
     *
     * If you are calculating the stress with vdW-DF, please also cite:
     *
     *   R. Sabatini, E. Kucukbenli, B. Kolb, T. Thonhauser, and
     *   S. de Gironcoli, J. Phys.: Condens. Matter 24, 424209 (2012).
     *
     ************************************************************************

     Carrying out vdW-DF run using the following parameters:

     Nqs =      20    Nr_points =    1024   r_max =   100.000
     q_mesh =
               0.00001000     0.04494208     0.09755937     0.15916263
               0.23128650     0.31572767     0.41458969     0.53033537
               0.66584808     0.82450364     1.01025438     1.22772762
               1.48234092     1.78043706     2.12944203     2.53805004
               3.01644009     3.57652955     4.23227104     5.00000000

     Gradients computed in reciprocal space

     ************************************************************************


 
     Adding external electric field

     Computed dipole along edir(3) : 
        Dipole               -0.0005 Ry au,         -0.0013 Debye
        Dipole field         -0.0000 Ry au
 
        Potential amp.        0.0001 Ry
        Total length         45.3158 bohr
 
     Starting wfc are  157 randomized atomic wfcs

     total cpu time spent up to now is       22.0 secs

     per-process dynamical memory:    48.4 Mb

     Self-consistent Calculation

     iteration #  1     ecut=    36.75 Ry     beta=0.30
     Davidson diagonalization with overlap
     ethr =  1.00E-02,  avg # of iterations =  2.0

     negative rho (up, down):  4.783E-03 0.000E+00
 
     Adding external electric field

     Computed dipole along edir(3) : 
        Dipole                0.2107 Ry au,          0.5356 Debye
        Dipole field          0.0006 Ry au
 
        Potential amp.       -0.0527 Ry
        Total length         45.3158 bohr
 

     total cpu time spent up to now is       56.7 secs

     total energy              =   -1677.89852154 Ry
     Harris-Foulkes estimate   =   -1681.03104924 Ry
     estimated scf accuracy    <       6.51700622 Ry

     iteration #  2     ecut=    36.75 Ry     beta=0.30
     Davidson diagonalization with overlap
     ethr =  3.86E-03,  avg # of iterations =  5.7

     negative rho (up, down):  5.290E-03 0.000E+00
 
     Adding external electric field

     Computed dipole along edir(3) : 
        Dipole               -1.5558 Ry au,         -3.9545 Debye
        Dipole field         -0.0043 Ry au
 
        Potential amp.        0.3892 Ry
        Total length         45.3158 bohr
 

     total cpu time spent up to now is      110.6 secs

     total energy              =   -1675.18649032 Ry
     Harris-Foulkes estimate   =   -1686.97668784 Ry
     estimated scf accuracy    <     113.54412445 Ry

     iteration #  3     ecut=    36.75 Ry     beta=0.30
     Davidson diagonalization with overlap
     ethr =  3.86E-03,  avg # of iterations =  5.1

     negative rho (up, down):  5.257E-03 0.000E+00
 
     Adding external electric field

     Computed dipole along edir(3) : 
        Dipole               -0.0206 Ry au,         -0.0525 Debye
        Dipole field         -0.0001 Ry au
 
        Potential amp.        0.0052 Ry
        Total length         45.3158 bohr
 

     total cpu time spent up to now is      164.9 secs

     total energy              =   -1678.38092576 Ry
     Harris-Foulkes estimate   =   -1682.62341358 Ry
     estimated scf accuracy    <     167.18670723 Ry

     iteration #  4     ecut=    36.75 Ry     beta=0.30
     Davidson diagonalization with overlap
     ethr =  3.86E-03,  avg # of iterations =  5.8

     negative rho (up, down):  4.955E-03 0.000E+00
 
     Adding external electric field

     Computed dipole along edir(3) : 
        Dipole               -0.1104 Ry au,         -0.2806 Debye
        Dipole field         -0.0003 Ry au
 
        Potential amp.        0.0276 Ry
        Total length         45.3158 bohr
 

     total cpu time spent up to now is      208.9 secs

     total energy              =   -1680.41447132 Ry
     Harris-Foulkes estimate   =   -1680.46539493 Ry
     estimated scf accuracy    <       0.46854817 Ry

     iteration #  5     ecut=    36.75 Ry     beta=0.30
     Davidson diagonalization with overlap
     ethr =  2.77E-04,  avg # of iterations =  5.0

     negative rho (up, down):  4.882E-03 0.000E+00
 
     Adding external electric field

     Computed dipole along edir(3) : 
        Dipole               -0.0691 Ry au,         -0.1756 Debye
        Dipole field         -0.0002 Ry au
 
        Potential amp.        0.0173 Ry
        Total length         45.3158 bohr
 

     total cpu time spent up to now is      249.2 secs

     total energy              =   -1680.43479639 Ry
     Harris-Foulkes estimate   =   -1680.45012033 Ry
     estimated scf accuracy    <       0.10474156 Ry

     iteration #  6     ecut=    36.75 Ry     beta=0.30
     Davidson diagonalization with overlap
     ethr =  6.20E-05,  avg # of iterations =  5.9

     negative rho (up, down):  4.887E-03 0.000E+00
 
     Adding external electric field

     Computed dipole along edir(3) : 
        Dipole               -0.0507 Ry au,         -0.1289 Debye
        Dipole field         -0.0001 Ry au
 
        Potential amp.        0.0127 Ry
        Total length         45.3158 bohr
 

     total cpu time spent up to now is      292.6 secs

     total energy              =   -1680.43844528 Ry
     Harris-Foulkes estimate   =   -1680.44953352 Ry
     estimated scf accuracy    <       0.05888287 Ry

     iteration #  7     ecut=    36.75 Ry     beta=0.30
     Davidson diagonalization with overlap
     ethr =  3.48E-05,  avg # of iterations =  4.2

     negative rho (up, down):  4.876E-03 0.000E+00
 
     Adding external electric field

     Computed dipole along edir(3) : 
        Dipole               -0.0698 Ry au,         -0.1774 Debye
        Dipole field         -0.0002 Ry au
 
        Potential amp.        0.0175 Ry
        Total length         45.3158 bohr
 

     total cpu time spent up to now is      330.1 secs

     total energy              =   -1680.44421539 Ry
     Harris-Foulkes estimate   =   -1680.44462583 Ry
     estimated scf accuracy    <       0.01257831 Ry

     iteration #  8     ecut=    36.75 Ry     beta=0.30
     Davidson diagonalization with overlap
     ethr =  7.44E-06,  avg # of iterations =  6.7

     negative rho (up, down):  4.868E-03 0.000E+00
 
     Adding external electric field

     Computed dipole along edir(3) : 
        Dipole               -0.0644 Ry au,         -0.1637 Debye
        Dipole field         -0.0002 Ry au
 
        Potential amp.        0.0161 Ry
        Total length         45.3158 bohr
 

     total cpu time spent up to now is      373.4 secs

     total energy              =   -1680.44496786 Ry
     Harris-Foulkes estimate   =   -1680.44529465 Ry
     estimated scf accuracy    <       0.00320648 Ry

     iteration #  9     ecut=    36.75 Ry     beta=0.30
     Davidson diagonalization with overlap
     ethr =  1.90E-06,  avg # of iterations =  5.0

     negative rho (up, down):  4.863E-03 0.000E+00
 
     Adding external electric field

     Computed dipole along edir(3) : 
        Dipole               -0.0535 Ry au,         -0.1360 Debye
        Dipole field         -0.0001 Ry au
 
        Potential amp.        0.0134 Ry
        Total length         45.3158 bohr
 

     total cpu time spent up to now is      416.6 secs

     total energy              =   -1680.44526076 Ry
     Harris-Foulkes estimate   =   -1680.44550055 Ry
     estimated scf accuracy    <       0.00249895 Ry

     iteration # 10     ecut=    36.75 Ry     beta=0.30
     Davidson diagonalization with overlap
     ethr =  1.48E-06,  avg # of iterations =  2.5

     negative rho (up, down):  4.856E-03 0.000E+00
 
     Adding external electric field

     Computed dipole along edir(3) : 
        Dipole               -0.0538 Ry au,         -0.1369 Debye
        Dipole field         -0.0001 Ry au
 
        Potential amp.        0.0135 Ry
        Total length         45.3158 bohr
 

     total cpu time spent up to now is      449.9 secs

     total energy              =   -1680.44539726 Ry
     Harris-Foulkes estimate   =   -1680.44541192 Ry
     estimated scf accuracy    <       0.00106992 Ry

     iteration # 11     ecut=    36.75 Ry     beta=0.30
     Davidson diagonalization with overlap
     ethr =  6.33E-07,  avg # of iterations =  3.8

     negative rho (up, down):  4.851E-03 0.000E+00
 
     Adding external electric field

     Computed dipole along edir(3) : 
        Dipole               -0.0558 Ry au,         -0.1417 Debye
        Dipole field         -0.0002 Ry au
 
        Potential amp.        0.0140 Ry
        Total length         45.3158 bohr
 

     total cpu time spent up to now is      489.3 secs

     total energy              =   -1680.44547616 Ry
     Harris-Foulkes estimate   =   -1680.44551523 Ry
     estimated scf accuracy    <       0.00047763 Ry

     iteration # 12     ecut=    36.75 Ry     beta=0.30
     Davidson diagonalization with overlap
     ethr =  2.83E-07,  avg # of iterations =  1.9

     negative rho (up, down):  4.843E-03 0.000E+00
 
     Adding external electric field

     Computed dipole along edir(3) : 
        Dipole               -0.0584 Ry au,         -0.1484 Debye
        Dipole field         -0.0002 Ry au
 
        Potential amp.        0.0146 Ry
        Total length         45.3158 bohr
 

     total cpu time spent up to now is      521.7 secs

     total energy              =   -1680.44545756 Ry
     Harris-Foulkes estimate   =   -1680.44549886 Ry
     estimated scf accuracy    <       0.00020302 Ry

     iteration # 13     ecut=    36.75 Ry     beta=0.30
     Davidson diagonalization with overlap
     ethr =  1.20E-07,  avg # of iterations =  4.2

     negative rho (up, down):  4.841E-03 0.000E+00
 
     Adding external electric field

     Computed dipole along edir(3) : 
        Dipole               -0.0583 Ry au,         -0.1483 Debye
        Dipole field         -0.0002 Ry au
 
        Potential amp.        0.0146 Ry
        Total length         45.3158 bohr
 

     total cpu time spent up to now is      564.4 secs

     total energy              =   -1680.44549037 Ry
     Harris-Foulkes estimate   =   -1680.44550077 Ry
     estimated scf accuracy    <       0.00009772 Ry

     iteration # 14     ecut=    36.75 Ry     beta=0.30
     Davidson diagonalization with overlap
     ethr =  5.78E-08,  avg # of iterations =  1.0

     negative rho (up, down):  4.840E-03 0.000E+00
 
     Adding external electric field

     Computed dipole along edir(3) : 
        Dipole               -0.0578 Ry au,         -0.1468 Debye
        Dipole field         -0.0002 Ry au
 
        Potential amp.        0.0144 Ry
        Total length         45.3158 bohr
 

     total cpu time spent up to now is      595.8 secs

     total energy              =   -1680.44549196 Ry
     Harris-Foulkes estimate   =   -1680.44549433 Ry
     estimated scf accuracy    <       0.00002616 Ry

     iteration # 15     ecut=    36.75 Ry     beta=0.30
     Davidson diagonalization with overlap
     ethr =  1.55E-08,  avg # of iterations =  4.2

     negative rho (up, down):  4.839E-03 0.000E+00
 
     Adding external electric field

     Computed dipole along edir(3) : 
        Dipole               -0.0581 Ry au,         -0.1476 Debye
        Dipole field         -0.0002 Ry au
 
        Potential amp.        0.0145 Ry
        Total length         45.3158 bohr
 

     total cpu time spent up to now is      640.7 secs

     total energy              =   -1680.44549769 Ry
     Harris-Foulkes estimate   =   -1680.44549872 Ry
     estimated scf accuracy    <       0.00001984 Ry

     iteration # 16     ecut=    36.75 Ry     beta=0.30
     Davidson diagonalization with overlap
     ethr =  1.17E-08,  avg # of iterations =  1.0

     negative rho (up, down):  4.837E-03 0.000E+00

     negative rho (up, down):  4.837E-03 0.000E+00

     negative rho (up, down):  4.837E-03 0.000E+00

     negative rho (up, down):  4.837E-03 0.000E+00

     negative rho (up, down):  4.837E-03 0.000E+00

     negative rho (up, down):  4.837E-03 0.000E+00

     negative rho (up, down):  4.837E-03 0.000E+00

     negative rho (up, down):  4.837E-03 0.000E+00

     negative rho (up, down):  4.837E-03 0.000E+00

     negative rho (up, down):  4.837E-03 0.000E+00

     negative rho (up, down):  4.837E-03 0.000E+00

     negative rho (up, down):  4.837E-03 0.000E+00

     negative rho (up, down):  4.837E-03 0.000E+00

     negative rho (up, down):  4.837E-03 0.000E+00

     negative rho (up, down):  4.837E-03 0.000E+00

     negative rho (up, down):  4.837E-03 0.000E+00

     negative rho (up, down):  4.837E-03 0.000E+00

     negative rho (up, down):  4.837E-03 0.000E+00

     negative rho (up, down):  4.837E-03 0.000E+00

     negative rho (up, down):  4.837E-03 0.000E+00

     negative rho (up, down):  4.837E-03 0.000E+00

     negative rho (up, down):  4.837E-03 0.000E+00

     negative rho (up, down):  4.837E-03 0.000E+00

     negative rho (up, down):  4.837E-03 0.000E+00

     negative rho (up, down):  4.837E-03 0.000E+00

     negative rho (up, down):  4.837E-03 0.000E+00

     negative rho (up, down):  4.837E-03 0.000E+00

     negative rho (up, down):  4.837E-03 0.000E+00

     negative rho (up, down):  4.837E-03 0.000E+00

     negative rho (up, down):  4.837E-03 0.000E+00

     negative rho (up, down):  4.837E-03 0.000E+00

     negative rho (up, down):  4.837E-03 0.000E+00

     negative rho (up, down):  4.837E-03 0.000E+00

     negative rho (up, down):  4.837E-03 0.000E+00

     negative rho (up, down):  4.837E-03 0.000E+00
 
     Adding external electric field

     Computed dipole along edir(3) : 
        Dipole               -0.0594 Ry au,         -0.1510 Debye
        Dipole field         -0.0002 Ry au
 
        Potential amp.        0.0149 Ry
        Total length         45.3158 bohr
 

     total cpu time spent up to now is      732.9 secs

     End of self-consistent calculation

          k = 0.0000 0.0000 0.0000 ( 17111 PWs)   bands (ev):

   -58.8289 -58.7429 -58.6630 -58.6623 -58.6307 -58.6058 -58.5854 -58.5851
   -58.5688 -58.5066 -58.5061 -58.5001 -33.3356 -33.3184 -33.3183 -33.2694
   -33.2366 -33.2324 -33.2322 -33.1443 -33.1335 -33.1334 -32.8398 -32.7390
   -32.7384 -32.6856 -32.6311 -32.6308 -32.6280 -32.5188 -32.5186 -32.5108
   -32.4329 -32.4328 -32.4119 -32.4107 -32.4082 -32.4080 -32.3458 -32.2882
   -32.2840 -32.2838 -32.2425 -32.2424 -32.1780 -32.1780 -32.0773 -32.0773
    -3.7907  -2.7786  -2.2142  -2.1741  -2.1741  -2.1566  -1.9401  -1.7469
    -1.7469  -1.6790  -1.5172  -1.5172  -1.3667  -1.3082  -1.3082  -0.7855
    -0.1253  -0.1253   0.3554   0.7996   0.7996   0.8488   1.1104   1.2815
     1.5837   1.5837   1.8478   1.8478   1.9897   1.9897   2.0130   2.0130
     2.0239   2.1710   2.2160   2.2160   2.7330   3.2870   3.2871   3.3015
     3.5117   3.5118   3.5459   4.0591   4.0591   4.3544

          k = 0.0000 0.0342 0.0000 ( 17130 PWs)   bands (ev):

   -58.8175 -58.7330 -58.6710 -58.6628 -58.6250 -58.6090 -58.5915 -58.5852
   -58.5713 -58.5127 -58.5063 -58.5015 -33.2960 -33.2819 -33.2604 -33.2315
   -33.2146 -33.2002 -33.1866 -33.1081 -33.0984 -33.0768 -32.8367 -32.7691
   -32.7496 -32.7212 -32.6298 -32.6250 -32.6114 -32.5434 -32.5424 -32.4985
   -32.4792 -32.4770 -32.4104 -32.4051 -32.3923 -32.3919 -32.3666 -32.3230
   -32.3188 -32.3036 -32.2735 -32.2593 -32.2323 -32.1928 -32.1424 -32.0911
    -3.5532  -2.5985  -2.0499  -1.9860  -1.9728  -1.9459  -1.7776  -1.6397
    -1.5524  -1.5162  -1.3819  -1.3634  -1.2228  -1.1035  -1.0531  -0.7044
    -0.0782  -0.0424   0.3775   0.8685   0.8934   0.9029   1.0640   1.1312
     1.3413   1.6412   1.6645   1.7945   1.8018   1.8962   1.9672   2.0032
     2.0771   2.1708   2.1891   2.2349   2.4277   2.8930   2.9324   2.9694
     3.3774   3.3793   3.5501   3.7727   3.8770   3.9026

          k = 0.0000 0.0684 0.0000 ( 17142 PWs)   bands (ev):

   -58.7866 -58.7088 -58.6947 -58.6629 -58.6328 -58.6099 -58.5926 -58.5853
   -58.5734 -58.5337 -58.5062 -58.5019 -33.2047 -33.1897 -33.1629 -33.1446
   -33.1271 -33.0962 -33.0859 -33.0279 -33.0122 -32.9244 -32.8387 -32.8008
   -32.7913 -32.7835 -32.6407 -32.6227 -32.6065 -32.5933 -32.5745 -32.5611
   -32.5597 -32.5060 -32.4539 -32.4523 -32.4396 -32.4327 -32.3769 -32.3713
   -32.3590 -32.3560 -32.3519 -32.3109 -32.2758 -32.2377 -32.2281 -32.1289
    -2.9326  -2.2267  -1.8132  -1.5492  -1.4965  -1.4934  -1.3695  -1.1997
    -1.0935  -1.0693  -1.0049  -0.8878  -0.8849  -0.6349  -0.4051  -0.3580
     0.0319   0.1459   0.3154   0.5008   0.7500   0.9790   1.0139   1.0325
     1.1499   1.2630   1.2729   1.5249   1.5773   1.6981   1.7063   1.8104
     2.0201   2.1728   2.2404   2.2912   2.3184   2.3775   2.4013   2.6381
     2.6836   2.7511   2.8496   3.0242   3.0583   3.5025

          k = 0.0000-0.1026 0.0000 ( 17160 PWs)   bands (ev):

   -58.7531 -58.7319 -58.6691 -58.6644 -58.6629 -58.6134 -58.5853 -58.5752
   -58.5644 -58.5619 -58.5062 -58.5020 -33.1342 -33.1166 -33.1084 -33.0944
   -33.0933 -33.0827 -32.9730 -32.9464 -32.9133 -32.9059 -32.8484 -32.8412
   -32.7663 -32.7014 -32.6682 -32.6667 -32.6567 -32.6283 -32.6267 -32.6015
   -32.5538 -32.5519 -32.5353 -32.5213 -32.5136 -32.5046 -32.3945 -32.3846
   -32.3720 -32.3647 -32.3356 -32.3229 -32.3083 -32.2757 -32.1825 -32.1786
    -2.3728  -2.0852  -1.8868  -1.3075  -1.1715  -1.1277  -1.1252  -0.9247
    -0.8597  -0.7734  -0.6852  -0.4034  -0.3605  -0.2721  -0.1910  -0.1360
    -0.0710   0.3496   0.4284   0.5126   0.5348   0.5803   0.7168   0.9187
     1.1137   1.2223   1.2746   1.3962   1.4681   1.4958   1.5470   1.5871
     1.6653   1.6998   1.7067   1.7538   1.9066   1.9763   2.4368   2.5071
     2.5637   2.8754   3.0644   3.0829   3.1832   3.2169

          k = 0.0296-0.0171 0.0000 ( 17130 PWs)   bands (ev):

   -58.8175 -58.7330 -58.6708 -58.6630 -58.6250 -58.6089 -58.5914 -58.5854
   -58.5713 -58.5128 -58.5061 -58.5016 -33.2960 -33.2818 -33.2604 -33.2315
   -33.2146 -33.2001 -33.1866 -33.1080 -33.0985 -33.0768 -32.8367 -32.7691
   -32.7498 -32.7212 -32.6298 -32.6249 -32.6114 -32.5435 -32.5424 -32.4985
   -32.4792 -32.4770 -32.4103 -32.4051 -32.3922 -32.3920 -32.3667 -32.3230
   -32.3188 -32.3037 -32.2736 -32.2592 -32.2323 -32.1928 -32.1424 -32.0911
    -3.5532  -2.5985  -2.0499  -1.9860  -1.9727  -1.9459  -1.7776  -1.6397
    -1.5524  -1.5162  -1.3819  -1.3634  -1.2228  -1.1035  -1.0531  -0.7044
    -0.0782  -0.0424   0.3775   0.8685   0.8934   0.9030   1.0639   1.1312
     1.3413   1.6412   1.6645   1.7945   1.8018   1.8962   1.9672   2.0031
     2.0772   2.1708   2.1892   2.2349   2.4277   2.8930   2.9324   2.9694
     3.3775   3.3793   3.5501   3.7727   3.8770   3.9027

          k = 0.0296 0.0171 0.0000 ( 17130 PWs)   bands (ev):

   -58.8175 -58.7330 -58.6714 -58.6624 -58.6250 -58.6090 -58.5915 -58.5853
   -58.5713 -58.5126 -58.5066 -58.5013 -33.2960 -33.2819 -33.2604 -33.2314
   -33.2146 -33.2003 -33.1865 -33.1082 -33.0984 -33.0768 -32.8367 -32.7693
   -32.7493 -32.7213 -32.6299 -32.6250 -32.6112 -32.5434 -32.5425 -32.4984
   -32.4793 -32.4770 -32.4103 -32.4052 -32.3923 -32.3919 -32.3667 -32.3231
[...]
   -32.9962 -32.9917 -32.9299 -32.9089 -32.8404 -32.8008 -32.7893 -32.7471
   -32.7408 -32.6862 -32.6620 -32.6035 -32.5480 -32.5174 -32.5093 -32.4991
   -32.4724 -32.4455 -32.4398 -32.4129 -32.3978 -32.3577 -32.3338 -32.3274
   -32.2917 -32.2784 -32.2421 -32.2364 -32.2245 -32.1827 -32.1731 -32.1191
    -3.2417  -2.1289  -1.6352  -1.2070  -1.1807  -1.1303  -1.0532  -0.9360
    -0.7227  -0.6989  -0.6359  -0.5715  -0.3115  -0.2851  -0.2229  -0.0626
     0.1174   0.2975   0.3405   0.4141   0.6170   0.7077   0.7705   0.8613
     1.0244   1.2056   1.2536   1.3044   1.3841   1.4817   1.5121   1.6828
     1.7534   1.7649   1.8327   2.0029   2.1353   2.2799   2.3878   2.4956
     2.6241   3.0433   3.1161   3.1497   3.1987   3.3283

          k = 0.0296-0.0513 0.0000 ( 17106 PWs)   bands (ev):

   -58.7017 -58.6258 -58.5721 -58.5624 -58.5413 -58.5292 -58.5197 -58.5006
   -58.4824 -58.4631 -58.4577 -58.4435 -33.1796 -33.1266 -33.1095 -33.1014
   -33.1002 -33.0579 -33.0457 -32.9942 -32.9305 -32.9205 -32.7503 -32.7122
   -32.7059 -32.6823 -32.5791 -32.5295 -32.5250 -32.5043 -32.4934 -32.4346
   -32.4260 -32.3811 -32.3715 -32.3555 -32.3354 -32.3292 -32.3144 -32.2831
   -32.2737 -32.2403 -32.2267 -32.2222 -32.2141 -32.1669 -32.1232 -32.0663
    -3.6062  -2.7207  -1.7228  -1.7101  -1.5868  -1.5308  -1.4323  -1.4119
    -1.2535  -1.0964  -1.0772  -1.0000  -0.8916  -0.7410  -0.5187  -0.3689
     0.0625   0.1317   0.4869   0.7051   0.9393   1.0549   1.0794   1.1266
     1.1831   1.2702   1.5816   1.6072   1.6880   1.7882   1.9453   1.9655
     2.0650   2.1052   2.2789   2.3852   2.4603   2.4989   2.5099   2.7445
     2.9682   3.0656   3.1523   3.2067   3.3867   3.4050

          k = 0.0592-0.0342 0.0000 ( 17142 PWs)   bands (ev):

   -58.6909 -58.6191 -58.5900 -58.5473 -58.5457 -58.5361 -58.5096 -58.5083
   -58.4840 -58.4717 -58.4502 -58.4472 -33.1423 -33.1261 -33.0948 -33.0818
   -33.0477 -33.0298 -33.0187 -32.9589 -32.9443 -32.8411 -32.7556 -32.7184
   -32.7124 -32.7062 -32.5525 -32.5328 -32.5143 -32.5060 -32.4946 -32.4833
   -32.4784 -32.4224 -32.3754 -32.3711 -32.3668 -32.3574 -32.2987 -32.2904
   -32.2757 -32.2686 -32.2630 -32.2330 -32.1943 -32.1704 -32.1382 -32.0690
    -3.4913  -2.5707  -1.7818  -1.5051  -1.4807  -1.4525  -1.3452  -1.1603
    -1.0435  -1.0299  -0.9635  -0.8525  -0.8403  -0.5421  -0.3598  -0.2715
     0.0821   0.2147   0.3713   0.5975   0.8014   1.0210   1.0633   1.0961
     1.2165   1.3307   1.3651   1.5790   1.6508   1.7366   1.7686   1.8768
     2.0477   2.2268   2.2646   2.3176   2.3977   2.4164   2.4347   2.6754
     2.7440   2.8140   2.9101   3.1223   3.1275   3.6140

          k = 0.0592 0.0000 0.0000 ( 17106 PWs)   bands (ev):

   -58.7017 -58.6258 -58.5720 -58.5624 -58.5413 -58.5292 -58.5198 -58.5006
   -58.4824 -58.4632 -58.4577 -58.4435 -33.1796 -33.1265 -33.1095 -33.1014
   -33.1003 -33.0579 -33.0457 -32.9942 -32.9304 -32.9206 -32.7503 -32.7121
   -32.7059 -32.6823 -32.5791 -32.5295 -32.5249 -32.5043 -32.4934 -32.4346
   -32.4259 -32.3811 -32.3715 -32.3555 -32.3354 -32.3292 -32.3144 -32.2831
   -32.2737 -32.2403 -32.2267 -32.2222 -32.2141 -32.1669 -32.1232 -32.0663
    -3.6062  -2.7207  -1.7229  -1.7100  -1.5868  -1.5308  -1.4323  -1.4119
    -1.2535  -1.0964  -1.0772  -1.0001  -0.8916  -0.7410  -0.5187  -0.3689
     0.0626   0.1317   0.4869   0.7051   0.9393   1.0549   1.0794   1.1266
     1.1831   1.2702   1.5816   1.6072   1.6880   1.7882   1.9453   1.9655
     2.0650   2.1052   2.2789   2.3852   2.4603   2.4989   2.5098   2.7445
     2.9683   3.0655   3.1523   3.2067   3.3867   3.4049

          k = 0.0592 0.0342 0.0000 ( 17142 PWs)   bands (ev):

   -58.6909 -58.6191 -58.5900 -58.5474 -58.5456 -58.5362 -58.5096 -58.5083
   -58.4839 -58.4717 -58.4504 -58.4470 -33.1422 -33.1262 -33.0947 -33.0818
   -33.0476 -33.0298 -33.0188 -32.9591 -32.9441 -32.8411 -32.7556 -32.7184
   -32.7123 -32.7063 -32.5525 -32.5327 -32.5143 -32.5061 -32.4945 -32.4834
   -32.4783 -32.4224 -32.3755 -32.3710 -32.3669 -32.3574 -32.2988 -32.2905
   -32.2757 -32.2685 -32.2631 -32.2331 -32.1943 -32.1704 -32.1382 -32.0690
    -3.4914  -2.5707  -1.7818  -1.5051  -1.4807  -1.4526  -1.3452  -1.1603
    -1.0435  -1.0299  -0.9635  -0.8526  -0.8403  -0.5421  -0.3597  -0.2716
     0.0822   0.2146   0.3713   0.5975   0.8014   1.0210   1.0632   1.0961
     1.2165   1.3308   1.3651   1.5789   1.6509   1.7366   1.7686   1.8769
     2.0477   2.2268   2.2646   2.3176   2.3977   2.4164   2.4347   2.6754
     2.7440   2.8139   2.9101   3.1222   3.1276   3.6140

          k = 0.0592-0.1368 0.0000 ( 17122 PWs)   bands (ev):

   -58.6615 -58.6156 -58.5911 -58.5720 -58.5504 -58.5278 -58.5172 -58.4978
   -58.4859 -58.4785 -58.4625 -58.4406 -33.0838 -33.0488 -33.0262 -33.0145
   -32.9961 -32.9917 -32.9299 -32.9090 -32.8404 -32.8008 -32.7893 -32.7472
   -32.7407 -32.6862 -32.6620 -32.6035 -32.5480 -32.5174 -32.5093 -32.4991
   -32.4724 -32.4455 -32.4397 -32.4130 -32.3978 -32.3577 -32.3338 -32.3274
   -32.2917 -32.2784 -32.2421 -32.2364 -32.2245 -32.1826 -32.1731 -32.1191
    -3.2417  -2.1289  -1.6352  -1.2070  -1.1808  -1.1303  -1.0532  -0.9360
    -0.7226  -0.6989  -0.6358  -0.5715  -0.3115  -0.2851  -0.2229  -0.0627
     0.1174   0.2975   0.3405   0.4140   0.6170   0.7077   0.7704   0.8613
     1.0245   1.2057   1.2536   1.3045   1.3841   1.4818   1.5120   1.6828
     1.7534   1.7649   1.8327   2.0029   2.1353   2.2798   2.3878   2.4956
     2.6241   3.0433   3.1161   3.1497   3.1987   3.3283

          k = 0.0592-0.1026 0.0000 ( 17100 PWs)   bands (ev):

   -58.6291 -58.6174 -58.6131 -58.5612 -58.5589 -58.5471 -58.5011 -58.4922
   -58.4912 -58.4783 -58.4742 -58.4378 -33.0042 -32.9984 -32.9967 -32.9652
   -32.9631 -32.9512 -32.8839 -32.8807 -32.8778 -32.7951 -32.7786 -32.7219
   -32.7059 -32.7049 -32.6866 -32.6513 -32.6454 -32.6429 -32.5081 -32.5078
   -32.5044 -32.4597 -32.4401 -32.3602 -32.3585 -32.3573 -32.3464 -32.3000
   -32.2977 -32.2733 -32.2615 -32.2557 -32.2514 -32.1913 -32.1897 -32.1844
    -3.1045  -1.5371  -1.5282  -1.4985  -0.8322  -0.8046  -0.7238  -0.7199
    -0.6776  -0.4553  -0.3024  -0.2953  -0.2390  -0.2036  -0.1523  -0.1455
     0.3053   0.3205   0.4003   0.4505   0.5248   0.5270   0.6474   0.7597
     0.7898   0.7908   0.8401   0.8767   0.9597   1.2299   1.2681   1.4566
     1.5513   1.5778   2.0051   2.0254   2.0585   2.3287   2.3299   2.3490
     2.7453   2.7711   2.7939   3.1329   3.3057   3.3464

          k = 0.0592-0.0684 0.0000 ( 17122 PWs)   bands (ev):

   -58.6615 -58.6156 -58.5911 -58.5720 -58.5504 -58.5277 -58.5172 -58.4979
   -58.4859 -58.4784 -58.4625 -58.4406 -33.0838 -33.0488 -33.0262 -33.0145
   -32.9962 -32.9917 -32.9299 -32.9089 -32.8404 -32.8008 -32.7893 -32.7471
   -32.7408 -32.6862 -32.6620 -32.6035 -32.5480 -32.5174 -32.5093 -32.4991
   -32.4724 -32.4455 -32.4398 -32.4129 -32.3978 -32.3577 -32.3338 -32.3274
   -32.2917 -32.2784 -32.2421 -32.2363 -32.2245 -32.1827 -32.1731 -32.1191
    -3.2417  -2.1289  -1.6352  -1.2070  -1.1808  -1.1303  -1.0532  -0.9360
    -0.7226  -0.6989  -0.6359  -0.5715  -0.3115  -0.2851  -0.2229  -0.0626
     0.1174   0.2975   0.3406   0.4140   0.6170   0.7077   0.7704   0.8613
     1.0244   1.2057   1.2536   1.3045   1.3841   1.4817   1.5120   1.6829
     1.7534   1.7649   1.8327   2.0029   2.1353   2.2798   2.3878   2.4957
     2.6241   3.0433   3.1161   3.1498   3.1987   3.3283

          k =-0.0888 0.0513 0.0000 ( 17160 PWs)   bands (ev):

   -58.6484 -58.6396 -58.5823 -58.5730 -58.5474 -58.5229 -58.5083 -58.5067
   -58.4945 -58.4805 -58.4501 -58.4473 -33.0711 -33.0547 -33.0472 -33.0232
   -33.0185 -33.0136 -32.8985 -32.8749 -32.8425 -32.8360 -32.7812 -32.7688
   -32.6683 -32.6152 -32.5855 -32.5764 -32.5695 -32.5344 -32.5332 -32.5200
   -32.4774 -32.4755 -32.4575 -32.4520 -32.4453 -32.4330 -32.3095 -32.3050
   -32.2984 -32.2790 -32.2442 -32.2334 -32.2147 -32.1844 -32.1205 -32.1167
    -3.2423  -2.0327  -1.9404  -1.2587  -1.1152  -1.0974  -1.0878  -0.8742
    -0.8584  -0.7218  -0.6187  -0.3714  -0.3376  -0.2389  -0.1225  -0.0986
    -0.0321   0.3950   0.4358   0.5822   0.5867   0.6118   0.7111   1.0265
     1.1631   1.3087   1.3204   1.4446   1.4980   1.5369   1.6013   1.6734
     1.7161   1.7754   1.7810   1.8320   1.9476   2.0379   2.4701   2.4836
     2.8901   2.9616   3.1376   3.1662   3.2223   3.2671

          k =-0.0888 0.0855 0.0000 ( 17122 PWs)   bands (ev):

   -58.6615 -58.6156 -58.5911 -58.5720 -58.5505 -58.5277 -58.5172 -58.4979
   -58.4859 -58.4784 -58.4625 -58.4406 -33.0838 -33.0488 -33.0262 -33.0145
   -32.9962 -32.9916 -32.9299 -32.9089 -32.8404 -32.8008 -32.7893 -32.7472
   -32.7407 -32.6862 -32.6619 -32.6035 -32.5481 -32.5174 -32.5094 -32.4991
   -32.4723 -32.4455 -32.4398 -32.4129 -32.3978 -32.3577 -32.3338 -32.3274
   -32.2917 -32.2784 -32.2421 -32.2363 -32.2245 -32.1827 -32.1731 -32.1191
    -3.2417  -2.1289  -1.6352  -1.2070  -1.1807  -1.1303  -1.0532  -0.9360
    -0.7227  -0.6989  -0.6359  -0.5715  -0.3114  -0.2851  -0.2229  -0.0626
     0.1174   0.2974   0.3406   0.4140   0.6170   0.7077   0.7705   0.8613
     1.0245   1.2057   1.2536   1.3045   1.3842   1.4817   1.5120   1.6828
     1.7534   1.7648   1.8327   2.0029   2.1353   2.2798   2.3878   2.4956
     2.6241   3.0433   3.1161   3.1498   3.1987   3.3283

          k =-0.0888 0.1197 0.0000 ( 17122 PWs)   bands (ev):

   -58.6615 -58.6156 -58.5911 -58.5720 -58.5505 -58.5278 -58.5172 -58.4978
   -58.4859 -58.4784 -58.4625 -58.4406 -33.0838 -33.0488 -33.0262 -33.0145
   -32.9962 -32.9916 -32.9299 -32.9090 -32.8404 -32.8008 -32.7893 -32.7471
   -32.7407 -32.6862 -32.6620 -32.6035 -32.5480 -32.5174 -32.5093 -32.4991
   -32.4724 -32.4455 -32.4398 -32.4130 -32.3978 -32.3577 -32.3338 -32.3274
   -32.2917 -32.2784 -32.2421 -32.2364 -32.2245 -32.1826 -32.1731 -32.1191
    -3.2417  -2.1289  -1.6352  -1.2070  -1.1807  -1.1303  -1.0532  -0.9360
    -0.7226  -0.6989  -0.6358  -0.5715  -0.3115  -0.2851  -0.2229  -0.0626
     0.1174   0.2974   0.3406   0.4141   0.6170   0.7077   0.7705   0.8613
     1.0245   1.2057   1.2536   1.3045   1.3841   1.4818   1.5120   1.6828
     1.7534   1.7648   1.8327   2.0029   2.1353   2.2798   2.3878   2.4956
     2.6241   3.0433   3.1161   3.1497   3.1987   3.3283

          k =-0.0888-0.0513 0.0000 ( 17160 PWs)   bands (ev):

   -58.6485 -58.6395 -58.5825 -58.5728 -58.5475 -58.5230 -58.5083 -58.5064
   -58.4946 -58.4805 -58.4504 -58.4471 -33.0710 -33.0548 -33.0473 -33.0232
   -33.0186 -33.0134 -32.8987 -32.8746 -32.8426 -32.8360 -32.7811 -32.7689
   -32.6682 -32.6153 -32.5854 -32.5765 -32.5696 -32.5346 -32.5331 -32.5199
   -32.4773 -32.4756 -32.4574 -32.4522 -32.4452 -32.4329 -32.3095 -32.3049
   -32.2984 -32.2790 -32.2442 -32.2334 -32.2148 -32.1842 -32.1206 -32.1165
    -3.2423  -2.0327  -1.9404  -1.2587  -1.1152  -1.0974  -1.0878  -0.8741
    -0.8585  -0.7218  -0.6187  -0.3713  -0.3377  -0.2388  -0.1226  -0.0985
    -0.0321   0.3949   0.4358   0.5822   0.5868   0.6119   0.7111   1.0265
     1.1631   1.3087   1.3204   1.4446   1.4981   1.5369   1.6013   1.6734
     1.7161   1.7754   1.7809   1.8321   1.9477   2.0378   2.4702   2.4835
     2.8901   2.9617   3.1375   3.1662   3.2223   3.2671

     the Fermi energy is     2.3227 ev

!    total energy              =   -1680.47650657 Ry
     Harris-Foulkes estimate   =   -1680.47650809 Ry
     estimated scf accuracy    <       0.00000237 Ry

     The total energy is the sum of the following terms:

     one-electron contribution =  -15222.86870860 Ry
     hartree contribution      =    7605.99608824 Ry
     xc contribution           =    -240.85114147 Ry
     ewald contribution        =    6177.34589339 Ry
     electric field correction =       0.00000081 Ry
     smearing contrib. (-TS)   =      -0.09863894 Ry

     convergence has been achieved in  17 iterations
 
 BEEF-vdW xc energy contributions
           1 :   -206.868214575780     
           2 :    189.015014236376     
           3 :   -158.412061728515     
           4 :    123.145968769835     
           5 :   -91.3385486213181     
           6 :    68.5383608886870     
           7 :   -56.4240117016507     
           8 :    53.0656469124103     
           9 :   -54.4138180709315     
          10 :    56.2251007748112     
          11 :   -55.6351545111060     
          12 :    51.8424144165845     
          13 :   -45.8437316894819     
          14 :    39.5156924247979     
          15 :   -34.5470409705576     
          16 :    31.6731074211064     
          17 :   -30.4869401158102     
          18 :    29.8102090142440     
          19 :   -28.3825355898633     
          20 :    25.5027650441872     
          21 :   -21.3254883367363     
          22 :    16.7008334848142     
          23 :   -12.6863423481700     
          24 :    10.0002846469906     
          25 :   -8.69595158070862     
          26 :    8.19153591192025     
          27 :   -7.60934981625309     
          28 :    6.22628623187498     
          29 :   -3.80966401517327     
          30 :   0.686193186916427     
          31 :   -23.5943556310332     
          32 :   -18.1013240156319     

     Forces acting on atoms (Ry/au):


     negative rho (up, down):  4.935E-03 0.000E+00
     atom    1 type  1   force =    -0.00000119    0.00000161   -0.00386769
     atom    2 type  1   force =     0.00000152    0.00019544   -0.00642561
     atom    3 type  1   force =     0.00016823   -0.00009892   -0.00642618
     atom    4 type  1   force =    -0.00016688   -0.00009781   -0.00643777
     atom    5 type  1   force =     0.00632886   -0.00366478    0.00907977
     atom    6 type  1   force =    -0.00633065   -0.00366807    0.00908531
     atom    7 type  1   force =    -0.00000207    0.00001278   -0.00521053
     atom    8 type  1   force =     0.00000205    0.00731931    0.00909846
     atom    9 type  1   force =    -0.00015171   -0.00008542   -0.00020936
     atom   10 type  1   force =     0.00015237   -0.00007912   -0.00022397
     atom   11 type  1   force =     0.00000610    0.00017928   -0.00019476
     atom   12 type  1   force =    -0.00000676   -0.00000657    0.00134517
     atom   13 type  2   force =     0.00000013   -0.00000771    0.00038714

     Total force =     0.024016     Total SCF correction =     0.006543
     SCF correction compared to forces is large: reduce conv_thr to get better values


     entering subroutine stress ...


     negative rho (up, down):  4.935E-03 0.000E+00
          total   stress  (Ry/bohr**3)                   (kbar)     P=  -18.76
  -0.00020272  -0.00000000  -0.00000000        -29.82     -0.00     -0.00
  -0.00000000  -0.00020270  -0.00000000         -0.00    -29.82     -0.00
  -0.00000000  -0.00000000   0.00002294         -0.00     -0.00      3.37

 !ASE

     Writing output data file calc.save
 
     init_run     :     13.34s CPU     21.99s WALL (       1 calls)
     electrons    :    483.39s CPU    766.56s WALL (       1 calls)
     forces       :      3.63s CPU      4.53s WALL (       1 calls)
     stress       :      9.14s CPU     11.02s WALL (       1 calls)

     Called by init_run:
     wfcinit      :     10.94s CPU     18.36s WALL (       1 calls)
     potinit      :      1.25s CPU      2.06s WALL (       1 calls)

     Called by electrons:
     c_bands      :    365.93s CPU    569.87s WALL (      17 calls)
     sum_band     :     56.62s CPU     94.57s WALL (      17 calls)
     v_of_rho     :     18.59s CPU     32.86s WALL (      18 calls)
     newd         :      8.35s CPU      8.99s WALL (      18 calls)
     mix_rho      :      0.69s CPU      1.24s WALL (      17 calls)
     vdW_energy   :      3.01s CPU      3.36s WALL (      54 calls)
     vdW_ffts     :     32.87s CPU     62.26s WALL (     110 calls)
     vdW_v        :      6.45s CPU     10.83s WALL (      54 calls)

     Called by c_bands:
     init_us_2    :      1.03s CPU      1.09s WALL (     740 calls)
     cegterg      :    358.82s CPU    561.82s WALL (     340 calls)

     Called by *egterg:
     h_psi        :    243.11s CPU    438.24s WALL (    1699 calls)
     s_psi        :      9.96s CPU     10.20s WALL (    1699 calls)
     g_psi        :      0.57s CPU      0.57s WALL (    1339 calls)
     cdiaghg      :     71.72s CPU     74.03s WALL (    1679 calls)

     Called by h_psi:
     add_vuspsi   :     10.35s CPU     10.38s WALL (    1699 calls)

     General routines
     calbec       :     19.50s CPU     24.63s WALL (    2079 calls)
     fft          :     49.24s CPU     93.42s WALL (    3291 calls)
     ffts         :      0.15s CPU      0.33s WALL (      35 calls)
     fftw         :    243.39s CPU    468.27s WALL (  195358 calls)
     interpolate  :      0.66s CPU      1.33s WALL (      35 calls)
     davcio       :      0.00s CPU      0.04s WALL (      20 calls)
 
     Parallel routines
     fft_scatter  :    255.86s CPU    522.10s WALL (  198684 calls)
 
     PWSCF        :  8m30.23s CPU    13m25.59s WALL

 
   This run was terminated on:   3:53:31  14Jan2018            

=------------------------------------------------------------------------------=
   JOB DONE.
=------------------------------------------------------------------------------=
Job  /afs/slac/g/suncat/bin/suncat-tsmpirun -x LD_LIBRARY_PATH -wdir /scratch/qe842458_PHsfh pw.x -in pw.inp

TID   HOST_NAME   COMMAND_LINE            STATUS            TERMINATION_TIME
===== ========== ================  =======================  ===================
00000 suncat1058 pw.x -in pw.inp   Done                     01/14/2018 03:53:31
00001 suncat1058 pw.x -in pw.inp   Done                     01/14/2018 03:53:31
00002 suncat1058 pw.x -in pw.inp   Done                     01/14/2018 03:53:31
00003 suncat1058 pw.x -in pw.inp   Done                     01/14/2018 03:53:31
00004 suncat1058 pw.x -in pw.inp   Done                     01/14/2018 03:53:31
00005 suncat1058 pw.x -in pw.inp   Done                     01/14/2018 03:53:31
00006 suncat1058 pw.x -in pw.inp   Done                     01/14/2018 03:53:31
00007 suncat1058 pw.x -in pw.inp   Done                     01/14/2018 03:53:31
00008 suncat1037 pw.x -in pw.inp   Done                     01/14/2018 03:53:31
00009 suncat1037 pw.x -in pw.inp   Done                     01/14/2018 03:53:31
00010 suncat1037 pw.x -in pw.inp   Done                     01/14/2018 03:53:31
00011 suncat1037 pw.x -in pw.inp   Done                     01/14/2018 03:53:31
00012 suncat1037 pw.x -in pw.inp   Done                     01/14/2018 03:53:31
00013 suncat1037 pw.x -in pw.inp   Done                     01/14/2018 03:53:31
00014 suncat1037 pw.x -in pw.inp   Done                     01/14/2018 03:53:31
00015 suncat1037 pw.x -in pw.inp   Done                     01/14/2018 03:53:31
00016 suncat1037 pw.x -in pw.inp   Done                     01/14/2018 03:53:31
00017 suncat1037 pw.x -in pw.inp   Done                     01/14/2018 03:53:31
00018 suncat1037 pw.x -in pw.inp   Done                     01/14/2018 03:53:31
00019 suncat1037 pw.x -in pw.inp   Done                     01/14/2018 03:53:31
00020 suncat1036 pw.x -in pw.inp   Done                     01/14/2018 03:53:31
00021 suncat1036 pw.x -in pw.inp   Done                     01/14/2018 03:53:31
00022 suncat1036 pw.x -in pw.inp   Done                     01/14/2018 03:53:31
00023 suncat1036 pw.x -in pw.inp   Done                     01/14/2018 03:53:31
00024 suncat1036 pw.x -in pw.inp   Done                     01/14/2018 03:53:31
00025 suncat1036 pw.x -in pw.inp   Done                     01/14/2018 03:53:31
00026 suncat1036 pw.x -in pw.inp   Done                     01/14/2018 03:53:31
00027 suncat1036 pw.x -in pw.inp   Done                     01/14/2018 03:53:31
00028 suncat1036 pw.x -in pw.inp   Done                     01/14/2018 03:53:31
00029 suncat1036 pw.x -in pw.inp   Done                     01/14/2018 03:53:31
00030 suncat1036 pw.x -in pw.inp   Done                     01/14/2018 03:53:31
00031 suncat1036 pw.x -in pw.inp   Done                     01/14/2018 03:53:31
