  python dir          : /nfs/slac/g/suncatfs/sw/espv20/lib/python2.7/site-packages/espresso
  espresso dir        : /nfs/slac/g/suncatfs/sw/espv18/espresso-dynpy-beef/bin
  pseudo dir          : /afs/slac.stanford.edu/u/if/mamunm/psp/gbrv1.5pbe
  ase-espresso py git : ffa2778-git



     Program PWSCF v.5.1rc2 (svn rev. 11289) starts on 14Jan2018 at  3:27:23 

     This program is part of the open-source Quantum ESPRESSO suite
     for quantum simulation of materials; please cite
         "P. Giannozzi et al., J. Phys.:Condens. Matter 21 395502 (2009);
          URL http://www.quantum-espresso.org", 
     in publications or presentations arising from this work. More details at
     http://www.quantum-espresso.org/quote

     Parallel version (MPI), running on    32 processors
     R & G space division:  proc/nbgrp/npool/nimage =      32
     Reading input from pw.inp
     Message from routine read_cards :
     DEPRECATED: no units specified in CELL_PARAMETERS card

     Current dimensions of program PWSCF are:
     Max number of different atomic species (ntypx) = 10
     Max number of k-points (npk) =  40000
     Max angular momentum in pseudopotentials (lmaxx) =  3
     Presently stress not available with electric field


     **************************************************************************
     Initializing libbeef V0.1.1 with the BEEF-vdW functional.
     Citation: Wellendorff et al., PRB 85, 235149 (2012).
     **************************************************************************


     IMPORTANT: XC functional enforced from input :
     Exchange-correlation      = BEEF-VDW ( 1  4 27 13 2)
     Any further DFT definition will be discarded
     Please, verify this is what you really want


     Subspace diagonalization in iterative solution of the eigenvalue problem:
     a serial algorithm will be used

 
     Parallelization info
     --------------------
     sticks:   dense  smooth     PW     G-vecs:    dense   smooth      PW
     Min          84      33      9                16000     4018     623
     Max          85      34     10                16029     4064     652
     Sum        2713    1075    313               512659   129281   20533
 


     bravais-lattice index     =            0
     lattice parameter (alat)  =       1.8897  a.u.
     unit-cell volume          =    4306.9643 (a.u.)^3
     number of atoms/cell      =           13
     number of atomic types    =            2
     number of electrons       =       181.00
     number of Kohn-Sham states=          100
     kinetic-energy cutoff     =      36.7493  Ry
     charge density cutoff     =     367.4932  Ry
     convergence threshold     =      1.0E-05
     mixing beta               =       0.3000
     number of iterations used =           10  plain     mixing
     Exchange-correlation      = BEEF-VDW ( 1  4 27 13 2)
     nstep                     =           50


     celldm(1)=   1.889726  celldm(2)=   0.000000  celldm(3)=   0.000000
     celldm(4)=   0.000000  celldm(5)=   0.000000  celldm(6)=   0.000000

     crystal axes: (cart. coord. in units of alat)
               a(1) = (   5.486772   0.000000   0.000000 )  
               a(2) = (   2.743386   4.751684   0.000000 )  
               a(3) = (   0.000000   0.000000  24.479931 )  

     reciprocal axes: (cart. coord. in units 2 pi/alat)
               b(1) = (  0.182257 -0.105226  0.000000 )  
               b(2) = (  0.000000  0.210452  0.000000 )  
               b(3) = (  0.000000  0.000000  0.040850 )  


     PseudoPot. # 1 for Re read from file:
     /afs/slac.stanford.edu/u/if/mamunm/psp/gbrv1.5pbe/Re.UPF
     MD5 check sum: 85f993410f3e006da9d71c142b4ad953
     Pseudo is Ultrasoft + core correction, Zval = 15.0
     Generated by new atomic code, or converted to UPF format
     Using radial grid of  981 points,  8 beta functions with: 
                l(1) =   0
                l(2) =   0
                l(3) =   1
                l(4) =   1
                l(5) =   2
                l(6) =   2
                l(7) =   3
                l(8) =   3
     Q(r) pseudized with  8 coefficients,  rinner =    1.150   1.150   1.150
                                                       1.150   1.150   1.150
                                                       1.150

     PseudoPot. # 2 for H  read from file:
     /afs/slac.stanford.edu/u/if/mamunm/psp/gbrv1.5pbe/H.UPF
     MD5 check sum: 761ae9a214b05c3daf00ab9f6b793d6f
     Pseudo is Ultrasoft, Zval =  1.0
     Generated by new atomic code, or converted to UPF format
     Using radial grid of  615 points,  2 beta functions with: 
                l(1) =   0
                l(2) =   0
     Q(r) pseudized with  8 coefficients,  rinner =    0.700

     vdW kernel table read from file vdW_kernel_table
     MD5 check sum: 095c7af220d748ca6e76c0b4c6cfb241

     atomic species   valence    mass     pseudopotential
        Re1           15.00   186.20700     Re( 1.00)
        H1             1.00     1.00800     H ( 1.00)

     No symmetry found



   Cartesian axes

     site n.     atom                  positions (alat units)
         1           Re1 tau(   1) = (   1.3716930   0.7919474  10.0000000  )
         2           Re1 tau(   2) = (   4.1150791   0.7919474  10.0000000  )
         3           Re1 tau(   3) = (   2.7433861   3.1677894  10.0000000  )
         4           Re1 tau(   4) = (   5.4867722   3.1677894  10.0000000  )
         5           Re1 tau(   5) = (   5.4867722   1.5838947  12.2399654  )
         6           Re1 tau(   6) = (   2.7433861   1.5838947  12.2399654  )
         7           Re1 tau(   7) = (   6.8584652   3.9597368  12.2399654  )
         8           Re1 tau(   8) = (   4.1150791   3.9597368  12.2399654  )
         9           Re1 tau(   9) = (   0.0000000   0.0000000  14.4799307  )
        10           Re1 tau(  10) = (   2.7433861   0.0000000  14.4799307  )
        11           Re1 tau(  11) = (   1.3716930   2.3758421  14.4799307  )
        12           Re1 tau(  12) = (   4.1150791   2.3758421  14.4799307  )
        13           H1  tau(  13) = (   1.3716930   0.0000000  16.2999307  )

     number of k points=    20  Fermi-Dirac smearing, width (Ry)=  0.0110
                       cart. coord. in units 2pi/alat
        k(    1) = (   0.0000000   0.0000000   0.0000000), wk =   0.0555556
        k(    2) = (   0.0000000   0.0350753   0.0000000), wk =   0.1111111
        k(    3) = (   0.0000000   0.0701506   0.0000000), wk =   0.1111111
        k(    4) = (   0.0000000  -0.1052259   0.0000000), wk =   0.0555556
        k(    5) = (   0.0303761  -0.0175376   0.0000000), wk =   0.1111111
        k(    6) = (   0.0303761   0.0175376   0.0000000), wk =   0.1111111
        k(    7) = (   0.0303761   0.0526129   0.0000000), wk =   0.1111111
        k(    8) = (   0.0303761  -0.1227635   0.0000000), wk =   0.1111111
        k(    9) = (   0.0303761  -0.0876882   0.0000000), wk =   0.1111111
        k(   10) = (   0.0303761  -0.0526129   0.0000000), wk =   0.1111111
        k(   11) = (   0.0607522  -0.0350753   0.0000000), wk =   0.1111111
        k(   12) = (   0.0607522   0.0000000   0.0000000), wk =   0.1111111
        k(   13) = (   0.0607522   0.0350753   0.0000000), wk =   0.1111111
        k(   14) = (   0.0607522  -0.1403011   0.0000000), wk =   0.1111111
        k(   15) = (   0.0607522  -0.1052259   0.0000000), wk =   0.1111111
        k(   16) = (   0.0607522  -0.0701506   0.0000000), wk =   0.1111111
        k(   17) = (  -0.0911283   0.0526129   0.0000000), wk =   0.0555556
        k(   18) = (  -0.0911283   0.0876882   0.0000000), wk =   0.1111111
        k(   19) = (  -0.0911283   0.1227635   0.0000000), wk =   0.1111111
        k(   20) = (  -0.0911283  -0.0526129   0.0000000), wk =   0.0555556

     Dense  grid:   512659 G-vectors     FFT dimensions: (  64,  64, 288)

     Smooth grid:   129281 G-vectors     FFT dimensions: (  45,  45, 180)

     Largest allocated arrays     est. size (Mb)     dimensions
        Kohn-Sham Wavefunctions         0.79 Mb     (     516,  100)
        NL pseudopotentials             3.04 Mb     (     516,  386)
        Each V/rho on FFT grid          0.56 Mb     (   36864)
        Each G-vector array             0.12 Mb     (   16029)
        G-vector shells                 0.06 Mb     (    7603)
     Largest temporary arrays     est. size (Mb)     dimensions
        Auxiliary wavefunctions         3.15 Mb     (     516,  400)
        Each subspace H/S matrix        2.44 Mb     (     400,  400)
        Each <psi_i|beta_j> matrix      0.59 Mb     (     386,  100)
        Arrays for rho mixing           5.62 Mb     (   36864,   10)

     Initial potential from superposition of free atoms
     Check: negative starting charge=   -1.539594

     starting charge  174.99945, renormalised to  181.00000

     negative rho (up, down):  1.592E+00 0.000E+00


     ************************************************************************
     *
     * You are using vdW-DF for exchange-correlation in this calculation.
     * Please cite the following three references that made this development
     * possible:
     *
     *   M. Dion, H. Rydberg, E. Schroder, D. C. Langreth, and
     *   B. I. Lundqvist, Phys. Rev. Lett. 92, 246401 (2004).
     *
     *   T. Thonhauser, V. R. Cooper, S. Li, A. Puzder, P. Hyldgaard, and
     *   D. C. Langreth, Phys. Rev. B 76, 125112 (2007).
     *
     *   G. Roman-Perez and J. M. Soler, Phys. Rev. Lett. 103, 096102 (2009).
     *
     *
     * If you are using vdW-DF2, please also cite:
     *
     *   K. Lee, E. D. Murray, L. Kong, B. I. Lundqvist, and
     *   D. C. Langreth, Phys. Rev. B 82, 081101(R) (2010).
     *
     *
     * If you are calculating the stress with vdW-DF, please also cite:
     *
     *   R. Sabatini, E. Kucukbenli, B. Kolb, T. Thonhauser, and
     *   S. de Gironcoli, J. Phys.: Condens. Matter 24, 424209 (2012).
     *
     ************************************************************************

     Carrying out vdW-DF run using the following parameters:

     Nqs =      20    Nr_points =    1024   r_max =   100.000
     q_mesh =
               0.00001000     0.04494208     0.09755937     0.15916263
               0.23128650     0.31572767     0.41458969     0.53033537
               0.66584808     0.82450364     1.01025438     1.22772762
               1.48234092     1.78043706     2.12944203     2.53805004
               3.01644009     3.57652955     4.23227104     5.00000000

     Gradients computed in reciprocal space

     ************************************************************************


 
     Adding external electric field

     Computed dipole along edir(3) : 
        Dipole               -0.2630 Ry au,         -0.6685 Debye
        Dipole field         -0.0008 Ry au
 
        Potential amp.        0.0692 Ry
        Total length         45.1039 bohr
 
     Starting wfc are  157 randomized atomic wfcs

     total cpu time spent up to now is       21.4 secs

     per-process dynamical memory:    49.1 Mb

     Self-consistent Calculation

     iteration #  1     ecut=    36.75 Ry     beta=0.30
     Davidson diagonalization with overlap
     ethr =  1.00E-02,  avg # of iterations =  2.0

     negative rho (up, down):  1.614E+00 0.000E+00
 
     Adding external electric field

     Computed dipole along edir(3) : 
        Dipole                3.0658 Ry au,          7.7925 Debye
        Dipole field          0.0089 Ry au
 
        Potential amp.       -0.8069 Ry
        Total length         45.1039 bohr
 

     total cpu time spent up to now is       60.0 secs

     total energy              =   -2306.25554331 Ry
     Harris-Foulkes estimate   =   -2307.77795813 Ry
     estimated scf accuracy    <       3.58353288 Ry

     iteration #  2     ecut=    36.75 Ry     beta=0.30
     Davidson diagonalization with overlap
     ethr =  1.98E-03,  avg # of iterations =  9.8

     negative rho (up, down):  1.614E+00 0.000E+00
 
     Adding external electric field

     Computed dipole along edir(3) : 
        Dipole               -0.5981 Ry au,         -1.5202 Debye
        Dipole field         -0.0017 Ry au
 
        Potential amp.        0.1574 Ry
        Total length         45.1039 bohr
 

     total cpu time spent up to now is      135.4 secs

     total energy              =   -2298.85150155 Ry
     Harris-Foulkes estimate   =   -2315.55925646 Ry
     estimated scf accuracy    <     531.35648323 Ry

     iteration #  3     ecut=    36.75 Ry     beta=0.30
     Davidson diagonalization with overlap
     ethr =  1.98E-03,  avg # of iterations =  7.0

     negative rho (up, down):  1.620E+00 0.000E+00
 
     Adding external electric field

     Computed dipole along edir(3) : 
        Dipole               -0.4153 Ry au,         -1.0556 Debye
        Dipole field         -0.0012 Ry au
 
        Potential amp.        0.1093 Ry
        Total length         45.1039 bohr
 

     total cpu time spent up to now is      200.5 secs

     total energy              =   -2306.80869076 Ry
     Harris-Foulkes estimate   =   -2307.24487693 Ry
     estimated scf accuracy    <       2.48564256 Ry

     iteration #  4     ecut=    36.75 Ry     beta=0.30
     Davidson diagonalization with overlap
     ethr =  1.37E-03,  avg # of iterations =  4.0

     negative rho (up, down):  1.625E+00 0.000E+00
 
     Adding external electric field

     Computed dipole along edir(3) : 
        Dipole               -0.3925 Ry au,         -0.9976 Debye
        Dipole field         -0.0011 Ry au
 
        Potential amp.        0.1033 Ry
        Total length         45.1039 bohr
 

     total cpu time spent up to now is      241.8 secs

     total energy              =   -2306.76948437 Ry
     Harris-Foulkes estimate   =   -2307.28671757 Ry
     estimated scf accuracy    <       3.50814681 Ry

     iteration #  5     ecut=    36.75 Ry     beta=0.30
     Davidson diagonalization with overlap
     ethr =  1.37E-03,  avg # of iterations =  3.6

     negative rho (up, down):  1.626E+00 0.000E+00
 
     Adding external electric field

     Computed dipole along edir(3) : 
        Dipole               -0.3944 Ry au,         -1.0024 Debye
        Dipole field         -0.0012 Ry au
 
        Potential amp.        0.1038 Ry
        Total length         45.1039 bohr
 

     total cpu time spent up to now is      278.9 secs

     total energy              =   -2306.94877157 Ry
     Harris-Foulkes estimate   =   -2306.97624738 Ry
     estimated scf accuracy    <       0.44781870 Ry

     iteration #  6     ecut=    36.75 Ry     beta=0.30
     Davidson diagonalization with overlap
     ethr =  2.47E-04,  avg # of iterations =  5.1

     negative rho (up, down):  1.624E+00 0.000E+00
 
     Adding external electric field

     Computed dipole along edir(3) : 
        Dipole               -0.2781 Ry au,         -0.7069 Debye
        Dipole field         -0.0008 Ry au
 
        Potential amp.        0.0732 Ry
        Total length         45.1039 bohr
 

     total cpu time spent up to now is      322.0 secs

     total energy              =   -2306.99311744 Ry
     Harris-Foulkes estimate   =   -2307.00079755 Ry
     estimated scf accuracy    <       0.07444196 Ry

     iteration #  7     ecut=    36.75 Ry     beta=0.30
     Davidson diagonalization with overlap
     ethr =  4.11E-05,  avg # of iterations =  3.6

     negative rho (up, down):  1.622E+00 0.000E+00
 
     Adding external electric field

     Computed dipole along edir(3) : 
        Dipole               -0.1775 Ry au,         -0.4513 Debye
        Dipole field         -0.0005 Ry au
 
        Potential amp.        0.0467 Ry
        Total length         45.1039 bohr
 

     total cpu time spent up to now is      360.9 secs

     total energy              =   -2306.99526098 Ry
     Harris-Foulkes estimate   =   -2306.99943388 Ry
     estimated scf accuracy    <       0.03382499 Ry

     iteration #  8     ecut=    36.75 Ry     beta=0.30
     Davidson diagonalization with overlap
     ethr =  1.87E-05,  avg # of iterations =  4.2

     negative rho (up, down):  1.619E+00 0.000E+00
 
     Adding external electric field

     Computed dipole along edir(3) : 
        Dipole               -0.0745 Ry au,         -0.1894 Debye
        Dipole field         -0.0002 Ry au
 
        Potential amp.        0.0196 Ry
        Total length         45.1039 bohr
 

     total cpu time spent up to now is      400.1 secs

     total energy              =   -2306.99764417 Ry
     Harris-Foulkes estimate   =   -2306.99800102 Ry
     estimated scf accuracy    <       0.00471498 Ry

     iteration #  9     ecut=    36.75 Ry     beta=0.30
     Davidson diagonalization with overlap
     ethr =  2.60E-06,  avg # of iterations =  7.8

     negative rho (up, down):  1.619E+00 0.000E+00
 
     Adding external electric field

     Computed dipole along edir(3) : 
        Dipole               -0.0396 Ry au,         -0.1008 Debye
        Dipole field         -0.0001 Ry au
 
        Potential amp.        0.0104 Ry
        Total length         45.1039 bohr
 

     total cpu time spent up to now is      452.2 secs

     total energy              =   -2306.99819840 Ry
     Harris-Foulkes estimate   =   -2306.99838974 Ry
     estimated scf accuracy    <       0.00297377 Ry

     iteration # 10     ecut=    36.75 Ry     beta=0.30
     Davidson diagonalization with overlap
     ethr =  1.64E-06,  avg # of iterations =  1.1

     negative rho (up, down):  1.619E+00 0.000E+00
 
     Adding external electric field

     Computed dipole along edir(3) : 
        Dipole               -0.0208 Ry au,         -0.0528 Debye
        Dipole field         -0.0001 Ry au
 
        Potential amp.        0.0055 Ry
        Total length         45.1039 bohr
 

     total cpu time spent up to now is      485.3 secs

     total energy              =   -2306.99823925 Ry
     Harris-Foulkes estimate   =   -2306.99830081 Ry
     estimated scf accuracy    <       0.00120201 Ry

     iteration # 11     ecut=    36.75 Ry     beta=0.30
     Davidson diagonalization with overlap
     ethr =  6.64E-07,  avg # of iterations =  3.9

     negative rho (up, down):  1.619E+00 0.000E+00
 
     Adding external electric field

     Computed dipole along edir(3) : 
        Dipole               -0.0087 Ry au,         -0.0220 Debye
        Dipole field         -0.0000 Ry au
 
        Potential amp.        0.0023 Ry
        Total length         45.1039 bohr
 

     total cpu time spent up to now is      522.8 secs

     total energy              =   -2306.99829681 Ry
     Harris-Foulkes estimate   =   -2306.99829843 Ry
     estimated scf accuracy    <       0.00016870 Ry

     iteration # 12     ecut=    36.75 Ry     beta=0.30
     Davidson diagonalization with overlap
     ethr =  9.32E-08,  avg # of iterations =  5.0

     negative rho (up, down):  1.619E+00 0.000E+00
 
     Adding external electric field

     Computed dipole along edir(3) : 
        Dipole                0.0012 Ry au,          0.0029 Debye
        Dipole field          0.0000 Ry au
 
        Potential amp.       -0.0003 Ry
        Total length         45.1039 bohr
 

     total cpu time spent up to now is      573.5 secs

     total energy              =   -2306.99834383 Ry
     Harris-Foulkes estimate   =   -2306.99834201 Ry
     estimated scf accuracy    <       0.00008880 Ry

     iteration # 13     ecut=    36.75 Ry     beta=0.30
     Davidson diagonalization with overlap
     ethr =  4.91E-08,  avg # of iterations =  3.5

     negative rho (up, down):  1.619E+00 0.000E+00
 
     Adding external electric field

     Computed dipole along edir(3) : 
        Dipole                0.0063 Ry au,          0.0159 Debye
        Dipole field          0.0000 Ry au
 
        Potential amp.       -0.0016 Ry
        Total length         45.1039 bohr
 

     total cpu time spent up to now is      609.6 secs

     total energy              =   -2306.99834234 Ry
     Harris-Foulkes estimate   =   -2306.99835198 Ry
     estimated scf accuracy    <       0.00007095 Ry

     iteration # 14     ecut=    36.75 Ry     beta=0.30
     Davidson diagonalization with overlap
     ethr =  3.92E-08,  avg # of iterations =  2.2

     negative rho (up, down):  1.619E+00 0.000E+00
 
     Adding external electric field

     Computed dipole along edir(3) : 
        Dipole                0.0069 Ry au,          0.0176 Debye
        Dipole field          0.0000 Ry au
 
        Potential amp.       -0.0018 Ry
        Total length         45.1039 bohr
 

     total cpu time spent up to now is      644.4 secs

     total energy              =   -2306.99834496 Ry
     Harris-Foulkes estimate   =   -2306.99834647 Ry
     estimated scf accuracy    <       0.00001900 Ry

     iteration # 15     ecut=    36.75 Ry     beta=0.30
     Davidson diagonalization with overlap
     ethr =  1.05E-08,  avg # of iterations =  4.8

     negative rho (up, down):  1.619E+00 0.000E+00

     negative rho (up, down):  1.619E+00 0.000E+00

     negative rho (up, down):  1.619E+00 0.000E+00

     negative rho (up, down):  1.619E+00 0.000E+00

     negative rho (up, down):  1.619E+00 0.000E+00

     negative rho (up, down):  1.619E+00 0.000E+00

     negative rho (up, down):  1.619E+00 0.000E+00

     negative rho (up, down):  1.619E+00 0.000E+00

     negative rho (up, down):  1.619E+00 0.000E+00

     negative rho (up, down):  1.619E+00 0.000E+00

     negative rho (up, down):  1.619E+00 0.000E+00

     negative rho (up, down):  1.619E+00 0.000E+00

     negative rho (up, down):  1.619E+00 0.000E+00

     negative rho (up, down):  1.619E+00 0.000E+00

     negative rho (up, down):  1.619E+00 0.000E+00

     negative rho (up, down):  1.619E+00 0.000E+00

     negative rho (up, down):  1.619E+00 0.000E+00

     negative rho (up, down):  1.619E+00 0.000E+00

     negative rho (up, down):  1.619E+00 0.000E+00

     negative rho (up, down):  1.619E+00 0.000E+00

     negative rho (up, down):  1.619E+00 0.000E+00

     negative rho (up, down):  1.619E+00 0.000E+00

     negative rho (up, down):  1.619E+00 0.000E+00

     negative rho (up, down):  1.619E+00 0.000E+00

     negative rho (up, down):  1.619E+00 0.000E+00

     negative rho (up, down):  1.619E+00 0.000E+00

     negative rho (up, down):  1.619E+00 0.000E+00

     negative rho (up, down):  1.619E+00 0.000E+00

     negative rho (up, down):  1.619E+00 0.000E+00

     negative rho (up, down):  1.619E+00 0.000E+00

     negative rho (up, down):  1.619E+00 0.000E+00

     negative rho (up, down):  1.619E+00 0.000E+00

     negative rho (up, down):  1.619E+00 0.000E+00

     negative rho (up, down):  1.619E+00 0.000E+00

     negative rho (up, down):  1.619E+00 0.000E+00
 
     Adding external electric field

     Computed dipole along edir(3) : 
        Dipole                0.0125 Ry au,          0.0317 Debye
        Dipole field          0.0000 Ry au
 
        Potential amp.       -0.0033 Ry
        Total length         45.1039 bohr
 

     total cpu time spent up to now is      742.7 secs

     End of self-consistent calculation

          k = 0.0000 0.0000 0.0000 ( 16091 PWs)   bands (ev):

   -77.7102 -77.6324 -77.6257 -77.6107 -77.5958 -77.5706 -77.5498 -77.5327
   -77.5114 -77.4815 -77.4789 -77.4768 -39.9658 -39.9590 -39.9510 -39.8513
   -39.7835 -39.7630 -39.7572 -39.6444 -39.6345 -39.6265 -39.4226 -39.3266
   -39.3150 -39.2959 -39.2713 -39.2709 -39.2665 -39.2052 -39.2015 -39.1948
   -39.0852 -39.0766 -39.0650 -38.9910 -38.9820 -38.9666 -38.9645 -38.9561
   -38.9508 -38.8978 -38.8971 -38.8956 -38.7557 -38.7556 -38.6956 -38.6952
    -6.3171  -4.4092  -3.7974  -3.4028  -3.3823  -3.3802  -3.0981  -3.0717
    -3.0605  -2.4374  -2.3855  -2.3816  -2.2259  -2.1932  -2.1788  -1.0552
    -0.6546  -0.6457  -0.0772   0.4076   0.4129   0.4415   0.7199   0.9468
     1.0732   1.0758   1.5301   1.5303   1.5598   1.5675   1.5739   1.5870
     1.5937   1.6356   1.8432   1.8435   2.6405   3.1441   3.1625   3.2209
     3.5695   3.5730   3.5837   4.1452   4.1464   4.2754   4.6473   4.6597
     4.7034   4.7106   4.9257   4.9979

          k = 0.0000 0.0351 0.0000 ( 16151 PWs)   bands (ev):

   -77.7045 -77.6324 -77.6271 -77.6111 -77.5964 -77.5706 -77.5453 -77.5358
   -77.5115 -77.4839 -77.4812 -77.4768 -39.9334 -39.9175 -39.9030 -39.8318
   -39.7562 -39.7299 -39.7257 -39.6142 -39.5947 -39.5785 -39.4236 -39.3588
   -39.3508 -39.3331 -39.2705 -39.2556 -39.2425 -39.2121 -39.2015 -39.1854
   -39.1002 -39.0860 -39.0579 -39.0171 -38.9990 -38.9905 -38.9827 -38.9811
   -38.9556 -38.9301 -38.9299 -38.8838 -38.8122 -38.7687 -38.7553 -38.7092
    -6.0365  -4.1296  -3.5072  -3.3567  -3.1730  -3.1460  -3.0083  -2.8694
    -2.8568  -2.3121  -2.2547  -2.2196  -2.0812  -1.9030  -1.8798  -1.0185
    -0.6097  -0.5621  -0.0966   0.3956   0.5100   0.5282   0.6989   0.7643
     0.8495   1.0173   1.0432   1.3140   1.3485   1.4886   1.6490   1.6948
     1.7094   1.7325   1.7569   2.0956   2.3333   2.7438   2.7513   2.8125
     3.3280   3.3838   3.5951   3.6322   3.8059   3.8420   3.9006   3.9478
     4.4996   4.7526   4.9698   5.0606

          k = 0.0000 0.0702 0.0000 ( 16185 PWs)   bands (ev):

   -77.6897 -77.6387 -77.6324 -77.6062 -77.5967 -77.5706 -77.5442 -77.5320
   -77.5117 -77.4966 -77.4813 -77.4768 -39.8537 -39.8339 -39.7789 -39.7543
   -39.6944 -39.6679 -39.6678 -39.5437 -39.5190 -39.4446 -39.4300 -39.4234
   -39.4110 -39.3612 -39.2608 -39.2364 -39.2267 -39.2154 -39.2070 -39.1543
   -39.1490 -39.1425 -39.1415 -39.0661 -39.0506 -39.0407 -39.0197 -39.0157
   -38.9910 -38.9832 -38.9599 -38.9289 -38.8871 -38.8482 -38.8014 -38.7465
    -5.2708  -3.5586  -3.4080  -2.8085  -2.7210  -2.5932  -2.5688  -2.3801
    -2.3693  -2.0899  -1.7640  -1.7371  -1.6701  -1.2024  -1.1159  -0.8814
    -0.5402  -0.3899  -0.3300  -0.0697   0.1722   0.2206   0.3626   0.5702
     0.6644   0.9122   0.9472   1.1311   1.1856   1.3467   1.3752   1.5602
     1.6960   1.8724   1.8983   1.9636   2.0026   2.1242   2.1600   2.2339
     2.3498   2.3511   2.8303   2.9707   2.9891   3.3145   3.5569   3.7441
     3.8748   4.1973   4.2561   4.2766

          k = 0.0000-0.1052 0.0000 ( 16164 PWs)   bands (ev):

   -77.6770 -77.6509 -77.6325 -77.6024 -77.5961 -77.5705 -77.5490 -77.5171
   -77.5120 -77.5116 -77.4813 -77.4768 -39.7991 -39.7742 -39.7180 -39.7039
   -39.6569 -39.6314 -39.5671 -39.5495 -39.4981 -39.4955 -39.4655 -39.4527
   -39.2766 -39.2669 -39.2445 -39.2269 -39.2246 -39.2063 -39.2058 -39.2014
   -39.1961 -39.1817 -39.1565 -39.1523 -39.1111 -39.1046 -39.0930 -39.0694
   -39.0081 -38.9937 -38.9753 -38.9606 -38.9035 -38.8305 -38.7982 -38.7943
    -4.3026  -4.2614  -2.8711  -2.6811  -2.1872  -2.1279  -2.1181  -2.1082
    -2.0757  -2.0169  -1.3496  -1.2835  -1.1166  -0.9712  -0.8058  -0.7800
    -0.7038  -0.4088  -0.3617  -0.3313  -0.0937   0.0641   0.1319   0.5649
     0.6379   0.8954   0.9746   0.9774   0.9992   1.0204   1.0634   1.0935
     1.3611   1.4142   1.4766   1.5331   1.5456   1.5486   2.1147   2.1209
     2.2896   2.7846   2.9746   2.9936   3.0506   3.0704   3.3046   3.4369
     3.4532   3.8949   3.9406   3.9682

          k = 0.0304-0.0175 0.0000 ( 16151 PWs)   bands (ev):

   -77.7044 -77.6357 -77.6231 -77.6101 -77.5982 -77.5724 -77.5452 -77.5322
   -77.5135 -77.4848 -77.4790 -77.4781 -39.9274 -39.9261 -39.9005 -39.8315
   -39.7498 -39.7355 -39.7253 -39.6082 -39.6034 -39.5767 -39.4235 -39.3622
   -39.3431 -39.3378 -39.2689 -39.2583 -39.2423 -39.2087 -39.2068 -39.1831
   -39.0983 -39.0905 -39.0563 -39.0202 -39.0056 -38.9897 -38.9864 -38.9713
   -38.9516 -38.9308 -38.9289 -38.8836 -38.8115 -38.7700 -38.7550 -38.7095
    -6.0359  -4.1271  -3.5060  -3.3607  -3.1579  -3.1482  -2.9832  -2.8915
    -2.8621  -2.3097  -2.2451  -2.2235  -2.0550  -1.9348  -1.8878  -0.9973
    -0.6180  -0.5815  -0.1231   0.3832   0.5188   0.5275   0.7067   0.7427
     0.8341   1.0222   1.0737   1.3146   1.3475   1.4873   1.6513   1.6924
     1.7107   1.7305   1.7506   2.0932   2.3357   2.7354   2.7569   2.8163
     3.3260   3.3884   3.5843   3.6532   3.8262   3.8327   3.9015   3.9498
     4.6368   4.7609   4.8324   5.0480

          k = 0.0304 0.0175 0.0000 ( 16151 PWs)   bands (ev):

   -77.7044 -77.6357 -77.6231 -77.6101 -77.5982 -77.5724 -77.5452 -77.5322
   -77.5135 -77.4848 -77.4790 -77.4781 -39.9274 -39.9261 -39.9005 -39.8315
   -39.7498 -39.7355 -39.7253 -39.6082 -39.6034 -39.5767 -39.4235 -39.3622
   -39.3430 -39.3378 -39.2689 -39.2583 -39.2423 -39.2087 -39.2068 -39.1831
   -39.0983 -39.0906 -39.0562 -39.0202 -39.0057 -38.9897 -38.9864 -38.9713
   -38.9516 -38.9307 -38.9289 -38.8836 -38.8115 -38.7700 -38.7550 -38.7095
    -6.0359  -4.1271  -3.5060  -3.3607  -3.1579  -3.1482  -2.9832  -2.8915
    -2.8620  -2.3097  -2.2451  -2.2235  -2.0550  -1.9348  -1.8878  -0.9973
    -0.6180  -0.5815  -0.1231   0.3832   0.5188   0.5275   0.7067   0.7427
     0.8341   1.0222   1.0737   1.3146   1.3475   1.4873   1.6513   1.6924
     1.7107   1.7305   1.7506   2.0932   2.3357   2.7354   2.7569   2.8163
     3.3260   3.3884   3.5843   3.6532   3.8262   3.8327   3.9015   3.9498
     4.6368   4.7609   4.8324   5.0479

          k = 0.0304 0.0526 0.0000 ( 16230 PWs)   bands (ev):

   -77.6940 -77.6377 -77.6290 -77.6073 -77.5976 -77.5730 -77.5392 -77.5352
   -77.5133 -77.4886 -77.4875 -77.4746 -39.8834 -39.8261 -39.8241 -39.7953
   -39.7057 -39.6826 -39.6796 -39.5712 -39.5064 -39.5027 -39.4330 -39.4107
   -39.3884 -39.3771 -39.2659 -39.2342 -39.2289 -39.2172 -39.1875 -39.1827
   -39.1681 -39.1001 -39.0674 -39.0623 -39.0569 -39.0511 -39.0085 -38.9995
   -38.9685 -38.9582 -38.9093 -38.9012 -38.9000 -38.8482 -38.7975 -38.7397
    -5.5083  -3.6193  -3.1788  -3.1656  -2.9686  -2.7324  -2.6907  -2.6350
    -2.3838  -2.0522  -2.0406  -1.8362  -1.7277  -1.6117  -1.2547  -0.9233
    -0.5613  -0.4744  -0.2383   0.0707   0.3749   0.4278   0.5032   0.5239
     0.6726   0.8083   0.9684   1.0110   1.3405   1.4299   1.5250   1.6027
     1.6148   1.7890   1.9098   2.1127   2.1535   2.1700   2.3145   2.5462
     2.5672   2.6218   2.9192   3.0582   3.2623   3.3524   3.4678   3.8619
     4.1226   4.2736   4.4942   4.7292

          k = 0.0304-0.1228 0.0000 ( 16218 PWs)   bands (ev):

   -77.6781 -77.6443 -77.6386 -77.6016 -77.5957 -77.5736 -77.5454 -77.5212
   -77.5129 -77.5029 -77.4906 -77.4723 -39.7977 -39.7398 -39.7336 -39.6829
   -39.6539 -39.6443 -39.6306 -39.5563 -39.5015 -39.4727 -39.4313 -39.3977
   -39.3513 -39.3098 -39.2882 -39.2492 -39.2248 -39.2192 -39.2091 -39.2068
   -39.1819 -39.1703 -39.1579 -39.1246 -39.0910 -39.0827 -39.0475 -39.0453
   -39.0074 -38.9949 -38.9442 -38.9361 -38.9278 -38.8525 -38.8394 -38.7919
    -4.5972  -3.6564  -2.8738  -2.8169  -2.5041  -2.2241  -2.1310  -2.0874
    -1.8110  -1.7697  -1.5001  -1.3072  -1.2255  -1.0524  -0.9391  -0.7305
    -0.5890  -0.4360  -0.3671  -0.2953  -0.2089   0.0493   0.1711   0.3045
     0.4475   0.7409   0.8528   0.8971   0.9442   0.9934   1.0888   1.1082
     1.2969   1.3544   1.4763   1.7153   1.8235   1.9192   2.0672   2.1623
     2.3097   2.6600   2.8801   2.9914   3.0498   3.1563   3.3029   3.3619
     3.6628   3.8257   3.9100   4.2268

          k = 0.0304-0.0877 0.0000 ( 16218 PWs)   bands (ev):

   -77.6781 -77.6443 -77.6386 -77.6016 -77.5957 -77.5736 -77.5454 -77.5212
   -77.5129 -77.5029 -77.4906 -77.4723 -39.7977 -39.7398 -39.7336 -39.6829
   -39.6539 -39.6443 -39.6306 -39.5563 -39.5014 -39.4727 -39.4313 -39.3977
   -39.3513 -39.3098 -39.2882 -39.2492 -39.2249 -39.2192 -39.2091 -39.2068
   -39.1819 -39.1703 -39.1579 -39.1246 -39.0910 -39.0827 -39.0476 -39.0453
   -39.0074 -38.9949 -38.9442 -38.9361 -38.9278 -38.8525 -38.8393 -38.7919
    -4.5972  -3.6564  -2.8738  -2.8169  -2.5041  -2.2241  -2.1310  -2.0874
    -1.8110  -1.7697  -1.5001  -1.3072  -1.2255  -1.0524  -0.9391  -0.7305
    -0.5890  -0.4360  -0.3671  -0.2953  -0.2089   0.0493   0.1711   0.3045
     0.4475   0.7409   0.8528   0.8971   0.9442   0.9934   1.0888   1.1082
     1.2969   1.3544   1.4763   1.7153   1.8235   1.9192   2.0672   2.1623
     2.3097   2.6600   2.8801   2.9914   3.0498   3.1563   3.3029   3.3619
     3.6628   3.8258   3.9099   4.2268

          k = 0.0304-0.0526 0.0000 ( 16230 PWs)   bands (ev):

   -77.6940 -77.6377 -77.6290 -77.6073 -77.5976 -77.5730 -77.5392 -77.5352
   -77.5133 -77.4886 -77.4876 -77.4746 -39.8834 -39.8261 -39.8241 -39.7953
   -39.7057 -39.6826 -39.6796 -39.5712 -39.5064 -39.5027 -39.4330 -39.4107
   -39.3884 -39.3771 -39.2659 -39.2342 -39.2289 -39.2172 -39.1875 -39.1827
   -39.1681 -39.1001 -39.0674 -39.0623 -39.0570 -39.0511 -39.0085 -38.9995
   -38.9685 -38.9581 -38.9093 -38.9012 -38.9000 -38.8482 -38.7975 -38.7397
    -5.5083  -3.6193  -3.1788  -3.1656  -2.9686  -2.7324  -2.6907  -2.6351
    -2.3838  -2.0522  -2.0406  -1.8362  -1.7277  -1.6117  -1.2547  -0.9233
    -0.5613  -0.4744  -0.2383   0.0707   0.3749   0.4278   0.5032   0.5239
     0.6726   0.8083   0.9684   1.0110   1.3405   1.4299   1.5250   1.6027
     1.6148   1.7890   1.9098   2.1127   2.1534   2.1700   2.3145   2.5462
     2.5672   2.6218   2.9192   3.0582   3.2623   3.3524   3.4678   3.8619
     4.1226   4.2737   4.4942   4.7292

          k = 0.0608-0.0351 0.0000 ( 16185 PWs)   bands (ev):

   -77.6886 -77.6475 -77.6190 -77.6088 -77.5984 -77.5784 -77.5334 -77.5302
   -77.5180 -77.4971 -77.4793 -77.4785 -39.8447 -39.8444 -39.7783 -39.7535
   -39.6805 -39.6740 -39.6688 -39.5343 -39.5296 -39.4511 -39.4278 -39.4185
   -39.4155 -39.3627 -39.2548 -39.2459 -39.2294 -39.2118 -39.2087 -39.1594
   -39.1482 -39.1439 -39.1387 -39.0751 -39.0472 -39.0421 -39.0176 -39.0168
   -38.9873 -38.9856 -38.9575 -38.9135 -38.8868 -38.8472 -38.8086 -38.7469
    -5.2677  -3.5395  -3.4028  -2.7681  -2.7298  -2.5800  -2.5713  -2.3953
    -2.3748  -2.0745  -1.7635  -1.7426  -1.6576  -1.2572  -1.1242  -0.8690
    -0.5435  -0.4663  -0.3151  -0.1065   0.1554   0.2236   0.3101   0.5751
     0.6901   0.9103   0.9488   1.1599   1.1829   1.3387   1.3588   1.5368
     1.7342   1.8728   1.9219   1.9643   1.9884   2.1235   2.1395   2.2661
     2.3371   2.3541   2.8271   2.9351   2.9881   3.4829   3.5750   3.7439
     3.9108   4.1535   4.2627   4.3161

          k = 0.0608 0.0000 0.0000 ( 16230 PWs)   bands (ev):

   -77.6934 -77.6436 -77.6173 -77.6121 -77.5985 -77.5772 -77.5365 -77.5291
   -77.5184 -77.4903 -77.4856 -77.4748 -39.8830 -39.8298 -39.8211 -39.7949
   -39.6942 -39.6893 -39.6805 -39.5679 -39.5198 -39.4949 -39.4323 -39.4114
   -39.3885 -39.3777 -39.2691 -39.2350 -39.2272 -39.2174 -39.1870 -39.1853
   -39.1693 -39.1022 -39.0794 -39.0649 -39.0485 -39.0447 -39.0074 -38.9987
   -38.9634 -38.9547 -38.9113 -38.9010 -38.9006 -38.8481 -38.7985 -38.7400
    -5.5065  -3.6113  -3.1730  -3.1681  -2.9655  -2.7009  -2.6936  -2.6286
    -2.4030  -2.0496  -2.0438  -1.8291  -1.6666  -1.6260  -1.3215  -0.9232
    -0.5972  -0.4739  -0.2648   0.0163   0.3742   0.4397   0.4989   0.5278
     0.6755   0.7963   0.9673   1.0555   1.3377   1.4353   1.5098   1.6060
     1.6145   1.7734   1.8685   2.1310   2.1574   2.1875   2.3134   2.5373
     2.5769   2.6199   2.9649   3.0345   3.3329   3.3482   3.4739   3.9275
     4.1314   4.2825   4.4226   4.7377

          k = 0.0608 0.0351 0.0000 ( 16185 PWs)   bands (ev):

   -77.6886 -77.6475 -77.6189 -77.6088 -77.5984 -77.5784 -77.5334 -77.5302
   -77.5180 -77.4971 -77.4792 -77.4785 -39.8447 -39.8444 -39.7783 -39.7535
   -39.6805 -39.6740 -39.6688 -39.5343 -39.5296 -39.4511 -39.4278 -39.4185
   -39.4155 -39.3627 -39.2547 -39.2459 -39.2294 -39.2118 -39.2087 -39.1594
   -39.1482 -39.1439 -39.1386 -39.0751 -39.0471 -39.0421 -39.0176 -39.0168
   -38.9873 -38.9857 -38.9575 -38.9135 -38.8868 -38.8472 -38.8086 -38.7469
    -5.2677  -3.5395  -3.4028  -2.7681  -2.7299  -2.5800  -2.5713  -2.3953
    -2.3748  -2.0745  -1.7635  -1.7426  -1.6576  -1.2572  -1.1242  -0.8690
    -0.5435  -0.4663  -0.3151  -0.1065   0.1554   0.2236   0.3101   0.5751
     0.6901   0.9103   0.9488   1.1599   1.1829   1.3387   1.3588   1.5368
     1.7342   1.8728   1.9219   1.9643   1.9884   2.1235   2.1395   2.2661
     2.3371   2.3541   2.8271   2.9351   2.9881   3.4829   3.5750   3.7439
     3.9108   4.1535   4.2627   4.3161

          k = 0.0608-0.1403 0.0000 ( 16218 PWs)   bands (ev):

   -77.6761 -77.6536 -77.6288 -77.6026 -77.5948 -77.5808 -77.5369 -77.5210
   -77.5166 -77.5033 -77.4901 -77.4724 -39.7963 -39.7428 -39.7331 -39.6836
   -39.6485 -39.6424 -39.6306 -39.5561 -39.5005 -39.4654 -39.4394 -39.3990
   -39.3613 -39.3110 -39.2848 -39.2484 -39.2235 -39.2185 -39.2115 -39.2069
   -39.1844 -39.1698 -39.1584 -39.1222 -39.1020 -39.0772 -39.0472 -39.0445
   -39.0054 -38.9978 -38.9442 -38.9351 -38.9100 -38.8516 -38.8504 -38.7921
    -4.5937  -3.6442  -2.8674  -2.8057  -2.4815  -2.2466  -2.1210  -2.0878
    -1.7946  -1.7703  -1.4985  -1.3553  -1.2133  -1.0573  -0.9800  -0.7329
    -0.5914  -0.4314  -0.3556  -0.2952  -0.2223   0.0038   0.1490   0.3144
     0.4936   0.6776   0.8373   0.9159   0.9409   0.9986   1.0818   1.1383
     1.2701   1.3459   1.4921   1.7170   1.8238   1.9278   2.0838   2.1727
     2.3071   2.6938   2.8899   2.9879   3.0251   3.2054   3.3138   3.3632
     3.6624   3.8270   3.9210   4.2174

          k = 0.0608-0.1052 0.0000 ( 16272 PWs)   bands (ev):

   -77.6660 -77.6564 -77.6383 -77.5999 -77.5918 -77.5818 -77.5403 -77.5159
   -77.5083 -77.5055 -77.5030 -77.4700 -39.6929 -39.6900 -39.6832 -39.6751
   -39.6682 -39.6160 -39.6074 -39.6038 -39.5782 -39.4046 -39.3760 -39.3405
   -39.3336 -39.3273 -39.3147 -39.2723 -39.2629 -39.2586 -39.2210 -39.2173
   -39.2122 -39.2081 -39.1654 -39.1154 -39.1081 -39.1003 -39.0730 -39.0192
   -39.0043 -38.9947 -38.9479 -38.9238 -38.9049 -38.8673 -38.8664 -38.8631
    -3.6666  -3.6383  -3.6323  -2.3796  -2.2040  -2.1979  -1.6141  -1.5644
    -1.4797  -1.3905  -1.2506  -1.2453  -1.1840  -1.0057  -1.0038  -0.8776
    -0.6475  -0.6433  -0.3558  -0.3480  -0.3026  -0.1260  -0.1034   0.1570
     0.2868   0.3012   0.3973   0.4907   0.5025   0.7096   0.9295   1.1944
     1.2839   1.2971   1.5092   1.7587   1.7713   2.0148   2.0323   2.0385
     2.2469   2.5967   2.6114   2.9504   3.1890   3.2115   3.3758   3.4042
     3.7003   3.9052   3.9209   4.4372

          k = 0.0608-0.0702 0.0000 ( 16218 PWs)   bands (ev):

   -77.6761 -77.6536 -77.6289 -77.6026 -77.5948 -77.5808 -77.5369 -77.5210
   -77.5166 -77.5033 -77.4901 -77.4724 -39.7963 -39.7428 -39.7331 -39.6836
   -39.6485 -39.6424 -39.6306 -39.5561 -39.5005 -39.4654 -39.4394 -39.3990
   -39.3613 -39.3110 -39.2849 -39.2484 -39.2235 -39.2186 -39.2115 -39.2069
   -39.1844 -39.1698 -39.1584 -39.1222 -39.1020 -39.0772 -39.0472 -39.0445
   -39.0054 -38.9978 -38.9442 -38.9351 -38.9100 -38.8515 -38.8504 -38.7921
    -4.5937  -3.6442  -2.8674  -2.8057  -2.4815  -2.2466  -2.1210  -2.0878
    -1.7946  -1.7703  -1.4985  -1.3553  -1.2133  -1.0573  -0.9800  -0.7329
    -0.5914  -0.4314  -0.3556  -0.2952  -0.2222   0.0038   0.1490   0.3144
     0.4936   0.6776   0.8373   0.9159   0.9409   0.9986   1.0818   1.1383
     1.2701   1.3459   1.4921   1.7170   1.8238   1.9278   2.0838   2.1727
     2.3071   2.6938   2.8900   2.9879   3.0251   3.2054   3.3138   3.3632
     3.6624   3.8270   3.9210   4.2174

          k =-0.0911 0.0526 0.0000 ( 16164 PWs)   bands (ev):

   -77.6689 -77.6658 -77.6178 -77.6090 -77.5905 -77.5872 -77.5306 -77.5210
   -77.5148 -77.5140 -77.4793 -77.4785 -39.7879 -39.7874 -39.7128 -39.7089
   -39.6390 -39.6373 -39.5616 -39.5561 -39.4951 -39.4874 -39.4654 -39.4637
   -39.2993 -39.2631 -39.2480 -39.2361 -39.2242 -39.2126 -39.2045 -39.2009
   -39.1896 -39.1786 -39.1561 -39.1517 -39.1104 -39.1042 -39.0812 -39.0779
   -39.0012 -39.0004 -38.9687 -38.9658 -38.8648 -38.8576 -38.7981 -38.7966
    -4.2815  -4.2646  -2.7988  -2.6896  -2.1351  -2.1305  -2.1234  -2.1137
    -2.0844  -2.0210  -1.3924  -1.2893  -1.1571  -0.9694  -0.8343  -0.7831
    -0.7478  -0.4046  -0.3713  -0.3312  -0.1356   0.0576   0.0994   0.5708
     0.6563   0.8731   0.9393   0.9862   1.0047   1.0247   1.0285   1.1179
     1.3324   1.4204   1.4582   1.5339   1.5481   1.5579   2.1161   2.1194
     2.4745   2.7787   2.9792   2.9872   3.0122   3.0781   3.3476   3.4530
     3.5329   3.8793   3.9416   3.9625

          k =-0.0911 0.0877 0.0000 ( 16218 PWs)   bands (ev):

   -77.6747 -77.6570 -77.6244 -77.6059 -77.5918 -77.5847 -77.5321 -77.5219
   -77.5187 -77.5037 -77.4899 -77.4724 -39.7966 -39.7425 -39.7327 -39.6841
   -39.6483 -39.6431 -39.6265 -39.5560 -39.5007 -39.4649 -39.4406 -39.3984
   -39.3572 -39.3138 -39.2983 -39.2470 -39.2287 -39.2142 -39.2132 -39.2070
   -39.1825 -39.1716 -39.1525 -39.1222 -39.0924 -39.0840 -39.0474 -39.0426
   -39.0063 -38.9966 -38.9440 -38.9361 -38.9094 -38.8519 -38.8504 -38.7924
    -4.5909  -3.6461  -2.8438  -2.8165  -2.4812  -2.2291  -2.1195  -2.0886
    -1.7975  -1.7717  -1.5158  -1.2825  -1.2236  -1.0493  -0.9865  -0.8180
    -0.6009  -0.4358  -0.3962  -0.3040  -0.2045   0.0090   0.1470   0.3168
     0.4433   0.7012   0.8365   0.9233   0.9435   0.9906   1.0901   1.1501
     1.2721   1.3548   1.6092   1.6441   1.8233   1.9086   2.0612   2.1783
     2.3092   2.7122   2.8992   2.9899   3.0629   3.1662   3.3215   3.3570
     3.6595   3.8564   3.9191   4.2264

          k =-0.0911 0.1228 0.0000 ( 16218 PWs)   bands (ev):

   -77.6747 -77.6570 -77.6244 -77.6059 -77.5918 -77.5847 -77.5321 -77.5219
   -77.5187 -77.5037 -77.4899 -77.4724 -39.7966 -39.7425 -39.7327 -39.6841
   -39.6483 -39.6431 -39.6265 -39.5560 -39.5007 -39.4649 -39.4406 -39.3984
   -39.3572 -39.3138 -39.2983 -39.2470 -39.2287 -39.2142 -39.2132 -39.2070
   -39.1825 -39.1716 -39.1525 -39.1222 -39.0924 -39.0840 -39.0474 -39.0427
   -39.0063 -38.9966 -38.9440 -38.9361 -38.9094 -38.8519 -38.8504 -38.7924
    -4.5909  -3.6461  -2.8438  -2.8165  -2.4812  -2.2291  -2.1195  -2.0886
    -1.7975  -1.7717  -1.5158  -1.2825  -1.2236  -1.0493  -0.9865  -0.8180
    -0.6009  -0.4358  -0.3962  -0.3040  -0.2045   0.0090   0.1470   0.3168
     0.4433   0.7012   0.8365   0.9233   0.9435   0.9906   1.0901   1.1501
     1.2721   1.3548   1.6092   1.6441   1.8233   1.9086   2.0612   2.1783
     2.3092   2.7122   2.8992   2.9899   3.0629   3.1662   3.3215   3.3570
     3.6595   3.8565   3.9191   4.2265

          k =-0.0911-0.0526 0.0000 ( 16164 PWs)   bands (ev):

   -77.6687 -77.6660 -77.6177 -77.6090 -77.5905 -77.5872 -77.5306 -77.5210
   -77.5148 -77.5140 -77.4793 -77.4785 -39.7877 -39.7875 -39.7128 -39.7089
   -39.6390 -39.6373 -39.5617 -39.5560 -39.4951 -39.4874 -39.4654 -39.4637
   -39.2993 -39.2632 -39.2480 -39.2361 -39.2242 -39.2125 -39.2045 -39.2009
   -39.1895 -39.1786 -39.1561 -39.1517 -39.1103 -39.1042 -39.0811 -39.0780
   -39.0012 -39.0004 -38.9687 -38.9657 -38.8648 -38.8576 -38.7981 -38.7965
    -4.2814  -4.2647  -2.7988  -2.6896  -2.1351  -2.1305  -2.1234  -2.1137
    -2.0844  -2.0210  -1.3925  -1.2893  -1.1571  -0.9694  -0.8343  -0.7831
    -0.7478  -0.4046  -0.3713  -0.3312  -0.1356   0.0576   0.0994   0.5708
     0.6563   0.8731   0.9393   0.9862   1.0047   1.0247   1.0285   1.1178
     1.3324   1.4203   1.4581   1.5339   1.5481   1.5579   2.1161   2.1194
     2.4745   2.7787   2.9791   2.9872   3.0122   3.0781   3.3476   3.4530
     3.5329   3.8793   3.9416   3.9625

     the Fermi energy is     2.9370 ev

!    total energy              =   -2306.99834473 Ry
     Harris-Foulkes estimate   =   -2306.99834707 Ry
     estimated scf accuracy    <       0.00000269 Ry

     The total energy is the sum of the following terms:

     one-electron contribution =  -18481.31773210 Ry
     hartree contribution      =    9225.52631917 Ry
     xc contribution           =    -649.97298244 Ry
     ewald contribution        =    7598.83405179 Ry
     electric field correction =       0.00000045 Ry
     smearing contrib. (-TS)   =      -0.06800160 Ry

     convergence has been achieved in  15 iterations
 
 BEEF-vdW xc energy contributions
           1 :   -577.992266791355     
           2 :    537.468644611899     
           3 :   -464.663941000139     
           4 :    373.346792392998     
           5 :   -278.771830271138     
           6 :    193.779363808068     
           7 :   -126.164974893863     
           8 :    77.9421697158897     
           9 :   -46.4384653087681     
          10 :    26.5305052073376     
          11 :   -13.0357301170642     
          12 :    2.40066038893417     
          13 :    6.73164182277640     
          14 :   -13.9880002741071     
          15 :    18.3123787648939     
          16 :   -19.0340637315460     
          17 :    16.5084941602045     
          18 :   -12.1340518400419     
          19 :    7.82716343543450     
          20 :   -5.25546572751830     
          21 :    5.19684778219050     
          22 :   -7.30406026618016     
          23 :    10.3519545740289     
          24 :   -12.8304001994143     
          25 :    13.6056071495672     
          26 :   -12.3636543046567     
          27 :    9.66137482747979     
          28 :   -6.59616313776382     
          29 :    4.27407683098102     
          30 :   -3.33206285988160     
          31 :   -48.0055870538298     
          32 :   -35.6351484214557     

     Forces acting on atoms (Ry/au):


     negative rho (up, down):  1.619E+00 0.000E+00
     atom    1 type  1   force =     0.00001642   -0.00084384    0.02074605
     atom    2 type  1   force =    -0.00000418   -0.00050509    0.02158009
     atom    3 type  1   force =    -0.00044012    0.00135913    0.02120393
     atom    4 type  1   force =     0.00044255    0.00137494    0.02118152
     atom    5 type  1   force =    -0.00140043   -0.00012579    0.00401106
     atom    6 type  1   force =     0.00139843   -0.00012756    0.00400183
     atom    7 type  1   force =     0.00000598   -0.00659280   -0.01496840
     atom    8 type  1   force =     0.00000040   -0.00034791    0.00601519
     atom    9 type  1   force =     0.01293634    0.00126764    0.02345855
     atom   10 type  1   force =    -0.01294116    0.00128994    0.02346653
     atom   11 type  1   force =     0.00000871    0.00582841   -0.02521588
     atom   12 type  1   force =    -0.00002422   -0.00372525   -0.03253112
     atom   13 type  2   force =     0.00000128    0.00114817   -0.07294933

     Total force =     0.103166     Total SCF correction =     0.005627


     entering subroutine stress ...


     negative rho (up, down):  1.619E+00 0.000E+00
          total   stress  (Ry/bohr**3)                   (kbar)     P=  -30.34
  -0.00019658  -0.00000000  -0.00000000        -28.92     -0.00     -0.00
  -0.00000000  -0.00016269   0.00000535         -0.00    -23.93      0.79
  -0.00000000   0.00000535  -0.00025942         -0.00      0.79    -38.16

 !ASE

     Writing output data file calc.save
 
     init_run     :     14.97s CPU     21.06s WALL (       1 calls)
     electrons    :    526.19s CPU    721.41s WALL (       1 calls)
     forces       :      5.49s CPU      6.34s WALL (       1 calls)
     stress       :     18.20s CPU     19.60s WALL (       1 calls)

     Called by init_run:
     wfcinit      :     11.79s CPU     17.04s WALL (       1 calls)
     potinit      :      1.29s CPU      1.83s WALL (       1 calls)

     Called by electrons:
     c_bands      :    389.09s CPU    527.85s WALL (      15 calls)
     sum_band     :     66.59s CPU     92.67s WALL (      15 calls)
     v_of_rho     :     18.12s CPU     26.96s WALL (      16 calls)
     newd         :     17.89s CPU     18.44s WALL (      16 calls)
     mix_rho      :      0.68s CPU      1.03s WALL (      15 calls)
     vdW_energy   :      2.23s CPU      2.24s WALL (      52 calls)
     vdW_ffts     :     34.42s CPU     56.50s WALL (     106 calls)
     vdW_v        :      6.64s CPU      9.84s WALL (      52 calls)

     Called by c_bands:
     init_us_2    :      1.12s CPU      1.14s WALL (     660 calls)
     cegterg      :    375.21s CPU    513.29s WALL (     300 calls)

     Called by *egterg:
     h_psi        :    243.69s CPU    372.57s WALL (    1672 calls)
     s_psi        :     14.64s CPU     14.70s WALL (    1672 calls)
     g_psi        :      0.48s CPU      0.48s WALL (    1352 calls)
     cdiaghg      :     82.92s CPU     85.67s WALL (    1652 calls)

     Called by h_psi:
     add_vuspsi   :     15.13s CPU     15.22s WALL (    1672 calls)

     General routines
     calbec       :     30.50s CPU     36.83s WALL (    2012 calls)
     fft          :     52.29s CPU     85.22s WALL (    3159 calls)
     ffts         :      0.16s CPU      0.25s WALL (      31 calls)
     fftw         :    237.97s CPU    384.86s WALL (  186556 calls)
     interpolate  :      0.72s CPU      1.09s WALL (      31 calls)
     davcio       :      0.01s CPU      0.03s WALL (      20 calls)
 
     Parallel routines
     fft_scatter  :    259.80s CPU    438.06s WALL (  189746 calls)
 
     PWSCF        :  9m25.56s CPU    12m49.73s WALL

 
   This run was terminated on:   3:40:13  14Jan2018            

=------------------------------------------------------------------------------=
   JOB DONE.
=------------------------------------------------------------------------------=
Job  /afs/slac/g/suncat/bin/suncat-tsmpirun -x LD_LIBRARY_PATH -wdir /scratch/qe842473_RrDOy pw.x -in pw.inp

TID   HOST_NAME   COMMAND_LINE            STATUS            TERMINATION_TIME
===== ========== ================  =======================  ===================
00000 suncat0050 pw.x -in pw.inp   Done                     01/14/2018 03:40:13
00001 suncat0050 pw.x -in pw.inp   Done                     01/14/2018 03:40:13
00002 suncat0050 pw.x -in pw.inp   Done                     01/14/2018 03:40:13
00003 suncat0050 pw.x -in pw.inp   Done                     01/14/2018 03:40:13
00004 suncat0050 pw.x -in pw.inp   Done                     01/14/2018 03:40:13
00005 suncat0050 pw.x -in pw.inp   Done                     01/14/2018 03:40:13
00006 suncat0050 pw.x -in pw.inp   Done                     01/14/2018 03:40:13
00007 suncat0050 pw.x -in pw.inp   Done                     01/14/2018 03:40:13
00008 suncat0242 pw.x -in pw.inp   Done                     01/14/2018 03:40:13
00009 suncat0242 pw.x -in pw.inp   Done                     01/14/2018 03:40:13
00010 suncat0242 pw.x -in pw.inp   Done                     01/14/2018 03:40:13
00011 suncat0242 pw.x -in pw.inp   Done                     01/14/2018 03:40:13
00012 suncat0242 pw.x -in pw.inp   Done                     01/14/2018 03:40:13
00013 suncat0242 pw.x -in pw.inp   Done                     01/14/2018 03:40:13
00014 suncat0242 pw.x -in pw.inp   Done                     01/14/2018 03:40:13
00015 suncat0242 pw.x -in pw.inp   Done                     01/14/2018 03:40:13
00016 suncat0241 pw.x -in pw.inp   Done                     01/14/2018 03:40:13
00017 suncat0241 pw.x -in pw.inp   Done                     01/14/2018 03:40:13
00018 suncat0241 pw.x -in pw.inp   Done                     01/14/2018 03:40:13
00019 suncat0241 pw.x -in pw.inp   Done                     01/14/2018 03:40:13
00020 suncat0241 pw.x -in pw.inp   Done                     01/14/2018 03:40:13
00021 suncat0241 pw.x -in pw.inp   Done                     01/14/2018 03:40:13
00022 suncat0241 pw.x -in pw.inp   Done                     01/14/2018 03:40:13
00023 suncat0241 pw.x -in pw.inp   Done                     01/14/2018 03:40:13
00024 suncat0240 pw.x -in pw.inp   Done                     01/14/2018 03:40:13
00025 suncat0240 pw.x -in pw.inp   Done                     01/14/2018 03:40:13
00026 suncat0240 pw.x -in pw.inp   Done                     01/14/2018 03:40:13
00027 suncat0240 pw.x -in pw.inp   Done                     01/14/2018 03:40:13
00028 suncat0240 pw.x -in pw.inp   Done                     01/14/2018 03:40:13
00029 suncat0240 pw.x -in pw.inp   Done                     01/14/2018 03:40:13
00030 suncat0240 pw.x -in pw.inp   Done                     01/14/2018 03:40:13
00031 suncat0240 pw.x -in pw.inp   Done                     01/14/2018 03:40:13

     Program PWSCF v.5.1rc2 (svn rev. 11289) starts on 14Jan2018 at  3:40:19 

     This program is part of the open-source Quantum ESPRESSO suite
     for quantum simulation of materials; please cite
         "P. Giannozzi et al., J. Phys.:Condens. Matter 21 395502 (2009);
          URL http://www.quantum-espresso.org", 
     in publications or presentations arising from this work. More details at
     http://www.quantum-espresso.org/quote

     Parallel version (MPI), running on    32 processors
     R & G space division:  proc/nbgrp/npool/nimage =      32
     Reading input from pw.inp
     Message from routine read_cards :
     DEPRECATED: no units specified in CELL_PARAMETERS card

     Current dimensions of program PWSCF are:
     Max number of different atomic species (ntypx) = 10
     Max number of k-points (npk) =  40000
     Max angular momentum in pseudopotentials (lmaxx) =  3
     Presently stress not available with electric field


     **************************************************************************
     Initializing libbeef V0.1.1 with the BEEF-vdW functional.
     Citation: Wellendorff et al., PRB 85, 235149 (2012).
     **************************************************************************


     IMPORTANT: XC functional enforced from input :
     Exchange-correlation      = BEEF-VDW ( 1  4 27 13 2)
     Any further DFT definition will be discarded
     Please, verify this is what you really want


     Subspace diagonalization in iterative solution of the eigenvalue problem:
     a serial algorithm will be used

 
     Parallelization info
     --------------------
     sticks:   dense  smooth     PW     G-vecs:    dense   smooth      PW
     Min          84      33      9                16000     4018     623
     Max          85      34     10                16029     4064     652
     Sum        2713    1075    313               512659   129281   20533
 


     bravais-lattice index     =            0
     lattice parameter (alat)  =       1.8897  a.u.
     unit-cell volume          =    4306.9643 (a.u.)^3
     number of atoms/cell      =           13
     number of atomic types    =            2
     number of electrons       =       181.00
     number of Kohn-Sham states=          100
     kinetic-energy cutoff     =      36.7493  Ry
     charge density cutoff     =     367.4932  Ry
     convergence threshold     =      1.0E-05
     mixing beta               =       0.3000
     number of iterations used =           10  plain     mixing
     Exchange-correlation      = BEEF-VDW ( 1  4 27 13 2)
     nstep                     =           50


     celldm(1)=   1.889726  celldm(2)=   0.000000  celldm(3)=   0.000000
     celldm(4)=   0.000000  celldm(5)=   0.000000  celldm(6)=   0.000000

     crystal axes: (cart. coord. in units of alat)
               a(1) = (   5.486772   0.000000   0.000000 )  
               a(2) = (   2.743386   4.751684   0.000000 )  
               a(3) = (   0.000000   0.000000  24.479931 )  

     reciprocal axes: (cart. coord. in units 2 pi/alat)
               b(1) = (  0.182257 -0.105226  0.000000 )  
               b(2) = (  0.000000  0.210452  0.000000 )  
               b(3) = (  0.000000  0.000000  0.040850 )  


     PseudoPot. # 1 for Re read from file:
     /afs/slac.stanford.edu/u/if/mamunm/psp/gbrv1.5pbe/Re.UPF
     MD5 check sum: 85f993410f3e006da9d71c142b4ad953
     Pseudo is Ultrasoft + core correction, Zval = 15.0
     Generated by new atomic code, or converted to UPF format
     Using radial grid of  981 points,  8 beta functions with: 
                l(1) =   0
                l(2) =   0
                l(3) =   1
                l(4) =   1
                l(5) =   2
                l(6) =   2
                l(7) =   3
                l(8) =   3
     Q(r) pseudized with  8 coefficients,  rinner =    1.150   1.150   1.150
                                                       1.150   1.150   1.150
                                                       1.150

     PseudoPot. # 2 for H  read from file:
     /afs/slac.stanford.edu/u/if/mamunm/psp/gbrv1.5pbe/H.UPF
     MD5 check sum: 761ae9a214b05c3daf00ab9f6b793d6f
     Pseudo is Ultrasoft, Zval =  1.0
     Generated by new atomic code, or converted to UPF format
     Using radial grid of  615 points,  2 beta functions with: 
                l(1) =   0
                l(2) =   0
     Q(r) pseudized with  8 coefficients,  rinner =    0.700

     vdW kernel table read from file vdW_kernel_table
     MD5 check sum: 095c7af220d748ca6e76c0b4c6cfb241

     atomic species   valence    mass     pseudopotential
        Re1           15.00   186.20700     Re( 1.00)
        H1             1.00     1.00800     H ( 1.00)

     No symmetry found



   Cartesian axes

     site n.     atom                  positions (alat units)
         1           Re1 tau(   1) = (   1.3716930   0.7919474  10.0000000  )
         2           Re1 tau(   2) = (   4.1150791   0.7919474  10.0000000  )
         3           Re1 tau(   3) = (   2.7433861   3.1677894  10.0000000  )
         4           Re1 tau(   4) = (   5.4867722   3.1677894  10.0000000  )
         5           Re1 tau(   5) = (   5.4867722   1.5838947  12.2399654  )
         6           Re1 tau(   6) = (   2.7433861   1.5838947  12.2399654  )
         7           Re1 tau(   7) = (   6.8584652   3.9597368  12.2399654  )
         8           Re1 tau(   8) = (   4.1150791   3.9597368  12.2399654  )
         9           Re1 tau(   9) = (   0.0332607   0.0032592  14.5402451  )
        10           Re1 tau(  10) = (   2.7101130   0.0033166  14.5402656  )
        11           Re1 tau(  11) = (   6.8584876   2.3908275  14.4150981  )
        12           Re1 tau(  12) = (   4.1150169   2.3662640  14.3962899  )
        13           H1  tau(  13) = (   1.3716963   0.0029521  16.1123705  )

     number of k points=    20  Fermi-Dirac smearing, width (Ry)=  0.0110
                       cart. coord. in units 2pi/alat
        k(    1) = (   0.0000000   0.0000000   0.0000000), wk =   0.0555556
        k(    2) = (   0.0000000   0.0350753   0.0000000), wk =   0.1111111
        k(    3) = (   0.0000000   0.0701506   0.0000000), wk =   0.1111111
        k(    4) = (   0.0000000  -0.1052259   0.0000000), wk =   0.0555556
        k(    5) = (   0.0303761  -0.0175376   0.0000000), wk =   0.1111111
        k(    6) = (   0.0303761   0.0175376   0.0000000), wk =   0.1111111
        k(    7) = (   0.0303761   0.0526129   0.0000000), wk =   0.1111111
        k(    8) = (   0.0303761  -0.1227635   0.0000000), wk =   0.1111111
        k(    9) = (   0.0303761  -0.0876882   0.0000000), wk =   0.1111111
        k(   10) = (   0.0303761  -0.0526129   0.0000000), wk =   0.1111111
        k(   11) = (   0.0607522  -0.0350753   0.0000000), wk =   0.1111111
        k(   12) = (   0.0607522   0.0000000   0.0000000), wk =   0.1111111
        k(   13) = (   0.0607522   0.0350753   0.0000000), wk =   0.1111111
        k(   14) = (   0.0607522  -0.1403011   0.0000000), wk =   0.1111111
        k(   15) = (   0.0607522  -0.1052259   0.0000000), wk =   0.1111111
        k(   16) = (   0.0607522  -0.0701506   0.0000000), wk =   0.1111111
        k(   17) = (  -0.0911283   0.0526129   0.0000000), wk =   0.0555556
        k(   18) = (  -0.0911283   0.0876882   0.0000000), wk =   0.1111111
        k(   19) = (  -0.0911283   0.1227635   0.0000000), wk =   0.1111111
        k(   20) = (  -0.0911283  -0.0526129   0.0000000), wk =   0.0555556

     Dense  grid:   512659 G-vectors     FFT dimensions: (  64,  64, 288)

     Smooth grid:   129281 G-vectors     FFT dimensions: (  45,  45, 180)

     Largest allocated arrays     est. size (Mb)     dimensions
        Kohn-Sham Wavefunctions         0.79 Mb     (     516,  100)
        NL pseudopotentials             3.04 Mb     (     516,  386)
        Each V/rho on FFT grid          0.56 Mb     (   36864)
        Each G-vector array             0.12 Mb     (   16029)
        G-vector shells                 0.06 Mb     (    7603)
     Largest temporary arrays     est. size (Mb)     dimensions
        Auxiliary wavefunctions         3.15 Mb     (     516,  400)
        Each subspace H/S matrix        2.44 Mb     (     400,  400)
        Each <psi_i|beta_j> matrix      0.59 Mb     (     386,  100)
        Arrays for rho mixing           5.62 Mb     (   36864,   10)

     Initial potential from superposition of free atoms
     Check: negative starting charge=   -1.538759

     starting charge  174.99945, renormalised to  181.00000

     negative rho (up, down):  1.592E+00 0.000E+00


     ************************************************************************
     *
     * You are using vdW-DF for exchange-correlation in this calculation.
     * Please cite the following three references that made this development
     * possible:
     *
     *   M. Dion, H. Rydberg, E. Schroder, D. C. Langreth, and
     *   B. I. Lundqvist, Phys. Rev. Lett. 92, 246401 (2004).
     *
     *   T. Thonhauser, V. R. Cooper, S. Li, A. Puzder, P. Hyldgaard, and
     *   D. C. Langreth, Phys. Rev. B 76, 125112 (2007).
     *
     *   G. Roman-Perez and J. M. Soler, Phys. Rev. Lett. 103, 096102 (2009).
     *
     *
     * If you are using vdW-DF2, please also cite:
     *
     *   K. Lee, E. D. Murray, L. Kong, B. I. Lundqvist, and
     *   D. C. Langreth, Phys. Rev. B 82, 081101(R) (2010).
     *
     *
     * If you are calculating the stress with vdW-DF, please also cite:
     *
     *   R. Sabatini, E. Kucukbenli, B. Kolb, T. Thonhauser, and
     *   S. de Gironcoli, J. Phys.: Condens. Matter 24, 424209 (2012).
     *
     ************************************************************************

     Carrying out vdW-DF run using the following parameters:

     Nqs =      20    Nr_points =    1024   r_max =   100.000
     q_mesh =
               0.00001000     0.04494208     0.09755937     0.15916263
               0.23128650     0.31572767     0.41458969     0.53033537
               0.66584808     0.82450364     1.01025438     1.22772762
               1.48234092     1.78043706     2.12944203     2.53805004
               3.01644009     3.57652955     4.23227104     5.00000000

     Gradients computed in reciprocal space

     ************************************************************************


 
     Adding external electric field

     Computed dipole along edir(3) : 
        Dipole               -0.2510 Ry au,         -0.6380 Debye
        Dipole field         -0.0007 Ry au
 
        Potential amp.        0.0661 Ry
        Total length         45.1039 bohr
 
     Starting wfc are  157 randomized atomic wfcs

     total cpu time spent up to now is       22.4 secs

     per-process dynamical memory:    48.6 Mb

     Self-consistent Calculation

     iteration #  1     ecut=    36.75 Ry     beta=0.30
     Davidson diagonalization with overlap
     ethr =  1.00E-02,  avg # of iterations =  2.0

     negative rho (up, down):  1.614E+00 0.000E+00
 
     Adding external electric field

     Computed dipole along edir(3) : 
        Dipole                2.9279 Ry au,          7.4419 Debye
        Dipole field          0.0085 Ry au
 
        Potential amp.       -0.7706 Ry
        Total length         45.1039 bohr
 

     total cpu time spent up to now is       60.2 secs

     total energy              =   -2306.36799841 Ry
     Harris-Foulkes estimate   =   -2307.80561735 Ry
     estimated scf accuracy    <       3.40872330 Ry

     iteration #  2     ecut=    36.75 Ry     beta=0.30
     Davidson diagonalization with overlap
     ethr =  1.88E-03,  avg # of iterations =  8.7

     negative rho (up, down):  1.615E+00 0.000E+00
 
     Adding external electric field

     Computed dipole along edir(3) : 
        Dipole               -0.5327 Ry au,         -1.3539 Debye
        Dipole field         -0.0016 Ry au
 
        Potential amp.        0.1402 Ry
        Total length         45.1039 bohr
 

     total cpu time spent up to now is      132.9 secs

     total energy              =   -2299.49618226 Ry
     Harris-Foulkes estimate   =   -2314.66329654 Ry
     estimated scf accuracy    <     480.87176374 Ry

     iteration #  3     ecut=    36.75 Ry     beta=0.30
     Davidson diagonalization with overlap
     ethr =  1.88E-03,  avg # of iterations =  6.9

     negative rho (up, down):  1.620E+00 0.000E+00
 
     Adding external electric field

     Computed dipole along edir(3) : 
        Dipole               -0.3861 Ry au,         -0.9815 Debye
        Dipole field         -0.0011 Ry au
 
        Potential amp.        0.1016 Ry
        Total length         45.1039 bohr
 

     total cpu time spent up to now is      197.6 secs

     total energy              =   -2306.83017399 Ry
     Harris-Foulkes estimate   =   -2307.28216370 Ry
     estimated scf accuracy    <       2.87647764 Ry

     iteration #  4     ecut=    36.75 Ry     beta=0.30
     Davidson diagonalization with overlap
     ethr =  1.59E-03,  avg # of iterations =  3.9

     negative rho (up, down):  1.627E+00 0.000E+00
 
     Adding external electric field

     Computed dipole along edir(3) : 
        Dipole               -0.3913 Ry au,         -0.9946 Debye
        Dipole field         -0.0011 Ry au
 
        Potential amp.        0.1030 Ry
        Total length         45.1039 bohr
 

     total cpu time spent up to now is      239.2 secs

     total energy              =   -2306.81395563 Ry
     Harris-Foulkes estimate   =   -2307.30721017 Ry
     estimated scf accuracy    <       3.27043029 Ry

     iteration #  5     ecut=    36.75 Ry     beta=0.30
     Davidson diagonalization with overlap
     ethr =  1.59E-03,  avg # of iterations =  2.2

     negative rho (up, down):  1.627E+00 0.000E+00
 
     Adding external electric field

     Computed dipole along edir(3) : 
        Dipole               -0.3483 Ry au,         -0.8854 Debye
        Dipole field         -0.0010 Ry au
 
        Potential amp.        0.0917 Ry
        Total length         45.1039 bohr
 

     total cpu time spent up to now is      273.8 secs

     total energy              =   -2306.96669526 Ry
     Harris-Foulkes estimate   =   -2306.99751082 Ry
     estimated scf accuracy    <       0.37596307 Ry

     iteration #  6     ecut=    36.75 Ry     beta=0.30
     Davidson diagonalization with overlap
     ethr =  2.08E-04,  avg # of iterations =  4.8

     negative rho (up, down):  1.625E+00 0.000E+00
 
     Adding external electric field

     Computed dipole along edir(3) : 
        Dipole               -0.2485 Ry au,         -0.6317 Debye
        Dipole field         -0.0007 Ry au
 
        Potential amp.        0.0654 Ry
        Total length         45.1039 bohr
 

     total cpu time spent up to now is      319.4 secs

     total energy              =   -2307.02528973 Ry
     Harris-Foulkes estimate   =   -2307.03726586 Ry
     estimated scf accuracy    <       0.14076150 Ry

     iteration #  7     ecut=    36.75 Ry     beta=0.30
     Davidson diagonalization with overlap
     ethr =  7.78E-05,  avg # of iterations =  1.3

     negative rho (up, down):  1.622E+00 0.000E+00
 
     Adding external electric field

     Computed dipole along edir(3) : 
        Dipole               -0.1137 Ry au,         -0.2890 Debye
        Dipole field         -0.0003 Ry au
 
        Potential amp.        0.0299 Ry
        Total length         45.1039 bohr
 

     total cpu time spent up to now is      352.9 secs

     total energy              =   -2307.02311859 Ry
     Harris-Foulkes estimate   =   -2307.02987080 Ry
     estimated scf accuracy    <       0.04631599 Ry

     iteration #  8     ecut=    36.75 Ry     beta=0.30
     Davidson diagonalization with overlap
     ethr =  2.56E-05,  avg # of iterations =  4.8

     negative rho (up, down):  1.621E+00 0.000E+00
 
     Adding external electric field

     Computed dipole along edir(3) : 
        Dipole               -0.0805 Ry au,         -0.2046 Debye
        Dipole field         -0.0002 Ry au
 
        Potential amp.        0.0212 Ry
        Total length         45.1039 bohr
 

     total cpu time spent up to now is      395.7 secs

     total energy              =   -2307.02818516 Ry
     Harris-Foulkes estimate   =   -2307.03016515 Ry
     estimated scf accuracy    <       0.01763744 Ry

     iteration #  9     ecut=    36.75 Ry     beta=0.30
     Davidson diagonalization with overlap
     ethr =  9.74E-06,  avg # of iterations =  3.8

     negative rho (up, down):  1.620E+00 0.000E+00
 
     Adding external electric field

     Computed dipole along edir(3) : 
        Dipole               -0.0263 Ry au,         -0.0668 Debye
        Dipole field         -0.0001 Ry au
 
        Potential amp.        0.0069 Ry
        Total length         45.1039 bohr
 

     total cpu time spent up to now is      456.8 secs

     total energy              =   -2307.02887618 Ry
     Harris-Foulkes estimate   =   -2307.02925645 Ry
     estimated scf accuracy    <       0.00356230 Ry

     iteration # 10     ecut=    36.75 Ry     beta=0.30
     Davidson diagonalization with overlap
     ethr =  1.97E-06,  avg # of iterations =  7.3

     negative rho (up, down):  1.620E+00 0.000E+00
 
     Adding external electric field

     Computed dipole along edir(3) : 
        Dipole               -0.0054 Ry au,         -0.0137 Debye
        Dipole field         -0.0000 Ry au
 
        Potential amp.        0.0014 Ry
        Total length         45.1039 bohr
 

     total cpu time spent up to now is      510.4 secs

     total energy              =   -2307.02937131 Ry
     Harris-Foulkes estimate   =   -2307.02953901 Ry
     estimated scf accuracy    <       0.00121443 Ry

     iteration # 11     ecut=    36.75 Ry     beta=0.30
     Davidson diagonalization with overlap
     ethr =  6.71E-07,  avg # of iterations =  3.5

     negative rho (up, down):  1.620E+00 0.000E+00
 
     Adding external electric field

     Computed dipole along edir(3) : 
        Dipole                0.0067 Ry au,          0.0171 Debye
        Dipole field          0.0000 Ry au
 
        Potential amp.       -0.0018 Ry
        Total length         45.1039 bohr
 

     total cpu time spent up to now is      548.0 secs

     total energy              =   -2307.02947236 Ry
     Harris-Foulkes estimate   =   -2307.02946947 Ry
     estimated scf accuracy    <       0.00014033 Ry

     iteration # 12     ecut=    36.75 Ry     beta=0.30
     Davidson diagonalization with overlap
     ethr =  7.75E-08,  avg # of iterations =  5.0

     negative rho (up, down):  1.620E+00 0.000E+00
 
     Adding external electric field

     Computed dipole along edir(3) : 
        Dipole                0.0152 Ry au,          0.0385 Debye
        Dipole field          0.0000 Ry au
 
        Potential amp.       -0.0040 Ry
        Total length         45.1039 bohr
 

     total cpu time spent up to now is      601.4 secs

     total energy              =   -2307.02949473 Ry
     Harris-Foulkes estimate   =   -2307.02952171 Ry
     estimated scf accuracy    <       0.00015099 Ry

     iteration # 13     ecut=    36.75 Ry     beta=0.30
     Davidson diagonalization with overlap
     ethr =  7.75E-08,  avg # of iterations =  4.4

     negative rho (up, down):  1.620E+00 0.000E+00
 
     Adding external electric field

     Computed dipole along edir(3) : 
        Dipole                0.0214 Ry au,          0.0545 Debye
        Dipole field          0.0001 Ry au
 
        Potential amp.       -0.0056 Ry
        Total length         45.1039 bohr
 

     total cpu time spent up to now is      648.8 secs

     total energy              =   -2307.02951998 Ry
     Harris-Foulkes estimate   =   -2307.02954136 Ry
     estimated scf accuracy    <       0.00020746 Ry

     iteration # 14     ecut=    36.75 Ry     beta=0.30
     Davidson diagonalization with overlap
     ethr =  7.75E-08,  avg # of iterations =  2.2

     negative rho (up, down):  1.620E+00 0.000E+00
 
     Adding external electric field

     Computed dipole along edir(3) : 
        Dipole                0.0229 Ry au,          0.0582 Debye
        Dipole field          0.0001 Ry au
 
        Potential amp.       -0.0060 Ry
        Total length         45.1039 bohr
 

     total cpu time spent up to now is      685.3 secs

     total energy              =   -2307.02951581 Ry
     Harris-Foulkes estimate   =   -2307.02952651 Ry
     estimated scf accuracy    <       0.00006004 Ry

     iteration # 15     ecut=    36.75 Ry     beta=0.30
     Davidson diagonalization with overlap
     ethr =  3.32E-08,  avg # of iterations =  4.7

     negative rho (up, down):  1.620E+00 0.000E+00
 
     Adding external electric field

     Computed dipole along edir(3) : 
        Dipole                0.0234 Ry au,          0.0594 Debye
        Dipole field          0.0001 Ry au
 
        Potential amp.       -0.0061 Ry
        Total length         45.1039 bohr
 

     total cpu time spent up to now is      728.1 secs

     total energy              =   -2307.02952418 Ry
     Harris-Foulkes estimate   =   -2307.02952593 Ry
     estimated scf accuracy    <       0.00001323 Ry

     iteration # 16     ecut=    36.75 Ry     beta=0.30
     Davidson diagonalization with overlap
     ethr =  7.31E-09,  avg # of iterations =  3.5

     negative rho (up, down):  1.620E+00 0.000E+00

     negative rho (up, down):  1.620E+00 0.000E+00

     negative rho (up, down):  1.620E+00 0.000E+00

     negative rho (up, down):  1.620E+00 0.000E+00

     negative rho (up, down):  1.620E+00 0.000E+00

     negative rho (up, down):  1.620E+00 0.000E+00

     negative rho (up, down):  1.620E+00 0.000E+00

     negative rho (up, down):  1.620E+00 0.000E+00

     negative rho (up, down):  1.620E+00 0.000E+00

     negative rho (up, down):  1.620E+00 0.000E+00

     negative rho (up, down):  1.620E+00 0.000E+00

     negative rho (up, down):  1.620E+00 0.000E+00

     negative rho (up, down):  1.620E+00 0.000E+00

     negative rho (up, down):  1.620E+00 0.000E+00

     negative rho (up, down):  1.620E+00 0.000E+00

     negative rho (up, down):  1.620E+00 0.000E+00

     negative rho (up, down):  1.620E+00 0.000E+00

     negative rho (up, down):  1.620E+00 0.000E+00

     negative rho (up, down):  1.620E+00 0.000E+00

     negative rho (up, down):  1.620E+00 0.000E+00

     negative rho (up, down):  1.620E+00 0.000E+00

     negative rho (up, down):  1.620E+00 0.000E+00

     negative rho (up, down):  1.620E+00 0.000E+00

     negative rho (up, down):  1.620E+00 0.000E+00

     negative rho (up, down):  1.620E+00 0.000E+00

     negative rho (up, down):  1.620E+00 0.000E+00

     negative rho (up, down):  1.620E+00 0.000E+00

     negative rho (up, down):  1.620E+00 0.000E+00

     negative rho (up, down):  1.620E+00 0.000E+00

     negative rho (up, down):  1.620E+00 0.000E+00

     negative rho (up, down):  1.620E+00 0.000E+00

     negative rho (up, down):  1.620E+00 0.000E+00

     negative rho (up, down):  1.620E+00 0.000E+00

     negative rho (up, down):  1.620E+00 0.000E+00

     negative rho (up, down):  1.620E+00 0.000E+00
 
     Adding external electric field

     Computed dipole along edir(3) : 
        Dipole                0.0288 Ry au,          0.0732 Debye
        Dipole field          0.0001 Ry au
 
        Potential amp.       -0.0076 Ry
        Total length         45.1039 bohr
 

     total cpu time spent up to now is      821.0 secs

     End of self-consistent calculation

          k = 0.0000 0.0000 0.0000 ( 16091 PWs)   bands (ev):

   -77.6863 -77.6011 -77.5978 -77.5923 -77.5909 -77.5511 -77.5362 -77.4961
   -77.4804 -77.4716 -77.4538 -77.4386 -39.9633 -39.9504 -39.9230 -39.8296
   -39.7716 -39.7418 -39.7409 -39.6267 -39.6105 -39.6050 -39.3999 -39.3021
   -39.2975 -39.2689 -39.2612 -39.2481 -39.2304 -39.1929 -39.1819 -39.1728
   -39.0589 -39.0526 -39.0407 -38.9557 -38.9536 -38.9413 -38.9373 -38.9371
   -38.9325 -38.8825 -38.8807 -38.8703 -38.7343 -38.7251 -38.6758 -38.6748
    -6.3175  -4.4485  -3.8086  -3.4048  -3.3889  -3.3729  -3.1233  -3.0584
    -3.0478  -2.5117  -2.3759  -2.3498  -2.2345  -2.1653  -2.1581  -1.3024
    -0.6218  -0.6183  -0.0905   0.4048   0.4706   0.4931   0.7360   0.9909
     1.0676   1.0878   1.4867   1.4969   1.5279   1.6009   1.6075   1.6226
     1.6238   1.6389   1.8539   1.8768   2.6531   3.1624   3.1818   3.2660
     3.5238   3.5802   3.5969   4.1176   4.1636   4.2569   4.5802   4.6694
     4.7071   4.7553   4.9556   4.9886

          k = 0.0000 0.0351 0.0000 ( 16151 PWs)   bands (ev):

   -77.6803 -77.6029 -77.5969 -77.5934 -77.5923 -77.5511 -77.5323 -77.4986
   -77.4803 -77.4717 -77.4578 -77.4386 -39.9301 -39.8981 -39.8897 -39.8070
   -39.7434 -39.7160 -39.7060 -39.5973 -39.5738 -39.5544 -39.4016 -39.3432
   -39.3230 -39.3177 -39.2410 -39.2355 -39.2186 -39.1905 -39.1834 -39.1655
   -39.0699 -39.0639 -39.0418 -38.9912 -38.9634 -38.9601 -38.9566 -38.9530
   -38.9421 -38.9148 -38.9029 -38.8679 -38.7886 -38.7370 -38.7352 -38.6884
    -6.0378  -4.1839  -3.5317  -3.3444  -3.1801  -3.1597  -3.0261  -2.8637
    -2.8422  -2.3722  -2.2653  -2.1830  -2.0931  -1.8746  -1.8689  -1.2443
    -0.5983  -0.5352  -0.1005   0.3726   0.5194   0.6027   0.7154   0.7922
     0.8730   1.0103   1.0714   1.3015   1.3306   1.5090   1.6111   1.6937
     1.7495   1.7638   1.7751   2.1292   2.3364   2.7538   2.7712   2.8532
     3.2939   3.3776   3.5955   3.6114   3.7862   3.8685   3.9353   3.9699
     4.5388   4.7556   5.0200   5.0305

          k = 0.0000 0.0702 0.0000 ( 16185 PWs)   bands (ev):

   -77.6638 -77.6183 -77.5951 -77.5923 -77.5906 -77.5510 -77.5228 -77.5041
   -77.4803 -77.4720 -77.4675 -77.4386 -39.8489 -39.8067 -39.7843 -39.7191
   -39.6772 -39.6615 -39.6531 -39.5340 -39.4984 -39.4304 -39.4188 -39.3944
   -39.3808 -39.3410 -39.2364 -39.2236 -39.2075 -39.1867 -39.1850 -39.1286
   -39.1222 -39.1220 -39.1131 -39.0454 -39.0222 -39.0213 -38.9986 -38.9791
   -38.9625 -38.9559 -38.9339 -38.9133 -38.8606 -38.8344 -38.7653 -38.7242
    -5.2749  -3.6073  -3.4740  -2.8837  -2.7229  -2.5960  -2.5779  -2.3892
    -2.3466  -2.1115  -1.8236  -1.6991  -1.6821  -1.2168  -1.1661  -0.9742
    -0.5482  -0.3912  -0.3031  -0.0714   0.1405   0.2872   0.3414   0.5183
     0.6640   0.8840   1.0406   1.1012   1.2686   1.2952   1.3806   1.5514
     1.7245   1.7950   1.8931   2.0178   2.1236   2.1451   2.1851   2.2765
     2.3391   2.3946   2.8589   2.9381   3.0665   3.2880   3.5537   3.7804
     4.0124   4.2167   4.2725   4.3601

          k = 0.0000-0.1052 0.0000 ( 16164 PWs)   bands (ev):

   -77.6424 -77.6399 -77.5953 -77.5923 -77.5872 -77.5510 -77.5167 -77.5071
   -77.4801 -77.4744 -77.4718 -77.4386 -39.7919 -39.7480 -39.7186 -39.6787
   -39.6360 -39.6328 -39.5518 -39.5326 -39.5106 -39.4510 -39.4470 -39.4348
   -39.2634 -39.2427 -39.2309 -39.2203 -39.1996 -39.1870 -39.1757 -39.1624
   -39.1603 -39.1583 -39.1295 -39.1215 -39.0854 -39.0812 -39.0686 -39.0530
   -38.9796 -38.9635 -38.9531 -38.9196 -38.8927 -38.8081 -38.7772 -38.7600
    -4.3114  -4.2708  -3.0764  -2.6962  -2.2659  -2.1436  -2.1215  -2.1081
    -2.0835  -1.9760  -1.4324  -1.2453  -1.2135  -0.9223  -0.8745  -0.7982
    -0.6708  -0.4071  -0.3552  -0.3375  -0.0864   0.0620   0.0756   0.4609
     0.7447   0.7770   0.8434   0.9423   1.0507   1.0671   1.1185   1.1541
     1.2558   1.4829   1.5109   1.5546   1.6159   1.8794   2.0054   2.2105
     2.2374   2.8371   2.9274   3.0462   3.0782   3.1481   3.3810   3.3894
     3.5603   3.9318   3.9898   4.0484

          k = 0.0304-0.0175 0.0000 ( 16151 PWs)   bands (ev):

   -77.6803 -77.6019 -77.5973 -77.5945 -77.5910 -77.5533 -77.5319 -77.4955
   -77.4827 -77.4736 -77.4535 -77.4408 -39.9239 -39.9168 -39.8751 -39.8088
   -39.7374 -39.7153 -39.7094 -39.5913 -39.5797 -39.5554 -39.4013 -39.3424
   -39.3207 -39.3149 -39.2520 -39.2382 -39.2188 -39.1876 -39.1799 -39.1636
   -39.0790 -39.0704 -39.0230 -38.9945 -38.9797 -38.9664 -38.9568 -38.9532
   -38.9251 -38.9116 -38.9077 -38.8626 -38.7812 -38.7456 -38.7344 -38.6895
    -6.0361  -4.1735  -3.5229  -3.3585  -3.1648  -3.1381  -2.9780  -2.9081
[...]
     2.3099   2.7779   2.9400   3.0931   3.1340   3.2071   3.3722   3.4385
     3.7063   3.9293   4.0376   4.3250

          k = 0.0304-0.0526 0.0000 ( 16230 PWs)   bands (ev):

   -77.6226 -77.5622 -77.5568 -77.5380 -77.4998 -77.4821 -77.4559 -77.4410
   -77.4386 -77.4326 -77.4212 -77.4194 -39.8376 -39.7832 -39.7741 -39.7519
   -39.6667 -39.6395 -39.6301 -39.5137 -39.4411 -39.4351 -39.3625 -39.3516
   -39.3191 -39.3037 -39.1890 -39.1610 -39.1465 -39.1370 -39.1276 -39.1186
   -39.0879 -39.0357 -38.9990 -38.9833 -38.9709 -38.9679 -38.9370 -38.9262
   -38.8911 -38.8695 -38.8467 -38.8411 -38.8230 -38.7767 -38.7137 -38.6852
    -5.5678  -4.0497  -3.2252  -3.1639  -3.0589  -2.8253  -2.7033  -2.6460
    -2.3871  -2.1753  -2.0377  -1.9461  -1.8089  -1.5777  -1.2516  -1.1011
    -0.5372  -0.4349  -0.2083   0.0175   0.3768   0.4192   0.5260   0.5924
     0.7391   0.8796   1.0324   1.0942   1.3942   1.4720   1.5411   1.6068
     1.6473   1.7819   1.9332   2.1127   2.1566   2.2081   2.4050   2.5953
     2.6082   2.6691   2.9476   3.1213   3.2995   3.3913   3.5129   3.9970
     4.2775   4.3702   4.6238   4.8198

          k = 0.0608-0.0351 0.0000 ( 16185 PWs)   bands (ev):

   -77.6173 -77.5716 -77.5502 -77.5406 -77.4952 -77.4782 -77.4633 -77.4459
   -77.4327 -77.4271 -77.4251 -77.4230 -39.7999 -39.7962 -39.7385 -39.7041
   -39.6432 -39.6287 -39.6189 -39.4733 -39.4645 -39.3829 -39.3658 -39.3560
   -39.3450 -39.2936 -39.1796 -39.1701 -39.1573 -39.1322 -39.1287 -39.0913
   -39.0843 -39.0734 -39.0629 -38.9986 -38.9736 -38.9670 -38.9578 -38.9296
   -38.9191 -38.9077 -38.8809 -38.8295 -38.8084 -38.7868 -38.7226 -38.6898
    -5.3131  -3.7989  -3.5297  -2.9039  -2.7392  -2.6202  -2.5782  -2.4539
    -2.3754  -2.1059  -2.0127  -1.7614  -1.6960  -1.4722  -1.1000  -0.9584
    -0.5189  -0.4344  -0.2972  -0.1400   0.1299   0.2296   0.2736   0.6292
     0.7469   0.9762   1.0453   1.2290   1.2595   1.3464   1.4045   1.5835
     1.7982   1.8211   1.9167   1.9473   2.0143   2.1081   2.2076   2.3319
     2.3963   2.4150   2.8651   3.0053   3.0553   3.5581   3.7147   3.7850
     4.0397   4.2981   4.3727   4.4334

          k = 0.0608 0.0000 0.0000 ( 16230 PWs)   bands (ev):

   -77.6225 -77.5638 -77.5549 -77.5382 -77.4990 -77.4817 -77.4611 -77.4417
   -77.4315 -77.4286 -77.4260 -77.4212 -39.8362 -39.7904 -39.7657 -39.7545
   -39.6582 -39.6391 -39.6344 -39.5038 -39.4602 -39.4258 -39.3632 -39.3487
   -39.3116 -39.3086 -39.1820 -39.1653 -39.1563 -39.1412 -39.1292 -39.1167
   -39.0890 -39.0395 -39.0096 -38.9825 -38.9741 -38.9567 -38.9413 -38.9257
   -38.8862 -38.8603 -38.8461 -38.8372 -38.8321 -38.7802 -38.7089 -38.6844
    -5.5497  -3.9486  -3.1921  -3.1687  -3.0393  -2.7514  -2.7051  -2.6419
    -2.4977  -2.1623  -2.0621  -1.9840  -1.7327  -1.6080  -1.4707  -1.0700
    -0.5624  -0.4330  -0.2596  -0.0363   0.3625   0.4415   0.5213   0.5795
     0.6995   0.8920   1.0583   1.1737   1.3700   1.4833   1.5166   1.6066
     1.6499   1.7599   1.8355   2.1443   2.1782   2.2184   2.4038   2.5642
     2.6335   2.6710   2.9950   3.1043   3.3471   3.3805   3.5546   4.0507
     4.2971   4.4003   4.6002   4.8783

          k = 0.0608 0.0351 0.0000 ( 16185 PWs)   bands (ev):

   -77.6173 -77.5716 -77.5502 -77.5406 -77.4952 -77.4782 -77.4633 -77.4459
   -77.4327 -77.4272 -77.4251 -77.4230 -39.7999 -39.7962 -39.7385 -39.7041
   -39.6432 -39.6287 -39.6189 -39.4733 -39.4645 -39.3829 -39.3658 -39.3560
   -39.3450 -39.2936 -39.1796 -39.1701 -39.1574 -39.1322 -39.1286 -39.0913
   -39.0843 -39.0734 -39.0629 -38.9986 -38.9736 -38.9670 -38.9578 -38.9296
   -38.9191 -38.9077 -38.8809 -38.8295 -38.8084 -38.7868 -38.7226 -38.6898
    -5.3131  -3.7989  -3.5297  -2.9039  -2.7392  -2.6203  -2.5782  -2.4539
    -2.3754  -2.1059  -2.0127  -1.7614  -1.6960  -1.4722  -1.1000  -0.9584
    -0.5189  -0.4344  -0.2972  -0.1399   0.1299   0.2296   0.2735   0.6292
     0.7469   0.9762   1.0453   1.2290   1.2594   1.3464   1.4045   1.5835
     1.7982   1.8211   1.9167   1.9473   2.0143   2.1081   2.2077   2.3319
     2.3963   2.4151   2.8651   3.0053   3.0553   3.5581   3.7147   3.7850
     4.0397   4.2981   4.3727   4.4334

          k = 0.0608-0.1403 0.0000 ( 16218 PWs)   bands (ev):

   -77.6032 -77.5799 -77.5610 -77.5360 -77.4859 -77.4695 -77.4665 -77.4510
   -77.4411 -77.4353 -77.4227 -77.4184 -39.7494 -39.7056 -39.6846 -39.6425
   -39.6035 -39.5956 -39.5815 -39.5022 -39.4411 -39.4025 -39.3667 -39.3392
   -39.2972 -39.2472 -39.2176 -39.1753 -39.1509 -39.1374 -39.1295 -39.1258
   -39.1111 -39.0927 -39.0855 -39.0601 -39.0324 -39.0006 -38.9829 -38.9653
   -38.9301 -38.9132 -38.8679 -38.8537 -38.8198 -38.7904 -38.7649 -38.7360
    -4.6512  -3.6623  -3.4459  -2.8057  -2.5279  -2.3652  -2.1525  -2.1073
    -1.8843  -1.7696  -1.6997  -1.4823  -1.2442  -1.0748  -1.0044  -0.7686
    -0.6024  -0.4378  -0.3248  -0.3005  -0.2421  -0.0326   0.1847   0.3523
     0.5448   0.6987   0.8654   0.9334   0.9933   1.0307   1.1182   1.1772
     1.3314   1.4227   1.5542   1.8213   1.8810   1.9490   2.1330   2.2167
     2.3108   2.7984   2.9940   3.0708   3.1166   3.2937   3.3837   3.4245
     3.7046   3.9503   4.0483   4.2932

          k = 0.0608-0.1052 0.0000 ( 16272 PWs)   bands (ev):

   -77.5874 -77.5851 -77.5745 -77.5332 -77.4797 -77.4690 -77.4607 -77.4516
   -77.4493 -77.4426 -77.4211 -77.4163 -39.6633 -39.6496 -39.6372 -39.6304
   -39.6163 -39.5607 -39.5563 -39.5453 -39.5332 -39.3415 -39.3043 -39.2785
   -39.2756 -39.2563 -39.2523 -39.2101 -39.1942 -39.1906 -39.1455 -39.1338
   -39.1255 -39.1104 -39.0987 -39.0472 -39.0394 -39.0363 -38.9928 -38.9382
   -38.9157 -38.9094 -38.8709 -38.8357 -38.8242 -38.8086 -38.8000 -38.7953
    -3.8740  -3.6340  -3.6245  -3.1053  -2.1941  -2.1735  -1.8693  -1.6386
    -1.5351  -1.4792  -1.2887  -1.2715  -1.1866  -1.0301  -1.0066  -0.9451
    -0.6680  -0.6204  -0.3546  -0.3193  -0.2747  -0.1254  -0.0507   0.2080
     0.2801   0.3209   0.4239   0.5216   0.5914   0.7564   0.8542   1.1866
     1.3377   1.3497   1.6742   1.8128   1.8683   2.0691   2.0882   2.0980
     2.4750   2.6318   2.6657   3.0197   3.2298   3.2964   3.4737   3.5459
     3.7644   3.9249   3.9704   4.7725

          k = 0.0608-0.0702 0.0000 ( 16218 PWs)   bands (ev):

   -77.6032 -77.5799 -77.5610 -77.5360 -77.4859 -77.4695 -77.4665 -77.4511
   -77.4411 -77.4352 -77.4227 -77.4184 -39.7494 -39.7056 -39.6846 -39.6425
   -39.6035 -39.5956 -39.5815 -39.5022 -39.4411 -39.4025 -39.3667 -39.3392
   -39.2972 -39.2472 -39.2176 -39.1753 -39.1509 -39.1374 -39.1295 -39.1258
   -39.1111 -39.0927 -39.0855 -39.0601 -39.0324 -39.0006 -38.9829 -38.9653
   -38.9301 -38.9132 -38.8679 -38.8537 -38.8198 -38.7904 -38.7649 -38.7360
    -4.6512  -3.6623  -3.4459  -2.8057  -2.5279  -2.3652  -2.1526  -2.1074
    -1.8842  -1.7696  -1.6997  -1.4823  -1.2442  -1.0748  -1.0044  -0.7686
    -0.6024  -0.4378  -0.3248  -0.3005  -0.2421  -0.0326   0.1847   0.3523
     0.5448   0.6987   0.8654   0.9334   0.9934   1.0307   1.1182   1.1772
     1.3314   1.4227   1.5542   1.8213   1.8809   1.9490   2.1330   2.2167
     2.3108   2.7984   2.9940   3.0708   3.1166   3.2937   3.3837   3.4245
     3.7046   3.9503   4.0482   4.2932

          k =-0.0911 0.0526 0.0000 ( 16164 PWs)   bands (ev):

   -77.5972 -77.5916 -77.5502 -77.5410 -77.4804 -77.4764 -77.4644 -77.4590
   -77.4325 -77.4281 -77.4261 -77.4234 -39.7439 -39.7368 -39.6808 -39.6604
   -39.6010 -39.5868 -39.5115 -39.4958 -39.4410 -39.4206 -39.4029 -39.4000
   -39.2294 -39.2006 -39.1750 -39.1556 -39.1486 -39.1362 -39.1251 -39.1232
   -39.1156 -39.0978 -39.0892 -39.0816 -39.0453 -39.0318 -39.0222 -39.0178
   -38.9307 -38.9136 -38.8820 -38.8671 -38.7828 -38.7708 -38.7385 -38.7376
    -4.3413  -4.2625  -3.3400  -2.6730  -2.3400  -2.1668  -2.1435  -2.1073
    -2.0954  -2.0127  -1.7823  -1.3006  -1.2688  -0.9656  -0.8812  -0.8188
    -0.7658  -0.4278  -0.3935  -0.3292  -0.2346   0.0897   0.1507   0.6435
     0.7392   0.8611   0.9418   1.0319   1.0472   1.0771   1.0996   1.2010
     1.3105   1.4493   1.5476   1.5921   1.6098   1.6644   2.0463   2.0739
     2.7498   2.8567   2.9659   3.0070   3.1286   3.1759   3.4838   3.5610
     3.7865   3.9046   3.9586   4.0152

          k =-0.0911 0.0877 0.0000 ( 16218 PWs)   bands (ev):

   -77.6031 -77.5803 -77.5606 -77.5360 -77.4841 -77.4717 -77.4676 -77.4523
   -77.4381 -77.4333 -77.4246 -77.4188 -39.7500 -39.6988 -39.6912 -39.6416
   -39.6089 -39.5915 -39.5773 -39.5038 -39.4386 -39.3974 -39.3698 -39.3395
   -39.2824 -39.2526 -39.2336 -39.1774 -39.1506 -39.1420 -39.1288 -39.1238
   -39.1156 -39.0941 -39.0837 -39.0607 -39.0304 -39.0015 -38.9804 -38.9652
   -38.9255 -38.9105 -38.8685 -38.8557 -38.8217 -38.7925 -38.7616 -38.7347
    -4.6234  -3.6852  -3.3341  -2.8161  -2.5353  -2.3148  -2.1946  -2.0975
    -1.9483  -1.7870  -1.7012  -1.4735  -1.2484  -1.0710  -1.0375  -0.8546
    -0.6104  -0.4458  -0.3726  -0.3204  -0.2141  -0.0258   0.2042   0.3534
     0.4517   0.7424   0.8639   0.9551   0.9757   1.0274   1.1435   1.1910
     1.3670   1.4420   1.6215   1.7731   1.8782   1.9287   2.0971   2.2406
     2.3025   2.7999   3.0100   3.0772   3.1247   3.2712   3.3803   3.4304
     3.6903   3.9792   4.0854   4.3342

          k =-0.0911 0.1228 0.0000 ( 16218 PWs)   bands (ev):

   -77.6031 -77.5803 -77.5606 -77.5360 -77.4841 -77.4717 -77.4676 -77.4523
   -77.4381 -77.4333 -77.4246 -77.4188 -39.7500 -39.6988 -39.6912 -39.6416
   -39.6089 -39.5915 -39.5773 -39.5038 -39.4386 -39.3974 -39.3698 -39.3395
   -39.2824 -39.2526 -39.2336 -39.1774 -39.1506 -39.1420 -39.1288 -39.1238
   -39.1156 -39.0941 -39.0837 -39.0607 -39.0304 -39.0015 -38.9804 -38.9652
   -38.9255 -38.9105 -38.8685 -38.8557 -38.8217 -38.7925 -38.7616 -38.7347
    -4.6234  -3.6851  -3.3341  -2.8161  -2.5353  -2.3148  -2.1946  -2.0975
    -1.9483  -1.7870  -1.7012  -1.4735  -1.2484  -1.0710  -1.0375  -0.8546
    -0.6105  -0.4458  -0.3726  -0.3205  -0.2141  -0.0258   0.2042   0.3535
     0.4517   0.7424   0.8639   0.9551   0.9757   1.0273   1.1436   1.1910
     1.3671   1.4420   1.6215   1.7731   1.8782   1.9287   2.0971   2.2406
     2.3025   2.7999   3.0100   3.0772   3.1247   3.2712   3.3803   3.4304
     3.6903   3.9792   4.0854   4.3343

          k =-0.0911-0.0526 0.0000 ( 16164 PWs)   bands (ev):

   -77.5972 -77.5916 -77.5502 -77.5410 -77.4804 -77.4764 -77.4645 -77.4590
   -77.4325 -77.4282 -77.4261 -77.4233 -39.7439 -39.7368 -39.6808 -39.6603
   -39.6010 -39.5868 -39.5115 -39.4958 -39.4410 -39.4206 -39.4029 -39.4000
   -39.2293 -39.2006 -39.1751 -39.1556 -39.1486 -39.1362 -39.1251 -39.1232
   -39.1156 -39.0978 -39.0892 -39.0816 -39.0452 -39.0318 -39.0223 -39.0178
   -38.9308 -38.9136 -38.8820 -38.8671 -38.7829 -38.7708 -38.7384 -38.7377
    -4.3413  -4.2626  -3.3400  -2.6730  -2.3400  -2.1668  -2.1435  -2.1073
    -2.0954  -2.0127  -1.7823  -1.3006  -1.2688  -0.9656  -0.8813  -0.8188
    -0.7658  -0.4278  -0.3934  -0.3292  -0.2346   0.0896   0.1507   0.6435
     0.7392   0.8612   0.9418   1.0319   1.0472   1.0770   1.0996   1.2010
     1.3104   1.4493   1.5477   1.5921   1.6099   1.6644   2.0462   2.0740
     2.7498   2.8567   2.9659   3.0071   3.1286   3.1759   3.4838   3.5609
     3.7866   3.9045   3.9584   4.0153

     the Fermi energy is     3.0056 ev

!    total energy              =   -2307.05349799 Ry
     Harris-Foulkes estimate   =   -2307.05349505 Ry
     estimated scf accuracy    <       0.00000465 Ry

     The total energy is the sum of the following terms:

     one-electron contribution =  -18646.45798172 Ry
     hartree contribution      =    9308.42856630 Ry
     xc contribution           =    -650.26580551 Ry
     ewald contribution        =    7681.30909773 Ry
     electric field correction =       0.00001658 Ry
     smearing contrib. (-TS)   =      -0.06739137 Ry

     convergence has been achieved in  14 iterations
 
 BEEF-vdW xc energy contributions
           1 :   -578.283480537066     
           2 :    537.835073849641     
           3 :   -465.121888679487     
           4 :    373.840143827489     
           5 :   -279.201495384628     
           6 :    194.054193253591     
           7 :   -126.249737593530     
           8 :    77.8767551281650     
           9 :   -46.3187937089994     
          10 :    26.4621299509332     
          11 :   -13.0848874817951     
          12 :    2.56726768604619     
          13 :    6.50755470363185     
          14 :   -13.7928000464971     
          15 :    18.2167340212488     
          16 :   -19.0619381190797     
          17 :    16.6299035766825     
          18 :   -12.2831093655467     
          19 :    7.93438843760850     
          20 :   -5.27793851257695     
          21 :    5.13411117203884     
          22 :   -7.19514883290287     
          23 :    10.2561618722058     
          24 :   -12.8007237814247     
          25 :    13.6661660029301     
          26 :   -12.4998491105467     
          27 :    9.82662314186712     
          28 :   -6.73221406465188     
          29 :    4.33597117166698     
          30 :   -3.30701644851524     
          31 :   -48.0252263067433     
          32 :   -35.6713178683264     

     Forces acting on atoms (Ry/au):


     negative rho (up, down):  1.621E+00 0.000E+00
     atom    1 type  1   force =    -0.00000142    0.00082511    0.01478251
     atom    2 type  1   force =     0.00000070    0.00155956    0.01555362
     atom    3 type  1   force =    -0.00119455    0.00133973    0.01358721
     atom    4 type  1   force =     0.00118775    0.00134177    0.01356590
     atom    5 type  1   force =    -0.00062325   -0.00352286   -0.01111057
     atom    6 type  1   force =     0.00062444   -0.00352063   -0.01112088
     atom    7 type  1   force =     0.00000063   -0.00330435   -0.02789051
     atom    8 type  1   force =    -0.00000292    0.00435856   -0.00704838
     atom    9 type  1   force =    -0.00045617   -0.00024168    0.00035699
     atom   10 type  1   force =     0.00046257   -0.00027724    0.00037328
     atom   11 type  1   force =    -0.00002177   -0.00054937   -0.00054509
     atom   12 type  1   force =     0.00002386    0.00039506   -0.00099981
     atom   13 type  2   force =     0.00000015    0.00159634    0.00049573

     Total force =     0.044432     Total SCF correction =     0.019765
     SCF correction compared to forces is large: reduce conv_thr to get better values


     entering subroutine stress ...


     negative rho (up, down):  1.621E+00 0.000E+00
          total   stress  (Ry/bohr**3)                   (kbar)     P=  -17.02
  -0.00013333   0.00000001   0.00000001        -19.61      0.00      0.00
   0.00000001  -0.00011911  -0.00000317          0.00    -17.52     -0.47
   0.00000001  -0.00000317  -0.00009460          0.00     -0.47    -13.92

 !ASE

     Writing output data file calc.save
 
     init_run     :     15.43s CPU     21.80s WALL (       1 calls)
     electrons    :    507.30s CPU    687.76s WALL (       1 calls)
     forces       :      5.74s CPU      6.43s WALL (       1 calls)
     stress       :     18.85s CPU     20.22s WALL (       1 calls)

     Called by init_run:
     wfcinit      :     11.85s CPU     17.30s WALL (       1 calls)
     potinit      :      1.41s CPU      1.99s WALL (       1 calls)

     Called by electrons:
     c_bands      :    370.32s CPU    500.97s WALL (      14 calls)
     sum_band     :     62.86s CPU     86.79s WALL (      14 calls)
     v_of_rho     :     17.69s CPU     25.67s WALL (      15 calls)
     newd         :     16.87s CPU     17.44s WALL (      15 calls)
     mix_rho      :      0.61s CPU      0.95s WALL (      14 calls)
     vdW_energy   :      2.16s CPU      2.19s WALL (      51 calls)
     vdW_ffts     :     38.78s CPU     57.32s WALL (     104 calls)
     vdW_v        :      6.87s CPU      9.70s WALL (      51 calls)

     Called by c_bands:
     init_us_2    :      0.97s CPU      0.98s WALL (     620 calls)
     cegterg      :    357.32s CPU    487.26s WALL (     280 calls)

     Called by *egterg:
     h_psi        :    238.44s CPU    359.82s WALL (    1520 calls)
     s_psi        :     13.52s CPU     13.57s WALL (    1520 calls)
     g_psi        :      0.46s CPU      0.46s WALL (    1220 calls)
     cdiaghg      :     73.23s CPU     75.74s WALL (    1500 calls)

     Called by h_psi:
     add_vuspsi   :     14.06s CPU     14.12s WALL (    1520 calls)

     General routines
     calbec       :     29.00s CPU     35.23s WALL (    1840 calls)
     fft          :     57.73s CPU     85.57s WALL (    3093 calls)
     ffts         :      0.15s CPU      0.24s WALL (      29 calls)
     fftw         :    233.54s CPU    371.61s WALL (  176524 calls)
     interpolate  :      0.62s CPU      0.97s WALL (      29 calls)
     davcio       :      0.00s CPU      0.02s WALL (      20 calls)
 
     Parallel routines
     fft_scatter  :    262.39s CPU    426.52s WALL (  179646 calls)
 
     PWSCF        :  9m 8.22s CPU    12m17.62s WALL

 
   This run was terminated on:   5:22:16  14Jan2018            

=------------------------------------------------------------------------------=
   JOB DONE.
=------------------------------------------------------------------------------=
Job  /afs/slac/g/suncat/bin/suncat-tsmpirun -x LD_LIBRARY_PATH -wdir /scratch/qe842473_RrDOy pw.x -in pw.inp

TID   HOST_NAME   COMMAND_LINE            STATUS            TERMINATION_TIME
===== ========== ================  =======================  ===================
00000 suncat0050 pw.x -in pw.inp   Done                     01/14/2018 05:22:16
00001 suncat0050 pw.x -in pw.inp   Done                     01/14/2018 05:22:16
00002 suncat0050 pw.x -in pw.inp   Done                     01/14/2018 05:22:16
00003 suncat0050 pw.x -in pw.inp   Done                     01/14/2018 05:22:16
00004 suncat0050 pw.x -in pw.inp   Done                     01/14/2018 05:22:16
00005 suncat0050 pw.x -in pw.inp   Done                     01/14/2018 05:22:16
00006 suncat0050 pw.x -in pw.inp   Done                     01/14/2018 05:22:16
00007 suncat0050 pw.x -in pw.inp   Done                     01/14/2018 05:22:16
00008 suncat0242 pw.x -in pw.inp   Done                     01/14/2018 05:22:16
00009 suncat0242 pw.x -in pw.inp   Done                     01/14/2018 05:22:16
00010 suncat0242 pw.x -in pw.inp   Done                     01/14/2018 05:22:16
00011 suncat0242 pw.x -in pw.inp   Done                     01/14/2018 05:22:16
00012 suncat0242 pw.x -in pw.inp   Done                     01/14/2018 05:22:16
00013 suncat0242 pw.x -in pw.inp   Done                     01/14/2018 05:22:16
00014 suncat0242 pw.x -in pw.inp   Done                     01/14/2018 05:22:16
00015 suncat0242 pw.x -in pw.inp   Done                     01/14/2018 05:22:16
00016 suncat0241 pw.x -in pw.inp   Done                     01/14/2018 05:22:16
00017 suncat0241 pw.x -in pw.inp   Done                     01/14/2018 05:22:16
00018 suncat0241 pw.x -in pw.inp   Done                     01/14/2018 05:22:16
00019 suncat0241 pw.x -in pw.inp   Done                     01/14/2018 05:22:16
00020 suncat0241 pw.x -in pw.inp   Done                     01/14/2018 05:22:16
00021 suncat0241 pw.x -in pw.inp   Done                     01/14/2018 05:22:16
00022 suncat0241 pw.x -in pw.inp   Done                     01/14/2018 05:22:16
00023 suncat0241 pw.x -in pw.inp   Done                     01/14/2018 05:22:16
00024 suncat0240 pw.x -in pw.inp   Done                     01/14/2018 05:22:16
00025 suncat0240 pw.x -in pw.inp   Done                     01/14/2018 05:22:16
00026 suncat0240 pw.x -in pw.inp   Done                     01/14/2018 05:22:16
00027 suncat0240 pw.x -in pw.inp   Done                     01/14/2018 05:22:16
00028 suncat0240 pw.x -in pw.inp   Done                     01/14/2018 05:22:16
00029 suncat0240 pw.x -in pw.inp   Done                     01/14/2018 05:22:16
00030 suncat0240 pw.x -in pw.inp   Done                     01/14/2018 05:22:16
00031 suncat0240 pw.x -in pw.inp   Done                     01/14/2018 05:22:16
