  python dir          : /u/if/mamunm/src/espresso
  espresso dir        : /nfs/slac/g/suncatfs/sw/espv18/espresso-dynpy-beef/bin
  pseudo dir          : /u/if/mamunm/psp/gbrv1.5pbe
  ase-espresso py git : GITVERSION



     Program PWSCF v.5.1rc2 (svn rev. 11289) starts on  3May2018 at  4:53:23 

     This program is part of the open-source Quantum ESPRESSO suite
     for quantum simulation of materials; please cite
         "P. Giannozzi et al., J. Phys.:Condens. Matter 21 395502 (2009);
          URL http://www.quantum-espresso.org", 
     in publications or presentations arising from this work. More details at
     http://www.quantum-espresso.org/quote

     Parallel version (MPI), running on    32 processors
     K-points division:     npool     =       4
     R & G space division:  proc/nbgrp/npool/nimage =       8
     Reading input from pw.inp
     Message from routine read_cards :
     DEPRECATED: no units specified in CELL_PARAMETERS card

     Current dimensions of program PWSCF are:
     Max number of different atomic species (ntypx) = 10
     Max number of k-points (npk) =  40000
     Max angular momentum in pseudopotentials (lmaxx) =  3
     Presently stress not available with electric field


     **************************************************************************
     Initializing libbeef V0.1.1 with the BEEF-vdW functional.
     Citation: Wellendorff et al., PRB 85, 235149 (2012).
     **************************************************************************


     IMPORTANT: XC functional enforced from input :
     Exchange-correlation      = BEEF-VDW ( 1  4 27 13 2)
     Any further DFT definition will be discarded
     Please, verify this is what you really want


     Subspace diagonalization in iterative solution of the eigenvalue problem:
     a serial algorithm will be used

 
     Parallelization info
     --------------------
     sticks:   dense  smooth     PW     G-vecs:    dense   smooth      PW
     Min         367     147     43                69909    17663    2781
     Max         369     148     44                69918    17695    2794
     Sum        2941    1177    349               559305   141419   22321
 


     bravais-lattice index     =            0
     lattice parameter (alat)  =       1.8897  a.u.
     unit-cell volume          =    4704.3541 (a.u.)^3
     number of atoms/cell      =           13
     number of atomic types    =            2
     number of electrons       =       173.00
     number of Kohn-Sham states=           96
     kinetic-energy cutoff     =      36.7493  Ry
     charge density cutoff     =     367.4932  Ry
     convergence threshold     =      1.0E-05
     mixing beta               =       0.3000
     number of iterations used =           10  plain     mixing
     Exchange-correlation      = BEEF-VDW ( 1  4 27 13 2)
     nstep                     =           50


     celldm(1)=   1.889726  celldm(2)=   0.000000  celldm(3)=   0.000000
     celldm(4)=   0.000000  celldm(5)=   0.000000  celldm(6)=   0.000000

     crystal axes: (cart. coord. in units of alat)
               a(1) = (   5.712816   0.000000   0.000000 )  
               a(2) = (   2.856408   4.947444   0.000000 )  
               a(3) = (   0.000000   0.000000  24.664495 )  

     reciprocal axes: (cart. coord. in units 2 pi/alat)
               b(1) = (  0.175045 -0.101062  0.000000 )  
               b(2) = (  0.000000  0.202125  0.000000 )  
               b(3) = (  0.000000  0.000000  0.040544 )  


     PseudoPot. # 1 for W  read from file:
     /u/if/mamunm/psp/gbrv1.5pbe/W.UPF
     MD5 check sum: 9c083fa34c2a2ea0f02f1f893e16e1c8
     Pseudo is Ultrasoft + core correction, Zval = 14.0
     Generated by new atomic code, or converted to UPF format
     Using radial grid of  923 points,  8 beta functions with: 
                l(1) =   0
                l(2) =   0
                l(3) =   0
                l(4) =   1
                l(5) =   1
                l(6) =   2
                l(7) =   2
                l(8) =   3
     Q(r) pseudized with  6 coefficients,  rinner =    1.350   1.350   1.350
                                                       1.350   1.350   1.350
                                                       1.350

     PseudoPot. # 2 for N  read from file:
     /u/if/mamunm/psp/gbrv1.5pbe/N.UPF
     MD5 check sum: 95339753478d7afb44899504a8723017
     Pseudo is Ultrasoft + core correction, Zval =  5.0
     Generated by new atomic code, or converted to UPF format
     Using radial grid of  729 points,  4 beta functions with: 
                l(1) =   0
                l(2) =   0
                l(3) =   1
                l(4) =   1
     Q(r) pseudized with  8 coefficients,  rinner =    0.900   0.900   0.900


     vdW kernel table read from file vdW_kernel_table
     MD5 check sum: 095c7af220d748ca6e76c0b4c6cfb241

     atomic species   valence    mass     pseudopotential
        W1            14.00   183.84000     W ( 1.00)
        N1             5.00    14.00700     N ( 1.00)

     No symmetry found



   Cartesian axes

     site n.     atom                  positions (alat units)
         1           W1  tau(   1) = (   1.4282041   0.8245740  10.0000000  )
         2           W1  tau(   2) = (   4.2846123   0.8245740  10.0000000  )
         3           W1  tau(   3) = (   2.8564082   3.2982961  10.0000000  )
         4           W1  tau(   4) = (   5.7128165   3.2982961  10.0000000  )
         5           W1  tau(   5) = (   5.7128165   1.6491481  12.3322476  )
         6           W1  tau(   6) = (   2.8564082   1.6491481  12.3322476  )
         7           W1  tau(   7) = (   7.1410206   4.1228701  12.3322476  )
         8           W1  tau(   8) = (   4.2846123   4.1228701  12.3322476  )
         9           W1  tau(   9) = (   0.0000000   0.0000000  14.6644951  )
        10           W1  tau(  10) = (   2.8564082   0.0000000  14.6644951  )
        11           W1  tau(  11) = (   1.4282041   2.4737221  14.6644951  )
        12           W1  tau(  12) = (   4.2846123   2.4737221  14.6644951  )
        13           N1  tau(  13) = (   2.8564082   1.6491481  16.1789951  )

     number of k points=    20  Fermi-Dirac smearing, width (Ry)=  0.0110
                       cart. coord. in units 2pi/alat
        k(    1) = (   0.0000000   0.0000000   0.0000000), wk =   0.0555556
        k(    2) = (   0.0000000   0.0336874   0.0000000), wk =   0.1111111
        k(    3) = (   0.0000000   0.0673749   0.0000000), wk =   0.1111111
        k(    4) = (   0.0000000  -0.1010623   0.0000000), wk =   0.0555556
        k(    5) = (   0.0291742  -0.0168437   0.0000000), wk =   0.1111111
        k(    6) = (   0.0291742   0.0168437   0.0000000), wk =   0.1111111
        k(    7) = (   0.0291742   0.0505311   0.0000000), wk =   0.1111111
        k(    8) = (   0.0291742  -0.1179060   0.0000000), wk =   0.1111111
        k(    9) = (   0.0291742  -0.0842186   0.0000000), wk =   0.1111111
        k(   10) = (   0.0291742  -0.0505311   0.0000000), wk =   0.1111111
        k(   11) = (   0.0583483  -0.0336874   0.0000000), wk =   0.1111111
        k(   12) = (   0.0583483  -0.0000000   0.0000000), wk =   0.1111111
        k(   13) = (   0.0583483   0.0336874   0.0000000), wk =   0.1111111
        k(   14) = (   0.0583483  -0.1347497   0.0000000), wk =   0.1111111
        k(   15) = (   0.0583483  -0.1010623   0.0000000), wk =   0.1111111
        k(   16) = (   0.0583483  -0.0673749   0.0000000), wk =   0.1111111
        k(   17) = (  -0.0875225   0.0505311   0.0000000), wk =   0.0555556
        k(   18) = (  -0.0875225   0.0842186   0.0000000), wk =   0.1111111
        k(   19) = (  -0.0875225   0.1179060   0.0000000), wk =   0.1111111
        k(   20) = (  -0.0875225  -0.0505311   0.0000000), wk =   0.0555556

     Dense  grid:   559305 G-vectors     FFT dimensions: (  72,  72, 288)

     Smooth grid:   141419 G-vectors     FFT dimensions: (  45,  45, 180)

     Largest allocated arrays     est. size (Mb)     dimensions
        Kohn-Sham Wavefunctions         3.28 Mb     (    2239,   96)
        NL pseudopotentials            10.93 Mb     (    2239,  320)
        Each V/rho on FFT grid          2.85 Mb     (  186624)
        Each G-vector array             0.53 Mb     (   69911)
        G-vector shells                 0.14 Mb     (   18450)
     Largest temporary arrays     est. size (Mb)     dimensions
        Auxiliary wavefunctions        13.12 Mb     (    2239,  384)
        Each subspace H/S matrix        2.25 Mb     (     384,  384)
        Each <psi_i|beta_j> matrix      0.47 Mb     (     320,   96)
        Arrays for rho mixing          28.48 Mb     (  186624,   10)

     Initial potential from superposition of free atoms
     Check: negative starting charge=   -0.760414

     starting charge  171.79591, renormalised to  173.00000

     negative rho (up, down):  7.657E-01 0.000E+00


     ************************************************************************
     *
     * You are using vdW-DF for exchange-correlation in this calculation.
     * Please cite the following three references that made this development
     * possible:
     *
     *   M. Dion, H. Rydberg, E. Schroder, D. C. Langreth, and
     *   B. I. Lundqvist, Phys. Rev. Lett. 92, 246401 (2004).
     *
     *   T. Thonhauser, V. R. Cooper, S. Li, A. Puzder, P. Hyldgaard, and
     *   D. C. Langreth, Phys. Rev. B 76, 125112 (2007).
     *
     *   G. Roman-Perez and J. M. Soler, Phys. Rev. Lett. 103, 096102 (2009).
     *
     *
     * If you are using vdW-DF2, please also cite:
     *
     *   K. Lee, E. D. Murray, L. Kong, B. I. Lundqvist, and
     *   D. C. Langreth, Phys. Rev. B 82, 081101(R) (2010).
     *
     *
     * If you are calculating the stress with vdW-DF, please also cite:
     *
     *   R. Sabatini, E. Kucukbenli, B. Kolb, T. Thonhauser, and
     *   S. de Gironcoli, J. Phys.: Condens. Matter 24, 424209 (2012).
     *
     ************************************************************************

     Carrying out vdW-DF run using the following parameters:

     Nqs =      20    Nr_points =    1024   r_max =   100.000
     q_mesh =
               0.00001000     0.04494208     0.09755937     0.15916263
               0.23128650     0.31572767     0.41458969     0.53033537
               0.66584808     0.82450364     1.01025438     1.22772762
               1.48234092     1.78043706     2.12944203     2.53805004
               3.01644009     3.57652955     4.23227104     5.00000000

     Gradients computed in reciprocal space

     ************************************************************************


 
     Adding external electric field

     Computed dipole along edir(3) : 
        Dipole               -0.2547 Ry au,         -0.6473 Debye
        Dipole field         -0.0007 Ry au
 
        Potential amp.        0.0618 Ry
        Total length         45.4439 bohr
 
     Starting wfc are  160 randomized atomic wfcs

     total cpu time spent up to now is       16.1 secs

     per-process dynamical memory:    87.3 Mb

     Self-consistent Calculation

     iteration #  1     ecut=    36.75 Ry     beta=0.30
     Davidson diagonalization with overlap
     ethr =  1.00E-02,  avg # of iterations =  2.0

     negative rho (up, down):  7.706E-01 0.000E+00
 
     Adding external electric field

     Computed dipole along edir(3) : 
        Dipole                1.9431 Ry au,          4.9390 Debye
        Dipole field          0.0052 Ry au
 
        Potential amp.       -0.4718 Ry
        Total length         45.4439 bohr
 

     total cpu time spent up to now is       40.1 secs

     total energy              =   -1943.59041858 Ry
     Harris-Foulkes estimate   =   -1945.50466220 Ry
     estimated scf accuracy    <       4.21001780 Ry

     iteration #  2     ecut=    36.75 Ry     beta=0.30
     Davidson diagonalization with overlap
     ethr =  2.43E-03,  avg # of iterations =  7.3

     negative rho (up, down):  7.708E-01 0.000E+00
 
     Adding external electric field

     Computed dipole along edir(3) : 
        Dipole               -1.8788 Ry au,         -4.7753 Debye
        Dipole field         -0.0050 Ry au
 
        Potential amp.        0.4561 Ry
        Total length         45.4439 bohr
 

     total cpu time spent up to now is       72.6 secs

     total energy              =   -1936.80080638 Ry
     Harris-Foulkes estimate   =   -1952.52593836 Ry
     estimated scf accuracy    <     411.58026710 Ry

     iteration #  3     ecut=    36.75 Ry     beta=0.30
     Davidson diagonalization with overlap
     ethr =  2.43E-03,  avg # of iterations =  6.7

     negative rho (up, down):  7.720E-01 0.000E+00
 
     Adding external electric field

     Computed dipole along edir(3) : 
        Dipole               -0.6527 Ry au,         -1.6590 Debye
        Dipole field         -0.0017 Ry au
 
        Potential amp.        0.1585 Ry
        Total length         45.4439 bohr
 

     total cpu time spent up to now is      105.2 secs

     total energy              =   -1943.29799156 Ry
     Harris-Foulkes estimate   =   -1946.76076187 Ry
     estimated scf accuracy    <      66.73870352 Ry

     iteration #  4     ecut=    36.75 Ry     beta=0.30
     Davidson diagonalization with overlap
     ethr =  2.43E-03,  avg # of iterations =  4.0

     negative rho (up, down):  7.741E-01 0.000E+00
 
     Adding external electric field

     Computed dipole along edir(3) : 
        Dipole               -0.4180 Ry au,         -1.0624 Debye
        Dipole field         -0.0011 Ry au
 
        Potential amp.        0.1015 Ry
        Total length         45.4439 bohr
 

     total cpu time spent up to now is      132.5 secs

     total energy              =   -1944.97567996 Ry
     Harris-Foulkes estimate   =   -1945.23848744 Ry
     estimated scf accuracy    <       2.02111762 Ry

     iteration #  5     ecut=    36.75 Ry     beta=0.30
     Davidson diagonalization with overlap
     ethr =  1.17E-03,  avg # of iterations =  2.1

     negative rho (up, down):  7.792E-01 0.000E+00
 
     Adding external electric field

     Computed dipole along edir(3) : 
        Dipole               -0.2878 Ry au,         -0.7315 Debye
        Dipole field         -0.0008 Ry au
 
        Potential amp.        0.0699 Ry
        Total length         45.4439 bohr
 

     total cpu time spent up to now is      156.6 secs

     total energy              =   -1945.07674811 Ry
     Harris-Foulkes estimate   =   -1945.12196529 Ry
     estimated scf accuracy    <       0.21766364 Ry

     iteration #  6     ecut=    36.75 Ry     beta=0.30
     Davidson diagonalization with overlap
     ethr =  1.26E-04,  avg # of iterations =  5.8

     negative rho (up, down):  7.846E-01 0.000E+00
 
     Adding external electric field

     Computed dipole along edir(3) : 
        Dipole               -0.2923 Ry au,         -0.7430 Debye
        Dipole field         -0.0008 Ry au
 
        Potential amp.        0.0710 Ry
        Total length         45.4439 bohr
 

     total cpu time spent up to now is      185.7 secs

     total energy              =   -1945.09125147 Ry
     Harris-Foulkes estimate   =   -1945.10098794 Ry
     estimated scf accuracy    <       0.07161082 Ry

     iteration #  7     ecut=    36.75 Ry     beta=0.30
     Davidson diagonalization with overlap
     ethr =  4.14E-05,  avg # of iterations =  3.8

     negative rho (up, down):  7.874E-01 0.000E+00
 
     Adding external electric field

     Computed dipole along edir(3) : 
        Dipole               -0.2756 Ry au,         -0.7006 Debye
        Dipole field         -0.0007 Ry au
 
        Potential amp.        0.0669 Ry
        Total length         45.4439 bohr
 

     total cpu time spent up to now is      211.5 secs

     total energy              =   -1945.09613038 Ry
     Harris-Foulkes estimate   =   -1945.09804105 Ry
     estimated scf accuracy    <       0.01167157 Ry

     iteration #  8     ecut=    36.75 Ry     beta=0.30
     Davidson diagonalization with overlap
     ethr =  6.75E-06,  avg # of iterations =  5.5

     negative rho (up, down):  7.893E-01 0.000E+00
 
     Adding external electric field

     Computed dipole along edir(3) : 
        Dipole               -0.2390 Ry au,         -0.6074 Debye
        Dipole field         -0.0006 Ry au
 
        Potential amp.        0.0580 Ry
        Total length         45.4439 bohr
 

     total cpu time spent up to now is      239.9 secs

     total energy              =   -1945.09774577 Ry
     Harris-Foulkes estimate   =   -1945.09824649 Ry
     estimated scf accuracy    <       0.00487834 Ry

     iteration #  9     ecut=    36.75 Ry     beta=0.30
     Davidson diagonalization with overlap
     ethr =  2.82E-06,  avg # of iterations =  2.7

     negative rho (up, down):  7.911E-01 0.000E+00
 
     Adding external electric field

     Computed dipole along edir(3) : 
        Dipole               -0.2175 Ry au,         -0.5528 Debye
        Dipole field         -0.0006 Ry au
 
        Potential amp.        0.0528 Ry
        Total length         45.4439 bohr
 

     total cpu time spent up to now is      264.5 secs

     total energy              =   -1945.09814589 Ry
     Harris-Foulkes estimate   =   -1945.09816503 Ry
     estimated scf accuracy    <       0.00127784 Ry

     iteration # 10     ecut=    36.75 Ry     beta=0.30
     Davidson diagonalization with overlap
     ethr =  7.39E-07,  avg # of iterations =  4.0

     negative rho (up, down):  7.922E-01 0.000E+00
 
     Adding external electric field

     Computed dipole along edir(3) : 
        Dipole               -0.2098 Ry au,         -0.5333 Debye
        Dipole field         -0.0006 Ry au
 
        Potential amp.        0.0509 Ry
        Total length         45.4439 bohr
 

     total cpu time spent up to now is      291.5 secs

     total energy              =   -1945.09834233 Ry
     Harris-Foulkes estimate   =   -1945.09837975 Ry
     estimated scf accuracy    <       0.00071079 Ry

     iteration # 11     ecut=    36.75 Ry     beta=0.30
     Davidson diagonalization with overlap
     ethr =  4.11E-07,  avg # of iterations =  2.5

     negative rho (up, down):  7.925E-01 0.000E+00
 
     Adding external electric field

     Computed dipole along edir(3) : 
        Dipole               -0.2119 Ry au,         -0.5387 Debye
        Dipole field         -0.0006 Ry au
 
        Potential amp.        0.0515 Ry
        Total length         45.4439 bohr
 

     total cpu time spent up to now is      315.9 secs

     total energy              =   -1945.09836444 Ry
     Harris-Foulkes estimate   =   -1945.09838764 Ry
     estimated scf accuracy    <       0.00019750 Ry

     iteration # 12     ecut=    36.75 Ry     beta=0.30
     Davidson diagonalization with overlap
     ethr =  1.14E-07,  avg # of iterations =  4.0

     negative rho (up, down):  7.925E-01 0.000E+00
 
     Adding external electric field

     Computed dipole along edir(3) : 
        Dipole               -0.2112 Ry au,         -0.5369 Debye
        Dipole field         -0.0006 Ry au
 
        Potential amp.        0.0513 Ry
        Total length         45.4439 bohr
 

     total cpu time spent up to now is      342.4 secs

     total energy              =   -1945.09838706 Ry
     Harris-Foulkes estimate   =   -1945.09839173 Ry
     estimated scf accuracy    <       0.00003640 Ry

     iteration # 13     ecut=    36.75 Ry     beta=0.30
     Davidson diagonalization with overlap
     ethr =  2.10E-08,  avg # of iterations =  2.6

     negative rho (up, down):  7.926E-01 0.000E+00
 
     Adding external electric field

     Computed dipole along edir(3) : 
        Dipole               -0.2104 Ry au,         -0.5348 Debye
        Dipole field         -0.0006 Ry au
 
        Potential amp.        0.0511 Ry
        Total length         45.4439 bohr
 

     total cpu time spent up to now is      367.9 secs

     total energy              =   -1945.09838900 Ry
     Harris-Foulkes estimate   =   -1945.09839117 Ry
     estimated scf accuracy    <       0.00001399 Ry

     iteration # 14     ecut=    36.75 Ry     beta=0.30
     Davidson diagonalization with overlap
     ethr =  8.09E-09,  avg # of iterations =  4.0

     negative rho (up, down):  7.928E-01 0.000E+00

     negative rho (up, down):  7.928E-01 0.000E+00

     negative rho (up, down):  7.928E-01 0.000E+00

     negative rho (up, down):  7.928E-01 0.000E+00

     negative rho (up, down):  7.928E-01 0.000E+00

     negative rho (up, down):  7.928E-01 0.000E+00

     negative rho (up, down):  7.928E-01 0.000E+00

     negative rho (up, down):  7.928E-01 0.000E+00

     negative rho (up, down):  7.928E-01 0.000E+00

     negative rho (up, down):  7.928E-01 0.000E+00

     negative rho (up, down):  7.928E-01 0.000E+00

     negative rho (up, down):  7.928E-01 0.000E+00

     negative rho (up, down):  7.928E-01 0.000E+00

     negative rho (up, down):  7.928E-01 0.000E+00

     negative rho (up, down):  7.928E-01 0.000E+00

     negative rho (up, down):  7.928E-01 0.000E+00

     negative rho (up, down):  7.928E-01 0.000E+00

     negative rho (up, down):  7.928E-01 0.000E+00

     negative rho (up, down):  7.928E-01 0.000E+00

     negative rho (up, down):  7.928E-01 0.000E+00

     negative rho (up, down):  7.928E-01 0.000E+00

     negative rho (up, down):  7.928E-01 0.000E+00

     negative rho (up, down):  7.928E-01 0.000E+00

     negative rho (up, down):  7.928E-01 0.000E+00

     negative rho (up, down):  7.928E-01 0.000E+00

     negative rho (up, down):  7.928E-01 0.000E+00

     negative rho (up, down):  7.928E-01 0.000E+00

     negative rho (up, down):  7.928E-01 0.000E+00

     negative rho (up, down):  7.928E-01 0.000E+00

     negative rho (up, down):  7.928E-01 0.000E+00

     negative rho (up, down):  7.928E-01 0.000E+00

     negative rho (up, down):  7.928E-01 0.000E+00

     negative rho (up, down):  7.928E-01 0.000E+00

     negative rho (up, down):  7.928E-01 0.000E+00

     negative rho (up, down):  7.928E-01 0.000E+00
 
     Adding external electric field

     Computed dipole along edir(3) : 
        Dipole               -0.1903 Ry au,         -0.4838 Debye
        Dipole field         -0.0005 Ry au
 
        Potential amp.        0.0462 Ry
        Total length         45.4439 bohr
 

     total cpu time spent up to now is      441.3 secs

     End of self-consistent calculation

          k = 0.0000 0.0000 0.0000 ( 17753 PWs)   bands (ev):

   -72.1367 -72.0737 -72.0736 -72.0361 -72.0252 -71.9817 -71.9592 -71.9590
   -71.9451 -71.9301 -71.9300 -71.9285 -36.6586 -36.6358 -36.6358 -36.5939
   -36.5833 -36.5780 -36.5779 -36.4455 -36.4448 -36.4448 -36.2574 -36.1629
   -36.1628 -36.1446 -36.0730 -36.0681 -36.0681 -35.9879 -35.9767 -35.9766
   -35.8736 -35.8717 -35.8715 -35.8633 -35.8624 -35.8622 -35.8010 -35.7555
   -35.7555 -35.7501 -35.7454 -35.7454 -35.6759 -35.6759 -35.5743 -35.5743
   -11.0471  -5.9412  -4.1247  -3.3922  -2.9093  -2.9093  -2.8375  -2.7320
    -2.7319  -2.6801  -2.0282  -2.0124  -2.0124  -1.8124  -1.8123  -1.7875
    -0.6975  -0.6975  -0.4408   0.1397   0.1397   0.3041   0.8762   0.8999
     0.8999   1.1439   1.5743   1.5878   1.5878   1.8262   1.8263   1.9343
     1.9343   1.9948   2.0741   2.1108   2.1108   2.2205   2.3612   2.3612
     3.1190   3.1190   3.1345   3.5323   3.8117   3.9455   3.9456   4.0766

          k = 0.0000 0.0337 0.0000 ( 17716 PWs)   bands (ev):

   -72.1322 -72.0769 -72.0737 -72.0342 -72.0235 -71.9783 -71.9631 -71.9592
   -71.9465 -71.9333 -71.9300 -71.9282 -36.6253 -36.6065 -36.5903 -36.5685
   -36.5607 -36.5503 -36.5399 -36.4176 -36.4170 -36.3985 -36.2554 -36.1893
   -36.1760 -36.1636 -36.0654 -36.0633 -36.0583 -36.0070 -35.9988 -35.9653
   -35.9214 -35.9172 -35.8578 -35.8521 -35.8491 -35.8484 -35.8315 -35.7907
   -35.7780 -35.7761 -35.7672 -35.7376 -35.7207 -35.6883 -35.6272 -35.5858
   -11.0303  -5.6928  -3.8810  -3.1266  -2.9600  -2.7223  -2.6849  -2.6179
    -2.5277  -2.4893  -1.9321  -1.8106  -1.7928  -1.6684  -1.6256  -1.5915
    -0.6813  -0.6721  -0.3616   0.0998   0.1430   0.3364   0.7257   0.9493
     0.9605   1.0970   1.2520   1.3205   1.4961   1.5730   1.7855   1.8347
     1.8915   1.9794   2.0119   2.0435   2.0669   2.1743   2.3237   2.4209
     2.8043   2.9179   2.9252   3.1030   3.3738   3.4477   3.6608   3.7402

          k = 0.0000 0.0674 0.0000 ( 17708 PWs)   bands (ev):

   -72.1205 -72.0866 -72.0737 -72.0337 -72.0129 -71.9763 -71.9686 -71.9592
   -71.9490 -71.9400 -71.9300 -71.9286 -36.5494 -36.5316 -36.5201 -36.5000
   -36.4857 -36.4611 -36.4529 -36.3522 -36.3515 -36.2906 -36.2592 -36.2183
   -36.2102 -36.1943 -36.0717 -36.0627 -36.0414 -36.0399 -36.0375 -35.9864
   -35.9831 -35.9718 -35.9254 -35.8940 -35.8868 -35.8817 -35.8265 -35.8195
   -35.8166 -35.8146 -35.8112 -35.8049 -35.7358 -35.7236 -35.7058 -35.6179
   -10.9971  -5.0078  -3.3352  -3.2219  -2.4896  -2.4100  -2.2458  -2.2374
    -2.0429  -2.0092  -1.7112  -1.3400  -1.2601  -1.2498  -1.1541  -0.9826
    -0.6562  -0.6016  -0.1283   0.0133   0.0882   0.1103   0.4027   0.5484
     0.7001   0.7902   0.8746   1.0193   1.2953   1.3614   1.4275   1.5266
     1.5638   1.5840   1.7695   1.9139   2.0348   2.0895   2.1849   2.2829
     2.3915   2.4158   2.4374   2.6260   2.7024   3.0934   3.2879   3.4307

          k = 0.0000-0.1011 0.0000 ( 17668 PWs)   bands (ev):

   -72.1092 -72.0969 -72.0737 -72.0342 -71.9982 -71.9915 -71.9592 -71.9579
   -71.9558 -71.9439 -71.9299 -71.9288 -36.4918 -36.4763 -36.4723 -36.4615
   -36.4569 -36.4466 -36.3214 -36.3097 -36.3081 -36.3063 -36.2573 -36.2466
   -36.1694 -36.1560 -36.1005 -36.0823 -36.0572 -36.0528 -36.0525 -36.0470
   -35.9794 -35.9781 -35.9680 -35.9572 -35.9518 -35.9517 -35.8743 -35.8650
   -35.8188 -35.8156 -35.7854 -35.7835 -35.7731 -35.7687 -35.6648 -35.6589
   -10.9808  -4.1301  -4.0476  -2.7118  -2.5103  -1.9685  -1.8790  -1.7606
    -1.7236  -1.7184  -1.6901  -1.1863  -0.8937  -0.7638  -0.7042  -0.6484
    -0.5209  -0.4372  -0.4281  -0.1169   0.0291   0.1029   0.1765   0.3071
     0.4368   0.4693   0.8103   0.9178   1.0468   1.0784   1.1068   1.1759
     1.2241   1.2689   1.4041   1.5858   1.7074   1.7422   1.8649   2.0256
     2.1178   2.5189   2.5550   3.0827   3.1261   3.3357   3.3453   3.3631

          k = 0.0292-0.0168 0.0000 ( 17716 PWs)   bands (ev):

   -72.1322 -72.0770 -72.0736 -72.0342 -72.0235 -71.9782 -71.9633 -71.9590
   -71.9465 -71.9333 -71.9300 -71.9282 -36.6253 -36.6065 -36.5903 -36.5685
   -36.5606 -36.5503 -36.5399 -36.4176 -36.4170 -36.3985 -36.2554 -36.1893
   -36.1759 -36.1637 -36.0654 -36.0633 -36.0583 -36.0070 -35.9988 -35.9653
   -35.9213 -35.9173 -35.8578 -35.8522 -35.8490 -35.8485 -35.8315 -35.7907
   -35.7780 -35.7761 -35.7672 -35.7376 -35.7207 -35.6884 -35.6272 -35.5858
   -11.0303  -5.6928  -3.8810  -3.1266  -2.9600  -2.7223  -2.6849  -2.6179
    -2.5278  -2.4893  -1.9321  -1.8106  -1.7928  -1.6684  -1.6256  -1.5915
    -0.6813  -0.6721  -0.3616   0.0998   0.1430   0.3364   0.7257   0.9492
     0.9605   1.0970   1.2520   1.3205   1.4961   1.5730   1.7855   1.8347
     1.8915   1.9794   2.0119   2.0435   2.0669   2.1743   2.3237   2.4209
     2.8043   2.9179   2.9252   3.1030   3.3738   3.4477   3.6609   3.7402

          k = 0.0292 0.0168 0.0000 ( 17716 PWs)   bands (ev):

   -72.1322 -72.0769 -72.0736 -72.0342 -72.0235 -71.9783 -71.9632 -71.9592
   -71.9465 -71.9333 -71.9300 -71.9282 -36.6253 -36.6065 -36.5903 -36.5685
   -36.5607 -36.5503 -36.5399 -36.4176 -36.4170 -36.3985 -36.2554 -36.1893
   -36.1759 -36.1637 -36.0654 -36.0633 -36.0583 -36.0070 -35.9988 -35.9653
   -35.9214 -35.9173 -35.8578 -35.8521 -35.8491 -35.8484 -35.8315 -35.7907
   -35.7780 -35.7761 -35.7672 -35.7376 -35.7207 -35.6884 -35.6272 -35.5858
   -11.0303  -5.6928  -3.8810  -3.1266  -2.9600  -2.7223  -2.6849  -2.6179
    -2.5277  -2.4893  -1.9321  -1.8106  -1.7928  -1.6684  -1.6256  -1.5915
    -0.6813  -0.6721  -0.3616   0.0998   0.1430   0.3364   0.7257   0.9493
     0.9605   1.0970   1.2520   1.3205   1.4961   1.5730   1.7855   1.8347
     1.8915   1.9794   2.0119   2.0435   2.0669   2.1743   2.3237   2.4209
     2.8043   2.9179   2.9252   3.1030   3.3738   3.4477   3.6609   3.7402

          k = 0.0292 0.0505 0.0000 ( 17715 PWs)   bands (ev):

   -72.1241 -72.0825 -72.0747 -72.0335 -72.0167 -71.9721 -71.9692 -71.9628
   -71.9469 -71.9375 -71.9317 -71.9275 -36.5780 -36.5385 -36.5244 -36.5183
   -36.5161 -36.4877 -36.4867 -36.3813 -36.3402 -36.3366 -36.2564 -36.2117
   -36.2067 -36.1938 -36.0955 -36.0501 -36.0463 -36.0401 -36.0080 -35.9755
   -35.9713 -35.9246 -35.8954 -35.8908 -35.8831 -35.8584 -35.8319 -35.8269
   -35.8254 -35.8019 -35.7791 -35.7520 -35.7515 -35.7261 -35.6952 -35.6133
   -11.0054  -5.2229  -3.4377  -2.9146  -2.8544  -2.6294  -2.3960  -2.3333
    -2.1697  -2.0794  -1.6718  -1.5764  -1.4178  -1.3934  -1.3112  -1.1108
    -0.7023  -0.6194  -0.2172   0.0243   0.0751   0.3566   0.4832   0.7656
     0.7965   0.8655   0.9449   0.9852   1.2647   1.4156   1.5426   1.5976
     1.6637   1.7375   1.8703   1.9507   2.1468   2.1892   2.3003   2.3651
     2.4047   2.4447   2.6020   2.7370   2.8484   2.9592   3.3788   3.5369

          k = 0.0292-0.1179 0.0000 ( 17692 PWs)   bands (ev):

   -72.1111 -72.0928 -72.0763 -72.0338 -72.0021 -71.9830 -71.9678 -71.9604
   -71.9493 -71.9428 -71.9333 -71.9266 -36.4994 -36.4804 -36.4550 -36.4492
   -36.4378 -36.4298 -36.3789 -36.3228 -36.2957 -36.2797 -36.2691 -36.2427
   -36.2100 -36.1732 -36.1397 -36.0864 -36.0816 -36.0403 -36.0266 -36.0218
   -35.9950 -35.9853 -35.9711 -35.9261 -35.9173 -35.9113 -35.8537 -35.8472
   -35.8459 -35.8316 -35.7930 -35.7749 -35.7724 -35.7560 -35.7092 -35.6591
   -10.9808  -4.3973  -3.4849  -2.7675  -2.6488  -2.2972  -1.9415  -1.8293
    -1.6703  -1.5152  -1.4247  -1.1246  -1.0329  -0.8819  -0.7700  -0.6908
    -0.6139  -0.4414  -0.2063  -0.1199  -0.0672   0.0509   0.1408   0.3367
     0.4798   0.5146   0.6074   0.7534   0.9305   1.0065   1.0886   1.1498
     1.1644   1.3381   1.4191   1.6438   1.7405   1.8176   2.0325   2.1731
     2.2750   2.5225   2.6271   2.6792   3.1766   3.2234   3.3491   3.3886

          k = 0.0292-0.0842 0.0000 ( 17692 PWs)   bands (ev):

   -72.1110 -72.0929 -72.0763 -72.0338 -72.0021 -71.9830 -71.9677 -71.9604
   -71.9492 -71.9428 -71.9333 -71.9266 -36.4994 -36.4803 -36.4550 -36.4492
   -36.4378 -36.4298 -36.3789 -36.3228 -36.2957 -36.2797 -36.2691 -36.2427
   -36.2100 -36.1732 -36.1397 -36.0864 -36.0816 -36.0403 -36.0265 -36.0218
   -35.9950 -35.9853 -35.9711 -35.9261 -35.9173 -35.9113 -35.8537 -35.8472
   -35.8459 -35.8316 -35.7930 -35.7748 -35.7724 -35.7560 -35.7092 -35.6591
   -10.9808  -4.3973  -3.4849  -2.7675  -2.6489  -2.2972  -1.9415  -1.8293
    -1.6703  -1.5152  -1.4247  -1.1246  -1.0329  -0.8819  -0.7700  -0.6908
    -0.6139  -0.4414  -0.2063  -0.1199  -0.0672   0.0509   0.1408   0.3368
     0.4798   0.5146   0.6074   0.7534   0.9305   1.0064   1.0886   1.1498
     1.1644   1.3381   1.4191   1.6438   1.7405   1.8176   2.0325   2.1731
     2.2750   2.5225   2.6271   2.6792   3.1766   3.2234   3.3491   3.3886

          k = 0.0292-0.0505 0.0000 ( 17715 PWs)   bands (ev):

   -72.1241 -72.0825 -72.0747 -72.0335 -72.0167 -71.9721 -71.9693 -71.9627
   -71.9469 -71.9375 -71.9317 -71.9275 -36.5780 -36.5385 -36.5244 -36.5182
   -36.5161 -36.4877 -36.4867 -36.3813 -36.3402 -36.3366 -36.2564 -36.2118
   -36.2067 -36.1939 -36.0955 -36.0501 -36.0463 -36.0401 -36.0080 -35.9755
   -35.9713 -35.9246 -35.8954 -35.8908 -35.8831 -35.8584 -35.8319 -35.8269
   -35.8253 -35.8019 -35.7791 -35.7521 -35.7515 -35.7261 -35.6952 -35.6133
   -11.0054  -5.2229  -3.4377  -2.9147  -2.8544  -2.6294  -2.3960  -2.3333
    -2.1697  -2.0794  -1.6718  -1.5763  -1.4178  -1.3934  -1.3112  -1.1108
    -0.7023  -0.6193  -0.2172   0.0243   0.0752   0.3566   0.4832   0.7656
     0.7965   0.8655   0.9449   0.9852   1.2647   1.4156   1.5426   1.5976
     1.6637   1.7375   1.8703   1.9507   2.1468   2.1892   2.3003   2.3651
     2.4047   2.4447   2.6020   2.7370   2.8484   2.9592   3.3788   3.5369

          k = 0.0583-0.0337 0.0000 ( 17708 PWs)   bands (ev):

   -72.1205 -72.0867 -72.0736 -72.0337 -72.0129 -71.9764 -71.9687 -71.9590
   -71.9491 -71.9400 -71.9299 -71.9287 -36.5493 -36.5317 -36.5201 -36.5000
   -36.4858 -36.4611 -36.4529 -36.3522 -36.3515 -36.2906 -36.2592 -36.2183
   -36.2103 -36.1943 -36.0716 -36.0628 -36.0414 -36.0399 -36.0375 -35.9863
   -35.9832 -35.9718 -35.9253 -35.8940 -35.8867 -35.8817 -35.8263 -35.8195
   -35.8167 -35.8144 -35.8113 -35.8050 -35.7358 -35.7236 -35.7058 -35.6179
   -10.9971  -5.0078  -3.3352  -3.2219  -2.4896  -2.4100  -2.2458  -2.2374
    -2.0430  -2.0091  -1.7112  -1.3400  -1.2601  -1.2498  -1.1541  -0.9826
    -0.6562  -0.6016  -0.1283   0.0133   0.0882   0.1102   0.4027   0.5485
     0.7000   0.7902   0.8746   1.0194   1.2953   1.3614   1.4275   1.5266
     1.5638   1.5840   1.7695   1.9139   2.0348   2.0895   2.1849   2.2829
     2.3915   2.4158   2.4374   2.6260   2.7024   3.0934   3.2879   3.4307

          k = 0.0583-0.0000 0.0000 ( 17715 PWs)   bands (ev):

   -72.1241 -72.0826 -72.0746 -72.0335 -72.0167 -71.9721 -71.9694 -71.9627
   -71.9469 -71.9375 -71.9317 -71.9275 -36.5780 -36.5385 -36.5244 -36.5182
   -36.5161 -36.4877 -36.4867 -36.3813 -36.3402 -36.3366 -36.2564 -36.2118
   -36.2066 -36.1939 -36.0955 -36.0501 -36.0463 -36.0401 -36.0080 -35.9755
   -35.9712 -35.9246 -35.8954 -35.8908 -35.8831 -35.8584 -35.8319 -35.8269
   -35.8253 -35.8019 -35.7791 -35.7521 -35.7515 -35.7261 -35.6952 -35.6133
   -11.0054  -5.2229  -3.4377  -2.9147  -2.8544  -2.6294  -2.3960  -2.3333
    -2.1697  -2.0794  -1.6718  -1.5763  -1.4178  -1.3934  -1.3112  -1.1108
    -0.7023  -0.6193  -0.2172   0.0243   0.0751   0.3566   0.4832   0.7656
     0.7965   0.8655   0.9449   0.9852   1.2647   1.4156   1.5426   1.5976
     1.6636   1.7375   1.8703   1.9507   2.1468   2.1892   2.3003   2.3650
     2.4047   2.4447   2.6020   2.7370   2.8484   2.9592   3.3788   3.5370

          k = 0.0583 0.0337 0.0000 ( 17708 PWs)   bands (ev):

   -72.1205 -72.0866 -72.0736 -72.0337 -72.0129 -71.9763 -71.9686 -71.9592
   -71.9491 -71.9400 -71.9300 -71.9286 -36.5494 -36.5316 -36.5201 -36.5000
   -36.4857 -36.4611 -36.4529 -36.3522 -36.3515 -36.2906 -36.2592 -36.2183
   -36.2102 -36.1942 -36.0716 -36.0627 -36.0414 -36.0399 -36.0375 -35.9864
   -35.9831 -35.9718 -35.9254 -35.8940 -35.8868 -35.8817 -35.8264 -35.8195
   -35.8166 -35.8145 -35.8112 -35.8049 -35.7358 -35.7236 -35.7058 -35.6179
   -10.9971  -5.0078  -3.3352  -3.2219  -2.4896  -2.4100  -2.2458  -2.2374
    -2.0429  -2.0091  -1.7112  -1.3400  -1.2601  -1.2498  -1.1541  -0.9826
    -0.6562  -0.6016  -0.1283   0.0133   0.0882   0.1102   0.4027   0.5484
     0.7001   0.7902   0.8746   1.0193   1.2953   1.3614   1.4275   1.5266
     1.5638   1.5840   1.7695   1.9139   2.0348   2.0895   2.1849   2.2829
     2.3915   2.4158   2.4374   2.6260   2.7024   3.0934   3.2879   3.4307

          k = 0.0583-0.1347 0.0000 ( 17692 PWs)   bands (ev):

   -72.1110 -72.0929 -72.0763 -72.0338 -72.0021 -71.9830 -71.9678 -71.9604
   -71.9493 -71.9427 -71.9333 -71.9266 -36.4994 -36.4804 -36.4550 -36.4492
   -36.4378 -36.4298 -36.3789 -36.3228 -36.2957 -36.2797 -36.2691 -36.2427
   -36.2100 -36.1732 -36.1397 -36.0864 -36.0816 -36.0403 -36.0266 -36.0218
   -35.9950 -35.9853 -35.9711 -35.9261 -35.9173 -35.9113 -35.8537 -35.8472
   -35.8459 -35.8316 -35.7930 -35.7749 -35.7724 -35.7560 -35.7092 -35.6591
   -10.9808  -4.3973  -3.4849  -2.7675  -2.6488  -2.2972  -1.9415  -1.8293
    -1.6703  -1.5152  -1.4247  -1.1246  -1.0329  -0.8819  -0.7700  -0.6908
    -0.6139  -0.4414  -0.2063  -0.1199  -0.0672   0.0509   0.1408   0.3368
     0.4798   0.5146   0.6074   0.7534   0.9305   1.0065   1.0886   1.1498
     1.1644   1.3381   1.4191   1.6438   1.7405   1.8176   2.0325   2.1731
     2.2750   2.5225   2.6271   2.6792   3.1766   3.2234   3.3491   3.3886

          k = 0.0583-0.1011 0.0000 ( 17592 PWs)   bands (ev):

   -72.1004 -72.1001 -72.0797 -72.0336 -71.9901 -71.9873 -71.9779 -71.9531
   -71.9486 -71.9484 -71.9341 -71.9257 -36.4406 -36.4350 -36.4292 -36.4079
   -36.4020 -36.4005 -36.3488 -36.3410 -36.3363 -36.2628 -36.2317 -36.2205
   -36.2101 -36.2081 -36.1640 -36.0993 -36.0989 -36.0969 -36.0353 -36.0228
   -36.0201 -36.0160 -35.9800 -35.9229 -35.9148 -35.9086 -35.8623 -35.8334
   -35.8290 -35.8270 -35.8020 -35.8020 -35.8012 -35.7235 -35.7229 -35.7192
   -10.9727  -3.5768  -3.5059  -3.4671  -2.2765  -2.1493  -2.0123  -1.2684
    -1.2523  -1.2290  -1.0870  -0.9840  -0.9402  -0.9165  -0.4967  -0.4932
    -0.4633  -0.4462  -0.3757  -0.3038  -0.2587  -0.1163  -0.1158   0.1382
     0.2337   0.4084   0.4230   0.5935   0.6230   0.7085   0.7223   0.8774
     0.9460   1.2541   1.4198   1.4249   1.9104   1.9409   2.0359   2.0466
     2.3641   2.4935   2.5747   2.8450   2.9404   2.9563   3.5196   3.6159

          k = 0.0583-0.0674 0.0000 ( 17692 PWs)   bands (ev):

   -72.1110 -72.0930 -72.0763 -72.0338 -72.0021 -71.9831 -71.9677 -71.9604
   -71.9493 -71.9427 -71.9333 -71.9266 -36.4994 -36.4804 -36.4550 -36.4492
   -36.4378 -36.4298 -36.3789 -36.3228 -36.2957 -36.2797 -36.2691 -36.2427
   -36.2100 -36.1732 -36.1397 -36.0864 -36.0816 -36.0403 -36.0266 -36.0218
   -35.9950 -35.9853 -35.9711 -35.9261 -35.9173 -35.9113 -35.8537 -35.8471
   -35.8459 -35.8316 -35.7930 -35.7749 -35.7724 -35.7560 -35.7092 -35.6591
   -10.9808  -4.3973  -3.4849  -2.7675  -2.6488  -2.2972  -1.9414  -1.8293
    -1.6703  -1.5152  -1.4247  -1.1246  -1.0329  -0.8818  -0.7700  -0.6908
    -0.6139  -0.4414  -0.2063  -0.1199  -0.0672   0.0509   0.1408   0.3368
     0.4798   0.5146   0.6074   0.7534   0.9305   1.0065   1.0886   1.1498
     1.1644   1.3381   1.4191   1.6437   1.7405   1.8176   2.0325   2.1731
     2.2750   2.5225   2.6271   2.6792   3.1766   3.2233   3.3492   3.3886

          k =-0.0875 0.0505 0.0000 ( 17668 PWs)   bands (ev):

   -72.1091 -72.0971 -72.0736 -72.0342 -71.9981 -71.9917 -71.9590 -71.9579
   -71.9559 -71.9439 -71.9299 -71.9289 -36.4917 -36.4764 -36.4723 -36.4614
   -36.4569 -36.4466 -36.3214 -36.3097 -36.3081 -36.3064 -36.2572 -36.2467
   -36.1694 -36.1560 -36.1004 -36.0823 -36.0572 -36.0528 -36.0526 -36.0471
   -35.9793 -35.9783 -35.9679 -35.9572 -35.9517 -35.9517 -35.8743 -35.8650
   -35.8187 -35.8157 -35.7853 -35.7836 -35.7731 -35.7688 -35.6648 -35.6590
   -10.9808  -4.1301  -4.0477  -2.7118  -2.5103  -1.9685  -1.8790  -1.7606
    -1.7236  -1.7184  -1.6901  -1.1863  -0.8937  -0.7637  -0.7042  -0.6484
    -0.5210  -0.4372  -0.4281  -0.1170   0.0291   0.1029   0.1765   0.3070
     0.4368   0.4694   0.8103   0.9178   1.0468   1.0784   1.1068   1.1759
     1.2241   1.2689   1.4041   1.5858   1.7074   1.7423   1.8648   2.0256
     2.1178   2.5190   2.5549   3.0826   3.1261   3.3356   3.3453   3.3632

          k =-0.0875 0.0842 0.0000 ( 17692 PWs)   bands (ev):

   -72.1110 -72.0930 -72.0762 -72.0338 -72.0021 -71.9831 -71.9677 -71.9604
   -71.9493 -71.9427 -71.9333 -71.9266 -36.4994 -36.4803 -36.4550 -36.4492
   -36.4378 -36.4298 -36.3789 -36.3228 -36.2957 -36.2797 -36.2691 -36.2427
   -36.2100 -36.1732 -36.1397 -36.0864 -36.0816 -36.0403 -36.0266 -36.0218
   -35.9950 -35.9853 -35.9711 -35.9261 -35.9173 -35.9113 -35.8537 -35.8472
   -35.8459 -35.8316 -35.7930 -35.7749 -35.7724 -35.7560 -35.7092 -35.6591
   -10.9808  -4.3973  -3.4849  -2.7675  -2.6488  -2.2972  -1.9414  -1.8293
    -1.6703  -1.5152  -1.4247  -1.1246  -1.0329  -0.8818  -0.7700  -0.6908
    -0.6139  -0.4414  -0.2063  -0.1199  -0.0672   0.0509   0.1408   0.3368
     0.4798   0.5146   0.6074   0.7534   0.9305   1.0065   1.0886   1.1498
     1.1644   1.3381   1.4191   1.6437   1.7405   1.8176   2.0325   2.1731
     2.2750   2.5225   2.6271   2.6792   3.1766   3.2234   3.3492   3.3886

          k =-0.0875 0.1179 0.0000 ( 17692 PWs)   bands (ev):

   -72.1110 -72.0929 -72.0763 -72.0338 -72.0021 -71.9831 -71.9677 -71.9605
   -71.9492 -71.9428 -71.9333 -71.9266 -36.4994 -36.4803 -36.4550 -36.4492
   -36.4378 -36.4298 -36.3789 -36.3228 -36.2957 -36.2797 -36.2691 -36.2427
   -36.2100 -36.1732 -36.1397 -36.0864 -36.0816 -36.0403 -36.0265 -36.0218
   -35.9950 -35.9853 -35.9711 -35.9261 -35.9173 -35.9113 -35.8537 -35.8472
   -35.8459 -35.8316 -35.7930 -35.7748 -35.7724 -35.7560 -35.7092 -35.6591
   -10.9808  -4.3973  -3.4849  -2.7675  -2.6489  -2.2972  -1.9415  -1.8293
    -1.6703  -1.5152  -1.4247  -1.1246  -1.0329  -0.8819  -0.7700  -0.6908
    -0.6139  -0.4414  -0.2063  -0.1199  -0.0672   0.0509   0.1408   0.3368
     0.4798   0.5146   0.6074   0.7534   0.9305   1.0064   1.0886   1.1498
     1.1644   1.3381   1.4191   1.6438   1.7405   1.8176   2.0325   2.1731
     2.2750   2.5225   2.6271   2.6792   3.1766   3.2234   3.3491   3.3886

          k =-0.0875-0.0505 0.0000 ( 17668 PWs)   bands (ev):

   -72.1091 -72.0970 -72.0736 -72.0342 -71.9982 -71.9915 -71.9592 -71.9579
   -71.9558 -71.9439 -71.9299 -71.9288 -36.4918 -36.4763 -36.4723 -36.4615
   -36.4569 -36.4466 -36.3214 -36.3097 -36.3081 -36.3063 -36.2572 -36.2466
   -36.1694 -36.1560 -36.1005 -36.0823 -36.0572 -36.0528 -36.0526 -36.0470
   -35.9794 -35.9781 -35.9680 -35.9572 -35.9518 -35.9517 -35.8743 -35.8651
   -35.8188 -35.8156 -35.7854 -35.7835 -35.7731 -35.7687 -35.6648 -35.6590
   -10.9808  -4.1301  -4.0476  -2.7118  -2.5103  -1.9685  -1.8790  -1.7606
    -1.7236  -1.7184  -1.6901  -1.1863  -0.8937  -0.7638  -0.7042  -0.6484
    -0.5210  -0.4372  -0.4281  -0.1169   0.0291   0.1029   0.1765   0.3071
     0.4368   0.4693   0.8103   0.9178   1.0468   1.0784   1.1068   1.1759
     1.2241   1.2689   1.4041   1.5858   1.7074   1.7422   1.8649   2.0256
     2.1178   2.5189   2.5550   3.0827   3.1261   3.3357   3.3453   3.3631

     the Fermi energy is     2.1758 ev

!    total energy              =   -1945.09838489 Ry
     Harris-Foulkes estimate   =   -1945.09841273 Ry
     estimated scf accuracy    <       0.00000805 Ry

     The total energy is the sum of the following terms:

     one-electron contribution =  -15030.09333198 Ry
     hartree contribution      =    7498.97466851 Ry
     xc contribution           =    -515.67917368 Ry
     ewald contribution        =    6101.79507483 Ry
     electric field correction =       0.00009679 Ry
     smearing contrib. (-TS)   =      -0.09571936 Ry

     convergence has been achieved in  14 iterations
 
 BEEF-vdW xc energy contributions
           1 :   -453.620906775546     
           2 :    419.590039478504     
           3 :   -359.681625797564     
           4 :    287.048829114631     
           5 :   -215.357277893112     
           6 :    154.827776106562     
           7 :   -110.071079934472     
           8 :    80.2010739908960     
           9 :   -60.8022848952608     
          10 :    46.6483471910216     
          11 :   -33.9535354156790     
          12 :    21.3593200958567     
          13 :   -9.56622465207124     
          14 :   0.130577880382475     
          15 :    5.80576685502598     
          16 :   -8.24608248364154     
          17 :    8.30839777150686     
          18 :   -7.60530726119617     
          19 :    7.44385230567639     
          20 :   -8.27848835098752     
          21 :    9.66711749315533     
          22 :   -10.6978173569211     
          23 :    10.6108078271078     
          24 :   -9.26481028890987     
          25 :    7.21126948900263     
          26 :   -5.37080368660452     
          27 :    4.51701582129499     
          28 :   -4.86310883837581     
          29 :    5.97391029496890     
          30 :   -7.03531803457361     
          31 :   -41.1682429353170     
          32 :   -30.8235615549742     

     Forces acting on atoms (Ry/au):


     negative rho (up, down):  7.928E-01 0.000E+00
     atom    1 type  1   force =    -0.00197474   -0.00116689   -0.00135304
     atom    2 type  1   force =     0.00197327   -0.00114552   -0.00137501
     atom    3 type  1   force =     0.00001841    0.00229947   -0.00134747
     atom    4 type  1   force =    -0.00001621    0.00001366   -0.00427342
     atom    5 type  1   force =     0.00000381   -0.00097952   -0.00610694
     atom    6 type  1   force =    -0.00000585    0.00000776    0.01987410
     atom    7 type  1   force =     0.00085748    0.00048467   -0.00611627
     atom    8 type  1   force =    -0.00085726    0.00048859   -0.00611622
     atom    9 type  1   force =     0.00001913   -0.00001553   -0.04398729
     atom   10 type  1   force =    -0.00001934    0.02067448    0.08353981
     atom   11 type  1   force =     0.01791960   -0.01034293    0.08356717
     atom   12 type  1   force =    -0.01791729   -0.01031915    0.08354411
     atom   13 type  2   force =    -0.00000102    0.00000091   -0.19984952

     Total force =     0.253179     Total SCF correction =     0.012708


     entering subroutine stress ...


     negative rho (up, down):  7.928E-01 0.000E+00
          total   stress  (Ry/bohr**3)                   (kbar)     P=  -53.37
  -0.00045015   0.00000000   0.00000000        -66.22      0.00      0.00
   0.00000000  -0.00045016   0.00000000          0.00    -66.22      0.00
   0.00000000   0.00000000  -0.00018807          0.00      0.00    -27.67


     BFGS Geometry Optimization

     number of scf cycles    =   1
     number of bfgs steps    =   0

     energy   new            =   -1945.0983848882 Ry

     new trust radius        =       0.1998495249 bohr
     new conv_thr            =       0.0000099958 Ry


ATOMIC_POSITIONS (crystal)
W1       0.166666667   0.166666667   0.405441099    0   0   0
W1       0.666666667   0.166666667   0.405441099    0   0   0
W1       0.166666667   0.666666667   0.405441099    0   0   0
W1       0.666666667   0.666666667   0.405441099    0   0   0
W1       0.833333333   0.333333333   0.500000000    0   0   0
W1       0.333333333   0.333333333   0.500000000    0   0   0
W1       0.833333333   0.833333333   0.500000000    0   0   0
W1       0.333333333   0.833333333   0.500000000    0   0   0
W1       0.000002603  -0.000001661   0.593615153
W1       0.498892541   0.002211336   0.596351249
W1       0.002213028   0.498893724   0.596351836
W1       0.498892191   0.498896266   0.596351341
N1       0.333333190   0.333333431   0.651675180



     Writing output data file calc.save
     Check: negative starting charge=   -0.760414
     NEW-OLD atomic charge density approx. for the potential
     Check: negative starting charge=   -0.760790

     negative rho (up, down):  7.937E-01 0.000E+00
 
     Adding external electric field

     Computed dipole along edir(3) : 
        Dipole               -0.1696 Ry au,         -0.4311 Debye
        Dipole field         -0.0005 Ry au
 
        Potential amp.        0.0412 Ry
        Total length         45.4439 bohr
 

     total cpu time spent up to now is      544.0 secs

     per-process dynamical memory:    82.5 Mb

     Self-consistent Calculation

     iteration #  1     ecut=    36.75 Ry     beta=0.30
     Davidson diagonalization with overlap
     ethr =  1.00E-06,  avg # of iterations =  9.1

     negative rho (up, down):  7.935E-01 0.000E+00
 
     Adding external electric field

     Computed dipole along edir(3) : 
        Dipole               -0.8064 Ry au,         -2.0496 Debye
        Dipole field         -0.0022 Ry au
 
        Potential amp.        0.1958 Ry
        Total length         45.4439 bohr
 

     total cpu time spent up to now is      584.7 secs

     total energy              =   -1945.12399388 Ry
     Harris-Foulkes estimate   =   -1945.15790462 Ry
     estimated scf accuracy    <       0.07379289 Ry

     iteration #  2     ecut=    36.75 Ry     beta=0.30
     Davidson diagonalization with overlap
     ethr =  4.27E-05,  avg # of iterations =  5.5

     negative rho (up, down):  7.935E-01 0.000E+00
 
     Adding external electric field

     Computed dipole along edir(3) : 
        Dipole               -0.1538 Ry au,         -0.3908 Debye
        Dipole field         -0.0004 Ry au
 
        Potential amp.        0.0373 Ry
        Total length         45.4439 bohr
 

     total cpu time spent up to now is      614.8 secs

     total energy              =   -1944.82596699 Ry
     Harris-Foulkes estimate   =   -1945.48975879 Ry
     estimated scf accuracy    <      24.61998487 Ry

     iteration #  3     ecut=    36.75 Ry     beta=0.30
     Davidson diagonalization with overlap
     ethr =  4.27E-05,  avg # of iterations =  5.5

     negative rho (up, down):  7.936E-01 0.000E+00
 
     Adding external electric field

     Computed dipole along edir(3) : 
        Dipole               -0.1766 Ry au,         -0.4489 Debye
        Dipole field         -0.0005 Ry au
 
        Potential amp.        0.0429 Ry
        Total length         45.4439 bohr
 

     total cpu time spent up to now is      645.5 secs

     total energy              =   -1945.14448297 Ry
     Harris-Foulkes estimate   =   -1945.16405927 Ry
     estimated scf accuracy    <       0.23526616 Ry

     iteration #  4     ecut=    36.75 Ry     beta=0.30
     Davidson diagonalization with overlap
     ethr =  4.27E-05,  avg # of iterations =  3.0

     negative rho (up, down):  7.936E-01 0.000E+00
 
     Adding external electric field

     Computed dipole along edir(3) : 
        Dipole               -0.1356 Ry au,         -0.3447 Debye
        Dipole field         -0.0004 Ry au
 
        Potential amp.        0.0329 Ry
        Total length         45.4439 bohr
 

     total cpu time spent up to now is      671.3 secs

     total energy              =   -1945.15429856 Ry
     Harris-Foulkes estimate   =   -1945.15624545 Ry
     estimated scf accuracy    <       0.01440054 Ry

     iteration #  5     ecut=    36.75 Ry     beta=0.30
     Davidson diagonalization with overlap
     ethr =  8.32E-06,  avg # of iterations =  2.7

     negative rho (up, down):  7.936E-01 0.000E+00
 
     Adding external electric field

     Computed dipole along edir(3) : 
        Dipole               -0.1212 Ry au,         -0.3080 Debye
        Dipole field         -0.0003 Ry au
 
        Potential amp.        0.0294 Ry
        Total length         45.4439 bohr
 

     total cpu time spent up to now is      696.3 secs

     total energy              =   -1945.15514727 Ry
     Harris-Foulkes estimate   =   -1945.15541914 Ry
     estimated scf accuracy    <       0.00125991 Ry

     iteration #  6     ecut=    36.75 Ry     beta=0.30
     Davidson diagonalization with overlap
     ethr =  7.28E-07,  avg # of iterations =  4.5

     negative rho (up, down):  7.936E-01 0.000E+00
 
     Adding external electric field

     Computed dipole along edir(3) : 
        Dipole               -0.1259 Ry au,         -0.3200 Debye
        Dipole field         -0.0003 Ry au
 
        Potential amp.        0.0306 Ry
        Total length         45.4439 bohr
 

     total cpu time spent up to now is      724.2 secs

     total energy              =   -1945.15531778 Ry
     Harris-Foulkes estimate   =   -1945.15535773 Ry
     estimated scf accuracy    <       0.00041976 Ry

     iteration #  7     ecut=    36.75 Ry     beta=0.30
     Davidson diagonalization with overlap
     ethr =  2.43E-07,  avg # of iterations =  3.0

     negative rho (up, down):  7.937E-01 0.000E+00
 
     Adding external electric field

     Computed dipole along edir(3) : 
        Dipole               -0.1266 Ry au,         -0.3217 Debye
        Dipole field         -0.0003 Ry au
 
        Potential amp.        0.0307 Ry
        Total length         45.4439 bohr
 

     total cpu time spent up to now is      749.8 secs

     total energy              =   -1945.15535535 Ry
     Harris-Foulkes estimate   =   -1945.15535953 Ry
     estimated scf accuracy    <       0.00006938 Ry

     iteration #  8     ecut=    36.75 Ry     beta=0.30
     Davidson diagonalization with overlap
     ethr =  4.01E-08,  avg # of iterations =  4.0

     negative rho (up, down):  7.937E-01 0.000E+00
 
     Adding external electric field

     Computed dipole along edir(3) : 
        Dipole               -0.1263 Ry au,         -0.3210 Debye
        Dipole field         -0.0003 Ry au
 
        Potential amp.        0.0307 Ry
        Total length         45.4439 bohr
 

     total cpu time spent up to now is      778.2 secs

     total energy              =   -1945.15536207 Ry
     Harris-Foulkes estimate   =   -1945.15536808 Ry
     estimated scf accuracy    <       0.00005976 Ry

     iteration #  9     ecut=    36.75 Ry     beta=0.30
     Davidson diagonalization with overlap
     ethr =  3.45E-08,  avg # of iterations =  3.0

     negative rho (up, down):  7.937E-01 0.000E+00

     negative rho (up, down):  7.937E-01 0.000E+00

     negative rho (up, down):  7.937E-01 0.000E+00

     negative rho (up, down):  7.937E-01 0.000E+00

     negative rho (up, down):  7.937E-01 0.000E+00

     negative rho (up, down):  7.937E-01 0.000E+00

     negative rho (up, down):  7.937E-01 0.000E+00

     negative rho (up, down):  7.937E-01 0.000E+00

     negative rho (up, down):  7.937E-01 0.000E+00

     negative rho (up, down):  7.937E-01 0.000E+00

     negative rho (up, down):  7.937E-01 0.000E+00

     negative rho (up, down):  7.937E-01 0.000E+00

     negative rho (up, down):  7.937E-01 0.000E+00

     negative rho (up, down):  7.937E-01 0.000E+00

     negative rho (up, down):  7.937E-01 0.000E+00

     negative rho (up, down):  7.937E-01 0.000E+00

     negative rho (up, down):  7.937E-01 0.000E+00

     negative rho (up, down):  7.937E-01 0.000E+00

     negative rho (up, down):  7.937E-01 0.000E+00

     negative rho (up, down):  7.937E-01 0.000E+00

     negative rho (up, down):  7.937E-01 0.000E+00

     negative rho (up, down):  7.937E-01 0.000E+00

     negative rho (up, down):  7.937E-01 0.000E+00

     negative rho (up, down):  7.937E-01 0.000E+00

     negative rho (up, down):  7.937E-01 0.000E+00

     negative rho (up, down):  7.937E-01 0.000E+00

     negative rho (up, down):  7.937E-01 0.000E+00

     negative rho (up, down):  7.937E-01 0.000E+00

     negative rho (up, down):  7.937E-01 0.000E+00

     negative rho (up, down):  7.937E-01 0.000E+00

     negative rho (up, down):  7.937E-01 0.000E+00

     negative rho (up, down):  7.937E-01 0.000E+00

     negative rho (up, down):  7.937E-01 0.000E+00

     negative rho (up, down):  7.937E-01 0.000E+00

     negative rho (up, down):  7.937E-01 0.000E+00
 
     Adding external electric field

     Computed dipole along edir(3) : 
        Dipole               -0.1188 Ry au,         -0.3019 Debye
        Dipole field         -0.0003 Ry au
 
        Potential amp.        0.0288 Ry
        Total length         45.4439 bohr
 

     total cpu time spent up to now is      852.4 secs

     End of self-consistent calculation

          k = 0.0000 0.0000 0.0000 ( 17753 PWs)   bands (ev):

   -72.0696 -72.0101 -72.0101 -71.9487 -71.9246 -71.8793 -71.8732 -71.8730
   -71.8654 -71.8245 -71.8234 -71.8232 -36.5909 -36.5428 -36.5427 -36.5189
   -36.4902 -36.4901 -36.4853 -36.3449 -36.3393 -36.3393 -36.1813 -36.1105
   -36.1104 -36.0416 -35.9749 -35.9710 -35.9709 -35.9006 -35.8953 -35.8952
   -35.7957 -35.7957 -35.7950 -35.7796 -35.7754 -35.7753 -35.7194 -35.6697
   -35.6697 -35.6465 -35.6429 -35.6429 -35.5926 -35.5926 -35.4663 -35.4663
   -11.5843  -5.8167  -4.0070  -3.2883  -2.8825  -2.8825  -2.7117  -2.6485
    -2.6484  -2.6061  -2.0203  -1.9981  -1.9981  -1.6907  -1.6907  -1.6692
    -0.8406  -0.8406  -0.3683   0.1014   0.1014   0.2879   0.9567   0.9567
     0.9836   1.2047   1.6722   1.6998   1.6998   1.8799   1.8799   2.0743
     2.0743   2.1521   2.1530   2.2095   2.2095   2.4209   2.5070   2.5070
     3.2000   3.2000   3.3345   3.6158   3.9091   4.0193   4.0193   4.2210

          k = 0.0000 0.0337 0.0000 ( 17716 PWs)   bands (ev):

   -72.0655 -72.0133 -72.0101 -71.9451 -71.9245 -71.8769 -71.8755 -71.8730
   -71.8665 -71.8275 -71.8240 -71.8232 -36.5560 -36.5135 -36.5007 -36.4865
   -36.4666 -36.4623 -36.4519 -36.3168 -36.3121 -36.2970 -36.1786 -36.1260
   -36.1175 -36.0641 -35.9738 -35.9717 -35.9625 -35.9219 -35.9160 -35.8839
   -35.8389 -35.8337 -35.7794 -35.7727 -35.7681 -35.7668 -35.7447 -35.7069
   -35.6842 -35.6731 -35.6715 -35.6384 -35.6328 -35.6051 -35.5196 -35.4781
   -11.5640  -5.5699  -3.7698  -3.0301  -2.9140  -2.7011  -2.6049  -2.5249
    -2.4448  -2.4033  -1.9324  -1.7927  -1.7906  -1.5631  -1.5138  -1.4791
    -0.8199  -0.7948  -0.2891   0.1047   0.1121   0.3019   0.8408   1.0264
     1.0289   1.1658   1.3576   1.4348   1.5629   1.6390   1.8756   1.9486
     1.9961   2.1152   2.1161   2.1834   2.2098   2.3000   2.4314   2.5373
     2.9101   3.0323   3.0998   3.1833   3.4541   3.5111   3.7609   3.8673

          k = 0.0000 0.0674 0.0000 ( 17708 PWs)   bands (ev):

   -72.0549 -72.0221 -72.0101 -71.9384 -71.9203 -71.8891 -71.8731 -71.8679
   -71.8648 -71.8373 -71.8241 -71.8232 -36.4767 -36.4391 -36.4314 -36.4150
   -36.3965 -36.3684 -36.3638 -36.2554 -36.2489 -36.2138 -36.1749 -36.1436
   -36.1258 -36.0953 -35.9974 -35.9874 -35.9598 -35.9560 -35.9407 -35.8985
   -35.8955 -35.8841 -35.8422 -35.8101 -35.7959 -35.7888 -35.7483 -35.7382
   -35.7262 -35.7260 -35.7156 -35.7130 -35.6399 -35.6394 -35.6005 -35.5110
   -11.5238  -4.8912  -3.2763  -3.1189  -2.4627  -2.3232  -2.2344  -2.1674
    -1.9666  -1.9059  -1.6898  -1.3669  -1.3342  -1.1897  -1.0895  -0.9279
    -0.7237  -0.5794  -0.0734   0.0566   0.1194   0.1861   0.4913   0.6783
     0.7724   0.8489   0.9670   1.0939   1.3908   1.4391   1.5180   1.6144
     1.6413   1.6905   1.8623   2.0290   2.1138   2.1776   2.2947   2.4036
     2.5193   2.5287   2.5669   2.7376   2.8286   3.2030   3.3870   3.5241

          k = 0.0000-0.1011 0.0000 ( 17668 PWs)   bands (ev):

   -72.0456 -72.0305 -72.0101 -71.9365 -71.9083 -71.9041 -71.8730 -71.8678
   -71.8519 -71.8504 -71.8241 -71.8232 -36.4201 -36.3882 -36.3862 -36.3705
   -36.3644 -36.3533 -36.2375 -36.2173 -36.2154 -36.2132 -36.1643 -36.1512
   -36.1209 -36.0685 -36.0280 -35.9916 -35.9869 -35.9749 -35.9740 -35.9347
   -35.8888 -35.8874 -35.8721 -35.8649 -35.8503 -35.8477 -35.8000 -35.7753
   -35.7322 -35.7285 -35.7064 -35.6945 -35.6937 -35.6797 -35.5567 -35.5549
   -11.5038  -4.0408  -3.9324  -2.7184  -2.4134  -1.9558  -1.8331  -1.7468
    -1.6789  -1.6171  -1.5641  -1.3943  -0.9897  -0.7904  -0.6587  -0.6407
    -0.3952  -0.3702  -0.3386  -0.0159   0.1651   0.2568   0.2592   0.3282
     0.5567   0.5657   0.8803   0.9856   1.1464   1.1664   1.1859   1.2699
     1.2737   1.3326   1.5046   1.6497   1.8166   1.8318   1.9389   2.1502
     2.3089   2.6407   2.7030   3.1416   3.2107   3.4370   3.4515   3.4738

          k = 0.0292-0.0168 0.0000 ( 17716 PWs)   bands (ev):

   -72.0655 -72.0133 -72.0101 -71.9451 -71.9245 -71.8769 -71.8755 -71.8731
   -71.8665 -71.8275 -71.8239 -71.8233 -36.5560 -36.5134 -36.5007 -36.4865
   -36.4666 -36.4623 -36.4519 -36.3168 -36.3120 -36.2970 -36.1786 -36.1260
   -36.1175 -36.0641 -35.9738 -35.9717 -35.9625 -35.9219 -35.9160 -35.8839
   -35.8389 -35.8337 -35.7794 -35.7726 -35.7681 -35.7669 -35.7447 -35.7069
   -35.6842 -35.6732 -35.6714 -35.6384 -35.6328 -35.6051 -35.5196 -35.4781
   -11.5640  -5.5699  -3.7698  -3.0301  -2.9140  -2.7011  -2.6048  -2.5249
    -2.4448  -2.4034  -1.9324  -1.7927  -1.7906  -1.5631  -1.5138  -1.4791
    -0.8199  -0.7948  -0.2891   0.1047   0.1121   0.3019   0.8408   1.0264
     1.0289   1.1658   1.3577   1.4348   1.5629   1.6389   1.8756   1.9486
     1.9961   2.1152   2.1161   2.1834   2.2098   2.3000   2.4314   2.5373
     2.9102   3.0322   3.0998   3.1833   3.4540   3.5111   3.7609   3.8674

          k = 0.0292 0.0168 0.0000 ( 17716 PWs)   bands (ev):

   -72.0655 -72.0133 -72.0100 -71.9451 -71.9245 -71.8769 -71.8755 -71.8730
   -71.8665 -71.8275 -71.8240 -71.8232 -36.5560 -36.5135 -36.5007 -36.4865
   -36.4666 -36.4623 -36.4519 -36.3168 -36.3121 -36.2970 -36.1786 -36.1260
   -36.1174 -36.0641 -35.9738 -35.9717 -35.9625 -35.9219 -35.9160 -35.8839
   -35.8389 -35.8337 -35.7794 -35.7727 -35.7681 -35.7668 -35.7447 -35.7069
   -35.6842 -35.6731 -35.6715 -35.6384 -35.6328 -35.6051 -35.5196 -35.4781
   -11.5640  -5.5699  -3.7698  -3.0301  -2.9140  -2.7011  -2.6048  -2.5249
    -2.4448  -2.4033  -1.9324  -1.7927  -1.7906  -1.5631  -1.5138  -1.4791
    -0.8199  -0.7948  -0.2891   0.1047   0.1121   0.3019   0.8408   1.0264
     1.0289   1.1658   1.3576   1.4348   1.5629   1.6389   1.8756   1.9486
     1.9961   2.1152   2.1161   2.1834   2.2098   2.3000   2.4314   2.5373
     2.9102   3.0323   3.0998   3.1833   3.4541   3.5111   3.7609   3.8674

          k = 0.0292 0.0505 0.0000 ( 17715 PWs)   bands (ev):

   -72.0581 -72.0188 -72.0106 -71.9399 -71.9224 -71.8820 -71.8784 -71.8687
   -71.8650 -71.8310 -71.8300 -71.8205 -36.5011 -36.4572 -36.4356 -36.4263
   -36.4232 -36.4009 -36.3977 -36.2786 -36.2497 -36.2396 -36.1761 -36.1375
   -36.1322 -36.0962 -36.0176 -35.9677 -35.9590 -35.9458 -35.9203 -35.8929
   -35.8898 -35.8425 -35.8113 -35.8069 -35.7902 -35.7749 -35.7476 -35.7446
   -35.7397 -35.7133 -35.6933 -35.6481 -35.6466 -35.6388 -35.5981 -35.5055
   -11.5338  -5.1038  -3.3472  -2.8787  -2.7678  -2.5397  -2.3479  -2.2634
    -2.1070  -2.0137  -1.7128  -1.5182  -1.4264  -1.3103  -1.2339  -1.0618
    -0.7704  -0.6958  -0.1408   0.0327   0.1337   0.3359   0.5769   0.8716
     0.9009   0.9550   1.0206   1.0777   1.3567   1.4716   1.6321   1.6999
     1.7795   1.8249   1.9745   2.0675   2.2491   2.2843   2.4057   2.4743
     2.5284   2.5612   2.6958   2.8809   2.9371   3.0845   3.4829   3.6302

          k = 0.0292-0.1179 0.0000 ( 17692 PWs)   bands (ev):

   -72.0467 -72.0282 -72.0115 -71.9366 -71.9122 -71.8954 -71.8822 -71.8633
   -71.8562 -71.8424 -71.8322 -71.8186 -36.4205 -36.3916 -36.3745 -36.3580
   -36.3456 -36.3379 -36.2880 -36.2271 -36.2208 -36.1935 -36.1763 -36.1680
   -36.1124 -36.0957 -36.0445 -36.0081 -36.0026 -35.9563 -35.9365 -35.9323
   -35.9140 -35.8920 -35.8735 -35.8392 -35.8286 -35.8225 -35.7728 -35.7629
   -35.7553 -35.7446 -35.7100 -35.6877 -35.6762 -35.6713 -35.6037 -35.5522
   -11.5038  -4.2892  -3.3992  -2.7422  -2.5583  -2.2538  -1.9116  -1.7848
    -1.6407  -1.5271  -1.4051  -1.2088  -1.0076  -0.8884  -0.7468  -0.6371
    -0.5437  -0.3909  -0.1363  -0.0199   0.0302   0.1611   0.2674   0.4241
     0.5300   0.6048   0.7070   0.8250   1.0060   1.0686   1.1876   1.2221
     1.2751   1.4285   1.5181   1.7126   1.8337   1.9148   2.0940   2.3035
     2.3991   2.6626   2.7269   2.8099   3.2788   3.3063   3.4443   3.4906

          k = 0.0292-0.0842 0.0000 ( 17692 PWs)   bands (ev):

   -72.0467 -72.0281 -72.0115 -71.9366 -71.9122 -71.8954 -71.8822 -71.8633
   -71.8562 -71.8424 -71.8322 -71.8186 -36.4205 -36.3916 -36.3745 -36.3580
   -36.3456 -36.3379 -36.2880 -36.2271 -36.2208 -36.1935 -36.1763 -36.1680
   -36.1124 -36.0957 -36.0446 -36.0082 -36.0026 -35.9563 -35.9365 -35.9323
   -35.9140 -35.8920 -35.8735 -35.8392 -35.8286 -35.8225 -35.7728 -35.7629
   -35.7552 -35.7446 -35.7100 -35.6877 -35.6762 -35.6713 -35.6037 -35.5522
   -11.5038  -4.2892  -3.3992  -2.7422  -2.5583  -2.2538  -1.9116  -1.7848
    -1.6407  -1.5271  -1.4051  -1.2088  -1.0076  -0.8884  -0.7468  -0.6371
    -0.5437  -0.3909  -0.1363  -0.0199   0.0302   0.1612   0.2674   0.4241
     0.5300   0.6048   0.7070   0.8250   1.0060   1.0686   1.1876   1.2221
     1.2751   1.4285   1.5181   1.7126   1.8337   1.9148   2.0940   2.3035
     2.3991   2.6626   2.7269   2.8099   3.2788   3.3062   3.4443   3.4906

          k = 0.0292-0.0505 0.0000 ( 17715 PWs)   bands (ev):

   -72.0581 -72.0188 -72.0107 -71.9399 -71.9224 -71.8819 -71.8785 -71.8686
   -71.8650 -71.8310 -71.8299 -71.8205 -36.5011 -36.4572 -36.4356 -36.4263
   -36.4232 -36.4009 -36.3977 -36.2786 -36.2497 -36.2396 -36.1761 -36.1375
   -36.1322 -36.0962 -36.0176 -35.9677 -35.9589 -35.9458 -35.9203 -35.8929
   -35.8898 -35.8425 -35.8113 -35.8069 -35.7902 -35.7749 -35.7476 -35.7446
   -35.7397 -35.7133 -35.6933 -35.6481 -35.6466 -35.6388 -35.5981 -35.5055
   -11.5338  -5.1038  -3.3472  -2.8786  -2.7678  -2.5397  -2.3479  -2.2634
    -2.1070  -2.0137  -1.7128  -1.5182  -1.4264  -1.3103  -1.2339  -1.0618
    -0.7704  -0.6958  -0.1408   0.0328   0.1337   0.3359   0.5769   0.8716
     0.9009   0.9550   1.0206   1.0777   1.3567   1.4716   1.6321   1.6999
     1.7795   1.8249   1.9745   2.0675   2.2491   2.2843   2.4057   2.4743
     2.5284   2.5611   2.6958   2.8809   2.9371   3.0845   3.4829   3.6302

          k = 0.0583-0.0337 0.0000 ( 17708 PWs)   bands (ev):

   -72.0549 -72.0221 -72.0101 -71.9384 -71.9203 -71.8891 -71.8732 -71.8678
   -71.8648 -71.8374 -71.8239 -71.8233 -36.4767 -36.4390 -36.4315 -36.4150
   -36.3965 -36.3684 -36.3638 -36.2555 -36.2488 -36.2138 -36.1748 -36.1436
   -36.1258 -36.0952 -35.9974 -35.9874 -35.9598 -35.9560 -35.9406 -35.8986
   -35.8954 -35.8840 -35.8422 -35.8101 -35.7959 -35.7888 -35.7483 -35.7382
   -35.7263 -35.7260 -35.7155 -35.7130 -35.6399 -35.6394 -35.6005 -35.5111
   -11.5238  -4.8912  -3.2764  -3.1189  -2.4627  -2.3232  -2.2344  -2.1674
    -1.9665  -1.9059  -1.6898  -1.3669  -1.3342  -1.1897  -1.0894  -0.9279
    -0.7237  -0.5794  -0.0734   0.0566   0.1194   0.1861   0.4913   0.6783
     0.7724   0.8488   0.9670   1.0938   1.3908   1.4391   1.5180   1.6144
     1.6413   1.6905   1.8623   2.0290   2.1138   2.1776   2.2947   2.4035
     2.5193   2.5287   2.5669   2.7376   2.8286   3.2030   3.3871   3.5240

          k = 0.0583-0.0000 0.0000 ( 17715 PWs)   bands (ev):

   -72.0581 -72.0188 -72.0106 -71.9399 -71.9224 -71.8819 -71.8785 -71.8686
   -71.8650 -71.8311 -71.8299 -71.8205 -36.5011 -36.4572 -36.4356 -36.4263
   -36.4232 -36.4009 -36.3977 -36.2786 -36.2497 -36.2396 -36.1761 -36.1375
   -36.1322 -36.0962 -36.0176 -35.9677 -35.9589 -35.9458 -35.9203 -35.8929
   -35.8898 -35.8425 -35.8113 -35.8069 -35.7902 -35.7749 -35.7476 -35.7446
   -35.7397 -35.7133 -35.6933 -35.6480 -35.6466 -35.6388 -35.5981 -35.5055
   -11.5338  -5.1038  -3.3472  -2.8786  -2.7678  -2.5397  -2.3479  -2.2634
    -2.1069  -2.0137  -1.7128  -1.5182  -1.4264  -1.3103  -1.2339  -1.0618
    -0.7704  -0.6958  -0.1408   0.0328   0.1337   0.3359   0.5769   0.8716
     0.9009   0.9550   1.0206   1.0777   1.3567   1.4716   1.6321   1.6999
     1.7795   1.8249   1.9745   2.0675   2.2491   2.2843   2.4057   2.4743
     2.5284   2.5612   2.6958   2.8809   2.9371   3.0845   3.4829   3.6302

          k = 0.0583 0.0337 0.0000 ( 17708 PWs)   bands (ev):

   -72.0549 -72.0222 -72.0101 -71.9384 -71.9203 -71.8891 -71.8731 -71.8679
   -71.8648 -71.8373 -71.8240 -71.8232 -36.4767 -36.4391 -36.4314 -36.4150
   -36.3965 -36.3684 -36.3638 -36.2554 -36.2489 -36.2138 -36.1749 -36.1435
   -36.1258 -36.0953 -35.9974 -35.9874 -35.9598 -35.9561 -35.9407 -35.8986
   -35.8955 -35.8841 -35.8422 -35.8101 -35.7959 -35.7888 -35.7482 -35.7382
   -35.7263 -35.7260 -35.7155 -35.7130 -35.6399 -35.6394 -35.6005 -35.5110
   -11.5238  -4.8912  -3.2764  -3.1189  -2.4627  -2.3232  -2.2344  -2.1674
    -1.9666  -1.9059  -1.6898  -1.3669  -1.3342  -1.1897  -1.0895  -0.9279
    -0.7237  -0.5794  -0.0734   0.0566   0.1194   0.1861   0.4913   0.6783
     0.7724   0.8489   0.9670   1.0939   1.3908   1.4391   1.5180   1.6144
     1.6413   1.6905   1.8623   2.0290   2.1138   2.1776   2.2947   2.4036
     2.5193   2.5287   2.5669   2.7376   2.8286   3.2030   3.3871   3.5241

          k = 0.0583-0.1347 0.0000 ( 17692 PWs)   bands (ev):

   -72.0467 -72.0282 -72.0114 -71.9366 -71.9122 -71.8954 -71.8822 -71.8633
   -71.8562 -71.8424 -71.8322 -71.8186 -36.4205 -36.3916 -36.3745 -36.3580
   -36.3456 -36.3379 -36.2880 -36.2271 -36.2208 -36.1935 -36.1763 -36.1680
   -36.1124 -36.0957 -36.0445 -36.0081 -36.0026 -35.9563 -35.9365 -35.9323
   -35.9140 -35.8920 -35.8735 -35.8392 -35.8286 -35.8225 -35.7728 -35.7629
   -35.7553 -35.7446 -35.7100 -35.6877 -35.6762 -35.6713 -35.6037 -35.5522
   -11.5038  -4.2892  -3.3992  -2.7422  -2.5583  -2.2538  -1.9116  -1.7848
    -1.6407  -1.5271  -1.4051  -1.2088  -1.0076  -0.8884  -0.7468  -0.6371
    -0.5437  -0.3909  -0.1363  -0.0199   0.0302   0.1611   0.2674   0.4241
     0.5300   0.6048   0.7070   0.8250   1.0060   1.0686   1.1876   1.2221
     1.2751   1.4285   1.5181   1.7126   1.8337   1.9148   2.0940   2.3035
     2.3991   2.6626   2.7269   2.8099   3.2788   3.3063   3.4443   3.4906

          k = 0.0583-0.1011 0.0000 ( 17592 PWs)   bands (ev):

   -72.0391 -72.0337 -72.0131 -71.9360 -71.9012 -71.8965 -71.8953 -71.8609
   -71.8455 -71.8439 -71.8432 -71.8168 -36.3524 -36.3516 -36.3357 -36.3303
   -36.3185 -36.3093 -36.2562 -36.2463 -36.2442 -36.1894 -36.1714 -36.1506
   -36.1125 -36.1106 -36.0693 -36.0083 -36.0055 -35.9934 -35.9641 -35.9381
   -35.9351 -35.9096 -35.8795 -35.8514 -35.8327 -35.8270 -35.7797 -35.7478
   -35.7475 -35.7373 -35.7239 -35.7117 -35.7098 -35.6197 -35.6168 -35.6168
   -11.4938  -3.5134  -3.4056  -3.3503  -2.3317  -2.1150  -1.9244  -1.4603
    -1.4163  -1.2464  -0.9577  -0.9424  -0.8291  -0.8026  -0.4749  -0.4645
    -0.3797  -0.3424  -0.3118  -0.2052  -0.1521  -0.0187   0.0128   0.2386
     0.3143   0.4728   0.4754   0.6709   0.7581   0.8016   0.8334   0.9394
     1.0497   1.3046   1.5283   1.5351   1.8636   2.0900   2.0917   2.1664
     2.4871   2.6492   2.6875   2.9565   3.0140   3.0760   3.5823   3.7386

          k = 0.0583-0.0674 0.0000 ( 17692 PWs)   bands (ev):

   -72.0467 -72.0281 -72.0115 -71.9366 -71.9122 -71.8954 -71.8822 -71.8633
   -71.8562 -71.8424 -71.8322 -71.8187 -36.4205 -36.3916 -36.3745 -36.3580
   -36.3456 -36.3379 -36.2880 -36.2271 -36.2208 -36.1935 -36.1763 -36.1680
   -36.1123 -36.0957 -36.0445 -36.0082 -36.0026 -35.9563 -35.9365 -35.9323
   -35.9140 -35.8920 -35.8735 -35.8392 -35.8286 -35.8225 -35.7728 -35.7629
   -35.7552 -35.7446 -35.7100 -35.6877 -35.6762 -35.6713 -35.6037 -35.5522
   -11.5038  -4.2892  -3.3992  -2.7422  -2.5583  -2.2538  -1.9116  -1.7848
    -1.6407  -1.5271  -1.4051  -1.2088  -1.0076  -0.8884  -0.7468  -0.6371
    -0.5437  -0.3909  -0.1363  -0.0199   0.0302   0.1611   0.2674   0.4241
     0.5300   0.6048   0.7070   0.8249   1.0060   1.0686   1.1876   1.2221
     1.2751   1.4285   1.5181   1.7126   1.8337   1.9148   2.0940   2.3035
     2.3991   2.6626   2.7269   2.8099   3.2788   3.3062   3.4443   3.4906

          k =-0.0875 0.0505 0.0000 ( 17668 PWs)   bands (ev):

   -72.0456 -72.0305 -72.0101 -71.9365 -71.9083 -71.9041 -71.8732 -71.8677
   -71.8518 -71.8505 -71.8239 -71.8233 -36.4201 -36.3883 -36.3861 -36.3705
   -36.3644 -36.3533 -36.2375 -36.2173 -36.2154 -36.2132 -36.1643 -36.1512
   -36.1209 -36.0685 -36.0280 -35.9916 -35.9869 -35.9750 -35.9739 -35.9347
   -35.8888 -35.8874 -35.8721 -35.8649 -35.8504 -35.8476 -35.7999 -35.7753
   -35.7323 -35.7284 -35.7064 -35.6944 -35.6938 -35.6797 -35.5566 -35.5550
   -11.5038  -4.0408  -3.9324  -2.7183  -2.4134  -1.9558  -1.8331  -1.7467
    -1.6789  -1.6171  -1.5641  -1.3943  -0.9897  -0.7904  -0.6587  -0.6407
    -0.3952  -0.3702  -0.3386  -0.0159   0.1651   0.2568   0.2592   0.3282
     0.5567   0.5656   0.8804   0.9856   1.1465   1.1663   1.1859   1.2699
     1.2738   1.3326   1.5046   1.6498   1.8165   1.8318   1.9389   2.1501
     2.3089   2.6407   2.7030   3.1416   3.2107   3.4370   3.4515   3.4738

          k =-0.0875 0.0842 0.0000 ( 17692 PWs)   bands (ev):

   -72.0467 -72.0282 -72.0115 -71.9366 -71.9122 -71.8954 -71.8822 -71.8633
   -71.8562 -71.8424 -71.8322 -71.8187 -36.4205 -36.3916 -36.3745 -36.3580
   -36.3456 -36.3379 -36.2880 -36.2271 -36.2208 -36.1935 -36.1763 -36.1680
   -36.1123 -36.0957 -36.0445 -36.0081 -36.0026 -35.9563 -35.9365 -35.9323
   -35.9140 -35.8920 -35.8735 -35.8392 -35.8286 -35.8225 -35.7728 -35.7629
   -35.7552 -35.7446 -35.7100 -35.6877 -35.6762 -35.6713 -35.6037 -35.5522
   -11.5038  -4.2892  -3.3992  -2.7422  -2.5583  -2.2538  -1.9116  -1.7848
    -1.6407  -1.5271  -1.4051  -1.2088  -1.0076  -0.8884  -0.7468  -0.6371
    -0.5437  -0.3909  -0.1363  -0.0199   0.0302   0.1611   0.2674   0.4241
     0.5300   0.6048   0.7070   0.8249   1.0060   1.0686   1.1876   1.2222
     1.2751   1.4285   1.5181   1.7126   1.8337   1.9148   2.0940   2.3035
     2.3991   2.6626   2.7269   2.8099   3.2788   3.3062   3.4443   3.4906

          k =-0.0875 0.1179 0.0000 ( 17692 PWs)   bands (ev):

   -72.0467 -72.0282 -72.0114 -71.9366 -71.9122 -71.8954 -71.8822 -71.8633
   -71.8562 -71.8424 -71.8322 -71.8186 -36.4205 -36.3916 -36.3745 -36.3580
   -36.3456 -36.3379 -36.2880 -36.2271 -36.2208 -36.1935 -36.1763 -36.1680
   -36.1124 -36.0957 -36.0446 -36.0081 -36.0026 -35.9563 -35.9365 -35.9323
   -35.9140 -35.8920 -35.8735 -35.8392 -35.8286 -35.8225 -35.7728 -35.7629
   -35.7552 -35.7446 -35.7100 -35.6877 -35.6762 -35.6713 -35.6037 -35.5522
   -11.5038  -4.2892  -3.3992  -2.7422  -2.5583  -2.2538  -1.9116  -1.7848
    -1.6407  -1.5271  -1.4051  -1.2088  -1.0076  -0.8884  -0.7468  -0.6371
    -0.5437  -0.3909  -0.1363  -0.0199   0.0302   0.1612   0.2674   0.4241
     0.5300   0.6048   0.7070   0.8250   1.0060   1.0686   1.1876   1.2221
     1.2751   1.4285   1.5181   1.7126   1.8337   1.9148   2.0940   2.3035
     2.3991   2.6626   2.7269   2.8099   3.2788   3.3062   3.4443   3.4906

          k =-0.0875-0.0505 0.0000 ( 17668 PWs)   bands (ev):

   -72.0456 -72.0306 -72.0100 -71.9365 -71.9083 -71.9041 -71.8731 -71.8678
   -71.8519 -71.8504 -71.8240 -71.8232 -36.4200 -36.3883 -36.3862 -36.3705
   -36.3644 -36.3534 -36.2375 -36.2173 -36.2154 -36.2132 -36.1643 -36.1512
   -36.1209 -36.0685 -36.0280 -35.9916 -35.9869 -35.9749 -35.9740 -35.9347
   -35.8888 -35.8874 -35.8721 -35.8649 -35.8504 -35.8477 -35.7999 -35.7753
   -35.7322 -35.7285 -35.7064 -35.6945 -35.6937 -35.6797 -35.5567 -35.5549
   -11.5038  -4.0408  -3.9324  -2.7184  -2.4134  -1.9558  -1.8331  -1.7467
    -1.6789  -1.6171  -1.5641  -1.3943  -0.9897  -0.7904  -0.6587  -0.6407
    -0.3952  -0.3702  -0.3386  -0.0159   0.1651   0.2568   0.2592   0.3282
     0.5567   0.5657   0.8803   0.9856   1.1464   1.1664   1.1859   1.2699
     1.2737   1.3326   1.5046   1.6497   1.8166   1.8318   1.9389   2.1502
     2.3090   2.6407   2.7030   3.1416   3.2107   3.4370   3.4515   3.4738

     the Fermi energy is     2.2882 ev

!    total energy              =   -1945.15536735 Ry
     Harris-Foulkes estimate   =   -1945.15537286 Ry
     estimated scf accuracy    <       0.00000576 Ry

     The total energy is the sum of the following terms:

     one-electron contribution =  -15005.39413828 Ry
     hartree contribution      =    7487.00159922 Ry
     xc contribution           =    -515.73109079 Ry
     ewald contribution        =    6089.06098373 Ry
     electric field correction =       0.00003769 Ry
     smearing contrib. (-TS)   =      -0.09275893 Ry

     convergence has been achieved in   9 iterations
 
 BEEF-vdW xc energy contributions
           1 :   -453.672966855671     
           2 :    419.653618257609     
           3 :   -359.756371451787     
           4 :    287.126603860297     
           5 :   -215.430211540725     
           6 :    154.888617729152     
           7 :   -110.109143496917     
           8 :    80.2012323668382     
           9 :   -60.7507976343301     
          10 :    46.5424431518148     
          11 :   -33.8074151553600     
          12 :    21.2015240597621     
          13 :   -9.42929885268950     
          14 :   3.843623455293255E-002
          15 :    5.84672605189581     
          16 :   -8.24754894675027     
          17 :    8.29210271488000     
          18 :   -7.59119323502432     
          19 :    7.44087170822934     
          20 :   -8.28247437774314     
          21 :    9.66684555191131     
          22 :   -10.6853997257087     
          23 :    10.5894171859580     
          24 :   -9.24881774648452     
          25 :    7.21823068203958     
          26 :   -5.40952315268851     
          27 :    4.57925912873975     
          28 :   -4.92468002242174     
          29 :    6.00529473294267     
          30 :   -7.01677887665733     
          31 :   -41.1710236030127     
          32 :   -30.8293393489722     

     Forces acting on atoms (Ry/au):


     negative rho (up, down):  7.937E-01 0.000E+00
     atom    1 type  1   force =    -0.00213438   -0.00121631   -0.00291490
     atom    2 type  1   force =     0.00213665   -0.00122892   -0.00290500
     atom    3 type  1   force =    -0.00000945    0.00245422   -0.00291665
     atom    4 type  1   force =     0.00000952   -0.00001017   -0.00475533
     atom    5 type  1   force =     0.00000479    0.00294787    0.00233080
     atom    6 type  1   force =    -0.00000400    0.00001370    0.03548123
     atom    7 type  1   force =    -0.00253999   -0.00148294    0.00231860
     atom    8 type  1   force =     0.00254303   -0.00147929    0.00231168
     atom    9 type  1   force =    -0.00001477    0.00001078   -0.05158884
     atom   10 type  1   force =     0.00001305    0.00602618    0.05851349
     atom   11 type  1   force =     0.00520649   -0.00300842    0.05850121
     atom   12 type  1   force =    -0.00521027   -0.00302582    0.05850611
     atom   13 type  2   force =    -0.00000066   -0.00000088   -0.15288241

     Total force =     0.190820     Total SCF correction =     0.006838


     entering subroutine stress ...


     negative rho (up, down):  7.937E-01 0.000E+00
          total   stress  (Ry/bohr**3)                   (kbar)     P=  -52.05
  -0.00044079  -0.00000000   0.00000000        -64.84     -0.00      0.00
  -0.00000000  -0.00044079   0.00000000         -0.00    -64.84      0.00
   0.00000000   0.00000000  -0.00018001          0.00      0.00    -26.48


     number of scf cycles    =   2
     number of bfgs steps    =   1

     energy   old            =   -1945.0983848882 Ry
     energy   new            =   -1945.1553673493 Ry

     CASE: energy  _new < energy  _old

     new trust radius        =       0.2997742873 bohr
     new conv_thr            =       0.0000001000 Ry


ATOMIC_POSITIONS (crystal)
W1       0.166666667   0.166666667   0.405441099    0   0   0
W1       0.666666667   0.166666667   0.405441099    0   0   0
W1       0.166666667   0.666666667   0.405441099    0   0   0
W1       0.666666667   0.666666667   0.405441099    0   0   0
W1       0.833333333   0.333333333   0.500000000    0   0   0
W1       0.333333333   0.333333333   0.500000000    0   0   0
W1       0.833333333   0.833333333   0.500000000    0   0   0
W1       0.333333333   0.833333333   0.500000000    0   0   0
W1      -0.000000813   0.000000354   0.591483798
W1       0.498209731   0.003581173   0.598824585
W1       0.003580406   0.498209687   0.598824728
W1       0.498209846   0.498208967   0.598824390
N1       0.333333154   0.333333263   0.645243517



     Writing output data file calc.save
     Check: negative starting charge=   -0.760790
     NEW-OLD atomic charge density approx. for the potential
     Check: negative starting charge=   -0.760386

     negative rho (up, down):  7.926E-01 0.000E+00
 
     Adding external electric field

     Computed dipole along edir(3) : 
        Dipole               -0.0941 Ry au,         -0.2391 Debye
        Dipole field         -0.0003 Ry au
 
        Potential amp.        0.0228 Ry
        Total length         45.4439 bohr
 

     total cpu time spent up to now is      965.4 secs

     per-process dynamical memory:    82.5 Mb

     Self-consistent Calculation

     iteration #  1     ecut=    36.75 Ry     beta=0.30
     Davidson diagonalization with overlap
     ethr =  1.00E-06,  avg # of iterations = 11.1

     negative rho (up, down):  7.927E-01 0.000E+00
 
     Adding external electric field

     Computed dipole along edir(3) : 
        Dipole               -0.3349 Ry au,         -0.8513 Debye
        Dipole field         -0.0009 Ry au
 
        Potential amp.        0.0813 Ry
        Total length         45.4439 bohr
 

     total cpu time spent up to now is     1010.8 secs

     total energy              =   -1945.19011866 Ry
     Harris-Foulkes estimate   =   -1945.20781104 Ry
     estimated scf accuracy    <       0.04253019 Ry

[...]
    -2.1410  -1.8873  -1.8069  -1.5218  -1.4782  -1.1698  -1.0629  -0.9512
    -0.7798  -0.6858   0.0423   0.1276   0.2903   0.3525   0.6818   0.8823
     1.0607   1.1219   1.1881   1.2719   1.4838   1.5564   1.7591   1.7865
     1.9788   2.0048   2.0634   2.2949   2.3789   2.4278   2.5127   2.6507
     2.7561   2.7825   2.8857   3.0024   3.2946   3.4741   3.6476   3.7678

          k = 0.0583-0.0337 0.0000 ( 17708 PWs)   bands (ev):

   -71.9073 -71.8756 -71.8640 -71.7884 -71.7042 -71.6797 -71.6644 -71.6505
   -71.6455 -71.6310 -71.6196 -71.6057 -36.4081 -36.3166 -36.2805 -36.2374
   -36.2333 -36.2208 -36.1968 -36.0876 -36.0579 -36.0539 -36.0113 -36.0030
   -35.9734 -35.9273 -35.8521 -35.8491 -35.8001 -35.7973 -35.7448 -35.7339
   -35.7273 -35.7032 -35.6751 -35.6291 -35.6268 -35.5875 -35.5720 -35.5548
   -35.5488 -35.5000 -35.4852 -35.4363 -35.4301 -35.3819 -35.3424 -35.3211
   -12.4027  -4.7410  -3.4255  -2.9936  -2.6842  -2.5901  -2.4118  -2.1141
    -1.8866  -1.7841  -1.7010  -1.4987  -1.3621  -1.1185  -0.9176  -0.8449
    -0.6710  -0.5253   0.0519   0.1249   0.2210   0.3635   0.5571   0.7513
     0.9119   0.9761   1.1049   1.2916   1.4313   1.5087   1.6596   1.7407
     1.7714   1.9453   1.9949   2.2218   2.2716   2.3322   2.4516   2.5297
     2.6417   2.7779   2.7909   2.9537   3.3239   3.4383   3.5742   3.6810

          k = 0.0583-0.0000 0.0000 ( 17715 PWs)   bands (ev):

   -71.9101 -71.8729 -71.8642 -71.7893 -71.7069 -71.6801 -71.6591 -71.6553
   -71.6423 -71.6296 -71.6196 -71.6063 -36.4312 -36.3384 -36.2882 -36.2684
   -36.2518 -36.2316 -36.2281 -36.1035 -36.0722 -36.0571 -36.0194 -35.9944
   -35.9917 -35.9279 -35.8553 -35.8074 -35.7997 -35.7899 -35.7493 -35.7352
   -35.7162 -35.6893 -35.6417 -35.6258 -35.6230 -35.5846 -35.5750 -35.5380
   -35.4984 -35.4777 -35.4663 -35.4543 -35.4183 -35.3825 -35.3417 -35.3166
   -12.4188  -4.9454  -3.3799  -3.0008  -2.8881  -2.5656  -2.4620  -2.2946
    -2.1410  -1.8873  -1.8069  -1.5218  -1.4782  -1.1698  -1.0629  -0.9512
    -0.7798  -0.6858   0.0423   0.1276   0.2903   0.3525   0.6818   0.8823
     1.0607   1.1219   1.1881   1.2719   1.4838   1.5564   1.7591   1.7865
     1.9788   2.0048   2.0634   2.2949   2.3789   2.4278   2.5127   2.6507
     2.7561   2.7825   2.8857   3.0024   3.2946   3.4741   3.6476   3.7678

          k = 0.0583 0.0337 0.0000 ( 17708 PWs)   bands (ev):

   -71.9073 -71.8756 -71.8640 -71.7884 -71.7042 -71.6797 -71.6644 -71.6505
   -71.6455 -71.6310 -71.6196 -71.6057 -36.4081 -36.3166 -36.2805 -36.2374
   -36.2333 -36.2208 -36.1968 -36.0876 -36.0579 -36.0539 -36.0113 -36.0030
   -35.9734 -35.9273 -35.8521 -35.8491 -35.8001 -35.7973 -35.7448 -35.7339
   -35.7273 -35.7032 -35.6751 -35.6291 -35.6268 -35.5875 -35.5720 -35.5548
   -35.5488 -35.5000 -35.4852 -35.4363 -35.4301 -35.3819 -35.3424 -35.3211
   -12.4027  -4.7410  -3.4255  -2.9936  -2.6842  -2.5901  -2.4118  -2.1141
    -1.8866  -1.7841  -1.7010  -1.4987  -1.3621  -1.1185  -0.9176  -0.8449
    -0.6710  -0.5253   0.0519   0.1249   0.2210   0.3635   0.5571   0.7513
     0.9119   0.9761   1.1049   1.2916   1.4313   1.5087   1.6596   1.7407
     1.7714   1.9453   1.9949   2.2218   2.2716   2.3322   2.4516   2.5297
     2.6417   2.7779   2.7909   2.9537   3.3239   3.4383   3.5742   3.6811

          k = 0.0583-0.1347 0.0000 ( 17692 PWs)   bands (ev):

   -71.9001 -71.8819 -71.8644 -71.7867 -71.6970 -71.6783 -71.6684 -71.6595
   -71.6410 -71.6340 -71.6196 -71.6048 -36.3427 -36.2708 -36.2259 -36.2045
   -36.1980 -36.1697 -36.1273 -36.0773 -36.0631 -36.0381 -36.0115 -35.9941
   -35.9524 -35.9375 -35.8846 -35.8535 -35.8403 -35.7893 -35.7742 -35.7610
   -35.7382 -35.7126 -35.6845 -35.6671 -35.6522 -35.6220 -35.6056 -35.5820
   -35.5553 -35.5268 -35.5026 -35.4475 -35.4271 -35.4011 -35.3669 -35.3330
   -12.3704  -4.1809  -3.4404  -2.9238  -2.6021  -2.3905  -2.1716  -1.9765
    -1.7338  -1.4849  -1.3388  -1.1693  -1.0125  -0.8614  -0.6498  -0.5774
    -0.3901  -0.3465  -0.0248   0.0212   0.2224   0.2709   0.4255   0.4644
     0.6505   0.6915   0.8175   0.9941   1.0754   1.2032   1.3421   1.3926
     1.4778   1.5625   1.7131   1.8409   2.0531   2.1380   2.2186   2.5243
     2.5767   2.9063   2.9866   3.1106   3.4188   3.5344   3.6377   3.6731

          k = 0.0583-0.1011 0.0000 ( 17592 PWs)   bands (ev):

   -71.8926 -71.8887 -71.8649 -71.7858 -71.6915 -71.6760 -71.6717 -71.6660
   -71.6390 -71.6352 -71.6197 -71.6044 -36.2702 -36.2466 -36.2232 -36.1744
   -36.1687 -36.1442 -36.0839 -36.0831 -36.0797 -36.0380 -36.0258 -36.0073
   -35.9243 -35.9232 -35.9138 -35.8354 -35.8323 -35.8261 -35.7861 -35.7760
   -35.7478 -35.7337 -35.7116 -35.7076 -35.6616 -35.6285 -35.6029 -35.5659
   -35.5612 -35.5365 -35.4617 -35.4603 -35.4481 -35.4155 -35.4120 -35.3302
   -12.3541  -3.6682  -3.2953  -3.1750  -2.6440  -2.4607  -2.0630  -1.7287
    -1.6398  -1.2427  -0.9001  -0.8390  -0.7507  -0.7022  -0.5882  -0.3468
    -0.3386  -0.1398  -0.1126  -0.0754  -0.0034   0.0775   0.1599   0.2872
     0.4328   0.5849   0.6180   0.7727   0.8703   1.0068   1.0148   1.0529
     1.4636   1.5104   1.5446   1.7074   1.7202   2.2286   2.3874   2.5344
     2.6625   2.9084   3.0058   3.0831   3.2838   3.2879   3.8511   3.9682

          k = 0.0583-0.0674 0.0000 ( 17692 PWs)   bands (ev):

   -71.9001 -71.8819 -71.8644 -71.7867 -71.6970 -71.6783 -71.6684 -71.6595
   -71.6410 -71.6340 -71.6196 -71.6048 -36.3427 -36.2708 -36.2259 -36.2045
   -36.1980 -36.1697 -36.1273 -36.0773 -36.0631 -36.0381 -36.0115 -35.9941
   -35.9524 -35.9375 -35.8846 -35.8535 -35.8403 -35.7893 -35.7742 -35.7610
   -35.7382 -35.7126 -35.6845 -35.6671 -35.6522 -35.6220 -35.6056 -35.5820
   -35.5553 -35.5268 -35.5026 -35.4475 -35.4271 -35.4011 -35.3669 -35.3330
   -12.3704  -4.1809  -3.4404  -2.9238  -2.6021  -2.3905  -2.1716  -1.9765
    -1.7338  -1.4849  -1.3388  -1.1693  -1.0125  -0.8614  -0.6498  -0.5774
    -0.3901  -0.3465  -0.0248   0.0212   0.2224   0.2709   0.4255   0.4644
     0.6505   0.6915   0.8175   0.9941   1.0754   1.2032   1.3420   1.3926
     1.4778   1.5625   1.7131   1.8409   2.0531   2.1380   2.2186   2.5243
     2.5767   2.9063   2.9866   3.1106   3.4188   3.5344   3.6377   3.6731

          k =-0.0875 0.0505 0.0000 ( 17668 PWs)   bands (ev):

   -71.8997 -71.8828 -71.8640 -71.7866 -71.6963 -71.6809 -71.6700 -71.6505
   -71.6473 -71.6336 -71.6195 -71.6046 -36.3512 -36.2659 -36.2351 -36.2089
   -36.2011 -36.1893 -36.0770 -36.0683 -36.0521 -36.0464 -35.9985 -35.9902
   -35.9784 -35.9525 -35.8870 -35.8326 -35.8244 -35.8054 -35.7833 -35.7286
   -35.7116 -35.7093 -35.6781 -35.6769 -35.6699 -35.6462 -35.6234 -35.6032
   -35.5717 -35.5344 -35.5065 -35.4450 -35.4184 -35.3770 -35.3484 -35.3419
   -12.3705  -4.0252  -3.7690  -3.0110  -2.4691  -2.3413  -2.1542  -1.8162
    -1.5729  -1.4814  -1.3903  -1.3725  -1.1100  -0.9012  -0.5535  -0.5534
    -0.3586  -0.2842  -0.1758   0.0970   0.1903   0.3862   0.4023   0.4944
     0.6765   0.7967   0.8805   1.0319   1.2225   1.2601   1.3469   1.3713
     1.4443   1.5369   1.6809   1.9075   2.0104   2.0188   2.1178   2.4293
     2.6296   2.9319   2.9706   3.1487   3.5300   3.5583   3.5740   3.8082

          k =-0.0875 0.0842 0.0000 ( 17692 PWs)   bands (ev):

   -71.9001 -71.8819 -71.8644 -71.7867 -71.6970 -71.6783 -71.6684 -71.6595
   -71.6410 -71.6340 -71.6196 -71.6048 -36.3427 -36.2708 -36.2259 -36.2045
   -36.1980 -36.1697 -36.1273 -36.0773 -36.0631 -36.0381 -36.0115 -35.9941
   -35.9524 -35.9375 -35.8846 -35.8535 -35.8403 -35.7893 -35.7742 -35.7610
   -35.7382 -35.7126 -35.6845 -35.6671 -35.6522 -35.6220 -35.6056 -35.5820
   -35.5553 -35.5268 -35.5026 -35.4475 -35.4271 -35.4011 -35.3669 -35.3330
   -12.3704  -4.1809  -3.4404  -2.9238  -2.6021  -2.3905  -2.1716  -1.9765
    -1.7338  -1.4849  -1.3388  -1.1693  -1.0125  -0.8614  -0.6498  -0.5774
    -0.3901  -0.3465  -0.0248   0.0212   0.2224   0.2709   0.4255   0.4644
     0.6505   0.6915   0.8175   0.9941   1.0754   1.2032   1.3420   1.3926
     1.4778   1.5625   1.7131   1.8409   2.0531   2.1380   2.2186   2.5243
     2.5767   2.9063   2.9866   3.1106   3.4188   3.5344   3.6377   3.6731

          k =-0.0875 0.1179 0.0000 ( 17692 PWs)   bands (ev):

   -71.9001 -71.8819 -71.8644 -71.7867 -71.6970 -71.6783 -71.6684 -71.6595
   -71.6410 -71.6340 -71.6196 -71.6048 -36.3427 -36.2708 -36.2259 -36.2045
   -36.1980 -36.1697 -36.1273 -36.0773 -36.0631 -36.0381 -36.0115 -35.9941
   -35.9524 -35.9375 -35.8846 -35.8535 -35.8403 -35.7893 -35.7742 -35.7610
   -35.7382 -35.7126 -35.6845 -35.6671 -35.6522 -35.6220 -35.6056 -35.5820
   -35.5553 -35.5268 -35.5026 -35.4475 -35.4271 -35.4011 -35.3669 -35.3330
   -12.3704  -4.1809  -3.4404  -2.9238  -2.6021  -2.3905  -2.1716  -1.9765
    -1.7338  -1.4849  -1.3388  -1.1693  -1.0125  -0.8614  -0.6498  -0.5774
    -0.3901  -0.3465  -0.0248   0.0212   0.2224   0.2709   0.4255   0.4644
     0.6505   0.6915   0.8175   0.9941   1.0754   1.2032   1.3421   1.3926
     1.4778   1.5625   1.7131   1.8409   2.0531   2.1380   2.2186   2.5243
     2.5767   2.9063   2.9866   3.1106   3.4188   3.5344   3.6377   3.6731

          k =-0.0875-0.0505 0.0000 ( 17668 PWs)   bands (ev):

   -71.8997 -71.8828 -71.8640 -71.7866 -71.6963 -71.6809 -71.6700 -71.6505
   -71.6473 -71.6336 -71.6195 -71.6046 -36.3512 -36.2659 -36.2351 -36.2089
   -36.2011 -36.1893 -36.0770 -36.0683 -36.0521 -36.0464 -35.9985 -35.9902
   -35.9784 -35.9525 -35.8870 -35.8326 -35.8244 -35.8054 -35.7833 -35.7286
   -35.7115 -35.7093 -35.6781 -35.6769 -35.6699 -35.6462 -35.6234 -35.6032
   -35.5717 -35.5344 -35.5065 -35.4450 -35.4184 -35.3770 -35.3484 -35.3419
   -12.3705  -4.0252  -3.7690  -3.0110  -2.4691  -2.3413  -2.1542  -1.8162
    -1.5729  -1.4814  -1.3903  -1.3725  -1.1100  -0.9012  -0.5535  -0.5534
    -0.3586  -0.2842  -0.1758   0.0970   0.1903   0.3862   0.4023   0.4944
     0.6765   0.7967   0.8805   1.0319   1.2225   1.2601   1.3469   1.3713
     1.4443   1.5369   1.6809   1.9075   2.0104   2.0188   2.1178   2.4293
     2.6296   2.9319   2.9706   3.1487   3.5300   3.5583   3.5740   3.8082

     the Fermi energy is     2.4761 ev

!    total energy              =   -1945.21559491 Ry
     Harris-Foulkes estimate   =   -1945.21559494 Ry
     estimated scf accuracy    <       0.00000006 Ry

     The total energy is the sum of the following terms:

     one-electron contribution =  -15126.95960582 Ry
     hartree contribution      =    7548.66974956 Ry
     xc contribution           =    -516.05686366 Ry
     ewald contribution        =    6149.21696185 Ry
     electric field correction =       0.00000000 Ry
     smearing contrib. (-TS)   =      -0.08583684 Ry

     convergence has been achieved in   7 iterations
 
 BEEF-vdW xc energy contributions
           1 :   -453.999355161423     
           2 :    420.054680823021     
           3 :   -360.241530357325     
           4 :    287.630859980328     
           5 :   -215.848832956169     
           6 :    155.123496321678     
           7 :   -110.109985739936     
           8 :    79.9878209162359     
           9 :   -60.4079972417546     
          10 :    46.1883948430129     
          11 :   -33.5456294861083     
          12 :    21.0779952529878     
          13 :   -9.41682043645091     
          14 :   5.659205706319881E-002
          15 :    5.88649199712592     
          16 :   -8.39460289949966     
          17 :    8.53059338973503     
          18 :   -7.84909886529351     
          19 :    7.62889411870299     
          20 :   -8.34136002128696     
          21 :    9.59838126528507     
          22 :   -10.5525451439765     
          23 :    10.4865136200316     
          24 :   -9.25695254760194     
          25 :    7.36743326279293     
          26 :   -5.66525289187371     
          27 :    4.85953946566269     
          28 :   -5.14011095549449     
          29 :    6.10185105899819     
          30 :   -6.99978896610128     
          31 :   -41.1899531594305     
          32 :   -30.8625608460421     

     Forces acting on atoms (Ry/au):


     negative rho (up, down):  7.930E-01 0.000E+00
     atom    1 type  1   force =    -0.00235177   -0.00135779   -0.00094975
     atom    2 type  1   force =     0.00235169   -0.00135771   -0.00094978
     atom    3 type  1   force =     0.00000004    0.00271562   -0.00094972
     atom    4 type  1   force =    -0.00000003    0.00000000    0.00204047
     atom    5 type  1   force =    -0.00000002    0.01923088   -0.01794196
     atom    6 type  1   force =     0.00000002    0.00000017    0.05792642
     atom    7 type  1   force =    -0.01665438   -0.00961550   -0.01794230
     atom    8 type  1   force =     0.01665434   -0.00961551   -0.01794277
     atom    9 type  1   force =    -0.00000042    0.00000050    0.00090422
     atom   10 type  1   force =     0.00000019   -0.00051776   -0.00089809
     atom   11 type  1   force =    -0.00044751    0.00025822   -0.00089861
     atom   12 type  1   force =     0.00044845    0.00025853   -0.00089842
     atom   13 type  2   force =    -0.00000059    0.00000035   -0.00149972

     Total force =     0.002508     Total SCF correction =     0.000527
     SCF correction compared to forces is large: reduce conv_thr to get better values


     entering subroutine stress ...


     negative rho (up, down):  7.930E-01 0.000E+00
          total   stress  (Ry/bohr**3)                   (kbar)     P=  -37.42
  -0.00033870   0.00000000   0.00000000        -49.82      0.00      0.00
   0.00000000  -0.00033870  -0.00000000          0.00    -49.82     -0.00
   0.00000000  -0.00000000  -0.00008578          0.00     -0.00    -12.62


     bfgs converged in  10 scf cycles and   9 bfgs steps
     (criteria: energy <  1.0E+00, force <  1.9E-03)

     End of BFGS Geometry Optimization

     Final energy   =   -1945.2155949104 Ry
Begin final coordinates

ATOMIC_POSITIONS (crystal)
W1       0.166666667   0.166666667   0.405441099    0   0   0
W1       0.666666667   0.166666667   0.405441099    0   0   0
W1       0.166666667   0.666666667   0.405441099    0   0   0
W1       0.666666667   0.666666667   0.405441099    0   0   0
W1       0.833333333   0.333333333   0.500000000    0   0   0
W1       0.333333333   0.333333333   0.500000000    0   0   0
W1       0.833333333   0.833333333   0.500000000    0   0   0
W1       0.333333333   0.833333333   0.500000000    0   0   0
W1       0.000000857  -0.000000725   0.583717001
W1       0.501757925  -0.003515824   0.598034669
W1      -0.003516018   0.501757881   0.598034793
W1       0.501757974   0.501757705   0.598034722
N1       0.333333836   0.333332921   0.641514271
End final coordinates



     Writing output data file calc.save
 
     init_run     :     15.27s CPU     15.65s WALL (       1 calls)
     electrons    :   3659.54s CPU   3885.84s WALL (      10 calls)
     update_pot   :     25.23s CPU     27.17s WALL (       9 calls)
     forces       :    254.82s CPU    274.37s WALL (      10 calls)
     stress       :    771.87s CPU    825.06s WALL (      10 calls)

     Called by init_run:
     wfcinit      :      5.31s CPU      5.39s WALL (       1 calls)
     potinit      :      1.71s CPU      1.85s WALL (       1 calls)

     Called by electrons:
     c_bands      :   1270.68s CPU   1328.60s WALL (     112 calls)
     sum_band     :    841.55s CPU    897.74s WALL (     112 calls)
     v_of_rho     :    186.58s CPU    212.06s WALL (     120 calls)
     newd         :    910.60s CPU    923.92s WALL (     120 calls)
     mix_rho      :      6.19s CPU      6.37s WALL (     112 calls)
     vdW_energy   :     98.09s CPU    109.44s WALL (     480 calls)
     vdW_ffts     :    244.86s CPU    255.37s WALL (     980 calls)
     vdW_v        :     93.59s CPU     97.92s WALL (     480 calls)

     Called by c_bands:
     init_us_2    :      8.77s CPU      8.81s WALL (    1225 calls)
     cegterg      :   1136.91s CPU   1159.71s WALL (     560 calls)

     Called by *egterg:
     h_psi        :    743.85s CPU    760.56s WALL (    2777 calls)
     s_psi        :     84.53s CPU     84.66s WALL (    2777 calls)
     g_psi        :      4.07s CPU      4.08s WALL (    2212 calls)
     cdiaghg      :    104.94s CPU    105.58s WALL (    2717 calls)

     Called by h_psi:
     add_vuspsi   :     85.83s CPU     86.02s WALL (    2777 calls)

     General routines
     calbec       :    133.73s CPU    136.91s WALL (    3437 calls)
     fft          :    405.00s CPU    446.87s WALL (   28967 calls)
     ffts         :      0.40s CPU      0.43s WALL (     232 calls)
     fftw         :    436.27s CPU    452.23s WALL (  337880 calls)
     interpolate  :      4.00s CPU      4.07s WALL (     232 calls)
     davcio       :      0.00s CPU      0.03s WALL (       5 calls)
 
     Parallel routines
     fft_scatter  :    490.31s CPU    548.32s WALL (  367079 calls)
 
     PWSCF        :     1h19m CPU        1h25m WALL

 
   This run was terminated on:   6:18:29   3May2018            

=------------------------------------------------------------------------------=
   JOB DONE.
=------------------------------------------------------------------------------=
Job  /afs/slac/g/suncat/bin/suncat-tsmpirun -x LD_LIBRARY_PATH -wdir /scratch/qe619576_lbZyI pw.x -npool 4 -in pw.inp

TID   HOST_NAME   COMMAND_LINE            STATUS            TERMINATION_TIME
===== ========== ================  =======================  ===================
00000 suncat0008 pw.x -npool 4 -i  Done                     05/03/2018 06:18:29
00001 suncat0008 pw.x -npool 4 -i  Done                     05/03/2018 06:18:29
00002 suncat0008 pw.x -npool 4 -i  Done                     05/03/2018 06:18:29
00003 suncat0008 pw.x -npool 4 -i  Done                     05/03/2018 06:18:29
00004 suncat0008 pw.x -npool 4 -i  Done                     05/03/2018 06:18:29
00005 suncat0008 pw.x -npool 4 -i  Done                     05/03/2018 06:18:29
00006 suncat0008 pw.x -npool 4 -i  Done                     05/03/2018 06:18:29
00007 suncat0008 pw.x -npool 4 -i  Done                     05/03/2018 06:18:29
00008 suncat0001 pw.x -npool 4 -i  Done                     05/03/2018 06:18:29
00009 suncat0001 pw.x -npool 4 -i  Done                     05/03/2018 06:18:29
00010 suncat0001 pw.x -npool 4 -i  Done                     05/03/2018 06:18:29
00011 suncat0001 pw.x -npool 4 -i  Done                     05/03/2018 06:18:29
00012 suncat0001 pw.x -npool 4 -i  Done                     05/03/2018 06:18:29
00013 suncat0001 pw.x -npool 4 -i  Done                     05/03/2018 06:18:29
00014 suncat0001 pw.x -npool 4 -i  Done                     05/03/2018 06:18:29
00015 suncat0001 pw.x -npool 4 -i  Done                     05/03/2018 06:18:29
00016 suncat0184 pw.x -npool 4 -i  Done                     05/03/2018 06:18:29
00017 suncat0184 pw.x -npool 4 -i  Done                     05/03/2018 06:18:29
00018 suncat0184 pw.x -npool 4 -i  Done                     05/03/2018 06:18:29
00019 suncat0184 pw.x -npool 4 -i  Done                     05/03/2018 06:18:29
00020 suncat0184 pw.x -npool 4 -i  Done                     05/03/2018 06:18:29
00021 suncat0184 pw.x -npool 4 -i  Done                     05/03/2018 06:18:29
00022 suncat0184 pw.x -npool 4 -i  Done                     05/03/2018 06:18:29
00023 suncat0184 pw.x -npool 4 -i  Done                     05/03/2018 06:18:29
00024 suncat0171 pw.x -npool 4 -i  Done                     05/03/2018 06:18:29
00025 suncat0171 pw.x -npool 4 -i  Done                     05/03/2018 06:18:29
00026 suncat0171 pw.x -npool 4 -i  Done                     05/03/2018 06:18:29
00027 suncat0171 pw.x -npool 4 -i  Done                     05/03/2018 06:18:29
00028 suncat0171 pw.x -npool 4 -i  Done                     05/03/2018 06:18:29
00029 suncat0171 pw.x -npool 4 -i  Done                     05/03/2018 06:18:29
00030 suncat0171 pw.x -npool 4 -i  Done                     05/03/2018 06:18:29
00031 suncat0171 pw.x -npool 4 -i  Done                     05/03/2018 06:18:29
