  python dir          : /home/mamunm/src/espresso
  espresso dir        : /home/vossj/suncat/esdld/espresso-dynpy-beef/bin
  pseudo dir          : /home/mamunm/src/pseudo/gbrv1.5pbe
  ase-espresso py git : GITVERSION



     Program PWSCF v.5.1rc2 (svn rev. ) starts on 22Apr2018 at 22:33:20 

     This program is part of the open-source Quantum ESPRESSO suite
     for quantum simulation of materials; please cite
         "P. Giannozzi et al., J. Phys.:Condens. Matter 21 395502 (2009);
          URL http://www.quantum-espresso.org", 
     in publications or presentations arising from this work. More details at
     http://www.quantum-espresso.org/quote

     Parallel version (MPI), running on    16 processors
     R & G space division:  proc/nbgrp/npool/nimage =      16
     Reading input from pw.inp
     Message from routine read_cards :
     DEPRECATED: no units specified in CELL_PARAMETERS card

     Current dimensions of program PWSCF are:
     Max number of different atomic species (ntypx) = 10
     Max number of k-points (npk) =  40000
     Max angular momentum in pseudopotentials (lmaxx) =  3
     Presently stress not available with electric field


     **************************************************************************
     Initializing libbeef V0.1.1 with the BEEF-vdW functional.
     Citation: Wellendorff et al., PRB 85, 235149 (2012).
     **************************************************************************


     IMPORTANT: XC functional enforced from input :
     Exchange-correlation      = BEEF-VDW ( 1  4 27 13 2)
     Any further DFT definition will be discarded
     Please, verify this is what you really want


     Subspace diagonalization in iterative solution of the eigenvalue problem:
     a serial algorithm will be used

 
     Parallelization info
     --------------------
     sticks:   dense  smooth     PW     G-vecs:    dense   smooth      PW
     Min         234      94     27                45472    11490    1765
     Max         235      95     28                45489    11530    1777
     Sum        3757    1507    433               727599   184247   28311
 


     bravais-lattice index     =            0
     lattice parameter (alat)  =       1.8897  a.u.
     unit-cell volume          =    6116.8020 (a.u.)^3
     number of atoms/cell      =           14
     number of atomic types    =            3
     number of electrons       =       139.00
     number of Kohn-Sham states=           79
     kinetic-energy cutoff     =      36.7493  Ry
     charge density cutoff     =     367.4932  Ry
     convergence threshold     =      1.0E-05
     mixing beta               =       0.3000
     number of iterations used =           10  plain     mixing
     Exchange-correlation      = BEEF-VDW ( 1  4 27 13 2)
     nstep                     =           50


     celldm(1)=   1.889726  celldm(2)=   0.000000  celldm(3)=   0.000000
     celldm(4)=   0.000000  celldm(5)=   0.000000  celldm(6)=   0.000000

     crystal axes: (cart. coord. in units of alat)
               a(1) = (   6.437465   0.000000   0.000000 )  
               a(2) = (   3.218732   5.575008   0.000000 )  
               a(3) = (   0.000000   0.000000  25.256168 )  

     reciprocal axes: (cart. coord. in units 2 pi/alat)
               b(1) = (  0.155341 -0.089686  0.000000 )  
               b(2) = (  0.000000  0.179372  0.000000 )  
               b(3) = (  0.000000  0.000000  0.039594 )  


     PseudoPot. # 1 for Sc read from file:
     /home/mamunm/src/pseudo/gbrv1.5pbe/Sc.UPF
     MD5 check sum: db30a2753ba66ef00f23801d899b7e7f
     Pseudo is Ultrasoft + core correction, Zval = 11.0
     Generated by new atomic code, or converted to UPF format
     Using radial grid of  849 points,  6 beta functions with: 
                l(1) =   0
                l(2) =   0
                l(3) =   1
                l(4) =   1
                l(5) =   2
                l(6) =   2
     Q(r) pseudized with  6 coefficients,  rinner =    1.200   1.200   1.200
                                                       1.200   1.200

     PseudoPot. # 2 for S  read from file:
     /home/mamunm/src/pseudo/gbrv1.5pbe/S.UPF
     MD5 check sum: 88d86576ff6df21479756cfb9bdac1df
     Pseudo is Ultrasoft + core correction, Zval =  6.0
     Generated by new atomic code, or converted to UPF format
     Using radial grid of  907 points,  6 beta functions with: 
                l(1) =   0
                l(2) =   0
                l(3) =   1
                l(4) =   1
                l(5) =   2
                l(6) =   2
     Q(r) pseudized with  8 coefficients,  rinner =    1.300   1.300   1.300
                                                       1.300   1.300

     PseudoPot. # 3 for H  read from file:
     /home/mamunm/src/pseudo/gbrv1.5pbe/H.UPF
     MD5 check sum: 761ae9a214b05c3daf00ab9f6b793d6f
     Pseudo is Ultrasoft, Zval =  1.0
     Generated by new atomic code, or converted to UPF format
     Using radial grid of  615 points,  2 beta functions with: 
                l(1) =   0
                l(2) =   0
     Q(r) pseudized with  8 coefficients,  rinner =    0.700

     vdW kernel table read from file vdW_kernel_table
     MD5 check sum: 095c7af220d748ca6e76c0b4c6cfb241

     atomic species   valence    mass     pseudopotential
        Sc1           11.00    44.95591     Sc( 1.00)
        S1             6.00    32.06000     S ( 1.00)
        H1             1.00     1.00800     H ( 1.00)

     No symmetry found



   Cartesian axes

     site n.     atom                  positions (alat units)
         1           Sc1 tau(   1) = (   1.6093662   0.9291680  10.0000000  )
         2           Sc1 tau(   2) = (   4.8280986   0.9291680  10.0000000  )
         3           Sc1 tau(   3) = (   3.2187324   3.7166720  10.0000000  )
         4           Sc1 tau(   4) = (   6.4374648   3.7166720  10.0000000  )
         5           Sc1 tau(   5) = (   6.4374648   1.8583360  12.6280840  )
         6           Sc1 tau(   6) = (   3.2187324   1.8583360  12.6280840  )
         7           Sc1 tau(   7) = (   8.0468310   4.6458400  12.6280840  )
         8           Sc1 tau(   8) = (   4.8280986   4.6458400  12.6280840  )
         9           Sc1 tau(   9) = (   0.0000000   0.0000000  15.2561680  )
        10           Sc1 tau(  10) = (   3.2187324   0.0000000  15.2561680  )
        11           Sc1 tau(  11) = (   1.6093662   2.7875040  15.2561680  )
        12           Sc1 tau(  12) = (   4.8280986   2.7875040  15.2561680  )
        13           S1  tau(  13) = (   3.2187324   1.8583360  17.0436680  )
        14           H1  tau(  14) = (   3.2187324   1.8583360  18.2936680  )

     number of k points=    20  Fermi-Dirac smearing, width (Ry)=  0.0110
                       cart. coord. in units 2pi/alat
        k(    1) = (   0.0000000   0.0000000   0.0000000), wk =   0.0555556
        k(    2) = (   0.0000000   0.0298953   0.0000000), wk =   0.1111111
        k(    3) = (   0.0000000   0.0597906   0.0000000), wk =   0.1111111
        k(    4) = (   0.0000000  -0.0896860   0.0000000), wk =   0.0555556
        k(    5) = (   0.0258901  -0.0149477   0.0000000), wk =   0.1111111
        k(    6) = (   0.0258901   0.0149477   0.0000000), wk =   0.1111111
        k(    7) = (   0.0258901   0.0448430   0.0000000), wk =   0.1111111
        k(    8) = (   0.0258901  -0.1046336   0.0000000), wk =   0.1111111
        k(    9) = (   0.0258901  -0.0747383   0.0000000), wk =   0.1111111
        k(   10) = (   0.0258901  -0.0448430   0.0000000), wk =   0.1111111
        k(   11) = (   0.0517802  -0.0298953   0.0000000), wk =   0.1111111
        k(   12) = (   0.0517802   0.0000000   0.0000000), wk =   0.1111111
        k(   13) = (   0.0517802   0.0298953   0.0000000), wk =   0.1111111
        k(   14) = (   0.0517802  -0.1195813   0.0000000), wk =   0.1111111
        k(   15) = (   0.0517802  -0.0896860   0.0000000), wk =   0.1111111
        k(   16) = (   0.0517802  -0.0597906   0.0000000), wk =   0.1111111
        k(   17) = (  -0.0776703   0.0448430   0.0000000), wk =   0.0555556
        k(   18) = (  -0.0776703   0.0747383   0.0000000), wk =   0.1111111
        k(   19) = (  -0.0776703   0.1046336   0.0000000), wk =   0.1111111
        k(   20) = (  -0.0776703  -0.0448430   0.0000000), wk =   0.0555556

     Dense  grid:   727599 G-vectors     FFT dimensions: (  75,  75, 300)

     Smooth grid:   184247 G-vectors     FFT dimensions: (  48,  48, 192)

     Largest allocated arrays     est. size (Mb)     dimensions
        Kohn-Sham Wavefunctions         1.76 Mb     (    1458,   79)
        NL pseudopotentials             5.25 Mb     (    1458,  236)
        Each V/rho on FFT grid          1.63 Mb     (  106875)
        Each G-vector array             0.35 Mb     (   45474)
        G-vector shells                 0.13 Mb     (   17076)
     Largest temporary arrays     est. size (Mb)     dimensions
        Auxiliary wavefunctions         7.03 Mb     (    1458,  316)
        Each subspace H/S matrix        1.52 Mb     (     316,  316)
        Each <psi_i|beta_j> matrix      0.28 Mb     (     236,   79)
        Arrays for rho mixing          16.31 Mb     (  106875,   10)

     Initial potential from superposition of free atoms
     Check: negative starting charge=   -0.000234

     starting charge  138.97113, renormalised to  139.00000

     negative rho (up, down):  2.338E-04 0.000E+00


     ************************************************************************
     *
     * You are using vdW-DF for exchange-correlation in this calculation.
     * Please cite the following three references that made this development
     * possible:
     *
     *   M. Dion, H. Rydberg, E. Schroder, D. C. Langreth, and
     *   B. I. Lundqvist, Phys. Rev. Lett. 92, 246401 (2004).
     *
     *   T. Thonhauser, V. R. Cooper, S. Li, A. Puzder, P. Hyldgaard, and
     *   D. C. Langreth, Phys. Rev. B 76, 125112 (2007).
     *
     *   G. Roman-Perez and J. M. Soler, Phys. Rev. Lett. 103, 096102 (2009).
     *
     *
     * If you are using vdW-DF2, please also cite:
     *
     *   K. Lee, E. D. Murray, L. Kong, B. I. Lundqvist, and
     *   D. C. Langreth, Phys. Rev. B 82, 081101(R) (2010).
     *
     *
     * If you are calculating the stress with vdW-DF, please also cite:
     *
     *   R. Sabatini, E. Kucukbenli, B. Kolb, T. Thonhauser, and
     *   S. de Gironcoli, J. Phys.: Condens. Matter 24, 424209 (2012).
     *
     ************************************************************************

     Carrying out vdW-DF run using the following parameters:

     Nqs =      20    Nr_points =    1024   r_max =   100.000
     q_mesh =
               0.00001000     0.04494208     0.09755937     0.15916263
               0.23128650     0.31572767     0.41458969     0.53033537
               0.66584808     0.82450364     1.01025438     1.22772762
               1.48234092     1.78043706     2.12944203     2.53805004
               3.01644009     3.57652955     4.23227104     5.00000000

     Gradients computed in reciprocal space

     ************************************************************************


 
     Adding external electric field

     Computed dipole along edir(3) : 
        Dipole               -0.0122 Ry au,         -0.0311 Debye
        Dipole field         -0.0000 Ry au
 
        Potential amp.        0.0023 Ry
        Total length         46.5341 bohr
 
     Starting wfc are  161 randomized atomic wfcs

     total cpu time spent up to now is       11.9 secs

     Self-consistent Calculation

     iteration #  1     ecut=    36.75 Ry     beta=0.30
     Davidson diagonalization with overlap
     ethr =  1.00E-02,  avg # of iterations =  2.0

     negative rho (up, down):  1.243E-04 0.000E+00
 
     Adding external electric field

     Computed dipole along edir(3) : 
        Dipole               -1.4831 Ry au,         -3.7697 Debye
        Dipole field         -0.0030 Ry au
 
        Potential amp.        0.2836 Ry
        Total length         46.5341 bohr
 

     total cpu time spent up to now is       26.9 secs

     total energy              =   -1160.86069037 Ry
     Harris-Foulkes estimate   =   -1163.92496789 Ry
     estimated scf accuracy    <       6.44750506 Ry

     iteration #  2     ecut=    36.75 Ry     beta=0.30
     Davidson diagonalization with overlap
     ethr =  4.64E-03,  avg # of iterations =  8.8

     negative rho (up, down):  4.022E-04 0.000E+00
 
     Adding external electric field

     Computed dipole along edir(3) : 
        Dipole                3.4811 Ry au,          8.8482 Debye
        Dipole field          0.0072 Ry au
 
        Potential amp.       -0.6656 Ry
        Total length         46.5341 bohr
 

     total cpu time spent up to now is       53.4 secs

     total energy              =   -1156.30843239 Ry
     Harris-Foulkes estimate   =   -1169.86558869 Ry
     estimated scf accuracy    <     234.73718461 Ry

     iteration #  3     ecut=    36.75 Ry     beta=0.30
     Davidson diagonalization with overlap
     ethr =  4.64E-03,  avg # of iterations = 10.2

     negative rho (up, down):  1.154E-05 0.000E+00
 
     Adding external electric field

     Computed dipole along edir(3) : 
        Dipole               -0.0245 Ry au,         -0.0623 Debye
        Dipole field         -0.0001 Ry au
 
        Potential amp.        0.0047 Ry
        Total length         46.5341 bohr
 

     total cpu time spent up to now is       84.6 secs

     total energy              =   -1159.12261430 Ry
     Harris-Foulkes estimate   =   -1172.42489092 Ry
     estimated scf accuracy    <     342.39570482 Ry

     iteration #  4     ecut=    36.75 Ry     beta=0.30
     Davidson diagonalization with overlap
     ethr =  4.64E-03,  avg # of iterations =  9.5

     negative rho (up, down):  4.082E-06 0.000E+00
 
     Adding external electric field

     Computed dipole along edir(3) : 
        Dipole                0.0439 Ry au,          0.1116 Debye
        Dipole field          0.0001 Ry au
 
        Potential amp.       -0.0084 Ry
        Total length         46.5341 bohr
 

     total cpu time spent up to now is      113.9 secs

     total energy              =   -1163.41834240 Ry
     Harris-Foulkes estimate   =   -1163.50512961 Ry
     estimated scf accuracy    <       6.03261281 Ry

     iteration #  5     ecut=    36.75 Ry     beta=0.30
     Davidson diagonalization with overlap
     ethr =  4.34E-03,  avg # of iterations =  1.5

     negative rho (up, down):  5.026E-06 0.000E+00
 
     Adding external electric field

     Computed dipole along edir(3) : 
        Dipole                0.0595 Ry au,          0.1513 Debye
        Dipole field          0.0001 Ry au
 
        Potential amp.       -0.0114 Ry
        Total length         46.5341 bohr
 

     total cpu time spent up to now is      128.3 secs

     total energy              =   -1163.37461933 Ry
     Harris-Foulkes estimate   =   -1163.44569442 Ry
     estimated scf accuracy    <       2.79110716 Ry

     iteration #  6     ecut=    36.75 Ry     beta=0.30
     Davidson diagonalization with overlap
     ethr =  2.01E-03,  avg # of iterations =  1.2

     negative rho (up, down):  1.560E-05 0.000E+00
 
     Adding external electric field

     Computed dipole along edir(3) : 
        Dipole                0.0367 Ry au,          0.0932 Debye
        Dipole field          0.0001 Ry au
 
        Potential amp.       -0.0070 Ry
        Total length         46.5341 bohr
 

     total cpu time spent up to now is      142.4 secs

     total energy              =   -1163.32679355 Ry
     Harris-Foulkes estimate   =   -1163.39664131 Ry
     estimated scf accuracy    <       1.71703997 Ry

     iteration #  7     ecut=    36.75 Ry     beta=0.30
     Davidson diagonalization with overlap
     ethr =  1.24E-03,  avg # of iterations =  3.4

     negative rho (up, down):  1.350E-05 0.000E+00
 
     Adding external electric field

     Computed dipole along edir(3) : 
        Dipole                0.1662 Ry au,          0.4223 Debye
        Dipole field          0.0003 Ry au
 
        Potential amp.       -0.0318 Ry
        Total length         46.5341 bohr
 

     total cpu time spent up to now is      158.4 secs

     total energy              =   -1163.35919667 Ry
     Harris-Foulkes estimate   =   -1163.36432238 Ry
     estimated scf accuracy    <       0.25374452 Ry

     iteration #  8     ecut=    36.75 Ry     beta=0.30
     Davidson diagonalization with overlap
     ethr =  1.83E-04,  avg # of iterations =  9.8

     negative rho (up, down):  5.750E-06 0.000E+00
 
     Adding external electric field

     Computed dipole along edir(3) : 
        Dipole                0.1806 Ry au,          0.4590 Debye
        Dipole field          0.0004 Ry au
 
        Potential amp.       -0.0345 Ry
        Total length         46.5341 bohr
 

     total cpu time spent up to now is      183.8 secs

     total energy              =   -1163.39522160 Ry
     Harris-Foulkes estimate   =   -1163.39886920 Ry
     estimated scf accuracy    <       0.04623108 Ry

     iteration #  9     ecut=    36.75 Ry     beta=0.30
     Davidson diagonalization with overlap
     ethr =  3.33E-05,  avg # of iterations =  5.2

     negative rho (up, down):  1.115E-05 0.000E+00
 
     Adding external electric field

     Computed dipole along edir(3) : 
        Dipole                0.1446 Ry au,          0.3674 Debye
        Dipole field          0.0003 Ry au
 
        Potential amp.       -0.0276 Ry
        Total length         46.5341 bohr
 

     total cpu time spent up to now is      201.4 secs

     total energy              =   -1163.39612566 Ry
     Harris-Foulkes estimate   =   -1163.39770548 Ry
     estimated scf accuracy    <       0.01091527 Ry

     iteration # 10     ecut=    36.75 Ry     beta=0.30
     Davidson diagonalization with overlap
     c_bands:  1 eigenvalues not converged
     ethr =  7.85E-06,  avg # of iterations =  8.2

     negative rho (up, down):  1.758E-05 0.000E+00
 
     Adding external electric field

     Computed dipole along edir(3) : 
        Dipole                0.1842 Ry au,          0.4682 Debye
        Dipole field          0.0004 Ry au
 
        Potential amp.       -0.0352 Ry
        Total length         46.5341 bohr
 

     total cpu time spent up to now is      224.1 secs

     total energy              =   -1163.39754528 Ry
     Harris-Foulkes estimate   =   -1163.39838631 Ry
     estimated scf accuracy    <       0.00965861 Ry

     iteration # 11     ecut=    36.75 Ry     beta=0.30
     Davidson diagonalization with overlap
     ethr =  6.95E-06,  avg # of iterations =  4.7

     negative rho (up, down):  2.311E-05 0.000E+00
 
     Adding external electric field

     Computed dipole along edir(3) : 
        Dipole                0.2225 Ry au,          0.5657 Debye
        Dipole field          0.0005 Ry au
 
        Potential amp.       -0.0426 Ry
        Total length         46.5341 bohr
 

     total cpu time spent up to now is      241.1 secs

     total energy              =   -1163.39743142 Ry
     Harris-Foulkes estimate   =   -1163.39803904 Ry
     estimated scf accuracy    <       0.00325447 Ry

     iteration # 12     ecut=    36.75 Ry     beta=0.30
     Davidson diagonalization with overlap
     c_bands:  1 eigenvalues not converged
     ethr =  2.34E-06,  avg # of iterations =  8.2

     negative rho (up, down):  2.890E-05 0.000E+00
 
     Adding external electric field

     Computed dipole along edir(3) : 
        Dipole                0.2268 Ry au,          0.5765 Debye
        Dipole field          0.0005 Ry au
 
        Potential amp.       -0.0434 Ry
        Total length         46.5341 bohr
 

     total cpu time spent up to now is      264.4 secs

     total energy              =   -1163.39793057 Ry
     Harris-Foulkes estimate   =   -1163.39825643 Ry
     estimated scf accuracy    <       0.00805172 Ry

     iteration # 13     ecut=    36.75 Ry     beta=0.30
     Davidson diagonalization with overlap
     ethr =  2.34E-06,  avg # of iterations =  2.0

     negative rho (up, down):  4.276E-05 0.000E+00
 
     Adding external electric field

     Computed dipole along edir(3) : 
        Dipole                0.2291 Ry au,          0.5823 Debye
        Dipole field          0.0005 Ry au
 
        Potential amp.       -0.0438 Ry
        Total length         46.5341 bohr
 

     total cpu time spent up to now is      278.9 secs

     total energy              =   -1163.39778209 Ry
     Harris-Foulkes estimate   =   -1163.39800920 Ry
     estimated scf accuracy    <       0.00312151 Ry

     iteration # 14     ecut=    36.75 Ry     beta=0.30
     Davidson diagonalization with overlap
     ethr =  2.25E-06,  avg # of iterations =  5.5

     negative rho (up, down):  3.991E-05 0.000E+00
 
     Adding external electric field

     Computed dipole along edir(3) : 
        Dipole                0.2245 Ry au,          0.5707 Debye
        Dipole field          0.0005 Ry au
 
        Potential amp.       -0.0429 Ry
        Total length         46.5341 bohr
 

     total cpu time spent up to now is      298.0 secs

     total energy              =   -1163.39802126 Ry
     Harris-Foulkes estimate   =   -1163.39808569 Ry
     estimated scf accuracy    <       0.00060843 Ry

     iteration # 15     ecut=    36.75 Ry     beta=0.30
     Davidson diagonalization with overlap
     c_bands:  1 eigenvalues not converged
     ethr =  4.38E-07,  avg # of iterations =  7.2

     negative rho (up, down):  4.788E-05 0.000E+00
 
     Adding external electric field

     Computed dipole along edir(3) : 
        Dipole                0.2240 Ry au,          0.5693 Debye
        Dipole field          0.0005 Ry au
 
        Potential amp.       -0.0428 Ry
        Total length         46.5341 bohr
 

     total cpu time spent up to now is      316.6 secs

     total energy              =   -1163.39799779 Ry
     Harris-Foulkes estimate   =   -1163.39804714 Ry
     estimated scf accuracy    <       0.00046826 Ry

     iteration # 16     ecut=    36.75 Ry     beta=0.30
     Davidson diagonalization with overlap
     c_bands:  1 eigenvalues not converged
     ethr =  3.37E-07,  avg # of iterations =  6.5

     negative rho (up, down):  6.159E-05 0.000E+00
 
     Adding external electric field

     Computed dipole along edir(3) : 
        Dipole                0.2263 Ry au,          0.5753 Debye
        Dipole field          0.0005 Ry au
 
        Potential amp.       -0.0433 Ry
        Total length         46.5341 bohr
 

     total cpu time spent up to now is      337.3 secs

     total energy              =   -1163.39804592 Ry
     Harris-Foulkes estimate   =   -1163.39806343 Ry
     estimated scf accuracy    <       0.00020470 Ry

     iteration # 17     ecut=    36.75 Ry     beta=0.30
     Davidson diagonalization with overlap
     c_bands:  1 eigenvalues not converged
     ethr =  1.47E-07,  avg # of iterations =  7.2

     negative rho (up, down):  7.787E-05 0.000E+00
 
     Adding external electric field

     Computed dipole along edir(3) : 
        Dipole                0.2290 Ry au,          0.5821 Debye
        Dipole field          0.0005 Ry au
 
        Potential amp.       -0.0438 Ry
        Total length         46.5341 bohr
 

     total cpu time spent up to now is      358.7 secs

     total energy              =   -1163.39802330 Ry
     Harris-Foulkes estimate   =   -1163.39807579 Ry
     estimated scf accuracy    <       0.00036320 Ry

     iteration # 18     ecut=    36.75 Ry     beta=0.30
     Davidson diagonalization with overlap
     ethr =  1.47E-07,  avg # of iterations =  5.9

     negative rho (up, down):  8.774E-05 0.000E+00
 
     Adding external electric field

     Computed dipole along edir(3) : 
        Dipole                0.2294 Ry au,          0.5830 Debye
        Dipole field          0.0005 Ry au
 
        Potential amp.       -0.0439 Ry
        Total length         46.5341 bohr
 

     total cpu time spent up to now is      379.2 secs

     total energy              =   -1163.39806054 Ry
     Harris-Foulkes estimate   =   -1163.39806260 Ry
     estimated scf accuracy    <       0.00004160 Ry

     iteration # 19     ecut=    36.75 Ry     beta=0.30
     Davidson diagonalization with overlap
     c_bands:  1 eigenvalues not converged
     c_bands:  1 eigenvalues not converged
     ethr =  2.99E-08,  avg # of iterations =  6.1

     negative rho (up, down):  9.360E-05 0.000E+00

     negative rho (up, down):  9.360E-05 0.000E+00

     negative rho (up, down):  9.360E-05 0.000E+00

     negative rho (up, down):  9.360E-05 0.000E+00

     negative rho (up, down):  9.360E-05 0.000E+00

     negative rho (up, down):  9.360E-05 0.000E+00

     negative rho (up, down):  9.360E-05 0.000E+00

     negative rho (up, down):  9.360E-05 0.000E+00

     negative rho (up, down):  9.360E-05 0.000E+00

     negative rho (up, down):  9.360E-05 0.000E+00

     negative rho (up, down):  9.360E-05 0.000E+00

     negative rho (up, down):  9.360E-05 0.000E+00

     negative rho (up, down):  9.360E-05 0.000E+00

     negative rho (up, down):  9.360E-05 0.000E+00

     negative rho (up, down):  9.360E-05 0.000E+00

     negative rho (up, down):  9.360E-05 0.000E+00

     negative rho (up, down):  9.360E-05 0.000E+00

     negative rho (up, down):  9.360E-05 0.000E+00

     negative rho (up, down):  9.360E-05 0.000E+00

     negative rho (up, down):  9.360E-05 0.000E+00

     negative rho (up, down):  9.360E-05 0.000E+00

     negative rho (up, down):  9.360E-05 0.000E+00

     negative rho (up, down):  9.360E-05 0.000E+00

     negative rho (up, down):  9.360E-05 0.000E+00

     negative rho (up, down):  9.360E-05 0.000E+00

     negative rho (up, down):  9.360E-05 0.000E+00

     negative rho (up, down):  9.360E-05 0.000E+00

     negative rho (up, down):  9.360E-05 0.000E+00

     negative rho (up, down):  9.360E-05 0.000E+00

     negative rho (up, down):  9.360E-05 0.000E+00

     negative rho (up, down):  9.360E-05 0.000E+00

     negative rho (up, down):  9.360E-05 0.000E+00

     negative rho (up, down):  9.360E-05 0.000E+00

     negative rho (up, down):  9.360E-05 0.000E+00

     negative rho (up, down):  9.360E-05 0.000E+00
 
     Adding external electric field

     Computed dipole along edir(3) : 
        Dipole                0.2263 Ry au,          0.5753 Debye
        Dipole field          0.0005 Ry au
 
        Potential amp.       -0.0433 Ry
        Total length         46.5341 bohr
 

     total cpu time spent up to now is      421.3 secs

     End of self-consistent calculation

          k = 0.0000 0.0000 0.0000 ( 23031 PWs)   bands (ev):

   -49.0552 -49.0053 -48.9597 -48.9593 -48.9591 -48.8603 -48.8270 -48.8267
   -48.5565 -48.5152 -48.5144 -48.5032 -27.7849 -27.7191 -27.7190 -27.7174
   -27.6998 -27.6997 -27.6865 -27.6297 -27.6285 -27.6283 -27.5972 -27.5409
   -27.4990 -27.4987 -27.4578 -27.4577 -27.4575 -27.4121 -27.4120 -27.3791
   -27.3791 -27.3676 -27.2782 -27.2712 -27.2709 -27.2669 -27.2667 -27.1177
   -27.0998 -27.0991 -27.0751 -27.0427 -27.0359 -27.0355 -26.9619 -26.9619
   -14.2021  -6.9777  -3.7202  -3.3281  -3.3281  -2.5426  -1.3096  -0.5485
    -0.5109  -0.5109  -0.4062  -0.4062  -0.3758  -0.1037  -0.0759  -0.0758
     0.3512   0.3818   0.3819   0.6913   0.6914   0.7038   0.9953   1.0509
     1.4272   1.5499   1.5499   1.5648   1.7709   1.7710   2.0267

          k = 0.0000 0.0299 0.0000 ( 23008 PWs)   bands (ev):

   -49.0548 -49.0022 -48.9625 -48.9594 -48.9593 -48.8586 -48.8291 -48.8267
   -48.5536 -48.5173 -48.5144 -48.5041 -27.7839 -27.7068 -27.7055 -27.6970
   -27.6901 -27.6827 -27.6813 -27.6318 -27.6283 -27.6277 -27.5817 -27.5377
   -27.5013 -27.4984 -27.4708 -27.4705 -27.4525 -27.4271 -27.4118 -27.4025
   -27.3844 -27.3742 -27.2896 -27.2711 -27.2655 -27.2605 -27.2540 -27.1149
   -27.1003 -27.0986 -27.0745 -27.0530 -27.0481 -27.0324 -26.9841 -26.9671
   -14.2013  -6.9688  -3.6029  -3.3388  -3.3292  -2.3709  -1.1596  -0.8969
    -0.5565  -0.5405  -0.4503  -0.3194  -0.3117  -0.0030   0.0773   0.1306
     0.4026   0.4418   0.4480   0.7348   0.7491   0.7841   1.0199   1.0529
     1.3841   1.4419   1.4961   1.4964   1.6715   1.6975   1.9425

          k = 0.0000 0.0598 0.0000 ( 22962 PWs)   bands (ev):

   -49.0541 -48.9938 -48.9709 -48.9594 -48.9593 -48.8541 -48.8344 -48.8267
   -48.5457 -48.5241 -48.5145 -48.5052 -27.7819 -27.6784 -27.6749 -27.6713
   -27.6672 -27.6473 -27.6346 -27.6318 -27.6265 -27.6260 -27.5498 -27.5267
   -27.5090 -27.5061 -27.5009 -27.4937 -27.4657 -27.4588 -27.4382 -27.4183
   -27.3988 -27.3817 -27.3472 -27.2800 -27.2384 -27.2339 -27.2015 -27.1095
   -27.1026 -27.0991 -27.0811 -27.0773 -27.0733 -27.0436 -27.0190 -26.9810
   -14.1995  -6.9510  -3.5194  -3.3315  -3.0530  -1.9325  -1.6167  -0.8123
    -0.6966  -0.5537  -0.5495  -0.1370  -0.1240   0.1377   0.4012   0.4248
     0.5538   0.6103   0.6108   0.8308   0.8804   0.9475   0.9864   1.0670
     1.2827   1.2892   1.3164   1.3339   1.5098   1.5174   1.6411

          k = 0.0000-0.0897 0.0000 ( 23032 PWs)   bands (ev):

   -49.0537 -48.9824 -48.9823 -48.9594 -48.9593 -48.8505 -48.8383 -48.8268
   -48.5368 -48.5326 -48.5145 -48.5056 -27.7809 -27.6627 -27.6578 -27.6554
   -27.6543 -27.6507 -27.6265 -27.6250 -27.5962 -27.5540 -27.5518 -27.5437
   -27.5271 -27.5258 -27.5223 -27.5102 -27.4948 -27.4489 -27.4265 -27.4189
   -27.4182 -27.3998 -27.3816 -27.2847 -27.2203 -27.2152 -27.1276 -27.1257
   -27.1083 -27.1057 -27.1014 -27.0952 -27.0919 -27.0728 -27.0008 -26.9994
   -14.1987  -6.9422  -3.5323  -3.3327  -2.4313  -2.3752  -1.3776  -1.2880
    -0.5644  -0.5503  -0.2411  -0.1495  -0.0019   0.0047   0.6405   0.6904
     0.6905   0.7133   0.7525   0.8179   0.9236   0.9954   1.0301   1.0392
     1.0928   1.1892   1.2859   1.3679   1.3882   1.4415   1.4690

          k = 0.0259-0.0149 0.0000 ( 23008 PWs)   bands (ev):

   -49.0548 -49.0022 -48.9624 -48.9596 -48.9591 -48.8586 -48.8290 -48.8268
   -48.5536 -48.5171 -48.5147 -48.5040 -27.7839 -27.7069 -27.7054 -27.6970
   -27.6901 -27.6827 -27.6813 -27.6318 -27.6286 -27.6275 -27.5817 -27.5377
   -27.5012 -27.4985 -27.4709 -27.4705 -27.4525 -27.4272 -27.4118 -27.4025
   -27.3844 -27.3741 -27.2895 -27.2712 -27.2656 -27.2603 -27.2541 -27.1149
   -27.1001 -27.0987 -27.0745 -27.0532 -27.0479 -27.0324 -26.9841 -26.9671
   -14.2013  -6.9688  -3.6029  -3.3388  -3.3292  -2.3709  -1.1596  -0.8969
    -0.5565  -0.5405  -0.4503  -0.3194  -0.3117  -0.0031   0.0773   0.1306
     0.4026   0.4418   0.4480   0.7348   0.7491   0.7841   1.0199   1.0529
     1.3841   1.4419   1.4961   1.4964   1.6715   1.6975   1.9429

          k = 0.0259 0.0149 0.0000 ( 23008 PWs)   bands (ev):

   -49.0548 -49.0022 -48.9625 -48.9595 -48.9592 -48.8586 -48.8288 -48.8270
   -48.5536 -48.5167 -48.5151 -48.5040 -27.7839 -27.7069 -27.7054 -27.6970
   -27.6900 -27.6827 -27.6814 -27.6318 -27.6284 -27.6276 -27.5817 -27.5377
   -27.5011 -27.4986 -27.4709 -27.4705 -27.4525 -27.4272 -27.4118 -27.4025
   -27.3844 -27.3741 -27.2894 -27.2713 -27.2658 -27.2602 -27.2541 -27.1149
   -27.0997 -27.0992 -27.0745 -27.0533 -27.0477 -27.0325 -26.9841 -26.9671
   -14.2013  -6.9688  -3.6029  -3.3388  -3.3292  -2.3709  -1.1596  -0.8969
    -0.5565  -0.5405  -0.4502  -0.3193  -0.3117  -0.0031   0.0773   0.1306
     0.4026   0.4418   0.4480   0.7348   0.7491   0.7841   1.0199   1.0529
     1.3841   1.4419   1.4961   1.4964   1.6714   1.6976   1.9426

          k = 0.0259 0.0448 0.0000 ( 23004 PWs)   bands (ev):

   -49.0543 -48.9965 -48.9653 -48.9649 -48.9567 -48.8555 -48.8328 -48.8268
   -48.5482 -48.5204 -48.5163 -48.5045 -27.7824 -27.6900 -27.6753 -27.6747
   -27.6680 -27.6648 -27.6515 -27.6340 -27.6329 -27.6237 -27.5564 -27.5299
   -27.5129 -27.5059 -27.4962 -27.4593 -27.4590 -27.4566 -27.4445 -27.4066
   -27.3955 -27.3872 -27.3257 -27.2803 -27.2494 -27.2291 -27.2275 -27.1110
   -27.1025 -27.0983 -27.0873 -27.0737 -27.0411 -27.0371 -27.0237 -26.9778
   -14.2000  -6.9555  -3.5118  -3.3422  -3.1772  -2.0671  -1.1641  -1.1329
    -0.8617  -0.4978  -0.4656  -0.1738  -0.0510   0.1652   0.2427   0.3056
     0.4998   0.5542   0.5798   0.8068   0.8660   0.9026   1.0146   1.0446
     1.3020   1.3121   1.3363   1.4521   1.5290   1.5774   1.6841

          k = 0.0259-0.1046 0.0000 ( 23012 PWs)   bands (ev):

   -49.0538 -48.9866 -48.9751 -48.9667 -48.9551 -48.8503 -48.8387 -48.8266
   -48.5391 -48.5280 -48.5181 -48.5043 -27.7809 -27.6620 -27.6589 -27.6515
   -27.6473 -27.6386 -27.6299 -27.6209 -27.6114 -27.5959 -27.5597 -27.5377
   -27.5181 -27.5141 -27.5105 -27.4958 -27.4772 -27.4748 -27.4390 -27.4248
   -27.4157 -27.3918 -27.3696 -27.2916 -27.2212 -27.1998 -27.1668 -27.1347
   -27.1060 -27.1036 -27.0975 -27.0881 -27.0729 -27.0563 -27.0197 -26.9973
   -14.1987  -6.9423  -3.5053  -3.3646  -2.6528  -1.9224  -1.5458  -1.2639
    -0.9406  -0.4662  -0.3446   0.0189   0.1270   0.2259   0.4831   0.5172
     0.6717   0.7176   0.7378   0.8816   0.9348   0.9810   1.0353   1.1044
     1.1522   1.2331   1.2805   1.2946   1.3747   1.4143   1.5083

          k = 0.0259-0.0747 0.0000 ( 23012 PWs)   bands (ev):

   -49.0538 -48.9866 -48.9751 -48.9667 -48.9551 -48.8503 -48.8388 -48.8266
   -48.5391 -48.5281 -48.5180 -48.5043 -27.7809 -27.6620 -27.6589 -27.6515
   -27.6473 -27.6387 -27.6299 -27.6209 -27.6114 -27.5960 -27.5597 -27.5377
   -27.5181 -27.5141 -27.5105 -27.4958 -27.4772 -27.4746 -27.4390 -27.4250
   -27.4157 -27.3919 -27.3695 -27.2916 -27.2212 -27.1998 -27.1668 -27.1348
   -27.1060 -27.1036 -27.0974 -27.0881 -27.0729 -27.0563 -27.0197 -26.9973
   -14.1987  -6.9423  -3.5053  -3.3646  -2.6528  -1.9224  -1.5458  -1.2639
    -0.9406  -0.4662  -0.3446   0.0189   0.1270   0.2259   0.4831   0.5172
     0.6717   0.7176   0.7378   0.8816   0.9348   0.9810   1.0353   1.1044
     1.1522   1.2331   1.2805   1.2947   1.3747   1.4143   1.5083

          k = 0.0259-0.0448 0.0000 ( 23004 PWs)   bands (ev):

   -49.0543 -48.9965 -48.9653 -48.9650 -48.9567 -48.8554 -48.8329 -48.8267
   -48.5482 -48.5208 -48.5159 -48.5046 -27.7824 -27.6900 -27.6753 -27.6747
   -27.6680 -27.6649 -27.6514 -27.6339 -27.6330 -27.6237 -27.5564 -27.5299
   -27.5129 -27.5060 -27.4961 -27.4593 -27.4590 -27.4565 -27.4445 -27.4067
   -27.3955 -27.3873 -27.3258 -27.2802 -27.2493 -27.2292 -27.2274 -27.1110
   -27.1028 -27.0980 -27.0873 -27.0737 -27.0413 -27.0369 -27.0237 -26.9778
   -14.2000  -6.9555  -3.5118  -3.3422  -3.1772  -2.0671  -1.1641  -1.1329
    -0.8617  -0.4979  -0.4655  -0.1738  -0.0510   0.1652   0.2427   0.3056
     0.4998   0.5542   0.5798   0.8069   0.8660   0.9026   1.0146   1.0446
     1.3020   1.3121   1.3363   1.4522   1.5290   1.5774   1.6840

          k = 0.0518-0.0299 0.0000 ( 22962 PWs)   bands (ev):

   -49.0541 -48.9938 -48.9709 -48.9596 -48.9591 -48.8542 -48.8342 -48.8269
   -48.5457 -48.5239 -48.5147 -48.5051 -27.7819 -27.6785 -27.6748 -27.6713
   -27.6673 -27.6472 -27.6346 -27.6318 -27.6267 -27.6258 -27.5499 -27.5267
   -27.5089 -27.5060 -27.5010 -27.4937 -27.4657 -27.4588 -27.4382 -27.4184
   -27.3988 -27.3816 -27.3471 -27.2801 -27.2386 -27.2337 -27.2015 -27.1095
   -27.1023 -27.0994 -27.0813 -27.0771 -27.0733 -27.0436 -27.0190 -26.9810
   -14.1995  -6.9510  -3.5194  -3.3315  -3.0530  -1.9325  -1.6167  -0.8123
    -0.6966  -0.5537  -0.5494  -0.1370  -0.1239   0.1377   0.4011   0.4248
     0.5538   0.6104   0.6108   0.8308   0.8804   0.9475   0.9864   1.0670
     1.2827   1.2891   1.3164   1.3339   1.5098   1.5175   1.6411

          k = 0.0518 0.0000 0.0000 ( 23004 PWs)   bands (ev):

   -49.0543 -48.9965 -48.9652 -48.9651 -48.9567 -48.8555 -48.8327 -48.8269
   -48.5482 -48.5201 -48.5167 -48.5044 -27.7824 -27.6900 -27.6753 -27.6746
   -27.6679 -27.6649 -27.6515 -27.6338 -27.6331 -27.6237 -27.5564 -27.5299
   -27.5129 -27.5058 -27.4962 -27.4593 -27.4590 -27.4567 -27.4445 -27.4066
   -27.3955 -27.3872 -27.3257 -27.2804 -27.2494 -27.2290 -27.2275 -27.1110
   -27.1022 -27.0986 -27.0873 -27.0737 -27.0411 -27.0372 -27.0237 -26.9778
   -14.2000  -6.9555  -3.5118  -3.3422  -3.1772  -2.0671  -1.1641  -1.1329
    -0.8617  -0.4978  -0.4656  -0.1738  -0.0510   0.1652   0.2427   0.3056
     0.4998   0.5543   0.5798   0.8068   0.8660   0.9026   1.0146   1.0446
     1.3019   1.3121   1.3363   1.4521   1.5290   1.5775   1.6841

          k = 0.0518 0.0299 0.0000 ( 22962 PWs)   bands (ev):

   -49.0541 -48.9938 -48.9709 -48.9595 -48.9592 -48.8542 -48.8340 -48.8270
   -48.5458 -48.5235 -48.5152 -48.5050 -27.7819 -27.6785 -27.6748 -27.6713
   -27.6672 -27.6473 -27.6346 -27.6318 -27.6266 -27.6259 -27.5499 -27.5268
   -27.5088 -27.5061 -27.5009 -27.4938 -27.4657 -27.4588 -27.4381 -27.4185
   -27.3988 -27.3814 -27.3470 -27.2802 -27.2388 -27.2335 -27.2015 -27.1096
   -27.1019 -27.0997 -27.0816 -27.0768 -27.0733 -27.0436 -27.0191 -26.9810
   -14.1995  -6.9510  -3.5194  -3.3315  -3.0530  -1.9325  -1.6167  -0.8122
    -0.6966  -0.5538  -0.5494  -0.1371  -0.1239   0.1377   0.4011   0.4249
     0.5537   0.6104   0.6108   0.8308   0.8805   0.9475   0.9864   1.0670
     1.2827   1.2891   1.3163   1.3340   1.5098   1.5175   1.6412

          k = 0.0518-0.1196 0.0000 ( 23012 PWs)   bands (ev):

   -49.0537 -48.9866 -48.9751 -48.9667 -48.9551 -48.8505 -48.8384 -48.8267
   -48.5393 -48.5275 -48.5186 -48.5042 -27.7809 -27.6620 -27.6589 -27.6514
   -27.6473 -27.6386 -27.6299 -27.6209 -27.6114 -27.5960 -27.5597 -27.5378
   -27.5181 -27.5140 -27.5105 -27.4959 -27.4772 -27.4746 -27.4390 -27.4251
   -27.4157 -27.3915 -27.3694 -27.2918 -27.2214 -27.1997 -27.1668 -27.1348
   -27.1063 -27.1029 -27.0980 -27.0879 -27.0729 -27.0563 -27.0198 -26.9973
   -14.1987  -6.9423  -3.5053  -3.3647  -2.6528  -1.9224  -1.5458  -1.2639
    -0.9406  -0.4662  -0.3446   0.0189   0.1270   0.2259   0.4831   0.5172
     0.6717   0.7176   0.7378   0.8816   0.9348   0.9810   1.0353   1.1043
     1.1522   1.2331   1.2805   1.2947   1.3747   1.4143   1.5083

          k = 0.0518-0.0897 0.0000 ( 23028 PWs)   bands (ev):

   -49.0536 -48.9769 -48.9766 -48.9764 -48.9536 -48.8453 -48.8441 -48.8264
   -48.5320 -48.5312 -48.5230 -48.5034 -27.7804 -27.6518 -27.6481 -27.6476
   -27.6262 -27.6226 -27.6162 -27.6150 -27.6120 -27.5772 -27.5769 -27.5768
   -27.5271 -27.5186 -27.4957 -27.4877 -27.4796 -27.4642 -27.4454 -27.4451
   -27.4449 -27.3821 -27.3742 -27.3037 -27.1856 -27.1843 -27.1511 -27.1472
   -27.1465 -27.1033 -27.1003 -27.0982 -27.0726 -27.0261 -27.0257 -27.0250
   -14.1983  -6.9379  -3.4537  -3.4297  -2.0507  -2.0195  -1.9953  -1.0667
    -0.9794  -0.9396   0.0788   0.0872   0.2601   0.3871   0.3959   0.4093
     0.7459   0.7905   0.8717   0.9207   0.9251   1.0116   1.0735   1.1347
     1.1630   1.1887   1.2040   1.2846   1.3043   1.3917   1.4578

          k = 0.0518-0.0598 0.0000 ( 23012 PWs)   bands (ev):

   -49.0538 -48.9866 -48.9751 -48.9667 -48.9551 -48.8504 -48.8387 -48.8266
   -48.5391 -48.5279 -48.5182 -48.5043 -27.7809 -27.6620 -27.6589 -27.6515
   -27.6473 -27.6387 -27.6299 -27.6209 -27.6114 -27.5960 -27.5597 -27.5377
   -27.5181 -27.5141 -27.5105 -27.4958 -27.4772 -27.4745 -27.4390 -27.4251
   -27.4157 -27.3917 -27.3694 -27.2917 -27.2213 -27.1998 -27.1668 -27.1348
   -27.1061 -27.1033 -27.0976 -27.0881 -27.0729 -27.0563 -27.0197 -26.9973
   -14.1987  -6.9423  -3.5053  -3.3647  -2.6528  -1.9224  -1.5458  -1.2639
    -0.9406  -0.4662  -0.3446   0.0189   0.1270   0.2259   0.4831   0.5172
     0.6717   0.7176   0.7378   0.8816   0.9348   0.9810   1.0353   1.1044
     1.1522   1.2332   1.2805   1.2947   1.3747   1.4143   1.5083

          k =-0.0777 0.0448 0.0000 ( 23032 PWs)   bands (ev):

   -49.0537 -48.9826 -48.9821 -48.9596 -48.9591 -48.8506 -48.8381 -48.8269
   -48.5372 -48.5321 -48.5148 -48.5055 -27.7809 -27.6627 -27.6579 -27.6552
   -27.6541 -27.6508 -27.6267 -27.6248 -27.5961 -27.5539 -27.5520 -27.5437
   -27.5271 -27.5257 -27.5225 -27.5101 -27.4949 -27.4490 -27.4266 -27.4187
   -27.4184 -27.3996 -27.3814 -27.2849 -27.2205 -27.2149 -27.1279 -27.1253
   -27.1086 -27.1058 -27.1013 -27.0948 -27.0921 -27.0728 -27.0010 -26.9991
   -14.1987  -6.9422  -3.5323  -3.3327  -2.4312  -2.3752  -1.3776  -1.2880
    -0.5644  -0.5503  -0.2411  -0.1495  -0.0020   0.0048   0.6405   0.6904
     0.6905   0.7133   0.7525   0.8179   0.9236   0.9954   1.0301   1.0392
     1.0928   1.1892   1.2859   1.3679   1.3882   1.4415   1.4689

          k =-0.0777 0.0747 0.0000 ( 23012 PWs)   bands (ev):

   -49.0538 -48.9866 -48.9751 -48.9667 -48.9551 -48.8504 -48.8385 -48.8267
   -48.5392 -48.5277 -48.5184 -48.5042 -27.7809 -27.6620 -27.6589 -27.6514
   -27.6473 -27.6387 -27.6299 -27.6209 -27.6114 -27.5960 -27.5597 -27.5378
   -27.5181 -27.5140 -27.5105 -27.4958 -27.4772 -27.4748 -27.4390 -27.4248
   -27.4157 -27.3917 -27.3695 -27.2917 -27.2213 -27.1998 -27.1668 -27.1347
   -27.1061 -27.1033 -27.0978 -27.0880 -27.0729 -27.0563 -27.0197 -26.9973
   -14.1987  -6.9423  -3.5053  -3.3647  -2.6528  -1.9224  -1.5458  -1.2639
    -0.9406  -0.4662  -0.3446   0.0189   0.1270   0.2259   0.4831   0.5172
     0.6717   0.7176   0.7378   0.8816   0.9348   0.9810   1.0353   1.1043
     1.1522   1.2330   1.2806   1.2947   1.3747   1.4143   1.5083

          k =-0.0777 0.1046 0.0000 ( 23012 PWs)   bands (ev):

   -49.0537 -48.9866 -48.9751 -48.9667 -48.9551 -48.8505 -48.8384 -48.8267
   -48.5393 -48.5274 -48.5187 -48.5042 -27.7809 -27.6620 -27.6589 -27.6514
   -27.6473 -27.6387 -27.6299 -27.6209 -27.6114 -27.5960 -27.5597 -27.5378
   -27.5181 -27.5140 -27.5105 -27.4959 -27.4772 -27.4748 -27.4390 -27.4249
   -27.4157 -27.3915 -27.3694 -27.2918 -27.2214 -27.1997 -27.1668 -27.1347
   -27.1063 -27.1029 -27.0981 -27.0879 -27.0729 -27.0563 -27.0198 -26.9973
   -14.1987  -6.9423  -3.5053  -3.3647  -2.6528  -1.9224  -1.5458  -1.2639
    -0.9406  -0.4662  -0.3446   0.0189   0.1270   0.2259   0.4831   0.5172
     0.6717   0.7177   0.7378   0.8816   0.9348   0.9810   1.0353   1.1043
     1.1522   1.2331   1.2805   1.2947   1.3747   1.4143   1.5083

          k =-0.0777-0.0448 0.0000 ( 23032 PWs)   bands (ev):

   -49.0537 -48.9825 -48.9822 -48.9595 -48.9592 -48.8508 -48.8378 -48.8270
   -48.5375 -48.5315 -48.5152 -48.5053 -27.7809 -27.6626 -27.6579 -27.6553
   -27.6541 -27.6508 -27.6266 -27.6249 -27.5962 -27.5539 -27.5519 -27.5438
   -27.5271 -27.5258 -27.5226 -27.5099 -27.4950 -27.4491 -27.4268 -27.4187
   -27.4183 -27.3993 -27.3812 -27.2850 -27.2209 -27.2145 -27.1282 -27.1247
   -27.1089 -27.1061 -27.1010 -27.0942 -27.0925 -27.0728 -27.0014 -26.9988
   -14.1987  -6.9422  -3.5323  -3.3327  -2.4312  -2.3753  -1.3776  -1.2880
    -0.5644  -0.5503  -0.2411  -0.1495  -0.0020   0.0049   0.6404   0.6904
     0.6905   0.7133   0.7525   0.8178   0.9236   0.9954   1.0301   1.0392
     1.0928   1.1891   1.2859   1.3679   1.3883   1.4414   1.4690

     the Fermi energy is     0.9450 ev

!    total energy              =   -1163.39805924 Ry
     Harris-Foulkes estimate   =   -1163.39806754 Ry
     estimated scf accuracy    <       0.00000403 Ry

     The total energy is the sum of the following terms:

     one-electron contribution =   -7386.02415252 Ry
     hartree contribution      =    3679.01662437 Ry
     xc contribution           =    -176.14074084 Ry
     ewald contribution        =    2719.88399888 Ry
     electric field correction =       0.00010523 Ry
     smearing contrib. (-TS)   =      -0.13389436 Ry

     convergence has been achieved in  19 iterations
 
 BEEF-vdW xc energy contributions
           1 :   -149.242443124140     
           2 :    131.255926930129     
           3 :   -103.133654310122     
           4 :    75.6062751684063     
           5 :   -56.2949304183415     
           6 :    46.6846351226592     
           7 :   -43.3203222828598     
           8 :    41.5066852499741     
           9 :   -38.5382115813282     
          10 :    34.5250041473715     
          11 :   -31.0122287427538     
          12 :    29.0415391527565     
          13 :   -28.2537384122900     
          14 :    27.4503226214398     
          15 :   -25.8089058796391     
          16 :    23.5776617371131     
          17 :   -21.7136243478631     
          18 :    20.9170283060972     
          19 :   -20.9908097642634     
          20 :    21.0640272304789     
          21 :   -20.3965174086799     
          22 :    18.9960994953784     
          23 :   -17.5279017310322     
          24 :    16.6694416309678     
          25 :   -16.5302635441681     
          26 :    16.6278093966009     
          27 :   -16.3754301292005     
          28 :    15.5998928997172     
          29 :   -14.6355017788802     
          30 :    13.9611960364534     
          31 :   -17.6587092998516     
          32 :   -12.6244349059916     

     Forces acting on atoms (Ry/au):


     negative rho (up, down):  9.360E-05 0.000E+00
     atom    1 type  1   force =    -0.00056938   -0.00036187    0.00164465
     atom    2 type  1   force =     0.00057798   -0.00041748    0.00170082
     atom    3 type  1   force =    -0.00005338    0.00072628    0.00170512
     atom    4 type  1   force =     0.00005111    0.00006331    0.00110531
     atom    5 type  1   force =    -0.00002410   -0.00147455    0.00182719
     atom    6 type  1   force =     0.00002168    0.00006032    0.00458821
     atom    7 type  1   force =     0.00132823    0.00071493    0.00176349
     atom    8 type  1   force =    -0.00133413    0.00068990    0.00178582
     atom    9 type  1   force =    -0.00003645   -0.00003511   -0.01219865
     atom   10 type  1   force =     0.00003914   -0.00514080   -0.00428447
     atom   11 type  1   force =    -0.00442464    0.00260834   -0.00426794
     atom   12 type  1   force =     0.00442453    0.00256263   -0.00423468
     atom   13 type  2   force =    -0.00000031    0.00000376   -0.12496581
     atom   14 type  3   force =    -0.00000027    0.00000036    0.13383093

     Total force =     0.183873     Total SCF correction =     0.002195


     entering subroutine stress ...


     negative rho (up, down):  9.360E-05 0.000E+00
          total   stress  (Ry/bohr**3)                   (kbar)     P=    5.71
   0.00004051   0.00000000  -0.00000001          5.96      0.00     -0.00
   0.00000000   0.00004049  -0.00000002          0.00      5.96     -0.00
  -0.00000001  -0.00000002   0.00003551         -0.00     -0.00      5.22


     BFGS Geometry Optimization

     number of scf cycles    =   1
     number of bfgs steps    =   0

     energy   new            =   -1163.3980592365 Ry

     new trust radius        =       0.1338309300 bohr
     new conv_thr            =       0.0000099958 Ry


ATOMIC_POSITIONS (crystal)
Sc1      0.166666667   0.166666667   0.395942884    0   0   0
Sc1      0.666666667   0.166666667   0.395942884    0   0   0
Sc1      0.166666667   0.666666667   0.395942884    0   0   0
Sc1      0.666666667   0.666666667   0.395942884    0   0   0
Sc1      0.833333333   0.333333333   0.500000000    0   0   0
Sc1      0.333333333   0.333333333   0.500000000    0   0   0
Sc1      0.833333333   0.833333333   0.500000000    0   0   0
Sc1      0.333333333   0.833333333   0.500000000    0   0   0
Sc1     -0.000001330  -0.000003333   0.603801525
Sc1      0.500247199  -0.000487963   0.603967346
Sc1     -0.000487509   0.500247583   0.603967692
Sc1      0.500242086   0.500243244   0.603968389
S1       0.333333129   0.333333690   0.672213573
H1       0.333333294   0.333333367   0.727128845



     Writing output data file calc.save
     Check: negative starting charge=   -0.000234
     NEW-OLD atomic charge density approx. for the potential
     Check: negative starting charge=   -0.000233

     negative rho (up, down):  9.551E-05 0.000E+00
 
     Adding external electric field

     Computed dipole along edir(3) : 
        Dipole                0.2263 Ry au,          0.5751 Debye
        Dipole field          0.0005 Ry au
 
        Potential amp.       -0.0433 Ry
        Total length         46.5341 bohr
 

     total cpu time spent up to now is      451.2 secs

     Self-consistent Calculation

     iteration #  1     ecut=    36.75 Ry     beta=0.30
     Davidson diagonalization with overlap
     c_bands:  1 eigenvalues not converged
     c_bands:  1 eigenvalues not converged
     c_bands:  1 eigenvalues not converged
     c_bands:  1 eigenvalues not converged
     c_bands:  1 eigenvalues not converged
     c_bands:  1 eigenvalues not converged
     ethr =  1.00E-06,  avg # of iterations = 13.4

     negative rho (up, down):  9.455E-05 0.000E+00
 
     Adding external electric field

     Computed dipole along edir(3) : 
        Dipole                0.0326 Ry au,          0.0828 Debye
        Dipole field          0.0001 Ry au
 
        Potential amp.       -0.0062 Ry
        Total length         46.5341 bohr
 

     total cpu time spent up to now is      483.4 secs

     total energy              =   -1163.40763068 Ry
     Harris-Foulkes estimate   =   -1163.41190879 Ry
     estimated scf accuracy    <       0.01048316 Ry

     iteration #  2     ecut=    36.75 Ry     beta=0.30
     Davidson diagonalization with overlap
     ethr =  7.54E-06,  avg # of iterations = 10.2

     negative rho (up, down):  1.181E-04 0.000E+00
 
     Adding external electric field

     Computed dipole along edir(3) : 
        Dipole                0.2488 Ry au,          0.6323 Debye
        Dipole field          0.0005 Ry au
 
        Potential amp.       -0.0476 Ry
        Total length         46.5341 bohr
 

     total cpu time spent up to now is      511.4 secs

     total energy              =   -1163.37151451 Ry
     Harris-Foulkes estimate   =   -1163.44576241 Ry
     estimated scf accuracy    <       4.11371514 Ry

     iteration #  3     ecut=    36.75 Ry     beta=0.30
     Davidson diagonalization with overlap
     ethr =  7.54E-06,  avg # of iterations = 10.2

     negative rho (up, down):  1.088E-04 0.000E+00
 
     Adding external electric field

     Computed dipole along edir(3) : 
        Dipole                0.2133 Ry au,          0.5421 Debye
        Dipole field          0.0004 Ry au
 
        Potential amp.       -0.0408 Ry
        Total length         46.5341 bohr
 

     total cpu time spent up to now is      539.0 secs

     total energy              =   -1163.40928213 Ry
     Harris-Foulkes estimate   =   -1163.41095937 Ry
     estimated scf accuracy    <       0.01889179 Ry

     iteration #  4     ecut=    36.75 Ry     beta=0.30
     Davidson diagonalization with overlap
     c_bands:  1 eigenvalues not converged
     c_bands:  1 eigenvalues not converged
     c_bands:  1 eigenvalues not converged
     c_bands:  1 eigenvalues not converged
     c_bands:  1 eigenvalues not converged
     c_bands:  1 eigenvalues not converged
     ethr =  7.54E-06,  avg # of iterations = 10.1

     negative rho (up, down):  9.972E-05 0.000E+00
 
     Adding external electric field

     Computed dipole along edir(3) : 
        Dipole                0.1859 Ry au,          0.4726 Debye
        Dipole field          0.0004 Ry au
 
        Potential amp.       -0.0356 Ry
        Total length         46.5341 bohr
 

     total cpu time spent up to now is      559.7 secs

     total energy              =   -1163.40984397 Ry
     Harris-Foulkes estimate   =   -1163.41037489 Ry
     estimated scf accuracy    <       0.00240932 Ry

     iteration #  5     ecut=    36.75 Ry     beta=0.30
     Davidson diagonalization with overlap
     ethr =  1.73E-06,  avg # of iterations =  9.2

     negative rho (up, down):  9.723E-05 0.000E+00
 
     Adding external electric field

     Computed dipole along edir(3) : 
        Dipole                0.1806 Ry au,          0.4590 Debye
        Dipole field          0.0004 Ry au
 
        Potential amp.       -0.0345 Ry
        Total length         46.5341 bohr
 

     total cpu time spent up to now is      584.1 secs

     total energy              =   -1163.40974012 Ry
     Harris-Foulkes estimate   =   -1163.41048673 Ry
     estimated scf accuracy    <       0.00631395 Ry

     iteration #  6     ecut=    36.75 Ry     beta=0.30
     Davidson diagonalization with overlap
     ethr =  1.73E-06,  avg # of iterations =  7.3

     negative rho (up, down):  9.504E-05 0.000E+00
 
     Adding external electric field

     Computed dipole along edir(3) : 
        Dipole                0.1895 Ry au,          0.4817 Debye
        Dipole field          0.0004 Ry au
 
        Potential amp.       -0.0362 Ry
        Total length         46.5341 bohr
 

     total cpu time spent up to now is      605.7 secs

     total energy              =   -1163.41005771 Ry
     Harris-Foulkes estimate   =   -1163.41028105 Ry
     estimated scf accuracy    <       0.00234835 Ry

     iteration #  7     ecut=    36.75 Ry     beta=0.30
     Davidson diagonalization with overlap
     ethr =  1.69E-06,  avg # of iterations =  2.2

     negative rho (up, down):  9.379E-05 0.000E+00
 
     Adding external electric field

     Computed dipole along edir(3) : 
        Dipole                0.1917 Ry au,          0.4874 Debye
        Dipole field          0.0004 Ry au
 
        Potential amp.       -0.0367 Ry
        Total length         46.5341 bohr
 

     total cpu time spent up to now is      620.4 secs

     total energy              =   -1163.41015672 Ry
     Harris-Foulkes estimate   =   -1163.41016126 Ry
     estimated scf accuracy    <       0.00015162 Ry

     iteration #  8     ecut=    36.75 Ry     beta=0.30
     Davidson diagonalization with overlap
     ethr =  1.09E-07,  avg # of iterations =  8.5

     negative rho (up, down):  9.350E-05 0.000E+00
 
     Adding external electric field

     Computed dipole along edir(3) : 
        Dipole                0.1891 Ry au,          0.4807 Debye
        Dipole field          0.0004 Ry au
 
        Potential amp.       -0.0362 Ry
        Total length         46.5341 bohr
 

     total cpu time spent up to now is      645.9 secs

     total energy              =   -1163.41019752 Ry
     Harris-Foulkes estimate   =   -1163.41021350 Ry
     estimated scf accuracy    <       0.00021695 Ry

     iteration #  9     ecut=    36.75 Ry     beta=0.30
     Davidson diagonalization with overlap
     ethr =  1.09E-07,  avg # of iterations =  4.0

     negative rho (up, down):  9.351E-05 0.000E+00
 
     Adding external electric field

     Computed dipole along edir(3) : 
        Dipole                0.1849 Ry au,          0.4700 Debye
        Dipole field          0.0004 Ry au
 
        Potential amp.       -0.0354 Ry
        Total length         46.5341 bohr
 

     total cpu time spent up to now is      662.3 secs

     total energy              =   -1163.41019486 Ry
     Harris-Foulkes estimate   =   -1163.41020826 Ry
     estimated scf accuracy    <       0.00007952 Ry

     iteration # 10     ecut=    36.75 Ry     beta=0.30
     Davidson diagonalization with overlap
     ethr =  5.72E-08,  avg # of iterations =  7.2

     negative rho (up, down):  9.352E-05 0.000E+00
 
     Adding external electric field

     Computed dipole along edir(3) : 
        Dipole                0.1862 Ry au,          0.4733 Debye
        Dipole field          0.0004 Ry au
 
        Potential amp.       -0.0356 Ry
        Total length         46.5341 bohr
 

     total cpu time spent up to now is      684.1 secs

     total energy              =   -1163.41020951 Ry
     Harris-Foulkes estimate   =   -1163.41021065 Ry
     estimated scf accuracy    <       0.00007263 Ry

     iteration # 11     ecut=    36.75 Ry     beta=0.30
     Davidson diagonalization with overlap
     ethr =  5.23E-08,  avg # of iterations =  1.5

     negative rho (up, down):  9.361E-05 0.000E+00
 
     Adding external electric field

     Computed dipole along edir(3) : 
        Dipole                0.1874 Ry au,          0.4762 Debye
        Dipole field          0.0004 Ry au
 
        Potential amp.       -0.0358 Ry
        Total length         46.5341 bohr
 

     total cpu time spent up to now is      698.3 secs

     total energy              =   -1163.41020939 Ry
     Harris-Foulkes estimate   =   -1163.41021075 Ry
     estimated scf accuracy    <       0.00001838 Ry

     iteration # 12     ecut=    36.75 Ry     beta=0.30
     Davidson diagonalization with overlap
     ethr =  1.32E-08,  avg # of iterations =  6.8

     negative rho (up, down):  9.364E-05 0.000E+00
 
     Adding external electric field

     Computed dipole along edir(3) : 
        Dipole                0.1874 Ry au,          0.4762 Debye
        Dipole field          0.0004 Ry au
 
        Potential amp.       -0.0358 Ry
        Total length         46.5341 bohr
 

     total cpu time spent up to now is      720.2 secs

     total energy              =   -1163.41021232 Ry
     Harris-Foulkes estimate   =   -1163.41021379 Ry
     estimated scf accuracy    <       0.00001074 Ry

     iteration # 13     ecut=    36.75 Ry     beta=0.30
     Davidson diagonalization with overlap
     ethr =  7.73E-09,  avg # of iterations =  3.6

     negative rho (up, down):  9.375E-05 0.000E+00

     negative rho (up, down):  9.375E-05 0.000E+00

     negative rho (up, down):  9.375E-05 0.000E+00

     negative rho (up, down):  9.375E-05 0.000E+00

     negative rho (up, down):  9.375E-05 0.000E+00

     negative rho (up, down):  9.375E-05 0.000E+00

     negative rho (up, down):  9.375E-05 0.000E+00

     negative rho (up, down):  9.375E-05 0.000E+00

     negative rho (up, down):  9.375E-05 0.000E+00

     negative rho (up, down):  9.375E-05 0.000E+00

     negative rho (up, down):  9.375E-05 0.000E+00

     negative rho (up, down):  9.375E-05 0.000E+00

     negative rho (up, down):  9.375E-05 0.000E+00

     negative rho (up, down):  9.375E-05 0.000E+00

     negative rho (up, down):  9.375E-05 0.000E+00

     negative rho (up, down):  9.375E-05 0.000E+00

     negative rho (up, down):  9.375E-05 0.000E+00

     negative rho (up, down):  9.375E-05 0.000E+00

     negative rho (up, down):  9.375E-05 0.000E+00

     negative rho (up, down):  9.375E-05 0.000E+00

     negative rho (up, down):  9.375E-05 0.000E+00

     negative rho (up, down):  9.375E-05 0.000E+00

     negative rho (up, down):  9.375E-05 0.000E+00

     negative rho (up, down):  9.375E-05 0.000E+00

     negative rho (up, down):  9.375E-05 0.000E+00

     negative rho (up, down):  9.375E-05 0.000E+00

     negative rho (up, down):  9.375E-05 0.000E+00

     negative rho (up, down):  9.375E-05 0.000E+00

     negative rho (up, down):  9.375E-05 0.000E+00

     negative rho (up, down):  9.375E-05 0.000E+00

     negative rho (up, down):  9.375E-05 0.000E+00

     negative rho (up, down):  9.375E-05 0.000E+00

     negative rho (up, down):  9.375E-05 0.000E+00

     negative rho (up, down):  9.375E-05 0.000E+00

     negative rho (up, down):  9.375E-05 0.000E+00
 
     Adding external electric field

     Computed dipole along edir(3) : 
        Dipole                0.1875 Ry au,          0.4766 Debye
        Dipole field          0.0004 Ry au
 
        Potential amp.       -0.0358 Ry
        Total length         46.5341 bohr
 

     total cpu time spent up to now is      758.6 secs

     End of self-consistent calculation

          k = 0.0000 0.0000 0.0000 ( 23031 PWs)   bands (ev):

   -49.0922 -49.0449 -49.0012 -48.9981 -48.9974 -48.8748 -48.8411 -48.8406
   -48.5947 -48.5514 -48.5509 -48.5482 -27.8246 -27.7587 -27.7583 -27.7558
   -27.7314 -27.7312 -27.7259 -27.6710 -27.6672 -27.6665 -27.6139 -27.5613
   -27.5176 -27.5172 -27.4978 -27.4975 -27.4965 -27.4366 -27.4365 -27.4186
   -27.4186 -27.3868 -27.3149 -27.3088 -27.3085 -27.2813 -27.2810 -27.1534
   -27.1355 -27.1351 -27.1234 -27.0789 -27.0755 -27.0753 -27.0007 -27.0007
   -13.7353  -6.5759  -3.7550  -3.3737  -3.3736  -2.5726  -1.3437  -0.5889
    -0.5502  -0.5502  -0.4427  -0.4427  -0.4133  -0.1416  -0.1022  -0.1022
     0.3066   0.3437   0.3437   0.6589   0.6590   0.6645   0.9685   1.0215
     1.3891   1.5110   1.5111   1.5241   1.7477   1.7477   1.9640

          k = 0.0000 0.0299 0.0000 ( 23008 PWs)   bands (ev):

   -49.0919 -49.0419 -49.0027 -48.9996 -48.9975 -48.8730 -48.8431 -48.8407
   -48.5918 -48.5535 -48.5513 -48.5486 -27.8237 -27.7464 -27.7441 -27.7359
   -27.7222 -27.7219 -27.7135 -27.6721 -27.6682 -27.6657 -27.5980 -27.5581
   -27.5199 -27.5176 -27.5107 -27.5086 -27.4921 -27.4514 -27.4421 -27.4358
   -27.4239 -27.3937 -27.3056 -27.3012 -27.2983 -27.2918 -27.2851 -27.1505
   -27.1356 -27.1349 -27.1227 -27.0902 -27.0876 -27.0714 -27.0228 -27.0058
   -13.7340  -6.5656  -3.6417  -3.3813  -3.3738  -2.4002  -1.1941  -0.9340
    -0.5960  -0.5789  -0.4834  -0.3549  -0.3480  -0.0422   0.0470   0.0955
     0.3578   0.4032   0.4097   0.6968   0.7160   0.7481   0.9883   1.0195
     1.3435   1.4033   1.4565   1.4569   1.6469   1.6726   1.8967

          k = 0.0000 0.0598 0.0000 ( 22962 PWs)   bands (ev):

   -49.0913 -49.0336 -49.0105 -49.0002 -48.9975 -48.8683 -48.8485 -48.8407
   -48.5837 -48.5614 -48.5513 -48.5488 -27.8217 -27.7171 -27.7134 -27.7109
   -27.7016 -27.6857 -27.6724 -27.6691 -27.6653 -27.6641 -27.5662 -27.5486
   -27.5428 -27.5423 -27.5247 -27.5135 -27.5047 -27.4810 -27.4778 -27.4394
   -27.4383 -27.4035 -27.3625 -27.2941 -27.2754 -27.2721 -27.2396 -27.1450
   -27.1381 -27.1357 -27.1215 -27.1179 -27.1167 -27.0822 -27.0577 -27.0198
   -13.7316  -6.5451  -3.5683  -3.3744  -3.0870  -1.9617  -1.6520  -0.8472
    -0.7285  -0.5916  -0.5868  -0.1751  -0.1597   0.1007   0.3588   0.3889
     0.5079   0.5686   0.5715   0.7885   0.8449   0.9081   0.9491   1.0279
     1.2420   1.2494   1.2760   1.2937   1.4812   1.4914   1.6034

          k = 0.0000-0.0897 0.0000 ( 23032 PWs)   bands (ev):

   -49.0910 -49.0236 -49.0205 -49.0003 -48.9975 -48.8646 -48.8525 -48.8407
   -48.5737 -48.5714 -48.5513 -48.5489 -27.8207 -27.6990 -27.6988 -27.6936
   -27.6923 -27.6884 -27.6671 -27.6631 -27.6329 -27.5923 -27.5907 -27.5667
   -27.5637 -27.5604 -27.5441 -27.5291 -27.5129 -27.4669 -27.4593 -27.4569
   -27.4456 -27.4155 -27.4049 -27.2986 -27.2571 -27.2540 -27.1645 -27.1643
   -27.1452 -27.1435 -27.1396 -27.1314 -27.1279 -27.1208 -27.0397 -27.0380
   -13.7303  -6.5350  -3.5817  -3.3747  -2.4678  -2.4083  -1.4094  -1.3149
    -0.6037  -0.5882  -0.2764  -0.1852  -0.0395  -0.0313   0.5853   0.6504
     0.6520   0.6734   0.7105   0.7775   0.8730   0.9577   0.9916   0.9994
     1.0516   1.1547   1.2436   1.3414   1.3468   1.4091   1.4263

          k = 0.0259-0.0149 0.0000 ( 23008 PWs)   bands (ev):

   -49.0919 -49.0419 -49.0029 -48.9991 -48.9978 -48.8730 -48.8430 -48.8408
   -48.5918 -48.5536 -48.5510 -48.5488 -27.8237 -27.7462 -27.7443 -27.7358
   -27.7222 -27.7219 -27.7136 -27.6723 -27.6676 -27.6661 -27.5980 -27.5581
   -27.5198 -27.5177 -27.5105 -27.5088 -27.4920 -27.4514 -27.4421 -27.4357
   -27.4239 -27.3937 -27.3055 -27.3011 -27.2985 -27.2918 -27.2852 -27.1505
   -27.1359 -27.1346 -27.1227 -27.0900 -27.0877 -27.0714 -27.0228 -27.0058
   -13.7340  -6.5656  -3.6417  -3.3813  -3.3738  -2.4002  -1.1941  -0.9340
    -0.5960  -0.5789  -0.4834  -0.3549  -0.3480  -0.0422   0.0470   0.0954
     0.3578   0.4032   0.4097   0.6967   0.7161   0.7481   0.9883   1.0195
     1.3435   1.4033   1.4565   1.4570   1.6469   1.6726   1.8967

          k = 0.0259 0.0149 0.0000 ( 23008 PWs)   bands (ev):

   -49.0919 -49.0419 -49.0030 -48.9988 -48.9980 -48.8730 -48.8427 -48.8410
   -48.5918 -48.5537 -48.5510 -48.5488 -27.8237 -27.7461 -27.7444 -27.7358
   -27.7221 -27.7219 -27.7136 -27.6723 -27.6674 -27.6662 -27.5980 -27.5581
   -27.5195 -27.5180 -27.5104 -27.5090 -27.4920 -27.4515 -27.4421 -27.4357
   -27.4239 -27.3936 -27.3054 -27.3011 -27.2985 -27.2918 -27.2854 -27.1505
   -27.1359 -27.1346 -27.1227 -27.0900 -27.0878 -27.0714 -27.0228 -27.0058
   -13.7340  -6.5656  -3.6417  -3.3813  -3.3739  -2.4002  -1.1941  -0.9340
    -0.5960  -0.5789  -0.4834  -0.3549  -0.3480  -0.0422   0.0470   0.0954
     0.3578   0.4032   0.4097   0.6967   0.7161   0.7481   0.9883   1.0195
     1.3435   1.4033   1.4564   1.4570   1.6469   1.6727   1.8967

          k = 0.0259 0.0448 0.0000 ( 23004 PWs)   bands (ev):

   -49.0914 -49.0362 -49.0059 -49.0037 -48.9960 -48.8698 -48.8468 -48.8408
   -48.5863 -48.5567 -48.5551 -48.5473 -27.8222 -27.7292 -27.7146 -27.7090
   -27.7070 -27.7025 -27.6849 -27.6741 -27.6715 -27.6627 -27.5723 -27.5532
   -27.5491 -27.5240 -27.5148 -27.4987 -27.4984 -27.4840 -27.4796 -27.4351
   -27.4300 -27.4071 -27.3409 -27.2946 -27.2867 -27.2668 -27.2654 -27.1464
   -27.1388 -27.1342 -27.1249 -27.1218 -27.0791 -27.0764 -27.0624 -27.0166
   -13.7322  -6.5502  -3.5594  -3.3859  -3.2118  -2.0958  -1.2016  -1.1692
    -0.8957  -0.5307  -0.4998  -0.2130  -0.0892   0.1255   0.2089   0.2665
     0.4543   0.5154   0.5396   0.7669   0.8304   0.8649   0.9795   1.0037
     1.2616   1.2724   1.2950   1.4141   1.5009   1.5484   1.6482

          k = 0.0259-0.1046 0.0000 ( 23012 PWs)   bands (ev):

   -49.0910 -49.0264 -49.0146 -49.0063 -48.9945 -48.8645 -48.8528 -48.8406
   -48.5767 -48.5654 -48.5573 -48.5459 -27.8207 -27.7019 -27.6975 -27.6878
   -27.6852 -27.6773 -27.6695 -27.6599 -27.6469 -27.6353 -27.5992 -27.5605
   -27.5488 -27.5348 -27.5313 -27.5178 -27.5115 -27.4940 -27.4786 -27.4552
   -27.4436 -27.4135 -27.3871 -27.3055 -27.2590 -27.2379 -27.2049 -27.1732
   -27.1416 -27.1395 -27.1340 -27.1256 -27.1208 -27.0950 -27.0585 -27.0360
   -13.7303  -6.5351  -3.5540  -3.4077  -2.6871  -1.9581  -1.5749  -1.3003
    -0.9714  -0.5007  -0.3786  -0.0210   0.0902   0.1864   0.4418   0.4769
     0.6272   0.6774   0.6900   0.8402   0.8897   0.9412   0.9952   1.0632
     1.1169   1.1915   1.2425   1.2547   1.3416   1.3775   1.4733

          k = 0.0259-0.0747 0.0000 ( 23012 PWs)   bands (ev):

   -49.0910 -49.0264 -49.0146 -49.0063 -48.9945 -48.8644 -48.8529 -48.8405
   -48.5767 -48.5654 -48.5573 -48.5459 -27.8207 -27.7019 -27.6975 -27.6878
   -27.6852 -27.6773 -27.6695 -27.6599 -27.6469 -27.6353 -27.5992 -27.5605
   -27.5488 -27.5347 -27.5314 -27.5178 -27.5115 -27.4938 -27.4786 -27.4552
   -27.4440 -27.4136 -27.3870 -27.3055 -27.2590 -27.2379 -27.2049 -27.1731
   -27.1416 -27.1395 -27.1340 -27.1256 -27.1208 -27.0950 -27.0585 -27.0360
   -13.7303  -6.5351  -3.5540  -3.4077  -2.6871  -1.9581  -1.5749  -1.3003
    -0.9714  -0.5007  -0.3786  -0.0210   0.0902   0.1864   0.4418   0.4769
     0.6272   0.6774   0.6901   0.8402   0.8897   0.9412   0.9952   1.0631
     1.1168   1.1915   1.2425   1.2547   1.3416   1.3775   1.4733

          k = 0.0259-0.0448 0.0000 ( 23004 PWs)   bands (ev):

   -49.0914 -49.0362 -49.0058 -49.0038 -48.9959 -48.8697 -48.8470 -48.8406
   -48.5863 -48.5566 -48.5552 -48.5473 -27.8222 -27.7292 -27.7146 -27.7090
   -27.7069 -27.7025 -27.6849 -27.6739 -27.6717 -27.6627 -27.5722 -27.5533
   -27.5490 -27.5243 -27.5147 -27.4987 -27.4984 -27.4840 -27.4794 -27.4351
   -27.4301 -27.4072 -27.3410 -27.2945 -27.2867 -27.2668 -27.2655 -27.1464
   -27.1388 -27.1343 -27.1249 -27.1218 -27.0791 -27.0765 -27.0624 -27.0166
   -13.7322  -6.5502  -3.5594  -3.3859  -3.2118  -2.0958  -1.2016  -1.1692
    -0.8957  -0.5307  -0.4998  -0.2130  -0.0892   0.1255   0.2089   0.2665
     0.4543   0.5154   0.5396   0.7669   0.8304   0.8649   0.9795   1.0037
     1.2616   1.2725   1.2950   1.4141   1.5009   1.5484   1.6482

          k = 0.0518-0.0299 0.0000 ( 22962 PWs)   bands (ev):

   -49.0913 -49.0336 -49.0107 -48.9997 -48.9979 -48.8684 -48.8483 -48.8408
   -48.5837 -48.5615 -48.5511 -48.5491 -27.8217 -27.7168 -27.7137 -27.7109
   -27.7015 -27.6858 -27.6725 -27.6688 -27.6652 -27.6645 -27.5662 -27.5485
   -27.5431 -27.5422 -27.5245 -27.5136 -27.5047 -27.4811 -27.4777 -27.4395
   -27.4383 -27.4034 -27.3624 -27.2941 -27.2752 -27.2723 -27.2396 -27.1450
   -27.1384 -27.1354 -27.1216 -27.1177 -27.1169 -27.0823 -27.0578 -27.0198
   -13.7316  -6.5451  -3.5683  -3.3744  -3.0870  -1.9617  -1.6520  -0.8472
    -0.7285  -0.5916  -0.5868  -0.1751  -0.1597   0.1007   0.3588   0.3889
     0.5078   0.5686   0.5715   0.7885   0.8449   0.9081   0.9491   1.0279
     1.2419   1.2495   1.2760   1.2937   1.4812   1.4914   1.6034

          k = 0.0518 0.0000 0.0000 ( 23004 PWs)   bands (ev):

   -49.0914 -49.0362 -49.0063 -49.0032 -48.9960 -48.8698 -48.8467 -48.8409
   -48.5862 -48.5569 -48.5548 -48.5473 -27.8222 -27.7292 -27.7146 -27.7090
   -27.7070 -27.7024 -27.6850 -27.6743 -27.6711 -27.6628 -27.5723 -27.5532
   -27.5491 -27.5239 -27.5149 -27.4988 -27.4982 -27.4841 -27.4797 -27.4351
   -27.4299 -27.4070 -27.3409 -27.2947 -27.2867 -27.2669 -27.2654 -27.1464
   -27.1390 -27.1340 -27.1249 -27.1218 -27.0792 -27.0764 -27.0624 -27.0166
   -13.7322  -6.5502  -3.5594  -3.3859  -3.2118  -2.0958  -1.2016  -1.1692
    -0.8957  -0.5308  -0.4998  -0.2130  -0.0892   0.1255   0.2089   0.2665
     0.4543   0.5153   0.5396   0.7669   0.8305   0.8649   0.9795   1.0037
     1.2616   1.2724   1.2950   1.4140   1.5008   1.5484   1.6482

          k = 0.0518 0.0299 0.0000 ( 22962 PWs)   bands (ev):

   -49.0913 -49.0336 -49.0107 -48.9995 -48.9981 -48.8685 -48.8479 -48.8411
   -48.5837 -48.5615 -48.5510 -48.5491 -27.8217 -27.7167 -27.7138 -27.7109
   -27.7014 -27.6858 -27.6725 -27.6686 -27.6651 -27.6646 -27.5663 -27.5485
   -27.5432 -27.5421 -27.5242 -27.5139 -27.5047 -27.4811 -27.4777 -27.4396
   -27.4383 -27.4031 -27.3622 -27.2944 -27.2751 -27.2724 -27.2396 -27.1450
   -27.1384 -27.1353 -27.1216 -27.1176 -27.1170 -27.0823 -27.0578 -27.0198
   -13.7316  -6.5451  -3.5682  -3.3744  -3.0870  -1.9617  -1.6520  -0.8472
    -0.7285  -0.5915  -0.5868  -0.1751  -0.1597   0.1007   0.3588   0.3890
     0.5078   0.5686   0.5715   0.7885   0.8449   0.9081   0.9491   1.0278
     1.2419   1.2496   1.2759   1.2937   1.4812   1.4915   1.6034

          k = 0.0518-0.1196 0.0000 ( 23012 PWs)   bands (ev):

   -49.0910 -49.0264 -49.0148 -49.0061 -48.9945 -48.8647 -48.8524 -48.8407
   -48.5767 -48.5655 -48.5572 -48.5459 -27.8207 -27.7019 -27.6974 -27.6880
   -27.6852 -27.6772 -27.6694 -27.6600 -27.6469 -27.6353 -27.5992 -27.5606
   -27.5490 -27.5349 -27.5312 -27.5176 -27.5117 -27.4939 -27.4785 -27.4552
   -27.4440 -27.4131 -27.3868 -27.3057 -27.2589 -27.2379 -27.2049 -27.1731
   -27.1414 -27.1398 -27.1338 -27.1256 -27.1208 -27.0950 -27.0585 -27.0360
   -13.7303  -6.5351  -3.5540  -3.4077  -2.6871  -1.9581  -1.5749  -1.3003
    -0.9713  -0.5007  -0.3786  -0.0210   0.0902   0.1864   0.4418   0.4769
     0.6272   0.6774   0.6901   0.8402   0.8897   0.9412   0.9952   1.0631
     1.1168   1.1915   1.2425   1.2547   1.3416   1.3776   1.4732

          k = 0.0518-0.0897 0.0000 ( 23028 PWs)   bands (ev):

   -49.0908 -49.0187 -49.0154 -49.0147 -48.9930 -48.8592 -48.8584 -48.8404
   -48.5681 -48.5677 -48.5651 -48.5444 -27.8203 -27.6933 -27.6869 -27.6860
   -27.6630 -27.6593 -27.6537 -27.6527 -27.6516 -27.6170 -27.6165 -27.6157
   -27.5452 -27.5363 -27.5137 -27.5072 -27.4979 -27.4852 -27.4848 -27.4835
   -27.4821 -27.4024 -27.3935 -27.3172 -27.2239 -27.2219 -27.1871 -27.1868
   -27.1862 -27.1386 -27.1352 -27.1344 -27.1205 -27.0657 -27.0655 -27.0618
   -13.7297  -6.5301  -3.5028  -3.4722  -2.0871  -2.0557  -2.0287  -1.0994
    -1.0065  -0.9713   0.0404   0.0522   0.2228   0.3475   0.3552   0.3648
     0.7034   0.7533   0.8064   0.8792   0.8859   0.9682   1.0332   1.0982
     1.1234   1.1482   1.1628   1.2438   1.2667   1.3526   1.4184

          k = 0.0518-0.0598 0.0000 ( 23012 PWs)   bands (ev):

   -49.0910 -49.0264 -49.0148 -49.0061 -48.9945 -48.8645 -48.8528 -48.8406
   -48.5767 -48.5655 -48.5572 -48.5459 -27.8207 -27.7019 -27.6975 -27.6879
   -27.6853 -27.6772 -27.6694 -27.6600 -27.6469 -27.6353 -27.5992 -27.5605
   -27.5489 -27.5348 -27.5314 -27.5177 -27.5116 -27.4937 -27.4786 -27.4552
   -27.4441 -27.4134 -27.3870 -27.3055 -27.2589 -27.2379 -27.2049 -27.1731
   -27.1415 -27.1397 -27.1339 -27.1256 -27.1208 -27.0950 -27.0585 -27.0360
   -13.7303  -6.5351  -3.5540  -3.4077  -2.6871  -1.9581  -1.5749  -1.3003
    -0.9713  -0.5007  -0.3786  -0.0210   0.0902   0.1864   0.4418   0.4769
     0.6272   0.6774   0.6901   0.8402   0.8897   0.9412   0.9952   1.0631
     1.1168   1.1915   1.2425   1.2547   1.3416   1.3776   1.4732

          k =-0.0777 0.0448 0.0000 ( 23032 PWs)   bands (ev):

   -49.0910 -49.0232 -49.0209 -48.9998 -48.9979 -48.8647 -48.8523 -48.8408
   -48.5734 -48.5717 -48.5511 -48.5491 -27.8207 -27.6988 -27.6985 -27.6940
   -27.6927 -27.6882 -27.6666 -27.6635 -27.6329 -27.5920 -27.5911 -27.5663
   -27.5641 -27.5604 -27.5441 -27.5289 -27.5130 -27.4669 -27.4589 -27.4573
   -27.4457 -27.4153 -27.4048 -27.2987 -27.2568 -27.2542 -27.1648 -27.1641
   -27.1450 -27.1437 -27.1394 -27.1319 -27.1276 -27.1208 -27.0399 -27.0377
   -13.7303  -6.5350  -3.5817  -3.3747  -2.4678  -2.4082  -1.4095  -1.3149
    -0.6038  -0.5882  -0.2763  -0.1853  -0.0395  -0.0314   0.5853   0.6504
     0.6520   0.6735   0.7105   0.7775   0.8730   0.9576   0.9917   0.9995
     1.0515   1.1547   1.2436   1.3414   1.3467   1.4092   1.4265

          k =-0.0777 0.0747 0.0000 ( 23012 PWs)   bands (ev):

   -49.0910 -49.0264 -49.0148 -49.0060 -48.9946 -48.8646 -48.8526 -48.8406
   -48.5767 -48.5656 -48.5571 -48.5459 -27.8207 -27.7019 -27.6975 -27.6881
   -27.6852 -27.6772 -27.6694 -27.6600 -27.6469 -27.6353 -27.5992 -27.5606
   -27.5489 -27.5348 -27.5312 -27.5178 -27.5116 -27.4941 -27.4786 -27.4552
   -27.4436 -27.4134 -27.3870 -27.3056 -27.2589 -27.2379 -27.2049 -27.1732
   -27.1415 -27.1397 -27.1337 -27.1257 -27.1208 -27.0950 -27.0585 -27.0360
   -13.7303  -6.5351  -3.5540  -3.4077  -2.6871  -1.9581  -1.5749  -1.3003
    -0.9713  -0.5007  -0.3786  -0.0210   0.0902   0.1864   0.4418   0.4769
     0.6272   0.6774   0.6900   0.8402   0.8897   0.9412   0.9952   1.0632
     1.1169   1.1916   1.2424   1.2547   1.3416   1.3775   1.4733

          k =-0.0777 0.1046 0.0000 ( 23012 PWs)   bands (ev):

   -49.0910 -49.0264 -49.0149 -49.0060 -48.9946 -48.8647 -48.8524 -48.8408
   -48.5767 -48.5656 -48.5571 -48.5459 -27.8207 -27.7018 -27.6974 -27.6881
   -27.6852 -27.6771 -27.6693 -27.6600 -27.6469 -27.6353 -27.5992 -27.5606
   -27.5490 -27.5349 -27.5311 -27.5177 -27.5117 -27.4940 -27.4785 -27.4552
   -27.4439 -27.4131 -27.3868 -27.3057 -27.2589 -27.2379 -27.2049 -27.1732
   -27.1414 -27.1398 -27.1337 -27.1257 -27.1208 -27.0950 -27.0585 -27.0360
   -13.7303  -6.5351  -3.5540  -3.4077  -2.6871  -1.9581  -1.5749  -1.3003
    -0.9713  -0.5007  -0.3786  -0.0210   0.0902   0.1864   0.4418   0.4769
     0.6272   0.6774   0.6900   0.8402   0.8896   0.9412   0.9952   1.0632
     1.1168   1.1915   1.2424   1.2547   1.3416   1.3775   1.4733

          k =-0.0777-0.0448 0.0000 ( 23032 PWs)   bands (ev):

   -49.0910 -49.0231 -49.0211 -48.9996 -48.9981 -48.8650 -48.8518 -48.8411
   -48.5733 -48.5718 -48.5510 -48.5492 -27.8207 -27.6986 -27.6984 -27.6942
   -27.6929 -27.6881 -27.6664 -27.6637 -27.6329 -27.5919 -27.5912 -27.5662
   -27.5643 -27.5606 -27.5444 -27.5284 -27.5133 -27.4672 -27.4587 -27.4575
   -27.4459 -27.4148 -27.4044 -27.2989 -27.2567 -27.2543 -27.1649 -27.1640
   -27.1449 -27.1437 -27.1394 -27.1320 -27.1276 -27.1208 -27.0400 -27.0376
   -13.7303  -6.5350  -3.5817  -3.3747  -2.4679  -2.4082  -1.4095  -1.3149
    -0.6038  -0.5881  -0.2762  -0.1853  -0.0395  -0.0314   0.5852   0.6505
     0.6520   0.6735   0.7105   0.7775   0.8730   0.9576   0.9917   0.9995
     1.0515   1.1547   1.2435   1.3414   1.3467   1.4092   1.4265

     the Fermi energy is     0.9053 ev

!    total energy              =   -1163.41021161 Ry
     Harris-Foulkes estimate   =   -1163.41021280 Ry
     estimated scf accuracy    <       0.00000162 Ry

     The total energy is the sum of the following terms:

     one-electron contribution =   -7398.20580307 Ry
     hartree contribution      =    3685.01397077 Ry
     xc contribution           =    -176.09365994 Ry
     ewald contribution        =    2726.00859026 Ry
     electric field correction =       0.00007222 Ry
     smearing contrib. (-TS)   =      -0.13338186 Ry

     convergence has been achieved in  13 iterations
 
 BEEF-vdW xc energy contributions
           1 :   -149.203182793126     
           2 :    131.231129275722     
           3 :   -103.125727068263     
           4 :    75.6051431165047     
           5 :   -56.2873892515569     
           6 :    46.6648944205707     
           7 :   -43.2931610295617     
           8 :    41.4805776609552     
           9 :   -38.5159717459860     
          10 :    34.5011654020581     
          11 :   -30.9795673347363     
          12 :    29.0002159938549     
          13 :   -28.2138974340251     
          14 :    27.4256496136627     
          15 :   -25.8066718690780     
          16 :    23.5932911553659     
          17 :   -21.7335806540013     
          18 :    20.9274625449430     
          19 :   -20.9855380505059     
          20 :    21.0467021736622     
          21 :   -20.3767154244574     
          22 :    18.9826976227312     
          23 :   -17.5243942331384     
          24 :    16.6739028178009     
          25 :   -16.5385294513155     
          26 :    16.6365796415629     
          27 :   -16.3830330800856     
          28 :    15.6048365849549     
          29 :   -14.6351246621017     
          30 :    13.9522189785867     
          31 :   -17.6567735425546     
          32 :   -12.6252232356211     

     Forces acting on atoms (Ry/au):


     negative rho (up, down):  9.375E-05 0.000E+00
     atom    1 type  1   force =    -0.00051377   -0.00028000    0.00135980
     atom    2 type  1   force =     0.00051896   -0.00026696    0.00139819
     atom    3 type  1   force =     0.00001436    0.00057711    0.00142723
     atom    4 type  1   force =    -0.00001385   -0.00002411    0.00098272
     atom    5 type  1   force =    -0.00000896   -0.00198865    0.00152369
     atom    6 type  1   force =     0.00001169   -0.00000093    0.00435543
     atom    7 type  1   force =     0.00172532    0.00100310    0.00151608
     atom    8 type  1   force =    -0.00172250    0.00099109    0.00152510
     atom    9 type  1   force =    -0.00001149    0.00001307   -0.01124899
     atom   10 type  1   force =     0.00001359   -0.00639061   -0.00736406
     atom   11 type  1   force =    -0.00554605    0.00319886   -0.00736997
     atom   12 type  1   force =     0.00555676    0.00318718   -0.00732894
     atom   13 type  2   force =    -0.00002552   -0.00002078    0.02787860
     atom   14 type  3   force =     0.00000146    0.00000163   -0.00865489

     Total force =     0.035550     Total SCF correction =     0.001505


     entering subroutine stress ...


     negative rho (up, down):  9.375E-05 0.000E+00
          total   stress  (Ry/bohr**3)                   (kbar)     P=    4.16
   0.00004780   0.00000001  -0.00000003          7.03      0.00     -0.00
   0.00000001   0.00004778  -0.00000003          0.00      7.03     -0.00
  -0.00000003  -0.00000003  -0.00001068         -0.00     -0.00     -1.57


     number of scf cycles    =   2
     number of bfgs steps    =   1

     energy   old            =   -1163.3980592365 Ry
     energy   new            =   -1163.4102116120 Ry

     CASE: energy  _new < energy  _old

     new trust radius        =       0.0226499236 bohr
     new conv_thr            =       0.0000001000 Ry


ATOMIC_POSITIONS (crystal)
Sc1      0.166666667   0.166666667   0.395942884    0   0   0
Sc1      0.666666667   0.166666667   0.395942884    0   0   0
Sc1      0.166666667   0.666666667   0.395942884    0   0   0
Sc1      0.666666667   0.666666667   0.395942884    0   0   0
Sc1      0.833333333   0.333333333   0.500000000    0   0   0
Sc1      0.333333333   0.333333333   0.500000000    0   0   0
Sc1      0.833333333   0.833333333   0.500000000    0   0   0
Sc1      0.333333333   0.833333333   0.500000000    0   0   0
Sc1     -0.000002740  -0.000002288   0.603588249
Sc1      0.500521282  -0.001034040   0.603829015
Sc1     -0.001034576   0.500520981   0.603829257
Sc1      0.500517064   0.500515587   0.603830728
S1       0.333332140   0.333331947   0.672688143
H1       0.333333331   0.333333505   0.727014579



[...]
   -48.5542 -48.5192 -48.5079 -48.5061 -27.7497 -27.7486 -27.7460 -27.7376
   -27.7174 -27.6783 -27.6738 -27.6711 -27.6685 -27.6648 -27.6050 -27.5722
   -27.5331 -27.5306 -27.5141 -27.5122 -27.4950 -27.4450 -27.4269 -27.4222
   -27.4125 -27.3979 -27.3153 -27.2966 -27.2676 -27.2631 -27.2509 -27.1125
   -27.0976 -27.0939 -27.0932 -27.0524 -27.0509 -27.0345 -26.9837 -26.9668
   -13.6984  -6.5611  -3.6333  -3.2533  -3.2261  -2.4039  -1.1818  -0.9431
    -0.6053  -0.5904  -0.4962  -0.3695  -0.3593  -0.0449   0.0280   0.0850
     0.3526   0.4048   0.4131   0.6963   0.7181   0.7406   0.9933   1.0379
     1.3895   1.4043   1.4556   1.4592   1.6524   1.6754   1.8906

          k = 0.0259 0.0149 0.0000 ( 23008 PWs)   bands (ev):

   -49.0459 -49.0081 -49.0022 -49.0005 -48.9931 -48.8859 -48.8577 -48.8556
   -48.5542 -48.5192 -48.5079 -48.5061 -27.7497 -27.7486 -27.7460 -27.7376
   -27.7174 -27.6783 -27.6738 -27.6711 -27.6685 -27.6648 -27.6050 -27.5722
   -27.5331 -27.5306 -27.5141 -27.5122 -27.4950 -27.4450 -27.4269 -27.4222
   -27.4124 -27.3979 -27.3153 -27.2965 -27.2676 -27.2631 -27.2509 -27.1125
   -27.0976 -27.0939 -27.0932 -27.0524 -27.0509 -27.0345 -26.9837 -26.9668
   -13.6984  -6.5611  -3.6333  -3.2533  -3.2261  -2.4039  -1.1818  -0.9431
    -0.6053  -0.5904  -0.4962  -0.3695  -0.3593  -0.0449   0.0280   0.0849
     0.3526   0.4048   0.4131   0.6963   0.7181   0.7406   0.9933   1.0379
     1.3895   1.4043   1.4556   1.4592   1.6525   1.6754   1.8906

          k = 0.0259 0.0448 0.0000 ( 23004 PWs)   bands (ev):

   -49.0403 -49.0110 -49.0063 -48.9992 -48.9920 -48.8833 -48.8616 -48.8555
   -48.5492 -48.5213 -48.5117 -48.5053 -27.7434 -27.7315 -27.7141 -27.7087
   -27.7076 -27.6812 -27.6748 -27.6662 -27.6531 -27.6312 -27.5768 -27.5664
   -27.5548 -27.5375 -27.5283 -27.5020 -27.5013 -27.4867 -27.4596 -27.4380
   -27.4103 -27.4061 -27.3534 -27.3061 -27.2512 -27.2327 -27.2235 -27.1083
   -27.0977 -27.0972 -27.0919 -27.0873 -27.0426 -27.0400 -27.0221 -26.9774
   -13.6968  -6.5467  -3.4657  -3.2398  -3.1707  -2.0994  -1.2081  -1.1781
    -0.8863  -0.5360  -0.5115  -0.2269  -0.0996   0.1210   0.1971   0.2631
     0.4563   0.5116   0.5363   0.7700   0.8279   0.8492   0.9912   1.0211
     1.2584   1.2734   1.3330   1.4115   1.5014   1.5396   1.6520

          k = 0.0259-0.1046 0.0000 ( 23012 PWs)   bands (ev):

   -49.0308 -49.0186 -49.0095 -48.9979 -48.9910 -48.8790 -48.8673 -48.8552
   -48.5418 -48.5255 -48.5158 -48.5044 -27.7371 -27.7056 -27.6993 -27.6909
   -27.6821 -27.6730 -27.6636 -27.6391 -27.6248 -27.6017 -27.5819 -27.5653
   -27.5538 -27.5454 -27.5347 -27.5276 -27.5188 -27.4980 -27.4816 -27.4581
   -27.4484 -27.4049 -27.3896 -27.3188 -27.2234 -27.1990 -27.1677 -27.1350
   -27.1041 -27.0990 -27.0966 -27.0909 -27.0866 -27.0565 -27.0224 -26.9957
   -13.6953  -6.5325  -3.4190  -3.2638  -2.6882  -1.9643  -1.5778  -1.3081
    -0.9736  -0.4997  -0.3781  -0.0332   0.0873   0.1728   0.4309   0.4764
     0.6351   0.6653   0.6933   0.8514   0.8887   0.9398   0.9931   1.0674
     1.1064   1.1974   1.2444   1.2666   1.3288   1.3708   1.4725

          k = 0.0259-0.0747 0.0000 ( 23012 PWs)   bands (ev):

   -49.0308 -49.0186 -49.0095 -48.9979 -48.9910 -48.8790 -48.8672 -48.8552
   -48.5418 -48.5255 -48.5158 -48.5043 -27.7371 -27.7056 -27.6993 -27.6909
   -27.6821 -27.6730 -27.6636 -27.6391 -27.6248 -27.6017 -27.5819 -27.5653
   -27.5538 -27.5454 -27.5347 -27.5276 -27.5188 -27.4980 -27.4816 -27.4581
   -27.4484 -27.4049 -27.3896 -27.3188 -27.2234 -27.1990 -27.1677 -27.1350
   -27.1041 -27.0990 -27.0966 -27.0909 -27.0866 -27.0565 -27.0224 -26.9957
   -13.6953  -6.5325  -3.4190  -3.2638  -2.6882  -1.9643  -1.5778  -1.3081
    -0.9736  -0.4997  -0.3781  -0.0332   0.0873   0.1728   0.4309   0.4764
     0.6351   0.6653   0.6933   0.8514   0.8887   0.9398   0.9931   1.0674
     1.1064   1.1974   1.2444   1.2666   1.3288   1.3708   1.4725

          k = 0.0259-0.0448 0.0000 ( 23004 PWs)   bands (ev):

   -49.0403 -49.0110 -49.0063 -48.9992 -48.9920 -48.8833 -48.8616 -48.8555
   -48.5492 -48.5212 -48.5117 -48.5053 -27.7434 -27.7315 -27.7141 -27.7087
   -27.7076 -27.6812 -27.6748 -27.6662 -27.6531 -27.6312 -27.5768 -27.5664
   -27.5548 -27.5375 -27.5284 -27.5020 -27.5013 -27.4867 -27.4596 -27.4380
   -27.4103 -27.4060 -27.3534 -27.3061 -27.2512 -27.2327 -27.2235 -27.1083
   -27.0977 -27.0972 -27.0919 -27.0873 -27.0426 -27.0400 -27.0221 -26.9774
   -13.6968  -6.5467  -3.4657  -3.2398  -3.1707  -2.0994  -1.2081  -1.1781
    -0.8864  -0.5360  -0.5115  -0.2269  -0.0996   0.1210   0.1971   0.2631
     0.4563   0.5116   0.5363   0.7699   0.8279   0.8492   0.9912   1.0211
     1.2584   1.2734   1.3330   1.4115   1.5014   1.5396   1.6520

          k = 0.0518-0.0299 0.0000 ( 22962 PWs)   bands (ev):

   -49.0377 -49.0147 -49.0038 -49.0005 -48.9917 -48.8823 -48.8628 -48.8556
   -48.5470 -48.5234 -48.5110 -48.5061 -27.7412 -27.7186 -27.7158 -27.7111
   -27.6882 -27.6759 -27.6713 -27.6676 -27.6473 -27.6161 -27.5700 -27.5588
   -27.5471 -27.5457 -27.5372 -27.5270 -27.5076 -27.4808 -27.4619 -27.4413
   -27.4388 -27.3898 -27.3749 -27.3066 -27.2422 -27.2319 -27.2013 -27.1070
   -27.0985 -27.0941 -27.0938 -27.0834 -27.0778 -27.0421 -27.0213 -26.9802
   -13.6963  -6.5419  -3.4504  -3.2285  -3.0708  -1.9654  -1.6592  -0.8400
    -0.7313  -0.6010  -0.5993  -0.1852  -0.1707   0.1005   0.3609   0.3730
     0.5077   0.5676   0.5690   0.7847   0.8411   0.9088   0.9607   1.0353
     1.2381   1.2509   1.2822   1.3178   1.4768   1.4775   1.6182

          k = 0.0518 0.0000 0.0000 ( 23004 PWs)   bands (ev):

   -49.0403 -49.0110 -49.0063 -48.9992 -48.9920 -48.8833 -48.8616 -48.8555
   -48.5492 -48.5213 -48.5117 -48.5053 -27.7434 -27.7315 -27.7141 -27.7087
   -27.7076 -27.6812 -27.6748 -27.6662 -27.6531 -27.6312 -27.5768 -27.5664
   -27.5548 -27.5375 -27.5283 -27.5020 -27.5013 -27.4867 -27.4596 -27.4380
   -27.4103 -27.4060 -27.3534 -27.3061 -27.2512 -27.2327 -27.2235 -27.1083
   -27.0977 -27.0972 -27.0919 -27.0873 -27.0426 -27.0400 -27.0221 -26.9774
   -13.6968  -6.5467  -3.4657  -3.2398  -3.1707  -2.0994  -1.2081  -1.1781
    -0.8863  -0.5360  -0.5115  -0.2269  -0.0996   0.1210   0.1971   0.2631
     0.4563   0.5116   0.5363   0.7700   0.8279   0.8492   0.9912   1.0211
     1.2584   1.2734   1.3330   1.4115   1.5014   1.5396   1.6520

          k = 0.0518 0.0299 0.0000 ( 22962 PWs)   bands (ev):

   -49.0377 -49.0147 -49.0038 -49.0005 -48.9917 -48.8823 -48.8628 -48.8556
   -48.5470 -48.5234 -48.5109 -48.5061 -27.7412 -27.7186 -27.7158 -27.7111
   -27.6882 -27.6759 -27.6712 -27.6676 -27.6473 -27.6161 -27.5700 -27.5588
   -27.5471 -27.5457 -27.5372 -27.5270 -27.5076 -27.4808 -27.4619 -27.4413
   -27.4387 -27.3899 -27.3749 -27.3066 -27.2422 -27.2319 -27.2013 -27.1070
   -27.0985 -27.0941 -27.0938 -27.0834 -27.0779 -27.0421 -27.0213 -26.9802
   -13.6963  -6.5419  -3.4504  -3.2285  -3.0708  -1.9654  -1.6592  -0.8400
    -0.7313  -0.6010  -0.5993  -0.1852  -0.1707   0.1005   0.3609   0.3731
     0.5077   0.5676   0.5690   0.7847   0.8411   0.9089   0.9607   1.0353
     1.2381   1.2509   1.2822   1.3178   1.4768   1.4776   1.6182

          k = 0.0518-0.1196 0.0000 ( 23012 PWs)   bands (ev):

   -49.0308 -49.0186 -49.0095 -48.9979 -48.9910 -48.8789 -48.8673 -48.8552
   -48.5418 -48.5255 -48.5158 -48.5044 -27.7371 -27.7056 -27.6993 -27.6909
   -27.6821 -27.6730 -27.6636 -27.6391 -27.6248 -27.6017 -27.5819 -27.5653
   -27.5538 -27.5454 -27.5347 -27.5276 -27.5188 -27.4980 -27.4816 -27.4581
   -27.4484 -27.4049 -27.3896 -27.3187 -27.2234 -27.1991 -27.1677 -27.1350
   -27.1041 -27.0990 -27.0966 -27.0909 -27.0866 -27.0565 -27.0224 -26.9957
   -13.6953  -6.5325  -3.4190  -3.2638  -2.6882  -1.9643  -1.5778  -1.3081
    -0.9736  -0.4997  -0.3781  -0.0332   0.0873   0.1728   0.4309   0.4764
     0.6351   0.6653   0.6933   0.8514   0.8887   0.9398   0.9931   1.0674
     1.1064   1.1974   1.2444   1.2666   1.3288   1.3708   1.4725

          k = 0.0518-0.0897 0.0000 ( 23028 PWs)   bands (ev):

   -49.0248 -49.0178 -49.0178 -48.9964 -48.9906 -48.8736 -48.8733 -48.8549
   -48.5386 -48.5229 -48.5228 -48.5032 -27.7352 -27.7001 -27.6895 -27.6885
   -27.6616 -27.6611 -27.6545 -27.6208 -27.6192 -27.6187 -27.5895 -27.5836
   -27.5544 -27.5487 -27.5274 -27.5170 -27.4998 -27.4902 -27.4885 -27.4884
   -27.4856 -27.3981 -27.3942 -27.3312 -27.1889 -27.1853 -27.1486 -27.1476
   -27.1467 -27.1022 -27.0964 -27.0943 -27.0901 -27.0314 -27.0312 -27.0160
   -13.6948  -6.5279  -3.3629  -3.3308  -2.0911  -2.0632  -2.0348  -1.0947
    -1.0078  -0.9805   0.0374   0.0644   0.2189   0.3198   0.3474   0.3513
     0.7120   0.7703   0.8118   0.8460   0.8921   0.9629   1.0333   1.1147
     1.1300   1.1501   1.1507   1.2344   1.2711   1.3397   1.4170

          k = 0.0518-0.0598 0.0000 ( 23012 PWs)   bands (ev):

   -49.0308 -49.0186 -49.0095 -48.9979 -48.9910 -48.8790 -48.8672 -48.8552
   -48.5418 -48.5255 -48.5158 -48.5044 -27.7371 -27.7056 -27.6993 -27.6909
   -27.6821 -27.6730 -27.6636 -27.6391 -27.6248 -27.6017 -27.5819 -27.5653
   -27.5538 -27.5454 -27.5347 -27.5276 -27.5188 -27.4980 -27.4816 -27.4581
   -27.4484 -27.4049 -27.3896 -27.3188 -27.2234 -27.1990 -27.1677 -27.1350
   -27.1041 -27.0990 -27.0966 -27.0909 -27.0866 -27.0565 -27.0224 -26.9957
   -13.6953  -6.5325  -3.4190  -3.2638  -2.6882  -1.9643  -1.5778  -1.3081
    -0.9736  -0.4997  -0.3781  -0.0332   0.0873   0.1728   0.4309   0.4764
     0.6351   0.6653   0.6933   0.8514   0.8887   0.9398   0.9931   1.0674
     1.1064   1.1974   1.2444   1.2666   1.3288   1.3708   1.4725

          k =-0.0777 0.0448 0.0000 ( 23032 PWs)   bands (ev):

   -49.0287 -49.0235 -49.0041 -49.0005 -48.9910 -48.8794 -48.8664 -48.8556
   -48.5410 -48.5284 -48.5120 -48.5061 -27.7369 -27.7038 -27.6986 -27.6965
   -27.6939 -27.6715 -27.6667 -27.6316 -27.5959 -27.5943 -27.5718 -27.5677
   -27.5660 -27.5620 -27.5431 -27.5376 -27.5268 -27.4767 -27.4629 -27.4593
   -27.4555 -27.4282 -27.3845 -27.3125 -27.2250 -27.2112 -27.1341 -27.1224
   -27.1067 -27.1028 -27.0990 -27.0978 -27.0893 -27.0870 -27.0085 -26.9931
   -13.6953  -6.5324  -3.4458  -3.2297  -2.4741  -2.4108  -1.4087  -1.3217
    -0.6128  -0.5970  -0.2686  -0.1898  -0.0485  -0.0376   0.5992   0.6237
     0.6407   0.6745   0.7174   0.7862   0.8898   0.9472   0.9934   0.9967
     1.0550   1.1654   1.2466   1.3232   1.3258   1.4099   1.4275

          k =-0.0777 0.0747 0.0000 ( 23012 PWs)   bands (ev):

   -49.0308 -49.0185 -49.0095 -48.9979 -48.9910 -48.8790 -48.8672 -48.8552
   -48.5418 -48.5255 -48.5158 -48.5044 -27.7371 -27.7056 -27.6993 -27.6909
   -27.6821 -27.6730 -27.6636 -27.6391 -27.6248 -27.6017 -27.5819 -27.5653
   -27.5538 -27.5454 -27.5347 -27.5276 -27.5188 -27.4980 -27.4816 -27.4581
   -27.4484 -27.4049 -27.3896 -27.3188 -27.2234 -27.1990 -27.1677 -27.1350
   -27.1041 -27.0990 -27.0966 -27.0909 -27.0866 -27.0565 -27.0224 -26.9957
   -13.6953  -6.5325  -3.4190  -3.2638  -2.6882  -1.9643  -1.5778  -1.3081
    -0.9736  -0.4997  -0.3781  -0.0332   0.0873   0.1728   0.4309   0.4764
     0.6351   0.6653   0.6933   0.8514   0.8887   0.9398   0.9931   1.0674
     1.1064   1.1974   1.2444   1.2666   1.3288   1.3708   1.4725

          k =-0.0777 0.1046 0.0000 ( 23012 PWs)   bands (ev):

   -49.0308 -49.0186 -49.0095 -48.9979 -48.9910 -48.8790 -48.8673 -48.8552
   -48.5418 -48.5256 -48.5157 -48.5044 -27.7371 -27.7056 -27.6993 -27.6909
   -27.6821 -27.6730 -27.6636 -27.6391 -27.6248 -27.6017 -27.5819 -27.5653
   -27.5538 -27.5454 -27.5347 -27.5276 -27.5188 -27.4980 -27.4816 -27.4581
   -27.4484 -27.4049 -27.3896 -27.3187 -27.2234 -27.1991 -27.1677 -27.1350
   -27.1041 -27.0990 -27.0966 -27.0909 -27.0866 -27.0565 -27.0224 -26.9957
   -13.6953  -6.5325  -3.4190  -3.2638  -2.6882  -1.9643  -1.5778  -1.3081
    -0.9736  -0.4997  -0.3781  -0.0332   0.0873   0.1728   0.4309   0.4764
     0.6351   0.6653   0.6933   0.8514   0.8887   0.9398   0.9931   1.0674
     1.1064   1.1974   1.2444   1.2666   1.3288   1.3708   1.4725

          k =-0.0777-0.0448 0.0000 ( 23032 PWs)   bands (ev):

   -49.0287 -49.0235 -49.0041 -49.0005 -48.9910 -48.8794 -48.8664 -48.8556
   -48.5410 -48.5284 -48.5120 -48.5061 -27.7369 -27.7038 -27.6986 -27.6965
   -27.6940 -27.6715 -27.6667 -27.6316 -27.5959 -27.5944 -27.5717 -27.5677
   -27.5660 -27.5620 -27.5431 -27.5376 -27.5268 -27.4767 -27.4629 -27.4593
   -27.4555 -27.4282 -27.3845 -27.3125 -27.2250 -27.2112 -27.1341 -27.1225
   -27.1067 -27.1028 -27.0990 -27.0978 -27.0893 -27.0871 -27.0085 -26.9931
   -13.6953  -6.5324  -3.4458  -3.2297  -2.4741  -2.4108  -1.4087  -1.3217
    -0.6128  -0.5970  -0.2686  -0.1898  -0.0485  -0.0376   0.5992   0.6237
     0.6407   0.6745   0.7174   0.7862   0.8897   0.9472   0.9934   0.9967
     1.0550   1.1654   1.2466   1.3232   1.3258   1.4099   1.4276

     the Fermi energy is     0.9068 ev

!    total energy              =   -1163.41324981 Ry
     Harris-Foulkes estimate   =   -1163.41325003 Ry
     estimated scf accuracy    <       0.00000006 Ry

     The total energy is the sum of the following terms:

     one-electron contribution =   -7432.55743640 Ry
     hartree contribution      =    3702.25858666 Ry
     xc contribution           =    -176.11772293 Ry
     ewald contribution        =    2743.13580082 Ry
     electric field correction =       0.00007771 Ry
     smearing contrib. (-TS)   =      -0.13255568 Ry

     convergence has been achieved in  11 iterations
 
 BEEF-vdW xc energy contributions
           1 :   -149.224689773796     
           2 :    131.249829858012     
           3 :   -103.135625012528     
           4 :    75.5974544415667     
           5 :   -56.2601905501229     
           6 :    46.6320902289882     
           7 :   -43.2793459150179     
           8 :    41.5042179614306     
           9 :   -38.5739081906794     
          10 :    34.5680298607966     
          11 :   -31.0249374818525     
          12 :    29.0118471654699     
          13 :   -28.2073601588632     
          14 :    27.4294214336247     
          15 :   -25.8343391060248     
          16 :    23.6298417056876     
          17 :   -21.7512518177548     
          18 :    20.9160476716634     
          19 :   -20.9652099508425     
          20 :    21.0488856049120     
          21 :   -20.4122303556714     
          22 :    19.0299317439757     
          23 :   -17.5492667265277     
          24 :    16.6616531796138     
          25 :   -16.5071409903437     
          26 :    16.6199112259898     
          27 :   -16.3996379135662     
          28 :    15.6413253248282     
          29 :   -14.6596461371767     
          30 :    13.9460379216214     
          31 :   -17.6586572633356     
          32 :   -12.6251524100973     

     Forces acting on atoms (Ry/au):


     negative rho (up, down):  9.455E-05 0.000E+00
     atom    1 type  1   force =    -0.00004525   -0.00003136    0.00099545
     atom    2 type  1   force =     0.00004526   -0.00003241    0.00099319
     atom    3 type  1   force =    -0.00000087    0.00005774    0.00099676
     atom    4 type  1   force =     0.00000086    0.00000524    0.00093945
     atom    5 type  1   force =    -0.00000043   -0.00083720   -0.00298334
     atom    6 type  1   force =    -0.00000000   -0.00000202    0.00337211
     atom    7 type  1   force =     0.00072497    0.00042015   -0.00298647
     atom    8 type  1   force =    -0.00072368    0.00041891   -0.00298387
     atom    9 type  1   force =    -0.00000159   -0.00000241   -0.00042899
     atom   10 type  1   force =     0.00000121   -0.00088835    0.00070400
     atom   11 type  1   force =    -0.00076614    0.00044535    0.00070289
     atom   12 type  1   force =     0.00076442    0.00044284    0.00069948
     atom   13 type  2   force =     0.00000224    0.00000415    0.00091105
     atom   14 type  3   force =    -0.00000099   -0.00000063   -0.00093170

     Total force =     0.002391     Total SCF correction =     0.000656
     SCF correction compared to forces is large: reduce conv_thr to get better values


     entering subroutine stress ...


     negative rho (up, down):  9.455E-05 0.000E+00
          total   stress  (Ry/bohr**3)                   (kbar)     P=    4.01
   0.00004392  -0.00000000   0.00000000          6.46     -0.00      0.00
  -0.00000000   0.00004392   0.00000000         -0.00      6.46      0.00
   0.00000000   0.00000000  -0.00000597          0.00      0.00     -0.88


     bfgs converged in  11 scf cycles and  10 bfgs steps
     (criteria: energy <  1.0E+00, force <  1.9E-03)

     End of BFGS Geometry Optimization

     Final energy   =   -1163.4132498072 Ry
Begin final coordinates

ATOMIC_POSITIONS (crystal)
Sc1      0.166666667   0.166666667   0.395942884    0   0   0
Sc1      0.666666667   0.166666667   0.395942884    0   0   0
Sc1      0.166666667   0.666666667   0.395942884    0   0   0
Sc1      0.666666667   0.666666667   0.395942884    0   0   0
Sc1      0.833333333   0.333333333   0.500000000    0   0   0
Sc1      0.333333333   0.333333333   0.500000000    0   0   0
Sc1      0.833333333   0.833333333   0.500000000    0   0   0
Sc1      0.333333333   0.833333333   0.500000000    0   0   0
Sc1      0.000001979  -0.000000372   0.598920091
Sc1      0.500556757  -0.001109951   0.602944273
Sc1     -0.001110123   0.500557437   0.602944116
Sc1      0.500554105   0.500555172   0.602946420
S1       0.333328701   0.333328319   0.674320902
H1       0.333333040   0.333332994   0.728580518
End final coordinates



     Writing output data file calc.save
 
     init_run     :      9.29s CPU     11.55s WALL (       1 calls)
     electrons    :   2739.66s CPU   3291.58s WALL (      11 calls)
     update_pot   :     17.78s CPU     19.51s WALL (      10 calls)
     forces       :     73.94s CPU     77.49s WALL (      11 calls)
     stress       :    200.90s CPU    210.53s WALL (      11 calls)

     Called by init_run:
     wfcinit      :      6.43s CPU      8.29s WALL (       1 calls)
     potinit      :      0.91s CPU      1.06s WALL (       1 calls)

     Called by electrons:
     c_bands      :   1991.53s CPU   2390.79s WALL (     139 calls)
     sum_band     :    337.40s CPU    399.85s WALL (     139 calls)
     v_of_rho     :     85.39s CPU    105.94s WALL (     149 calls)
     newd         :    141.55s CPU    163.77s WALL (     149 calls)
     mix_rho      :      2.72s CPU      3.45s WALL (     139 calls)
     vdW_energy   :     72.56s CPU     84.57s WALL (     545 calls)
     vdW_ffts     :     99.41s CPU    125.69s WALL (    1112 calls)
     vdW_v        :     38.01s CPU     43.44s WALL (     545 calls)

     Called by c_bands:
     init_us_2    :     16.04s CPU     17.98s WALL (    6020 calls)
     cegterg      :   1900.39s CPU   2295.95s WALL (    2780 calls)

     Called by *egterg:
     h_psi        :    961.38s CPU   1292.01s WALL (   21956 calls)
     s_psi        :    122.77s CPU    126.27s WALL (   21956 calls)
     g_psi        :      7.13s CPU      7.20s WALL (   19156 calls)
     cdiaghg      :    440.96s CPU    448.37s WALL (   21716 calls)

     Called by h_psi:
     add_vuspsi   :    124.08s CPU    127.90s WALL (   21956 calls)

     General routines
     calbec       :    186.46s CPU    190.63s WALL (   25176 calls)
     fft          :    162.29s CPU    201.66s WALL (   32981 calls)
     ffts         :      0.19s CPU      0.29s WALL (     288 calls)
     fftw         :    626.65s CPU    982.72s WALL ( 1465144 calls)
     interpolate  :      1.40s CPU      2.23s WALL (     288 calls)
     davcio       :      0.00s CPU      0.09s WALL (      20 calls)
 
     Parallel routines
     fft_scatter  :    446.10s CPU    661.87s WALL ( 1498413 calls)
 
     PWSCF        :     0h50m CPU        1h 0m WALL

 
   This run was terminated on:  23:33:48  22Apr2018            

=------------------------------------------------------------------------------=
   JOB DONE.
=------------------------------------------------------------------------------=
