  python dir          : /u/if/mamunm/src/espresso
  espresso dir        : /nfs/slac/g/suncatfs/sw/espv18/espresso-dynpy-beef/bin
  pseudo dir          : /u/if/mamunm/psp/gbrv1.5pbe
  ase-espresso py git : GITVERSION



     Program PWSCF v.5.1rc2 (svn rev. 11289) starts on  3May2018 at 19:19:47 

     This program is part of the open-source Quantum ESPRESSO suite
     for quantum simulation of materials; please cite
         "P. Giannozzi et al., J. Phys.:Condens. Matter 21 395502 (2009);
          URL http://www.quantum-espresso.org", 
     in publications or presentations arising from this work. More details at
     http://www.quantum-espresso.org/quote

     Parallel version (MPI), running on    32 processors
     K-points division:     npool     =       4
     R & G space division:  proc/nbgrp/npool/nimage =       8
     Reading input from pw.inp
     Message from routine read_cards :
     DEPRECATED: no units specified in CELL_PARAMETERS card

     Current dimensions of program PWSCF are:
     Max number of different atomic species (ntypx) = 10
     Max number of k-points (npk) =  40000
     Max angular momentum in pseudopotentials (lmaxx) =  3
     Presently stress not available with electric field


     **************************************************************************
     Initializing libbeef V0.1.1 with the BEEF-vdW functional.
     Citation: Wellendorff et al., PRB 85, 235149 (2012).
     **************************************************************************


     IMPORTANT: XC functional enforced from input :
     Exchange-correlation      = BEEF-VDW ( 1  4 27 13 2)
     Any further DFT definition will be discarded
     Please, verify this is what you really want


     Subspace diagonalization in iterative solution of the eigenvalue problem:
     a serial algorithm will be used

 
     Parallelization info
     --------------------
     sticks:   dense  smooth     PW     G-vecs:    dense   smooth      PW
     Min         417     168     47                80423    20354    3153
     Max         418     169     48                80438    20375    3172
     Sum        3343    1345    379               643481   162939   25279
 


     bravais-lattice index     =            0
     lattice parameter (alat)  =       1.8897  a.u.
     unit-cell volume          =    5409.9593 (a.u.)^3
     number of atoms/cell      =           13
     number of atomic types    =            2
     number of electrons       =       233.00
     number of Kohn-Sham states=          126
     kinetic-energy cutoff     =      36.7493  Ry
     charge density cutoff     =     367.4932  Ry
     convergence threshold     =      1.0E-05
     mixing beta               =       0.3000
     number of iterations used =           10  plain     mixing
     Exchange-correlation      = BEEF-VDW ( 1  4 27 13 2)
     nstep                     =           50


     celldm(1)=   1.889726  celldm(2)=   0.000000  celldm(3)=   0.000000
     celldm(4)=   0.000000  celldm(5)=   0.000000  celldm(6)=   0.000000

     crystal axes: (cart. coord. in units of alat)
               a(1) = (   6.088539   0.000000   0.000000 )  
               a(2) = (   3.044269   5.272829   0.000000 )  
               a(3) = (   0.000000   0.000000  24.971271 )  

     reciprocal axes: (cart. coord. in units 2 pi/alat)
               b(1) = (  0.164243 -0.094826  0.000000 )  
               b(2) = (  0.000000  0.189652  0.000000 )  
               b(3) = (  0.000000  0.000000  0.040046 )  


     PseudoPot. # 1 for Ga read from file:
     /u/if/mamunm/psp/gbrv1.5pbe/Ga.UPF
     MD5 check sum: ccd671392a58a050fbb373893b4fcd66
     Pseudo is Ultrasoft + core correction, Zval = 19.0
     Generated by new atomic code, or converted to UPF format
     Using radial grid of  871 points,  6 beta functions with: 
                l(1) =   0
                l(2) =   0
                l(3) =   1
                l(4) =   1
                l(5) =   2
                l(6) =   2
     Q(r) pseudized with  8 coefficients,  rinner =    1.250   1.250   1.250
                                                       1.250   1.250

     PseudoPot. # 2 for N  read from file:
     /u/if/mamunm/psp/gbrv1.5pbe/N.UPF
     MD5 check sum: 95339753478d7afb44899504a8723017
     Pseudo is Ultrasoft + core correction, Zval =  5.0
     Generated by new atomic code, or converted to UPF format
     Using radial grid of  729 points,  4 beta functions with: 
                l(1) =   0
                l(2) =   0
                l(3) =   1
                l(4) =   1
     Q(r) pseudized with  8 coefficients,  rinner =    0.900   0.900   0.900


     vdW kernel table read from file vdW_kernel_table
     MD5 check sum: 095c7af220d748ca6e76c0b4c6cfb241

     atomic species   valence    mass     pseudopotential
        Ga1           19.00    69.72300     Ga( 1.00)
        N1             5.00    14.00700     N ( 1.00)

     No symmetry found



   Cartesian axes

     site n.     atom                  positions (alat units)
         1           Ga1 tau(   1) = (   1.5221346   0.8788048  10.0000000  )
         2           Ga1 tau(   2) = (   4.5664039   0.8788048  10.0000000  )
         3           Ga1 tau(   3) = (   3.0442693   3.5152194  10.0000000  )
         4           Ga1 tau(   4) = (   6.0885386   3.5152194  10.0000000  )
         5           Ga1 tau(   5) = (   6.0885386   1.7576097  12.4856355  )
         6           Ga1 tau(   6) = (   3.0442693   1.7576097  12.4856355  )
         7           Ga1 tau(   7) = (   7.6106732   4.3940242  12.4856355  )
         8           Ga1 tau(   8) = (   4.5664039   4.3940242  12.4856355  )
         9           Ga1 tau(   9) = (   0.0000000   0.0000000  14.9712709  )
        10           Ga1 tau(  10) = (   3.0442693   0.0000000  14.9712709  )
        11           Ga1 tau(  11) = (   1.5221346   2.6364145  14.9712709  )
        12           Ga1 tau(  12) = (   4.5664039   2.6364145  14.9712709  )
        13           N1  tau(  13) = (   3.0442693   1.7576097  16.2257709  )

     number of k points=    20  Fermi-Dirac smearing, width (Ry)=  0.0110
                       cart. coord. in units 2pi/alat
        k(    1) = (   0.0000000   0.0000000   0.0000000), wk =   0.0555556
        k(    2) = (   0.0000000   0.0316086   0.0000000), wk =   0.1111111
        k(    3) = (   0.0000000   0.0632172   0.0000000), wk =   0.1111111
        k(    4) = (   0.0000000  -0.0948258   0.0000000), wk =   0.0555556
        k(    5) = (   0.0273738  -0.0158043   0.0000000), wk =   0.1111111
        k(    6) = (   0.0273738   0.0158043   0.0000000), wk =   0.1111111
        k(    7) = (   0.0273738   0.0474129   0.0000000), wk =   0.1111111
        k(    8) = (   0.0273738  -0.1106300   0.0000000), wk =   0.1111111
        k(    9) = (   0.0273738  -0.0790215   0.0000000), wk =   0.1111111
        k(   10) = (   0.0273738  -0.0474129   0.0000000), wk =   0.1111111
        k(   11) = (   0.0547477  -0.0316086   0.0000000), wk =   0.1111111
        k(   12) = (   0.0547477   0.0000000   0.0000000), wk =   0.1111111
        k(   13) = (   0.0547477   0.0316086   0.0000000), wk =   0.1111111
        k(   14) = (   0.0547477  -0.1264343   0.0000000), wk =   0.1111111
        k(   15) = (   0.0547477  -0.0948258   0.0000000), wk =   0.1111111
        k(   16) = (   0.0547477  -0.0632172   0.0000000), wk =   0.1111111
        k(   17) = (  -0.0821215   0.0474129   0.0000000), wk =   0.0555556
        k(   18) = (  -0.0821215   0.0790215   0.0000000), wk =   0.1111111
        k(   19) = (  -0.0821215   0.1106300   0.0000000), wk =   0.1111111
        k(   20) = (  -0.0821215  -0.0474129   0.0000000), wk =   0.0555556

     Dense  grid:   643481 G-vectors     FFT dimensions: (  72,  72, 288)

     Smooth grid:   162939 G-vectors     FFT dimensions: (  45,  45, 192)

     Largest allocated arrays     est. size (Mb)     dimensions
        Kohn-Sham Wavefunctions         4.93 Mb     (    2564,  126)
        NL pseudopotentials             8.76 Mb     (    2564,  224)
        Each V/rho on FFT grid          2.85 Mb     (  186624)
        Each G-vector array             0.61 Mb     (   80438)
        G-vector shells                 0.16 Mb     (   21346)
     Largest temporary arrays     est. size (Mb)     dimensions
        Auxiliary wavefunctions        19.72 Mb     (    2564,  504)
        Each subspace H/S matrix        3.88 Mb     (     504,  504)
        Each <psi_i|beta_j> matrix      0.43 Mb     (     224,  126)
        Arrays for rho mixing          28.48 Mb     (  186624,   10)

     Initial potential from superposition of free atoms
     Check: negative starting charge=   -0.001262

     starting charge  220.99998, renormalised to  233.00000

     negative rho (up, down):  1.331E-03 0.000E+00


     ************************************************************************
     *
     * You are using vdW-DF for exchange-correlation in this calculation.
     * Please cite the following three references that made this development
     * possible:
     *
     *   M. Dion, H. Rydberg, E. Schroder, D. C. Langreth, and
     *   B. I. Lundqvist, Phys. Rev. Lett. 92, 246401 (2004).
     *
     *   T. Thonhauser, V. R. Cooper, S. Li, A. Puzder, P. Hyldgaard, and
     *   D. C. Langreth, Phys. Rev. B 76, 125112 (2007).
     *
     *   G. Roman-Perez and J. M. Soler, Phys. Rev. Lett. 103, 096102 (2009).
     *
     *
     * If you are using vdW-DF2, please also cite:
     *
     *   K. Lee, E. D. Murray, L. Kong, B. I. Lundqvist, and
     *   D. C. Langreth, Phys. Rev. B 82, 081101(R) (2010).
     *
     *
     * If you are calculating the stress with vdW-DF, please also cite:
     *
     *   R. Sabatini, E. Kucukbenli, B. Kolb, T. Thonhauser, and
     *   S. de Gironcoli, J. Phys.: Condens. Matter 24, 424209 (2012).
     *
     ************************************************************************

     Carrying out vdW-DF run using the following parameters:

     Nqs =      20    Nr_points =    1024   r_max =   100.000
     q_mesh =
               0.00001000     0.04494208     0.09755937     0.15916263
               0.23128650     0.31572767     0.41458969     0.53033537
               0.66584808     0.82450364     1.01025438     1.22772762
               1.48234092     1.78043706     2.12944203     2.53805004
               3.01644009     3.57652955     4.23227104     5.00000000

     Gradients computed in reciprocal space

     ************************************************************************


 
     Adding external electric field

     Computed dipole along edir(3) : 
        Dipole               -1.9188 Ry au,         -4.8771 Debye
        Dipole field         -0.0045 Ry au
 
        Potential amp.        0.4101 Ry
        Total length         46.0091 bohr
 
     Starting wfc are  148 randomized atomic wfcs

     total cpu time spent up to now is       13.0 secs

     per-process dynamical memory:    96.6 Mb

     Self-consistent Calculation

     iteration #  1     ecut=    36.75 Ry     beta=0.30
     Davidson diagonalization with overlap
     ethr =  1.00E-02,  avg # of iterations =  7.2

     negative rho (up, down):  6.217E-08 0.000E+00
 
     Adding external electric field

     Computed dipole along edir(3) : 
        Dipole               66.7993 Ry au,        169.7869 Debye
        Dipole field          0.1552 Ry au
 
        Potential amp.      -14.2778 Ry
        Total length         46.0091 bohr
 

     total cpu time spent up to now is       51.4 secs

     total energy              =   -4796.37445829 Ry
     Harris-Foulkes estimate   =   -5033.54401914 Ry
     estimated scf accuracy    <     500.42772773 Ry

     iteration #  2     ecut=    36.75 Ry     beta=0.30
     Davidson diagonalization with overlap
     c_bands:  2 eigenvalues not converged
     c_bands:  3 eigenvalues not converged
     c_bands:  1 eigenvalues not converged
     ethr =  1.00E-02,  avg # of iterations = 21.2
 
     Adding external electric field

     Computed dipole along edir(3) : 
        Dipole               19.0727 Ry au,         48.4778 Debye
        Dipole field          0.0443 Ry au
 
        Potential amp.       -4.0766 Ry
        Total length         46.0091 bohr
 

     total cpu time spent up to now is      140.0 secs

     total energy              =   -4601.60383620 Ry
     Harris-Foulkes estimate   =   -5542.34347047 Ry
     estimated scf accuracy    <   19178.56483221 Ry

     iteration #  3     ecut=    36.75 Ry     beta=0.30
     Davidson diagonalization with overlap
     ethr =  1.00E-02,  avg # of iterations =  9.4

     negative rho (up, down):  3.166E-02 0.000E+00
 
     Adding external electric field

     Computed dipole along edir(3) : 
        Dipole               22.0630 Ry au,         56.0787 Debye
        Dipole field          0.0512 Ry au
 
        Potential amp.       -4.7158 Ry
        Total length         46.0091 bohr
 

     total cpu time spent up to now is      183.8 secs

     total energy              =   -4892.45624329 Ry
     Harris-Foulkes estimate   =   -5103.52517847 Ry
     estimated scf accuracy    <    2380.83717798 Ry

     iteration #  4     ecut=    36.75 Ry     beta=0.30
     Davidson diagonalization with overlap
     ethr =  1.00E-02,  avg # of iterations =  6.2

     negative rho (up, down):  4.190E-02 0.000E+00
 
     Adding external electric field

     Computed dipole along edir(3) : 
        Dipole               17.1284 Ry au,         43.5359 Debye
        Dipole field          0.0398 Ry au
 
        Potential amp.       -3.6610 Ry
        Total length         46.0091 bohr
 

     total cpu time spent up to now is      222.5 secs

     total energy              =   -5024.15767178 Ry
     Harris-Foulkes estimate   =   -5037.18932352 Ry
     estimated scf accuracy    <      35.61082849 Ry

     iteration #  5     ecut=    36.75 Ry     beta=0.30
     Davidson diagonalization with overlap
     ethr =  1.00E-02,  avg # of iterations =  2.1

     negative rho (up, down):  6.863E-02 0.000E+00
 
     Adding external electric field

     Computed dipole along edir(3) : 
        Dipole               12.4476 Ry au,         31.6387 Debye
        Dipole field          0.0289 Ry au
 
        Potential amp.       -2.6606 Ry
        Total length         46.0091 bohr
 

     total cpu time spent up to now is      245.7 secs

     total energy              =   -5021.04662834 Ry
     Harris-Foulkes estimate   =   -5026.30061726 Ry
     estimated scf accuracy    <      16.43698042 Ry

     iteration #  6     ecut=    36.75 Ry     beta=0.30
     Davidson diagonalization with overlap
     ethr =  7.05E-03,  avg # of iterations =  2.0

     negative rho (up, down):  4.615E-02 0.000E+00
 
     Adding external electric field

     Computed dipole along edir(3) : 
        Dipole                8.8494 Ry au,         22.4930 Debye
        Dipole field          0.0206 Ry au
 
        Potential amp.       -1.8915 Ry
        Total length         46.0091 bohr
 

     total cpu time spent up to now is      267.9 secs

     total energy              =   -5019.95585536 Ry
     Harris-Foulkes estimate   =   -5021.85375463 Ry
     estimated scf accuracy    <       5.70915654 Ry

     iteration #  7     ecut=    36.75 Ry     beta=0.30
     Davidson diagonalization with overlap
     ethr =  2.45E-03,  avg # of iterations =  3.2

     negative rho (up, down):  8.663E-02 0.000E+00
 
     Adding external electric field

     Computed dipole along edir(3) : 
        Dipole                7.3975 Ry au,         18.8025 Debye
        Dipole field          0.0172 Ry au
 
        Potential amp.       -1.5812 Ry
        Total length         46.0091 bohr
 

     total cpu time spent up to now is      292.0 secs

     total energy              =   -5019.80386088 Ry
     Harris-Foulkes estimate   =   -5020.33699506 Ry
     estimated scf accuracy    <       4.02511374 Ry

     iteration #  8     ecut=    36.75 Ry     beta=0.30
     Davidson diagonalization with overlap
     ethr =  1.73E-03,  avg # of iterations =  1.0

     negative rho (up, down):  1.109E-01 0.000E+00
 
     Adding external electric field

     Computed dipole along edir(3) : 
        Dipole                4.8791 Ry au,         12.4016 Debye
        Dipole field          0.0113 Ry au
 
        Potential amp.       -1.0429 Ry
        Total length         46.0091 bohr
 

     total cpu time spent up to now is      313.6 secs

     total energy              =   -5019.51025065 Ry
     Harris-Foulkes estimate   =   -5019.94650104 Ry
     estimated scf accuracy    <       1.48208468 Ry

     iteration #  9     ecut=    36.75 Ry     beta=0.30
     Davidson diagonalization with overlap
     ethr =  6.36E-04,  avg # of iterations =  4.0

     negative rho (up, down):  1.469E-01 0.000E+00
 
     Adding external electric field

     Computed dipole along edir(3) : 
        Dipole                0.5152 Ry au,          1.3096 Debye
        Dipole field          0.0012 Ry au
 
        Potential amp.       -0.1101 Ry
        Total length         46.0091 bohr
 

     total cpu time spent up to now is      338.8 secs

     total energy              =   -5019.09287056 Ry
     Harris-Foulkes estimate   =   -5019.62051079 Ry
     estimated scf accuracy    <       1.30373007 Ry

     iteration # 10     ecut=    36.75 Ry     beta=0.30
     Davidson diagonalization with overlap
     ethr =  5.60E-04,  avg # of iterations =  7.9

     negative rho (up, down):  1.296E-01 0.000E+00
 
     Adding external electric field

     Computed dipole along edir(3) : 
        Dipole                1.2564 Ry au,          3.1934 Debye
        Dipole field          0.0029 Ry au
 
        Potential amp.       -0.2685 Ry
        Total length         46.0091 bohr
 

     total cpu time spent up to now is      369.7 secs

     total energy              =   -5019.25828805 Ry
     Harris-Foulkes estimate   =   -5019.34844661 Ry
     estimated scf accuracy    <       0.78648078 Ry

     iteration # 11     ecut=    36.75 Ry     beta=0.30
     Davidson diagonalization with overlap
     ethr =  3.38E-04,  avg # of iterations =  6.2

     negative rho (up, down):  1.228E-01 0.000E+00
 
     Adding external electric field

     Computed dipole along edir(3) : 
        Dipole                0.5784 Ry au,          1.4701 Debye
        Dipole field          0.0013 Ry au
 
        Potential amp.       -0.1236 Ry
        Total length         46.0091 bohr
 

     total cpu time spent up to now is      395.8 secs

     total energy              =   -5019.25118871 Ry
     Harris-Foulkes estimate   =   -5019.29596172 Ry
     estimated scf accuracy    <       0.12190922 Ry

     iteration # 12     ecut=    36.75 Ry     beta=0.30
     Davidson diagonalization with overlap
     ethr =  5.23E-05,  avg # of iterations =  5.0

     negative rho (up, down):  1.006E-01 0.000E+00
 
     Adding external electric field

     Computed dipole along edir(3) : 
        Dipole                0.5735 Ry au,          1.4577 Debye
        Dipole field          0.0013 Ry au
 
        Potential amp.       -0.1226 Ry
        Total length         46.0091 bohr
 

     total cpu time spent up to now is      423.2 secs

     total energy              =   -5019.26147205 Ry
     Harris-Foulkes estimate   =   -5019.27741897 Ry
     estimated scf accuracy    <       0.06263424 Ry

     iteration # 13     ecut=    36.75 Ry     beta=0.30
     Davidson diagonalization with overlap
     ethr =  2.69E-05,  avg # of iterations =  3.6

     negative rho (up, down):  8.926E-02 0.000E+00
 
     Adding external electric field

     Computed dipole along edir(3) : 
        Dipole               -0.0053 Ry au,         -0.0136 Debye
        Dipole field         -0.0000 Ry au
 
        Potential amp.        0.0011 Ry
        Total length         46.0091 bohr
 

     total cpu time spent up to now is      448.9 secs

     total energy              =   -5019.25924009 Ry
     Harris-Foulkes estimate   =   -5019.27154443 Ry
     estimated scf accuracy    <       0.04579233 Ry

     iteration # 14     ecut=    36.75 Ry     beta=0.30
     Davidson diagonalization with overlap
     ethr =  1.97E-05,  avg # of iterations =  6.8

     negative rho (up, down):  1.594E-02 0.000E+00
 
     Adding external electric field

     Computed dipole along edir(3) : 
        Dipole               -0.2083 Ry au,         -0.5293 Debye
        Dipole field         -0.0005 Ry au
 
        Potential amp.        0.0445 Ry
        Total length         46.0091 bohr
 

     total cpu time spent up to now is      476.7 secs

     total energy              =   -5019.25695375 Ry
     Harris-Foulkes estimate   =   -5019.26541494 Ry
     estimated scf accuracy    <       0.01745910 Ry

     iteration # 15     ecut=    36.75 Ry     beta=0.30
     Davidson diagonalization with overlap
     ethr =  7.49E-06,  avg # of iterations =  7.3

     negative rho (up, down):  1.079E-02 0.000E+00
 
     Adding external electric field

     Computed dipole along edir(3) : 
        Dipole               -0.3782 Ry au,         -0.9614 Debye
        Dipole field         -0.0009 Ry au
 
        Potential amp.        0.0808 Ry
        Total length         46.0091 bohr
 

     total cpu time spent up to now is      505.6 secs

     total energy              =   -5019.25674407 Ry
     Harris-Foulkes estimate   =   -5019.25771645 Ry
     estimated scf accuracy    <       0.00852483 Ry

     iteration # 16     ecut=    36.75 Ry     beta=0.30
     Davidson diagonalization with overlap
     ethr =  3.66E-06,  avg # of iterations =  3.2

     negative rho (up, down):  2.053E-03 0.000E+00
 
     Adding external electric field

     Computed dipole along edir(3) : 
        Dipole               -0.4200 Ry au,         -1.0675 Debye
        Dipole field         -0.0010 Ry au
 
        Potential amp.        0.0898 Ry
        Total length         46.0091 bohr
 

     total cpu time spent up to now is      529.4 secs

     total energy              =   -5019.25666088 Ry
     Harris-Foulkes estimate   =   -5019.25695238 Ry
     estimated scf accuracy    <       0.00108711 Ry

     iteration # 17     ecut=    36.75 Ry     beta=0.30
     Davidson diagonalization with overlap
     ethr =  4.67E-07,  avg # of iterations =  3.4

     negative rho (up, down):  1.605E-03 0.000E+00
 
     Adding external electric field

     Computed dipole along edir(3) : 
        Dipole               -0.4297 Ry au,         -1.0922 Debye
        Dipole field         -0.0010 Ry au
 
        Potential amp.        0.0918 Ry
        Total length         46.0091 bohr
 

     total cpu time spent up to now is      553.4 secs

     total energy              =   -5019.25676329 Ry
     Harris-Foulkes estimate   =   -5019.25675321 Ry
     estimated scf accuracy    <       0.00003910 Ry

     iteration # 18     ecut=    36.75 Ry     beta=0.30
     Davidson diagonalization with overlap
     ethr =  1.68E-08,  avg # of iterations =  4.0

     negative rho (up, down):  1.189E-03 0.000E+00

     negative rho (up, down):  1.189E-03 0.000E+00

     negative rho (up, down):  1.189E-03 0.000E+00

     negative rho (up, down):  1.189E-03 0.000E+00

     negative rho (up, down):  1.189E-03 0.000E+00

     negative rho (up, down):  1.189E-03 0.000E+00

     negative rho (up, down):  1.189E-03 0.000E+00

     negative rho (up, down):  1.189E-03 0.000E+00

     negative rho (up, down):  1.189E-03 0.000E+00

     negative rho (up, down):  1.189E-03 0.000E+00

     negative rho (up, down):  1.189E-03 0.000E+00

     negative rho (up, down):  1.189E-03 0.000E+00

     negative rho (up, down):  1.189E-03 0.000E+00

     negative rho (up, down):  1.189E-03 0.000E+00

     negative rho (up, down):  1.189E-03 0.000E+00

     negative rho (up, down):  1.189E-03 0.000E+00

     negative rho (up, down):  1.189E-03 0.000E+00

     negative rho (up, down):  1.189E-03 0.000E+00

     negative rho (up, down):  1.189E-03 0.000E+00

     negative rho (up, down):  1.189E-03 0.000E+00

     negative rho (up, down):  1.189E-03 0.000E+00

     negative rho (up, down):  1.189E-03 0.000E+00

     negative rho (up, down):  1.189E-03 0.000E+00

     negative rho (up, down):  1.189E-03 0.000E+00

     negative rho (up, down):  1.189E-03 0.000E+00

     negative rho (up, down):  1.189E-03 0.000E+00

     negative rho (up, down):  1.189E-03 0.000E+00

     negative rho (up, down):  1.189E-03 0.000E+00

     negative rho (up, down):  1.189E-03 0.000E+00

     negative rho (up, down):  1.189E-03 0.000E+00

     negative rho (up, down):  1.189E-03 0.000E+00

     negative rho (up, down):  1.189E-03 0.000E+00

     negative rho (up, down):  1.189E-03 0.000E+00

     negative rho (up, down):  1.189E-03 0.000E+00

     negative rho (up, down):  1.189E-03 0.000E+00
 
     Adding external electric field

     Computed dipole along edir(3) : 
        Dipole               -0.4147 Ry au,         -1.0541 Debye
        Dipole field         -0.0010 Ry au
 
        Potential amp.        0.0886 Ry
        Total length         46.0091 bohr
 

     total cpu time spent up to now is      631.8 secs

     End of self-consistent calculation

          k = 0.0000 0.0000 0.0000 ( 20347 PWs)   bands (ev):

   -95.0672 -95.0503 -95.0431 -95.0431 -95.0346 -95.0346 -95.0332 -95.0332
   -95.0294 -95.0249 -95.0248 -95.0247 -95.0058 -95.0055 -95.0054 -95.0048
   -95.0042 -95.0041 -94.9962 -94.9951 -94.9950 -94.9937 -94.9936 -94.9933
   -94.9862 -94.9859 -94.9859 -94.9641 -94.9635 -94.9635 -94.9603 -94.9603
   -94.9598 -94.8713 -94.8703 -94.8703 -15.6411 -15.5137 -15.5137 -15.5130
   -15.4714 -15.4713 -15.4658 -15.4657 -15.4630 -15.4570 -15.4430 -15.4430
   -15.4397 -15.4284 -15.4152 -15.4116 -15.4116 -15.4045 -15.4002 -15.4002
   -15.3907 -15.3907 -15.3881 -15.3881 -15.3695 -15.3695 -15.3601 -15.3549
   -15.3426 -15.3426 -15.3073 -15.3072 -15.2993 -15.2993 -15.2946 -15.2857
   -15.2708 -15.2707 -15.2659 -15.2658 -15.2562 -15.2385 -15.2384 -15.2294
   -15.2294 -15.2277 -15.2239 -15.2175 -15.2175 -15.2114 -15.2114 -15.2051
   -15.2051 -15.2049 -15.1967 -15.1793 -15.1793 -15.1389 -15.1389 -15.1244
   -13.2451 -10.2817  -8.5960  -6.3477  -5.2468  -5.2468  -5.1499  -5.0531
    -5.0531  -4.7773  -4.0618  -4.0618  -3.5200  -3.2142  -3.0234  -3.0234
    -2.2747  -2.1179  -2.1179  -1.7198  -1.2221  -1.0598  -1.0598   0.3520
     0.3520   0.8804   1.4097   2.7818   2.7818   2.7906

          k = 0.0000 0.0316 0.0000 ( 20271 PWs)   bands (ev):

   -95.0672 -95.0503 -95.0431 -95.0430 -95.0346 -95.0346 -95.0332 -95.0332
   -95.0294 -95.0248 -95.0247 -95.0247 -95.0057 -95.0054 -95.0054 -95.0048
   -95.0042 -95.0041 -94.9961 -94.9951 -94.9950 -94.9937 -94.9936 -94.9933
   -94.9862 -94.9859 -94.9859 -94.9640 -94.9635 -94.9634 -94.9603 -94.9603
   -94.9598 -94.8712 -94.8704 -94.8702 -15.6298 -15.5075 -15.5005 -15.5004
   -15.4665 -15.4658 -15.4580 -15.4526 -15.4518 -15.4497 -15.4374 -15.4333
   -15.4308 -15.4228 -15.4137 -15.4098 -15.4071 -15.4030 -15.3977 -15.3960
   -15.3915 -15.3857 -15.3816 -15.3774 -15.3721 -15.3672 -15.3602 -15.3499
   -15.3436 -15.3345 -15.3141 -15.3080 -15.3028 -15.2980 -15.2977 -15.2875
   -15.2774 -15.2756 -15.2724 -15.2689 -15.2582 -15.2466 -15.2426 -15.2365
   -15.2352 -15.2337 -15.2303 -15.2279 -15.2246 -15.2211 -15.2160 -15.2159
   -15.2136 -15.2095 -15.2037 -15.1867 -15.1816 -15.1533 -15.1438 -15.1330
   -13.2334 -10.1367  -8.4726  -6.6150  -6.2345  -5.7824  -5.6580  -5.2515
    -4.8441  -4.5329  -3.8645  -3.8610  -3.4782  -2.7665  -2.6785  -2.4314
    -2.1750  -2.0494  -1.9619  -1.7294  -0.7850  -0.7485  -0.1592   0.4575
     0.5247   1.0121   1.7227   1.9728   2.6146   2.8248

          k = 0.0000 0.0632 0.0000 ( 20353 PWs)   bands (ev):

   -95.0672 -95.0503 -95.0431 -95.0430 -95.0346 -95.0346 -95.0332 -95.0332
   -95.0294 -95.0248 -95.0247 -95.0247 -95.0056 -95.0053 -95.0052 -95.0049
   -95.0045 -95.0042 -94.9959 -94.9952 -94.9949 -94.9937 -94.9936 -94.9933
   -94.9862 -94.9860 -94.9859 -94.9639 -94.9636 -94.9634 -94.9603 -94.9602
   -94.9599 -94.8711 -94.8705 -94.8703 -15.6050 -15.4915 -15.4701 -15.4694
   -15.4570 -15.4462 -15.4458 -15.4367 -15.4313 -15.4289 -15.4235 -15.4177
   -15.4161 -15.4134 -15.4046 -15.4015 -15.4006 -15.3964 -15.3898 -15.3851
   -15.3838 -15.3733 -15.3642 -15.3637 -15.3612 -15.3579 -15.3518 -15.3472
   -15.3405 -15.3300 -15.3201 -15.3116 -15.3090 -15.3058 -15.2977 -15.2940
   -15.2929 -15.2905 -15.2853 -15.2743 -15.2710 -15.2648 -15.2612 -15.2577
   -15.2558 -15.2542 -15.2514 -15.2450 -15.2429 -15.2399 -15.2358 -15.2326
   -15.2216 -15.2157 -15.2054 -15.2007 -15.1875 -15.1860 -15.1677 -15.1395
   -13.2099  -9.6994  -8.1451  -7.8587  -6.4945  -6.2036  -6.1473  -5.7635
    -5.0745  -4.7007  -4.3846  -3.5160  -3.1359  -2.4430  -1.9796  -1.9486
    -1.5493  -1.4260  -1.0081  -0.4231  -0.2386   0.0027   0.4437   0.9584
     1.0437   1.3331   1.5064   1.8092   1.9711   2.7112

          k = 0.0000-0.0948 0.0000 ( 20384 PWs)   bands (ev):

   -95.0672 -95.0503 -95.0431 -95.0430 -95.0346 -95.0346 -95.0332 -95.0331
   -95.0294 -95.0248 -95.0248 -95.0247 -95.0056 -95.0051 -95.0051 -95.0050
   -95.0047 -95.0042 -94.9958 -94.9953 -94.9949 -94.9938 -94.9936 -94.9934
   -94.9861 -94.9860 -94.9859 -94.9638 -94.9636 -94.9634 -94.9604 -94.9602
   -94.9599 -94.8710 -94.8706 -94.8703 -15.5913 -15.4744 -15.4663 -15.4471
   -15.4433 -15.4430 -15.4386 -15.4353 -15.4297 -15.4197 -15.4128 -15.4106
   -15.4039 -15.4028 -15.4019 -15.3953 -15.3880 -15.3861 -15.3830 -15.3728
   -15.3716 -15.3638 -15.3595 -15.3571 -15.3560 -15.3527 -15.3498 -15.3423
   -15.3354 -15.3303 -15.3273 -15.3137 -15.3136 -15.3068 -15.3024 -15.2983
   -15.2974 -15.2944 -15.2902 -15.2886 -15.2858 -15.2826 -15.2748 -15.2737
   -15.2710 -15.2662 -15.2607 -15.2544 -15.2530 -15.2516 -15.2400 -15.2350
   -15.2212 -15.2178 -15.2127 -15.2098 -15.2054 -15.1881 -15.1842 -15.1406
   -13.1980  -9.0258  -8.8997  -7.6051  -7.1983  -6.3486  -6.2436  -5.5179
    -5.1861  -5.0913  -4.6207  -3.4987  -3.0199  -2.4322  -1.3854  -1.1462
    -0.9153  -0.8280  -0.7593  -0.3860  -0.2761   0.2811   0.7942   0.8243
     1.3825   1.5192   1.8645   1.9799   2.0041   2.3377

          k = 0.0274-0.0158 0.0000 ( 20271 PWs)   bands (ev):

   -95.0672 -95.0503 -95.0431 -95.0430 -95.0346 -95.0346 -95.0332 -95.0332
   -95.0294 -95.0248 -95.0247 -95.0247 -95.0057 -95.0054 -95.0054 -95.0048
   -95.0042 -95.0041 -94.9961 -94.9951 -94.9950 -94.9937 -94.9936 -94.9933
   -94.9862 -94.9859 -94.9859 -94.9640 -94.9635 -94.9634 -94.9603 -94.9603
   -94.9598 -94.8712 -94.8704 -94.8702 -15.6298 -15.5075 -15.5005 -15.5004
   -15.4665 -15.4658 -15.4580 -15.4526 -15.4518 -15.4497 -15.4374 -15.4333
   -15.4308 -15.4228 -15.4137 -15.4098 -15.4071 -15.4030 -15.3977 -15.3960
   -15.3915 -15.3857 -15.3816 -15.3774 -15.3721 -15.3672 -15.3602 -15.3499
   -15.3435 -15.3345 -15.3141 -15.3080 -15.3028 -15.2980 -15.2977 -15.2875
   -15.2774 -15.2755 -15.2724 -15.2689 -15.2582 -15.2466 -15.2426 -15.2365
   -15.2352 -15.2337 -15.2303 -15.2279 -15.2246 -15.2211 -15.2160 -15.2159
   -15.2136 -15.2095 -15.2037 -15.1867 -15.1815 -15.1533 -15.1438 -15.1330
   -13.2334 -10.1367  -8.4726  -6.6150  -6.2345  -5.7824  -5.6580  -5.2515
    -4.8441  -4.5329  -3.8645  -3.8610  -3.4781  -2.7665  -2.6785  -2.4314
    -2.1750  -2.0494  -1.9619  -1.7294  -0.7850  -0.7485  -0.1592   0.4575
     0.5247   1.0121   1.7227   1.9728   2.6146   2.8248

          k = 0.0274 0.0158 0.0000 ( 20271 PWs)   bands (ev):

   -95.0672 -95.0503 -95.0431 -95.0430 -95.0346 -95.0346 -95.0332 -95.0332
   -95.0294 -95.0248 -95.0247 -95.0247 -95.0057 -95.0054 -95.0054 -95.0048
   -95.0042 -95.0041 -94.9961 -94.9951 -94.9950 -94.9937 -94.9936 -94.9933
   -94.9862 -94.9859 -94.9859 -94.9640 -94.9635 -94.9635 -94.9603 -94.9603
   -94.9598 -94.8712 -94.8703 -94.8703 -15.6298 -15.5075 -15.5005 -15.5004
   -15.4665 -15.4658 -15.4580 -15.4526 -15.4518 -15.4497 -15.4374 -15.4333
   -15.4308 -15.4228 -15.4137 -15.4098 -15.4071 -15.4030 -15.3977 -15.3960
   -15.3915 -15.3857 -15.3816 -15.3774 -15.3721 -15.3672 -15.3602 -15.3499
   -15.3436 -15.3345 -15.3141 -15.3080 -15.3028 -15.2980 -15.2977 -15.2875
   -15.2774 -15.2755 -15.2724 -15.2689 -15.2582 -15.2466 -15.2426 -15.2365
   -15.2352 -15.2337 -15.2303 -15.2279 -15.2246 -15.2211 -15.2160 -15.2159
   -15.2136 -15.2095 -15.2037 -15.1867 -15.1816 -15.1533 -15.1438 -15.1330
   -13.2334 -10.1367  -8.4726  -6.6150  -6.2345  -5.7824  -5.6580  -5.2515
    -4.8441  -4.5329  -3.8645  -3.8610  -3.4782  -2.7665  -2.6785  -2.4314
    -2.1750  -2.0494  -1.9619  -1.7294  -0.7850  -0.7485  -0.1592   0.4575
     0.5247   1.0121   1.7227   1.9728   2.6146   2.8248

          k = 0.0274 0.0474 0.0000 ( 20341 PWs)   bands (ev):

   -95.0672 -95.0503 -95.0431 -95.0430 -95.0346 -95.0346 -95.0332 -95.0332
   -95.0294 -95.0248 -95.0247 -95.0247 -95.0055 -95.0054 -95.0052 -95.0048
   -95.0044 -95.0042 -94.9960 -94.9952 -94.9950 -94.9937 -94.9936 -94.9933
   -94.9862 -94.9860 -94.9859 -94.9639 -94.9635 -94.9635 -94.9604 -94.9602
   -94.9599 -94.8711 -94.8704 -94.8703 -15.6115 -15.4904 -15.4888 -15.4748
   -15.4544 -15.4533 -15.4447 -15.4429 -15.4363 -15.4310 -15.4263 -15.4242
   -15.4194 -15.4140 -15.4102 -15.4071 -15.4031 -15.3980 -15.3925 -15.3873
   -15.3846 -15.3819 -15.3748 -15.3653 -15.3627 -15.3596 -15.3551 -15.3466
   -15.3413 -15.3273 -15.3225 -15.3116 -15.3066 -15.3056 -15.2956 -15.2907
   -15.2896 -15.2853 -15.2811 -15.2762 -15.2646 -15.2633 -15.2576 -15.2527
   -15.2477 -15.2449 -15.2427 -15.2378 -15.2362 -15.2343 -15.2295 -15.2264
   -15.2231 -15.2178 -15.2078 -15.1976 -15.1862 -15.1793 -15.1484 -15.1479
   -13.2158  -9.8453  -8.2293  -7.1952  -7.1426  -6.1391  -5.8512  -5.5065
    -4.8076  -4.5873  -4.0167  -3.8732  -3.4168  -2.7646  -2.1533  -1.7808
    -1.7399  -1.4574  -1.3260  -0.9321  -0.4095  -0.0416   0.2639   0.6177
     0.9713   1.2329   1.5828   1.7507   2.2073   2.5985

          k = 0.0274-0.1106 0.0000 ( 20377 PWs)   bands (ev):

   -95.0672 -95.0503 -95.0430 -95.0430 -95.0346 -95.0346 -95.0332 -95.0332
   -95.0294 -95.0248 -95.0247 -95.0247 -95.0055 -95.0053 -95.0050 -95.0050
   -95.0046 -95.0043 -94.9958 -94.9954 -94.9949 -94.9938 -94.9936 -94.9934
   -94.9861 -94.9860 -94.9859 -94.9638 -94.9636 -94.9634 -94.9604 -94.9601
   -94.9600 -94.8710 -94.8706 -94.8703 -15.5911 -15.4718 -15.4575 -15.4528
   -15.4486 -15.4357 -15.4340 -15.4286 -15.4255 -15.4231 -15.4179 -15.4146
   -15.4106 -15.4049 -15.4031 -15.3924 -15.3900 -15.3890 -15.3836 -15.3761
   -15.3727 -15.3636 -15.3606 -15.3570 -15.3557 -15.3539 -15.3480 -15.3400
   -15.3383 -15.3327 -15.3250 -15.3177 -15.3152 -15.3134 -15.3051 -15.2997
   -15.2981 -15.2950 -15.2920 -15.2857 -15.2818 -15.2779 -15.2744 -15.2683
   -15.2647 -15.2628 -15.2594 -15.2554 -15.2500 -15.2446 -15.2415 -15.2331
   -15.2299 -15.2230 -15.2165 -15.2089 -15.2004 -15.1878 -15.1748 -15.1500
   -13.1981  -9.2606  -8.3746  -7.7253  -7.4524  -6.8318  -6.0745  -5.4959
    -4.9135  -4.7075  -4.2031  -3.7848  -3.1327  -2.4916  -1.8239  -1.5807
    -1.2175  -0.8188  -0.5067  -0.2434   0.0519   0.3031   0.6591   0.9395
     0.9783   1.4581   1.7162   1.9380   2.1861   2.5751

          k = 0.0274-0.0790 0.0000 ( 20377 PWs)   bands (ev):

   -95.0672 -95.0503 -95.0430 -95.0430 -95.0346 -95.0346 -95.0332 -95.0332
   -95.0294 -95.0248 -95.0248 -95.0247 -95.0055 -95.0053 -95.0050 -95.0050
   -95.0046 -95.0043 -94.9958 -94.9953 -94.9949 -94.9938 -94.9936 -94.9934
   -94.9861 -94.9860 -94.9859 -94.9638 -94.9637 -94.9634 -94.9604 -94.9602
   -94.9599 -94.8710 -94.8706 -94.8703 -15.5911 -15.4718 -15.4575 -15.4528
   -15.4486 -15.4357 -15.4340 -15.4286 -15.4255 -15.4231 -15.4179 -15.4147
   -15.4106 -15.4049 -15.4031 -15.3924 -15.3901 -15.3890 -15.3836 -15.3761
   -15.3727 -15.3636 -15.3606 -15.3570 -15.3557 -15.3539 -15.3480 -15.3400
   -15.3383 -15.3327 -15.3250 -15.3177 -15.3152 -15.3134 -15.3051 -15.2997
   -15.2981 -15.2950 -15.2920 -15.2857 -15.2818 -15.2779 -15.2744 -15.2683
   -15.2647 -15.2628 -15.2594 -15.2554 -15.2500 -15.2446 -15.2415 -15.2331
   -15.2299 -15.2230 -15.2165 -15.2089 -15.2004 -15.1878 -15.1748 -15.1500
   -13.1981  -9.2606  -8.3746  -7.7253  -7.4524  -6.8318  -6.0745  -5.4958
    -4.9135  -4.7075  -4.2031  -3.7848  -3.1327  -2.4916  -1.8239  -1.5807
    -1.2175  -0.8188  -0.5067  -0.2434   0.0519   0.3031   0.6591   0.9395
     0.9783   1.4581   1.7162   1.9380   2.1861   2.5751

          k = 0.0274-0.0474 0.0000 ( 20341 PWs)   bands (ev):

   -95.0672 -95.0503 -95.0431 -95.0430 -95.0346 -95.0346 -95.0332 -95.0332
   -95.0294 -95.0248 -95.0248 -95.0247 -95.0055 -95.0054 -95.0052 -95.0048
   -95.0044 -95.0042 -94.9960 -94.9952 -94.9950 -94.9937 -94.9936 -94.9933
   -94.9862 -94.9860 -94.9859 -94.9639 -94.9636 -94.9634 -94.9603 -94.9602
   -94.9599 -94.8711 -94.8705 -94.8702 -15.6115 -15.4904 -15.4888 -15.4748
   -15.4544 -15.4533 -15.4447 -15.4429 -15.4363 -15.4310 -15.4263 -15.4242
   -15.4194 -15.4140 -15.4102 -15.4071 -15.4031 -15.3980 -15.3925 -15.3873
   -15.3846 -15.3819 -15.3748 -15.3653 -15.3627 -15.3596 -15.3551 -15.3466
   -15.3413 -15.3273 -15.3225 -15.3116 -15.3066 -15.3056 -15.2956 -15.2907
   -15.2896 -15.2853 -15.2811 -15.2762 -15.2646 -15.2632 -15.2576 -15.2527
   -15.2477 -15.2449 -15.2427 -15.2378 -15.2362 -15.2343 -15.2295 -15.2264
   -15.2231 -15.2177 -15.2078 -15.1977 -15.1861 -15.1794 -15.1484 -15.1478
   -13.2158  -9.8453  -8.2293  -7.1952  -7.1426  -6.1391  -5.8512  -5.5065
    -4.8076  -4.5873  -4.0167  -3.8732  -3.4168  -2.7646  -2.1533  -1.7808
    -1.7399  -1.4574  -1.3260  -0.9321  -0.4095  -0.0416   0.2639   0.6177
     0.9713   1.2329   1.5828   1.7507   2.2073   2.5985

          k = 0.0547-0.0316 0.0000 ( 20353 PWs)   bands (ev):

   -95.0672 -95.0503 -95.0431 -95.0430 -95.0346 -95.0346 -95.0332 -95.0332
   -95.0294 -95.0248 -95.0248 -95.0247 -95.0055 -95.0053 -95.0053 -95.0049
   -95.0045 -95.0042 -94.9959 -94.9952 -94.9950 -94.9938 -94.9936 -94.9933
   -94.9862 -94.9860 -94.9859 -94.9639 -94.9636 -94.9634 -94.9603 -94.9602
   -94.9599 -94.8711 -94.8705 -94.8702 -15.6050 -15.4915 -15.4701 -15.4694
   -15.4570 -15.4462 -15.4458 -15.4367 -15.4313 -15.4289 -15.4235 -15.4177
   -15.4161 -15.4134 -15.4046 -15.4015 -15.4006 -15.3964 -15.3898 -15.3851
   -15.3837 -15.3733 -15.3642 -15.3637 -15.3612 -15.3579 -15.3518 -15.3472
   -15.3405 -15.3300 -15.3201 -15.3116 -15.3090 -15.3058 -15.2977 -15.2940
   -15.2929 -15.2905 -15.2853 -15.2742 -15.2710 -15.2648 -15.2613 -15.2577
   -15.2558 -15.2542 -15.2514 -15.2450 -15.2429 -15.2399 -15.2358 -15.2326
   -15.2216 -15.2157 -15.2054 -15.2007 -15.1875 -15.1860 -15.1677 -15.1395
   -13.2099  -9.6994  -8.1451  -7.8587  -6.4946  -6.2036  -6.1473  -5.7635
    -5.0745  -4.7007  -4.3846  -3.5159  -3.1359  -2.4430  -1.9796  -1.9486
    -1.5493  -1.4260  -1.0081  -0.4231  -0.2386   0.0027   0.4437   0.9584
     1.0437   1.3331   1.5064   1.8092   1.9711   2.7112

          k = 0.0547 0.0000 0.0000 ( 20341 PWs)   bands (ev):

   -95.0672 -95.0503 -95.0431 -95.0430 -95.0346 -95.0346 -95.0332 -95.0332
   -95.0294 -95.0248 -95.0248 -95.0247 -95.0055 -95.0054 -95.0053 -95.0048
   -95.0044 -95.0042 -94.9960 -94.9952 -94.9950 -94.9937 -94.9936 -94.9933
   -94.9862 -94.9860 -94.9859 -94.9639 -94.9635 -94.9634 -94.9604 -94.9602
   -94.9599 -94.8711 -94.8704 -94.8703 -15.6115 -15.4904 -15.4888 -15.4748
   -15.4544 -15.4533 -15.4447 -15.4429 -15.4363 -15.4310 -15.4263 -15.4242
   -15.4194 -15.4140 -15.4102 -15.4071 -15.4031 -15.3980 -15.3925 -15.3873
   -15.3846 -15.3819 -15.3748 -15.3653 -15.3627 -15.3596 -15.3551 -15.3466
   -15.3413 -15.3273 -15.3225 -15.3116 -15.3066 -15.3056 -15.2956 -15.2907
   -15.2896 -15.2853 -15.2811 -15.2762 -15.2646 -15.2632 -15.2576 -15.2527
   -15.2477 -15.2449 -15.2427 -15.2378 -15.2362 -15.2343 -15.2295 -15.2264
   -15.2231 -15.2177 -15.2078 -15.1977 -15.1861 -15.1793 -15.1484 -15.1478
   -13.2158  -9.8453  -8.2293  -7.1952  -7.1426  -6.1391  -5.8512  -5.5065
    -4.8076  -4.5873  -4.0167  -3.8732  -3.4168  -2.7646  -2.1533  -1.7808
    -1.7399  -1.4574  -1.3260  -0.9321  -0.4095  -0.0416   0.2639   0.6177
     0.9713   1.2329   1.5828   1.7507   2.2073   2.5985

          k = 0.0547 0.0316 0.0000 ( 20353 PWs)   bands (ev):

   -95.0672 -95.0503 -95.0431 -95.0430 -95.0346 -95.0346 -95.0332 -95.0332
   -95.0294 -95.0248 -95.0248 -95.0247 -95.0056 -95.0053 -95.0052 -95.0049
   -95.0045 -95.0042 -94.9959 -94.9952 -94.9949 -94.9937 -94.9936 -94.9933
   -94.9862 -94.9860 -94.9859 -94.9639 -94.9635 -94.9635 -94.9604 -94.9602
   -94.9599 -94.8711 -94.8704 -94.8703 -15.6050 -15.4916 -15.4701 -15.4694
   -15.4570 -15.4462 -15.4458 -15.4367 -15.4313 -15.4289 -15.4235 -15.4177
   -15.4161 -15.4134 -15.4046 -15.4015 -15.4006 -15.3964 -15.3898 -15.3851
   -15.3838 -15.3733 -15.3642 -15.3637 -15.3612 -15.3579 -15.3518 -15.3472
   -15.3405 -15.3300 -15.3201 -15.3116 -15.3090 -15.3058 -15.2977 -15.2940
   -15.2929 -15.2905 -15.2852 -15.2743 -15.2710 -15.2648 -15.2612 -15.2577
   -15.2558 -15.2542 -15.2514 -15.2450 -15.2429 -15.2399 -15.2358 -15.2327
   -15.2216 -15.2157 -15.2054 -15.2007 -15.1875 -15.1860 -15.1677 -15.1395
   -13.2099  -9.6994  -8.1451  -7.8587  -6.4945  -6.2036  -6.1473  -5.7635
    -5.0745  -4.7007  -4.3846  -3.5160  -3.1359  -2.4430  -1.9796  -1.9486
    -1.5493  -1.4260  -1.0080  -0.4231  -0.2387   0.0027   0.4437   0.9584
     1.0437   1.3331   1.5064   1.8092   1.9711   2.7112

          k = 0.0547-0.1264 0.0000 ( 20377 PWs)   bands (ev):

   -95.0672 -95.0503 -95.0431 -95.0430 -95.0346 -95.0346 -95.0332 -95.0332
   -95.0294 -95.0248 -95.0248 -95.0247 -95.0055 -95.0053 -95.0050 -95.0050
   -95.0047 -95.0042 -94.9958 -94.9954 -94.9949 -94.9938 -94.9936 -94.9934
   -94.9861 -94.9860 -94.9859 -94.9639 -94.9636 -94.9635 -94.9604 -94.9601
   -94.9600 -94.8710 -94.8706 -94.8703 -15.5911 -15.4718 -15.4575 -15.4528
   -15.4486 -15.4357 -15.4340 -15.4286 -15.4255 -15.4231 -15.4179 -15.4146
   -15.4106 -15.4049 -15.4031 -15.3924 -15.3900 -15.3890 -15.3836 -15.3761
   -15.3727 -15.3636 -15.3606 -15.3570 -15.3557 -15.3539 -15.3480 -15.3400
   -15.3384 -15.3327 -15.3250 -15.3177 -15.3152 -15.3134 -15.3051 -15.2997
   -15.2981 -15.2950 -15.2920 -15.2857 -15.2818 -15.2779 -15.2744 -15.2683
   -15.2647 -15.2628 -15.2594 -15.2554 -15.2500 -15.2446 -15.2415 -15.2331
   -15.2299 -15.2230 -15.2165 -15.2089 -15.2004 -15.1878 -15.1748 -15.1500
   -13.1981  -9.2606  -8.3746  -7.7253  -7.4523  -6.8318  -6.0745  -5.4958
    -4.9135  -4.7075  -4.2031  -3.7848  -3.1327  -2.4916  -1.8239  -1.5807
    -1.2175  -0.8188  -0.5067  -0.2434   0.0519   0.3031   0.6591   0.9395
     0.9783   1.4581   1.7162   1.9380   2.1861   2.5751

          k = 0.0547-0.0948 0.0000 ( 20397 PWs)   bands (ev):

   -95.0672 -95.0503 -95.0430 -95.0430 -95.0346 -95.0346 -95.0332 -95.0332
   -95.0294 -95.0248 -95.0248 -95.0247 -95.0053 -95.0052 -95.0052 -95.0048
   -95.0048 -95.0043 -94.9956 -94.9956 -94.9949 -94.9938 -94.9935 -94.9935
   -94.9861 -94.9861 -94.9859 -94.9638 -94.9637 -94.9634 -94.9604 -94.9601
   -94.9600 -94.8708 -94.8708 -94.8703 -15.5835 -15.4491 -15.4481 -15.4422
   -15.4414 -15.4348 -15.4292 -15.4270 -15.4259 -15.4233 -15.4159 -15.4147
   -15.4132 -15.3942 -15.3922 -15.3915 -15.3872 -15.3870 -15.3833 -15.3691
   -15.3611 -15.3611 -15.3583 -15.3579 -15.3542 -15.3476 -15.3445 -15.3389
   -15.3365 -15.3309 -15.3297 -15.3235 -15.3206 -15.3189 -15.3180 -15.3119
   -15.3033 -15.2968 -15.2955 -15.2880 -15.2866 -15.2818 -15.2733 -15.2720
   -15.2683 -15.2655 -15.2627 -15.2555 -15.2539 -15.2509 -15.2424 -15.2373
   -15.2337 -15.2313 -15.2234 -15.2185 -15.1911 -15.1856 -15.1786 -15.1656
   -13.1921  -8.5774  -8.5548  -8.4201  -7.1650  -7.1500  -6.6374  -5.1312
    -5.0932  -4.3898  -3.8388  -3.6640  -3.3398  -2.4890  -1.8791  -1.6699
    -0.9975  -0.9484  -0.6561  -0.1353  -0.1236   0.0490   1.2585   1.3060
     1.6010   1.9917   2.0130   2.4314   2.6024   2.6172

          k = 0.0547-0.0632 0.0000 ( 20377 PWs)   bands (ev):

   -95.0672 -95.0503 -95.0430 -95.0430 -95.0346 -95.0346 -95.0332 -95.0332
   -95.0294 -95.0248 -95.0248 -95.0247 -95.0054 -95.0053 -95.0050 -95.0050
   -95.0047 -95.0042 -94.9958 -94.9953 -94.9949 -94.9938 -94.9936 -94.9934
   -94.9861 -94.9860 -94.9859 -94.9638 -94.9637 -94.9634 -94.9604 -94.9602
   -94.9599 -94.8709 -94.8707 -94.8703 -15.5911 -15.4718 -15.4575 -15.4528
   -15.4486 -15.4357 -15.4340 -15.4286 -15.4255 -15.4231 -15.4179 -15.4146
   -15.4106 -15.4049 -15.4031 -15.3924 -15.3901 -15.3890 -15.3836 -15.3761
   -15.3727 -15.3636 -15.3606 -15.3570 -15.3557 -15.3539 -15.3480 -15.3400
   -15.3383 -15.3327 -15.3250 -15.3177 -15.3152 -15.3134 -15.3051 -15.2997
   -15.2981 -15.2950 -15.2920 -15.2857 -15.2817 -15.2779 -15.2744 -15.2683
   -15.2647 -15.2628 -15.2594 -15.2554 -15.2500 -15.2446 -15.2415 -15.2331
   -15.2299 -15.2230 -15.2165 -15.2089 -15.2004 -15.1878 -15.1748 -15.1500
   -13.1981  -9.2606  -8.3746  -7.7253  -7.4523  -6.8318  -6.0745  -5.4959
    -4.9135  -4.7075  -4.2031  -3.7848  -3.1327  -2.4916  -1.8239  -1.5807
    -1.2175  -0.8188  -0.5067  -0.2434   0.0519   0.3031   0.6591   0.9395
     0.9783   1.4581   1.7162   1.9380   2.1861   2.5751

          k =-0.0821 0.0474 0.0000 ( 20384 PWs)   bands (ev):

   -95.0672 -95.0503 -95.0431 -95.0430 -95.0346 -95.0346 -95.0332 -95.0332
   -95.0294 -95.0248 -95.0248 -95.0247 -95.0055 -95.0051 -95.0050 -95.0050
   -95.0048 -95.0042 -94.9958 -94.9953 -94.9949 -94.9938 -94.9936 -94.9934
   -94.9861 -94.9860 -94.9859 -94.9638 -94.9637 -94.9634 -94.9603 -94.9602
   -94.9599 -94.8709 -94.8707 -94.8702 -15.5913 -15.4744 -15.4663 -15.4471
   -15.4433 -15.4430 -15.4386 -15.4353 -15.4297 -15.4197 -15.4128 -15.4106
   -15.4039 -15.4028 -15.4019 -15.3953 -15.3880 -15.3861 -15.3831 -15.3728
   -15.3715 -15.3638 -15.3595 -15.3571 -15.3560 -15.3527 -15.3498 -15.3423
   -15.3354 -15.3303 -15.3273 -15.3137 -15.3136 -15.3068 -15.3024 -15.2983
   -15.2974 -15.2944 -15.2902 -15.2886 -15.2858 -15.2826 -15.2748 -15.2737
   -15.2710 -15.2662 -15.2607 -15.2544 -15.2530 -15.2516 -15.2400 -15.2350
   -15.2212 -15.2179 -15.2127 -15.2098 -15.2054 -15.1881 -15.1842 -15.1406
   -13.1980  -9.0258  -8.8997  -7.6051  -7.1984  -6.3486  -6.2436  -5.5179
    -5.1861  -5.0913  -4.6207  -3.4987  -3.0199  -2.4322  -1.3854  -1.1462
    -0.9153  -0.8280  -0.7593  -0.3860  -0.2761   0.2811   0.7942   0.8243
     1.3825   1.5192   1.8645   1.9799   2.0041   2.3377

          k =-0.0821 0.0790 0.0000 ( 20377 PWs)   bands (ev):

   -95.0672 -95.0503 -95.0431 -95.0430 -95.0346 -95.0346 -95.0332 -95.0332
   -95.0294 -95.0248 -95.0248 -95.0247 -95.0054 -95.0053 -95.0050 -95.0050
   -95.0047 -95.0042 -94.9958 -94.9953 -94.9949 -94.9938 -94.9935 -94.9934
   -94.9861 -94.9860 -94.9859 -94.9638 -94.9637 -94.9634 -94.9604 -94.9602
   -94.9599 -94.8710 -94.8707 -94.8703 -15.5911 -15.4718 -15.4575 -15.4528
   -15.4486 -15.4357 -15.4340 -15.4286 -15.4255 -15.4231 -15.4179 -15.4146
   -15.4106 -15.4049 -15.4031 -15.3924 -15.3901 -15.3890 -15.3836 -15.3761
   -15.3727 -15.3636 -15.3606 -15.3570 -15.3557 -15.3539 -15.3480 -15.3400
   -15.3383 -15.3327 -15.3250 -15.3177 -15.3152 -15.3134 -15.3051 -15.2997
   -15.2981 -15.2950 -15.2920 -15.2857 -15.2817 -15.2779 -15.2744 -15.2683
   -15.2647 -15.2628 -15.2594 -15.2554 -15.2500 -15.2446 -15.2415 -15.2331
   -15.2299 -15.2230 -15.2165 -15.2089 -15.2004 -15.1878 -15.1748 -15.1500
   -13.1981  -9.2606  -8.3746  -7.7253  -7.4524  -6.8318  -6.0745  -5.4959
    -4.9135  -4.7075  -4.2031  -3.7848  -3.1327  -2.4916  -1.8239  -1.5807
    -1.2175  -0.8188  -0.5067  -0.2434   0.0519   0.3031   0.6591   0.9395
     0.9783   1.4581   1.7162   1.9380   2.1861   2.5751

          k =-0.0821 0.1106 0.0000 ( 20377 PWs)   bands (ev):

   -95.0672 -95.0503 -95.0431 -95.0430 -95.0346 -95.0346 -95.0332 -95.0332
   -95.0294 -95.0248 -95.0248 -95.0247 -95.0055 -95.0053 -95.0050 -95.0050
   -95.0047 -95.0042 -94.9958 -94.9954 -94.9949 -94.9938 -94.9936 -94.9934
   -94.9861 -94.9860 -94.9859 -94.9639 -94.9636 -94.9634 -94.9604 -94.9601
   -94.9600 -94.8710 -94.8706 -94.8703 -15.5911 -15.4718 -15.4575 -15.4528
   -15.4486 -15.4357 -15.4340 -15.4286 -15.4255 -15.4231 -15.4179 -15.4146
   -15.4106 -15.4049 -15.4031 -15.3924 -15.3901 -15.3890 -15.3836 -15.3761
   -15.3727 -15.3636 -15.3606 -15.3570 -15.3557 -15.3539 -15.3480 -15.3400
   -15.3383 -15.3327 -15.3250 -15.3177 -15.3152 -15.3134 -15.3051 -15.2997
   -15.2981 -15.2950 -15.2920 -15.2857 -15.2818 -15.2779 -15.2744 -15.2683
   -15.2647 -15.2628 -15.2594 -15.2554 -15.2500 -15.2446 -15.2415 -15.2331
   -15.2299 -15.2230 -15.2165 -15.2089 -15.2004 -15.1878 -15.1748 -15.1500
   -13.1981  -9.2606  -8.3746  -7.7253  -7.4524  -6.8318  -6.0745  -5.4958
    -4.9135  -4.7075  -4.2031  -3.7848  -3.1327  -2.4916  -1.8239  -1.5807
    -1.2175  -0.8188  -0.5067  -0.2434   0.0519   0.3031   0.6591   0.9395
     0.9783   1.4581   1.7162   1.9380   2.1861   2.5751

          k =-0.0821-0.0474 0.0000 ( 20384 PWs)   bands (ev):

   -95.0672 -95.0503 -95.0431 -95.0430 -95.0346 -95.0346 -95.0332 -95.0331
   -95.0294 -95.0248 -95.0248 -95.0247 -95.0055 -95.0051 -95.0050 -95.0050
   -95.0048 -95.0042 -94.9958 -94.9953 -94.9949 -94.9938 -94.9936 -94.9934
   -94.9861 -94.9860 -94.9859 -94.9639 -94.9636 -94.9635 -94.9604 -94.9601
   -94.9600 -94.8710 -94.8706 -94.8703 -15.5913 -15.4744 -15.4663 -15.4471
   -15.4433 -15.4430 -15.4386 -15.4353 -15.4297 -15.4197 -15.4128 -15.4106
   -15.4039 -15.4028 -15.4019 -15.3953 -15.3880 -15.3861 -15.3831 -15.3728
   -15.3715 -15.3638 -15.3595 -15.3571 -15.3560 -15.3527 -15.3498 -15.3423
   -15.3354 -15.3303 -15.3273 -15.3137 -15.3136 -15.3068 -15.3024 -15.2983
   -15.2974 -15.2944 -15.2902 -15.2886 -15.2858 -15.2826 -15.2748 -15.2737
   -15.2710 -15.2662 -15.2606 -15.2544 -15.2530 -15.2516 -15.2400 -15.2351
   -15.2212 -15.2178 -15.2127 -15.2098 -15.2054 -15.1881 -15.1842 -15.1407
   -13.1980  -9.0258  -8.8997  -7.6051  -7.1984  -6.3486  -6.2436  -5.5179
    -5.1861  -5.0913  -4.6207  -3.4987  -3.0199  -2.4322  -1.3854  -1.1462
    -0.9153  -0.8280  -0.7593  -0.3860  -0.2761   0.2811   0.7942   0.8243
     1.3825   1.5192   1.8645   1.9799   2.0041   2.3377

     the Fermi energy is    -0.2546 ev

!    total energy              =   -5019.25676868 Ry
     Harris-Foulkes estimate   =   -5019.25680280 Ry
     estimated scf accuracy    <       0.00000666 Ry

     The total energy is the sum of the following terms:

     one-electron contribution =  -27590.42185661 Ry
     hartree contribution      =   13798.14994731 Ry
     xc contribution           =    -601.86867875 Ry
     ewald contribution        =    9374.91701448 Ry
     electric field correction =       0.00039953 Ry
     smearing contrib. (-TS)   =      -0.03359464 Ry

     convergence has been achieved in  18 iterations
 
 BEEF-vdW xc energy contributions
           1 :   -537.938031202849     
           2 :    488.293208060576     
           3 :   -405.060389936926     
           4 :    312.430221959314     
           5 :   -231.810503060503     
           6 :    173.794640742870     
           7 :   -136.656219929720     
           8 :    111.127712747525     
           9 :   -87.8488588267315     
          10 :    62.8537579859365     
          11 :   -38.3310825320547     
          12 :    19.1879013698871     
          13 :   -8.48527721792937     
          14 :    5.02044480719064     
          15 :   -4.37598542833450     
          16 :    2.17847824169587     
          17 :    3.05247680020886     
          18 :   -9.45269642944970     
          19 :    13.7898134579026     
          20 :   -14.1648225878217     
          21 :    11.4030660918804     
          22 :   -8.26491241247106     
          23 :    7.27582687943789     
          24 :   -8.91551695382361     
          25 :    11.4822953300796     
          26 :   -12.5992959863144     
          27 :    11.1089880370208     
          28 :   -7.90801738428922     
          29 :    5.16822473049990     
          30 :   -4.63756239931070     
          31 :   -39.8355584807216     
          32 :   -27.0552208770451     

     Forces acting on atoms (Ry/au):


     negative rho (up, down):  1.189E-03 0.000E+00
     atom    1 type  1   force =     0.00211409    0.00121027    0.00328253
     atom    2 type  1   force =    -0.00208230    0.00120868    0.00321429
     atom    3 type  1   force =    -0.00002662   -0.00238736    0.00323963
     atom    4 type  1   force =    -0.00000117   -0.00002728    0.00738188
     atom    5 type  1   force =     0.00000451   -0.00117523    0.00449909
     atom    6 type  1   force =     0.00000466   -0.00000184    0.00163170
     atom    7 type  1   force =     0.00100627    0.00057767    0.00425370
     atom    8 type  1   force =    -0.00102406    0.00060963    0.00410708
     atom    9 type  1   force =     0.00001357    0.00000548   -0.00541031
     atom   10 type  1   force =     0.00000047    0.01852835    0.02724753
     atom   11 type  1   force =     0.01604341   -0.00926586    0.02711888
     atom   12 type  1   force =    -0.01605396   -0.00927797    0.02734532
     atom   13 type  2   force =     0.00000112   -0.00000455   -0.10791131

     Total force =     0.122189     Total SCF correction =     0.008794


     entering subroutine stress ...


     negative rho (up, down):  1.189E-03 0.000E+00
          total   stress  (Ry/bohr**3)                   (kbar)     P=  -18.54
  -0.00013231  -0.00000000   0.00000000        -19.46     -0.00      0.00
  -0.00000000  -0.00013231  -0.00000000         -0.00    -19.46     -0.00
   0.00000000  -0.00000000  -0.00011340          0.00     -0.00    -16.68


     BFGS Geometry Optimization

     number of scf cycles    =   1
     number of bfgs steps    =   0

     energy   new            =   -5019.2567686783 Ry

     new trust radius        =       0.1079113124 bohr
     new conv_thr            =       0.0000099958 Ry


ATOMIC_POSITIONS (crystal)
Ga1      0.166666667   0.166666667   0.400460194    0   0   0
Ga1      0.666666667   0.166666667   0.400460194    0   0   0
Ga1      0.166666667   0.666666667   0.400460194    0   0   0
Ga1      0.666666667   0.666666667   0.400460194    0   0   0
Ga1      0.833333333   0.333333333   0.500000000    0   0   0
Ga1      0.333333333   0.333333333   0.500000000    0   0   0
Ga1      0.833333333   0.833333333   0.500000000    0   0   0
Ga1      0.333333333   0.833333333   0.500000000    0   0   0
Ga1      0.000000904   0.000000550   0.599425154
Ga1      0.499070295   0.001859491   0.600117220
Ga1      0.001859349   0.499070085   0.600114494
Ga1      0.499070257   0.499068870   0.600119293
N1       0.333333659   0.333332876   0.647490741



     Writing output data file calc.save
     Check: negative starting charge=   -0.001262
     NEW-OLD atomic charge density approx. for the potential
     Check: negative starting charge=   -0.001254

     negative rho (up, down):  1.223E-03 0.000E+00
 
     Adding external electric field

     Computed dipole along edir(3) : 
        Dipole               -0.3384 Ry au,         -0.8602 Debye
        Dipole field         -0.0008 Ry au
 
        Potential amp.        0.0723 Ry
        Total length         46.0091 bohr
 

     total cpu time spent up to now is      709.4 secs

     per-process dynamical memory:   136.0 Mb

     Self-consistent Calculation

     iteration #  1     ecut=    36.75 Ry     beta=0.30
     Davidson diagonalization with overlap
     c_bands:  1 eigenvalues not converged
     ethr =  1.00E-06,  avg # of iterations =  7.2

     negative rho (up, down):  1.146E-03 0.000E+00
 
     Adding external electric field

     Computed dipole along edir(3) : 
        Dipole               -1.1607 Ry au,         -2.9502 Debye
        Dipole field         -0.0027 Ry au
 
        Potential amp.        0.2481 Ry
        Total length         46.0091 bohr
 

     total cpu time spent up to now is      752.8 secs

     total energy              =   -5019.23260758 Ry
     Harris-Foulkes estimate   =   -5019.27085411 Ry
     estimated scf accuracy    <       0.08313149 Ry

     iteration #  2     ecut=    36.75 Ry     beta=0.30
     Davidson diagonalization with overlap
     ethr =  3.57E-05,  avg # of iterations =  5.2

     negative rho (up, down):  1.103E-03 0.000E+00
 
     Adding external electric field

     Computed dipole along edir(3) : 
        Dipole               -0.3575 Ry au,         -0.9087 Debye
        Dipole field         -0.0008 Ry au
 
        Potential amp.        0.0764 Ry
        Total length         46.0091 bohr
 

     total cpu time spent up to now is      781.9 secs

     total energy              =   -5019.08148250 Ry
     Harris-Foulkes estimate   =   -5019.44531095 Ry
     estimated scf accuracy    <       6.06900341 Ry

     iteration #  3     ecut=    36.75 Ry     beta=0.30
     Davidson diagonalization with overlap
     ethr =  3.57E-05,  avg # of iterations =  4.2

     negative rho (up, down):  1.108E-03 0.000E+00
 
     Adding external electric field

     Computed dipole along edir(3) : 
        Dipole               -0.3963 Ry au,         -1.0072 Debye
        Dipole field         -0.0009 Ry au
 
        Potential amp.        0.0847 Ry
        Total length         46.0091 bohr
 

     total cpu time spent up to now is      809.9 secs

     total energy              =   -5019.26894009 Ry
     Harris-Foulkes estimate   =   -5019.27109932 Ry
     estimated scf accuracy    <       0.01721883 Ry

     iteration #  4     ecut=    36.75 Ry     beta=0.30
     Davidson diagonalization with overlap
     ethr =  7.39E-06,  avg # of iterations =  2.9

     negative rho (up, down):  1.118E-03 0.000E+00
 
     Adding external electric field

     Computed dipole along edir(3) : 
        Dipole               -0.3990 Ry au,         -1.0143 Debye
        Dipole field         -0.0009 Ry au
 
        Potential amp.        0.0853 Ry
        Total length         46.0091 bohr
 

     total cpu time spent up to now is      836.0 secs

     total energy              =   -5019.27005074 Ry
     Harris-Foulkes estimate   =   -5019.27013552 Ry
     estimated scf accuracy    <       0.00072393 Ry

     iteration #  5     ecut=    36.75 Ry     beta=0.30
     Davidson diagonalization with overlap
     ethr =  3.11E-07,  avg # of iterations =  2.7

     negative rho (up, down):  1.130E-03 0.000E+00
 
     Adding external electric field

     Computed dipole along edir(3) : 
        Dipole               -0.3982 Ry au,         -1.0122 Debye
        Dipole field         -0.0009 Ry au
 
        Potential amp.        0.0851 Ry
        Total length         46.0091 bohr
 

     total cpu time spent up to now is      861.8 secs

     total energy              =   -5019.27010626 Ry
     Harris-Foulkes estimate   =   -5019.27010398 Ry
     estimated scf accuracy    <       0.00003448 Ry

     iteration #  6     ecut=    36.75 Ry     beta=0.30
     Davidson diagonalization with overlap
     ethr =  1.48E-08,  avg # of iterations =  3.0

     negative rho (up, down):  1.176E-03 0.000E+00

     negative rho (up, down):  1.176E-03 0.000E+00

     negative rho (up, down):  1.176E-03 0.000E+00

     negative rho (up, down):  1.176E-03 0.000E+00

     negative rho (up, down):  1.176E-03 0.000E+00

     negative rho (up, down):  1.176E-03 0.000E+00

     negative rho (up, down):  1.176E-03 0.000E+00

     negative rho (up, down):  1.176E-03 0.000E+00

     negative rho (up, down):  1.176E-03 0.000E+00

     negative rho (up, down):  1.176E-03 0.000E+00

     negative rho (up, down):  1.176E-03 0.000E+00

     negative rho (up, down):  1.176E-03 0.000E+00

     negative rho (up, down):  1.176E-03 0.000E+00

     negative rho (up, down):  1.176E-03 0.000E+00

     negative rho (up, down):  1.176E-03 0.000E+00

     negative rho (up, down):  1.176E-03 0.000E+00

     negative rho (up, down):  1.176E-03 0.000E+00

     negative rho (up, down):  1.176E-03 0.000E+00

     negative rho (up, down):  1.176E-03 0.000E+00

     negative rho (up, down):  1.176E-03 0.000E+00

     negative rho (up, down):  1.176E-03 0.000E+00

     negative rho (up, down):  1.176E-03 0.000E+00

     negative rho (up, down):  1.176E-03 0.000E+00

     negative rho (up, down):  1.176E-03 0.000E+00

     negative rho (up, down):  1.176E-03 0.000E+00

     negative rho (up, down):  1.176E-03 0.000E+00

     negative rho (up, down):  1.176E-03 0.000E+00

     negative rho (up, down):  1.176E-03 0.000E+00

     negative rho (up, down):  1.176E-03 0.000E+00

     negative rho (up, down):  1.176E-03 0.000E+00

     negative rho (up, down):  1.176E-03 0.000E+00

     negative rho (up, down):  1.176E-03 0.000E+00

     negative rho (up, down):  1.176E-03 0.000E+00

     negative rho (up, down):  1.176E-03 0.000E+00

     negative rho (up, down):  1.176E-03 0.000E+00
 
     Adding external electric field

     Computed dipole along edir(3) : 
        Dipole               -0.3890 Ry au,         -0.9887 Debye
        Dipole field         -0.0009 Ry au
 
        Potential amp.        0.0831 Ry
        Total length         46.0091 bohr
 

     total cpu time spent up to now is      939.0 secs

     End of self-consistent calculation

          k = 0.0000 0.0000 0.0000 ( 20347 PWs)   bands (ev):

   -95.0373 -95.0260 -95.0136 -95.0136 -95.0115 -95.0115 -95.0091 -95.0091
   -95.0068 -94.9961 -94.9960 -94.9960 -94.9771 -94.9769 -94.9769 -94.9762
   -94.9755 -94.9755 -94.9690 -94.9678 -94.9678 -94.9664 -94.9664 -94.9660
   -94.9588 -94.9584 -94.9584 -94.9393 -94.9387 -94.9387 -94.9357 -94.9357
   -94.9352 -94.8426 -94.8415 -94.8415 -15.7261 -15.4864 -15.4864 -15.4862
   -15.4448 -15.4448 -15.4388 -15.4387 -15.4361 -15.4296 -15.4181 -15.4181
   -15.4129 -15.4018 -15.3903 -15.3846 -15.3846 -15.3769 -15.3756 -15.3756
   -15.3639 -15.3639 -15.3596 -15.3596 -15.3417 -15.3417 -15.3318 -15.3288
   -15.3179 -15.3179 -15.2805 -15.2805 -15.2737 -15.2737 -15.2674 -15.2591
   -15.2437 -15.2437 -15.2378 -15.2378 -15.2314 -15.2120 -15.2120 -15.2063
   -15.2063 -15.2027 -15.1998 -15.1899 -15.1899 -15.1863 -15.1863 -15.1792
   -15.1792 -15.1769 -15.1692 -15.1587 -15.1587 -15.1140 -15.1140 -15.0981
   -13.3497 -10.2383  -8.5332  -6.3034  -5.2611  -5.2611  -5.1172  -5.0674
    -5.0673  -4.7369  -4.0980  -4.0979  -3.4709  -3.2201  -2.9891  -2.9891
    -2.2197  -2.1193  -2.1193  -1.7196  -1.1872  -1.0408  -1.0408   0.4059
     0.4059   0.9380   1.4875   2.8016   2.8016   2.8229

          k = 0.0000 0.0316 0.0000 ( 20271 PWs)   bands (ev):

   -95.0373 -95.0260 -95.0136 -95.0136 -95.0115 -95.0115 -95.0091 -95.0091
   -95.0067 -94.9961 -94.9960 -94.9960 -94.9770 -94.9768 -94.9768 -94.9762
   -94.9755 -94.9755 -94.9689 -94.9679 -94.9678 -94.9664 -94.9664 -94.9660
   -94.9587 -94.9584 -94.9584 -94.9392 -94.9387 -94.9387 -94.9357 -94.9357
   -94.9352 -94.8425 -94.8416 -94.8415 -15.7155 -15.4804 -15.4734 -15.4732
   -15.4399 -15.4393 -15.4310 -15.4255 -15.4249 -15.4228 -15.4123 -15.4080
   -15.4041 -15.3959 -15.3878 -15.3838 -15.3813 -15.3759 -15.3725 -15.3702
   -15.3644 -15.3580 -15.3545 -15.3491 -15.3445 -15.3394 -15.3320 -15.3242
   -15.3183 -15.3093 -15.2875 -15.2816 -15.2768 -15.2718 -15.2711 -15.2610
   -15.2504 -15.2483 -15.2446 -15.2414 -15.2329 -15.2198 -15.2171 -15.2121
   -15.2102 -15.2091 -15.2049 -15.2007 -15.1985 -15.1954 -15.1907 -15.1884
   -15.1883 -15.1833 -15.1774 -15.1661 -15.1610 -15.1285 -15.1187 -15.1069
   -13.3379 -10.0934  -8.4133  -6.5902  -6.1961  -5.7748  -5.6194  -5.2566
    -4.9029  -4.5182  -3.9024  -3.8633  -3.4409  -2.7882  -2.6737  -2.4055
    -2.1371  -2.0287  -1.9378  -1.7121  -0.7557  -0.7283  -0.1214   0.4867
     0.5683   1.0617   1.7612   2.0264   2.6457   2.8720

          k = 0.0000 0.0632 0.0000 ( 20353 PWs)   bands (ev):

   -95.0373 -95.0260 -95.0136 -95.0136 -95.0115 -95.0115 -95.0091 -95.0091
   -95.0068 -94.9961 -94.9960 -94.9960 -94.9769 -94.9767 -94.9766 -94.9763
   -94.9758 -94.9755 -94.9687 -94.9680 -94.9677 -94.9665 -94.9664 -94.9661
   -94.9587 -94.9585 -94.9584 -94.9391 -94.9388 -94.9387 -94.9357 -94.9356
   -94.9353 -94.8423 -94.8417 -94.8415 -15.6929 -15.4646 -15.4430 -15.4424
   -15.4304 -15.4197 -15.4191 -15.4096 -15.4048 -15.4021 -15.3971 -15.3916
   -15.3892 -15.3864 -15.3773 -15.3771 -15.3742 -15.3696 -15.3628 -15.3584
   -15.3579 -15.3467 -15.3368 -15.3366 -15.3335 -15.3298 -15.3265 -15.3193
   -15.3140 -15.3034 -15.2935 -15.2848 -15.2816 -15.2800 -15.2723 -15.2666
   -15.2666 -15.2635 -15.2585 -15.2471 -15.2441 -15.2384 -15.2357 -15.2317
   -15.2286 -15.2280 -15.2259 -15.2189 -15.2185 -15.2144 -15.2086 -15.2083
   -15.1970 -15.1906 -15.1813 -15.1796 -15.1647 -15.1627 -15.1423 -15.1139
   -13.3142  -9.6570  -8.1059  -7.8107  -6.4790  -6.1900  -6.1140  -5.7164
    -5.1255  -4.6789  -4.3773  -3.5475  -3.1457  -2.4908  -1.9632  -1.9182
    -1.5227  -1.4225  -0.9959  -0.3880  -0.1997   0.0405   0.4557   0.9781
     1.0773   1.3775   1.5343   1.8427   2.0219   2.7019

          k = 0.0000-0.0948 0.0000 ( 20384 PWs)   bands (ev):

   -95.0373 -95.0260 -95.0136 -95.0136 -95.0115 -95.0115 -95.0091 -95.0091
   -95.0068 -94.9961 -94.9960 -94.9960 -94.9769 -94.9765 -94.9764 -94.9764
   -94.9761 -94.9755 -94.9686 -94.9681 -94.9677 -94.9665 -94.9664 -94.9661
   -94.9586 -94.9585 -94.9584 -94.9391 -94.9388 -94.9387 -94.9357 -94.9355
   -94.9353 -94.8422 -94.8418 -94.8415 -15.6807 -15.4480 -15.4388 -15.4212
   -15.4168 -15.4154 -15.4116 -15.4092 -15.4020 -15.3937 -15.3865 -15.3834
   -15.3773 -15.3761 -15.3753 -15.3698 -15.3610 -15.3601 -15.3557 -15.3458
   -15.3445 -15.3359 -15.3329 -15.3323 -15.3279 -15.3250 -15.3239 -15.3165
   -15.3083 -15.3028 -15.2999 -15.2867 -15.2863 -15.2791 -15.2762 -15.2718
   -15.2714 -15.2669 -15.2632 -15.2614 -15.2581 -15.2556 -15.2487 -15.2481
   -15.2461 -15.2407 -15.2352 -15.2297 -15.2264 -15.2261 -15.2126 -15.2105
   -15.1971 -15.1936 -15.1887 -15.1878 -15.1833 -15.1628 -15.1612 -15.1151
   -13.3022  -8.9890  -8.8563  -7.5845  -7.1352  -6.3336  -6.2059  -5.5275
    -5.2330  -5.0561  -4.5597  -3.5349  -3.0352  -2.5031  -1.3869  -1.1487
    -0.8742  -0.8181  -0.7216  -0.3516  -0.2653   0.2989   0.8314   0.8411
     1.4464   1.5743   1.8865   1.9939   2.0433   2.3848

          k = 0.0274-0.0158 0.0000 ( 20271 PWs)   bands (ev):

   -95.0373 -95.0260 -95.0136 -95.0136 -95.0115 -95.0115 -95.0091 -95.0091
   -95.0067 -94.9961 -94.9960 -94.9960 -94.9770 -94.9768 -94.9768 -94.9762
   -94.9755 -94.9755 -94.9689 -94.9679 -94.9678 -94.9664 -94.9664 -94.9660
   -94.9587 -94.9584 -94.9584 -94.9392 -94.9387 -94.9387 -94.9357 -94.9357
   -94.9352 -94.8425 -94.8416 -94.8415 -15.7155 -15.4804 -15.4734 -15.4732
   -15.4399 -15.4393 -15.4310 -15.4255 -15.4249 -15.4228 -15.4123 -15.4080
   -15.4041 -15.3959 -15.3878 -15.3838 -15.3813 -15.3759 -15.3725 -15.3702
   -15.3644 -15.3580 -15.3545 -15.3491 -15.3445 -15.3394 -15.3320 -15.3242
   -15.3183 -15.3093 -15.2875 -15.2816 -15.2768 -15.2718 -15.2711 -15.2610
   -15.2504 -15.2483 -15.2446 -15.2414 -15.2329 -15.2198 -15.2171 -15.2121
   -15.2102 -15.2091 -15.2049 -15.2007 -15.1985 -15.1954 -15.1907 -15.1884
   -15.1883 -15.1833 -15.1774 -15.1661 -15.1610 -15.1285 -15.1187 -15.1069
   -13.3379 -10.0934  -8.4133  -6.5902  -6.1961  -5.7748  -5.6195  -5.2566
    -4.9029  -4.5182  -3.9023  -3.8633  -3.4409  -2.7882  -2.6737  -2.4055
    -2.1371  -2.0286  -1.9378  -1.7121  -0.7557  -0.7283  -0.1214   0.4867
     0.5683   1.0617   1.7612   2.0264   2.6457   2.8720

          k = 0.0274 0.0158 0.0000 ( 20271 PWs)   bands (ev):

   -95.0373 -95.0260 -95.0136 -95.0136 -95.0115 -95.0115 -95.0091 -95.0091
   -95.0067 -94.9961 -94.9960 -94.9960 -94.9770 -94.9768 -94.9768 -94.9762
   -94.9755 -94.9755 -94.9689 -94.9679 -94.9678 -94.9664 -94.9664 -94.9660
   -94.9587 -94.9584 -94.9584 -94.9392 -94.9387 -94.9387 -94.9357 -94.9357
   -94.9352 -94.8425 -94.8415 -94.8415 -15.7155 -15.4804 -15.4734 -15.4732
   -15.4399 -15.4393 -15.4310 -15.4255 -15.4249 -15.4228 -15.4123 -15.4080
   -15.4041 -15.3959 -15.3878 -15.3838 -15.3813 -15.3759 -15.3725 -15.3702
   -15.3644 -15.3580 -15.3545 -15.3491 -15.3445 -15.3394 -15.3320 -15.3242
   -15.3183 -15.3093 -15.2875 -15.2816 -15.2768 -15.2718 -15.2711 -15.2610
   -15.2504 -15.2483 -15.2446 -15.2414 -15.2329 -15.2198 -15.2171 -15.2121
   -15.2102 -15.2091 -15.2049 -15.2007 -15.1985 -15.1954 -15.1907 -15.1884
   -15.1883 -15.1833 -15.1774 -15.1661 -15.1610 -15.1285 -15.1187 -15.1069
   -13.3379 -10.0934  -8.4133  -6.5902  -6.1961  -5.7748  -5.6194  -5.2566
    -4.9029  -4.5182  -3.9024  -3.8633  -3.4409  -2.7882  -2.6736  -2.4055
    -2.1371  -2.0287  -1.9378  -1.7121  -0.7557  -0.7283  -0.1214   0.4866
     0.5683   1.0617   1.7612   2.0264   2.6457   2.8720

          k = 0.0274 0.0474 0.0000 ( 20341 PWs)   bands (ev):

   -95.0373 -95.0260 -95.0136 -95.0136 -95.0115 -95.0115 -95.0091 -95.0091
   -95.0067 -94.9961 -94.9960 -94.9960 -94.9769 -94.9768 -94.9767 -94.9763
   -94.9757 -94.9755 -94.9688 -94.9680 -94.9678 -94.9665 -94.9664 -94.9661
   -94.9587 -94.9585 -94.9584 -94.9391 -94.9388 -94.9387 -94.9357 -94.9356
   -94.9353 -94.8424 -94.8417 -94.8415 -15.6987 -15.4635 -15.4616 -15.4478
   -15.4278 -15.4268 -15.4174 -15.4157 -15.4103 -15.4038 -15.4009 -15.3982
   -15.3928 -15.3873 -15.3838 -15.3816 -15.3757 -15.3714 -15.3664 -15.3614
   -15.3580 -15.3548 -15.3477 -15.3377 -15.3351 -15.3315 -15.3279 -15.3208
   -15.3150 -15.3011 -15.2958 -15.2851 -15.2802 -15.2793 -15.2698 -15.2637
   -15.2626 -15.2586 -15.2540 -15.2491 -15.2382 -15.2366 -15.2307 -15.2270
   -15.2231 -15.2197 -15.2162 -15.2112 -15.2103 -15.2079 -15.2043 -15.2010
   -15.1980 -15.1916 -15.1843 -15.1762 -15.1653 -15.1548 -15.1233 -15.1219
   -13.3202  -9.8025  -8.1786  -7.1599  -7.1080  -6.1348  -5.8493  -5.4568
    -4.8014  -4.6017  -4.0582  -3.8809  -3.3984  -2.7815  -2.1532  -1.7634
    -1.7403  -1.4250  -1.3010  -0.9222  -0.3790  -0.0091   0.3031   0.6677
     0.9888   1.2702   1.6237   1.7785   2.2317   2.6456

          k = 0.0274-0.1106 0.0000 ( 20377 PWs)   bands (ev):

   -95.0373 -95.0260 -95.0136 -95.0136 -95.0115 -95.0115 -95.0091 -95.0091
   -95.0068 -94.9961 -94.9960 -94.9960 -94.9768 -94.9767 -94.9764 -94.9764
   -94.9760 -94.9756 -94.9686 -94.9681 -94.9677 -94.9665 -94.9663 -94.9661
   -94.9586 -94.9585 -94.9584 -94.9391 -94.9388 -94.9387 -94.9358 -94.9355
   -94.9353 -94.8422 -94.8418 -94.8415 -15.6806 -15.4451 -15.4305 -15.4261
   -15.4215 -15.4095 -15.4072 -15.4014 -15.3991 -15.3962 -15.3915 -15.3884
   -15.3834 -15.3781 -15.3764 -15.3665 -15.3641 -15.3622 -15.3566 -15.3494
   -15.3461 -15.3367 -15.3329 -15.3304 -15.3282 -15.3261 -15.3221 -15.3136
   -15.3122 -15.3059 -15.2981 -15.2909 -15.2877 -15.2856 -15.2786 -15.2740
   -15.2713 -15.2688 -15.2650 -15.2589 -15.2548 -15.2509 -15.2482 -15.2423
   -15.2386 -15.2361 -15.2337 -15.2296 -15.2238 -15.2188 -15.2154 -15.2088
   -15.2051 -15.1979 -15.1945 -15.1857 -15.1774 -15.1663 -15.1493 -15.1246
   -13.3022  -9.2196  -8.3376  -7.6893  -7.4150  -6.7957  -6.0691  -5.4764
    -4.9065  -4.6916  -4.2369  -3.7644  -3.1287  -2.5650  -1.8278  -1.5837
    -1.1899  -0.8096  -0.4742  -0.2171   0.0859   0.3178   0.6956   0.9672
     1.0121   1.5064   1.7611   1.9546   2.2165   2.6108

          k = 0.0274-0.0790 0.0000 ( 20377 PWs)   bands (ev):

   -95.0373 -95.0260 -95.0136 -95.0136 -95.0115 -95.0115 -95.0091 -95.0091
   -95.0068 -94.9961 -94.9960 -94.9960 -94.9768 -94.9767 -94.9764 -94.9764
   -94.9760 -94.9756 -94.9686 -94.9681 -94.9677 -94.9665 -94.9663 -94.9661
   -94.9586 -94.9585 -94.9584 -94.9390 -94.9389 -94.9387 -94.9358 -94.9355
   -94.9353 -94.8422 -94.8419 -94.8415 -15.6806 -15.4451 -15.4305 -15.4261
   -15.4215 -15.4095 -15.4072 -15.4014 -15.3991 -15.3962 -15.3915 -15.3884
   -15.3834 -15.3781 -15.3764 -15.3665 -15.3641 -15.3622 -15.3566 -15.3494
   -15.3461 -15.3367 -15.3329 -15.3304 -15.3282 -15.3261 -15.3221 -15.3136
   -15.3122 -15.3059 -15.2981 -15.2909 -15.2877 -15.2856 -15.2786 -15.2740
   -15.2713 -15.2688 -15.2650 -15.2589 -15.2548 -15.2509 -15.2482 -15.2423
   -15.2386 -15.2361 -15.2337 -15.2296 -15.2238 -15.2188 -15.2154 -15.2088
   -15.2051 -15.1979 -15.1945 -15.1857 -15.1774 -15.1663 -15.1493 -15.1246
   -13.3022  -9.2196  -8.3376  -7.6894  -7.4150  -6.7957  -6.0691  -5.4764
    -4.9065  -4.6916  -4.2369  -3.7645  -3.1287  -2.5650  -1.8278  -1.5837
    -1.1899  -0.8095  -0.4742  -0.2171   0.0859   0.3178   0.6956   0.9672
     1.0121   1.5064   1.7611   1.9546   2.2165   2.6108

          k = 0.0274-0.0474 0.0000 ( 20341 PWs)   bands (ev):

   -95.0373 -95.0260 -95.0136 -95.0136 -95.0115 -95.0115 -95.0091 -95.0091
   -95.0067 -94.9961 -94.9960 -94.9960 -94.9769 -94.9768 -94.9767 -94.9763
   -94.9757 -94.9755 -94.9688 -94.9680 -94.9678 -94.9665 -94.9664 -94.9661
   -94.9587 -94.9585 -94.9584 -94.9391 -94.9388 -94.9387 -94.9357 -94.9356
   -94.9353 -94.8424 -94.8417 -94.8415 -15.6988 -15.4635 -15.4616 -15.4478
   -15.4278 -15.4268 -15.4174 -15.4157 -15.4103 -15.4038 -15.4009 -15.3982
   -15.3928 -15.3873 -15.3838 -15.3816 -15.3757 -15.3714 -15.3664 -15.3614
   -15.3580 -15.3548 -15.3477 -15.3377 -15.3351 -15.3315 -15.3279 -15.3208
   -15.3150 -15.3011 -15.2958 -15.2851 -15.2802 -15.2793 -15.2698 -15.2637
   -15.2626 -15.2586 -15.2540 -15.2491 -15.2382 -15.2366 -15.2307 -15.2269
   -15.2231 -15.2197 -15.2162 -15.2112 -15.2103 -15.2079 -15.2043 -15.2010
   -15.1980 -15.1916 -15.1843 -15.1762 -15.1653 -15.1548 -15.1233 -15.1219
   -13.3202  -9.8025  -8.1786  -7.1599  -7.1080  -6.1348  -5.8494  -5.4569
    -4.8015  -4.6018  -4.0582  -3.8809  -3.3984  -2.7815  -2.1532  -1.7634
    -1.7403  -1.4249  -1.3010  -0.9222  -0.3790  -0.0091   0.3031   0.6676
     0.9888   1.2702   1.6237   1.7785   2.2317   2.6456

          k = 0.0547-0.0316 0.0000 ( 20353 PWs)   bands (ev):

   -95.0373 -95.0260 -95.0136 -95.0136 -95.0115 -95.0115 -95.0091 -95.0091
   -95.0068 -94.9961 -94.9960 -94.9960 -94.9769 -94.9767 -94.9766 -94.9763
   -94.9758 -94.9755 -94.9687 -94.9680 -94.9677 -94.9665 -94.9664 -94.9661
   -94.9587 -94.9585 -94.9584 -94.9391 -94.9388 -94.9387 -94.9357 -94.9356
   -94.9353 -94.8423 -94.8417 -94.8415 -15.6929 -15.4646 -15.4430 -15.4424
   -15.4304 -15.4197 -15.4191 -15.4096 -15.4048 -15.4021 -15.3971 -15.3916
   -15.3892 -15.3864 -15.3773 -15.3771 -15.3742 -15.3696 -15.3628 -15.3584
   -15.3579 -15.3467 -15.3368 -15.3366 -15.3335 -15.3298 -15.3265 -15.3193
   -15.3140 -15.3034 -15.2935 -15.2848 -15.2816 -15.2800 -15.2723 -15.2666
   -15.2666 -15.2635 -15.2585 -15.2471 -15.2441 -15.2384 -15.2357 -15.2317
   -15.2286 -15.2280 -15.2259 -15.2189 -15.2185 -15.2144 -15.2086 -15.2083
   -15.1970 -15.1906 -15.1813 -15.1796 -15.1647 -15.1627 -15.1423 -15.1139
   -13.3142  -9.6570  -8.1059  -7.8107  -6.4790  -6.1900  -6.1140  -5.7164
    -5.1255  -4.6789  -4.3773  -3.5475  -3.1457  -2.4908  -1.9632  -1.9182
    -1.5227  -1.4226  -0.9959  -0.3880  -0.1997   0.0405   0.4557   0.9781
     1.0773   1.3775   1.5342   1.8427   2.0219   2.7019

          k = 0.0547 0.0000 0.0000 ( 20341 PWs)   bands (ev):

   -95.0373 -95.0260 -95.0136 -95.0136 -95.0115 -95.0115 -95.0091 -95.0091
   -95.0067 -94.9961 -94.9960 -94.9960 -94.9769 -94.9768 -94.9767 -94.9763
   -94.9757 -94.9755 -94.9688 -94.9680 -94.9678 -94.9665 -94.9664 -94.9661
   -94.9587 -94.9585 -94.9584 -94.9391 -94.9388 -94.9387 -94.9357 -94.9356
   -94.9353 -94.8424 -94.8417 -94.8415 -15.6987 -15.4635 -15.4616 -15.4478
   -15.4278 -15.4268 -15.4174 -15.4157 -15.4103 -15.4038 -15.4009 -15.3982
   -15.3928 -15.3873 -15.3838 -15.3816 -15.3757 -15.3714 -15.3664 -15.3614
   -15.3580 -15.3548 -15.3477 -15.3377 -15.3351 -15.3315 -15.3279 -15.3208
   -15.3150 -15.3011 -15.2958 -15.2851 -15.2802 -15.2793 -15.2698 -15.2637
   -15.2626 -15.2586 -15.2540 -15.2491 -15.2382 -15.2366 -15.2307 -15.2269
   -15.2231 -15.2197 -15.2162 -15.2112 -15.2103 -15.2079 -15.2043 -15.2010
   -15.1980 -15.1916 -15.1843 -15.1762 -15.1653 -15.1548 -15.1233 -15.1219
   -13.3202  -9.8025  -8.1786  -7.1599  -7.1080  -6.1348  -5.8493  -5.4568
    -4.8015  -4.6018  -4.0582  -3.8809  -3.3984  -2.7815  -2.1532  -1.7634
    -1.7403  -1.4249  -1.3010  -0.9222  -0.3790  -0.0091   0.3031   0.6676
     0.9888   1.2702   1.6237   1.7785   2.2317   2.6456

          k = 0.0547 0.0316 0.0000 ( 20353 PWs)   bands (ev):

   -95.0373 -95.0260 -95.0136 -95.0136 -95.0115 -95.0115 -95.0091 -95.0091
   -95.0068 -94.9961 -94.9960 -94.9960 -94.9769 -94.9767 -94.9766 -94.9763
   -94.9758 -94.9755 -94.9687 -94.9680 -94.9677 -94.9665 -94.9664 -94.9661
   -94.9587 -94.9585 -94.9584 -94.9391 -94.9388 -94.9387 -94.9357 -94.9356
   -94.9353 -94.8423 -94.8417 -94.8415 -15.6929 -15.4646 -15.4430 -15.4424
   -15.4304 -15.4197 -15.4191 -15.4096 -15.4048 -15.4021 -15.3971 -15.3916
   -15.3892 -15.3864 -15.3773 -15.3771 -15.3742 -15.3696 -15.3628 -15.3584
   -15.3579 -15.3467 -15.3368 -15.3367 -15.3335 -15.3298 -15.3265 -15.3193
   -15.3140 -15.3034 -15.2935 -15.2848 -15.2816 -15.2800 -15.2723 -15.2666
   -15.2666 -15.2635 -15.2585 -15.2471 -15.2441 -15.2384 -15.2357 -15.2317
   -15.2286 -15.2280 -15.2259 -15.2189 -15.2185 -15.2144 -15.2086 -15.2083
   -15.1970 -15.1906 -15.1813 -15.1796 -15.1647 -15.1627 -15.1423 -15.1139
   -13.3142  -9.6570  -8.1059  -7.8107  -6.4790  -6.1900  -6.1139  -5.7163
    -5.1254  -4.6789  -4.3773  -3.5475  -3.1457  -2.4908  -1.9632  -1.9182
    -1.5227  -1.4225  -0.9959  -0.3881  -0.1997   0.0405   0.4557   0.9781
     1.0773   1.3775   1.5343   1.8427   2.0219   2.7019

          k = 0.0547-0.1264 0.0000 ( 20377 PWs)   bands (ev):

   -95.0373 -95.0260 -95.0136 -95.0136 -95.0115 -95.0115 -95.0091 -95.0091
   -95.0068 -94.9961 -94.9960 -94.9960 -94.9769 -94.9767 -94.9764 -94.9764
   -94.9760 -94.9756 -94.9686 -94.9681 -94.9677 -94.9665 -94.9663 -94.9661
   -94.9586 -94.9585 -94.9584 -94.9391 -94.9388 -94.9387 -94.9358 -94.9355
   -94.9353 -94.8422 -94.8418 -94.8415 -15.6806 -15.4451 -15.4305 -15.4261
   -15.4215 -15.4095 -15.4072 -15.4014 -15.3991 -15.3962 -15.3915 -15.3884
   -15.3834 -15.3780 -15.3764 -15.3665 -15.3641 -15.3622 -15.3566 -15.3494
   -15.3461 -15.3367 -15.3329 -15.3304 -15.3282 -15.3261 -15.3221 -15.3136
   -15.3122 -15.3059 -15.2981 -15.2909 -15.2877 -15.2856 -15.2785 -15.2740
   -15.2713 -15.2688 -15.2650 -15.2589 -15.2548 -15.2509 -15.2482 -15.2423
   -15.2386 -15.2361 -15.2337 -15.2296 -15.2238 -15.2188 -15.2154 -15.2088
   -15.2051 -15.1979 -15.1945 -15.1857 -15.1774 -15.1663 -15.1493 -15.1246
   -13.3022  -9.2196  -8.3376  -7.6894  -7.4150  -6.7957  -6.0691  -5.4764
    -4.9065  -4.6916  -4.2369  -3.7645  -3.1287  -2.5650  -1.8278  -1.5837
    -1.1899  -0.8096  -0.4742  -0.2171   0.0859   0.3178   0.6956   0.9672
     1.0121   1.5063   1.7611   1.9546   2.2165   2.6108

          k = 0.0547-0.0948 0.0000 ( 20397 PWs)   bands (ev):

   -95.0373 -95.0260 -95.0136 -95.0136 -95.0115 -95.0115 -95.0091 -95.0091
   -95.0068 -94.9960 -94.9960 -94.9960 -94.9767 -94.9766 -94.9766 -94.9762
   -94.9762 -94.9756 -94.9684 -94.9684 -94.9677 -94.9666 -94.9662 -94.9662
   -94.9586 -94.9586 -94.9584 -94.9390 -94.9389 -94.9387 -94.9358 -94.9355
   -94.9354 -94.8421 -94.8420 -94.8415 -15.6741 -15.4227 -15.4208 -15.4168
   -15.4143 -15.4091 -15.4018 -15.3992 -15.3984 -15.3958 -15.3895 -15.3876
   -15.3869 -15.3669 -15.3664 -15.3645 -15.3623 -15.3621 -15.3559 -15.3421
   -15.3343 -15.3334 -15.3305 -15.3304 -15.3262 -15.3201 -15.3178 -15.3129
   -15.3120 -15.3042 -15.3028 -15.2961 -15.2930 -15.2911 -15.2902 -15.2861
   -15.2791 -15.2698 -15.2691 -15.2629 -15.2599 -15.2545 -15.2464 -15.2450
   -15.2408 -15.2400 -15.2369 -15.2283 -15.2255 -15.2244 -15.2178 -15.2130
   -15.2087 -15.2075 -15.2009 -15.1955 -15.1720 -15.1620 -15.1522 -15.1406
   -13.2962  -8.5507  -8.5073  -8.3784  -7.1546  -7.1224  -6.5710  -5.1480
    -5.1153  -4.3222  -3.9008  -3.6321  -3.3131  -2.5816  -1.8751  -1.7028
    -0.9643  -0.9157  -0.5933  -0.1172  -0.1041   0.0504   1.2877   1.3439
     1.6531   2.0156   2.0390   2.4612   2.6253   2.6502

          k = 0.0547-0.0632 0.0000 ( 20377 PWs)   bands (ev):

   -95.0373 -95.0260 -95.0136 -95.0136 -95.0115 -95.0115 -95.0091 -95.0091
   -95.0068 -94.9961 -94.9960 -94.9960 -94.9768 -94.9767 -94.9764 -94.9764
[...]
     1.2586   1.8334   1.9455   2.0887   2.5232   3.2114

          k = 0.0547 0.0316 0.0000 ( 20353 PWs)   bands (ev):

   -94.7393 -94.7389 -94.7387 -94.7385 -94.7314 -94.7313 -94.7305 -94.7069
   -94.7068 -94.6994 -94.6994 -94.6936 -94.6794 -94.6793 -94.6793 -94.6566
   -94.6559 -94.6557 -94.6553 -94.6552 -94.6550 -94.6336 -94.6316 -94.6313
   -94.6137 -94.6014 -94.6014 -94.5894 -94.5886 -94.5883 -94.5849 -94.5848
   -94.5844 -94.5755 -94.5755 -94.5754 -16.0568 -15.1871 -15.1685 -15.1546
   -15.1447 -15.1335 -15.1330 -15.1244 -15.1065 -15.1059 -15.0924 -15.0862
   -15.0850 -15.0767 -15.0758 -15.0675 -15.0670 -15.0625 -15.0564 -15.0507
   -15.0489 -15.0449 -15.0316 -15.0296 -15.0272 -15.0221 -15.0184 -15.0166
   -15.0115 -14.9997 -14.9948 -14.9879 -14.9810 -14.9804 -14.9749 -14.9713
   -14.9648 -14.9592 -14.9566 -14.9493 -14.9453 -14.9374 -14.9313 -14.9172
   -14.9049 -14.8988 -14.8924 -14.8845 -14.8800 -14.8765 -14.8657 -14.8632
   -14.8604 -14.8591 -14.8542 -14.8531 -14.8430 -14.8324 -14.8312 -14.8074
   -13.4372  -9.3162  -8.0359  -7.3774  -6.4269  -6.2896  -5.8888  -5.2233
    -5.2029  -4.5160  -4.0257  -3.4207  -3.1401  -2.4354  -1.7354  -1.5539
    -1.3043  -1.0865  -0.8138  -0.0905   0.3335   0.4542   0.6636   1.2492
     1.3086   1.6249   2.0137   2.1143   2.5348   3.0163

          k = 0.0547-0.1264 0.0000 ( 20377 PWs)   bands (ev):

   -94.7392 -94.7390 -94.7387 -94.7385 -94.7314 -94.7313 -94.7305 -94.7069
   -94.7068 -94.6994 -94.6994 -94.6936 -94.6794 -94.6793 -94.6793 -94.6564
   -94.6559 -94.6555 -94.6555 -94.6553 -94.6551 -94.6335 -94.6317 -94.6313
   -94.6137 -94.6014 -94.6014 -94.5892 -94.5887 -94.5883 -94.5849 -94.5847
   -94.5845 -94.5755 -94.5755 -94.5754 -16.0327 -15.1936 -15.1616 -15.1389
   -15.1338 -15.1305 -15.1212 -15.1135 -15.1039 -15.0961 -15.0860 -15.0834
   -15.0761 -15.0739 -15.0687 -15.0650 -15.0591 -15.0543 -15.0513 -15.0487
   -15.0441 -15.0379 -15.0309 -15.0290 -15.0276 -15.0208 -15.0142 -15.0101
   -15.0053 -15.0037 -14.9986 -14.9961 -14.9852 -14.9811 -14.9786 -14.9722
   -14.9682 -14.9640 -14.9603 -14.9495 -14.9443 -14.9381 -14.9316 -14.9206
   -14.9182 -14.9121 -14.9042 -14.8976 -14.8910 -14.8825 -14.8802 -14.8759
   -14.8676 -14.8632 -14.8612 -14.8572 -14.8508 -14.8397 -14.8331 -14.8175
   -13.4186  -8.9312  -8.1186  -7.5860  -7.1638  -6.4799  -5.9918  -5.3209
    -4.8095  -4.3885  -3.9933  -3.5787  -2.8905  -2.6317  -1.8749  -1.3424
    -0.8835  -0.6063  -0.1313   0.1086   0.3961   0.6588   1.0036   1.2371
     1.3474   2.0498   2.1183   2.2117   2.4863   2.9300

          k = 0.0547-0.0948 0.0000 ( 20397 PWs)   bands (ev):

   -94.7392 -94.7390 -94.7387 -94.7385 -94.7314 -94.7313 -94.7305 -94.7069
   -94.7069 -94.6994 -94.6994 -94.6936 -94.6794 -94.6794 -94.6793 -94.6562
   -94.6562 -94.6556 -94.6554 -94.6552 -94.6552 -94.6335 -94.6317 -94.6313
   -94.6137 -94.6014 -94.6014 -94.5890 -94.5890 -94.5883 -94.5849 -94.5846
   -94.5846 -94.5755 -94.5755 -94.5754 -16.0198 -15.2018 -15.1549 -15.1339
   -15.1246 -15.1211 -15.1202 -15.1077 -15.1052 -15.1015 -15.0823 -15.0757
   -15.0742 -15.0659 -15.0659 -15.0622 -15.0544 -15.0508 -15.0481 -15.0448
   -15.0416 -15.0410 -15.0325 -15.0281 -15.0162 -15.0161 -15.0111 -15.0101
   -15.0091 -15.0086 -15.0033 -14.9973 -14.9895 -14.9848 -14.9819 -14.9669
   -14.9653 -14.9587 -14.9529 -14.9523 -14.9504 -14.9367 -14.9332 -14.9306
   -14.9273 -14.9219 -14.9113 -14.9077 -14.9037 -14.8927 -14.8756 -14.8715
   -14.8677 -14.8631 -14.8593 -14.8574 -14.8505 -14.8476 -14.8409 -14.8304
   -13.4094  -8.4111  -8.3300  -7.9192  -7.1988  -7.0077  -5.8183  -5.2091
    -5.0762  -4.0173  -3.6446  -3.4176  -3.0121  -2.8970  -1.9880  -1.4171
    -0.7235  -0.4911  -0.0546   0.1289   0.1493   0.4312   1.5559   1.7770
     1.9071   2.2128   2.2647   2.7480   2.8238   2.8992

          k = 0.0547-0.0632 0.0000 ( 20377 PWs)   bands (ev):

   -94.7392 -94.7390 -94.7387 -94.7385 -94.7314 -94.7313 -94.7305 -94.7069
   -94.7068 -94.6994 -94.6994 -94.6936 -94.6794 -94.6794 -94.6793 -94.6564
   -94.6559 -94.6555 -94.6555 -94.6553 -94.6551 -94.6335 -94.6317 -94.6313
   -94.6137 -94.6014 -94.6014 -94.5892 -94.5887 -94.5883 -94.5849 -94.5847
   -94.5845 -94.5755 -94.5755 -94.5754 -16.0327 -15.1936 -15.1616 -15.1389
   -15.1338 -15.1305 -15.1212 -15.1135 -15.1039 -15.0961 -15.0860 -15.0834
   -15.0761 -15.0739 -15.0687 -15.0650 -15.0591 -15.0543 -15.0513 -15.0487
   -15.0441 -15.0379 -15.0309 -15.0290 -15.0276 -15.0208 -15.0142 -15.0101
   -15.0053 -15.0037 -14.9986 -14.9961 -14.9852 -14.9811 -14.9786 -14.9722
   -14.9682 -14.9640 -14.9603 -14.9495 -14.9443 -14.9381 -14.9316 -14.9206
   -14.9182 -14.9121 -14.9042 -14.8976 -14.8910 -14.8825 -14.8802 -14.8759
   -14.8676 -14.8632 -14.8612 -14.8572 -14.8508 -14.8397 -14.8331 -14.8175
   -13.4186  -8.9312  -8.1186  -7.5860  -7.1638  -6.4799  -5.9918  -5.3210
    -4.8095  -4.3885  -3.9933  -3.5787  -2.8905  -2.6317  -1.8749  -1.3424
    -0.8835  -0.6063  -0.1313   0.1086   0.3961   0.6588   1.0036   1.2371
     1.3474   2.0498   2.1184   2.2117   2.4863   2.9300

          k =-0.0821 0.0474 0.0000 ( 20384 PWs)   bands (ev):

   -94.7392 -94.7390 -94.7387 -94.7385 -94.7314 -94.7313 -94.7305 -94.7069
   -94.7068 -94.6994 -94.6994 -94.6936 -94.6794 -94.6794 -94.6793 -94.6564
   -94.6559 -94.6555 -94.6555 -94.6554 -94.6550 -94.6335 -94.6317 -94.6313
   -94.6137 -94.6014 -94.6014 -94.5892 -94.5887 -94.5883 -94.5849 -94.5847
   -94.5845 -94.5755 -94.5755 -94.5754 -16.0328 -15.1960 -15.1596 -15.1363
   -15.1324 -15.1297 -15.1225 -15.1133 -15.0990 -15.0911 -15.0897 -15.0881
   -15.0766 -15.0751 -15.0704 -15.0634 -15.0618 -15.0569 -15.0537 -15.0464
   -15.0464 -15.0357 -15.0291 -15.0265 -15.0262 -15.0213 -15.0122 -15.0075
   -15.0057 -15.0049 -14.9973 -14.9964 -14.9900 -14.9849 -14.9753 -14.9730
   -14.9675 -14.9650 -14.9600 -14.9549 -14.9443 -14.9333 -14.9318 -14.9182
   -14.9124 -14.9028 -14.9013 -14.8952 -14.8927 -14.8874 -14.8839 -14.8839
   -14.8744 -14.8694 -14.8592 -14.8584 -14.8583 -14.8336 -14.8330 -14.8076
   -13.4186  -8.8213  -8.4416  -7.5579  -6.7591  -6.4056  -5.7959  -5.4421
    -5.3086  -4.8462  -3.5862  -3.3993  -3.2992  -2.3964  -1.6214  -1.0242
    -0.8793  -0.3102  -0.2352  -0.0288   0.0579   0.6042   1.2066   1.2658
     1.8288   1.8967   2.0505   2.2563   2.3931   2.7718

          k =-0.0821 0.0790 0.0000 ( 20377 PWs)   bands (ev):

   -94.7392 -94.7390 -94.7387 -94.7385 -94.7314 -94.7313 -94.7305 -94.7069
   -94.7068 -94.6994 -94.6994 -94.6936 -94.6794 -94.6794 -94.6793 -94.6564
   -94.6559 -94.6555 -94.6555 -94.6553 -94.6551 -94.6335 -94.6317 -94.6313
   -94.6137 -94.6014 -94.6014 -94.5892 -94.5887 -94.5883 -94.5849 -94.5847
   -94.5845 -94.5755 -94.5755 -94.5754 -16.0327 -15.1936 -15.1616 -15.1389
   -15.1338 -15.1305 -15.1212 -15.1135 -15.1039 -15.0961 -15.0860 -15.0834
   -15.0761 -15.0739 -15.0687 -15.0650 -15.0591 -15.0543 -15.0513 -15.0487
   -15.0441 -15.0379 -15.0309 -15.0290 -15.0276 -15.0208 -15.0142 -15.0101
   -15.0053 -15.0037 -14.9986 -14.9961 -14.9852 -14.9811 -14.9786 -14.9722
   -14.9682 -14.9640 -14.9603 -14.9495 -14.9443 -14.9381 -14.9316 -14.9206
   -14.9182 -14.9121 -14.9042 -14.8976 -14.8910 -14.8825 -14.8802 -14.8759
   -14.8676 -14.8632 -14.8612 -14.8572 -14.8508 -14.8397 -14.8331 -14.8175
   -13.4186  -8.9312  -8.1186  -7.5860  -7.1638  -6.4799  -5.9918  -5.3209
    -4.8095  -4.3885  -3.9933  -3.5787  -2.8905  -2.6317  -1.8749  -1.3424
    -0.8835  -0.6063  -0.1313   0.1086   0.3961   0.6588   1.0036   1.2371
     1.3474   2.0498   2.1184   2.2117   2.4863   2.9300

          k =-0.0821 0.1106 0.0000 ( 20377 PWs)   bands (ev):

   -94.7392 -94.7390 -94.7387 -94.7385 -94.7314 -94.7313 -94.7305 -94.7069
   -94.7068 -94.6994 -94.6994 -94.6936 -94.6794 -94.6793 -94.6793 -94.6564
   -94.6559 -94.6555 -94.6555 -94.6553 -94.6551 -94.6335 -94.6317 -94.6313
   -94.6137 -94.6014 -94.6014 -94.5892 -94.5887 -94.5883 -94.5849 -94.5847
   -94.5845 -94.5755 -94.5755 -94.5754 -16.0327 -15.1936 -15.1616 -15.1389
   -15.1338 -15.1305 -15.1212 -15.1135 -15.1039 -15.0961 -15.0860 -15.0834
   -15.0761 -15.0739 -15.0687 -15.0650 -15.0591 -15.0543 -15.0513 -15.0487
   -15.0441 -15.0379 -15.0309 -15.0290 -15.0276 -15.0208 -15.0142 -15.0101
   -15.0053 -15.0037 -14.9986 -14.9961 -14.9852 -14.9811 -14.9786 -14.9722
   -14.9682 -14.9640 -14.9603 -14.9495 -14.9443 -14.9381 -14.9316 -14.9206
   -14.9182 -14.9121 -14.9042 -14.8976 -14.8910 -14.8825 -14.8802 -14.8759
   -14.8676 -14.8632 -14.8612 -14.8572 -14.8508 -14.8397 -14.8331 -14.8175
   -13.4186  -8.9312  -8.1186  -7.5860  -7.1638  -6.4799  -5.9918  -5.3209
    -4.8095  -4.3885  -3.9933  -3.5787  -2.8905  -2.6317  -1.8749  -1.3424
    -0.8835  -0.6063  -0.1313   0.1086   0.3961   0.6588   1.0036   1.2371
     1.3474   2.0498   2.1183   2.2117   2.4863   2.9300

          k =-0.0821-0.0474 0.0000 ( 20384 PWs)   bands (ev):

   -94.7392 -94.7390 -94.7387 -94.7385 -94.7314 -94.7313 -94.7305 -94.7069
   -94.7068 -94.6994 -94.6994 -94.6936 -94.6794 -94.6794 -94.6793 -94.6564
   -94.6558 -94.6555 -94.6555 -94.6554 -94.6550 -94.6335 -94.6317 -94.6313
   -94.6137 -94.6014 -94.6014 -94.5892 -94.5887 -94.5883 -94.5849 -94.5847
   -94.5845 -94.5755 -94.5755 -94.5754 -16.0328 -15.1960 -15.1596 -15.1363
   -15.1324 -15.1297 -15.1225 -15.1133 -15.0990 -15.0911 -15.0897 -15.0881
   -15.0766 -15.0751 -15.0704 -15.0634 -15.0618 -15.0569 -15.0537 -15.0464
   -15.0464 -15.0357 -15.0291 -15.0265 -15.0262 -15.0213 -15.0122 -15.0075
   -15.0057 -15.0049 -14.9973 -14.9964 -14.9900 -14.9849 -14.9753 -14.9730
   -14.9675 -14.9650 -14.9600 -14.9549 -14.9443 -14.9333 -14.9318 -14.9182
   -14.9124 -14.9028 -14.9013 -14.8952 -14.8928 -14.8874 -14.8839 -14.8839
   -14.8744 -14.8694 -14.8592 -14.8584 -14.8583 -14.8336 -14.8330 -14.8076
   -13.4186  -8.8213  -8.4416  -7.5579  -6.7591  -6.4056  -5.7958  -5.4421
    -5.3085  -4.8462  -3.5862  -3.3993  -3.2993  -2.3963  -1.6214  -1.0241
    -0.8793  -0.3102  -0.2352  -0.0288   0.0579   0.6042   1.2066   1.2658
     1.8288   1.8966   2.0504   2.2563   2.3931   2.7718

     the Fermi energy is     0.1260 ev

!    total energy              =   -5019.31274927 Ry
     Harris-Foulkes estimate   =   -5019.31274920 Ry
     estimated scf accuracy    <       0.00000002 Ry

     The total energy is the sum of the following terms:

     one-electron contribution =  -27730.57985728 Ry
     hartree contribution      =   13870.85629986 Ry
     xc contribution           =    -602.13662409 Ry
     ewald contribution        =    9442.57938357 Ry
     electric field correction =       0.00001535 Ry
     smearing contrib. (-TS)   =      -0.03196667 Ry

     convergence has been achieved in   7 iterations
 
 BEEF-vdW xc energy contributions
           1 :   -538.210554062344     
           2 :    488.632850384517     
           3 :   -405.438889910137     
           4 :    312.744044129341     
           5 :   -231.966184777467     
           6 :    173.768986920877     
           7 :   -136.504879963770     
           8 :    110.950181191112     
           9 :   -87.7327306215662     
          10 :    62.8297884239877     
          11 :   -38.3637253947560     
          12 :    19.2059825573588     
          13 :   -8.43392305668988     
          14 :    4.90132094843784     
          15 :   -4.24744684706775     
          16 :    2.11330884093763     
          17 :    3.01863773251148     
          18 :   -9.34287937837962     
          19 :    13.6651278756754     
          20 :   -14.0810449753917     
          21 :    11.3766349893779     
          22 :   -8.27043901960951     
          23 :    7.27491446763247     
          24 :   -8.89369991715114     
          25 :    11.4645927375882     
          26 :   -12.6312689822083     
          27 :    11.2163344297720     
          28 :   -8.06620955389781     
          29 :    5.30776637491772     
          30 :   -4.68238714803203     
          31 :   -39.8531872113026     
          32 :   -27.0819893531416     

     Forces acting on atoms (Ry/au):


     negative rho (up, down):  1.186E-03 0.000E+00
     atom    1 type  1   force =    -0.00418508   -0.00241649   -0.00159776
     atom    2 type  1   force =     0.00418528   -0.00241633   -0.00159803
     atom    3 type  1   force =     0.00000028    0.00483203   -0.00159812
     atom    4 type  1   force =     0.00000000   -0.00000028    0.00103343
     atom    5 type  1   force =    -0.00000021    0.00235550    0.00076560
     atom    6 type  1   force =     0.00000040    0.00000039    0.00130491
     atom    7 type  1   force =    -0.00203878   -0.00117782    0.00076504
     atom    8 type  1   force =     0.00203909   -0.00117807    0.00076521
     atom    9 type  1   force =     0.00000137   -0.00000008    0.00145898
     atom   10 type  1   force =    -0.00000055   -0.00080675   -0.00061877
     atom   11 type  1   force =    -0.00069390    0.00040034   -0.00061951
     atom   12 type  1   force =     0.00070463    0.00040664   -0.00062246
     atom   13 type  2   force =    -0.00001254    0.00000094    0.00056149

     Total force =     0.002356     Total SCF correction =     0.000322
     SCF correction compared to forces is large: reduce conv_thr to get better values


     entering subroutine stress ...


     negative rho (up, down):  1.186E-03 0.000E+00
          total   stress  (Ry/bohr**3)                   (kbar)     P=   -4.76
  -0.00004667   0.00000000  -0.00000000         -6.87      0.00     -0.00
   0.00000000  -0.00004667  -0.00000000          0.00     -6.87     -0.00
  -0.00000000  -0.00000000  -0.00000374         -0.00     -0.00     -0.55


     bfgs converged in  26 scf cycles and  25 bfgs steps
     (criteria: energy <  1.0E+00, force <  1.9E-03)

     End of BFGS Geometry Optimization

     Final energy   =   -5019.3127492660 Ry
Begin final coordinates

ATOMIC_POSITIONS (crystal)
Ga1      0.166666667   0.166666667   0.400460194    0   0   0
Ga1      0.666666667   0.166666667   0.400460194    0   0   0
Ga1      0.166666667   0.666666667   0.400460194    0   0   0
Ga1      0.666666667   0.666666667   0.400460194    0   0   0
Ga1      0.833333333   0.333333333   0.500000000    0   0   0
Ga1      0.333333333   0.333333333   0.500000000    0   0   0
Ga1      0.833333333   0.833333333   0.500000000    0   0   0
Ga1      0.333333333   0.833333333   0.500000000    0   0   0
Ga1     -0.000001248  -0.000001703   0.595314685
Ga1      0.512093736  -0.024193426   0.602126206
Ga1     -0.024197156   0.512098096   0.602127608
Ga1      0.512096266   0.512095055   0.602128715
N1       0.333335439   0.333331871   0.620756369
End final coordinates



     Writing output data file calc.save
 
     init_run     :     12.20s CPU     12.55s WALL (       1 calls)
     electrons    :   7305.81s CPU   7761.50s WALL (      26 calls)
     update_pot   :     78.15s CPU     84.68s WALL (      25 calls)
     forces       :    474.50s CPU    505.40s WALL (      26 calls)
     stress       :   1445.44s CPU   1544.95s WALL (      26 calls)

     Called by init_run:
     wfcinit      :      4.94s CPU      5.02s WALL (       1 calls)
     potinit      :      1.86s CPU      1.99s WALL (       1 calls)

     Called by electrons:
     c_bands      :   3146.56s CPU   3294.30s WALL (     213 calls)
     sum_band     :   1328.11s CPU   1421.43s WALL (     213 calls)
     v_of_rho     :    394.83s CPU    445.08s WALL (     234 calls)
     newd         :   1208.32s CPU   1226.27s WALL (     234 calls)
     mix_rho      :     12.76s CPU     13.05s WALL (     213 calls)
     vdW_energy   :    273.17s CPU    300.78s WALL (    1170 calls)
     vdW_ffts     :    666.08s CPU    692.27s WALL (    2392 calls)
     vdW_v        :    241.88s CPU    254.45s WALL (    1170 calls)

     Called by c_bands:
     init_us_2    :     14.34s CPU     14.40s WALL (    2395 calls)
     cegterg      :   2933.07s CPU   3001.10s WALL (    1067 calls)

     Called by *egterg:
     h_psi        :   1763.81s CPU   1800.42s WALL (    5293 calls)
     s_psi        :    155.47s CPU    155.85s WALL (    5293 calls)
     g_psi        :     10.51s CPU     10.53s WALL (    4221 calls)
     cdiaghg      :    355.34s CPU    358.62s WALL (    5138 calls)

     Called by h_psi:
     add_vuspsi   :    159.18s CPU    159.56s WALL (    5293 calls)

     General routines
     calbec       :    252.70s CPU    257.48s WALL (    6618 calls)
     fft          :   1027.42s CPU   1101.27s WALL (   70167 calls)
     ffts         :      0.97s CPU      1.07s WALL (     447 calls)
     fftw         :   1110.18s CPU   1150.89s WALL (  797000 calls)
     interpolate  :      9.01s CPU      9.32s WALL (     447 calls)
     davcio       :      0.00s CPU      0.04s WALL (       5 calls)
 
     Parallel routines
     fft_scatter  :   1242.26s CPU   1349.42s WALL (  867614 calls)
 
     PWSCF        :     2h37m CPU        2h47m WALL

 
   This run was terminated on:  22: 7:17   3May2018            

=------------------------------------------------------------------------------=
   JOB DONE.
=------------------------------------------------------------------------------=
Job  /afs/slac/g/suncat/bin/suncat-tsmpirun -x LD_LIBRARY_PATH -wdir /scratch/qe827553_2NQub pw.x -npool 4 -in pw.inp

TID   HOST_NAME   COMMAND_LINE            STATUS            TERMINATION_TIME
===== ========== ================  =======================  ===================
00000 suncat0062 pw.x -npool 4 -i  Done                     05/03/2018 22:07:17
00001 suncat0062 pw.x -npool 4 -i  Done                     05/03/2018 22:07:17
00002 suncat0062 pw.x -npool 4 -i  Done                     05/03/2018 22:07:17
00003 suncat0062 pw.x -npool 4 -i  Done                     05/03/2018 22:07:17
00004 suncat0062 pw.x -npool 4 -i  Done                     05/03/2018 22:07:17
00005 suncat0062 pw.x -npool 4 -i  Done                     05/03/2018 22:07:17
00006 suncat0062 pw.x -npool 4 -i  Done                     05/03/2018 22:07:17
00007 suncat0062 pw.x -npool 4 -i  Done                     05/03/2018 22:07:17
00008 suncat0055 pw.x -npool 4 -i  Done                     05/03/2018 22:07:17
00009 suncat0055 pw.x -npool 4 -i  Done                     05/03/2018 22:07:17
00010 suncat0055 pw.x -npool 4 -i  Done                     05/03/2018 22:07:17
00011 suncat0055 pw.x -npool 4 -i  Done                     05/03/2018 22:07:17
00012 suncat0055 pw.x -npool 4 -i  Done                     05/03/2018 22:07:17
00013 suncat0055 pw.x -npool 4 -i  Done                     05/03/2018 22:07:17
00014 suncat0055 pw.x -npool 4 -i  Done                     05/03/2018 22:07:17
00015 suncat0055 pw.x -npool 4 -i  Done                     05/03/2018 22:07:17
00016 suncat0014 pw.x -npool 4 -i  Done                     05/03/2018 22:07:17
00017 suncat0014 pw.x -npool 4 -i  Done                     05/03/2018 22:07:17
00018 suncat0014 pw.x -npool 4 -i  Done                     05/03/2018 22:07:17
00019 suncat0014 pw.x -npool 4 -i  Done                     05/03/2018 22:07:17
00020 suncat0014 pw.x -npool 4 -i  Done                     05/03/2018 22:07:17
00021 suncat0014 pw.x -npool 4 -i  Done                     05/03/2018 22:07:17
00022 suncat0014 pw.x -npool 4 -i  Done                     05/03/2018 22:07:17
00023 suncat0014 pw.x -npool 4 -i  Done                     05/03/2018 22:07:17
00024 suncat0196 pw.x -npool 4 -i  Done                     05/03/2018 22:07:17
00025 suncat0196 pw.x -npool 4 -i  Done                     05/03/2018 22:07:17
00026 suncat0196 pw.x -npool 4 -i  Done                     05/03/2018 22:07:17
00027 suncat0196 pw.x -npool 4 -i  Done                     05/03/2018 22:07:17
00028 suncat0196 pw.x -npool 4 -i  Done                     05/03/2018 22:07:17
00029 suncat0196 pw.x -npool 4 -i  Done                     05/03/2018 22:07:17
00030 suncat0196 pw.x -npool 4 -i  Done                     05/03/2018 22:07:17
00031 suncat0196 pw.x -npool 4 -i  Done                     05/03/2018 22:07:17
