  python dir          : /u/if/mamunm/src/espresso
  espresso dir        : /nfs/slac/g/suncatfs/sw/espv18/espresso-dynpy-beef/bin
  pseudo dir          : /u/if/mamunm/psp/gbrv1.5pbe
  ase-espresso py git : GITVERSION



     Program PWSCF v.5.1rc2 (svn rev. 11289) starts on  4May2018 at  7:33:14 

     This program is part of the open-source Quantum ESPRESSO suite
     for quantum simulation of materials; please cite
         "P. Giannozzi et al., J. Phys.:Condens. Matter 21 395502 (2009);
          URL http://www.quantum-espresso.org", 
     in publications or presentations arising from this work. More details at
     http://www.quantum-espresso.org/quote

     Parallel version (MPI), running on    32 processors
     K-points division:     npool     =       4
     R & G space division:  proc/nbgrp/npool/nimage =       8
     Reading input from pw.inp
     Message from routine read_cards :
     DEPRECATED: no units specified in CELL_PARAMETERS card

     Current dimensions of program PWSCF are:
     Max number of different atomic species (ntypx) = 10
     Max number of k-points (npk) =  40000
     Max angular momentum in pseudopotentials (lmaxx) =  3
     Presently stress not available with electric field


     **************************************************************************
     Initializing libbeef V0.1.1 with the BEEF-vdW functional.
     Citation: Wellendorff et al., PRB 85, 235149 (2012).
     **************************************************************************


     IMPORTANT: XC functional enforced from input :
     Exchange-correlation      = BEEF-VDW ( 1  4 27 13 2)
     Any further DFT definition will be discarded
     Please, verify this is what you really want


     Subspace diagonalization in iterative solution of the eigenvalue problem:
     a serial algorithm will be used

 
     Parallelization info
     --------------------
     sticks:   dense  smooth     PW     G-vecs:    dense   smooth      PW
     Min         400     160     45                76520    19367    3017
     Max         401     161     46                76543    19393    3034
     Sum        3205    1285    367               612275   155017   24235
 


     bravais-lattice index     =            0
     lattice parameter (alat)  =       1.8897  a.u.
     unit-cell volume          =    5144.9564 (a.u.)^3
     number of atoms/cell      =           13
     number of atomic types    =            2
     number of electrons       =       136.00
     number of Kohn-Sham states=           78
     kinetic-energy cutoff     =      36.7493  Ry
     charge density cutoff     =     367.4932  Ry
     convergence threshold     =      1.0E-05
     mixing beta               =       0.3000
     number of iterations used =           10  plain     mixing
     Exchange-correlation      = BEEF-VDW ( 1  4 27 13 2)
     nstep                     =           50


     celldm(1)=   1.889726  celldm(2)=   0.000000  celldm(3)=   0.000000
     celldm(4)=   0.000000  celldm(5)=   0.000000  celldm(6)=   0.000000

     crystal axes: (cart. coord. in units of alat)
               a(1) = (   5.950946   0.000000   0.000000 )  
               a(2) = (   2.975473   5.153671   0.000000 )  
               a(3) = (   0.000000   0.000000  24.858927 )  

     reciprocal axes: (cart. coord. in units 2 pi/alat)
               b(1) = (  0.168040 -0.097018  0.000000 )  
               b(2) = (  0.000000  0.194036  0.000000 )  
               b(3) = (  0.000000  0.000000  0.040227 )  


     PseudoPot. # 1 for Au read from file:
     /u/if/mamunm/psp/gbrv1.5pbe/Au.UPF
     MD5 check sum: 9d7f43293ad2c663164586bc4b293ffc
     Pseudo is Ultrasoft + core correction, Zval = 11.0
     Generated by new atomic code, or converted to UPF format
     Using radial grid of  985 points,  7 beta functions with: 
                l(1) =   0
                l(2) =   0
                l(3) =   1
                l(4) =   1
                l(5) =   2
                l(6) =   2
                l(7) =   3
     Q(r) pseudized with  6 coefficients,  rinner =    1.900   1.900   1.900
                                                       1.900   1.900   1.900
                                                       1.900

     PseudoPot. # 2 for C  read from file:
     /u/if/mamunm/psp/gbrv1.5pbe/C.UPF
     MD5 check sum: d1aef80898a10debaa0f26306b886e00
     Pseudo is Ultrasoft + core correction, Zval =  4.0
     Generated by new atomic code, or converted to UPF format
     Using radial grid of  721 points,  4 beta functions with: 
                l(1) =   0
                l(2) =   0
                l(3) =   1
                l(4) =   1
     Q(r) pseudized with  8 coefficients,  rinner =    1.100   1.100   1.100


     vdW kernel table read from file vdW_kernel_table
     MD5 check sum: 095c7af220d748ca6e76c0b4c6cfb241

     atomic species   valence    mass     pseudopotential
        Au1           11.00   196.96657     Au( 1.00)
        C1             4.00    12.01100     C ( 1.00)

     No symmetry found



   Cartesian axes

     site n.     atom                  positions (alat units)
         1           Au1 tau(   1) = (   1.4877366   0.8589451  10.0000000  )
         2           Au1 tau(   2) = (   4.4632098   0.8589451  10.0000000  )
         3           Au1 tau(   3) = (   2.9754732   3.4357805  10.0000000  )
         4           Au1 tau(   4) = (   5.9509464   3.4357805  10.0000000  )
         5           Au1 tau(   5) = (   5.9509464   1.7178903  12.4294637  )
         6           Au1 tau(   6) = (   2.9754732   1.7178903  12.4294637  )
         7           Au1 tau(   7) = (   7.4386830   4.2947256  12.4294637  )
         8           Au1 tau(   8) = (   4.4632098   4.2947256  12.4294637  )
         9           Au1 tau(   9) = (   0.0000000   0.0000000  14.8589274  )
        10           Au1 tau(  10) = (   2.9754732   0.0000000  14.8589274  )
        11           Au1 tau(  11) = (   1.4877366   2.5768354  14.8589274  )
        12           Au1 tau(  12) = (   4.4632098   2.5768354  14.8589274  )
        13           C1  tau(  13) = (   2.9754732   1.7178903  16.2369274  )

     number of k points=    20  Fermi-Dirac smearing, width (Ry)=  0.0110
                       cart. coord. in units 2pi/alat
        k(    1) = (   0.0000000   0.0000000   0.0000000), wk =   0.0555556
        k(    2) = (   0.0000000   0.0323394   0.0000000), wk =   0.1111111
        k(    3) = (   0.0000000   0.0646788   0.0000000), wk =   0.1111111
        k(    4) = (   0.0000000  -0.0970182   0.0000000), wk =   0.0555556
        k(    5) = (   0.0280067  -0.0161697   0.0000000), wk =   0.1111111
        k(    6) = (   0.0280067   0.0161697   0.0000000), wk =   0.1111111
        k(    7) = (   0.0280067   0.0485091   0.0000000), wk =   0.1111111
        k(    8) = (   0.0280067  -0.1131879   0.0000000), wk =   0.1111111
        k(    9) = (   0.0280067  -0.0808485   0.0000000), wk =   0.1111111
        k(   10) = (   0.0280067  -0.0485091   0.0000000), wk =   0.1111111
        k(   11) = (   0.0560135  -0.0323394   0.0000000), wk =   0.1111111
        k(   12) = (   0.0560135   0.0000000   0.0000000), wk =   0.1111111
        k(   13) = (   0.0560135   0.0323394   0.0000000), wk =   0.1111111
        k(   14) = (   0.0560135  -0.1293576   0.0000000), wk =   0.1111111
        k(   15) = (   0.0560135  -0.0970182   0.0000000), wk =   0.1111111
        k(   16) = (   0.0560135  -0.0646788   0.0000000), wk =   0.1111111
        k(   17) = (  -0.0840202   0.0485091   0.0000000), wk =   0.0555556
        k(   18) = (  -0.0840202   0.0808485   0.0000000), wk =   0.1111111
        k(   19) = (  -0.0840202   0.1131879   0.0000000), wk =   0.1111111
        k(   20) = (  -0.0840202  -0.0485091   0.0000000), wk =   0.0555556

     Dense  grid:   612275 G-vectors     FFT dimensions: (  72,  72, 288)

     Smooth grid:   155017 G-vectors     FFT dimensions: (  45,  45, 192)

     Largest allocated arrays     est. size (Mb)     dimensions
        Kohn-Sham Wavefunctions         2.91 Mb     (    2444,   78)
        NL pseudopotentials            11.49 Mb     (    2444,  308)
        Each V/rho on FFT grid          2.85 Mb     (  186624)
        Each G-vector array             0.58 Mb     (   76543)
        G-vector shells                 0.16 Mb     (   20517)
     Largest temporary arrays     est. size (Mb)     dimensions
        Auxiliary wavefunctions        11.64 Mb     (    2444,  312)
        Each subspace H/S matrix        1.49 Mb     (     312,  312)
        Each <psi_i|beta_j> matrix      0.37 Mb     (     308,   78)
        Arrays for rho mixing          28.48 Mb     (  186624,   10)

     Check: negative/imaginary core charge=   -0.000002    0.000000

     Initial potential from superposition of free atoms
     Check: negative starting charge=   -0.000116

     starting charge  135.99849, renormalised to  136.00000

     negative rho (up, down):  1.160E-04 0.000E+00


     ************************************************************************
     *
     * You are using vdW-DF for exchange-correlation in this calculation.
     * Please cite the following three references that made this development
     * possible:
     *
     *   M. Dion, H. Rydberg, E. Schroder, D. C. Langreth, and
     *   B. I. Lundqvist, Phys. Rev. Lett. 92, 246401 (2004).
     *
     *   T. Thonhauser, V. R. Cooper, S. Li, A. Puzder, P. Hyldgaard, and
     *   D. C. Langreth, Phys. Rev. B 76, 125112 (2007).
     *
     *   G. Roman-Perez and J. M. Soler, Phys. Rev. Lett. 103, 096102 (2009).
     *
     *
     * If you are using vdW-DF2, please also cite:
     *
     *   K. Lee, E. D. Murray, L. Kong, B. I. Lundqvist, and
     *   D. C. Langreth, Phys. Rev. B 82, 081101(R) (2010).
     *
     *
     * If you are calculating the stress with vdW-DF, please also cite:
     *
     *   R. Sabatini, E. Kucukbenli, B. Kolb, T. Thonhauser, and
     *   S. de Gironcoli, J. Phys.: Condens. Matter 24, 424209 (2012).
     *
     ************************************************************************

     Carrying out vdW-DF run using the following parameters:

     Nqs =      20    Nr_points =    1024   r_max =   100.000
     q_mesh =
               0.00001000     0.04494208     0.09755937     0.15916263
               0.23128650     0.31572767     0.41458969     0.53033537
               0.66584808     0.82450364     1.01025438     1.22772762
               1.48234092     1.78043706     2.12944203     2.53805004
               3.01644009     3.57652955     4.23227104     5.00000000

     Gradients computed in reciprocal space

     ************************************************************************


 
     Adding external electric field

     Computed dipole along edir(3) : 
        Dipole               -0.0000 Ry au,         -0.0001 Debye
        Dipole field         -0.0000 Ry au
 
        Potential amp.        0.0000 Ry
        Total length         45.8022 bohr
 
     Starting wfc are  112 randomized atomic wfcs

     total cpu time spent up to now is       15.3 secs

     per-process dynamical memory:    85.2 Mb

     Self-consistent Calculation

     iteration #  1     ecut=    36.75 Ry     beta=0.30
     Davidson diagonalization with overlap
     ethr =  1.00E-02,  avg # of iterations =  2.0

     negative rho (up, down):  6.454E-05 0.000E+00
 
     Adding external electric field

     Computed dipole along edir(3) : 
        Dipole               -2.7199 Ry au,         -6.9133 Debye
        Dipole field         -0.0066 Ry au
 
        Potential amp.        0.6085 Ry
        Total length         45.8022 bohr
 

     total cpu time spent up to now is       38.6 secs

     total energy              =   -1410.98110012 Ry
     Harris-Foulkes estimate   =   -1411.92076351 Ry
     estimated scf accuracy    <       2.09327569 Ry

     iteration #  2     ecut=    36.75 Ry     beta=0.30
     Davidson diagonalization with overlap
     ethr =  1.54E-03,  avg # of iterations =  6.5

     negative rho (up, down):  9.884E-05 0.000E+00
 
     Adding external electric field

     Computed dipole along edir(3) : 
        Dipole                0.2945 Ry au,          0.7486 Debye
        Dipole field          0.0007 Ry au
 
        Potential amp.       -0.0659 Ry
        Total length         45.8022 bohr
 

     total cpu time spent up to now is       65.2 secs

     total energy              =   -1410.07502265 Ry
     Harris-Foulkes estimate   =   -1413.54090621 Ry
     estimated scf accuracy    <      38.33410376 Ry

     iteration #  3     ecut=    36.75 Ry     beta=0.30
     Davidson diagonalization with overlap
     ethr =  1.54E-03,  avg # of iterations =  4.2

     negative rho (up, down):  1.529E-04 0.000E+00
 
     Adding external electric field

     Computed dipole along edir(3) : 
        Dipole               -0.2885 Ry au,         -0.7334 Debye
        Dipole field         -0.0007 Ry au
 
        Potential amp.        0.0646 Ry
        Total length         45.8022 bohr
 

     total cpu time spent up to now is       92.1 secs

     total energy              =   -1411.56545480 Ry
     Harris-Foulkes estimate   =   -1411.98362067 Ry
     estimated scf accuracy    <       2.74083415 Ry

     iteration #  4     ecut=    36.75 Ry     beta=0.30
     Davidson diagonalization with overlap
     ethr =  1.54E-03,  avg # of iterations =  2.0

     negative rho (up, down):  1.736E-04 0.000E+00
 
     Adding external electric field

     Computed dipole along edir(3) : 
        Dipole               -0.1829 Ry au,         -0.4650 Debye
        Dipole field         -0.0004 Ry au
 
        Potential amp.        0.0409 Ry
        Total length         45.8022 bohr
 

     total cpu time spent up to now is      115.8 secs

     total energy              =   -1411.75484365 Ry
     Harris-Foulkes estimate   =   -1411.77553938 Ry
     estimated scf accuracy    <       0.10937304 Ry

     iteration #  5     ecut=    36.75 Ry     beta=0.30
     Davidson diagonalization with overlap
     ethr =  8.04E-05,  avg # of iterations =  3.4

     negative rho (up, down):  1.620E-04 0.000E+00
 
     Adding external electric field

     Computed dipole along edir(3) : 
        Dipole               -0.2044 Ry au,         -0.5195 Debye
        Dipole field         -0.0005 Ry au
 
        Potential amp.        0.0457 Ry
        Total length         45.8022 bohr
 

     total cpu time spent up to now is      140.5 secs

     total energy              =   -1411.76677758 Ry
     Harris-Foulkes estimate   =   -1411.76874188 Ry
     estimated scf accuracy    <       0.01586836 Ry

     iteration #  6     ecut=    36.75 Ry     beta=0.30
     Davidson diagonalization with overlap
     ethr =  1.17E-05,  avg # of iterations =  3.5

     negative rho (up, down):  1.920E-04 0.000E+00
 
     Adding external electric field

     Computed dipole along edir(3) : 
        Dipole               -0.2189 Ry au,         -0.5565 Debye
        Dipole field         -0.0005 Ry au
 
        Potential amp.        0.0490 Ry
        Total length         45.8022 bohr
 

     total cpu time spent up to now is      165.3 secs

     total energy              =   -1411.76781384 Ry
     Harris-Foulkes estimate   =   -1411.76872186 Ry
     estimated scf accuracy    <       0.00708157 Ry

     iteration #  7     ecut=    36.75 Ry     beta=0.30
     Davidson diagonalization with overlap
     ethr =  5.21E-06,  avg # of iterations =  2.4

     negative rho (up, down):  2.257E-04 0.000E+00
 
     Adding external electric field

     Computed dipole along edir(3) : 
        Dipole               -0.1912 Ry au,         -0.4859 Debye
        Dipole field         -0.0005 Ry au
 
        Potential amp.        0.0428 Ry
        Total length         45.8022 bohr
 

     total cpu time spent up to now is      189.1 secs

     total energy              =   -1411.76830940 Ry
     Harris-Foulkes estimate   =   -1411.76892931 Ry
     estimated scf accuracy    <       0.00376543 Ry

     iteration #  8     ecut=    36.75 Ry     beta=0.30
     Davidson diagonalization with overlap
     ethr =  2.77E-06,  avg # of iterations =  2.4

     negative rho (up, down):  2.306E-04 0.000E+00
 
     Adding external electric field

     Computed dipole along edir(3) : 
        Dipole               -0.1985 Ry au,         -0.5045 Debye
        Dipole field         -0.0005 Ry au
 
        Potential amp.        0.0444 Ry
        Total length         45.8022 bohr
 

     total cpu time spent up to now is      212.8 secs

     total energy              =   -1411.76877602 Ry
     Harris-Foulkes estimate   =   -1411.76892542 Ry
     estimated scf accuracy    <       0.00209242 Ry

     iteration #  9     ecut=    36.75 Ry     beta=0.30
     Davidson diagonalization with overlap
     ethr =  1.54E-06,  avg # of iterations =  1.0

     negative rho (up, down):  2.372E-04 0.000E+00
 
     Adding external electric field

     Computed dipole along edir(3) : 
        Dipole               -0.2009 Ry au,         -0.5107 Debye
        Dipole field         -0.0005 Ry au
 
        Potential amp.        0.0450 Ry
        Total length         45.8022 bohr
 

     total cpu time spent up to now is      235.9 secs

     total energy              =   -1411.76884037 Ry
     Harris-Foulkes estimate   =   -1411.76885873 Ry
     estimated scf accuracy    <       0.00015552 Ry

     iteration # 10     ecut=    36.75 Ry     beta=0.30
     Davidson diagonalization with overlap
     ethr =  1.14E-07,  avg # of iterations =  3.0

     negative rho (up, down):  2.376E-04 0.000E+00
 
     Adding external electric field

     Computed dipole along edir(3) : 
        Dipole               -0.2010 Ry au,         -0.5109 Debye
        Dipole field         -0.0005 Ry au
 
        Potential amp.        0.0450 Ry
        Total length         45.8022 bohr
 

     total cpu time spent up to now is      261.6 secs

     total energy              =   -1411.76887252 Ry
     Harris-Foulkes estimate   =   -1411.76887707 Ry
     estimated scf accuracy    <       0.00002008 Ry

     iteration # 11     ecut=    36.75 Ry     beta=0.30
     Davidson diagonalization with overlap
     ethr =  1.48E-08,  avg # of iterations =  2.4

     negative rho (up, down):  2.425E-04 0.000E+00

     negative rho (up, down):  2.425E-04 0.000E+00

     negative rho (up, down):  2.425E-04 0.000E+00

     negative rho (up, down):  2.425E-04 0.000E+00

     negative rho (up, down):  2.425E-04 0.000E+00

     negative rho (up, down):  2.425E-04 0.000E+00

     negative rho (up, down):  2.425E-04 0.000E+00

     negative rho (up, down):  2.425E-04 0.000E+00

     negative rho (up, down):  2.425E-04 0.000E+00

     negative rho (up, down):  2.425E-04 0.000E+00

     negative rho (up, down):  2.425E-04 0.000E+00

     negative rho (up, down):  2.425E-04 0.000E+00

     negative rho (up, down):  2.425E-04 0.000E+00

     negative rho (up, down):  2.425E-04 0.000E+00

     negative rho (up, down):  2.425E-04 0.000E+00

     negative rho (up, down):  2.425E-04 0.000E+00

     negative rho (up, down):  2.425E-04 0.000E+00

     negative rho (up, down):  2.425E-04 0.000E+00

     negative rho (up, down):  2.425E-04 0.000E+00

     negative rho (up, down):  2.425E-04 0.000E+00

     negative rho (up, down):  2.425E-04 0.000E+00

     negative rho (up, down):  2.425E-04 0.000E+00

     negative rho (up, down):  2.425E-04 0.000E+00

     negative rho (up, down):  2.425E-04 0.000E+00

     negative rho (up, down):  2.425E-04 0.000E+00

     negative rho (up, down):  2.425E-04 0.000E+00

     negative rho (up, down):  2.425E-04 0.000E+00

     negative rho (up, down):  2.425E-04 0.000E+00

     negative rho (up, down):  2.425E-04 0.000E+00

     negative rho (up, down):  2.425E-04 0.000E+00

     negative rho (up, down):  2.425E-04 0.000E+00

     negative rho (up, down):  2.425E-04 0.000E+00

     negative rho (up, down):  2.425E-04 0.000E+00

     negative rho (up, down):  2.425E-04 0.000E+00

     negative rho (up, down):  2.425E-04 0.000E+00
 
     Adding external electric field

     Computed dipole along edir(3) : 
        Dipole               -0.2062 Ry au,         -0.5241 Debye
        Dipole field         -0.0005 Ry au
 
        Potential amp.        0.0461 Ry
        Total length         45.8022 bohr
 

     total cpu time spent up to now is      337.7 secs

     End of self-consistent calculation

          k = 0.0000 0.0000 0.0000 ( 19315 PWs)   bands (ev):

   -10.7744  -7.9540  -6.5016  -6.2991  -6.1664  -6.1664  -6.0565  -5.9590
    -5.9590  -5.8674  -5.6823  -5.6823  -5.6391  -5.4644  -5.4644  -5.3945
    -4.8058  -4.8058  -4.4627  -4.3799  -4.3799  -4.3705  -4.3349  -4.3349
    -4.1950  -4.1350  -4.1350  -4.0127  -4.0127  -3.9726  -3.8189  -3.8189
    -3.6705  -3.6609  -3.6609  -3.2895  -3.2895  -3.2502  -3.0923  -2.9429
    -2.9429  -2.7057  -2.7057  -2.6297  -2.6297  -2.5622  -2.3295  -2.3295
    -2.2414  -2.2205  -2.2205  -2.1513  -2.1119  -2.1119  -2.0441  -2.0027
    -2.0027  -1.9266  -1.8714  -1.8714  -1.6580  -1.6390  -1.6390  -0.9782
    -0.3551  -0.0811  -0.0811   0.7183   0.7183   0.8280   1.1504   1.3818
     1.3818   1.4650   1.5390   1.5390   3.1802   3.5031

          k = 0.0000 0.0323 0.0000 ( 19351 PWs)   bands (ev):

   -10.7364  -7.7767  -6.3370  -6.1568  -6.1418  -6.0422  -5.9643  -5.8787
    -5.8149  -5.7568  -5.6145  -5.6081  -5.5800  -5.3911  -5.3315  -5.2927
    -4.8155  -4.7720  -4.4839  -4.3919  -4.3789  -4.3651  -4.2868  -4.2504
    -4.2433  -4.1761  -4.0592  -4.0351  -4.0015  -3.9470  -3.9075  -3.7786
    -3.7404  -3.6907  -3.6529  -3.4302  -3.3689  -3.2981  -3.1496  -3.0173
    -2.9744  -2.8396  -2.8127  -2.7408  -2.6634  -2.6091  -2.4566  -2.4381
    -2.3889  -2.3731  -2.3018  -2.2766  -2.2424  -2.2108  -2.1706  -2.1187
    -2.1156  -2.0840  -2.0323  -2.0049  -1.8806  -1.8350  -1.8026  -1.2830
    -0.8458  -0.4463  -0.3020  -0.1922   0.4057   0.5897   0.8364   1.5604
     1.6083   2.0039   2.4111   2.5734   3.2724   3.6806

          k = 0.0000 0.0647 0.0000 ( 19389 PWs)   bands (ev):

   -10.6590  -7.2854  -6.2525  -5.9271  -5.7816  -5.7424  -5.7087  -5.6670
    -5.4869  -5.4831  -5.4390  -5.3851  -5.3703  -5.2191  -4.9991  -4.9461
    -4.8228  -4.7631  -4.6169  -4.4891  -4.4042  -4.3924  -4.3275  -4.2199
    -4.1880  -4.1558  -4.0632  -4.0361  -4.0136  -3.9420  -3.8469  -3.8291
    -3.7852  -3.7168  -3.6801  -3.6467  -3.4598  -3.4263  -3.3200  -3.2478
    -3.2115  -3.1521  -3.0900  -3.0540  -3.0187  -2.9949  -2.9093  -2.8565
    -2.7837  -2.7036  -2.6706  -2.6105  -2.5203  -2.4954  -2.4767  -2.4525
    -2.2716  -2.2524  -2.2505  -2.1265  -2.1102  -2.0603  -1.9379  -1.8736
    -1.5956  -0.5577  -0.4930  -0.1650   0.2972   0.3454   0.7396   1.5081
     1.7131   2.4880   2.8026   3.7739   3.7952   4.0961

          k = 0.0000-0.0970 0.0000 ( 19380 PWs)   bands (ev):

   -10.6196  -6.7142  -6.5893  -5.8101  -5.5977  -5.5598  -5.4076  -5.3807
    -5.3599  -5.3540  -5.3408  -5.0891  -5.0346  -5.0060  -4.9145  -4.8838
    -4.8091  -4.6998  -4.6658  -4.5353  -4.5060  -4.4485  -4.4415  -4.2539
    -4.2478  -4.2047  -4.0999  -3.9950  -3.9783  -3.8974  -3.8534  -3.8357
    -3.7635  -3.7070  -3.6720  -3.6480  -3.6412  -3.6015  -3.5222  -3.5162
    -3.4860  -3.4592  -3.2902  -3.2641  -3.1892  -3.1387  -3.1040  -3.0767
    -2.9876  -2.9655  -2.9092  -2.8356  -2.7888  -2.6756  -2.6016  -2.5509
    -2.4879  -2.3624  -2.2593  -2.1382  -2.0863  -2.0765  -1.9272  -1.8635
    -1.6890  -0.6300  -0.5377  -0.1226   0.2504   0.2857   0.7580   1.4838
     1.7302   2.5076   3.3226   3.9625   3.9800   4.4890

          k = 0.0280-0.0162 0.0000 ( 19351 PWs)   bands (ev):

   -10.7364  -7.7767  -6.3370  -6.1568  -6.1418  -6.0422  -5.9643  -5.8787
    -5.8149  -5.7568  -5.6145  -5.6081  -5.5800  -5.3911  -5.3315  -5.2927
    -4.8155  -4.7720  -4.4839  -4.3919  -4.3789  -4.3651  -4.2868  -4.2504
    -4.2433  -4.1761  -4.0592  -4.0351  -4.0015  -3.9470  -3.9075  -3.7786
    -3.7404  -3.6907  -3.6529  -3.4302  -3.3689  -3.2981  -3.1496  -3.0173
    -2.9744  -2.8396  -2.8127  -2.7408  -2.6634  -2.6091  -2.4566  -2.4381
    -2.3889  -2.3731  -2.3018  -2.2766  -2.2424  -2.2108  -2.1706  -2.1187
    -2.1156  -2.0840  -2.0323  -2.0049  -1.8806  -1.8350  -1.8026  -1.2830
    -0.8458  -0.4463  -0.3020  -0.1922   0.4057   0.5897   0.8364   1.5604
     1.6083   2.0039   2.4111   2.5734   3.2724   3.6807

          k = 0.0280 0.0162 0.0000 ( 19351 PWs)   bands (ev):

   -10.7364  -7.7767  -6.3370  -6.1568  -6.1418  -6.0422  -5.9643  -5.8787
    -5.8149  -5.7568  -5.6145  -5.6081  -5.5800  -5.3911  -5.3315  -5.2927
    -4.8155  -4.7720  -4.4839  -4.3919  -4.3789  -4.3651  -4.2867  -4.2504
    -4.2433  -4.1761  -4.0592  -4.0351  -4.0015  -3.9470  -3.9075  -3.7786
    -3.7404  -3.6907  -3.6529  -3.4302  -3.3689  -3.2981  -3.1496  -3.0173
    -2.9744  -2.8396  -2.8127  -2.7408  -2.6634  -2.6091  -2.4566  -2.4381
    -2.3889  -2.3731  -2.3018  -2.2766  -2.2424  -2.2108  -2.1706  -2.1187
    -2.1156  -2.0840  -2.0323  -2.0049  -1.8806  -1.8350  -1.8026  -1.2830
    -0.8458  -0.4463  -0.3020  -0.1922   0.4057   0.5897   0.8364   1.5604
     1.6083   2.0039   2.4111   2.5734   3.2724   3.6807

          k = 0.0280 0.0485 0.0000 ( 19345 PWs)   bands (ev):

   -10.6786  -7.4391  -6.1337  -6.0070  -5.9817  -5.8533  -5.7250  -5.7029
    -5.6508  -5.5316  -5.4857  -5.4703  -5.4379  -5.2296  -5.1985  -4.9974
    -4.8502  -4.7445  -4.5334  -4.4539  -4.4381  -4.3546  -4.3398  -4.2023
    -4.1919  -4.1436  -4.1049  -4.0327  -3.9983  -3.9582  -3.8618  -3.8526
    -3.7965  -3.7085  -3.6227  -3.5869  -3.4790  -3.4122  -3.2598  -3.1603
    -3.0797  -3.0616  -3.0451  -2.9562  -2.9436  -2.8428  -2.7904  -2.7872
    -2.6652  -2.5887  -2.5512  -2.5130  -2.4489  -2.4431  -2.3329  -2.3010
    -2.2517  -2.1862  -2.1439  -2.0655  -2.0569  -1.9846  -1.9556  -1.5168
    -1.4367  -1.0171  -0.7816  -0.3837   0.3055   0.6486   1.2110   1.6561
     1.9351   2.1473   2.4246   2.9526   3.7728   4.0754

          k = 0.0280-0.1132 0.0000 ( 19376 PWs)   bands (ev):

   -10.6198  -6.8546  -6.2841  -5.8503  -5.6438  -5.5326  -5.4458  -5.4120
    -5.3680  -5.3224  -5.2813  -5.2104  -5.0839  -5.0212  -4.9336  -4.8607
    -4.7838  -4.7172  -4.6351  -4.5771  -4.5128  -4.4732  -4.3795  -4.3337
    -4.2873  -4.2207  -4.1068  -4.0804  -4.0339  -3.9625  -3.9531  -3.9072
    -3.8131  -3.7697  -3.7422  -3.6689  -3.6612  -3.5597  -3.4569  -3.4396
    -3.3863  -3.3735  -3.3062  -3.2108  -3.1725  -3.1243  -3.0572  -3.0339
    -2.9044  -2.8687  -2.8110  -2.7298  -2.6244  -2.5494  -2.5220  -2.4482
    -2.3132  -2.2884  -2.2388  -2.2006  -2.1473  -2.0474  -2.0137  -1.9727
    -1.5987  -1.3840  -0.8406  -0.4454   0.1985   0.5694   1.2577   1.4826
     1.9800   2.8391   3.1546   3.5068   3.7879   4.6613

          k = 0.0280-0.0808 0.0000 ( 19376 PWs)   bands (ev):

   -10.6198  -6.8546  -6.2841  -5.8503  -5.6438  -5.5326  -5.4458  -5.4120
    -5.3680  -5.3224  -5.2813  -5.2104  -5.0839  -5.0212  -4.9336  -4.8607
    -4.7838  -4.7172  -4.6351  -4.5771  -4.5128  -4.4732  -4.3795  -4.3337
    -4.2873  -4.2207  -4.1068  -4.0804  -4.0339  -3.9625  -3.9531  -3.9072
    -3.8131  -3.7697  -3.7422  -3.6689  -3.6612  -3.5597  -3.4569  -3.4396
    -3.3863  -3.3735  -3.3062  -3.2108  -3.1725  -3.1243  -3.0572  -3.0339
    -2.9044  -2.8686  -2.8110  -2.7298  -2.6244  -2.5494  -2.5220  -2.4482
    -2.3132  -2.2884  -2.2388  -2.2006  -2.1473  -2.0474  -2.0137  -1.9727
    -1.5987  -1.3840  -0.8406  -0.4454   0.1985   0.5694   1.2577   1.4826
     1.9800   2.8391   3.1546   3.5068   3.7879   4.6611

          k = 0.0280-0.0485 0.0000 ( 19345 PWs)   bands (ev):

   -10.6786  -7.4391  -6.1337  -6.0070  -5.9817  -5.8533  -5.7250  -5.7029
    -5.6508  -5.5316  -5.4857  -5.4703  -5.4379  -5.2296  -5.1985  -4.9974
    -4.8502  -4.7445  -4.5334  -4.4539  -4.4381  -4.3546  -4.3398  -4.2023
    -4.1919  -4.1436  -4.1049  -4.0327  -3.9983  -3.9582  -3.8618  -3.8526
    -3.7965  -3.7085  -3.6227  -3.5869  -3.4790  -3.4122  -3.2598  -3.1603
    -3.0797  -3.0616  -3.0451  -2.9562  -2.9436  -2.8428  -2.7904  -2.7872
    -2.6652  -2.5887  -2.5512  -2.5130  -2.4489  -2.4431  -2.3329  -2.3010
    -2.2517  -2.1862  -2.1439  -2.0655  -2.0569  -1.9846  -1.9556  -1.5168
    -1.4367  -1.0171  -0.7816  -0.3837   0.3055   0.6486   1.2110   1.6561
     1.9351   2.1473   2.4246   2.9526   3.7728   4.0754

          k = 0.0560-0.0323 0.0000 ( 19389 PWs)   bands (ev):

   -10.6590  -7.2854  -6.2525  -5.9271  -5.7816  -5.7424  -5.7087  -5.6670
    -5.4869  -5.4831  -5.4390  -5.3851  -5.3703  -5.2191  -4.9991  -4.9461
    -4.8228  -4.7631  -4.6169  -4.4891  -4.4042  -4.3924  -4.3275  -4.2199
    -4.1880  -4.1558  -4.0632  -4.0361  -4.0136  -3.9420  -3.8469  -3.8291
    -3.7852  -3.7168  -3.6801  -3.6467  -3.4598  -3.4263  -3.3200  -3.2478
    -3.2115  -3.1521  -3.0900  -3.0540  -3.0187  -2.9949  -2.9093  -2.8565
    -2.7837  -2.7036  -2.6706  -2.6105  -2.5203  -2.4954  -2.4767  -2.4525
    -2.2716  -2.2524  -2.2505  -2.1265  -2.1102  -2.0603  -1.9379  -1.8736
    -1.5956  -0.5577  -0.4930  -0.1650   0.2972   0.3454   0.7396   1.5081
     1.7131   2.4880   2.8026   3.7739   3.7952   4.0961

          k = 0.0560 0.0000 0.0000 ( 19345 PWs)   bands (ev):

   -10.6786  -7.4391  -6.1337  -6.0070  -5.9817  -5.8533  -5.7250  -5.7029
    -5.6508  -5.5316  -5.4857  -5.4703  -5.4379  -5.2296  -5.1985  -4.9974
    -4.8502  -4.7445  -4.5334  -4.4539  -4.4381  -4.3546  -4.3398  -4.2023
    -4.1919  -4.1436  -4.1049  -4.0327  -3.9983  -3.9582  -3.8618  -3.8526
    -3.7965  -3.7085  -3.6227  -3.5869  -3.4790  -3.4122  -3.2598  -3.1603
    -3.0797  -3.0616  -3.0451  -2.9562  -2.9437  -2.8428  -2.7904  -2.7872
    -2.6652  -2.5887  -2.5512  -2.5130  -2.4489  -2.4431  -2.3329  -2.3010
    -2.2517  -2.1862  -2.1439  -2.0655  -2.0569  -1.9846  -1.9556  -1.5168
    -1.4367  -1.0171  -0.7816  -0.3837   0.3055   0.6486   1.2110   1.6561
     1.9351   2.1473   2.4246   2.9526   3.7728   4.0754

          k = 0.0560 0.0323 0.0000 ( 19389 PWs)   bands (ev):

   -10.6590  -7.2854  -6.2525  -5.9271  -5.7816  -5.7424  -5.7087  -5.6670
    -5.4869  -5.4831  -5.4390  -5.3851  -5.3703  -5.2191  -4.9991  -4.9461
    -4.8228  -4.7631  -4.6169  -4.4891  -4.4042  -4.3924  -4.3275  -4.2199
    -4.1880  -4.1558  -4.0632  -4.0361  -4.0136  -3.9420  -3.8469  -3.8291
    -3.7852  -3.7168  -3.6801  -3.6467  -3.4598  -3.4263  -3.3200  -3.2478
    -3.2115  -3.1521  -3.0900  -3.0540  -3.0187  -2.9949  -2.9093  -2.8565
    -2.7837  -2.7036  -2.6706  -2.6105  -2.5203  -2.4954  -2.4767  -2.4525
    -2.2716  -2.2524  -2.2505  -2.1265  -2.1102  -2.0603  -1.9379  -1.8736
    -1.5956  -0.5577  -0.4930  -0.1650   0.2972   0.3454   0.7396   1.5081
     1.7131   2.4880   2.8026   3.7739   3.7952   4.0961

          k = 0.0560-0.1294 0.0000 ( 19376 PWs)   bands (ev):

   -10.6198  -6.8546  -6.2841  -5.8503  -5.6438  -5.5326  -5.4458  -5.4120
    -5.3680  -5.3224  -5.2813  -5.2104  -5.0839  -5.0212  -4.9336  -4.8607
    -4.7838  -4.7172  -4.6351  -4.5771  -4.5128  -4.4732  -4.3795  -4.3337
    -4.2873  -4.2207  -4.1068  -4.0804  -4.0339  -3.9625  -3.9531  -3.9072
    -3.8131  -3.7697  -3.7422  -3.6689  -3.6612  -3.5597  -3.4569  -3.4396
    -3.3863  -3.3735  -3.3062  -3.2108  -3.1725  -3.1243  -3.0572  -3.0339
    -2.9044  -2.8686  -2.8110  -2.7298  -2.6244  -2.5494  -2.5220  -2.4482
    -2.3132  -2.2884  -2.2388  -2.2006  -2.1473  -2.0474  -2.0137  -1.9727
    -1.5987  -1.3840  -0.8406  -0.4454   0.1985   0.5694   1.2577   1.4826
     1.9800   2.8391   3.1546   3.5068   3.7879   4.6612

          k = 0.0560-0.0970 0.0000 ( 19365 PWs)   bands (ev):

   -10.6001  -6.3929  -6.2034  -6.1702  -5.5484  -5.3376  -5.2820  -5.2296
    -5.2031  -5.1661  -5.1277  -5.0527  -5.0482  -4.9322  -4.9054  -4.9013
    -4.8188  -4.6483  -4.6395  -4.6007  -4.5892  -4.5108  -4.4990  -4.4097
    -4.3332  -4.3035  -4.2593  -4.1510  -4.1235  -4.0987  -4.0784  -4.0659
    -4.0496  -3.8545  -3.7295  -3.7132  -3.6409  -3.6348  -3.6128  -3.6082
    -3.4743  -3.4670  -3.2350  -3.2099  -3.1614  -3.1100  -2.9903  -2.9759
    -2.8777  -2.8619  -2.7287  -2.5945  -2.5405  -2.5230  -2.4930  -2.4412
    -2.2732  -2.2501  -2.2329  -2.2247  -2.1910  -2.1778  -2.1742  -2.1434
    -1.8441  -1.7368  -1.3067  -0.4054   0.0059   0.5581   1.2808   1.7876
     2.4432   3.0199   3.2362   3.3925   4.3766   4.4716

          k = 0.0560-0.0647 0.0000 ( 19376 PWs)   bands (ev):

   -10.6198  -6.8546  -6.2841  -5.8503  -5.6438  -5.5326  -5.4458  -5.4120
    -5.3680  -5.3224  -5.2813  -5.2104  -5.0839  -5.0212  -4.9336  -4.8607
    -4.7838  -4.7172  -4.6351  -4.5771  -4.5128  -4.4732  -4.3795  -4.3337
    -4.2873  -4.2207  -4.1068  -4.0804  -4.0339  -3.9625  -3.9531  -3.9072
    -3.8131  -3.7697  -3.7422  -3.6689  -3.6612  -3.5597  -3.4569  -3.4396
    -3.3863  -3.3735  -3.3062  -3.2108  -3.1725  -3.1243  -3.0572  -3.0339
    -2.9044  -2.8686  -2.8110  -2.7298  -2.6244  -2.5494  -2.5220  -2.4482
    -2.3132  -2.2884  -2.2388  -2.2006  -2.1473  -2.0474  -2.0137  -1.9727
    -1.5987  -1.3840  -0.8406  -0.4454   0.1985   0.5694   1.2577   1.4826
     1.9800   2.8391   3.1546   3.5068   3.7879   4.6612

          k =-0.0840 0.0485 0.0000 ( 19380 PWs)   bands (ev):

   -10.6196  -6.7142  -6.5893  -5.8101  -5.5977  -5.5598  -5.4076  -5.3807
    -5.3599  -5.3540  -5.3408  -5.0891  -5.0346  -5.0060  -4.9145  -4.8838
    -4.8091  -4.6998  -4.6658  -4.5353  -4.5060  -4.4485  -4.4415  -4.2539
    -4.2478  -4.2047  -4.0999  -3.9949  -3.9783  -3.8974  -3.8534  -3.8357
    -3.7635  -3.7070  -3.6720  -3.6480  -3.6412  -3.6015  -3.5222  -3.5162
    -3.4860  -3.4592  -3.2902  -3.2641  -3.1892  -3.1387  -3.1040  -3.0767
    -2.9876  -2.9655  -2.9092  -2.8356  -2.7889  -2.6756  -2.6016  -2.5509
    -2.4879  -2.3624  -2.2593  -2.1382  -2.0864  -2.0765  -1.9272  -1.8635
    -1.6890  -0.6300  -0.5377  -0.1226   0.2504   0.2857   0.7580   1.4838
     1.7302   2.5076   3.3226   3.9625   3.9800   4.4891

          k =-0.0840 0.0808 0.0000 ( 19376 PWs)   bands (ev):

   -10.6198  -6.8546  -6.2841  -5.8503  -5.6438  -5.5326  -5.4458  -5.4120
    -5.3680  -5.3224  -5.2813  -5.2104  -5.0839  -5.0212  -4.9336  -4.8607
    -4.7838  -4.7172  -4.6351  -4.5771  -4.5128  -4.4732  -4.3795  -4.3337
    -4.2873  -4.2207  -4.1068  -4.0804  -4.0339  -3.9625  -3.9531  -3.9072
    -3.8131  -3.7697  -3.7422  -3.6689  -3.6612  -3.5597  -3.4569  -3.4396
    -3.3863  -3.3735  -3.3062  -3.2108  -3.1725  -3.1243  -3.0572  -3.0339
    -2.9044  -2.8687  -2.8110  -2.7298  -2.6244  -2.5494  -2.5220  -2.4482
    -2.3132  -2.2884  -2.2388  -2.2006  -2.1473  -2.0474  -2.0137  -1.9727
    -1.5987  -1.3840  -0.8406  -0.4454   0.1985   0.5694   1.2577   1.4826
     1.9800   2.8391   3.1546   3.5068   3.7879   4.6611

          k =-0.0840 0.1132 0.0000 ( 19376 PWs)   bands (ev):

   -10.6198  -6.8546  -6.2841  -5.8503  -5.6438  -5.5326  -5.4458  -5.4120
    -5.3680  -5.3224  -5.2813  -5.2104  -5.0839  -5.0212  -4.9336  -4.8607
    -4.7838  -4.7172  -4.6351  -4.5771  -4.5128  -4.4732  -4.3795  -4.3337
    -4.2873  -4.2207  -4.1068  -4.0804  -4.0339  -3.9625  -3.9531  -3.9072
    -3.8131  -3.7697  -3.7422  -3.6689  -3.6612  -3.5597  -3.4569  -3.4396
    -3.3863  -3.3735  -3.3062  -3.2108  -3.1725  -3.1243  -3.0572  -3.0339
    -2.9044  -2.8686  -2.8110  -2.7298  -2.6244  -2.5494  -2.5220  -2.4482
    -2.3132  -2.2884  -2.2388  -2.2006  -2.1473  -2.0474  -2.0137  -1.9727
    -1.5987  -1.3840  -0.8406  -0.4454   0.1985   0.5694   1.2577   1.4826
     1.9800   2.8391   3.1546   3.5068   3.7879   4.6611

          k =-0.0840-0.0485 0.0000 ( 19380 PWs)   bands (ev):

   -10.6196  -6.7142  -6.5893  -5.8101  -5.5976  -5.5598  -5.4076  -5.3807
    -5.3599  -5.3540  -5.3408  -5.0891  -5.0346  -5.0060  -4.9145  -4.8838
    -4.8091  -4.6998  -4.6658  -4.5353  -4.5060  -4.4485  -4.4415  -4.2539
    -4.2478  -4.2047  -4.0999  -3.9949  -3.9783  -3.8974  -3.8534  -3.8357
    -3.7635  -3.7070  -3.6720  -3.6480  -3.6412  -3.6015  -3.5222  -3.5162
    -3.4860  -3.4592  -3.2902  -3.2641  -3.1892  -3.1387  -3.1040  -3.0767
    -2.9876  -2.9655  -2.9092  -2.8356  -2.7889  -2.6756  -2.6016  -2.5509
    -2.4879  -2.3624  -2.2593  -2.1382  -2.0863  -2.0765  -1.9272  -1.8635
    -1.6890  -0.6300  -0.5377  -0.1226   0.2504   0.2857   0.7580   1.4838
     1.7302   2.5076   3.3226   3.9625   3.9800   4.4891

     the Fermi energy is     0.0121 ev

!    total energy              =   -1411.76887315 Ry
     Harris-Foulkes estimate   =   -1411.76887028 Ry
     estimated scf accuracy    <       0.00000416 Ry

     The total energy is the sum of the following terms:

     one-electron contribution =   -8227.52494342 Ry
     hartree contribution      =    4209.96069857 Ry
     xc contribution           =    -771.45184111 Ry
     ewald contribution        =    3377.27250921 Ry
     electric field correction =       0.00010383 Ry
     smearing contrib. (-TS)   =      -0.02540023 Ry

     convergence has been achieved in  11 iterations
 
 BEEF-vdW xc energy contributions
           1 :   -689.530967142621     
           2 :    641.026352277193     
           3 :   -554.241894026574     
           4 :    445.947238100644     
           5 :   -334.298009338709     
           6 :    234.162267887956     
           7 :   -154.293790966408     
           8 :    96.8393414943223     
           9 :   -58.9072246835327     
          10 :    35.2068014436747     
          11 :   -20.5660775368030     
          12 :    11.3975254143193     
          13 :   -5.86599504858373     
          14 :    3.14218875026791     
          15 :   -2.46636001467459     
          16 :    2.62333637763868     
          17 :   -2.07231060449476     
          18 :  -0.450255835457597     
          19 :    5.27904209206099     
          20 :   -11.5571881286680     
          21 :    17.5521753447449     
          22 :   -21.4206129584571     
          23 :    22.0343395580655     
          24 :   -19.4614010072237     
          25 :    14.8789960246706     
          26 :   -9.99499355513842     
          27 :    6.28647331731554     
          28 :   -4.43676273854180     
          29 :    4.21631695879876     
          30 :   -4.81309614775478     
          31 :   -54.5893782550155     
          32 :   -39.8062676772640     

     Forces acting on atoms (Ry/au):


     negative rho (up, down):  2.425E-04 0.000E+00
     atom    1 type  1   force =    -0.00150170   -0.00087863   -0.00191388
     atom    2 type  1   force =     0.00151598   -0.00087551   -0.00190731
     atom    3 type  1   force =     0.00001205    0.00173828   -0.00189320
     atom    4 type  1   force =    -0.00000711   -0.00000631   -0.00385658
     atom    5 type  1   force =    -0.00000474    0.00380569    0.00271385
     atom    6 type  1   force =     0.00000202    0.00000340   -0.00831931
     atom    7 type  1   force =    -0.00329030   -0.00190746    0.00270443
     atom    8 type  1   force =     0.00328874   -0.00188925    0.00270605
     atom    9 type  1   force =    -0.00000934    0.00000210   -0.00262725
     atom   10 type  1   force =    -0.00000344    0.00631016    0.02887497
     atom   11 type  1   force =     0.00545892   -0.00315500    0.02891819
     atom   12 type  1   force =    -0.00546295   -0.00314548    0.02891735
     atom   13 type  2   force =     0.00000187   -0.00000199   -0.07431732

     Total force =     0.090308     Total SCF correction =     0.005361


     entering subroutine stress ...


     negative rho (up, down):  2.425E-04 0.000E+00
          total   stress  (Ry/bohr**3)                   (kbar)     P=  -11.09
  -0.00010611   0.00000000  -0.00000000        -15.61      0.00     -0.00
   0.00000000  -0.00010611  -0.00000000          0.00    -15.61     -0.00
  -0.00000000  -0.00000000  -0.00001405         -0.00     -0.00     -2.07


     BFGS Geometry Optimization

     number of scf cycles    =   1
     number of bfgs steps    =   0

     energy   new            =   -1411.7688731504 Ry

     new trust radius        =       0.0743173235 bohr
     new conv_thr            =       0.0000099958 Ry


ATOMIC_POSITIONS (crystal)
Au1      0.166666667   0.166666667   0.402269971    0   0   0
Au1      0.666666667   0.166666667   0.402269971    0   0   0
Au1      0.166666667   0.666666667   0.402269971    0   0   0
Au1      0.666666667   0.666666667   0.402269971    0   0   0
Au1      0.833333333   0.333333333   0.500000000    0   0   0
Au1      0.333333333   0.333333333   0.500000000    0   0   0
Au1      0.833333333   0.833333333   0.500000000    0   0   0
Au1      0.333333333   0.833333333   0.500000000    0   0   0
Au1     -0.000000938   0.000000216   0.597674102
Au1      0.499675731   0.000647926   0.598344697
Au1      0.000647402   0.499676045   0.598345617
Au1      0.499675705   0.499677023   0.598345599
C1       0.333333602   0.333333129   0.651580823



     Writing output data file calc.save
     Check: negative starting charge=   -0.000116
     NEW-OLD atomic charge density approx. for the potential

     Check: negative/imaginary core charge=   -0.000002    0.000000
     Check: negative starting charge=   -0.000117

     negative rho (up, down):  2.571E-04 0.000E+00
 
     Adding external electric field

     Computed dipole along edir(3) : 
        Dipole               -0.2062 Ry au,         -0.5240 Debye
        Dipole field         -0.0005 Ry au
 
        Potential amp.        0.0461 Ry
        Total length         45.8022 bohr
 

     total cpu time spent up to now is      440.8 secs

     per-process dynamical memory:    82.7 Mb

     Self-consistent Calculation

     iteration #  1     ecut=    36.75 Ry     beta=0.30
     Davidson diagonalization with overlap
     ethr =  1.00E-06,  avg # of iterations =  4.8

     negative rho (up, down):  2.501E-04 0.000E+00
 
     Adding external electric field

     Computed dipole along edir(3) : 
        Dipole               -0.2192 Ry au,         -0.5572 Debye
        Dipole field         -0.0005 Ry au
 
        Potential amp.        0.0490 Ry
        Total length         45.8022 bohr
 

     total cpu time spent up to now is      474.4 secs

     total energy              =   -1411.77597845 Ry
     Harris-Foulkes estimate   =   -1411.77677455 Ry
     estimated scf accuracy    <       0.00190292 Ry

     iteration #  2     ecut=    36.75 Ry     beta=0.30
     Davidson diagonalization with overlap
     ethr =  1.40E-06,  avg # of iterations =  3.3

     negative rho (up, down):  2.526E-04 0.000E+00
 
     Adding external electric field

     Computed dipole along edir(3) : 
        Dipole               -0.1535 Ry au,         -0.3901 Debye
        Dipole field         -0.0004 Ry au
 
        Potential amp.        0.0343 Ry
        Total length         45.8022 bohr
 

     total cpu time spent up to now is      498.7 secs

     total energy              =   -1411.77565179 Ry
     Harris-Foulkes estimate   =   -1411.77699324 Ry
     estimated scf accuracy    <       0.00843977 Ry

     iteration #  3     ecut=    36.75 Ry     beta=0.30
     Davidson diagonalization with overlap
     ethr =  1.40E-06,  avg # of iterations =  3.2

     negative rho (up, down):  2.620E-04 0.000E+00
 
     Adding external electric field

     Computed dipole along edir(3) : 
        Dipole               -0.1992 Ry au,         -0.5063 Debye
        Dipole field         -0.0005 Ry au
 
        Potential amp.        0.0446 Ry
        Total length         45.8022 bohr
 

     total cpu time spent up to now is      522.7 secs

     total energy              =   -1411.77593051 Ry
     Harris-Foulkes estimate   =   -1411.77699556 Ry
     estimated scf accuracy    <       0.01597482 Ry

     iteration #  4     ecut=    36.75 Ry     beta=0.30
     Davidson diagonalization with overlap
     ethr =  1.40E-06,  avg # of iterations =  3.2

     negative rho (up, down):  2.582E-04 0.000E+00
 
     Adding external electric field

     Computed dipole along edir(3) : 
        Dipole               -0.1923 Ry au,         -0.4888 Debye
        Dipole field         -0.0005 Ry au
 
        Potential amp.        0.0430 Ry
        Total length         45.8022 bohr
 

     total cpu time spent up to now is      546.4 secs

     total energy              =   -1411.77647580 Ry
     Harris-Foulkes estimate   =   -1411.77652457 Ry
     estimated scf accuracy    <       0.00022461 Ry

     iteration #  5     ecut=    36.75 Ry     beta=0.30
     Davidson diagonalization with overlap
     ethr =  1.65E-07,  avg # of iterations =  2.0

     negative rho (up, down):  2.446E-04 0.000E+00
 
     Adding external electric field

     Computed dipole along edir(3) : 
        Dipole               -0.1913 Ry au,         -0.4863 Debye
        Dipole field         -0.0005 Ry au
 
        Potential amp.        0.0428 Ry
        Total length         45.8022 bohr
 

     total cpu time spent up to now is      569.9 secs

     total energy              =   -1411.77649544 Ry
     Harris-Foulkes estimate   =   -1411.77650198 Ry
     estimated scf accuracy    <       0.00003392 Ry

     iteration #  6     ecut=    36.75 Ry     beta=0.30
     Davidson diagonalization with overlap
     ethr =  2.49E-08,  avg # of iterations =  2.0

     negative rho (up, down):  2.444E-04 0.000E+00

     negative rho (up, down):  2.444E-04 0.000E+00

     negative rho (up, down):  2.444E-04 0.000E+00

     negative rho (up, down):  2.444E-04 0.000E+00

     negative rho (up, down):  2.444E-04 0.000E+00

     negative rho (up, down):  2.444E-04 0.000E+00

     negative rho (up, down):  2.444E-04 0.000E+00

     negative rho (up, down):  2.444E-04 0.000E+00

     negative rho (up, down):  2.444E-04 0.000E+00

     negative rho (up, down):  2.444E-04 0.000E+00

     negative rho (up, down):  2.444E-04 0.000E+00

     negative rho (up, down):  2.444E-04 0.000E+00

     negative rho (up, down):  2.444E-04 0.000E+00

     negative rho (up, down):  2.444E-04 0.000E+00

     negative rho (up, down):  2.444E-04 0.000E+00

     negative rho (up, down):  2.444E-04 0.000E+00

     negative rho (up, down):  2.444E-04 0.000E+00

     negative rho (up, down):  2.444E-04 0.000E+00

     negative rho (up, down):  2.444E-04 0.000E+00

     negative rho (up, down):  2.444E-04 0.000E+00

     negative rho (up, down):  2.444E-04 0.000E+00

     negative rho (up, down):  2.444E-04 0.000E+00

     negative rho (up, down):  2.444E-04 0.000E+00

     negative rho (up, down):  2.444E-04 0.000E+00

     negative rho (up, down):  2.444E-04 0.000E+00

     negative rho (up, down):  2.444E-04 0.000E+00

     negative rho (up, down):  2.444E-04 0.000E+00

     negative rho (up, down):  2.444E-04 0.000E+00

     negative rho (up, down):  2.444E-04 0.000E+00

     negative rho (up, down):  2.444E-04 0.000E+00

     negative rho (up, down):  2.444E-04 0.000E+00

     negative rho (up, down):  2.444E-04 0.000E+00

     negative rho (up, down):  2.444E-04 0.000E+00

     negative rho (up, down):  2.444E-04 0.000E+00

     negative rho (up, down):  2.444E-04 0.000E+00
 
     Adding external electric field

     Computed dipole along edir(3) : 
        Dipole               -0.1908 Ry au,         -0.4849 Debye
        Dipole field         -0.0005 Ry au
 
        Potential amp.        0.0427 Ry
        Total length         45.8022 bohr
 

     total cpu time spent up to now is      644.7 secs

     End of self-consistent calculation

          k = 0.0000 0.0000 0.0000 ( 19315 PWs)   bands (ev):

   -10.9812  -7.9384  -6.4981  -6.2926  -6.1909  -6.1909  -6.0504  -5.9589
    -5.9589  -5.8703  -5.6771  -5.6771  -5.6301  -5.4580  -5.4580  -5.3770
    -4.8730  -4.8730  -4.4753  -4.3874  -4.3874  -4.3562  -4.3519  -4.3519
    -4.1823  -4.1267  -4.1267  -4.0143  -4.0143  -3.9571  -3.8100  -3.8100
    -3.6625  -3.6625  -3.6521  -3.3125  -3.3125  -3.2452  -3.1048  -2.9396
    -2.9396  -2.7112  -2.7112  -2.6270  -2.6270  -2.5461  -2.3228  -2.3228
    -2.2411  -2.2265  -2.2265  -2.1881  -2.1069  -2.1069  -2.0430  -2.0133
    -2.0133  -1.9165  -1.8707  -1.8707  -1.6477  -1.6289  -1.6289  -0.9625
    -0.3481  -0.0942  -0.0942   0.7427   0.7427   0.8269   1.1961   1.3918
     1.3918   1.4734   1.5406   1.5406   3.1783   3.5576

          k = 0.0000 0.0323 0.0000 ( 19351 PWs)   bands (ev):

   -10.9435  -7.7606  -6.3367  -6.1776  -6.1358  -6.0657  -5.9637  -5.8793
    -5.8142  -5.7576  -5.6091  -5.6011  -5.5701  -5.3852  -5.3300  -5.2837
    -4.8767  -4.8368  -4.4883  -4.4014  -4.3933  -4.3784  -4.2815  -4.2650
    -4.2356  -4.1647  -4.0521  -4.0240  -3.9919  -3.9412  -3.9017  -3.7776
    -3.7336  -3.6862  -3.6521  -3.4406  -3.3872  -3.3010  -3.1630  -3.0163
    -2.9723  -2.8433  -2.8184  -2.7376  -2.6667  -2.5922  -2.4674  -2.4497
    -2.3886  -2.3756  -2.3081  -2.2769  -2.2500  -2.2036  -2.1755  -2.1134
    -2.1132  -2.0779  -2.0316  -2.0020  -1.8730  -1.8270  -1.7927  -1.2893
    -0.8267  -0.4219  -0.3211  -0.1936   0.4260   0.5982   0.8554   1.5995
     1.6299   2.0094   2.4177   2.5813   3.2775   3.6874

          k = 0.0000 0.0647 0.0000 ( 19389 PWs)   bands (ev):

   -10.8665  -7.2696  -6.2656  -5.9350  -5.7995  -5.7414  -5.7284  -5.6644
    -5.4757  -5.4694  -5.4314  -5.3837  -5.3701  -5.2166  -5.0348  -4.9491
    -4.8598  -4.7922  -4.6134  -4.4916  -4.4202  -4.3917  -4.3317  -4.2192
    -4.1899  -4.1497  -4.0694  -4.0528  -4.0112  -3.9438  -3.8444  -3.8251
    -3.7811  -3.7121  -3.6738  -3.6485  -3.4684  -3.4305  -3.3307  -3.2606
    -3.2172  -3.1627  -3.0888  -3.0525  -3.0151  -2.9928  -2.9102  -2.8428
    -2.7870  -2.7088  -2.6611  -2.6198  -2.5120  -2.4960  -2.4732  -2.4497
    -2.2673  -2.2535  -2.2493  -2.1239  -2.0948  -2.0566  -1.9329  -1.8666
    -1.5855  -0.5304  -0.5160  -0.1558   0.3129   0.3627   0.7446   1.5307
     1.7456   2.5218   2.8055   3.8026   3.8087   4.1239

          k = 0.0000-0.0970 0.0000 ( 19380 PWs)   bands (ev):

   -10.8271  -6.7113  -6.5736  -5.8583  -5.5992  -5.5731  -5.3978  -5.3737
    -5.3491  -5.3484  -5.3330  -5.1457  -5.0351  -5.0000  -4.9418  -4.8827
    -4.8191  -4.6958  -4.6817  -4.5290  -4.4965  -4.4516  -4.4344  -4.2770
    -4.2571  -4.2106  -4.1152  -4.0128  -4.0076  -3.9018  -3.8523  -3.8388
    -3.7717  -3.7041  -3.6626  -3.6437  -3.6368  -3.5992  -3.5155  -3.5152
    -3.4768  -3.4511  -3.2929  -3.2548  -3.1970  -3.1527  -3.1011  -3.0859
    -2.9928  -2.9609  -2.9157  -2.8147  -2.7840  -2.6703  -2.6027  -2.5462
    -2.4815  -2.3636  -2.2658  -2.1367  -2.0826  -2.0727  -1.9224  -1.8581
    -1.6462  -0.6265  -0.5619  -0.1182   0.2814   0.3002   0.7633   1.5051
     1.7638   2.5415   3.3551   3.9615   4.0325   4.5214

          k = 0.0280-0.0162 0.0000 ( 19351 PWs)   bands (ev):

   -10.9435  -7.7606  -6.3367  -6.1776  -6.1358  -6.0657  -5.9637  -5.8793
    -5.8142  -5.7576  -5.6091  -5.6011  -5.5701  -5.3852  -5.3300  -5.2837
    -4.8768  -4.8368  -4.4883  -4.4014  -4.3933  -4.3784  -4.2815  -4.2650
    -4.2356  -4.1647  -4.0522  -4.0240  -3.9919  -3.9412  -3.9017  -3.7776
    -3.7336  -3.6862  -3.6521  -3.4406  -3.3872  -3.3010  -3.1630  -3.0163
    -2.9723  -2.8433  -2.8184  -2.7376  -2.6667  -2.5922  -2.4674  -2.4497
    -2.3886  -2.3756  -2.3081  -2.2769  -2.2500  -2.2036  -2.1755  -2.1134
    -2.1132  -2.0779  -2.0316  -2.0020  -1.8730  -1.8270  -1.7927  -1.2893
    -0.8267  -0.4219  -0.3211  -0.1936   0.4260   0.5982   0.8554   1.5995
     1.6299   2.0094   2.4177   2.5813   3.2775   3.6874

          k = 0.0280 0.0162 0.0000 ( 19351 PWs)   bands (ev):

   -10.9435  -7.7606  -6.3367  -6.1776  -6.1358  -6.0657  -5.9637  -5.8793
    -5.8142  -5.7576  -5.6091  -5.6011  -5.5701  -5.3852  -5.3300  -5.2837
    -4.8768  -4.8368  -4.4883  -4.4014  -4.3933  -4.3784  -4.2815  -4.2650
    -4.2356  -4.1647  -4.0522  -4.0240  -3.9919  -3.9412  -3.9017  -3.7776
    -3.7336  -3.6862  -3.6521  -3.4406  -3.3872  -3.3010  -3.1630  -3.0163
    -2.9723  -2.8433  -2.8184  -2.7376  -2.6667  -2.5922  -2.4674  -2.4497
    -2.3886  -2.3756  -2.3081  -2.2769  -2.2500  -2.2036  -2.1755  -2.1134
    -2.1132  -2.0779  -2.0316  -2.0020  -1.8730  -1.8270  -1.7927  -1.2893
    -0.8267  -0.4219  -0.3211  -0.1936   0.4260   0.5982   0.8554   1.5995
     1.6299   2.0094   2.4177   2.5813   3.2775   3.6874

          k = 0.0280 0.0485 0.0000 ( 19345 PWs)   bands (ev):

   -10.8859  -7.4229  -6.1638  -6.0079  -5.9834  -5.8452  -5.7386  -5.7132
    -5.6526  -5.5184  -5.4809  -5.4611  -5.4347  -5.2330  -5.1989  -5.0045
    -4.8896  -4.7990  -4.5335  -4.4599  -4.4427  -4.3645  -4.3494  -4.1997
    -4.1988  -4.1405  -4.0990  -4.0323  -3.9930  -3.9540  -3.8597  -3.8450
    -3.7990  -3.7047  -3.6252  -3.5864  -3.4837  -3.4226  -3.2707  -3.1630
    -3.0919  -3.0693  -3.0512  -2.9634  -2.9348  -2.8448  -2.7916  -2.7816
    -2.6564  -2.5844  -2.5470  -2.5022  -2.4600  -2.4430  -2.3308  -2.3017
    -2.2517  -2.1790  -2.1460  -2.0571  -2.0523  -1.9770  -1.9461  -1.5235
    -1.4322  -1.0171  -0.7860  -0.3352   0.3075   0.6667   1.2316   1.6648
     1.9544   2.1587   2.4292   2.9828   3.7989   4.1286

          k = 0.0280-0.1132 0.0000 ( 19376 PWs)   bands (ev):

   -10.8272  -6.8428  -6.2884  -5.8721  -5.6576  -5.5351  -5.4564  -5.4179
    -5.3638  -5.3138  -5.2709  -5.2135  -5.0986  -5.0216  -4.9523  -4.8724
    -4.7792  -4.7380  -4.6449  -4.5761  -4.5072  -4.4760  -4.3816  -4.3400
    -4.2886  -4.2428  -4.1169  -4.0882  -4.0443  -3.9693  -3.9571  -3.9080
    -3.8130  -3.7643  -3.7429  -3.6745  -3.6585  -3.5626  -3.4534  -3.4416
    -3.3861  -3.3658  -3.3005  -3.2162  -3.1737  -3.1248  -3.0619  -3.0379
    -2.9006  -2.8665  -2.8003  -2.7367  -2.6200  -2.5515  -2.5180  -2.4437
    -2.3147  -2.2911  -2.2308  -2.1988  -2.1441  -2.0434  -2.0056  -1.9647
    -1.5836  -1.3748  -0.8427  -0.4301   0.2185   0.5838   1.2744   1.4988
     1.9940   2.8629   3.2044   3.5277   3.8212   4.6636

          k = 0.0280-0.0808 0.0000 ( 19376 PWs)   bands (ev):

   -10.8272  -6.8428  -6.2884  -5.8721  -5.6576  -5.5351  -5.4564  -5.4179
    -5.3638  -5.3138  -5.2709  -5.2135  -5.0986  -5.0216  -4.9523  -4.8724
    -4.7792  -4.7380  -4.6449  -4.5761  -4.5072  -4.4760  -4.3816  -4.3400
    -4.2886  -4.2428  -4.1169  -4.0882  -4.0443  -3.9693  -3.9571  -3.9080
    -3.8130  -3.7643  -3.7429  -3.6745  -3.6585  -3.5626  -3.4534  -3.4416
    -3.3861  -3.3658  -3.3005  -3.2162  -3.1737  -3.1248  -3.0619  -3.0379
    -2.9006  -2.8665  -2.8003  -2.7367  -2.6200  -2.5515  -2.5180  -2.4437
    -2.3147  -2.2911  -2.2308  -2.1988  -2.1441  -2.0434  -2.0056  -1.9647
    -1.5836  -1.3748  -0.8427  -0.4301   0.2185   0.5838   1.2744   1.4988
     1.9940   2.8629   3.2044   3.5277   3.8212   4.6636

          k = 0.0280-0.0485 0.0000 ( 19345 PWs)   bands (ev):

   -10.8859  -7.4229  -6.1638  -6.0079  -5.9834  -5.8452  -5.7386  -5.7132
    -5.6526  -5.5184  -5.4809  -5.4611  -5.4347  -5.2330  -5.1989  -5.0045
    -4.8896  -4.7990  -4.5335  -4.4599  -4.4427  -4.3645  -4.3494  -4.1997
    -4.1988  -4.1405  -4.0990  -4.0323  -3.9930  -3.9540  -3.8597  -3.8450
    -3.7990  -3.7047  -3.6252  -3.5864  -3.4837  -3.4226  -3.2707  -3.1630
    -3.0919  -3.0693  -3.0512  -2.9634  -2.9348  -2.8448  -2.7916  -2.7816
    -2.6564  -2.5844  -2.5470  -2.5022  -2.4600  -2.4430  -2.3308  -2.3017
    -2.2517  -2.1790  -2.1460  -2.0571  -2.0523  -1.9770  -1.9461  -1.5235
    -1.4322  -1.0171  -0.7860  -0.3352   0.3075   0.6667   1.2316   1.6648
     1.9544   2.1587   2.4292   2.9828   3.7989   4.1286

          k = 0.0560-0.0323 0.0000 ( 19389 PWs)   bands (ev):

   -10.8665  -7.2696  -6.2656  -5.9350  -5.7995  -5.7414  -5.7284  -5.6644
    -5.4757  -5.4694  -5.4314  -5.3837  -5.3701  -5.2166  -5.0348  -4.9491
    -4.8598  -4.7922  -4.6134  -4.4916  -4.4202  -4.3917  -4.3317  -4.2192
    -4.1899  -4.1496  -4.0693  -4.0528  -4.0112  -3.9438  -3.8444  -3.8251
    -3.7811  -3.7121  -3.6738  -3.6485  -3.4684  -3.4305  -3.3307  -3.2606
    -3.2172  -3.1627  -3.0888  -3.0525  -3.0151  -2.9928  -2.9102  -2.8428
    -2.7870  -2.7088  -2.6611  -2.6198  -2.5120  -2.4960  -2.4732  -2.4497
    -2.2673  -2.2535  -2.2493  -2.1239  -2.0948  -2.0566  -1.9329  -1.8666
    -1.5855  -0.5304  -0.5160  -0.1558   0.3129   0.3627   0.7446   1.5307
     1.7456   2.5218   2.8055   3.8026   3.8087   4.1238

          k = 0.0560 0.0000 0.0000 ( 19345 PWs)   bands (ev):

   -10.8859  -7.4229  -6.1638  -6.0079  -5.9834  -5.8452  -5.7386  -5.7132
    -5.6526  -5.5184  -5.4809  -5.4610  -5.4347  -5.2330  -5.1989  -5.0045
    -4.8896  -4.7990  -4.5335  -4.4599  -4.4427  -4.3645  -4.3494  -4.1997
    -4.1988  -4.1405  -4.0990  -4.0323  -3.9930  -3.9540  -3.8597  -3.8450
    -3.7990  -3.7047  -3.6252  -3.5864  -3.4837  -3.4226  -3.2707  -3.1630
    -3.0919  -3.0693  -3.0512  -2.9634  -2.9348  -2.8448  -2.7916  -2.7816
    -2.6564  -2.5844  -2.5470  -2.5022  -2.4600  -2.4430  -2.3308  -2.3017
    -2.2517  -2.1790  -2.1460  -2.0571  -2.0523  -1.9770  -1.9461  -1.5235
    -1.4322  -1.0171  -0.7860  -0.3352   0.3075   0.6667   1.2316   1.6648
     1.9544   2.1587   2.4292   2.9828   3.7989   4.1286

          k = 0.0560 0.0323 0.0000 ( 19389 PWs)   bands (ev):

   -10.8665  -7.2696  -6.2656  -5.9350  -5.7995  -5.7414  -5.7284  -5.6644
    -5.4757  -5.4694  -5.4314  -5.3837  -5.3701  -5.2166  -5.0348  -4.9491
    -4.8598  -4.7922  -4.6134  -4.4916  -4.4202  -4.3917  -4.3317  -4.2192
    -4.1899  -4.1496  -4.0693  -4.0528  -4.0112  -3.9438  -3.8444  -3.8251
    -3.7811  -3.7121  -3.6738  -3.6485  -3.4684  -3.4305  -3.3307  -3.2606
    -3.2172  -3.1627  -3.0888  -3.0525  -3.0151  -2.9928  -2.9102  -2.8428
    -2.7870  -2.7088  -2.6611  -2.6198  -2.5120  -2.4960  -2.4732  -2.4497
    -2.2673  -2.2535  -2.2493  -2.1239  -2.0948  -2.0566  -1.9329  -1.8666
    -1.5855  -0.5304  -0.5160  -0.1558   0.3129   0.3627   0.7446   1.5307
     1.7456   2.5218   2.8055   3.8026   3.8087   4.1238

          k = 0.0560-0.1294 0.0000 ( 19376 PWs)   bands (ev):

   -10.8272  -6.8428  -6.2884  -5.8721  -5.6576  -5.5351  -5.4564  -5.4179
    -5.3638  -5.3138  -5.2709  -5.2135  -5.0986  -5.0216  -4.9523  -4.8724
    -4.7791  -4.7380  -4.6449  -4.5761  -4.5072  -4.4760  -4.3816  -4.3400
    -4.2886  -4.2428  -4.1169  -4.0882  -4.0443  -3.9693  -3.9571  -3.9080
    -3.8130  -3.7643  -3.7429  -3.6745  -3.6585  -3.5626  -3.4534  -3.4416
    -3.3861  -3.3658  -3.3005  -3.2162  -3.1737  -3.1248  -3.0619  -3.0379
    -2.9006  -2.8665  -2.8003  -2.7367  -2.6200  -2.5515  -2.5180  -2.4437
    -2.3147  -2.2911  -2.2308  -2.1988  -2.1441  -2.0434  -2.0056  -1.9647
    -1.5836  -1.3748  -0.8427  -0.4301   0.2185   0.5838   1.2744   1.4988
     1.9940   2.8629   3.2044   3.5277   3.8212   4.6636

          k = 0.0560-0.0970 0.0000 ( 19365 PWs)   bands (ev):

   -10.8075  -6.4102  -6.1895  -6.1537  -5.5881  -5.3770  -5.3063  -5.2229
    -5.2223  -5.1523  -5.1154  -5.0447  -5.0348  -4.9243  -4.8926  -4.8904
    -4.8484  -4.6584  -4.6337  -4.6132  -4.5975  -4.5103  -4.4988  -4.4249
    -4.3479  -4.3195  -4.2748  -4.1695  -4.1323  -4.0902  -4.0750  -4.0725
    -4.0497  -3.8603  -3.7270  -3.7250  -3.6420  -3.6381  -3.6034  -3.5977
    -3.4825  -3.4519  -3.2280  -3.2253  -3.1579  -3.1005  -2.9988  -2.9763
    -2.8913  -2.8525  -2.7334  -2.6025  -2.5399  -2.5151  -2.4959  -2.4349
    -2.2656  -2.2467  -2.2348  -2.2202  -2.1882  -2.1727  -2.1630  -2.1353
    -1.8486  -1.7363  -1.2594  -0.4019   0.0060   0.5948   1.2936   1.7988
     2.4714   3.0330   3.2967   3.4390   4.3851   4.4584

          k = 0.0560-0.0647 0.0000 ( 19376 PWs)   bands (ev):

   -10.8272  -6.8428  -6.2884  -5.8721  -5.6576  -5.5351  -5.4564  -5.4179
    -5.3638  -5.3138  -5.2709  -5.2135  -5.0986  -5.0216  -4.9523  -4.8724
    -4.7791  -4.7380  -4.6449  -4.5761  -4.5072  -4.4760  -4.3816  -4.3400
    -4.2886  -4.2428  -4.1169  -4.0882  -4.0443  -3.9693  -3.9571  -3.9080
    -3.8130  -3.7643  -3.7429  -3.6745  -3.6585  -3.5626  -3.4534  -3.4416
    -3.3861  -3.3658  -3.3005  -3.2162  -3.1737  -3.1248  -3.0619  -3.0379
    -2.9006  -2.8665  -2.8003  -2.7367  -2.6200  -2.5515  -2.5180  -2.4437
    -2.3147  -2.2911  -2.2308  -2.1988  -2.1441  -2.0434  -2.0056  -1.9647
    -1.5836  -1.3748  -0.8427  -0.4301   0.2185   0.5838   1.2744   1.4988
     1.9940   2.8629   3.2044   3.5277   3.8212   4.6636

          k =-0.0840 0.0485 0.0000 ( 19380 PWs)   bands (ev):

   -10.8271  -6.7113  -6.5736  -5.8583  -5.5991  -5.5731  -5.3978  -5.3737
    -5.3491  -5.3484  -5.3330  -5.1457  -5.0351  -5.0000  -4.9418  -4.8827
    -4.8191  -4.6958  -4.6817  -4.5290  -4.4965  -4.4516  -4.4344  -4.2770
    -4.2571  -4.2106  -4.1152  -4.0128  -4.0076  -3.9018  -3.8523  -3.8388
    -3.7717  -3.7041  -3.6626  -3.6437  -3.6368  -3.5992  -3.5155  -3.5152
    -3.4768  -3.4511  -3.2929  -3.2548  -3.1971  -3.1526  -3.1011  -3.0859
    -2.9928  -2.9609  -2.9157  -2.8147  -2.7840  -2.6703  -2.6027  -2.5462
    -2.4815  -2.3636  -2.2658  -2.1367  -2.0826  -2.0727  -1.9224  -1.8581
    -1.6462  -0.6265  -0.5619  -0.1182   0.2814   0.3002   0.7633   1.5051
     1.7638   2.5415   3.3551   3.9615   4.0325   4.5214

          k =-0.0840 0.0808 0.0000 ( 19376 PWs)   bands (ev):

   -10.8272  -6.8428  -6.2884  -5.8721  -5.6576  -5.5351  -5.4564  -5.4179
    -5.3638  -5.3138  -5.2709  -5.2135  -5.0986  -5.0216  -4.9523  -4.8724
    -4.7791  -4.7380  -4.6449  -4.5761  -4.5072  -4.4760  -4.3816  -4.3400
    -4.2886  -4.2428  -4.1169  -4.0882  -4.0443  -3.9693  -3.9571  -3.9080
    -3.8130  -3.7643  -3.7429  -3.6745  -3.6585  -3.5626  -3.4534  -3.4416
    -3.3861  -3.3658  -3.3005  -3.2162  -3.1737  -3.1248  -3.0619  -3.0379
    -2.9006  -2.8665  -2.8003  -2.7367  -2.6200  -2.5515  -2.5180  -2.4437
    -2.3147  -2.2911  -2.2308  -2.1988  -2.1441  -2.0434  -2.0056  -1.9647
    -1.5836  -1.3748  -0.8427  -0.4301   0.2185   0.5838   1.2744   1.4988
     1.9940   2.8629   3.2044   3.5277   3.8212   4.6636

          k =-0.0840 0.1132 0.0000 ( 19376 PWs)   bands (ev):

   -10.8272  -6.8428  -6.2884  -5.8721  -5.6576  -5.5351  -5.4564  -5.4179
    -5.3638  -5.3138  -5.2709  -5.2135  -5.0986  -5.0216  -4.9523  -4.8724
    -4.7791  -4.7380  -4.6449  -4.5761  -4.5072  -4.4760  -4.3816  -4.3400
    -4.2886  -4.2428  -4.1169  -4.0882  -4.0443  -3.9693  -3.9571  -3.9080
    -3.8130  -3.7643  -3.7429  -3.6745  -3.6585  -3.5626  -3.4534  -3.4416
    -3.3861  -3.3658  -3.3005  -3.2162  -3.1737  -3.1248  -3.0619  -3.0379
    -2.9006  -2.8665  -2.8003  -2.7367  -2.6200  -2.5515  -2.5180  -2.4437
    -2.3147  -2.2911  -2.2308  -2.1988  -2.1441  -2.0434  -2.0056  -1.9647
    -1.5836  -1.3748  -0.8427  -0.4301   0.2185   0.5838   1.2744   1.4988
     1.9940   2.8629   3.2044   3.5277   3.8212   4.6636

          k =-0.0840-0.0485 0.0000 ( 19380 PWs)   bands (ev):

   -10.8271  -6.7113  -6.5736  -5.8583  -5.5991  -5.5731  -5.3978  -5.3737
    -5.3491  -5.3484  -5.3330  -5.1457  -5.0351  -5.0000  -4.9418  -4.8827
    -4.8191  -4.6958  -4.6816  -4.5290  -4.4965  -4.4516  -4.4344  -4.2770
    -4.2571  -4.2106  -4.1152  -4.0128  -4.0076  -3.9018  -3.8523  -3.8388
    -3.7717  -3.7041  -3.6626  -3.6437  -3.6368  -3.5992  -3.5155  -3.5152
    -3.4768  -3.4511  -3.2929  -3.2548  -3.1971  -3.1526  -3.1011  -3.0859
    -2.9928  -2.9609  -2.9157  -2.8147  -2.7840  -2.6703  -2.6027  -2.5462
    -2.4815  -2.3636  -2.2658  -2.1367  -2.0826  -2.0727  -1.9224  -1.8581
    -1.6462  -0.6265  -0.5619  -0.1182   0.2814   0.3002   0.7633   1.5051
     1.7638   2.5415   3.3552   3.9615   4.0325   4.5214

     the Fermi energy is     0.0228 ev

!    total energy              =   -1411.77649925 Ry
     Harris-Foulkes estimate   =   -1411.77649911 Ry
     estimated scf accuracy    <       0.00000364 Ry

     The total energy is the sum of the following terms:

     one-electron contribution =   -8221.26465665 Ry
     hartree contribution      =    4206.84250868 Ry
     xc contribution           =    -771.46880478 Ry
     ewald contribution        =    3374.13935833 Ry
     electric field correction =       0.00008888 Ry
     smearing contrib. (-TS)   =      -0.02499371 Ry

     convergence has been achieved in   6 iterations
 
 BEEF-vdW xc energy contributions
           1 :   -689.548414423384     
           2 :    641.048872382986     
           3 :   -554.271197676079     
           4 :    445.982070526489     
           5 :   -334.335457915016     
           6 :    234.197823400327     
           7 :   -154.321456119236     
           8 :    96.8530355164914     
           9 :   -58.9033718720332     
          10 :    35.1870438996906     
          11 :   -20.5380284253731     
          12 :    11.3722323169114     
          13 :   -5.85323910043519     
          14 :    3.14557622185657     
          15 :   -2.48061566815670     
          16 :    2.63623163898865     
          17 :   -2.07101460973558     
          18 :  -0.471625674927964     
          19 :    5.31508371693008     
          20 :   -11.5926287545715     
          21 :    17.5687407278444     
          22 :   -21.4063342238900     
          23 :    21.9904945771898     
          24 :   -19.4030281797595     
          25 :    14.8282468199085     
          26 :   -9.97083309484458     
          27 :    6.29539511570306     
          28 :   -4.46961393382026     
          29 :    4.25333827363886     
          30 :   -4.83380608477910     
          31 :   -54.5905195008627     
          32 :   -39.8087492544803     

     Forces acting on atoms (Ry/au):


     negative rho (up, down):  2.444E-04 0.000E+00
     atom    1 type  1   force =    -0.00151079   -0.00087038   -0.00391652
     atom    2 type  1   force =     0.00150912   -0.00087129   -0.00391713
     atom    3 type  1   force =    -0.00000184    0.00174352   -0.00391874
     atom    4 type  1   force =     0.00000013    0.00000129   -0.00587645
     atom    5 type  1   force =     0.00000081    0.00429678    0.00303001
     atom    6 type  1   force =     0.00000024   -0.00000014   -0.00789772
     atom    7 type  1   force =    -0.00372167   -0.00214882    0.00302792
     atom    8 type  1   force =     0.00372197   -0.00215085    0.00302780
     atom    9 type  1   force =     0.00000192    0.00000043   -0.00073495
     atom   10 type  1   force =     0.00000042   -0.00064247    0.02652411
     atom   11 type  1   force =    -0.00055761    0.00032136    0.02651693
     atom   12 type  1   force =     0.00055780    0.00032087    0.02651702
     atom   13 type  2   force =    -0.00000050   -0.00000031   -0.06238227

     Total force =     0.077480     Total SCF correction =     0.002420


     entering subroutine stress ...


     negative rho (up, down):  2.444E-04 0.000E+00
          total   stress  (Ry/bohr**3)                   (kbar)     P=   -9.43
  -0.00009528   0.00000000  -0.00000000        -14.02      0.00     -0.00
   0.00000000  -0.00009528  -0.00000000          0.00    -14.02     -0.00
  -0.00000000  -0.00000000  -0.00000185         -0.00     -0.00     -0.27


     number of scf cycles    =   2
     number of bfgs steps    =   1

     energy   old            =   -1411.7688731504 Ry
     energy   new            =   -1411.7764992515 Ry

     CASE: energy  _new < energy  _old


     WARNING: bfgs curvature condition failed, Theta= 0.942
     new trust radius        =       0.1114759852 bohr
     new conv_thr            =       0.0000001000 Ry


ATOMIC_POSITIONS (crystal)
Au1      0.166666667   0.166666667   0.402269971    0   0   0
Au1      0.666666667   0.166666667   0.402269971    0   0   0
Au1      0.166666667   0.666666667   0.402269971    0   0   0
Au1      0.666666667   0.666666667   0.402269971    0   0   0
Au1      0.833333333   0.333333333   0.500000000    0   0   0
Au1      0.333333333   0.333333333   0.500000000    0   0   0
Au1      0.833333333   0.833333333   0.500000000    0   0   0
Au1      0.333333333   0.833333333   0.500000000    0   0   0
Au1     -0.000000929   0.000000332   0.597637571
Au1      0.499651136   0.000697088   0.599340338
Au1      0.000696270   0.499651486   0.599341239
Au1      0.499651266   0.499652611   0.599341219
C1       0.333333620   0.333333035   0.649207810



     Writing output data file calc.save
     Check: negative starting charge=   -0.000117
     NEW-OLD atomic charge density approx. for the potential

     Check: negative/imaginary core charge=   -0.000002    0.000000
     Check: negative starting charge=   -0.000118

     negative rho (up, down):  2.516E-04 0.000E+00
 
     Adding external electric field

     Computed dipole along edir(3) : 
        Dipole               -0.1908 Ry au,         -0.4848 Debye
        Dipole field         -0.0005 Ry au
 
        Potential amp.        0.0427 Ry
        Total length         45.8022 bohr
 

     total cpu time spent up to now is      756.8 secs

     per-process dynamical memory:    82.7 Mb

     Self-consistent Calculation

     iteration #  1     ecut=    36.75 Ry     beta=0.30
     Davidson diagonalization with overlap
     ethr =  1.00E-06,  avg # of iterations =  5.0

     negative rho (up, down):  2.438E-04 0.000E+00
 
     Adding external electric field

     Computed dipole along edir(3) : 
        Dipole               -0.2432 Ry au,         -0.6182 Debye
        Dipole field         -0.0006 Ry au
 
        Potential amp.        0.0544 Ry
        Total length         45.8022 bohr
 

     total cpu time spent up to now is      792.4 secs

     total energy              =   -1411.78419127 Ry
     Harris-Foulkes estimate   =   -1411.78617680 Ry
     estimated scf accuracy    <       0.00476077 Ry

     iteration #  2     ecut=    36.75 Ry     beta=0.30
     Davidson diagonalization with overlap
     ethr =  3.50E-06,  avg # of iterations =  3.8

     negative rho (up, down):  2.589E-04 0.000E+00
 
     Adding external electric field

     Computed dipole along edir(3) : 
        Dipole               -0.1234 Ry au,         -0.3137 Debye
        Dipole field         -0.0003 Ry au
 
        Potential amp.        0.0276 Ry
        Total length         45.8022 bohr
 

     total cpu time spent up to now is      818.3 secs

     total energy              =   -1411.78232515 Ry
     Harris-Foulkes estimate   =   -1411.78755636 Ry
     estimated scf accuracy    <       0.04798477 Ry

     iteration #  3     ecut=    36.75 Ry     beta=0.30
     Davidson diagonalization with overlap
     ethr =  3.50E-06,  avg # of iterations =  3.5

     negative rho (up, down):  2.765E-04 0.000E+00
 
     Adding external electric field

     Computed dipole along edir(3) : 
        Dipole               -0.1813 Ry au,         -0.4609 Debye
        Dipole field         -0.0004 Ry au
 
        Potential amp.        0.0406 Ry
        Total length         45.8022 bohr
 

     total cpu time spent up to now is      844.3 secs

     total energy              =   -1411.78457143 Ry
     Harris-Foulkes estimate   =   -1411.78643250 Ry
     estimated scf accuracy    <       0.02434822 Ry

     iteration #  4     ecut=    36.75 Ry     beta=0.30
     Davidson diagonalization with overlap
     ethr =  3.50E-06,  avg # of iterations =  3.0

     negative rho (up, down):  2.688E-04 0.000E+00
 
     Adding external electric field

     Computed dipole along edir(3) : 
        Dipole               -0.1735 Ry au,         -0.4409 Debye
        Dipole field         -0.0004 Ry au
 
        Potential amp.        0.0388 Ry
        Total length         45.8022 bohr
 

     total cpu time spent up to now is      869.5 secs

     total energy              =   -1411.78549928 Ry
     Harris-Foulkes estimate   =   -1411.78559315 Ry
     estimated scf accuracy    <       0.00041409 Ry

     iteration #  5     ecut=    36.75 Ry     beta=0.30
     Davidson diagonalization with overlap
     ethr =  3.04E-07,  avg # of iterations =  2.0

     negative rho (up, down):  2.435E-04 0.000E+00
 
     Adding external electric field

     Computed dipole along edir(3) : 
        Dipole               -0.1726 Ry au,         -0.4387 Debye
        Dipole field         -0.0004 Ry au
 
        Potential amp.        0.0386 Ry
        Total length         45.8022 bohr
 

     total cpu time spent up to now is      894.3 secs

     total energy              =   -1411.78554363 Ry
     Harris-Foulkes estimate   =   -1411.78555197 Ry
     estimated scf accuracy    <       0.00007848 Ry

     iteration #  6     ecut=    36.75 Ry     beta=0.30
     Davidson diagonalization with overlap
     ethr =  5.77E-08,  avg # of iterations =  2.0

     negative rho (up, down):  2.441E-04 0.000E+00
 
     Adding external electric field

     Computed dipole along edir(3) : 
        Dipole               -0.1727 Ry au,         -0.4390 Debye
        Dipole field         -0.0004 Ry au
 
        Potential amp.        0.0386 Ry
        Total length         45.8022 bohr
 

     total cpu time spent up to now is      919.1 secs

     total energy              =   -1411.78555190 Ry
     Harris-Foulkes estimate   =   -1411.78555053 Ry
     estimated scf accuracy    <       0.00000834 Ry

     iteration #  7     ecut=    36.75 Ry     beta=0.30
     Davidson diagonalization with overlap
     ethr =  6.13E-09,  avg # of iterations =  2.4

     negative rho (up, down):  2.460E-04 0.000E+00
 
     Adding external electric field

     Computed dipole along edir(3) : 
        Dipole               -0.1732 Ry au,         -0.4402 Debye
        Dipole field         -0.0004 Ry au
 
        Potential amp.        0.0387 Ry
        Total length         45.8022 bohr
 

     total cpu time spent up to now is      944.8 secs

     total energy              =   -1411.78555344 Ry
     Harris-Foulkes estimate   =   -1411.78555256 Ry
     estimated scf accuracy    <       0.00000154 Ry

     iteration #  8     ecut=    36.75 Ry     beta=0.30
     Davidson diagonalization with overlap
     ethr =  1.13E-09,  avg # of iterations =  2.1

     negative rho (up, down):  2.468E-04 0.000E+00
 
     Adding external electric field

     Computed dipole along edir(3) : 
        Dipole               -0.1735 Ry au,         -0.4409 Debye
        Dipole field         -0.0004 Ry au
 
        Potential amp.        0.0388 Ry
        Total length         45.8022 bohr
 

     total cpu time spent up to now is      970.0 secs

     total energy              =   -1411.78555375 Ry
     Harris-Foulkes estimate   =   -1411.78555338 Ry
     estimated scf accuracy    <       0.00000025 Ry

     iteration #  9     ecut=    36.75 Ry     beta=0.30
     Davidson diagonalization with overlap
     ethr =  1.81E-10,  avg # of iterations =  2.3

     negative rho (up, down):  2.470E-04 0.000E+00

     negative rho (up, down):  2.470E-04 0.000E+00

     negative rho (up, down):  2.470E-04 0.000E+00

     negative rho (up, down):  2.470E-04 0.000E+00

     negative rho (up, down):  2.470E-04 0.000E+00

     negative rho (up, down):  2.470E-04 0.000E+00

     negative rho (up, down):  2.470E-04 0.000E+00

     negative rho (up, down):  2.470E-04 0.000E+00

     negative rho (up, down):  2.470E-04 0.000E+00

     negative rho (up, down):  2.470E-04 0.000E+00

     negative rho (up, down):  2.470E-04 0.000E+00

     negative rho (up, down):  2.470E-04 0.000E+00

     negative rho (up, down):  2.470E-04 0.000E+00

     negative rho (up, down):  2.470E-04 0.000E+00

     negative rho (up, down):  2.470E-04 0.000E+00

     negative rho (up, down):  2.470E-04 0.000E+00

     negative rho (up, down):  2.470E-04 0.000E+00

     negative rho (up, down):  2.470E-04 0.000E+00

     negative rho (up, down):  2.470E-04 0.000E+00

     negative rho (up, down):  2.470E-04 0.000E+00

     negative rho (up, down):  2.470E-04 0.000E+00

     negative rho (up, down):  2.470E-04 0.000E+00

     negative rho (up, down):  2.470E-04 0.000E+00

     negative rho (up, down):  2.470E-04 0.000E+00

     negative rho (up, down):  2.470E-04 0.000E+00

     negative rho (up, down):  2.470E-04 0.000E+00

     negative rho (up, down):  2.470E-04 0.000E+00

     negative rho (up, down):  2.470E-04 0.000E+00

     negative rho (up, down):  2.470E-04 0.000E+00

     negative rho (up, down):  2.470E-04 0.000E+00

     negative rho (up, down):  2.470E-04 0.000E+00

     negative rho (up, down):  2.470E-04 0.000E+00

     negative rho (up, down):  2.470E-04 0.000E+00

     negative rho (up, down):  2.470E-04 0.000E+00

     negative rho (up, down):  2.470E-04 0.000E+00
 
     Adding external electric field

     Computed dipole along edir(3) : 
        Dipole               -0.1737 Ry au,         -0.4414 Debye
        Dipole field         -0.0004 Ry au
 
        Potential amp.        0.0389 Ry
        Total length         45.8022 bohr
 

     total cpu time spent up to now is     1047.7 secs

     End of self-consistent calculation

          k = 0.0000 0.0000 0.0000 ( 19315 PWs)   bands (ev):

   -11.2844  -7.9094  -6.4889  -6.2787  -6.2519  -6.2519  -6.0424  -5.9474
    -5.9474  -5.8714  -5.6627  -5.6627  -5.6123  -5.4428  -5.4428  -5.3468
    -4.9776  -4.9776  -4.4857  -4.4089  -4.4089  -4.3570  -4.3570  -4.3325
    -4.1578  -4.1065  -4.1065  -4.0107  -4.0107  -3.9295  -3.7929  -3.7929
    -3.6531  -3.6531  -3.6223  -3.3448  -3.3448  -3.2333  -3.1196  -2.9311
    -2.9311  -2.7135  -2.7135  -2.6178  -2.6178  -2.5193  -2.3055  -2.3055
    -2.2459  -2.2353  -2.2353  -2.2326  -2.0959  -2.0959  -2.0382  -2.0278
    -2.0278  -1.8963  -1.8592  -1.8592  -1.6288  -1.6107  -1.6107  -0.9540
    -0.3344  -0.1131  -0.1131   0.7864   0.7864   0.8271   1.2754   1.4036
     1.4036   1.4904   1.5470   1.5470   3.1706   3.6339

          k = 0.0000 0.0323 0.0000 ( 19351 PWs)   bands (ev):

   -11.2464  -7.7311  -6.3387  -6.2286  -6.1256  -6.1230  -5.9609  -5.8731
    -5.8038  -5.7549  -5.5962  -5.5834  -5.5503  -5.3710  -5.3222  -5.2672
    -4.9675  -4.9375  -4.4903  -4.4172  -4.4100  -4.3868  -4.2786  -4.2678
    -4.2191  -4.1428  -4.0387  -4.0000  -3.9718  -3.9261  -3.8874  -3.7682
    -3.7178  -3.6750  -3.6426  -3.4544  -3.4108  -3.2979  -3.1799  -3.0107
    -2.9654  -2.8458  -2.8232  -2.7290  -2.6680  -2.5662  -2.4842  -2.4719
    -2.3774  -2.3692  -2.3176  -2.2728  -2.2552  -2.1887  -2.1780  -2.1028
    -2.1004  -2.0633  -2.0245  -1.9898  -1.8570  -1.8112  -1.7749  -1.2972
    -0.8012  -0.3828  -0.3506  -0.1907   0.4614   0.6091   0.8843   1.6635
     1.6641   2.0166   2.4317   2.5957   3.2827   3.7009

          k = 0.0000 0.0647 0.0000 ( 19389 PWs)   bands (ev):

   -11.1686  -7.2421  -6.3080  -5.9475  -5.8242  -5.7856  -5.7403  -5.6530
    -5.4606  -5.4430  -5.4148  -5.3746  -5.3662  -5.2078  -5.0896  -4.9512
    -4.9088  -4.8252  -4.6053  -4.4935  -4.4363  -4.3878  -4.3284  -4.2142
    -4.1864  -4.1359  -4.0727  -4.0695  -4.0031  -3.9408  -3.8339  -3.8141
    -3.7736  -3.6985  -3.6597  -3.6455  -3.4758  -3.4341  -3.3473  -3.2738
    -3.2183  -3.1752  -3.0835  -3.0474  -3.0061  -2.9855  -2.9048  -2.8188
    -2.7889  -2.7138  -2.6408  -2.6286  -2.4955  -2.4917  -2.4606  -2.4397
    -2.2676  -2.2425  -2.2394  -2.1140  -2.0677  -2.0462  -1.9208  -1.8517
    -1.5666  -0.5521  -0.4895  -0.1345   0.3405   0.3893   0.7508   1.5604
     1.7985   2.5694   2.8051   3.8275   3.8524   4.1710

          k = 0.0000-0.0970 0.0000 ( 19380 PWs)   bands (ev):

   -11.1287  -6.7163  -6.5435  -5.9497  -5.6097  -5.5782  -5.4282  -5.3602
    -5.3462  -5.3293  -5.3170  -5.2274  -5.0339  -4.9892  -4.9414  -4.8778
    -4.8319  -4.6923  -4.6878  -4.5213  -4.4767  -4.4466  -4.4196  -4.3048
    -4.2699  -4.2133  -4.1316  -4.0509  -4.0362  -3.9056  -3.8495  -3.8355
    -3.7784  -3.6982  -3.6471  -3.6345  -3.6116  -3.5886  -3.5095  -3.5012
    -3.4592  -3.4358  -3.2943  -3.2356  -3.2036  -3.1660  -3.0928  -3.0907
    -3.0004  -2.9495  -2.9218  -2.7799  -2.7738  -2.6568  -2.5981  -2.5344
    -2.4668  -2.3584  -2.2707  -2.1281  -2.0727  -2.0622  -1.9106  -1.8459
    -1.5779  -0.6165  -0.5998  -0.1092   0.3257   0.3302   0.7727   1.5287
     1.8184   2.5820   3.4127   3.9505   4.1134   4.5773

          k = 0.0280-0.0162 0.0000 ( 19351 PWs)   bands (ev):

   -11.2464  -7.7311  -6.3387  -6.2286  -6.1256  -6.1230  -5.9609  -5.8731
    -5.8038  -5.7549  -5.5961  -5.5834  -5.5503  -5.3710  -5.3222  -5.2672
[...]
    -4.2597  -4.2034  -4.1320  -4.0756  -4.0201  -3.9466  -3.8868  -3.8304
    -3.7876  -3.7154  -3.6877  -3.6512  -3.5963  -3.5164  -3.4233  -3.3391
    -3.3154  -3.2577  -3.1933  -3.1682  -3.1337  -3.0635  -3.0183  -3.0049
    -2.8431  -2.8170  -2.7577  -2.6668  -2.5559  -2.4931  -2.4266  -2.3282
    -2.2796  -2.2238  -2.1349  -2.1211  -2.0701  -1.9722  -1.9171  -1.8742
    -1.5324  -1.1741  -0.7958  -0.2684   0.3828   0.6209   1.3538   1.4754
     2.0335   3.0088   3.4124   3.7910   4.0872   4.6514

          k = 0.0280-0.0808 0.0000 ( 19376 PWs)   bands (ev):

   -11.5326  -6.8850  -6.4594  -5.9508  -5.8146  -5.5803  -5.4665  -5.3802
    -5.2812  -5.2249  -5.1524  -5.1115  -5.0761  -4.9629  -4.9418  -4.8352
    -4.7922  -4.6895  -4.6090  -4.5730  -4.4874  -4.4066  -4.3811  -4.3298
    -4.2597  -4.2034  -4.1320  -4.0756  -4.0201  -3.9466  -3.8868  -3.8304
    -3.7876  -3.7154  -3.6877  -3.6512  -3.5963  -3.5164  -3.4233  -3.3391
    -3.3154  -3.2577  -3.1933  -3.1682  -3.1337  -3.0635  -3.0183  -3.0049
    -2.8431  -2.8170  -2.7577  -2.6668  -2.5559  -2.4931  -2.4266  -2.3282
    -2.2796  -2.2238  -2.1349  -2.1211  -2.0701  -1.9722  -1.9171  -1.8742
    -1.5324  -1.1741  -0.7958  -0.2684   0.3828   0.6209   1.3538   1.4754
     2.0335   3.0088   3.4124   3.7910   4.0872   4.6514

          k = 0.0280-0.0485 0.0000 ( 19345 PWs)   bands (ev):

   -11.6173  -7.2881  -6.5463  -6.1266  -5.9356  -5.8246  -5.7152  -5.6693
    -5.6215  -5.4574  -5.3752  -5.3313  -5.3173  -5.1970  -5.1541  -5.0507
    -4.9591  -4.8986  -4.5055  -4.4335  -4.4019  -4.3544  -4.2692  -4.1843
    -4.1290  -4.0985  -4.0365  -3.9282  -3.8857  -3.8548  -3.7940  -3.7566
    -3.7255  -3.6181  -3.6030  -3.5225  -3.4552  -3.4373  -3.2936  -3.1352
    -3.0911  -3.0611  -3.0406  -2.9170  -2.8472  -2.8071  -2.7289  -2.7032
    -2.5718  -2.5241  -2.5100  -2.4611  -2.3904  -2.3641  -2.2458  -2.2176
    -2.1917  -2.1239  -2.0718  -1.9866  -1.9501  -1.8982  -1.8328  -1.5394
    -1.3668  -0.9592  -0.7837   0.0069   0.2776   0.7222   1.2356   1.7610
     2.1077   2.2805   2.4811   3.0952   4.0660   4.4290

          k = 0.0560-0.0323 0.0000 ( 19389 PWs)   bands (ev):

   -11.5896  -7.1522  -6.5746  -5.9860  -5.9316  -5.7896  -5.6822  -5.5886
    -5.4338  -5.3541  -5.3347  -5.3013  -5.2645  -5.1433  -5.1183  -4.9774
    -4.8791  -4.8297  -4.5601  -4.4580  -4.4141  -4.3430  -4.2580  -4.1815
    -4.1305  -4.0747  -4.0512  -4.0417  -3.9780  -3.8716  -3.7645  -3.7421
    -3.7169  -3.6295  -3.6082  -3.5908  -3.4728  -3.4088  -3.3249  -3.2441
    -3.1554  -3.1484  -3.0510  -3.0064  -2.9567  -2.9536  -2.8345  -2.7567
    -2.7193  -2.6793  -2.6055  -2.5390  -2.4440  -2.4265  -2.3769  -2.3730
    -2.2182  -2.1704  -2.1648  -2.0475  -1.9809  -1.9538  -1.8522  -1.7829
    -1.4913  -0.6703  -0.4186   0.0235   0.4518   0.4552   0.7375   1.5767
     2.0097   2.6525   2.7794   3.8834   4.0837   4.3677

          k = 0.0560 0.0000 0.0000 ( 19345 PWs)   bands (ev):

   -11.6173  -7.2881  -6.5464  -6.1266  -5.9356  -5.8246  -5.7152  -5.6693
    -5.6215  -5.4574  -5.3752  -5.3313  -5.3173  -5.1970  -5.1541  -5.0507
    -4.9591  -4.8986  -4.5055  -4.4335  -4.4019  -4.3544  -4.2692  -4.1843
    -4.1290  -4.0985  -4.0365  -3.9282  -3.8857  -3.8548  -3.7940  -3.7566
    -3.7255  -3.6181  -3.6030  -3.5225  -3.4552  -3.4373  -3.2937  -3.1352
    -3.0911  -3.0611  -3.0406  -2.9170  -2.8472  -2.8071  -2.7289  -2.7032
    -2.5718  -2.5241  -2.5100  -2.4611  -2.3904  -2.3641  -2.2458  -2.2176
    -2.1917  -2.1239  -2.0718  -1.9866  -1.9501  -1.8982  -1.8328  -1.5394
    -1.3668  -0.9592  -0.7837   0.0069   0.2776   0.7221   1.2356   1.7610
     2.1077   2.2805   2.4811   3.0952   4.0660   4.4290

          k = 0.0560 0.0323 0.0000 ( 19389 PWs)   bands (ev):

   -11.5896  -7.1522  -6.5746  -5.9860  -5.9316  -5.7896  -5.6822  -5.5886
    -5.4338  -5.3541  -5.3347  -5.3013  -5.2645  -5.1433  -5.1183  -4.9774
    -4.8791  -4.8297  -4.5601  -4.4580  -4.4141  -4.3430  -4.2580  -4.1815
    -4.1305  -4.0747  -4.0512  -4.0417  -3.9780  -3.8716  -3.7645  -3.7421
    -3.7169  -3.6295  -3.6082  -3.5908  -3.4728  -3.4088  -3.3249  -3.2441
    -3.1554  -3.1484  -3.0510  -3.0064  -2.9567  -2.9536  -2.8345  -2.7567
    -2.7193  -2.6793  -2.6055  -2.5390  -2.4440  -2.4265  -2.3769  -2.3730
    -2.2182  -2.1704  -2.1648  -2.0475  -1.9809  -1.9538  -1.8522  -1.7829
    -1.4913  -0.6703  -0.4186   0.0235   0.4518   0.4552   0.7375   1.5767
     2.0097   2.6525   2.7794   3.8834   4.0837   4.3677

          k = 0.0560-0.1294 0.0000 ( 19376 PWs)   bands (ev):

   -11.5326  -6.8850  -6.4594  -5.9508  -5.8146  -5.5803  -5.4665  -5.3802
    -5.2812  -5.2249  -5.1524  -5.1115  -5.0761  -4.9628  -4.9419  -4.8352
    -4.7922  -4.6895  -4.6090  -4.5730  -4.4874  -4.4066  -4.3812  -4.3297
    -4.2597  -4.2034  -4.1320  -4.0755  -4.0201  -3.9466  -3.8868  -3.8305
    -3.7876  -3.7154  -3.6877  -3.6512  -3.5963  -3.5164  -3.4233  -3.3391
    -3.3154  -3.2577  -3.1933  -3.1682  -3.1337  -3.0634  -3.0183  -3.0049
    -2.8431  -2.8170  -2.7577  -2.6668  -2.5559  -2.4931  -2.4266  -2.3282
    -2.2796  -2.2238  -2.1349  -2.1211  -2.0701  -1.9721  -1.9171  -1.8742
    -1.5324  -1.1741  -0.7958  -0.2684   0.3828   0.6210   1.3538   1.4754
     2.0335   3.0088   3.4124   3.7910   4.0872   4.6514

          k = 0.0560-0.0970 0.0000 ( 19365 PWs)   bands (ev):

   -11.5033  -6.8200  -6.0773  -5.9234  -5.8169  -5.7693  -5.2534  -5.1470
    -5.0719  -5.0533  -5.0146  -4.9756  -4.9505  -4.9305  -4.8511  -4.7780
    -4.7631  -4.6961  -4.6091  -4.6008  -4.5261  -4.4925  -4.4460  -4.4262
    -4.4121  -4.3489  -4.2091  -4.1944  -4.1784  -4.0255  -4.0018  -3.9950
    -3.9758  -3.7488  -3.7249  -3.6380  -3.6258  -3.6188  -3.5453  -3.5048
    -3.4972  -3.2867  -3.2171  -3.0982  -3.0887  -3.0358  -3.0175  -2.9513
    -2.8927  -2.8556  -2.6187  -2.5629  -2.5290  -2.4397  -2.4214  -2.2453
    -2.1973  -2.1939  -2.1779  -2.1409  -2.1127  -2.0791  -2.0493  -2.0324
    -1.7972  -1.6867  -0.8457  -0.2896   0.0215   0.8222   1.3144   1.5919
     2.6551   3.1397   3.6559   3.8900   4.2089   4.5449

          k = 0.0560-0.0647 0.0000 ( 19376 PWs)   bands (ev):

   -11.5326  -6.8850  -6.4594  -5.9508  -5.8146  -5.5803  -5.4665  -5.3802
    -5.2812  -5.2249  -5.1524  -5.1115  -5.0761  -4.9628  -4.9419  -4.8352
    -4.7922  -4.6895  -4.6090  -4.5730  -4.4874  -4.4066  -4.3811  -4.3298
    -4.2597  -4.2034  -4.1320  -4.0755  -4.0201  -3.9466  -3.8868  -3.8304
    -3.7876  -3.7154  -3.6877  -3.6512  -3.5963  -3.5164  -3.4233  -3.3391
    -3.3154  -3.2577  -3.1933  -3.1682  -3.1337  -3.0634  -3.0183  -3.0049
    -2.8431  -2.8170  -2.7577  -2.6668  -2.5559  -2.4931  -2.4266  -2.3282
    -2.2796  -2.2238  -2.1349  -2.1211  -2.0701  -1.9721  -1.9171  -1.8742
    -1.5324  -1.1741  -0.7958  -0.2684   0.3828   0.6210   1.3538   1.4754
     2.0335   3.0088   3.4124   3.7910   4.0872   4.6514

          k =-0.0840 0.0485 0.0000 ( 19380 PWs)   bands (ev):

   -11.5327  -6.8782  -6.4125  -6.1734  -5.6880  -5.5491  -5.5214  -5.3247
    -5.3099  -5.2585  -5.2341  -5.1184  -5.0485  -4.9217  -4.8480  -4.8147
    -4.7914  -4.6887  -4.6216  -4.5482  -4.3866  -4.3777  -4.3721  -4.3451
    -4.2927  -4.1577  -4.1381  -4.1040  -4.0510  -3.8913  -3.8292  -3.8120
    -3.7009  -3.6645  -3.5767  -3.5522  -3.4884  -3.4747  -3.4578  -3.4088
    -3.3858  -3.3397  -3.2407  -3.2002  -3.1579  -3.1412  -3.0261  -3.0126
    -3.0053  -2.8859  -2.8857  -2.7206  -2.6465  -2.5870  -2.5439  -2.4527
    -2.3965  -2.2739  -2.2288  -2.0618  -2.0198  -1.9977  -1.8451  -1.7886
    -1.3437  -0.7166  -0.5348  -0.0874   0.4335   0.5001   0.7973   1.4803
     2.0380   2.6090   3.6471   3.8079   4.3874   4.8372

          k =-0.0840 0.0808 0.0000 ( 19376 PWs)   bands (ev):

   -11.5326  -6.8850  -6.4594  -5.9508  -5.8146  -5.5803  -5.4665  -5.3802
    -5.2812  -5.2249  -5.1524  -5.1115  -5.0761  -4.9628  -4.9418  -4.8352
    -4.7922  -4.6895  -4.6089  -4.5730  -4.4874  -4.4066  -4.3811  -4.3298
    -4.2597  -4.2034  -4.1319  -4.0755  -4.0201  -3.9466  -3.8868  -3.8305
    -3.7876  -3.7154  -3.6877  -3.6512  -3.5963  -3.5164  -3.4233  -3.3391
    -3.3154  -3.2577  -3.1933  -3.1682  -3.1337  -3.0635  -3.0183  -3.0049
    -2.8431  -2.8170  -2.7577  -2.6669  -2.5559  -2.4931  -2.4266  -2.3282
    -2.2796  -2.2238  -2.1349  -2.1211  -2.0701  -1.9721  -1.9171  -1.8742
    -1.5324  -1.1741  -0.7958  -0.2684   0.3828   0.6210   1.3538   1.4754
     2.0335   3.0089   3.4124   3.7911   4.0872   4.6514

          k =-0.0840 0.1132 0.0000 ( 19376 PWs)   bands (ev):

   -11.5326  -6.8850  -6.4594  -5.9508  -5.8146  -5.5803  -5.4665  -5.3802
    -5.2812  -5.2249  -5.1524  -5.1115  -5.0761  -4.9628  -4.9418  -4.8352
    -4.7922  -4.6895  -4.6090  -4.5730  -4.4874  -4.4066  -4.3811  -4.3298
    -4.2597  -4.2034  -4.1319  -4.0755  -4.0201  -3.9466  -3.8868  -3.8305
    -3.7876  -3.7154  -3.6877  -3.6512  -3.5963  -3.5164  -3.4233  -3.3391
    -3.3154  -3.2577  -3.1933  -3.1682  -3.1337  -3.0635  -3.0183  -3.0049
    -2.8431  -2.8170  -2.7577  -2.6669  -2.5559  -2.4931  -2.4266  -2.3282
    -2.2796  -2.2238  -2.1349  -2.1211  -2.0701  -1.9721  -1.9171  -1.8742
    -1.5324  -1.1741  -0.7958  -0.2684   0.3828   0.6210   1.3538   1.4754
     2.0335   3.0089   3.4124   3.7911   4.0872   4.6514

          k =-0.0840-0.0485 0.0000 ( 19380 PWs)   bands (ev):

   -11.5327  -6.8782  -6.4125  -6.1734  -5.6880  -5.5491  -5.5214  -5.3247
    -5.3099  -5.2585  -5.2341  -5.1184  -5.0485  -4.9217  -4.8480  -4.8147
    -4.7914  -4.6887  -4.6216  -4.5482  -4.3866  -4.3777  -4.3721  -4.3451
    -4.2927  -4.1577  -4.1381  -4.1040  -4.0510  -3.8913  -3.8292  -3.8120
    -3.7009  -3.6645  -3.5767  -3.5522  -3.4884  -3.4747  -3.4578  -3.4088
    -3.3858  -3.3397  -3.2407  -3.2002  -3.1579  -3.1412  -3.0261  -3.0126
    -3.0053  -2.8859  -2.8857  -2.7206  -2.6465  -2.5870  -2.5439  -2.4527
    -2.3965  -2.2739  -2.2288  -2.0618  -2.0198  -1.9977  -1.8451  -1.7886
    -1.3437  -0.7166  -0.5348  -0.0874   0.4335   0.5001   0.7973   1.4803
     2.0380   2.6090   3.6471   3.8079   4.3874   4.8372

     the Fermi energy is     0.1368 ev

!    total energy              =   -1411.79955412 Ry
     Harris-Foulkes estimate   =   -1411.79955428 Ry
     estimated scf accuracy    <       0.00000009 Ry

     The total energy is the sum of the following terms:

     one-electron contribution =   -8175.13391505 Ry
     hartree contribution      =    4183.93578614 Ry
     xc contribution           =    -771.54179301 Ry
     ewald contribution        =    3350.96566712 Ry
     electric field correction =       0.00002534 Ry
     smearing contrib. (-TS)   =      -0.02532466 Ry

     convergence has been achieved in   4 iterations
 
 BEEF-vdW xc energy contributions
           1 :   -689.625221979981     
           2 :    641.140866864710     
           3 :   -554.374276365728     
           4 :    446.079779717001     
           5 :   -334.412544167248     
           6 :    234.242781496463     
           7 :   -154.323928986102     
           8 :    96.8061890152334     
           9 :   -58.8114710653857     
          10 :    35.0731471217298     
          11 :   -20.4437213216019     
          12 :    11.3450257123870     
          13 :   -5.92407890978689     
          14 :    3.30736912916063     
          15 :   -2.68158463501493     
          16 :    2.79633262707864     
          17 :   -2.11770209067595     
          18 :  -0.566000860840973     
          19 :    5.51541427470124     
          20 :   -11.8144058232557     
          21 :    17.7177246700180     
          22 :   -21.4240658972328     
          23 :    21.8819104297522     
          24 :   -19.2319247689966     
          25 :    14.6821416790873     
          26 :   -9.91337469177256     
          27 :    6.33409266823594     
          28 :   -4.55644722007014     
          29 :    4.31584877351042     
          30 :   -4.81853278504059     
          31 :   -54.5955250612899     
          32 :   -39.8154158734761     

     Forces acting on atoms (Ry/au):


     negative rho (up, down):  2.429E-04 0.000E+00
     atom    1 type  1   force =    -0.00165419   -0.00095507   -0.00498174
     atom    2 type  1   force =     0.00165418   -0.00095510   -0.00498158
     atom    3 type  1   force =    -0.00000005    0.00191013   -0.00498102
     atom    4 type  1   force =     0.00000002    0.00000005   -0.00520306
     atom    5 type  1   force =     0.00000001    0.00521408    0.00656611
     atom    6 type  1   force =    -0.00000004    0.00000102    0.00307929
     atom    7 type  1   force =    -0.00451479   -0.00260785    0.00656477
     atom    8 type  1   force =     0.00451460   -0.00260754    0.00656520
     atom    9 type  1   force =     0.00000072    0.00000024   -0.00180805
     atom   10 type  1   force =     0.00000015    0.00082283    0.00014404
     atom   11 type  1   force =     0.00071326   -0.00041125    0.00014280
     atom   12 type  1   force =    -0.00071351   -0.00041199    0.00014247
     atom   13 type  2   force =    -0.00000034    0.00000045   -0.00124922

     Total force =     0.002631     Total SCF correction =     0.000369
     SCF correction compared to forces is large: reduce conv_thr to get better values


     entering subroutine stress ...


     negative rho (up, down):  2.429E-04 0.000E+00
          total   stress  (Ry/bohr**3)                   (kbar)     P=   -6.10
  -0.00006923   0.00000000   0.00000000        -10.18      0.00      0.00
   0.00000000  -0.00006923   0.00000000          0.00    -10.18      0.00
   0.00000000   0.00000000   0.00001409          0.00      0.00      2.07


     bfgs converged in  11 scf cycles and  10 bfgs steps
     (criteria: energy <  1.0E+00, force <  1.9E-03)

     End of BFGS Geometry Optimization

     Final energy   =   -1411.7995541238 Ry
Begin final coordinates

ATOMIC_POSITIONS (crystal)
Au1      0.166666667   0.166666667   0.402269971    0   0   0
Au1      0.666666667   0.166666667   0.402269971    0   0   0
Au1      0.166666667   0.666666667   0.402269971    0   0   0
Au1      0.666666667   0.666666667   0.402269971    0   0   0
Au1      0.833333333   0.333333333   0.500000000    0   0   0
Au1      0.333333333   0.333333333   0.500000000    0   0   0
Au1      0.833333333   0.833333333   0.500000000    0   0   0
Au1      0.333333333   0.833333333   0.500000000    0   0   0
Au1     -0.000002601   0.000000943   0.596446274
Au1      0.507348767  -0.014699005   0.602805064
Au1     -0.014702428   0.507351262   0.602807737
Au1      0.507348341   0.507353619   0.602807607
C1       0.333334510   0.333331058   0.640692478
End final coordinates



     Writing output data file calc.save
 
     init_run     :     14.67s CPU     14.92s WALL (       1 calls)
     electrons    :   2798.27s CPU   2916.46s WALL (      11 calls)
     update_pot   :     31.97s CPU     33.18s WALL (      10 calls)
     forces       :    271.95s CPU    280.00s WALL (      11 calls)
     stress       :    855.71s CPU    877.87s WALL (      11 calls)

     Called by init_run:
     wfcinit      :      3.97s CPU      4.04s WALL (       1 calls)
     potinit      :      2.00s CPU      2.09s WALL (       1 calls)

     Called by electrons:
     c_bands      :    779.62s CPU    797.30s WALL (      88 calls)
     sum_band     :    640.22s CPU    665.90s WALL (      88 calls)
     v_of_rho     :    152.82s CPU    164.68s WALL (      95 calls)
     newd         :    747.45s CPU    762.95s WALL (      95 calls)
     mix_rho      :      4.92s CPU      5.03s WALL (      88 calls)
     vdW_energy   :    114.71s CPU    125.72s WALL (     491 calls)
     vdW_ffts     :    273.24s CPU    284.44s WALL (    1004 calls)
     vdW_v        :    103.32s CPU    107.99s WALL (     491 calls)

     Called by c_bands:
     init_us_2    :      7.55s CPU      7.61s WALL (     995 calls)
     cegterg      :    709.37s CPU    722.82s WALL (     440 calls)

     Called by *egterg:
     h_psi        :    496.93s CPU    507.09s WALL (    1697 calls)
     s_psi        :     59.80s CPU     59.96s WALL (    1697 calls)
     g_psi        :      2.96s CPU      2.92s WALL (    1252 calls)
     cdiaghg      :     36.71s CPU     37.12s WALL (    1622 calls)

     Called by h_psi:
     add_vuspsi   :     60.84s CPU     60.98s WALL (    1697 calls)

     General routines
     calbec       :     95.71s CPU     97.22s WALL (    2247 calls)
     fft          :    417.13s CPU    445.10s WALL (   29429 calls)
     ffts         :      0.36s CPU      0.39s WALL (     183 calls)
     fftw         :    293.05s CPU    303.60s WALL (  208526 calls)
     interpolate  :      3.34s CPU      3.42s WALL (     183 calls)
     davcio       :      0.00s CPU      0.03s WALL (       5 calls)
 
     Parallel routines
     fft_scatter  :    409.18s CPU    444.90s WALL (  238138 calls)
 
     PWSCF        :     1h 7m CPU        1h10m WALL

 
   This run was terminated on:   8:43:25   4May2018            

=------------------------------------------------------------------------------=
   JOB DONE.
=------------------------------------------------------------------------------=
Job  /afs/slac/g/suncat/bin/suncat-tsmpirun -x LD_LIBRARY_PATH -wdir /scratch/qe917205_veXVa pw.x -npool 4 -in pw.inp

TID   HOST_NAME   COMMAND_LINE            STATUS            TERMINATION_TIME
===== ========== ================  =======================  ===================
00000 suncat0065 pw.x -npool 4 -i  Done                     05/04/2018 08:43:25
00001 suncat0065 pw.x -npool 4 -i  Done                     05/04/2018 08:43:25
00002 suncat0065 pw.x -npool 4 -i  Done                     05/04/2018 08:43:25
00003 suncat0065 pw.x -npool 4 -i  Done                     05/04/2018 08:43:25
00004 suncat0065 pw.x -npool 4 -i  Done                     05/04/2018 08:43:25
00005 suncat0065 pw.x -npool 4 -i  Done                     05/04/2018 08:43:25
00006 suncat0065 pw.x -npool 4 -i  Done                     05/04/2018 08:43:25
00007 suncat0065 pw.x -npool 4 -i  Done                     05/04/2018 08:43:25
00008 suncat0046 pw.x -npool 4 -i  Done                     05/04/2018 08:43:25
00009 suncat0046 pw.x -npool 4 -i  Done                     05/04/2018 08:43:25
00010 suncat0046 pw.x -npool 4 -i  Done                     05/04/2018 08:43:25
00011 suncat0046 pw.x -npool 4 -i  Done                     05/04/2018 08:43:25
00012 suncat0046 pw.x -npool 4 -i  Done                     05/04/2018 08:43:25
00013 suncat0046 pw.x -npool 4 -i  Done                     05/04/2018 08:43:25
00014 suncat0046 pw.x -npool 4 -i  Done                     05/04/2018 08:43:25
00015 suncat0046 pw.x -npool 4 -i  Done                     05/04/2018 08:43:25
00016 suncat0113 pw.x -npool 4 -i  Done                     05/04/2018 08:43:25
00017 suncat0113 pw.x -npool 4 -i  Done                     05/04/2018 08:43:25
00018 suncat0113 pw.x -npool 4 -i  Done                     05/04/2018 08:43:25
00019 suncat0113 pw.x -npool 4 -i  Done                     05/04/2018 08:43:25
00020 suncat0113 pw.x -npool 4 -i  Done                     05/04/2018 08:43:25
00021 suncat0113 pw.x -npool 4 -i  Done                     05/04/2018 08:43:25
00022 suncat0113 pw.x -npool 4 -i  Done                     05/04/2018 08:43:25
00023 suncat0113 pw.x -npool 4 -i  Done                     05/04/2018 08:43:25
00024 suncat0277 pw.x -npool 4 -i  Done                     05/04/2018 08:43:25
00025 suncat0277 pw.x -npool 4 -i  Done                     05/04/2018 08:43:25
00026 suncat0277 pw.x -npool 4 -i  Done                     05/04/2018 08:43:25
00027 suncat0277 pw.x -npool 4 -i  Done                     05/04/2018 08:43:25
00028 suncat0277 pw.x -npool 4 -i  Done                     05/04/2018 08:43:25
00029 suncat0277 pw.x -npool 4 -i  Done                     05/04/2018 08:43:25
00030 suncat0277 pw.x -npool 4 -i  Done                     05/04/2018 08:43:25
00031 suncat0277 pw.x -npool 4 -i  Done                     05/04/2018 08:43:25
