  python dir    : /nfs/slac/g/suncatfs/mamunm/src/decaf-espresso/decaf
espresso dir  : /nfs/slac/g/suncatfs/sw/espv18/espresso-dynpy-beef/bin/pw.x
executable    : pam -g /afs/slac/g/suncat/bin/suncat-tsmpirun -x LD_LIBRARY_PATH -wdir /tmp/qe_673167ujltjz_4_scratch pw.x -npool 4 -in pw.pwi

     Program PWSCF v.5.1rc2 (svn rev. 11289) starts on 11Jan2019 at 17:48:39 

     This program is part of the open-source Quantum ESPRESSO suite
     for quantum simulation of materials; please cite
         "P. Giannozzi et al., J. Phys.:Condens. Matter 21 395502 (2009);
          URL http://www.quantum-espresso.org", 
     in publications or presentations arising from this work. More details at
     http://www.quantum-espresso.org/quote

     Parallel version (MPI), running on    32 processors
     K-points division:     npool     =       4
     R & G space division:  proc/nbgrp/npool/nimage =       8
     Reading input from pw.pwi
Warning: card &CELL ignored
Warning: card / ignored

     Current dimensions of program PWSCF are:
     Max number of different atomic species (ntypx) = 10
     Max number of k-points (npk) =  40000
     Max angular momentum in pseudopotentials (lmaxx) =  3

     **************************************************************************
     Initializing libbeef V0.1.1 with the BEEF-vdW functional.
     Citation: Wellendorff et al., PRB 85, 235149 (2012).
     **************************************************************************


     IMPORTANT: XC functional enforced from input :
     Exchange-correlation      = BEEF-VDW ( 1  4 27 13 2)
     Any further DFT definition will be discarded
     Please, verify this is what you really want


     Subspace diagonalization in iterative solution of the eigenvalue problem:
     a serial algorithm will be used

 
     Parallelization info
     --------------------
     sticks:   dense  smooth     PW     G-vecs:    dense   smooth      PW
     Min         282     114     33                52582    13326    2145
     Max         283     115     34                52595    13361    2159
     Sum        2263     913    265               420703   106687   17243
 
     Generating pointlists ...
     new r_m :   0.1669 (alat units)  1.5809 (a.u.) for type    1
     new r_m :   0.1669 (alat units)  1.5809 (a.u.) for type    2


     bravais-lattice index     =            0
     lattice parameter (alat)  =       9.4723  a.u.
     unit-cell volume          =    3537.7769 (a.u.)^3
     number of atoms/cell      =           13
     number of atomic types    =            2
     number of electrons       =       210.00
     number of Kohn-Sham states=          115
     kinetic-energy cutoff     =      36.7493  Ry
     charge density cutoff     =     367.4933  Ry
     convergence threshold     =      1.0E-04
     mixing beta               =       0.1000
     number of iterations used =            8  plain     mixing
     Exchange-correlation      = BEEF-VDW ( 1  4 27 13 2)
     nstep                     =           50


     celldm(1)=   9.472344  celldm(2)=   0.000000  celldm(3)=   0.000000
     celldm(4)=   0.000000  celldm(5)=   0.000000  celldm(6)=   0.000000

     crystal axes: (cart. coord. in units of alat)
               a(1) = (   1.000000   0.000000   0.000000 )  
               a(2) = (   0.500000   0.866025   0.000000 )  
               a(3) = (   0.000000   0.000000   4.806483 )  

     reciprocal axes: (cart. coord. in units 2 pi/alat)
               b(1) = (  1.000000 -0.577350  0.000000 )  
               b(2) = (  0.000000  1.154701  0.000000 )  
               b(3) = (  0.000000  0.000000  0.208052 )  


     PseudoPot. # 1 for Co read from file:
     /u/if/jboes/code/decaf-espresso/gbrv15pbe/Co.UPF
     MD5 check sum: 5f91765df6ddd3222702df6e7b74a16d
     Pseudo is Ultrasoft + core correction, Zval = 17.0
     Generated by new atomic code, or converted to UPF format
     Using radial grid of  863 points,  6 beta functions with: 
                l(1) =   0
                l(2) =   0
                l(3) =   1
                l(4) =   1
                l(5) =   2
                l(6) =   2
     Q(r) pseudized with  8 coefficients,  rinner =    1.200   1.200   1.200
                                                       1.200   1.200

     PseudoPot. # 2 for S  read from file:
     /u/if/jboes/code/decaf-espresso/gbrv15pbe/S.UPF
     MD5 check sum: 88d86576ff6df21479756cfb9bdac1df
     Pseudo is Ultrasoft + core correction, Zval =  6.0
     Generated by new atomic code, or converted to UPF format
     Using radial grid of  907 points,  6 beta functions with: 
                l(1) =   0
                l(2) =   0
                l(3) =   1
                l(4) =   1
                l(5) =   2
                l(6) =   2
     Q(r) pseudized with  8 coefficients,  rinner =    1.300   1.300   1.300
                                                       1.300   1.300

     vdW kernel table read from file vdW_kernel_table
     MD5 check sum: 095c7af220d748ca6e76c0b4c6cfb241

     atomic species   valence    mass     pseudopotential
        Co            17.00    58.93319     Co( 1.00)
        S              6.00    32.06000     S ( 1.00)

     Starting magnetic structure 
     atomic species   magnetization
        Co           0.118
        S            0.000

     No symmetry found



   Cartesian axes

     site n.     atom                  positions (alat units)
         1           Co  tau(   1) = (   0.2500000   0.1443376   1.9949931  )
         2           Co  tau(   2) = (   0.7500000   0.1443376   1.9949931  )
         3           Co  tau(   3) = (   0.5000000   0.5773503   1.9949931  )
         4           Co  tau(   4) = (   1.0000000   0.5773503   1.9949931  )
         5           Co  tau(   5) = (   1.0000000   0.2886751   2.4032414  )
         6           Co  tau(   6) = (   0.5000000   0.2886751   2.4032414  )
         7           Co  tau(   7) = (   1.2500000   0.7216878   2.4032414  )
         8           Co  tau(   8) = (   0.7500000   0.7216878   2.4032414  )
         9           Co  tau(   9) = (   0.0000001  -0.0000352   2.7839127  )
        10           Co  tau(  10) = (   0.4999985  -0.0020320   2.8112284  )
        11           Co  tau(  11) = (   0.2482659   0.4340402   2.8112304  )
        12           Co  tau(  12) = (   0.7517332   0.4340438   2.8112276  )
        13           S   tau(  13) = (   0.0000014  -0.0000081   3.1885055  )

     number of k points=    40  Fermi-Dirac smearing, width (Ry)=  0.0110
                       cart. coord. in units 2pi/alat
        k(    1) = (   0.0000000   0.0000000   0.0000000), wk =   0.0277778
        k(    2) = (   0.0000000   0.1924501   0.0000000), wk =   0.0555556
        k(    3) = (   0.0000000   0.3849002   0.0000000), wk =   0.0555556
        k(    4) = (   0.0000000  -0.5773503   0.0000000), wk =   0.0277778
        k(    5) = (   0.1666667  -0.0962250   0.0000000), wk =   0.0555556
        k(    6) = (   0.1666667   0.0962250   0.0000000), wk =   0.0555556
        k(    7) = (   0.1666667   0.2886751   0.0000000), wk =   0.0555556
        k(    8) = (   0.1666667  -0.6735753   0.0000000), wk =   0.0555556
        k(    9) = (   0.1666667  -0.4811252   0.0000000), wk =   0.0555556
        k(   10) = (   0.1666667  -0.2886751   0.0000000), wk =   0.0555556
        k(   11) = (   0.3333333  -0.1924501   0.0000000), wk =   0.0555556
        k(   12) = (   0.3333333  -0.0000000   0.0000000), wk =   0.0555556
        k(   13) = (   0.3333333   0.1924501   0.0000000), wk =   0.0555556
        k(   14) = (   0.3333333  -0.7698004   0.0000000), wk =   0.0555556
        k(   15) = (   0.3333333  -0.5773503   0.0000000), wk =   0.0555556
        k(   16) = (   0.3333333  -0.3849002   0.0000000), wk =   0.0555556
        k(   17) = (  -0.5000000   0.2886751   0.0000000), wk =   0.0277778
        k(   18) = (  -0.5000000   0.4811252   0.0000000), wk =   0.0555556
        k(   19) = (  -0.5000000   0.6735753   0.0000000), wk =   0.0555556
        k(   20) = (  -0.5000000  -0.2886751   0.0000000), wk =   0.0277778
        k(   21) = (   0.0000000   0.0000000   0.0000000), wk =   0.0277778
        k(   22) = (   0.0000000   0.1924501   0.0000000), wk =   0.0555556
        k(   23) = (   0.0000000   0.3849002   0.0000000), wk =   0.0555556
        k(   24) = (   0.0000000  -0.5773503   0.0000000), wk =   0.0277778
        k(   25) = (   0.1666667  -0.0962250   0.0000000), wk =   0.0555556
        k(   26) = (   0.1666667   0.0962250   0.0000000), wk =   0.0555556
        k(   27) = (   0.1666667   0.2886751   0.0000000), wk =   0.0555556
        k(   28) = (   0.1666667  -0.6735753   0.0000000), wk =   0.0555556
        k(   29) = (   0.1666667  -0.4811252   0.0000000), wk =   0.0555556
        k(   30) = (   0.1666667  -0.2886751   0.0000000), wk =   0.0555556
        k(   31) = (   0.3333333  -0.1924501   0.0000000), wk =   0.0555556
        k(   32) = (   0.3333333  -0.0000000   0.0000000), wk =   0.0555556
        k(   33) = (   0.3333333   0.1924501   0.0000000), wk =   0.0555556
        k(   34) = (   0.3333333  -0.7698004   0.0000000), wk =   0.0555556
        k(   35) = (   0.3333333  -0.5773503   0.0000000), wk =   0.0555556
        k(   36) = (   0.3333333  -0.3849002   0.0000000), wk =   0.0555556
        k(   37) = (  -0.5000000   0.2886751   0.0000000), wk =   0.0277778
        k(   38) = (  -0.5000000   0.4811252   0.0000000), wk =   0.0555556
        k(   39) = (  -0.5000000   0.6735753   0.0000000), wk =   0.0555556
        k(   40) = (  -0.5000000  -0.2886751   0.0000000), wk =   0.0277778

     Dense  grid:   420703 G-vectors     FFT dimensions: (  60,  60, 288)

     Smooth grid:   106687 G-vectors     FFT dimensions: (  40,  40, 180)

     Largest allocated arrays     est. size (Mb)     dimensions
        Kohn-Sham Wavefunctions         2.99 Mb     (    1704,  115)
        NL pseudopotentials             6.08 Mb     (    1704,  234)
        Each V/rho on FFT grid          3.96 Mb     (  129600,   2)
        Each G-vector array             0.40 Mb     (   52591)
        G-vector shells                 0.11 Mb     (   14412)
     Largest temporary arrays     est. size (Mb)     dimensions
        Auxiliary wavefunctions        11.96 Mb     (    1704,  460)
        Each subspace H/S matrix        3.23 Mb     (     460,  460)
        Each <psi_i|beta_j> matrix      0.41 Mb     (     234,  115)
        Arrays for rho mixing          15.82 Mb     (  129600,    8)

     Check: negative/imaginary core charge=   -0.000007    0.000000

     Initial potential from superposition of free atoms
     Check: negative starting charge=(component1):   -0.000174
     Check: negative starting charge=(component2):   -0.000136

     starting charge  197.99988, renormalised to  210.00000

     negative rho (up, down):  1.845E-04 1.446E-04


     ************************************************************************
     *
     * You are using vdW-DF for exchange-correlation in this calculation.
     * Please cite the following three references that made this development
     * possible:
     *
     *   M. Dion, H. Rydberg, E. Schroder, D. C. Langreth, and
     *   B. I. Lundqvist, Phys. Rev. Lett. 92, 246401 (2004).
     *
     *   T. Thonhauser, V. R. Cooper, S. Li, A. Puzder, P. Hyldgaard, and
     *   D. C. Langreth, Phys. Rev. B 76, 125112 (2007).
     *
     *   G. Roman-Perez and J. M. Soler, Phys. Rev. Lett. 103, 096102 (2009).
     *
     *
     * If you are using vdW-DF2, please also cite:
     *
     *   K. Lee, E. D. Murray, L. Kong, B. I. Lundqvist, and
     *   D. C. Langreth, Phys. Rev. B 82, 081101(R) (2010).
     *
     *
     * If you are calculating the stress with vdW-DF, please also cite:
     *
     *   R. Sabatini, E. Kucukbenli, B. Kolb, T. Thonhauser, and
     *   S. de Gironcoli, J. Phys.: Condens. Matter 24, 424209 (2012).
     *
     ************************************************************************

     Carrying out vdW-DF run using the following parameters:

     Nqs =      20    Nr_points =    1024   r_max =   100.000
     q_mesh =
               0.00001000     0.04494208     0.09755937     0.15916263
               0.23128650     0.31572767     0.41458969     0.53033537
               0.66584808     0.82450364     1.01025438     1.22772762
               1.48234092     1.78043706     2.12944203     2.53805004
               3.01644009     3.57652955     4.23227104     5.00000000

     Gradients computed in reciprocal space

     ************************************************************************


 
     Adding external electric field

     Computed dipole along edir(3) : 
        Dipole               -2.7127 Ry au,         -6.8950 Debye
        Dipole field         -0.0096 Ry au
 
        Potential amp.        0.7897 Ry
        Total length         40.9758 bohr
 
 
     Adding external electric field

     Computed dipole along edir(3) : 
        Dipole               -2.7127 Ry au,         -6.8950 Debye
        Dipole field         -0.0096 Ry au
 
        Potential amp.        0.7897 Ry
        Total length         40.9758 bohr
 
     Starting wfc are  160 randomized atomic wfcs

     total cpu time spent up to now is       15.6 secs

     per-process dynamical memory:    96.2 Mb

     Self-consistent Calculation

     iteration #  1     ecut=    36.75 Ry     beta=0.10
     Davidson diagonalization with overlap
     ethr =  1.00E-02,  avg # of iterations =  7.2

     negative rho (up, down):  2.351E-05 1.560E-05
 
     Adding external electric field

     Computed dipole along edir(3) : 
        Dipole               26.8824 Ry au,         68.3283 Debye
        Dipole field          0.0955 Ry au
 
        Potential amp.       -7.8254 Ry
        Total length         40.9758 bohr
 
 
     Adding external electric field

     Computed dipole along edir(3) : 
        Dipole               26.8824 Ry au,         68.3283 Debye
        Dipole field          0.0955 Ry au
 
        Potential amp.       -7.8254 Ry
        Total length         40.9758 bohr
 
 
     Magnetic moment per site:
     atom:    1    charge:   15.0041    magn:    1.6941    constr:    0.0000
     atom:    2    charge:   15.0043    magn:    1.6941    constr:    0.0000
     atom:    3    charge:   15.0042    magn:    1.6942    constr:    0.0000
     atom:    4    charge:   15.0040    magn:    1.6953    constr:    0.0000
     atom:    5    charge:   14.8547    magn:    1.7066    constr:    0.0000
     atom:    6    charge:   14.8511    magn:    1.7060    constr:    0.0000
     atom:    7    charge:   14.8546    magn:    1.7066    constr:    0.0000
     atom:    8    charge:   14.8547    magn:    1.7066    constr:    0.0000
     atom:    9    charge:   14.6498    magn:    1.6442    constr:    0.0000
     atom:   10    charge:   14.5395    magn:    1.6379    constr:    0.0000
     atom:   11    charge:   14.5395    magn:    1.6379    constr:    0.0000
     atom:   12    charge:   14.5395    magn:    1.6379    constr:    0.0000
     atom:   13    charge:    3.0478    magn:    0.0038    constr:    0.0000

     total cpu time spent up to now is       65.3 secs

     total energy              =   -3455.77739036 Ry
     Harris-Foulkes estimate   =   -3643.84761582 Ry
     estimated scf accuracy    <    1034.28827373 Ry

     total magnetization       =    10.51 Bohr mag/cell
     absolute magnetization    =    11.15 Bohr mag/cell

     iteration #  2     ecut=    36.75 Ry     beta=0.10
     Davidson diagonalization with overlap
     ethr =  1.00E-02,  avg # of iterations = 12.8
 
     Adding external electric field

     Computed dipole along edir(3) : 
        Dipole                6.1907 Ry au,         15.7352 Debye
        Dipole field          0.0220 Ry au
 
        Potential amp.       -1.8021 Ry
        Total length         40.9758 bohr
 
 
     Adding external electric field

     Computed dipole along edir(3) : 
        Dipole                6.1907 Ry au,         15.7352 Debye
        Dipole field          0.0220 Ry au
 
        Potential amp.       -1.8021 Ry
        Total length         40.9758 bohr
 
 
     Magnetic moment per site:
     atom:    1    charge:   14.8305    magn:    1.6533    constr:    0.0000
     atom:    2    charge:   14.8306    magn:    1.6533    constr:    0.0000
     atom:    3    charge:   14.8306    magn:    1.6534    constr:    0.0000
     atom:    4    charge:   14.8303    magn:    1.6545    constr:    0.0000
     atom:    5    charge:   14.6885    magn:    1.6657    constr:    0.0000
     atom:    6    charge:   14.6847    magn:    1.6651    constr:    0.0000
     atom:    7    charge:   14.6884    magn:    1.6657    constr:    0.0000
     atom:    8    charge:   14.6884    magn:    1.6657    constr:    0.0000
     atom:    9    charge:   14.7207    magn:    1.6075    constr:    0.0000
     atom:   10    charge:   14.6158    magn:    1.6013    constr:    0.0000
     atom:   11    charge:   14.6158    magn:    1.6013    constr:    0.0000
     atom:   12    charge:   14.6158    magn:    1.6013    constr:    0.0000
     atom:   13    charge:    3.1303    magn:    0.0038    constr:    0.0000

     total cpu time spent up to now is      142.9 secs

     total energy              =   -3536.86132709 Ry
     Harris-Foulkes estimate   =   -3831.20457540 Ry
     estimated scf accuracy    <    6204.44800938 Ry

     total magnetization       =     1.13 Bohr mag/cell
     absolute magnetization    =     1.58 Bohr mag/cell

     iteration #  3     ecut=    36.75 Ry     beta=0.10
     Davidson diagonalization with overlap
     ethr =  1.00E-02,  avg # of iterations =  6.7
 
     Adding external electric field

     Computed dipole along edir(3) : 
        Dipole                5.9261 Ry au,         15.0626 Debye
        Dipole field          0.0210 Ry au
 
        Potential amp.       -1.7251 Ry
        Total length         40.9758 bohr
 
 
     Adding external electric field

     Computed dipole along edir(3) : 
        Dipole                5.9261 Ry au,         15.0626 Debye
        Dipole field          0.0210 Ry au
 
        Potential amp.       -1.7251 Ry
        Total length         40.9758 bohr
 
 
     Magnetic moment per site:
     atom:    1    charge:   14.5687    magn:    1.5904    constr:    0.0000
     atom:    2    charge:   14.5689    magn:    1.5904    constr:    0.0000
     atom:    3    charge:   14.5688    magn:    1.5905    constr:    0.0000
     atom:    4    charge:   14.5685    magn:    1.5915    constr:    0.0000
     atom:    5    charge:   14.8790    magn:    1.6097    constr:    0.0000
     atom:    6    charge:   14.8751    magn:    1.6091    constr:    0.0000
     atom:    7    charge:   14.8790    magn:    1.6097    constr:    0.0000
     atom:    8    charge:   14.8789    magn:    1.6098    constr:    0.0000
     atom:    9    charge:   14.8125    magn:    1.5526    constr:    0.0000
     atom:   10    charge:   14.7095    magn:    1.5461    constr:    0.0000
     atom:   11    charge:   14.7095    magn:    1.5461    constr:    0.0000
     atom:   12    charge:   14.7095    magn:    1.5461    constr:    0.0000
     atom:   13    charge:    3.0097    magn:    0.0036    constr:    0.0000

     total cpu time spent up to now is      190.2 secs

     total energy              =   -3612.84416345 Ry
     Harris-Foulkes estimate   =   -3672.07319473 Ry
     estimated scf accuracy    <     923.85691322 Ry

     total magnetization       =     1.63 Bohr mag/cell
     absolute magnetization    =     1.84 Bohr mag/cell

     iteration #  4     ecut=    36.75 Ry     beta=0.10
     Davidson diagonalization with overlap
     ethr =  1.00E-02,  avg # of iterations =  6.6
 
     Adding external electric field

     Computed dipole along edir(3) : 
        Dipole                5.1697 Ry au,         13.1400 Debye
        Dipole field          0.0184 Ry au
 
        Potential amp.       -1.5049 Ry
        Total length         40.9758 bohr
 
 
     Adding external electric field

     Computed dipole along edir(3) : 
        Dipole                5.1697 Ry au,         13.1400 Debye
        Dipole field          0.0184 Ry au
 
        Potential amp.       -1.5049 Ry
        Total length         40.9758 bohr
 
 
     Magnetic moment per site:
     atom:    1    charge:   14.5037    magn:    1.6611    constr:    0.0000
     atom:    2    charge:   14.5017    magn:    1.6600    constr:    0.0000
     atom:    3    charge:   14.5028    magn:    1.6609    constr:    0.0000
     atom:    4    charge:   14.4977    magn:    1.6613    constr:    0.0000
     atom:    5    charge:   14.8073    magn:    1.5781    constr:    0.0000
     atom:    6    charge:   14.8022    magn:    1.5790    constr:    0.0000
     atom:    7    charge:   14.8074    magn:    1.5782    constr:    0.0000
     atom:    8    charge:   14.8075    magn:    1.5781    constr:    0.0000
     atom:    9    charge:   14.7377    magn:    1.5011    constr:    0.0000
     atom:   10    charge:   14.6868    magn:    1.5085    constr:    0.0000
     atom:   11    charge:   14.6868    magn:    1.5085    constr:    0.0000
     atom:   12    charge:   14.6868    magn:    1.5085    constr:    0.0000
     atom:   13    charge:    2.9028    magn:   -0.0043    constr:    0.0000

     total cpu time spent up to now is      233.3 secs

     total energy              =   -3620.40420589 Ry
     Harris-Foulkes estimate   =   -3625.70620762 Ry
     estimated scf accuracy    <      52.73227818 Ry

     total magnetization       =    16.84 Bohr mag/cell
     absolute magnetization    =    17.83 Bohr mag/cell

     iteration #  5     ecut=    36.75 Ry     beta=0.10
     Davidson diagonalization with overlap
     ethr =  1.00E-02,  avg # of iterations =  2.2
 
     Adding external electric field

     Computed dipole along edir(3) : 
        Dipole                4.4724 Ry au,         11.3678 Debye
        Dipole field          0.0159 Ry au
 
        Potential amp.       -1.3019 Ry
        Total length         40.9758 bohr
 
 
     Adding external electric field

     Computed dipole along edir(3) : 
        Dipole                4.4724 Ry au,         11.3678 Debye
        Dipole field          0.0159 Ry au
 
        Potential amp.       -1.3019 Ry
        Total length         40.9758 bohr
 
 
     Magnetic moment per site:
     atom:    1    charge:   14.5693    magn:    1.5147    constr:    0.0000
     atom:    2    charge:   14.5684    magn:    1.5110    constr:    0.0000
     atom:    3    charge:   14.5666    magn:    1.5130    constr:    0.0000
     atom:    4    charge:   14.5691    magn:    1.5076    constr:    0.0000
     atom:    5    charge:   14.6325    magn:    1.5971    constr:    0.0000
     atom:    6    charge:   14.6094    magn:    1.6123    constr:    0.0000
     atom:    7    charge:   14.6328    magn:    1.5973    constr:    0.0000
     atom:    8    charge:   14.6326    magn:    1.5982    constr:    0.0000
     atom:    9    charge:   14.7184    magn:    1.4392    constr:    0.0000
     atom:   10    charge:   14.5908    magn:    1.5410    constr:    0.0000
     atom:   11    charge:   14.5909    magn:    1.5414    constr:    0.0000
     atom:   12    charge:   14.5910    magn:    1.5414    constr:    0.0000
     atom:   13    charge:    2.8700    magn:   -0.0137    constr:    0.0000

     total cpu time spent up to now is      260.8 secs

     total energy              =   -3619.36725089 Ry
     Harris-Foulkes estimate   =   -3622.05924990 Ry
     estimated scf accuracy    <      15.23658979 Ry

     total magnetization       =    16.06 Bohr mag/cell
     absolute magnetization    =    17.28 Bohr mag/cell

     iteration #  6     ecut=    36.75 Ry     beta=0.10
     Davidson diagonalization with overlap
     ethr =  7.26E-03,  avg # of iterations =  2.1
 
     Adding external electric field

     Computed dipole along edir(3) : 
        Dipole                3.1215 Ry au,          7.9340 Debye
        Dipole field          0.0111 Ry au
 
        Potential amp.       -0.9086 Ry
        Total length         40.9758 bohr
 
 
     Adding external electric field

     Computed dipole along edir(3) : 
        Dipole                3.1215 Ry au,          7.9340 Debye
        Dipole field          0.0111 Ry au
 
        Potential amp.       -0.9086 Ry
        Total length         40.9758 bohr
 
 
     Magnetic moment per site:
     atom:    1    charge:   14.4969    magn:    1.5123    constr:    0.0000
     atom:    2    charge:   14.4976    magn:    1.5063    constr:    0.0000
     atom:    3    charge:   14.5014    magn:    1.5122    constr:    0.0000
     atom:    4    charge:   14.4939    magn:    1.4958    constr:    0.0000
     atom:    5    charge:   14.5544    magn:    1.5371    constr:    0.0000
     atom:    6    charge:   14.5440    magn:    1.5491    constr:    0.0000
     atom:    7    charge:   14.5546    magn:    1.5378    constr:    0.0000
     atom:    8    charge:   14.5539    magn:    1.5387    constr:    0.0000
     atom:    9    charge:   14.6160    magn:    1.3575    constr:    0.0000
     atom:   10    charge:   14.5620    magn:    1.4787    constr:    0.0000
     atom:   11    charge:   14.5618    magn:    1.4793    constr:    0.0000
     atom:   12    charge:   14.5620    magn:    1.4790    constr:    0.0000
     atom:   13    charge:    2.8146    magn:   -0.0317    constr:    0.0000

     total cpu time spent up to now is      290.0 secs

     total energy              =   -3615.55871859 Ry
     Harris-Foulkes estimate   =   -3621.80929400 Ry
     estimated scf accuracy    <     109.39259003 Ry

     total magnetization       =    12.89 Bohr mag/cell
     absolute magnetization    =    14.71 Bohr mag/cell

     iteration #  7     ecut=    36.75 Ry     beta=0.10
     Davidson diagonalization with overlap
     ethr =  7.26E-03,  avg # of iterations =  4.3
 
     Adding external electric field

     Computed dipole along edir(3) : 
        Dipole                3.0249 Ry au,          7.6885 Debye
        Dipole field          0.0107 Ry au
 
        Potential amp.       -0.8805 Ry
        Total length         40.9758 bohr
 
 
     Adding external electric field

     Computed dipole along edir(3) : 
        Dipole                3.0249 Ry au,          7.6885 Debye
        Dipole field          0.0107 Ry au
 
        Potential amp.       -0.8805 Ry
        Total length         40.9758 bohr
 
 
     Magnetic moment per site:
     atom:    1    charge:   14.5110    magn:    1.4825    constr:    0.0000
     atom:    2    charge:   14.5125    magn:    1.4774    constr:    0.0000
     atom:    3    charge:   14.5147    magn:    1.4838    constr:    0.0000
     atom:    4    charge:   14.5099    magn:    1.4661    constr:    0.0000
     atom:    5    charge:   14.5584    magn:    1.5381    constr:    0.0000
     atom:    6    charge:   14.5492    magn:    1.5508    constr:    0.0000
     atom:    7    charge:   14.5582    magn:    1.5390    constr:    0.0000
     atom:    8    charge:   14.5581    magn:    1.5395    constr:    0.0000
     atom:    9    charge:   14.6135    magn:    1.3575    constr:    0.0000
     atom:   10    charge:   14.5374    magn:    1.4918    constr:    0.0000
     atom:   11    charge:   14.5374    magn:    1.4924    constr:    0.0000
     atom:   12    charge:   14.5374    magn:    1.4921    constr:    0.0000
     atom:   13    charge:    2.8376    magn:   -0.0295    constr:    0.0000

     total cpu time spent up to now is      323.2 secs

     total energy              =   -3619.26665004 Ry
     Harris-Foulkes estimate   =   -3619.98724757 Ry
     estimated scf accuracy    <      39.16905933 Ry

     total magnetization       =    17.27 Bohr mag/cell
     absolute magnetization    =    18.18 Bohr mag/cell

     iteration #  8     ecut=    36.75 Ry     beta=0.10
     Davidson diagonalization with overlap
     ethr =  7.26E-03,  avg # of iterations =  1.0
 
     Adding external electric field

     Computed dipole along edir(3) : 
        Dipole                2.6634 Ry au,          6.7697 Debye
        Dipole field          0.0095 Ry au
 
        Potential amp.       -0.7753 Ry
        Total length         40.9758 bohr
 
 
     Adding external electric field

     Computed dipole along edir(3) : 
        Dipole                2.6634 Ry au,          6.7697 Debye
        Dipole field          0.0095 Ry au
 
        Potential amp.       -0.7753 Ry
        Total length         40.9758 bohr
 
 
     Magnetic moment per site:
     atom:    1    charge:   14.5522    magn:    1.4121    constr:    0.0000
     atom:    2    charge:   14.5550    magn:    1.4121    constr:    0.0000
     atom:    3    charge:   14.5494    magn:    1.4214    constr:    0.0000
     atom:    4    charge:   14.5586    magn:    1.3938    constr:    0.0000
     atom:    5    charge:   14.5347    magn:    1.5730    constr:    0.0000
     atom:    6    charge:   14.5289    magn:    1.5917    constr:    0.0000
     atom:    7    charge:   14.5347    magn:    1.5735    constr:    0.0000
     atom:    8    charge:   14.5352    magn:    1.5741    constr:    0.0000
     atom:    9    charge:   14.5992    magn:    1.3446    constr:    0.0000
     atom:   10    charge:   14.5126    magn:    1.5030    constr:    0.0000
     atom:   11    charge:   14.5126    magn:    1.5036    constr:    0.0000
     atom:   12    charge:   14.5124    magn:    1.5037    constr:    0.0000
     atom:   13    charge:    2.9145    magn:   -0.0202    constr:    0.0000

     total cpu time spent up to now is      349.7 secs

     total energy              =   -3618.56436524 Ry
     Harris-Foulkes estimate   =   -3619.47351026 Ry
     estimated scf accuracy    <      10.60263865 Ry

     total magnetization       =    18.29 Bohr mag/cell
     absolute magnetization    =    19.20 Bohr mag/cell

     iteration #  9     ecut=    36.75 Ry     beta=0.10
     Davidson diagonalization with overlap
     ethr =  5.05E-03,  avg # of iterations =  2.9
 
     Adding external electric field

     Computed dipole along edir(3) : 
        Dipole                2.1431 Ry au,          5.4472 Debye
        Dipole field          0.0076 Ry au
 
        Potential amp.       -0.6238 Ry
        Total length         40.9758 bohr
 
 
     Adding external electric field

     Computed dipole along edir(3) : 
        Dipole                2.1431 Ry au,          5.4472 Debye
        Dipole field          0.0076 Ry au
 
        Potential amp.       -0.6238 Ry
        Total length         40.9758 bohr
 
 
     Magnetic moment per site:
     atom:    1    charge:   14.5318    magn:    1.4542    constr:    0.0000
     atom:    2    charge:   14.5267    magn:    1.4591    constr:    0.0000
     atom:    3    charge:   14.5365    magn:    1.4615    constr:    0.0000
     atom:    4    charge:   14.5150    magn:    1.4437    constr:    0.0000
     atom:    5    charge:   14.5435    magn:    1.5530    constr:    0.0000
     atom:    6    charge:   14.5306    magn:    1.5775    constr:    0.0000
     atom:    7    charge:   14.5437    magn:    1.5539    constr:    0.0000
     atom:    8    charge:   14.5435    magn:    1.5554    constr:    0.0000
     atom:    9    charge:   14.5962    magn:    1.3125    constr:    0.0000
     atom:   10    charge:   14.5220    magn:    1.4892    constr:    0.0000
     atom:   11    charge:   14.5219    magn:    1.4901    constr:    0.0000
     atom:   12    charge:   14.5217    magn:    1.4902    constr:    0.0000
     atom:   13    charge:    2.9088    magn:   -0.0118    constr:    0.0000

     total cpu time spent up to now is      379.9 secs

     total energy              =   -3618.38322236 Ry
     Harris-Foulkes estimate   =   -3619.59048532 Ry
     estimated scf accuracy    <      31.43939032 Ry

     total magnetization       =    17.43 Bohr mag/cell
     absolute magnetization    =    18.54 Bohr mag/cell

     iteration # 10     ecut=    36.75 Ry     beta=0.10
     Davidson diagonalization with overlap
     ethr =  5.05E-03,  avg # of iterations =  1.3
 
     Adding external electric field

     Computed dipole along edir(3) : 
        Dipole                1.2903 Ry au,          3.2797 Debye
        Dipole field          0.0046 Ry au
 
        Potential amp.       -0.3756 Ry
        Total length         40.9758 bohr
 
 
     Adding external electric field

     Computed dipole along edir(3) : 
        Dipole                1.2903 Ry au,          3.2797 Debye
        Dipole field          0.0046 Ry au
 
        Potential amp.       -0.3756 Ry
        Total length         40.9758 bohr
 
 
     Magnetic moment per site:
     atom:    1    charge:   14.5203    magn:    1.4245    constr:    0.0000
     atom:    2    charge:   14.5236    magn:    1.4258    constr:    0.0000
     atom:    3    charge:   14.5203    magn:    1.4425    constr:    0.0000
     atom:    4    charge:   14.5230    magn:    1.3912    constr:    0.0000
     atom:    5    charge:   14.5277    magn:    1.5674    constr:    0.0000
     atom:    6    charge:   14.5195    magn:    1.5933    constr:    0.0000
     atom:    7    charge:   14.5272    magn:    1.5694    constr:    0.0000
     atom:    8    charge:   14.5270    magn:    1.5712    constr:    0.0000
     atom:    9    charge:   14.5674    magn:    1.2910    constr:    0.0000
     atom:   10    charge:   14.5128    magn:    1.5108    constr:    0.0000
     atom:   11    charge:   14.5132    magn:    1.5115    constr:    0.0000
     atom:   12    charge:   14.5133    magn:    1.5113    constr:    0.0000
     atom:   13    charge:    2.9234    magn:   -0.0019    constr:    0.0000

     total cpu time spent up to now is      407.1 secs

     total energy              =   -3618.83577927 Ry
     Harris-Foulkes estimate   =   -3619.01295229 Ry
     estimated scf accuracy    <       1.61822260 Ry

     total magnetization       =    18.38 Bohr mag/cell
     absolute magnetization    =    19.68 Bohr mag/cell

     iteration # 11     ecut=    36.75 Ry     beta=0.10
     Davidson diagonalization with overlap
     ethr =  7.71E-04,  avg # of iterations =  4.5
 
     Adding external electric field

     Computed dipole along edir(3) : 
        Dipole                0.8775 Ry au,          2.2304 Debye
        Dipole field          0.0031 Ry au
 
        Potential amp.       -0.2554 Ry
        Total length         40.9758 bohr
 
 
     Adding external electric field

     Computed dipole along edir(3) : 
        Dipole                0.8775 Ry au,          2.2304 Debye
        Dipole field          0.0031 Ry au
 
        Potential amp.       -0.2554 Ry
        Total length         40.9758 bohr
 
 
     Magnetic moment per site:
     atom:    1    charge:   14.5085    magn:    1.4184    constr:    0.0000
     atom:    2    charge:   14.5038    magn:    1.4236    constr:    0.0000
     atom:    3    charge:   14.5138    magn:    1.4369    constr:    0.0000
     atom:    4    charge:   14.5013    magn:    1.3833    constr:    0.0000
     atom:    5    charge:   14.5150    magn:    1.5737    constr:    0.0000
     atom:    6    charge:   14.5081    magn:    1.6047    constr:    0.0000
     atom:    7    charge:   14.5156    magn:    1.5759    constr:    0.0000
     atom:    8    charge:   14.5156    magn:    1.5777    constr:    0.0000
     atom:    9    charge:   14.5694    magn:    1.2693    constr:    0.0000
     atom:   10    charge:   14.5299    magn:    1.5346    constr:    0.0000
     atom:   11    charge:   14.5285    magn:    1.5367    constr:    0.0000
     atom:   12    charge:   14.5287    magn:    1.5363    constr:    0.0000
     atom:   13    charge:    2.9078    magn:    0.0087    constr:    0.0000

     total cpu time spent up to now is      440.5 secs

     total energy              =   -3619.12037282 Ry
     Harris-Foulkes estimate   =   -3619.04506439 Ry
     estimated scf accuracy    <      11.39546204 Ry

     total magnetization       =    19.03 Bohr mag/cell
     absolute magnetization    =    20.32 Bohr mag/cell

     iteration # 12     ecut=    36.75 Ry     beta=0.10
     Davidson diagonalization with overlap
     ethr =  7.71E-04,  avg # of iterations =  1.2
 
     Adding external electric field

     Computed dipole along edir(3) : 
        Dipole                0.5006 Ry au,          1.2723 Debye
        Dipole field          0.0018 Ry au
 
        Potential amp.       -0.1457 Ry
        Total length         40.9758 bohr
 
 
     Adding external electric field

     Computed dipole along edir(3) : 
        Dipole                0.5006 Ry au,          1.2723 Debye
        Dipole field          0.0018 Ry au
 
        Potential amp.       -0.1457 Ry
        Total length         40.9758 bohr
 
 
     Magnetic moment per site:
     atom:    1    charge:   14.5217    magn:    1.3771    constr:    0.0000
     atom:    2    charge:   14.5188    magn:    1.3801    constr:    0.0000
     atom:    3    charge:   14.5207    magn:    1.4039    constr:    0.0000
     atom:    4    charge:   14.5159    magn:    1.3349    constr:    0.0000
     atom:    5    charge:   14.5161    magn:    1.5859    constr:    0.0000
     atom:    6    charge:   14.5040    magn:    1.6306    constr:    0.0000
     atom:    7    charge:   14.5146    magn:    1.5904    constr:    0.0000
     atom:    8    charge:   14.5129    magn:    1.5937    constr:    0.0000
     atom:    9    charge:   14.5728    magn:    1.2577    constr:    0.0000
     atom:   10    charge:   14.5116    magn:    1.5919    constr:    0.0000
     atom:   11    charge:   14.5164    magn:    1.5897    constr:    0.0000
     atom:   12    charge:   14.5156    magn:    1.5900    constr:    0.0000
     atom:   13    charge:    2.9432    magn:    0.0211    constr:    0.0000

     total cpu time spent up to now is      467.2 secs

     total energy              =   -3618.43258116 Ry
     Harris-Foulkes estimate   =   -3619.19935300 Ry
     estimated scf accuracy    <      26.41107622 Ry

     total magnetization       =    18.61 Bohr mag/cell
     absolute magnetization    =    20.03 Bohr mag/cell

     iteration # 13     ecut=    36.75 Ry     beta=0.10
     Davidson diagonalization with overlap
     ethr =  7.71E-04,  avg # of iterations =  2.6

     negative rho (up, down):  1.617E-08 5.932E-09
 
     Adding external electric field

     Computed dipole along edir(3) : 
        Dipole                0.3893 Ry au,          0.9895 Debye
        Dipole field          0.0014 Ry au
 
        Potential amp.       -0.1133 Ry
        Total length         40.9758 bohr
 
 
     Adding external electric field

     Computed dipole along edir(3) : 
        Dipole                0.3893 Ry au,          0.9895 Debye
        Dipole field          0.0014 Ry au
 
        Potential amp.       -0.1133 Ry
        Total length         40.9758 bohr
 
 
     Magnetic moment per site:
     atom:    1    charge:   14.5167    magn:    1.3893    constr:    0.0000
     atom:    2    charge:   14.5165    magn:    1.3906    constr:    0.0000
     atom:    3    charge:   14.5171    magn:    1.4151    constr:    0.0000
     atom:    4    charge:   14.5171    magn:    1.3432    constr:    0.0000
     atom:    5    charge:   14.5158    magn:    1.5906    constr:    0.0000
     atom:    6    charge:   14.5086    magn:    1.6338    constr:    0.0000
     atom:    7    charge:   14.5160    magn:    1.5940    constr:    0.0000
     atom:    8    charge:   14.5160    magn:    1.5962    constr:    0.0000
     atom:    9    charge:   14.5680    magn:    1.2560    constr:    0.0000
     atom:   10    charge:   14.5114    magn:    1.5993    constr:    0.0000
     atom:   11    charge:   14.5099    magn:    1.6020    constr:    0.0000
     atom:   12    charge:   14.5101    magn:    1.6015    constr:    0.0000
     atom:   13    charge:    2.9520    magn:    0.0250    constr:    0.0000

     total cpu time spent up to now is      497.1 secs

     total energy              =   -3618.74308926 Ry
     Harris-Foulkes estimate   =   -3618.75607654 Ry
     estimated scf accuracy    <       0.15623097 Ry

     total magnetization       =    19.38 Bohr mag/cell
     absolute magnetization    =    20.96 Bohr mag/cell

     iteration # 14     ecut=    36.75 Ry     beta=0.10
     Davidson diagonalization with overlap
     ethr =  7.44E-05,  avg # of iterations =  4.4

     negative rho (up, down):  3.010E-08 1.765E-08
 
     Adding external electric field

     Computed dipole along edir(3) : 
        Dipole                0.2630 Ry au,          0.6684 Debye
        Dipole field          0.0009 Ry au
 
        Potential amp.       -0.0765 Ry
        Total length         40.9758 bohr
 
 
     Adding external electric field

     Computed dipole along edir(3) : 
        Dipole                0.2630 Ry au,          0.6684 Debye
        Dipole field          0.0009 Ry au
 
        Potential amp.       -0.0765 Ry
        Total length         40.9758 bohr
 
 
     Magnetic moment per site:
     atom:    1    charge:   14.5124    magn:    1.4093    constr:    0.0000
     atom:    2    charge:   14.5118    magn:    1.4119    constr:    0.0000
     atom:    3    charge:   14.5107    magn:    1.4371    constr:    0.0000
     atom:    4    charge:   14.5121    magn:    1.3693    constr:    0.0000
     atom:    5    charge:   14.5139    magn:    1.5951    constr:    0.0000
     atom:    6    charge:   14.5067    magn:    1.6422    constr:    0.0000
     atom:    7    charge:   14.5134    magn:    1.5994    constr:    0.0000
     atom:    8    charge:   14.5130    magn:    1.6021    constr:    0.0000
     atom:    9    charge:   14.5585    magn:    1.2546    constr:    0.0000
     atom:   10    charge:   14.5032    magn:    1.6187    constr:    0.0000
     atom:   11    charge:   14.5081    magn:    1.6159    constr:    0.0000
     atom:   12    charge:   14.5073    magn:    1.6162    constr:    0.0000
     atom:   13    charge:    2.9490    magn:    0.0306    constr:    0.0000

     total cpu time spent up to now is      530.8 secs

     total energy              =   -3618.74866035 Ry
     Harris-Foulkes estimate   =   -3618.75672314 Ry
     estimated scf accuracy    <       0.07699247 Ry

     total magnetization       =    19.43 Bohr mag/cell
     absolute magnetization    =    21.06 Bohr mag/cell

     iteration # 15     ecut=    36.75 Ry     beta=0.10
     Davidson diagonalization with overlap
     ethr =  3.67E-05,  avg # of iterations =  1.3

     negative rho (up, down):  9.695E-08 2.950E-08
 
     Adding external electric field

     Computed dipole along edir(3) : 
        Dipole                0.1679 Ry au,          0.4266 Debye
        Dipole field          0.0006 Ry au
 
        Potential amp.       -0.0489 Ry
        Total length         40.9758 bohr
 
 
     Adding external electric field

     Computed dipole along edir(3) : 
        Dipole                0.1679 Ry au,          0.4266 Debye
        Dipole field          0.0006 Ry au
 
        Potential amp.       -0.0489 Ry
        Total length         40.9758 bohr
 
 
     Magnetic moment per site:
     atom:    1    charge:   14.5072    magn:    1.4284    constr:    0.0000
     atom:    2    charge:   14.5067    magn:    1.4314    constr:    0.0000
     atom:    3    charge:   14.5069    magn:    1.4555    constr:    0.0000
     atom:    4    charge:   14.5065    magn:    1.3933    constr:    0.0000
     atom:    5    charge:   14.5137    magn:    1.6020    constr:    0.0000
     atom:    6    charge:   14.5036    magn:    1.6547    constr:    0.0000
     atom:    7    charge:   14.5127    magn:    1.6069    constr:    0.0000
     atom:    8    charge:   14.5116    magn:    1.6104    constr:    0.0000
     atom:    9    charge:   14.5621    magn:    1.2478    constr:    0.0000
     atom:   10    charge:   14.5051    magn:    1.6352    constr:    0.0000
     atom:   11    charge:   14.5041    magn:    1.6376    constr:    0.0000
     atom:   12    charge:   14.5042    magn:    1.6372    constr:    0.0000
     atom:   13    charge:    2.9421    magn:    0.0362    constr:    0.0000

     total cpu time spent up to now is      557.5 secs

     total energy              =   -3618.74409648 Ry
     Harris-Foulkes estimate   =   -3618.75094728 Ry
     estimated scf accuracy    <       0.07433076 Ry

     total magnetization       =    19.46 Bohr mag/cell
     absolute magnetization    =    21.14 Bohr mag/cell

     iteration # 16     ecut=    36.75 Ry     beta=0.10
     Davidson diagonalization with overlap
     ethr =  3.54E-05,  avg # of iterations =  1.1

     negative rho (up, down):  9.290E-07 2.419E-07
 
     Adding external electric field

     Computed dipole along edir(3) : 
        Dipole                0.0706 Ry au,          0.1795 Debye
        Dipole field          0.0003 Ry au
 
        Potential amp.       -0.0206 Ry
        Total length         40.9758 bohr
 
 
     Adding external electric field

     Computed dipole along edir(3) : 
        Dipole                0.0706 Ry au,          0.1795 Debye
        Dipole field          0.0003 Ry au
 
        Potential amp.       -0.0206 Ry
        Total length         40.9758 bohr
 
 
     Magnetic moment per site:
     atom:    1    charge:   14.5003    magn:    1.4726    constr:    0.0000
     atom:    2    charge:   14.4987    magn:    1.4776    constr:    0.0000
     atom:    3    charge:   14.5015    magn:    1.4983    constr:    0.0000
     atom:    4    charge:   14.4991    magn:    1.4493    constr:    0.0000
     atom:    5    charge:   14.5080    magn:    1.6185    constr:    0.0000
     atom:    6    charge:   14.5047    magn:    1.6712    constr:    0.0000
     atom:    7    charge:   14.5097    magn:    1.6216    constr:    0.0000
     atom:    8    charge:   14.5112    magn:    1.6232    constr:    0.0000
     atom:    9    charge:   14.5585    magn:    1.2458    constr:    0.0000
     atom:   10    charge:   14.5003    magn:    1.6658    constr:    0.0000
     atom:   11    charge:   14.5012    magn:    1.6663    constr:    0.0000
     atom:   12    charge:   14.5012    magn:    1.6661    constr:    0.0000
     atom:   13    charge:    2.9306    magn:    0.0446    constr:    0.0000

     total cpu time spent up to now is      584.1 secs

     total energy              =   -3618.74289486 Ry
     Harris-Foulkes estimate   =   -3618.74602572 Ry
     estimated scf accuracy    <       0.02830690 Ry

     total magnetization       =    19.49 Bohr mag/cell
     absolute magnetization    =    21.25 Bohr mag/cell

     iteration # 17     ecut=    36.75 Ry     beta=0.10
     Davidson diagonalization with overlap
     ethr =  1.35E-05,  avg # of iterations =  3.0

     negative rho (up, down):  1.558E-06 3.326E-07
 
     Adding external electric field

     Computed dipole along edir(3) : 
        Dipole                0.0340 Ry au,          0.0863 Debye
        Dipole field          0.0001 Ry au
 
        Potential amp.       -0.0099 Ry
        Total length         40.9758 bohr
 
 
     Adding external electric field

     Computed dipole along edir(3) : 
        Dipole                0.0340 Ry au,          0.0863 Debye
        Dipole field          0.0001 Ry au
 
        Potential amp.       -0.0099 Ry
        Total length         40.9758 bohr
 
 
     Magnetic moment per site:
     atom:    1    charge:   14.4995    magn:    1.4838    constr:    0.0000
     atom:    2    charge:   14.4987    magn:    1.4883    constr:    0.0000
     atom:    3    charge:   14.4993    magn:    1.5102    constr:    0.0000
     atom:    4    charge:   14.4985    magn:    1.4631    constr:    0.0000
     atom:    5    charge:   14.5096    magn:    1.6207    constr:    0.0000
     atom:    6    charge:   14.5024    magn:    1.6775    constr:    0.0000
     atom:    7    charge:   14.5097    magn:    1.6248    constr:    0.0000
     atom:    8    charge:   14.5097    magn:    1.6273    constr:    0.0000
     atom:    9    charge:   14.5576    magn:    1.2459    constr:    0.0000
     atom:   10    charge:   14.5000    magn:    1.6744    constr:    0.0000
     atom:   11    charge:   14.5006    magn:    1.6751    constr:    0.0000
     atom:   12    charge:   14.5005    magn:    1.6749    constr:    0.0000
     atom:   13    charge:    2.9291    magn:    0.0470    constr:    0.0000

     total cpu time spent up to now is      615.2 secs

     total energy              =   -3618.74466508 Ry
     Harris-Foulkes estimate   =   -3618.74558317 Ry
     estimated scf accuracy    <       0.05703134 Ry

     total magnetization       =    19.54 Bohr mag/cell
     absolute magnetization    =    21.45 Bohr mag/cell

     iteration # 18     ecut=    36.75 Ry     beta=0.10
     Davidson diagonalization with overlap
     ethr =  1.35E-05,  avg # of iterations =  1.0

     negative rho (up, down):  6.748E-06 2.001E-06
 
     Adding external electric field

     Computed dipole along edir(3) : 
        Dipole               -0.0454 Ry au,         -0.1154 Debye
        Dipole field         -0.0002 Ry au
 
        Potential amp.        0.0132 Ry
        Total length         40.9758 bohr
 
 
     Adding external electric field

     Computed dipole along edir(3) : 
        Dipole               -0.0454 Ry au,         -0.1154 Debye
        Dipole field         -0.0002 Ry au
 
        Potential amp.        0.0132 Ry
        Total length         40.9758 bohr
 
 
     Magnetic moment per site:
     atom:    1    charge:   14.4984    magn:    1.5090    constr:    0.0000
     atom:    2    charge:   14.4977    magn:    1.5143    constr:    0.0000
     atom:    3    charge:   14.4988    magn:    1.5339    constr:    0.0000
     atom:    4    charge:   14.4987    magn:    1.4934    constr:    0.0000
     atom:    5    charge:   14.5100    magn:    1.6293    constr:    0.0000
     atom:    6    charge:   14.5023    magn:    1.6878    constr:    0.0000
     atom:    7    charge:   14.5096    magn:    1.6327    constr:    0.0000
     atom:    8    charge:   14.5091    magn:    1.6348    constr:    0.0000
     atom:    9    charge:   14.5551    magn:    1.2461    constr:    0.0000
     atom:   10    charge:   14.4998    magn:    1.6931    constr:    0.0000
     atom:   11    charge:   14.4989    magn:    1.6949    constr:    0.0000
     atom:   12    charge:   14.4992    magn:    1.6943    constr:    0.0000
     atom:   13    charge:    2.9288    magn:    0.0532    constr:    0.0000

     total cpu time spent up to now is      642.0 secs

     total energy              =   -3618.74484943 Ry
     Harris-Foulkes estimate   =   -3618.74512938 Ry
     estimated scf accuracy    <       0.03561210 Ry

     total magnetization       =    19.55 Bohr mag/cell
     absolute magnetization    =    21.49 Bohr mag/cell

     iteration # 19     ecut=    36.75 Ry     beta=0.10
     Davidson diagonalization with overlap
     ethr =  1.35E-05,  avg # of iterations =  1.1

     negative rho (up, down):  1.059E-05 3.169E-06
 
     Adding external electric field

     Computed dipole along edir(3) : 
        Dipole               -0.0730 Ry au,         -0.1854 Debye
        Dipole field         -0.0003 Ry au
 
        Potential amp.        0.0212 Ry
        Total length         40.9758 bohr
 
 
     Adding external electric field

     Computed dipole along edir(3) : 
        Dipole               -0.0730 Ry au,         -0.1854 Debye
        Dipole field         -0.0003 Ry au
 
        Potential amp.        0.0212 Ry
        Total length         40.9758 bohr
 
 
     Magnetic moment per site:
     atom:    1    charge:   14.4980    magn:    1.5304    constr:    0.0000
     atom:    2    charge:   14.4979    magn:    1.5357    constr:    0.0000
     atom:    3    charge:   14.4970    magn:    1.5551    constr:    0.0000
     atom:    4    charge:   14.4976    magn:    1.5206    constr:    0.0000
     atom:    5    charge:   14.5093    magn:    1.6360    constr:    0.0000
     atom:    6    charge:   14.5022    magn:    1.6946    constr:    0.0000
     atom:    7    charge:   14.5094    magn:    1.6383    constr:    0.0000
     atom:    8    charge:   14.5094    magn:    1.6395    constr:    0.0000
     atom:    9    charge:   14.5568    magn:    1.2452    constr:    0.0000
     atom:   10    charge:   14.4980    magn:    1.7071    constr:    0.0000
     atom:   11    charge:   14.4988    magn:    1.7073    constr:    0.0000
     atom:   12    charge:   14.4986    magn:    1.7072    constr:    0.0000
     atom:   13    charge:    2.9270    magn:    0.0573    constr:    0.0000

     total cpu time spent up to now is      668.6 secs

     total energy              =   -3618.74646740 Ry
     Harris-Foulkes estimate   =   -3618.74569553 Ry
     estimated scf accuracy    <       0.00909959 Ry

     total magnetization       =    19.57 Bohr mag/cell
     absolute magnetization    =    21.57 Bohr mag/cell

     iteration # 20     ecut=    36.75 Ry     beta=0.10
     Davidson diagonalization with overlap
     ethr =  4.33E-06,  avg # of iterations =  3.0

     negative rho (up, down):  1.745E-04 9.898E-05
 
     Adding external electric field

     Computed dipole along edir(3) : 
        Dipole               -0.1411 Ry au,         -0.3586 Debye
        Dipole field         -0.0005 Ry au
 
        Potential amp.        0.0411 Ry
        Total length         40.9758 bohr
 
 
     Adding external electric field

     Computed dipole along edir(3) : 
        Dipole               -0.1411 Ry au,         -0.3586 Debye
        Dipole field         -0.0005 Ry au
 
        Potential amp.        0.0411 Ry
        Total length         40.9758 bohr
 
 
     Magnetic moment per site:
     atom:    1    charge:   14.4959    magn:    1.5695    constr:    0.0000
     atom:    2    charge:   14.4954    magn:    1.5753    constr:    0.0000
     atom:    3    charge:   14.4946    magn:    1.5916    constr:    0.0000
     atom:    4    charge:   14.4948    magn:    1.5664    constr:    0.0000
     atom:    5    charge:   14.5084    magn:    1.6476    constr:    0.0000
     atom:    6    charge:   14.5019    magn:    1.7083    constr:    0.0000
     atom:    7    charge:   14.5091    magn:    1.6488    constr:    0.0000
     atom:    8    charge:   14.5094    magn:    1.6491    constr:    0.0000
     atom:    9    charge:   14.5566    magn:    1.2435    constr:    0.0000
     atom:   10    charge:   14.4988    magn:    1.7310    constr:    0.0000
     atom:   11    charge:   14.4982    magn:    1.7319    constr:    0.0000
     atom:   12    charge:   14.4984    magn:    1.7314    constr:    0.0000
     atom:   13    charge:    2.9239    magn:    0.0651    constr:    0.0000

     total cpu time spent up to now is      698.6 secs

     total energy              =   -3618.74949623 Ry
     Harris-Foulkes estimate   =   -3618.74790100 Ry
     estimated scf accuracy    <       0.00730104 Ry

     total magnetization       =    19.62 Bohr mag/cell
     absolute magnetization    =    21.68 Bohr mag/cell

     iteration # 21     ecut=    36.75 Ry     beta=0.10
     Davidson diagonalization with overlap
     ethr =  3.48E-06,  avg # of iterations =  2.5

     negative rho (up, down):  2.110E-04 1.183E-04
 
     Adding external electric field

     Computed dipole along edir(3) : 
        Dipole               -0.1529 Ry au,         -0.3887 Debye
        Dipole field         -0.0005 Ry au
 
        Potential amp.        0.0445 Ry
        Total length         40.9758 bohr
 
 
     Adding external electric field

     Computed dipole along edir(3) : 
        Dipole               -0.1529 Ry au,         -0.3887 Debye
        Dipole field         -0.0005 Ry au
 
        Potential amp.        0.0445 Ry
        Total length         40.9758 bohr
 
 
     Magnetic moment per site:
     atom:    1    charge:   14.4940    magn:    1.5799    constr:    0.0000
     atom:    2    charge:   14.4935    magn:    1.5856    constr:    0.0000
     atom:    3    charge:   14.4949    magn:    1.5995    constr:    0.0000
     atom:    4    charge:   14.4945    magn:    1.5769    constr:    0.0000
     atom:    5    charge:   14.5095    magn:    1.6494    constr:    0.0000
     atom:    6    charge:   14.5016    magn:    1.7118    constr:    0.0000
     atom:    7    charge:   14.5089    magn:    1.6516    constr:    0.0000
     atom:    8    charge:   14.5083    magn:    1.6524    constr:    0.0000
     atom:    9    charge:   14.5563    magn:    1.2436    constr:    0.0000
     atom:   10    charge:   14.4982    magn:    1.7365    constr:    0.0000
     atom:   11    charge:   14.4985    magn:    1.7367    constr:    0.0000
     atom:   12    charge:   14.4984    magn:    1.7365    constr:    0.0000
     atom:   13    charge:    2.9234    magn:    0.0662    constr:    0.0000

     total cpu time spent up to now is      727.3 secs

     total energy              =   -3618.75009655 Ry
     Harris-Foulkes estimate   =   -3618.74992207 Ry
     estimated scf accuracy    <       0.00643109 Ry

     total magnetization       =    19.67 Bohr mag/cell
     absolute magnetization    =    21.85 Bohr mag/cell

     iteration # 22     ecut=    36.75 Ry     beta=0.10
     Davidson diagonalization with overlap
     ethr =  3.06E-06,  avg # of iterations =  1.2

     negative rho (up, down):  3.007E-03 2.645E-03
 
     Adding external electric field

     Computed dipole along edir(3) : 
        Dipole               -0.1871 Ry au,         -0.4756 Debye
        Dipole field         -0.0007 Ry au
 
        Potential amp.        0.0545 Ry
        Total length         40.9758 bohr
 
 
     Adding external electric field

     Computed dipole along edir(3) : 
        Dipole               -0.1871 Ry au,         -0.4756 Debye
        Dipole field         -0.0007 Ry au
 
        Potential amp.        0.0545 Ry
        Total length         40.9758 bohr
 
 
     Magnetic moment per site:
     atom:    1    charge:   14.4926    magn:    1.6197    constr:    0.0000
     atom:    2    charge:   14.4922    magn:    1.6252    constr:    0.0000
     atom:    3    charge:   14.4919    magn:    1.6368    constr:    0.0000
     atom:    4    charge:   14.4916    magn:    1.6230    constr:    0.0000
     atom:    5    charge:   14.5088    magn:    1.6610    constr:    0.0000
     atom:    6    charge:   14.5017    magn:    1.7248    constr:    0.0000
     atom:    7    charge:   14.5088    magn:    1.6619    constr:    0.0000
     atom:    8    charge:   14.5088    magn:    1.6617    constr:    0.0000
     atom:    9    charge:   14.5571    magn:    1.2424    constr:    0.0000
     atom:   10    charge:   14.4985    magn:    1.7589    constr:    0.0000
     atom:   11    charge:   14.4981    magn:    1.7593    constr:    0.0000
     atom:   12    charge:   14.4982    magn:    1.7590    constr:    0.0000
     atom:   13    charge:    2.9219    magn:    0.0730    constr:    0.0000

     total cpu time spent up to now is      753.9 secs

     total energy              =   -3618.75126660 Ry
     Harris-Foulkes estimate   =   -3618.75031128 Ry
     estimated scf accuracy    <       0.00492469 Ry

     total magnetization       =    19.67 Bohr mag/cell
     absolute magnetization    =    21.89 Bohr mag/cell

     iteration # 23     ecut=    36.75 Ry     beta=0.10
     Davidson diagonalization with overlap
     ethr =  2.35E-06,  avg # of iterations =  2.6

     negative rho (up, down):  3.758E-03 3.315E-03
 
     Adding external electric field

     Computed dipole along edir(3) : 
        Dipole               -0.1852 Ry au,         -0.4708 Debye
        Dipole field         -0.0007 Ry au
 
        Potential amp.        0.0539 Ry
        Total length         40.9758 bohr
 
 
     Adding external electric field

     Computed dipole along edir(3) : 
        Dipole               -0.1852 Ry au,         -0.4708 Debye
        Dipole field         -0.0007 Ry au
 
        Potential amp.        0.0539 Ry
        Total length         40.9758 bohr
 
 
     Magnetic moment per site:
     atom:    1    charge:   14.4911    magn:    1.6499    constr:    0.0000
     atom:    2    charge:   14.4911    magn:    1.6543    constr:    0.0000
     atom:    3    charge:   14.4905    magn:    1.6631    constr:    0.0000
     atom:    4    charge:   14.4913    magn:    1.6546    constr:    0.0000
     atom:    5    charge:   14.5083    magn:    1.6683    constr:    0.0000
     atom:    6    charge:   14.5013    magn:    1.7334    constr:    0.0000
     atom:    7    charge:   14.5090    magn:    1.6682    constr:    0.0000
     atom:    8    charge:   14.5094    magn:    1.6675    constr:    0.0000
     atom:    9    charge:   14.5578    magn:    1.2420    constr:    0.0000
     atom:   10    charge:   14.4984    magn:    1.7724    constr:    0.0000
     atom:   11    charge:   14.4982    magn:    1.7726    constr:    0.0000
     atom:   12    charge:   14.4983    magn:    1.7723    constr:    0.0000
     atom:   13    charge:    2.9225    magn:    0.0769    constr:    0.0000

     total cpu time spent up to now is      782.9 secs

     total energy              =   -3618.75199844 Ry
     Harris-Foulkes estimate   =   -3618.75158094 Ry
     estimated scf accuracy    <       0.00190474 Ry

     total magnetization       =    19.70 Bohr mag/cell
     absolute magnetization    =    22.02 Bohr mag/cell

     iteration # 24     ecut=    36.75 Ry     beta=0.10
     Davidson diagonalization with overlap
     ethr =  9.07E-07,  avg # of iterations =  3.6

     negative rho (up, down):  3.429E-03 2.995E-03
 
     Adding external electric field

     Computed dipole along edir(3) : 
        Dipole               -0.1749 Ry au,         -0.4445 Debye
        Dipole field         -0.0006 Ry au
 
        Potential amp.        0.0509 Ry
        Total length         40.9758 bohr
 
 
     Adding external electric field

     Computed dipole along edir(3) : 
        Dipole               -0.1749 Ry au,         -0.4445 Debye
        Dipole field         -0.0006 Ry au
 
        Potential amp.        0.0509 Ry
        Total length         40.9758 bohr
 
 
     Magnetic moment per site:
     atom:    1    charge:   14.4909    magn:    1.6648    constr:    0.0000
     atom:    2    charge:   14.4908    magn:    1.6687    constr:    0.0000
     atom:    3    charge:   14.4903    magn:    1.6759    constr:    0.0000
     atom:    4    charge:   14.4901    magn:    1.6709    constr:    0.0000
     atom:    5    charge:   14.5089    magn:    1.6709    constr:    0.0000
     atom:    6    charge:   14.5017    magn:    1.7369    constr:    0.0000
     atom:    7    charge:   14.5090    magn:    1.6712    constr:    0.0000
     atom:    8    charge:   14.5090    magn:    1.6705    constr:    0.0000
     atom:    9    charge:   14.5581    magn:    1.2415    constr:    0.0000
     atom:   10    charge:   14.4981    magn:    1.7787    constr:    0.0000
     atom:   11    charge:   14.4984    magn:    1.7784    constr:    0.0000
     atom:   12    charge:   14.4983    magn:    1.7783    constr:    0.0000
     atom:   13    charge:    2.9231    magn:    0.0785    constr:    0.0000

     total cpu time spent up to now is      814.5 secs

     total energy              =   -3618.75237845 Ry
     Harris-Foulkes estimate   =   -3618.75225804 Ry
     estimated scf accuracy    <       0.00180721 Ry

     total magnetization       =    19.71 Bohr mag/cell
     absolute magnetization    =    22.14 Bohr mag/cell

     iteration # 25     ecut=    36.75 Ry     beta=0.10
     Davidson diagonalization with overlap
     ethr =  8.61E-07,  avg # of iterations =  1.0

     negative rho (up, down):  3.110E-03 2.689E-03
 
     Adding external electric field

     Computed dipole along edir(3) : 
        Dipole               -0.1690 Ry au,         -0.4294 Debye
        Dipole field         -0.0006 Ry au
 
        Potential amp.        0.0492 Ry
        Total length         40.9758 bohr
 
 
     Adding external electric field

     Computed dipole along edir(3) : 
        Dipole               -0.1690 Ry au,         -0.4294 Debye
        Dipole field         -0.0006 Ry au
 
        Potential amp.        0.0492 Ry
        Total length         40.9758 bohr
 
 
     Magnetic moment per site:
     atom:    1    charge:   14.4906    magn:    1.6740    constr:    0.0000
     atom:    2    charge:   14.4905    magn:    1.6776    constr:    0.0000
     atom:    3    charge:   14.4901    magn:    1.6837    constr:    0.0000
     atom:    4    charge:   14.4897    magn:    1.6804    constr:    0.0000
     atom:    5    charge:   14.5090    magn:    1.6725    constr:    0.0000
     atom:    6    charge:   14.5018    magn:    1.7389    constr:    0.0000
     atom:    7    charge:   14.5089    magn:    1.6726    constr:    0.0000
     atom:    8    charge:   14.5089    magn:    1.6718    constr:    0.0000
     atom:    9    charge:   14.5583    magn:    1.2408    constr:    0.0000
     atom:   10    charge:   14.4983    magn:    1.7816    constr:    0.0000
     atom:   11    charge:   14.4979    magn:    1.7820    constr:    0.0000
     atom:   12    charge:   14.4980    magn:    1.7817    constr:    0.0000
     atom:   13    charge:    2.9234    magn:    0.0794    constr:    0.0000

     total cpu time spent up to now is      840.6 secs

     total energy              =   -3618.75249647 Ry
     Harris-Foulkes estimate   =   -3618.75243617 Ry
     estimated scf accuracy    <       0.00127571 Ry

     total magnetization       =    19.72 Bohr mag/cell
     absolute magnetization    =    22.17 Bohr mag/cell

     iteration # 26     ecut=    36.75 Ry     beta=0.10
     Davidson diagonalization with overlap
     ethr =  6.07E-07,  avg # of iterations =  1.9

     negative rho (up, down):  2.134E-03 1.781E-03
 
     Adding external electric field

     Computed dipole along edir(3) : 
        Dipole               -0.1532 Ry au,         -0.3894 Debye
        Dipole field         -0.0005 Ry au
 
        Potential amp.        0.0446 Ry
        Total length         40.9758 bohr
 
 
     Adding external electric field

     Computed dipole along edir(3) : 
        Dipole               -0.1532 Ry au,         -0.3894 Debye
        Dipole field         -0.0005 Ry au
 
        Potential amp.        0.0446 Ry
        Total length         40.9758 bohr
 
 
     Magnetic moment per site:
     atom:    1    charge:   14.4906    magn:    1.6874    constr:    0.0000
     atom:    2    charge:   14.4904    magn:    1.6902    constr:    0.0000
     atom:    3    charge:   14.4901    magn:    1.6949    constr:    0.0000
     atom:    4    charge:   14.4895    magn:    1.6936    constr:    0.0000
     atom:    5    charge:   14.5092    magn:    1.6741    constr:    0.0000
     atom:    6    charge:   14.5017    magn:    1.7412    constr:    0.0000
     atom:    7    charge:   14.5091    magn:    1.6739    constr:    0.0000
     atom:    8    charge:   14.5090    magn:    1.6731    constr:    0.0000
     atom:    9    charge:   14.5581    magn:    1.2397    constr:    0.0000
     atom:   10    charge:   14.4978    magn:    1.7858    constr:    0.0000
     atom:   11    charge:   14.4979    magn:    1.7858    constr:    0.0000
     atom:   12    charge:   14.4979    magn:    1.7856    constr:    0.0000
     atom:   13    charge:    2.9238    magn:    0.0805    constr:    0.0000

     total cpu time spent up to now is      868.8 secs

     total energy              =   -3618.75259897 Ry
     Harris-Foulkes estimate   =   -3618.75254763 Ry
     estimated scf accuracy    <       0.00053252 Ry

     total magnetization       =    19.72 Bohr mag/cell
     absolute magnetization    =    22.20 Bohr mag/cell

     iteration # 27     ecut=    36.75 Ry     beta=0.10
     Davidson diagonalization with overlap
     ethr =  2.54E-07,  avg # of iterations =  3.2

     negative rho (up, down):  1.617E-03 1.296E-03
 
     Adding external electric field

     Computed dipole along edir(3) : 
        Dipole               -0.1453 Ry au,         -0.3694 Debye
        Dipole field         -0.0005 Ry au
 
        Potential amp.        0.0423 Ry
        Total length         40.9758 bohr
 
 
     Adding external electric field

     Computed dipole along edir(3) : 
        Dipole               -0.1453 Ry au,         -0.3694 Debye
        Dipole field         -0.0005 Ry au
 
        Potential amp.        0.0423 Ry
        Total length         40.9758 bohr
 
 
     Magnetic moment per site:
     atom:    1    charge:   14.4906    magn:    1.6993    constr:    0.0000
     atom:    2    charge:   14.4905    magn:    1.7016    constr:    0.0000
     atom:    3    charge:   14.4903    magn:    1.7049    constr:    0.0000
     atom:    4    charge:   14.4895    magn:    1.7059    constr:    0.0000
     atom:    5    charge:   14.5090    magn:    1.6756    constr:    0.0000
     atom:    6    charge:   14.5017    magn:    1.7433    constr:    0.0000
     atom:    7    charge:   14.5090    magn:    1.6752    constr:    0.0000
     atom:    8    charge:   14.5090    magn:    1.6743    constr:    0.0000
     atom:    9    charge:   14.5582    magn:    1.2385    constr:    0.0000
     atom:   10    charge:   14.4977    magn:    1.7896    constr:    0.0000
     atom:   11    charge:   14.4976    magn:    1.7898    constr:    0.0000
     atom:   12    charge:   14.4976    magn:    1.7896    constr:    0.0000
     atom:   13    charge:    2.9240    magn:    0.0816    constr:    0.0000

     total cpu time spent up to now is      899.6 secs

     total energy              =   -3618.75271230 Ry
     Harris-Foulkes estimate   =   -3618.75265298 Ry
     estimated scf accuracy    <       0.00040349 Ry

     total magnetization       =    19.73 Bohr mag/cell
     absolute magnetization    =    22.25 Bohr mag/cell

     iteration # 28     ecut=    36.75 Ry     beta=0.10
     Davidson diagonalization with overlap
     ethr =  1.92E-07,  avg # of iterations =  2.2

     negative rho (up, down):  1.408E-03 1.096E-03
 
     Adding external electric field

     Computed dipole along edir(3) : 
        Dipole               -0.1459 Ry au,         -0.3709 Debye
        Dipole field         -0.0005 Ry au
 
        Potential amp.        0.0425 Ry
        Total length         40.9758 bohr
 
 
     Adding external electric field

     Computed dipole along edir(3) : 
        Dipole               -0.1459 Ry au,         -0.3709 Debye
        Dipole field         -0.0005 Ry au
 
        Potential amp.        0.0425 Ry
        Total length         40.9758 bohr
 
 
     Magnetic moment per site:
     atom:    1    charge:   14.4905    magn:    1.7061    constr:    0.0000
     atom:    2    charge:   14.4905    magn:    1.7079    constr:    0.0000
     atom:    3    charge:   14.4901    magn:    1.7108    constr:    0.0000
     atom:    4    charge:   14.4897    magn:    1.7129    constr:    0.0000
     atom:    5    charge:   14.5091    magn:    1.6757    constr:    0.0000
     atom:    6    charge:   14.5018    magn:    1.7439    constr:    0.0000
     atom:    7    charge:   14.5091    magn:    1.6754    constr:    0.0000
     atom:    8    charge:   14.5091    magn:    1.6746    constr:    0.0000
     atom:    9    charge:   14.5583    magn:    1.2377    constr:    0.0000
     atom:   10    charge:   14.4972    magn:    1.7920    constr:    0.0000
     atom:   11    charge:   14.4972    magn:    1.7921    constr:    0.0000
     atom:   12    charge:   14.4972    magn:    1.7920    constr:    0.0000
     atom:   13    charge:    2.9241    magn:    0.0821    constr:    0.0000

     total cpu time spent up to now is      927.5 secs

     total energy              =   -3618.75275384 Ry
     Harris-Foulkes estimate   =   -3618.75273325 Ry
     estimated scf accuracy    <       0.00032684 Ry

     total magnetization       =    19.74 Bohr mag/cell
     absolute magnetization    =    22.28 Bohr mag/cell

     iteration # 29     ecut=    36.75 Ry     beta=0.10
     Davidson diagonalization with overlap
     ethr =  1.56E-07,  avg # of iterations =  2.5

     negative rho (up, down):  1.372E-03 1.057E-03
 
     Adding external electric field

     Computed dipole along edir(3) : 
        Dipole               -0.1471 Ry au,         -0.3739 Debye
        Dipole field         -0.0005 Ry au
 
        Potential amp.        0.0428 Ry
        Total length         40.9758 bohr
 
 
     Adding external electric field

     Computed dipole along edir(3) : 
        Dipole               -0.1471 Ry au,         -0.3739 Debye
        Dipole field         -0.0005 Ry au
 
        Potential amp.        0.0428 Ry
        Total length         40.9758 bohr
 
 
     Magnetic moment per site:
     atom:    1    charge:   14.4906    magn:    1.7136    constr:    0.0000
     atom:    2    charge:   14.4905    magn:    1.7151    constr:    0.0000
     atom:    3    charge:   14.4900    magn:    1.7175    constr:    0.0000
     atom:    4    charge:   14.4892    magn:    1.7212    constr:    0.0000
     atom:    5    charge:   14.5089    magn:    1.6764    constr:    0.0000
     atom:    6    charge:   14.5016    magn:    1.7451    constr:    0.0000
     atom:    7    charge:   14.5091    magn:    1.6759    constr:    0.0000
     atom:    8    charge:   14.5092    magn:    1.6751    constr:    0.0000
     atom:    9    charge:   14.5581    magn:    1.2369    constr:    0.0000
     atom:   10    charge:   14.4971    magn:    1.7947    constr:    0.0000
     atom:   11    charge:   14.4972    magn:    1.7946    constr:    0.0000
     atom:   12    charge:   14.4972    magn:    1.7945    constr:    0.0000
     atom:   13    charge:    2.9242    magn:    0.0829    constr:    0.0000

     total cpu time spent up to now is      956.5 secs

     total energy              =   -3618.75278983 Ry
     Harris-Foulkes estimate   =   -3618.75277065 Ry
     estimated scf accuracy    <       0.00027514 Ry

     total magnetization       =    19.74 Bohr mag/cell
     absolute magnetization    =    22.30 Bohr mag/cell

     iteration # 30     ecut=    36.75 Ry     beta=0.10
     Davidson diagonalization with overlap
     ethr =  1.31E-07,  avg # of iterations =  2.6

     negative rho (up, down):  8.057E-04 5.220E-04
 
     Adding external electric field

     Computed dipole along edir(3) : 
        Dipole               -0.1395 Ry au,         -0.3546 Debye
        Dipole field         -0.0005 Ry au
 
        Potential amp.        0.0406 Ry
        Total length         40.9758 bohr
 
 
     Adding external electric field

     Computed dipole along edir(3) : 
        Dipole               -0.1395 Ry au,         -0.3546 Debye
        Dipole field         -0.0005 Ry au
 
        Potential amp.        0.0406 Ry
        Total length         40.9758 bohr
 
 
     Magnetic moment per site:
     atom:    1    charge:   14.4906    magn:    1.7147    constr:    0.0000
     atom:    2    charge:   14.4905    magn:    1.7159    constr:    0.0000
     atom:    3    charge:   14.4905    magn:    1.7178    constr:    0.0000
     atom:    4    charge:   14.4896    magn:    1.7215    constr:    0.0000
     atom:    5    charge:   14.5092    magn:    1.6753    constr:    0.0000
     atom:    6    charge:   14.5018    magn:    1.7443    constr:    0.0000
     atom:    7    charge:   14.5092    magn:    1.6750    constr:    0.0000
     atom:    8    charge:   14.5092    magn:    1.6743    constr:    0.0000
     atom:    9    charge:   14.5580    magn:    1.2364    constr:    0.0000
     atom:   10    charge:   14.4971    magn:    1.7938    constr:    0.0000
     atom:   11    charge:   14.4970    magn:    1.7940    constr:    0.0000
     atom:   12    charge:   14.4970    magn:    1.7939    constr:    0.0000
     atom:   13    charge:    2.9245    magn:    0.0826    constr:    0.0000

     total cpu time spent up to now is      984.8 secs

     total energy              =   -3618.75280319 Ry
     Harris-Foulkes estimate   =   -3618.75282072 Ry
     estimated scf accuracy    <       0.00045568 Ry

     total magnetization       =    19.74 Bohr mag/cell
     absolute magnetization    =    22.32 Bohr mag/cell

     iteration # 31     ecut=    36.75 Ry     beta=0.10
     Davidson diagonalization with overlap
     ethr =  1.31E-07,  avg # of iterations =  1.1

     negative rho (up, down):  5.902E-04 2.889E-04
 
     Adding external electric field

     Computed dipole along edir(3) : 
        Dipole               -0.1698 Ry au,         -0.4315 Debye
        Dipole field         -0.0006 Ry au
 
        Potential amp.        0.0494 Ry
        Total length         40.9758 bohr
 
 
     Adding external electric field

     Computed dipole along edir(3) : 
        Dipole               -0.1698 Ry au,         -0.4315 Debye
        Dipole field         -0.0006 Ry au
 
        Potential amp.        0.0494 Ry
        Total length         40.9758 bohr
 
 
     Magnetic moment per site:
     atom:    1    charge:   14.4900    magn:    1.7236    constr:    0.0000
     atom:    2    charge:   14.4906    magn:    1.7237    constr:    0.0000
     atom:    3    charge:   14.4879    magn:    1.7272    constr:    0.0000
     atom:    4    charge:   14.4874    magn:    1.7324    constr:    0.0000
     atom:    5    charge:   14.5101    magn:    1.6710    constr:    0.0000
     atom:    6    charge:   14.5041    magn:    1.7395    constr:    0.0000
     atom:    7    charge:   14.5093    magn:    1.6714    constr:    0.0000
     atom:    8    charge:   14.5093    magn:    1.6709    constr:    0.0000
     atom:    9    charge:   14.5607    magn:    1.2304    constr:    0.0000
     atom:   10    charge:   14.4966    magn:    1.7952    constr:    0.0000
     atom:   11    charge:   14.4980    magn:    1.7938    constr:    0.0000
     atom:   12    charge:   14.4978    magn:    1.7940    constr:    0.0000
     atom:   13    charge:    2.9243    magn:    0.0825    constr:    0.0000

     total cpu time spent up to now is     1011.3 secs

     End of self-consistent calculation

 ------ SPIN UP ------------


          k = 0.0000 0.0000 0.0000 ( 13257 PWs)   bands (ev):

   -95.5919 -95.5359 -95.5147 -95.5139 -95.4557 -95.4324 -95.4314 -95.3744
   -95.3455 -95.3431 -95.3418 -95.2643 -58.9401 -58.9396 -58.9100 -58.8876
   -58.8530 -58.8196 -58.8191 -58.7776 -58.7582 -58.7580 -58.7403 -58.7402
   -58.7397 -58.7227 -58.7070 -58.7061 -58.6957 -58.6829 -58.6825 -58.6748
   -58.6746 -58.6713 -58.6557 -58.6532 -58.6524 -58.6403 -58.6362 -58.6090
   -58.6084 -58.5258 -58.5218 -58.5213 -58.4701 -58.4700 -58.4122 -58.4121
   -11.5826  -7.1249  -5.2046  -4.2677  -4.0826  -4.0825  -4.0143  -3.9155
    -3.8352  -3.8349  -3.5272  -3.5272  -3.5004  -3.3489  -3.3193  -3.3191
    -2.9717  -2.9714  -2.7322  -2.6102  -2.2215  -2.2213  -2.1378  -2.0031
    -1.9251  -1.9251  -1.8678  -1.7969  -1.7969  -1.7273  -1.7236  -1.7235
    -1.5680  -1.5679  -1.5452  -1.5451  -1.3777  -1.3775  -1.0154  -0.9683
    -0.9449  -0.9447  -0.8752  -0.8750  -0.7536  -0.6364  -0.6363  -0.3881
    -0.3879  -0.3221  -0.2871  -0.2868  -0.2387  -0.2387  -0.2211  -0.0476
    -0.0473  -0.0319   0.0363   0.0366   0.0904   0.1800   0.1802   0.2121
     0.2228   0.2230   0.8236

          k = 0.0000 0.1925 0.0000 ( 13286 PWs)   bands (ev):

   -95.5912 -95.5351 -95.5162 -95.5140 -95.4543 -95.4328 -95.4324 -95.3724
   -95.3466 -95.3438 -95.3421 -95.2644 -58.9329 -58.9273 -58.8999 -58.8836
   -58.8491 -58.8188 -58.8155 -58.7725 -58.7690 -58.7605 -58.7448 -58.7384
   -58.7335 -58.7262 -58.7051 -58.7044 -58.6999 -58.6856 -58.6830 -58.6697
   -58.6678 -58.6637 -58.6553 -58.6537 -58.6498 -58.6435 -58.6373 -58.6181
   -58.6108 -58.5322 -58.5298 -58.5192 -58.4842 -58.4735 -58.4184 -58.4137
   -11.5663  -6.8990  -5.0106  -4.1195  -4.0818  -3.9841  -3.9381  -3.8568
    -3.7786  -3.7384  -3.4643  -3.4426  -3.4404  -3.2810  -3.2179  -3.1970
    -2.9343  -2.9307  -2.7104  -2.6001  -2.2367  -2.1958  -2.1084  -2.0562
    -2.0020  -1.9844  -1.8817  -1.8367  -1.8193  -1.7442  -1.7394  -1.6670
    -1.6561  -1.6445  -1.5996  -1.5061  -1.4718  -1.4160  -1.2166  -1.0463
[...]
     0.3964   0.4444   0.5118   0.5695   0.7221   0.8950   0.9169   0.9487
     1.0502   1.1356   1.1917   1.3773   1.4109   1.4221   1.5417   1.5621
     1.6421   1.6658   1.7227   1.7564   1.8587   1.8811   1.9367   1.9586
     1.9836   2.0590   2.2604

          k = 0.3333-0.1925 0.0000 ( 13322 PWs)   bands (ev):

   -93.5383 -93.1953 -93.1787 -93.1723 -93.1463 -92.9772 -92.9647 -92.9602
   -92.9519 -92.9514 -92.9499 -92.9445 -57.1096 -56.8008 -56.7913 -56.6438
   -56.6297 -56.6072 -56.5542 -56.5306 -56.5225 -56.5186 -56.5152 -56.5146
   -56.4791 -56.4685 -56.4301 -56.4189 -56.4074 -56.3912 -56.3836 -56.3504
   -56.3300 -56.3018 -56.3004 -56.2985 -56.2874 -56.2872 -56.2814 -56.2792
   -56.2739 -56.2686 -56.2669 -56.2655 -56.2586 -56.2554 -56.2334 -56.2265
   -11.3846  -6.3543  -4.4317  -4.1987  -3.1350  -2.9407  -2.8722  -2.8189
    -2.5560  -2.4757  -2.3346  -2.2287  -2.1657  -1.9180  -1.8166  -1.7455
    -1.5566  -1.5435  -1.5069  -1.1840  -1.1008  -1.0521  -0.8500  -0.6158
    -0.5821  -0.5772  -0.4216  -0.3669  -0.2316  -0.1592  -0.1364  -0.1253
    -0.0333   0.0363   0.0781   0.0948   0.1776   0.2108   0.2896   0.2942
     0.3139   0.3630   0.3750   0.6511   0.6514   0.8545   0.8898   0.9565
     0.9732   1.0621   1.0820   1.3080   1.3573   1.3962   1.4377   1.4683
     1.4934   1.6288   1.6320   1.6670   1.7245   1.8756   1.8777   1.9129
     1.9613   2.0357   2.0630

          k = 0.3333-0.0000 0.0000 ( 13291 PWs)   bands (ev):

   -93.5383 -93.1970 -93.1768 -93.1727 -93.1460 -92.9792 -92.9658 -92.9561
   -92.9558 -92.9497 -92.9488 -92.9445 -57.1098 -56.8013 -56.7949 -56.6505
   -56.6302 -56.6258 -56.5570 -56.5285 -56.5246 -56.5217 -56.5179 -56.4861
   -56.4829 -56.4629 -56.4285 -56.4240 -56.4086 -56.4034 -56.3904 -56.3547
   -56.3331 -56.3065 -56.3017 -56.2870 -56.2841 -56.2832 -56.2720 -56.2709
   -56.2703 -56.2673 -56.2670 -56.2656 -56.2579 -56.2517 -56.2347 -56.2240
   -11.3933  -6.5700  -4.6064  -3.5973  -3.5275  -3.0878  -2.8925  -2.7866
    -2.5874  -2.5078  -2.3470  -2.2402  -2.0961  -1.9444  -1.8887  -1.8435
    -1.6767  -1.5925  -1.5800  -1.2033  -1.1009  -1.0569  -0.7425  -0.5463
    -0.5065  -0.4237  -0.3907  -0.3489  -0.2514  -0.1249  -0.1044  -0.0843
     0.0107   0.0457   0.0729   0.1411   0.1937   0.2509   0.2719   0.3731
     0.3965   0.4443   0.5118   0.5695   0.7222   0.8950   0.9169   0.9486
     1.0502   1.1356   1.1917   1.3773   1.4109   1.4221   1.5417   1.5621
     1.6421   1.6658   1.7227   1.7564   1.8587   1.8811   1.9367   1.9587
     1.9836   2.0590   2.2604

          k = 0.3333 0.1925 0.0000 ( 13322 PWs)   bands (ev):

   -93.5383 -93.1953 -93.1787 -93.1723 -93.1463 -92.9772 -92.9647 -92.9602
   -92.9519 -92.9514 -92.9499 -92.9445 -57.1096 -56.8008 -56.7913 -56.6438
   -56.6297 -56.6072 -56.5542 -56.5306 -56.5225 -56.5186 -56.5152 -56.5146
   -56.4791 -56.4685 -56.4301 -56.4189 -56.4074 -56.3912 -56.3836 -56.3504
   -56.3300 -56.3018 -56.3004 -56.2985 -56.2873 -56.2871 -56.2814 -56.2791
   -56.2739 -56.2686 -56.2669 -56.2655 -56.2586 -56.2554 -56.2334 -56.2265
   -11.3846  -6.3543  -4.4317  -4.1987  -3.1350  -2.9407  -2.8722  -2.8189
    -2.5560  -2.4757  -2.3346  -2.2287  -2.1657  -1.9180  -1.8166  -1.7455
    -1.5566  -1.5435  -1.5069  -1.1840  -1.1008  -1.0521  -0.8500  -0.6158
    -0.5821  -0.5772  -0.4216  -0.3669  -0.2316  -0.1592  -0.1364  -0.1253
    -0.0333   0.0363   0.0781   0.0948   0.1776   0.2108   0.2896   0.2942
     0.3139   0.3630   0.3751   0.6511   0.6514   0.8545   0.8898   0.9565
     0.9732   1.0621   1.0820   1.3080   1.3573   1.3962   1.4377   1.4683
     1.4934   1.6288   1.6320   1.6671   1.7245   1.8756   1.8776   1.9129
     1.9613   2.0357   2.0630

          k = 0.3333-0.7698 0.0000 ( 13313 PWs)   bands (ev):

   -93.5382 -93.1907 -93.1818 -93.1734 -93.1467 -92.9718 -92.9633 -92.9617
   -92.9571 -92.9530 -92.9485 -92.9445 -57.1092 -56.7962 -56.7877 -56.6271
   -56.6044 -56.5813 -56.5551 -56.5464 -56.5337 -56.5239 -56.5203 -56.5125
   -56.4944 -56.4683 -56.4418 -56.4030 -56.3892 -56.3763 -56.3618 -56.3484
   -56.3365 -56.3183 -56.3103 -56.3072 -56.2940 -56.2888 -56.2854 -56.2825
   -56.2796 -56.2695 -56.2672 -56.2657 -56.2625 -56.2550 -56.2420 -56.2384
   -11.3675  -5.7286  -4.6256  -3.9446  -3.6875  -3.2439  -2.7720  -2.6191
    -2.4004  -2.3745  -2.1625  -2.1161  -1.9774  -1.7858  -1.6491  -1.5982
    -1.5585  -1.3328  -1.3027  -1.1274  -1.0987  -1.0353  -0.9679  -0.9159
    -0.8304  -0.6452  -0.5483  -0.4951  -0.4455  -0.3812  -0.3366  -0.2906
    -0.2156  -0.1152  -0.0679  -0.0050   0.0303   0.0779   0.2294   0.3057
     0.3333   0.4431   0.4622   0.6151   0.6638   0.8231   0.8540   0.8891
     0.9329   1.0080   1.1094   1.1420   1.2070   1.2353   1.3615   1.4348
     1.5114   1.5580   1.5908   1.6869   1.7252   1.7751   1.8393   1.8869
     1.9338   1.9527   2.0292

          k = 0.3333-0.5774 0.0000 ( 13323 PWs)   bands (ev):

   -93.5382 -93.1859 -93.1852 -93.1748 -93.1467 -92.9647 -92.9646 -92.9641
   -92.9583 -92.9565 -92.9474 -92.9444 -57.1090 -56.7904 -56.7896 -56.5988
   -56.5963 -56.5658 -56.5644 -56.5608 -56.5405 -56.5349 -56.5276 -56.5092
   -56.4856 -56.4617 -56.4614 -56.3791 -56.3737 -56.3663 -56.3521 -56.3497
   -56.3457 -56.3443 -56.3390 -56.2926 -56.2898 -56.2894 -56.2876 -56.2836
   -56.2708 -56.2680 -56.2660 -56.2648 -56.2588 -56.2587 -56.2565 -56.2528
   -11.3590  -4.7893  -4.7692  -4.7624  -3.3051  -3.2888  -3.2666  -2.4360
    -2.4041  -2.3830  -1.8526  -1.8389  -1.8216  -1.7350  -1.6188  -1.6094
    -1.3676  -1.3194  -1.2338  -1.2282  -1.2079  -1.0521  -1.0289  -0.9939
    -0.7456  -0.7320  -0.7141  -0.6756  -0.5757  -0.5553  -0.4955  -0.4293
    -0.2986  -0.2447  -0.2051  -0.0625   0.0841   0.1122   0.3205   0.3212
     0.3322   0.4005   0.4619   0.4627   0.7345   0.7751   0.8176   0.9808
     1.0261   1.0681   1.0775   1.1532   1.3277   1.3462   1.3680   1.5144
     1.5791   1.6256   1.6670   1.6737   1.7321   1.7322   1.7556   1.7760
     1.7873   1.8011   1.8301

          k = 0.3333-0.3849 0.0000 ( 13313 PWs)   bands (ev):

   -93.5382 -93.1907 -93.1818 -93.1734 -93.1467 -92.9718 -92.9633 -92.9617
   -92.9571 -92.9530 -92.9485 -92.9445 -57.1092 -56.7962 -56.7877 -56.6271
   -56.6044 -56.5813 -56.5551 -56.5464 -56.5337 -56.5239 -56.5203 -56.5125
   -56.4944 -56.4683 -56.4418 -56.4030 -56.3891 -56.3763 -56.3618 -56.3484
   -56.3365 -56.3183 -56.3103 -56.3072 -56.2940 -56.2889 -56.2854 -56.2825
   -56.2796 -56.2695 -56.2673 -56.2657 -56.2625 -56.2550 -56.2420 -56.2384
   -11.3675  -5.7286  -4.6256  -3.9446  -3.6875  -3.2439  -2.7720  -2.6190
    -2.4005  -2.3745  -2.1625  -2.1161  -1.9774  -1.7858  -1.6491  -1.5982
    -1.5585  -1.3328  -1.3027  -1.1275  -1.0987  -1.0353  -0.9679  -0.9160
    -0.8304  -0.6452  -0.5482  -0.4951  -0.4455  -0.3812  -0.3366  -0.2906
    -0.2156  -0.1152  -0.0679  -0.0050   0.0303   0.0779   0.2294   0.3057
     0.3333   0.4431   0.4622   0.6151   0.6638   0.8231   0.8540   0.8891
     0.9329   1.0080   1.1094   1.1420   1.2070   1.2353   1.3615   1.4348
     1.5114   1.5579   1.5908   1.6869   1.7252   1.7751   1.8393   1.8869
     1.9338   1.9527   2.0292

          k =-0.5000 0.2887 0.0000 ( 13378 PWs)   bands (ev):

   -93.5382 -93.1899 -93.1836 -93.1723 -93.1468 -92.9689 -92.9685 -92.9617
   -92.9530 -92.9519 -92.9514 -92.9445 -57.1092 -56.7983 -56.7855 -56.6296
   -56.6132 -56.5554 -56.5491 -56.5429 -56.5374 -56.5322 -56.5202 -56.5172
   -56.5139 -56.4611 -56.4376 -56.4072 -56.3953 -56.3804 -56.3338 -56.3310
   -56.3262 -56.3177 -56.3162 -56.3142 -56.3105 -56.3054 -56.2934 -56.2865
   -56.2800 -56.2687 -56.2678 -56.2659 -56.2635 -56.2415 -56.2407 -56.2354
   -11.3674  -5.3514  -5.3406  -3.7493  -3.6319  -2.8654  -2.7357  -2.6211
    -2.4366  -2.3477  -2.2428  -2.2188  -2.1482  -1.8605  -1.6054  -1.5294
    -1.5281  -1.4248  -1.2648  -1.1512  -0.9762  -0.9570  -0.9198  -0.9026
    -0.8165  -0.8058  -0.4932  -0.4550  -0.4212  -0.3584  -0.3583  -0.3382
    -0.2386  -0.0901  -0.0167   0.0412   0.0670   0.0875   0.1260   0.2591
     0.3435   0.3918   0.5084   0.6867   0.7109   0.7754   0.8250   0.9337
     0.9756   0.9983   1.0444   1.0961   1.1262   1.1555   1.1809   1.2307
     1.3924   1.4628   1.5047   1.6270   1.6697   1.8666   1.8804   1.9269
     1.9390   2.0346   2.0679

          k =-0.5000 0.4811 0.0000 ( 13313 PWs)   bands (ev):

   -93.5382 -93.1907 -93.1818 -93.1734 -93.1467 -92.9718 -92.9633 -92.9617
   -92.9571 -92.9530 -92.9485 -92.9445 -57.1092 -56.7962 -56.7877 -56.6271
   -56.6044 -56.5813 -56.5552 -56.5464 -56.5338 -56.5238 -56.5203 -56.5125
   -56.4944 -56.4683 -56.4418 -56.4030 -56.3892 -56.3763 -56.3618 -56.3484
   -56.3365 -56.3183 -56.3103 -56.3072 -56.2940 -56.2888 -56.2854 -56.2825
   -56.2796 -56.2695 -56.2673 -56.2657 -56.2625 -56.2550 -56.2420 -56.2384
   -11.3675  -5.7286  -4.6256  -3.9446  -3.6875  -3.2439  -2.7720  -2.6190
    -2.4004  -2.3746  -2.1626  -2.1160  -1.9774  -1.7858  -1.6491  -1.5982
    -1.5585  -1.3328  -1.3027  -1.1274  -1.0988  -1.0353  -0.9679  -0.9160
    -0.8305  -0.6452  -0.5483  -0.4951  -0.4455  -0.3812  -0.3365  -0.2906
    -0.2156  -0.1152  -0.0679  -0.0050   0.0302   0.0779   0.2294   0.3057
     0.3334   0.4431   0.4622   0.6151   0.6637   0.8231   0.8540   0.8891
     0.9329   1.0080   1.1094   1.1420   1.2070   1.2353   1.3615   1.4348
     1.5114   1.5579   1.5907   1.6869   1.7252   1.7751   1.8393   1.8869
     1.9338   1.9527   2.0292

          k =-0.5000 0.6736 0.0000 ( 13313 PWs)   bands (ev):

   -93.5382 -93.1907 -93.1818 -93.1734 -93.1467 -92.9718 -92.9633 -92.9617
   -92.9571 -92.9530 -92.9485 -92.9445 -57.1092 -56.7962 -56.7877 -56.6271
   -56.6044 -56.5813 -56.5552 -56.5464 -56.5338 -56.5238 -56.5203 -56.5125
   -56.4944 -56.4683 -56.4418 -56.4030 -56.3892 -56.3763 -56.3618 -56.3484
   -56.3365 -56.3183 -56.3103 -56.3072 -56.2940 -56.2888 -56.2854 -56.2825
   -56.2796 -56.2695 -56.2673 -56.2657 -56.2625 -56.2550 -56.2420 -56.2384
   -11.3675  -5.7286  -4.6256  -3.9446  -3.6875  -3.2439  -2.7720  -2.6191
    -2.4004  -2.3746  -2.1626  -2.1160  -1.9774  -1.7858  -1.6491  -1.5982
    -1.5585  -1.3328  -1.3027  -1.1274  -1.0988  -1.0353  -0.9679  -0.9160
    -0.8305  -0.6452  -0.5483  -0.4951  -0.4455  -0.3812  -0.3366  -0.2906
    -0.2156  -0.1152  -0.0679  -0.0050   0.0303   0.0779   0.2294   0.3057
     0.3334   0.4431   0.4622   0.6151   0.6637   0.8231   0.8540   0.8891
     0.9329   1.0080   1.1094   1.1420   1.2070   1.2353   1.3615   1.4348
     1.5114   1.5580   1.5907   1.6869   1.7252   1.7750   1.8393   1.8869
     1.9338   1.9527   2.0292

          k =-0.5000-0.2887 0.0000 ( 13378 PWs)   bands (ev):

   -93.5382 -93.1899 -93.1836 -93.1723 -93.1468 -92.9689 -92.9685 -92.9618
   -92.9529 -92.9519 -92.9514 -92.9445 -57.1092 -56.7983 -56.7855 -56.6296
   -56.6132 -56.5554 -56.5491 -56.5429 -56.5374 -56.5322 -56.5202 -56.5172
   -56.5139 -56.4611 -56.4376 -56.4073 -56.3954 -56.3804 -56.3338 -56.3310
   -56.3262 -56.3176 -56.3162 -56.3142 -56.3105 -56.3054 -56.2934 -56.2865
   -56.2801 -56.2687 -56.2678 -56.2659 -56.2635 -56.2415 -56.2407 -56.2355
   -11.3674  -5.3515  -5.3406  -3.7493  -3.6318  -2.8654  -2.7357  -2.6211
    -2.4367  -2.3477  -2.2428  -2.2188  -2.1482  -1.8604  -1.6054  -1.5294
    -1.5281  -1.4247  -1.2648  -1.1512  -0.9762  -0.9569  -0.9198  -0.9026
    -0.8165  -0.8058  -0.4932  -0.4551  -0.4212  -0.3584  -0.3583  -0.3381
    -0.2386  -0.0900  -0.0167   0.0412   0.0670   0.0875   0.1260   0.2590
     0.3435   0.3918   0.5084   0.6867   0.7109   0.7754   0.8250   0.9337
     0.9756   0.9983   1.0444   1.0961   1.1262   1.1555   1.1809   1.2307
     1.3924   1.4628   1.5047   1.6270   1.6698   1.8666   1.8804   1.9269
     1.9389   2.0346   2.0679

     the Fermi energy is     0.9362 ev

!    total energy              =   -3618.75291173 Ry
     Harris-Foulkes estimate   =   -3618.75290933 Ry
     estimated scf accuracy    <       0.00000074 Ry

     The total energy is the sum of the following terms:

     one-electron contribution =  -31907.46415621 Ry
     hartree contribution      =   15962.51885564 Ry
     xc contribution           =    -414.04452617 Ry
     ewald contribution        =   12740.31733612 Ry
     electric field correction =       0.00007288 Ry
     smearing contrib. (-TS)   =      -0.08049399 Ry

     total magnetization       =    19.73 Bohr mag/cell
     absolute magnetization    =    22.37 Bohr mag/cell

     convergence has been achieved in   9 iterations

     Forces acting on atoms (Ry/au):


     negative rho (up, down):  5.897E-04 2.880E-04
     atom    1 type  1   force =     0.00009208    0.00007356    0.01052157
     atom    2 type  1   force =    -0.00009354    0.00007516    0.01052201
     atom    3 type  1   force =     0.00000064   -0.00013391    0.01048890
     atom    4 type  1   force =    -0.00000225   -0.00002859    0.00755294
     atom    5 type  1   force =    -0.00001554    0.00872117   -0.01149321
     atom    6 type  1   force =     0.00001380   -0.00003950   -0.00309643
     atom    7 type  1   force =    -0.00758928   -0.00433990   -0.01144940
     atom    8 type  1   force =     0.00758894   -0.00435759   -0.01144092
     atom    9 type  1   force =    -0.00001046    0.00003305    0.00083637
     atom   10 type  1   force =     0.00001112    0.00075504   -0.00060503
     atom   11 type  1   force =     0.00068452   -0.00037213   -0.00060326
     atom   12 type  1   force =    -0.00067901   -0.00038154   -0.00060519
     atom   13 type  2   force =    -0.00000101   -0.00000482   -0.00062834

     Total force =     0.001994     Total SCF correction =     0.003473
     SCF correction compared to forces is large: reduce conv_thr to get better values

     bfgs converged in   5 scf cycles and   4 bfgs steps
     (criteria: energy <  1.0E+12, force <  1.9E-03)

     End of BFGS Geometry Optimization

     Final energy   =   -3618.7529117292 Ry
Begin final coordinates

ATOMIC_POSITIONS (angstrom)
Co       1.253137179   0.723499087  10.000000000    0   0   0
Co       3.759411536   0.723499087  10.000000000    0   0   0
Co       2.506274357   2.893996350  10.000000000    0   0   0
Co       5.012548715   2.893996350  10.000000000    0   0   0
Co       5.012548715   1.446998175  12.046364444    0   0   0
Co       2.506274358   1.446998175  12.046364444    0   0   0
Co       6.265685894   3.617495437  12.046364444    0   0   0
Co       3.759411536   3.617495437  12.046364444    0   0   0
Co       0.000024446   0.000021596  13.955406390
Co       2.506248992  -0.007724730  14.089492217
Co       1.246363676   2.174296816  14.089402755
Co       3.766175187   2.174327594  14.089401038
S        0.000005861  -0.000025029  15.978950499
End final coordinates



     Writing output data file calc.save
 
     init_run     :     13.86s CPU     14.35s WALL (       1 calls)
     electrons    :   2013.30s CPU   2120.27s WALL (       5 calls)
     update_pot   :      9.58s CPU     10.07s WALL (       4 calls)
     forces       :     97.63s CPU    101.95s WALL (       5 calls)

     Called by init_run:
     wfcinit      :      7.44s CPU      7.62s WALL (       1 calls)
     potinit      :      1.51s CPU      1.62s WALL (       1 calls)

     Called by electrons:
     c_bands      :   1168.96s CPU   1214.96s WALL (      69 calls)
     sum_band     :    483.00s CPU    513.11s WALL (      69 calls)
     v_of_rho     :     89.12s CPU     96.18s WALL (      73 calls)
     newd         :    247.30s CPU    249.92s WALL (      73 calls)
     mix_rho      :      4.97s CPU      5.11s WALL (      69 calls)
     vdW_energy   :     12.06s CPU     13.32s WALL (      78 calls)
     vdW_ffts     :     24.83s CPU     26.12s WALL (     156 calls)
     vdW_v        :     11.20s CPU     11.62s WALL (      78 calls)

     Called by c_bands:
     init_us_2    :      5.69s CPU      5.76s WALL (    1440 calls)
     cegterg      :   1097.24s CPU   1125.29s WALL (     690 calls)

     Called by *egterg:
     h_psi        :    631.70s CPU    646.68s WALL (    2837 calls)
     s_psi        :     66.14s CPU     66.27s WALL (    2837 calls)
     g_psi        :      4.06s CPU      4.07s WALL (    2137 calls)
     cdiaghg      :    171.21s CPU    172.54s WALL (    2777 calls)

     Called by h_psi:
     add_vuspsi   :     68.48s CPU     68.68s WALL (    2837 calls)

     General routines
     calbec       :    104.06s CPU    105.34s WALL (    3577 calls)
     fft          :     59.23s CPU     68.02s WALL (    6216 calls)
     ffts         :      0.38s CPU      0.40s WALL (     284 calls)
     fftw         :    397.95s CPU    415.82s WALL (  450968 calls)
     interpolate  :      3.36s CPU      3.43s WALL (     284 calls)
     davcio       :      0.00s CPU      0.06s WALL (      10 calls)
 
     Parallel routines
     fft_scatter  :    224.29s CPU    247.07s WALL (  457468 calls)
 
     PWSCF        : 35m51.46s CPU    37m46.02s WALL

 
   This run was terminated on:  18:26:25  11Jan2019            

=------------------------------------------------------------------------------=
   JOB DONE.
=------------------------------------------------------------------------------=
Job  /afs/slac/g/suncat/bin/suncat-tsmpirun -x LD_LIBRARY_PATH -wdir /tmp/qe_673167ujltjz_4_scratch pw.x -npool 4 -in pw.pwi

TID   HOST_NAME   COMMAND_LINE            STATUS            TERMINATION_TIME
===== ========== ================  =======================  ===================
00000 suncat0030 pw.x -npool 4 -i  Done                     01/11/2019 18:26:25
00001 suncat0030 pw.x -npool 4 -i  Done                     01/11/2019 18:26:25
00002 suncat0030 pw.x -npool 4 -i  Done                     01/11/2019 18:26:25
00003 suncat0030 pw.x -npool 4 -i  Done                     01/11/2019 18:26:25
00004 suncat0030 pw.x -npool 4 -i  Done                     01/11/2019 18:26:25
00005 suncat0030 pw.x -npool 4 -i  Done                     01/11/2019 18:26:25
00006 suncat0030 pw.x -npool 4 -i  Done                     01/11/2019 18:26:25
00007 suncat0030 pw.x -npool 4 -i  Done                     01/11/2019 18:26:25
00008 suncat0010 pw.x -npool 4 -i  Done                     01/11/2019 18:26:25
00009 suncat0010 pw.x -npool 4 -i  Done                     01/11/2019 18:26:25
00010 suncat0010 pw.x -npool 4 -i  Done                     01/11/2019 18:26:25
00011 suncat0010 pw.x -npool 4 -i  Done                     01/11/2019 18:26:25
00012 suncat0010 pw.x -npool 4 -i  Done                     01/11/2019 18:26:25
00013 suncat0010 pw.x -npool 4 -i  Done                     01/11/2019 18:26:25
00014 suncat0010 pw.x -npool 4 -i  Done                     01/11/2019 18:26:25
00015 suncat0010 pw.x -npool 4 -i  Done                     01/11/2019 18:26:25
00016 suncat0188 pw.x -npool 4 -i  Done                     01/11/2019 18:26:25
00017 suncat0188 pw.x -npool 4 -i  Done                     01/11/2019 18:26:25
00018 suncat0188 pw.x -npool 4 -i  Done                     01/11/2019 18:26:25
00019 suncat0188 pw.x -npool 4 -i  Done                     01/11/2019 18:26:25
00020 suncat0188 pw.x -npool 4 -i  Done                     01/11/2019 18:26:25
00021 suncat0188 pw.x -npool 4 -i  Done                     01/11/2019 18:26:25
00022 suncat0188 pw.x -npool 4 -i  Done                     01/11/2019 18:26:25
00023 suncat0188 pw.x -npool 4 -i  Done                     01/11/2019 18:26:25
00024 suncat0267 pw.x -npool 4 -i  Done                     01/11/2019 18:26:25
00025 suncat0267 pw.x -npool 4 -i  Done                     01/11/2019 18:26:25
00026 suncat0267 pw.x -npool 4 -i  Done                     01/11/2019 18:26:25
00027 suncat0267 pw.x -npool 4 -i  Done                     01/11/2019 18:26:25
00028 suncat0267 pw.x -npool 4 -i  Done                     01/11/2019 18:26:25
00029 suncat0267 pw.x -npool 4 -i  Done                     01/11/2019 18:26:25
00030 suncat0267 pw.x -npool 4 -i  Done                     01/11/2019 18:26:25
00031 suncat0267 pw.x -npool 4 -i  Done                     01/11/2019 18:26:25
