  python dir          : /u/if/mamunm/src/espresso
  espresso dir        : /nfs/slac/g/suncatfs/sw/espv18/espresso-dynpy-beef/bin
  pseudo dir          : /u/if/mamunm/psp/gbrv1.5pbe
  ase-espresso py git : GITVERSION



     Program PWSCF v.5.1rc2 (svn rev. 11289) starts on  3May2018 at  6:20:11 

     This program is part of the open-source Quantum ESPRESSO suite
     for quantum simulation of materials; please cite
         "P. Giannozzi et al., J. Phys.:Condens. Matter 21 395502 (2009);
          URL http://www.quantum-espresso.org", 
     in publications or presentations arising from this work. More details at
     http://www.quantum-espresso.org/quote

     Parallel version (MPI), running on    32 processors
     K-points division:     npool     =       4
     R & G space division:  proc/nbgrp/npool/nimage =       8
     Reading input from pw.inp
     Message from routine read_cards :
     DEPRECATED: no units specified in CELL_PARAMETERS card

     Current dimensions of program PWSCF are:
     Max number of different atomic species (ntypx) = 10
     Max number of k-points (npk) =  40000
     Max angular momentum in pseudopotentials (lmaxx) =  3
     Presently stress not available with electric field


     **************************************************************************
     Initializing libbeef V0.1.1 with the BEEF-vdW functional.
     Citation: Wellendorff et al., PRB 85, 235149 (2012).
     **************************************************************************


     IMPORTANT: XC functional enforced from input :
     Exchange-correlation      = BEEF-VDW ( 1  4 27 13 2)
     Any further DFT definition will be discarded
     Please, verify this is what you really want


     Subspace diagonalization in iterative solution of the eigenvalue problem:
     a serial algorithm will be used

 
     Parallelization info
     --------------------
     sticks:   dense  smooth     PW     G-vecs:    dense   smooth      PW
     Min         367     147     43                69909    17663    2781
     Max         369     148     44                69918    17695    2794
     Sum        2941    1177    349               559305   141419   22321
 


     bravais-lattice index     =            0
     lattice parameter (alat)  =       1.8897  a.u.
     unit-cell volume          =    4704.3541 (a.u.)^3
     number of atoms/cell      =           13
     number of atomic types    =            2
     number of electrons       =       174.00
     number of Kohn-Sham states=           97
     kinetic-energy cutoff     =      36.7493  Ry
     charge density cutoff     =     367.4932  Ry
     convergence threshold     =      1.0E-05
     mixing beta               =       0.3000
     number of iterations used =           10  plain     mixing
     Exchange-correlation      = BEEF-VDW ( 1  4 27 13 2)
     nstep                     =           50


     celldm(1)=   1.889726  celldm(2)=   0.000000  celldm(3)=   0.000000
     celldm(4)=   0.000000  celldm(5)=   0.000000  celldm(6)=   0.000000

     crystal axes: (cart. coord. in units of alat)
               a(1) = (   5.712816   0.000000   0.000000 )  
               a(2) = (   2.856408   4.947444   0.000000 )  
               a(3) = (   0.000000   0.000000  24.664495 )  

     reciprocal axes: (cart. coord. in units 2 pi/alat)
               b(1) = (  0.175045 -0.101062  0.000000 )  
               b(2) = (  0.000000  0.202125  0.000000 )  
               b(3) = (  0.000000  0.000000  0.040544 )  


     PseudoPot. # 1 for W  read from file:
     /u/if/mamunm/psp/gbrv1.5pbe/W.UPF
     MD5 check sum: 9c083fa34c2a2ea0f02f1f893e16e1c8
     Pseudo is Ultrasoft + core correction, Zval = 14.0
     Generated by new atomic code, or converted to UPF format
     Using radial grid of  923 points,  8 beta functions with: 
                l(1) =   0
                l(2) =   0
                l(3) =   0
                l(4) =   1
                l(5) =   1
                l(6) =   2
                l(7) =   2
                l(8) =   3
     Q(r) pseudized with  6 coefficients,  rinner =    1.350   1.350   1.350
                                                       1.350   1.350   1.350
                                                       1.350

     PseudoPot. # 2 for S  read from file:
     /u/if/mamunm/psp/gbrv1.5pbe/S.UPF
     MD5 check sum: 88d86576ff6df21479756cfb9bdac1df
     Pseudo is Ultrasoft + core correction, Zval =  6.0
     Generated by new atomic code, or converted to UPF format
     Using radial grid of  907 points,  6 beta functions with: 
                l(1) =   0
                l(2) =   0
                l(3) =   1
                l(4) =   1
                l(5) =   2
                l(6) =   2
     Q(r) pseudized with  8 coefficients,  rinner =    1.300   1.300   1.300
                                                       1.300   1.300

     vdW kernel table read from file vdW_kernel_table
     MD5 check sum: 095c7af220d748ca6e76c0b4c6cfb241

     atomic species   valence    mass     pseudopotential
        W1            14.00   183.84000     W ( 1.00)
        S1             6.00    32.06000     S ( 1.00)

     No symmetry found



   Cartesian axes

     site n.     atom                  positions (alat units)
         1           W1  tau(   1) = (   1.4282041   0.8245740  10.0000000  )
         2           W1  tau(   2) = (   4.2846123   0.8245740  10.0000000  )
         3           W1  tau(   3) = (   2.8564082   3.2982961  10.0000000  )
         4           W1  tau(   4) = (   5.7128165   3.2982961  10.0000000  )
         5           W1  tau(   5) = (   5.7128165   1.6491481  12.3322476  )
         6           W1  tau(   6) = (   2.8564082   1.6491481  12.3322476  )
         7           W1  tau(   7) = (   7.1410206   4.1228701  12.3322476  )
         8           W1  tau(   8) = (   4.2846123   4.1228701  12.3322476  )
         9           W1  tau(   9) = (   0.0000000   0.0000000  14.6644951  )
        10           W1  tau(  10) = (   2.8564082   0.0000000  14.6644951  )
        11           W1  tau(  11) = (   1.4282041   2.4737221  14.6644951  )
        12           W1  tau(  12) = (   4.2846123   2.4737221  14.6644951  )
        13           S1  tau(  13) = (   2.8564082   1.6491481  16.3999951  )

     number of k points=    20  Fermi-Dirac smearing, width (Ry)=  0.0110
                       cart. coord. in units 2pi/alat
        k(    1) = (   0.0000000   0.0000000   0.0000000), wk =   0.0555556
        k(    2) = (   0.0000000   0.0336874   0.0000000), wk =   0.1111111
        k(    3) = (   0.0000000   0.0673749   0.0000000), wk =   0.1111111
        k(    4) = (   0.0000000  -0.1010623   0.0000000), wk =   0.0555556
        k(    5) = (   0.0291742  -0.0168437   0.0000000), wk =   0.1111111
        k(    6) = (   0.0291742   0.0168437   0.0000000), wk =   0.1111111
        k(    7) = (   0.0291742   0.0505311   0.0000000), wk =   0.1111111
        k(    8) = (   0.0291742  -0.1179060   0.0000000), wk =   0.1111111
        k(    9) = (   0.0291742  -0.0842186   0.0000000), wk =   0.1111111
        k(   10) = (   0.0291742  -0.0505311   0.0000000), wk =   0.1111111
        k(   11) = (   0.0583483  -0.0336874   0.0000000), wk =   0.1111111
        k(   12) = (   0.0583483  -0.0000000   0.0000000), wk =   0.1111111
        k(   13) = (   0.0583483   0.0336874   0.0000000), wk =   0.1111111
        k(   14) = (   0.0583483  -0.1347497   0.0000000), wk =   0.1111111
        k(   15) = (   0.0583483  -0.1010623   0.0000000), wk =   0.1111111
        k(   16) = (   0.0583483  -0.0673749   0.0000000), wk =   0.1111111
        k(   17) = (  -0.0875225   0.0505311   0.0000000), wk =   0.0555556
        k(   18) = (  -0.0875225   0.0842186   0.0000000), wk =   0.1111111
        k(   19) = (  -0.0875225   0.1179060   0.0000000), wk =   0.1111111
        k(   20) = (  -0.0875225  -0.0505311   0.0000000), wk =   0.0555556

     Dense  grid:   559305 G-vectors     FFT dimensions: (  72,  72, 288)

     Smooth grid:   141419 G-vectors     FFT dimensions: (  45,  45, 180)

     Largest allocated arrays     est. size (Mb)     dimensions
        Kohn-Sham Wavefunctions         3.31 Mb     (    2239,   97)
        NL pseudopotentials            11.27 Mb     (    2239,  330)
        Each V/rho on FFT grid          2.85 Mb     (  186624)
        Each G-vector array             0.53 Mb     (   69911)
        G-vector shells                 0.14 Mb     (   18450)
     Largest temporary arrays     est. size (Mb)     dimensions
        Auxiliary wavefunctions        13.26 Mb     (    2239,  388)
        Each subspace H/S matrix        2.30 Mb     (     388,  388)
        Each <psi_i|beta_j> matrix      0.49 Mb     (     330,   97)
        Arrays for rho mixing          28.48 Mb     (  186624,   10)

     Initial potential from superposition of free atoms
     Check: negative starting charge=   -0.760231

     starting charge  172.79588, renormalised to  174.00000

     negative rho (up, down):  7.655E-01 0.000E+00


     ************************************************************************
     *
     * You are using vdW-DF for exchange-correlation in this calculation.
     * Please cite the following three references that made this development
     * possible:
     *
     *   M. Dion, H. Rydberg, E. Schroder, D. C. Langreth, and
     *   B. I. Lundqvist, Phys. Rev. Lett. 92, 246401 (2004).
     *
     *   T. Thonhauser, V. R. Cooper, S. Li, A. Puzder, P. Hyldgaard, and
     *   D. C. Langreth, Phys. Rev. B 76, 125112 (2007).
     *
     *   G. Roman-Perez and J. M. Soler, Phys. Rev. Lett. 103, 096102 (2009).
     *
     *
     * If you are using vdW-DF2, please also cite:
     *
     *   K. Lee, E. D. Murray, L. Kong, B. I. Lundqvist, and
     *   D. C. Langreth, Phys. Rev. B 82, 081101(R) (2010).
     *
     *
     * If you are calculating the stress with vdW-DF, please also cite:
     *
     *   R. Sabatini, E. Kucukbenli, B. Kolb, T. Thonhauser, and
     *   S. de Gironcoli, J. Phys.: Condens. Matter 24, 424209 (2012).
     *
     ************************************************************************

     Carrying out vdW-DF run using the following parameters:

     Nqs =      20    Nr_points =    1024   r_max =   100.000
     q_mesh =
               0.00001000     0.04494208     0.09755937     0.15916263
               0.23128650     0.31572767     0.41458969     0.53033537
               0.66584808     0.82450364     1.01025438     1.22772762
               1.48234092     1.78043706     2.12944203     2.53805004
               3.01644009     3.57652955     4.23227104     5.00000000

     Gradients computed in reciprocal space

     ************************************************************************


 
     Adding external electric field

     Computed dipole along edir(3) : 
        Dipole               -0.3211 Ry au,         -0.8162 Debye
        Dipole field         -0.0009 Ry au
 
        Potential amp.        0.0780 Ry
        Total length         45.4439 bohr
 
     Starting wfc are  160 randomized atomic wfcs

     total cpu time spent up to now is       16.6 secs

     per-process dynamical memory:    91.9 Mb

     Self-consistent Calculation

     iteration #  1     ecut=    36.75 Ry     beta=0.30
     Davidson diagonalization with overlap
     ethr =  1.00E-02,  avg # of iterations =  2.0

     negative rho (up, down):  7.709E-01 0.000E+00
 
     Adding external electric field

     Computed dipole along edir(3) : 
        Dipole                4.7898 Ry au,         12.1746 Debye
        Dipole field          0.0128 Ry au
 
        Potential amp.       -1.1629 Ry
        Total length         45.4439 bohr
 

     total cpu time spent up to now is       41.9 secs

     total energy              =   -1946.60677681 Ry
     Harris-Foulkes estimate   =   -1949.66277342 Ry
     estimated scf accuracy    <       6.49973093 Ry

     iteration #  2     ecut=    36.75 Ry     beta=0.30
     Davidson diagonalization with overlap
     ethr =  3.74E-03,  avg # of iterations = 10.8

     negative rho (up, down):  7.709E-01 0.000E+00
 
     Adding external electric field

     Computed dipole along edir(3) : 
        Dipole               -2.7673 Ry au,         -7.0337 Debye
        Dipole field         -0.0074 Ry au
 
        Potential amp.        0.6718 Ry
        Total length         45.4439 bohr
 

     total cpu time spent up to now is       79.7 secs

     total energy              =   -1922.67830900 Ry
     Harris-Foulkes estimate   =   -1972.18966720 Ry
     estimated scf accuracy    <    1724.67253873 Ry

     iteration #  3     ecut=    36.75 Ry     beta=0.30
     Davidson diagonalization with overlap
     ethr =  3.74E-03,  avg # of iterations =  6.8

     negative rho (up, down):  7.717E-01 0.000E+00
 
     Adding external electric field

     Computed dipole along edir(3) : 
        Dipole               -1.8869 Ry au,         -4.7960 Debye
        Dipole field         -0.0050 Ry au
 
        Potential amp.        0.4581 Ry
        Total length         45.4439 bohr
 

     total cpu time spent up to now is      115.1 secs

     total energy              =   -1948.18903760 Ry
     Harris-Foulkes estimate   =   -1950.35654012 Ry
     estimated scf accuracy    <      21.98145960 Ry

     iteration #  4     ecut=    36.75 Ry     beta=0.30
     Davidson diagonalization with overlap
     ethr =  3.74E-03,  avg # of iterations =  3.2

     negative rho (up, down):  7.730E-01 0.000E+00
 
     Adding external electric field

     Computed dipole along edir(3) : 
        Dipole               -1.4130 Ry au,         -3.5914 Debye
        Dipole field         -0.0038 Ry au
 
        Potential amp.        0.3430 Ry
        Total length         45.4439 bohr
 

     total cpu time spent up to now is      142.0 secs

     total energy              =   -1949.03368566 Ry
     Harris-Foulkes estimate   =   -1949.68816997 Ry
     estimated scf accuracy    <      19.06828826 Ry

     iteration #  5     ecut=    36.75 Ry     beta=0.30
     Davidson diagonalization with overlap
     ethr =  3.74E-03,  avg # of iterations =  1.6

     negative rho (up, down):  7.779E-01 0.000E+00
 
     Adding external electric field

     Computed dipole along edir(3) : 
        Dipole               -1.2983 Ry au,         -3.3000 Debye
        Dipole field         -0.0035 Ry au
 
        Potential amp.        0.3152 Ry
        Total length         45.4439 bohr
 

     total cpu time spent up to now is      167.1 secs

     total energy              =   -1949.31983932 Ry
     Harris-Foulkes estimate   =   -1949.37189103 Ry
     estimated scf accuracy    <       0.54734853 Ry

     iteration #  6     ecut=    36.75 Ry     beta=0.30
     Davidson diagonalization with overlap
     ethr =  3.15E-04,  avg # of iterations =  4.9

     negative rho (up, down):  7.833E-01 0.000E+00
 
     Adding external electric field

     Computed dipole along edir(3) : 
        Dipole               -1.2497 Ry au,         -3.1763 Debye
        Dipole field         -0.0033 Ry au
 
        Potential amp.        0.3034 Ry
        Total length         45.4439 bohr
 

     total cpu time spent up to now is      194.8 secs

     total energy              =   -1949.34140743 Ry
     Harris-Foulkes estimate   =   -1949.36060909 Ry
     estimated scf accuracy    <       0.23685244 Ry

     iteration #  7     ecut=    36.75 Ry     beta=0.30
     Davidson diagonalization with overlap
     ethr =  1.36E-04,  avg # of iterations =  2.8

     negative rho (up, down):  7.865E-01 0.000E+00
 
     Adding external electric field

     Computed dipole along edir(3) : 
        Dipole               -1.1296 Ry au,         -2.8711 Debye
        Dipole field         -0.0030 Ry au
 
        Potential amp.        0.2742 Ry
        Total length         45.4439 bohr
 

     total cpu time spent up to now is      220.9 secs

     total energy              =   -1949.34717343 Ry
     Harris-Foulkes estimate   =   -1949.35281767 Ry
     estimated scf accuracy    <       0.05624753 Ry

     iteration #  8     ecut=    36.75 Ry     beta=0.30
     Davidson diagonalization with overlap
     ethr =  3.23E-05,  avg # of iterations =  4.6

     negative rho (up, down):  7.889E-01 0.000E+00
 
     Adding external electric field

     Computed dipole along edir(3) : 
        Dipole               -0.9675 Ry au,         -2.4590 Debye
        Dipole field         -0.0026 Ry au
 
        Potential amp.        0.2349 Ry
        Total length         45.4439 bohr
 

     total cpu time spent up to now is      248.8 secs

     total energy              =   -1949.34946397 Ry
     Harris-Foulkes estimate   =   -1949.35179828 Ry
     estimated scf accuracy    <       0.03642508 Ry

     iteration #  9     ecut=    36.75 Ry     beta=0.30
     Davidson diagonalization with overlap
     ethr =  2.09E-05,  avg # of iterations =  1.6

     negative rho (up, down):  7.911E-01 0.000E+00
 
     Adding external electric field

     Computed dipole along edir(3) : 
        Dipole               -0.7605 Ry au,         -1.9331 Debye
        Dipole field         -0.0020 Ry au
 
        Potential amp.        0.1846 Ry
        Total length         45.4439 bohr
 

     total cpu time spent up to now is      275.3 secs

     total energy              =   -1949.34919356 Ry
     Harris-Foulkes estimate   =   -1949.35111696 Ry
     estimated scf accuracy    <       0.02664688 Ry

     iteration # 10     ecut=    36.75 Ry     beta=0.30
     Davidson diagonalization with overlap
     ethr =  1.53E-05,  avg # of iterations =  1.3

     negative rho (up, down):  7.918E-01 0.000E+00
 
     Adding external electric field

     Computed dipole along edir(3) : 
        Dipole               -0.6665 Ry au,         -1.6941 Debye
        Dipole field         -0.0018 Ry au
 
        Potential amp.        0.1618 Ry
        Total length         45.4439 bohr
 

     total cpu time spent up to now is      301.6 secs

     total energy              =   -1949.34861483 Ry
     Harris-Foulkes estimate   =   -1949.34999010 Ry
     estimated scf accuracy    <       0.01398648 Ry

     iteration # 11     ecut=    36.75 Ry     beta=0.30
     Davidson diagonalization with overlap
     ethr =  8.04E-06,  avg # of iterations =  1.7

     negative rho (up, down):  7.922E-01 0.000E+00
 
     Adding external electric field

     Computed dipole along edir(3) : 
        Dipole               -0.4929 Ry au,         -1.2529 Debye
        Dipole field         -0.0013 Ry au
 
        Potential amp.        0.1197 Ry
        Total length         45.4439 bohr
 

     total cpu time spent up to now is      327.8 secs

     total energy              =   -1949.34556846 Ry
     Harris-Foulkes estimate   =   -1949.34932547 Ry
     estimated scf accuracy    <       0.01001956 Ry

     iteration # 12     ecut=    36.75 Ry     beta=0.30
     Davidson diagonalization with overlap
     ethr =  5.76E-06,  avg # of iterations =  3.3

     negative rho (up, down):  7.926E-01 0.000E+00
 
     Adding external electric field

     Computed dipole along edir(3) : 
        Dipole               -0.2783 Ry au,         -0.7075 Debye
        Dipole field         -0.0007 Ry au
 
        Potential amp.        0.0676 Ry
        Total length         45.4439 bohr
 

     total cpu time spent up to now is      354.8 secs

     total energy              =   -1949.34226570 Ry
     Harris-Foulkes estimate   =   -1949.34616391 Ry
     estimated scf accuracy    <       0.00641856 Ry

     iteration # 13     ecut=    36.75 Ry     beta=0.30
     Davidson diagonalization with overlap
     ethr =  3.69E-06,  avg # of iterations =  5.2

     negative rho (up, down):  7.929E-01 0.000E+00
 
     Adding external electric field

     Computed dipole along edir(3) : 
        Dipole                0.0003 Ry au,          0.0008 Debye
        Dipole field          0.0000 Ry au
 
        Potential amp.       -0.0001 Ry
        Total length         45.4439 bohr
 

     total cpu time spent up to now is      383.2 secs

     total energy              =   -1949.34187559 Ry
     Harris-Foulkes estimate   =   -1949.34276017 Ry
     estimated scf accuracy    <       0.00177505 Ry

     iteration # 14     ecut=    36.75 Ry     beta=0.30
     Davidson diagonalization with overlap
     ethr =  1.02E-06,  avg # of iterations =  3.9

     negative rho (up, down):  7.927E-01 0.000E+00
 
     Adding external electric field

     Computed dipole along edir(3) : 
        Dipole               -0.0015 Ry au,         -0.0039 Debye
        Dipole field         -0.0000 Ry au
 
        Potential amp.        0.0004 Ry
        Total length         45.4439 bohr
 

     total cpu time spent up to now is      411.8 secs

     total energy              =   -1949.34203892 Ry
     Harris-Foulkes estimate   =   -1949.34207513 Ry
     estimated scf accuracy    <       0.00028167 Ry

     iteration # 15     ecut=    36.75 Ry     beta=0.30
     Davidson diagonalization with overlap
     ethr =  1.62E-07,  avg # of iterations =  3.5

     negative rho (up, down):  7.928E-01 0.000E+00
 
     Adding external electric field

     Computed dipole along edir(3) : 
        Dipole                0.0079 Ry au,          0.0201 Debye
        Dipole field          0.0000 Ry au
 
        Potential amp.       -0.0019 Ry
        Total length         45.4439 bohr
 

     total cpu time spent up to now is      440.2 secs

     total energy              =   -1949.34206948 Ry
     Harris-Foulkes estimate   =   -1949.34208271 Ry
     estimated scf accuracy    <       0.00006068 Ry

     iteration # 16     ecut=    36.75 Ry     beta=0.30
     Davidson diagonalization with overlap
     ethr =  3.49E-08,  avg # of iterations =  3.2

     negative rho (up, down):  7.928E-01 0.000E+00

     negative rho (up, down):  7.928E-01 0.000E+00

     negative rho (up, down):  7.928E-01 0.000E+00

     negative rho (up, down):  7.928E-01 0.000E+00

     negative rho (up, down):  7.928E-01 0.000E+00

     negative rho (up, down):  7.928E-01 0.000E+00

     negative rho (up, down):  7.928E-01 0.000E+00

     negative rho (up, down):  7.928E-01 0.000E+00

     negative rho (up, down):  7.928E-01 0.000E+00

     negative rho (up, down):  7.928E-01 0.000E+00

     negative rho (up, down):  7.928E-01 0.000E+00

     negative rho (up, down):  7.928E-01 0.000E+00

     negative rho (up, down):  7.928E-01 0.000E+00

     negative rho (up, down):  7.928E-01 0.000E+00

     negative rho (up, down):  7.928E-01 0.000E+00

     negative rho (up, down):  7.928E-01 0.000E+00

     negative rho (up, down):  7.928E-01 0.000E+00

     negative rho (up, down):  7.928E-01 0.000E+00

     negative rho (up, down):  7.928E-01 0.000E+00

     negative rho (up, down):  7.928E-01 0.000E+00

     negative rho (up, down):  7.928E-01 0.000E+00

     negative rho (up, down):  7.928E-01 0.000E+00

     negative rho (up, down):  7.928E-01 0.000E+00

     negative rho (up, down):  7.928E-01 0.000E+00

     negative rho (up, down):  7.928E-01 0.000E+00

     negative rho (up, down):  7.928E-01 0.000E+00

     negative rho (up, down):  7.928E-01 0.000E+00

     negative rho (up, down):  7.928E-01 0.000E+00

     negative rho (up, down):  7.928E-01 0.000E+00

     negative rho (up, down):  7.928E-01 0.000E+00

     negative rho (up, down):  7.928E-01 0.000E+00

     negative rho (up, down):  7.928E-01 0.000E+00

     negative rho (up, down):  7.928E-01 0.000E+00

     negative rho (up, down):  7.928E-01 0.000E+00

     negative rho (up, down):  7.928E-01 0.000E+00
 
     Adding external electric field

     Computed dipole along edir(3) : 
        Dipole                0.0323 Ry au,          0.0821 Debye
        Dipole field          0.0001 Ry au
 
        Potential amp.       -0.0078 Ry
        Total length         45.4439 bohr
 

     total cpu time spent up to now is      515.9 secs

     End of self-consistent calculation

          k = 0.0000 0.0000 0.0000 ( 17753 PWs)   bands (ev):

   -71.5956 -71.5542 -71.5246 -71.5103 -71.5101 -71.5094 -71.4805 -71.4804
   -71.4801 -71.4618 -71.4613 -71.4575 -36.1793 -36.1421 -36.1419 -36.1179
   -36.0816 -36.0642 -36.0641 -35.9768 -35.9671 -35.9668 -35.7689 -35.6665
   -35.6517 -35.6515 -35.6087 -35.5935 -35.5932 -35.4830 -35.4830 -35.4699
   -35.3957 -35.3956 -35.3907 -35.3694 -35.3694 -35.3436 -35.3232 -35.2806
   -35.2805 -35.2729 -35.2423 -35.2423 -35.1718 -35.1718 -35.1064 -35.1064
   -10.7958  -5.4808  -3.7564  -3.0314  -2.6670  -2.6670  -2.5588  -2.3457
    -2.2943  -2.2943  -1.6994  -1.6891  -1.6891  -1.3618  -1.3492  -1.3491
    -0.7221  -0.7221  -0.4782   0.3080   0.3081   0.6367   1.2692   1.3638
     1.3638   1.6164   1.9109   2.0508   2.0509   2.2177   2.2911   2.2911
     2.4151   2.4152   2.4702   2.5416   2.5723   2.5723   2.7212   2.7212
     3.3541   3.4236   3.4236   4.0002   4.2754   4.3210   4.3211   4.3905
     4.3906

          k = 0.0000 0.0337 0.0000 ( 17716 PWs)   bands (ev):

   -71.5905 -71.5497 -71.5266 -71.5134 -71.5103 -71.5061 -71.4863 -71.4804
   -71.4794 -71.4642 -71.4616 -71.4573 -36.1453 -36.1130 -36.1003 -36.0911
   -36.0562 -36.0371 -36.0290 -35.9466 -35.9383 -35.9196 -35.7670 -35.6973
   -35.6764 -35.6715 -35.5960 -35.5812 -35.5783 -35.5045 -35.4961 -35.4630
   -35.4370 -35.4266 -35.3778 -35.3638 -35.3629 -35.3415 -35.3389 -35.3095
   -35.3056 -35.2913 -35.2686 -35.2565 -35.2171 -35.1839 -35.1597 -35.1175
   -10.7789  -5.2357  -3.5346  -2.7961  -2.6574  -2.5084  -2.3878  -2.2560
    -2.1379  -2.0941  -1.6625  -1.5041  -1.4586  -1.2390  -1.1899  -1.1723
    -0.6825  -0.6381  -0.3752   0.3481   0.3501   0.6031   1.1068   1.4225
     1.4228   1.5570   1.7077   1.7665   1.9180   1.9645   2.1261   2.2883
     2.2960   2.3897   2.4797   2.4983   2.5365   2.5982   2.6804   2.8713
     3.0811   3.1743   3.2173   3.5596   3.7638   3.8492   4.1054   4.1074
     4.3670

          k = 0.0000 0.0674 0.0000 ( 17708 PWs)   bands (ev):

   -71.5768 -71.5398 -71.5343 -71.5173 -71.5103 -71.5010 -71.4962 -71.4804
   -71.4799 -71.4705 -71.4615 -71.4579 -36.0669 -36.0401 -36.0393 -35.9993
   -35.9740 -35.9727 -35.9527 -35.8793 -35.8700 -35.7945 -35.7694 -35.7271
   -35.7230 -35.7112 -35.5783 -35.5623 -35.5616 -35.5471 -35.5336 -35.5060
   -35.4976 -35.4625 -35.4236 -35.4121 -35.4004 -35.3987 -35.3445 -35.3435
   -35.3376 -35.3303 -35.3150 -35.3001 -35.2602 -35.2346 -35.2179 -35.1487
   -10.7455  -4.5623  -3.0568  -2.8411  -2.2970  -2.1296  -2.1274  -1.8270
    -1.6988  -1.6334  -1.4606  -1.1858  -1.0618  -0.8806  -0.7642  -0.6798
    -0.5058  -0.2473  -0.0512   0.3761   0.4269   0.4991   0.6895   0.9915
     1.0872   1.2244   1.3298   1.4733   1.7451   1.8141   1.8673   1.9524
     2.0155   2.0175   2.1493   2.3370   2.4643   2.4973   2.5917   2.7358
     2.7698   2.8704   2.9206   2.9708   2.9815   3.5347   3.6825   3.8626
     4.3068

          k = 0.0000-0.1011 0.0000 ( 17668 PWs)   bands (ev):

   -71.5625 -71.5509 -71.5239 -71.5168 -71.5149 -71.5103 -71.4883 -71.4831
   -71.4804 -71.4751 -71.4615 -71.4582 -36.0066 -35.9897 -35.9861 -35.9758
   -35.9564 -35.9361 -35.8443 -35.8264 -35.8190 -35.8166 -35.7721 -35.7637
   -35.6701 -35.6183 -35.5907 -35.5775 -35.5743 -35.5731 -35.5605 -35.5459
   -35.5054 -35.4977 -35.4894 -35.4858 -35.4756 -35.4739 -35.3678 -35.3659
   -35.3395 -35.3378 -35.3099 -35.3019 -35.2716 -35.2591 -35.1949 -35.1880
   -10.7290  -3.7375  -3.5970  -2.5495  -2.3036  -1.8804  -1.7476  -1.5638
    -1.3679  -1.3030  -1.2243  -1.1285  -0.9086  -0.6566  -0.3146  -0.2825
    -0.0797  -0.0197   0.0371   0.1516   0.4665   0.5354   0.6204   0.6703
     0.8088   0.9048   1.2463   1.3783   1.5002   1.5163   1.5505   1.6301
     1.6613   1.6863   1.7903   1.9904   2.1562   2.2042   2.2606   2.3040
     2.4274   2.9838   3.0160   3.4175   3.5989   3.7840   3.7913   3.8265
     4.0529

          k = 0.0292-0.0168 0.0000 ( 17716 PWs)   bands (ev):

   -71.5905 -71.5497 -71.5266 -71.5134 -71.5103 -71.5061 -71.4861 -71.4804
   -71.4796 -71.4644 -71.4612 -71.4575 -36.1453 -36.1128 -36.1004 -36.0911
   -36.0563 -36.0372 -36.0289 -35.9464 -35.9385 -35.9196 -35.7670 -35.6973
   -35.6765 -35.6713 -35.5961 -35.5810 -35.5784 -35.5045 -35.4961 -35.4630
   -35.4370 -35.4265 -35.3778 -35.3638 -35.3628 -35.3416 -35.3389 -35.3096
   -35.3054 -35.2913 -35.2687 -35.2565 -35.2171 -35.1839 -35.1597 -35.1175
   -10.7789  -5.2357  -3.5346  -2.7961  -2.6574  -2.5084  -2.3878  -2.2561
    -2.1378  -2.0941  -1.6625  -1.5041  -1.4587  -1.2390  -1.1900  -1.1723
    -0.6825  -0.6382  -0.3752   0.3480   0.3502   0.6031   1.1068   1.4225
     1.4228   1.5570   1.7077   1.7665   1.9180   1.9646   2.1261   2.2883
     2.2960   2.3897   2.4796   2.4983   2.5366   2.5982   2.6804   2.8713
     3.0811   3.1743   3.2173   3.5595   3.7639   3.8492   4.1053   4.1075
     4.3669

          k = 0.0292 0.0168 0.0000 ( 17716 PWs)   bands (ev):

   -71.5905 -71.5497 -71.5266 -71.5136 -71.5101 -71.5061 -71.4862 -71.4805
   -71.4794 -71.4642 -71.4615 -71.4574 -36.1453 -36.1129 -36.1004 -36.0911
   -36.0562 -36.0372 -36.0289 -35.9466 -35.9384 -35.9196 -35.7670 -35.6972
   -35.6765 -35.6714 -35.5960 -35.5811 -35.5783 -35.5045 -35.4961 -35.4629
   -35.4369 -35.4266 -35.3778 -35.3638 -35.3628 -35.3416 -35.3389 -35.3095
   -35.3055 -35.2913 -35.2687 -35.2565 -35.2171 -35.1839 -35.1597 -35.1175
   -10.7789  -5.2357  -3.5346  -2.7961  -2.6574  -2.5084  -2.3878  -2.2560
    -2.1379  -2.0941  -1.6625  -1.5041  -1.4587  -1.2390  -1.1899  -1.1723
    -0.6825  -0.6382  -0.3752   0.3480   0.3501   0.6031   1.1068   1.4225
     1.4228   1.5570   1.7077   1.7665   1.9180   1.9646   2.1261   2.2883
     2.2960   2.3897   2.4797   2.4983   2.5366   2.5982   2.6804   2.8713
     3.0811   3.1743   3.2173   3.5596   3.7639   3.8492   4.1054   4.1075
     4.3669

          k = 0.0292 0.0505 0.0000 ( 17715 PWs)   bands (ev):

   -71.5811 -71.5417 -71.5307 -71.5205 -71.5084 -71.5004 -71.4922 -71.4874
   -71.4759 -71.4677 -71.4622 -71.4577 -36.0928 -36.0595 -36.0375 -36.0267
   -36.0107 -35.9833 -35.9777 -35.9073 -35.8615 -35.8482 -35.7683 -35.7272
   -35.7147 -35.7015 -35.5927 -35.5693 -35.5644 -35.5520 -35.5277 -35.4733
   -35.4625 -35.4229 -35.4056 -35.4030 -35.3920 -35.3750 -35.3569 -35.3444
   -35.3263 -35.3013 -35.2881 -35.2807 -35.2780 -35.2361 -35.2043 -35.1454
   -10.7538  -4.7731  -3.1487  -2.6012  -2.5158  -2.3389  -2.1232  -2.0457
    -1.8822  -1.7058  -1.5272  -1.2177  -1.1363  -1.0118  -0.9060  -0.8225
    -0.5563  -0.4321  -0.1465   0.3611   0.3961   0.5837   0.8137   1.1974
     1.2321   1.3213   1.4159   1.4368   1.7054   1.8801   1.9272   2.0212
     2.1211   2.1906   2.2586   2.3982   2.5578   2.6072   2.7346   2.7708
     2.8334   2.8947   2.9484   3.0421   3.2403   3.3520   3.7504   4.0054
     4.1728

          k = 0.0292-0.1179 0.0000 ( 17692 PWs)   bands (ev):

   -71.5656 -71.5436 -71.5285 -71.5240 -71.5083 -71.5051 -71.4927 -71.4887
   -71.4775 -71.4713 -71.4626 -71.4581 -36.0131 -35.9973 -35.9602 -35.9564
   -35.9438 -35.9291 -35.8924 -35.8443 -35.8065 -35.7898 -35.7773 -35.7389
   -35.7210 -35.6677 -35.6557 -35.6007 -35.5669 -35.5578 -35.5468 -35.5366
   -35.5053 -35.4957 -35.4785 -35.4482 -35.4301 -35.4078 -35.3740 -35.3689
   -35.3478 -35.3387 -35.3044 -35.2956 -35.2897 -35.2537 -35.2387 -35.1902
   -10.7291  -3.9670  -3.0958  -2.5592  -2.3119  -2.1514  -1.8407  -1.6791
    -1.4008  -1.2431  -1.1833  -0.9129  -0.7645  -0.6609  -0.4590  -0.2931
    -0.2304  -0.0648   0.0938   0.3221   0.3355   0.4490   0.5753   0.6532
     0.8545   0.9467   1.0453   1.2043   1.3865   1.4699   1.5288   1.5733
     1.6320   1.7049   1.8458   2.0479   2.1723   2.2534   2.4007   2.5544
     2.6373   2.9423   2.9906   3.1242   3.6081   3.6691   3.7783   3.8331
     3.9990

          k = 0.0292-0.0842 0.0000 ( 17692 PWs)   bands (ev):

   -71.5656 -71.5436 -71.5285 -71.5240 -71.5083 -71.5051 -71.4928 -71.4886
   -71.4776 -71.4713 -71.4626 -71.4581 -36.0131 -35.9973 -35.9602 -35.9564
   -35.9438 -35.9291 -35.8924 -35.8443 -35.8066 -35.7897 -35.7773 -35.7390
   -35.7209 -35.6677 -35.6557 -35.6007 -35.5669 -35.5578 -35.5468 -35.5366
   -35.5054 -35.4957 -35.4785 -35.4482 -35.4301 -35.4078 -35.3741 -35.3689
   -35.3478 -35.3386 -35.3043 -35.2957 -35.2897 -35.2537 -35.2387 -35.1902
   -10.7291  -3.9670  -3.0958  -2.5592  -2.3119  -2.1514  -1.8407  -1.6791
    -1.4008  -1.2431  -1.1833  -0.9130  -0.7645  -0.6610  -0.4590  -0.2931
    -0.2304  -0.0648   0.0938   0.3220   0.3355   0.4490   0.5753   0.6532
     0.8545   0.9467   1.0453   1.2043   1.3865   1.4700   1.5288   1.5733
     1.6320   1.7049   1.8458   2.0478   2.1723   2.2534   2.4007   2.5544
     2.6373   2.9423   2.9906   3.1242   3.6081   3.6691   3.7782   3.8331
     3.9990

          k = 0.0292-0.0505 0.0000 ( 17715 PWs)   bands (ev):

   -71.5811 -71.5417 -71.5308 -71.5204 -71.5084 -71.5005 -71.4920 -71.4875
   -71.4760 -71.4678 -71.4620 -71.4578 -36.0929 -36.0595 -36.0375 -36.0268
   -36.0108 -35.9832 -35.9777 -35.9072 -35.8616 -35.8481 -35.7683 -35.7273
   -35.7146 -35.7016 -35.5927 -35.5694 -35.5642 -35.5521 -35.5277 -35.4733
   -35.4625 -35.4227 -35.4057 -35.4030 -35.3921 -35.3750 -35.3569 -35.3444
   -35.3263 -35.3013 -35.2880 -35.2808 -35.2780 -35.2360 -35.2043 -35.1454
   -10.7538  -4.7731  -3.1487  -2.6012  -2.5158  -2.3389  -2.1232  -2.0456
    -1.8822  -1.7058  -1.5272  -1.2177  -1.1363  -1.0118  -0.9059  -0.8225
    -0.5564  -0.4321  -0.1465   0.3612   0.3960   0.5837   0.8137   1.1974
     1.2321   1.3213   1.4158   1.4368   1.7054   1.8801   1.9272   2.0212
     2.1211   2.1906   2.2586   2.3982   2.5578   2.6072   2.7346   2.7709
     2.8334   2.8947   2.9484   3.0421   3.2403   3.3520   3.7504   4.0053
     4.1728

          k = 0.0583-0.0337 0.0000 ( 17708 PWs)   bands (ev):

   -71.5768 -71.5398 -71.5343 -71.5173 -71.5103 -71.5010 -71.4960 -71.4805
   -71.4800 -71.4708 -71.4611 -71.4581 -36.0670 -36.0401 -36.0391 -35.9994
   -35.9741 -35.9727 -35.9526 -35.8789 -35.8703 -35.7946 -35.7694 -35.7272
   -35.7230 -35.7112 -35.5783 -35.5623 -35.5614 -35.5473 -35.5336 -35.5061
   -35.4975 -35.4625 -35.4236 -35.4123 -35.4004 -35.3986 -35.3446 -35.3435
   -35.3376 -35.3302 -35.3152 -35.3000 -35.2602 -35.2346 -35.2179 -35.1486
   -10.7455  -4.5623  -3.0568  -2.8411  -2.2970  -2.1296  -2.1275  -1.8270
    -1.6988  -1.6334  -1.4606  -1.1857  -1.0618  -0.8806  -0.7642  -0.6798
    -0.5058  -0.2474  -0.0512   0.3762   0.4268   0.4992   0.6895   0.9915
     1.0872   1.2244   1.3299   1.4732   1.7451   1.8142   1.8674   1.9524
     2.0155   2.0175   2.1493   2.3372   2.4642   2.4972   2.5916   2.7358
     2.7698   2.8703   2.9206   2.9709   2.9816   3.5347   3.6823   3.8627
     4.3068

          k = 0.0583-0.0000 0.0000 ( 17715 PWs)   bands (ev):

   -71.5811 -71.5417 -71.5307 -71.5205 -71.5084 -71.5005 -71.4919 -71.4876
   -71.4761 -71.4678 -71.4620 -71.4578 -36.0929 -36.0594 -36.0374 -36.0268
   -36.0108 -35.9833 -35.9776 -35.9072 -35.8617 -35.8480 -35.7683 -35.7273
   -35.7145 -35.7016 -35.5927 -35.5694 -35.5643 -35.5521 -35.5277 -35.4733
   -35.4625 -35.4226 -35.4058 -35.4030 -35.3922 -35.3750 -35.3568 -35.3444
   -35.3263 -35.3013 -35.2880 -35.2808 -35.2780 -35.2360 -35.2043 -35.1454
   -10.7538  -4.7731  -3.1487  -2.6012  -2.5158  -2.3388  -2.1232  -2.0456
    -1.8822  -1.7058  -1.5272  -1.2177  -1.1364  -1.0118  -0.9059  -0.8225
    -0.5564  -0.4321  -0.1465   0.3612   0.3960   0.5837   0.8137   1.1974
     1.2321   1.3213   1.4158   1.4368   1.7054   1.8801   1.9272   2.0212
     2.1211   2.1906   2.2586   2.3982   2.5578   2.6072   2.7346   2.7709
     2.8334   2.8947   2.9484   3.0421   3.2403   3.3520   3.7504   4.0053
     4.1728

          k = 0.0583 0.0337 0.0000 ( 17708 PWs)   bands (ev):

   -71.5768 -71.5398 -71.5343 -71.5175 -71.5102 -71.5010 -71.4961 -71.4805
   -71.4799 -71.4706 -71.4615 -71.4579 -36.0670 -36.0401 -36.0392 -35.9993
   -35.9741 -35.9727 -35.9527 -35.8792 -35.8701 -35.7946 -35.7694 -35.7271
   -35.7230 -35.7112 -35.5783 -35.5623 -35.5615 -35.5472 -35.5336 -35.5060
   -35.4976 -35.4625 -35.4236 -35.4121 -35.4004 -35.3987 -35.3446 -35.3436
   -35.3376 -35.3302 -35.3151 -35.3001 -35.2602 -35.2346 -35.2180 -35.1487
   -10.7455  -4.5623  -3.0568  -2.8411  -2.2970  -2.1296  -2.1275  -1.8270
    -1.6988  -1.6334  -1.4607  -1.1857  -1.0618  -0.8806  -0.7642  -0.6798
    -0.5058  -0.2474  -0.0512   0.3761   0.4269   0.4991   0.6895   0.9915
     1.0872   1.2244   1.3298   1.4733   1.7451   1.8141   1.8674   1.9524
     2.0155   2.0175   2.1493   2.3371   2.4643   2.4972   2.5916   2.7358
     2.7698   2.8703   2.9206   2.9708   2.9815   3.5347   3.6824   3.8627
     4.3068

          k = 0.0583-0.1347 0.0000 ( 17692 PWs)   bands (ev):

   -71.5656 -71.5435 -71.5285 -71.5241 -71.5082 -71.5051 -71.4927 -71.4888
   -71.4774 -71.4715 -71.4625 -71.4581 -36.0131 -35.9973 -35.9601 -35.9564
   -35.9438 -35.9292 -35.8924 -35.8443 -35.8065 -35.7898 -35.7773 -35.7389
   -35.7210 -35.6677 -35.6556 -35.6007 -35.5669 -35.5578 -35.5467 -35.5367
   -35.5053 -35.4957 -35.4785 -35.4482 -35.4301 -35.4078 -35.3740 -35.3689
   -35.3478 -35.3386 -35.3043 -35.2955 -35.2898 -35.2537 -35.2387 -35.1902
   -10.7291  -3.9670  -3.0958  -2.5592  -2.3118  -2.1514  -1.8407  -1.6791
    -1.4008  -1.2431  -1.1833  -0.9129  -0.7645  -0.6609  -0.4590  -0.2931
    -0.2304  -0.0648   0.0938   0.3221   0.3355   0.4490   0.5753   0.6532
     0.8545   0.9468   1.0453   1.2043   1.3865   1.4699   1.5288   1.5732
     1.6320   1.7049   1.8458   2.0479   2.1722   2.2535   2.4007   2.5544
     2.6374   2.9423   2.9906   3.1243   3.6081   3.6691   3.7783   3.8331
     3.9990

          k = 0.0583-0.1011 0.0000 ( 17592 PWs)   bands (ev):

   -71.5568 -71.5416 -71.5402 -71.5139 -71.5115 -71.5034 -71.5025 -71.4838
   -71.4777 -71.4743 -71.4601 -71.4599 -35.9575 -35.9439 -35.9374 -35.9179
   -35.9170 -35.9033 -35.8582 -35.8569 -35.8568 -35.7540 -35.7500 -35.7116
   -35.6907 -35.6878 -35.6720 -35.6264 -35.6237 -35.6231 -35.5444 -35.5408
   -35.5379 -35.5355 -35.5086 -35.4121 -35.4100 -35.3959 -35.3826 -35.3437
   -35.3419 -35.3411 -35.3250 -35.3086 -35.3085 -35.2545 -35.2510 -35.2464
   -10.7209  -3.2297  -3.0620  -3.0402  -2.1219  -2.0865  -2.0576  -1.3151
    -1.3139  -1.0128  -0.6357  -0.5946  -0.4848  -0.4461  -0.3507  -0.2564
     0.0094   0.0113   0.0161   0.1587   0.1620   0.3581   0.3685   0.4525
     0.6504   0.8249   0.8277   1.0445   1.0485   1.1341   1.1854   1.3586
     1.4051   1.5309   1.8774   1.8874   2.0836   2.3439   2.4793   2.4882
     2.8125   2.9218   2.9870   3.2373   3.2918   3.4267   3.8596   4.0014
     4.0550

          k = 0.0583-0.0674 0.0000 ( 17692 PWs)   bands (ev):

   -71.5656 -71.5436 -71.5285 -71.5241 -71.5082 -71.5050 -71.4927 -71.4889
   -71.4772 -71.4718 -71.4623 -71.4582 -36.0131 -35.9973 -35.9601 -35.9564
   -35.9438 -35.9293 -35.8924 -35.8443 -35.8065 -35.7897 -35.7774 -35.7390
   -35.7209 -35.6677 -35.6556 -35.6007 -35.5669 -35.5579 -35.5466 -35.5367
   -35.5053 -35.4956 -35.4785 -35.4482 -35.4301 -35.4078 -35.3740 -35.3688
   -35.3479 -35.3386 -35.3043 -35.2956 -35.2897 -35.2537 -35.2388 -35.1902
   -10.7291  -3.9670  -3.0958  -2.5593  -2.3119  -2.1514  -1.8407  -1.6791
    -1.4009  -1.2431  -1.1833  -0.9129  -0.7645  -0.6609  -0.4589  -0.2930
    -0.2304  -0.0648   0.0939   0.3221   0.3355   0.4489   0.5753   0.6532
     0.8544   0.9468   1.0453   1.2043   1.3865   1.4700   1.5288   1.5733
     1.6320   1.7049   1.8457   2.0479   2.1723   2.2535   2.4006   2.5543
     2.6374   2.9423   2.9906   3.1243   3.6080   3.6690   3.7783   3.8331
     3.9990

          k =-0.0875 0.0505 0.0000 ( 17668 PWs)   bands (ev):

   -71.5626 -71.5509 -71.5241 -71.5168 -71.5147 -71.5103 -71.4885 -71.4827
   -71.4805 -71.4757 -71.4611 -71.4584 -36.0068 -35.9896 -35.9858 -35.9759
   -35.9564 -35.9362 -35.8441 -35.8262 -35.8193 -35.8165 -35.7721 -35.7638
   -35.6702 -35.6182 -35.5906 -35.5776 -35.5743 -35.5729 -35.5608 -35.5458
   -35.5051 -35.4979 -35.4895 -35.4862 -35.4757 -35.4735 -35.3678 -35.3659
   -35.3394 -35.3377 -35.3101 -35.3017 -35.2715 -35.2592 -35.1954 -35.1875
   -10.7290  -3.7376  -3.5969  -2.5496  -2.3035  -1.8804  -1.7475  -1.5639
    -1.3680  -1.3029  -1.2244  -1.1284  -0.9085  -0.6567  -0.3147  -0.2824
    -0.0798  -0.0197   0.0370   0.1517   0.4666   0.5354   0.6202   0.6704
     0.8090   0.9047   1.2463   1.3784   1.5003   1.5163   1.5505   1.6300
     1.6613   1.6863   1.7902   1.9905   2.1562   2.2042   2.2607   2.3040
     2.4274   2.9836   3.0162   3.4174   3.5989   3.7839   3.7912   3.8266
     4.0530

          k =-0.0875 0.0842 0.0000 ( 17692 PWs)   bands (ev):

   -71.5656 -71.5436 -71.5286 -71.5240 -71.5082 -71.5050 -71.4928 -71.4888
   -71.4773 -71.4718 -71.4622 -71.4582 -36.0132 -35.9973 -35.9601 -35.9564
   -35.9438 -35.9293 -35.8924 -35.8442 -35.8066 -35.7896 -35.7775 -35.7390
   -35.7209 -35.6677 -35.6556 -35.6007 -35.5668 -35.5579 -35.5467 -35.5367
   -35.5053 -35.4957 -35.4785 -35.4483 -35.4301 -35.4078 -35.3740 -35.3689
   -35.3479 -35.3386 -35.3042 -35.2957 -35.2897 -35.2537 -35.2388 -35.1902
   -10.7291  -3.9670  -3.0958  -2.5593  -2.3119  -2.1514  -1.8407  -1.6790
    -1.4009  -1.2431  -1.1833  -0.9129  -0.7645  -0.6609  -0.4589  -0.2930
    -0.2304  -0.0649   0.0939   0.3221   0.3356   0.4490   0.5753   0.6532
     0.8544   0.9468   1.0453   1.2043   1.3865   1.4699   1.5288   1.5733
     1.6320   1.7049   1.8458   2.0478   2.1723   2.2535   2.4006   2.5544
     2.6374   2.9423   2.9906   3.1243   3.6081   3.6690   3.7783   3.8331
     3.9988

          k =-0.0875 0.1179 0.0000 ( 17692 PWs)   bands (ev):

   -71.5656 -71.5435 -71.5286 -71.5241 -71.5082 -71.5050 -71.4928 -71.4886
   -71.4775 -71.4715 -71.4625 -71.4581 -36.0131 -35.9973 -35.9601 -35.9564
   -35.9438 -35.9292 -35.8924 -35.8443 -35.8067 -35.7896 -35.7774 -35.7390
   -35.7209 -35.6677 -35.6557 -35.6006 -35.5669 -35.5578 -35.5468 -35.5366
   -35.5053 -35.4957 -35.4785 -35.4482 -35.4301 -35.4078 -35.3741 -35.3689
   -35.3478 -35.3386 -35.3043 -35.2957 -35.2896 -35.2537 -35.2387 -35.1902
   -10.7291  -3.9670  -3.0958  -2.5592  -2.3119  -2.1514  -1.8407  -1.6791
    -1.4008  -1.2431  -1.1833  -0.9130  -0.7644  -0.6610  -0.4589  -0.2931
    -0.2304  -0.0648   0.0938   0.3220   0.3356   0.4490   0.5753   0.6532
     0.8545   0.9468   1.0453   1.2043   1.3865   1.4700   1.5288   1.5733
     1.6320   1.7049   1.8458   2.0478   2.1723   2.2534   2.4007   2.5544
     2.6373   2.9423   2.9906   3.1243   3.6081   3.6691   3.7782   3.8331
     3.9989

          k =-0.0875-0.0505 0.0000 ( 17668 PWs)   bands (ev):

   -71.5626 -71.5508 -71.5240 -71.5168 -71.5149 -71.5102 -71.4884 -71.4828
   -71.4805 -71.4753 -71.4614 -71.4582 -36.0067 -35.9896 -35.9859 -35.9759
   -35.9563 -35.9362 -35.8442 -35.8264 -35.8191 -35.8165 -35.7721 -35.7638
   -35.6702 -35.6182 -35.5907 -35.5775 -35.5743 -35.5730 -35.5607 -35.5458
   -35.5052 -35.4978 -35.4894 -35.4859 -35.4756 -35.4738 -35.3678 -35.3659
   -35.3394 -35.3378 -35.3101 -35.3018 -35.2714 -35.2592 -35.1951 -35.1878
   -10.7290  -3.7376  -3.5969  -2.5495  -2.3036  -1.8804  -1.7476  -1.5638
    -1.3679  -1.3029  -1.2244  -1.1285  -0.9086  -0.6567  -0.3147  -0.2824
    -0.0797  -0.0197   0.0371   0.1516   0.4665   0.5354   0.6203   0.6703
     0.8089   0.9048   1.2463   1.3783   1.5003   1.5163   1.5505   1.6300
     1.6613   1.6863   1.7903   1.9904   2.1562   2.2042   2.2606   2.3040
     2.4274   2.9837   3.0161   3.4175   3.5989   3.7839   3.7913   3.8265
     4.0530

     the Fermi energy is     2.6403 ev

!    total energy              =   -1949.34207360 Ry
     Harris-Foulkes estimate   =   -1949.34207627 Ry
     estimated scf accuracy    <       0.00000699 Ry

     The total energy is the sum of the following terms:

     one-electron contribution =  -15048.31516723 Ry
     hartree contribution      =    7510.68714459 Ry
     xc contribution           =    -519.27684567 Ry
     ewald contribution        =    6107.65835290 Ry
     electric field correction =       0.00000279 Ry
     smearing contrib. (-TS)   =      -0.09556098 Ry

     convergence has been achieved in  16 iterations
 
 BEEF-vdW xc energy contributions
           1 :   -456.684513605684     
           2 :    422.335968568912     
           3 :   -361.838646033781     
           4 :    288.443100708414     
           5 :   -215.967373344630     
           6 :    154.809653687233     
           7 :   -109.708400723076     
           8 :    79.7942461016203     
           9 :   -60.5477021848541     
          10 :    46.5747583205301     
          11 :   -33.9464362689141     
          12 :    21.2528074799591     
          13 :   -9.24863077222557     
          14 :  -0.389491804279032     
          15 :    6.40486091601252     
          16 :   -8.75387895196121     
          17 :    8.59173134123785     
          18 :   -7.61882042544164     
          19 :    7.23084652030764     
          20 :   -7.93562923082391     
          21 :    9.29965997378423     
          22 :   -10.3849621534800     
          23 :    10.3885061235827     
          24 :   -9.12580429069919     
          25 :    7.11991128903719     
          26 :   -5.28585951405347     
          27 :    4.41425606847673     
          28 :   -4.74934348685292     
          29 :    5.88486365793483     
          30 :   -7.01480147587279     
          31 :   -41.5317106828560     
          32 :   -31.0919634865595     

     Forces acting on atoms (Ry/au):


     negative rho (up, down):  7.928E-01 0.000E+00
     atom    1 type  1   force =    -0.00168395   -0.00096020   -0.00249118
     atom    2 type  1   force =     0.00168764   -0.00095893   -0.00251342
     atom    3 type  1   force =     0.00000219    0.00192738   -0.00250285
     atom    4 type  1   force =    -0.00000890   -0.00002008   -0.00186653
     atom    5 type  1   force =    -0.00003826   -0.00030343   -0.00763463
     atom    6 type  1   force =     0.00004543   -0.00003679    0.01251674
     atom    7 type  1   force =     0.00022566    0.00019310   -0.00765491
     atom    8 type  1   force =    -0.00022410    0.00014360   -0.00763055
     atom    9 type  1   force =    -0.00001035    0.00002493   -0.03196178
     atom   10 type  1   force =     0.00000923   -0.06028874    0.01142006
     atom   11 type  1   force =    -0.05223314    0.03014300    0.01140268
     atom   12 type  1   force =     0.05222663    0.03013494    0.01141421
     atom   13 type  2   force =     0.00000193    0.00000122    0.01750218

     Total force =     0.112365     Total SCF correction =     0.009931


     entering subroutine stress ...


     negative rho (up, down):  7.928E-01 0.000E+00
          total   stress  (Ry/bohr**3)                   (kbar)     P=  -40.19
  -0.00038745  -0.00000002   0.00000001        -57.00     -0.00      0.00
  -0.00000002  -0.00038745   0.00000001         -0.00    -57.00      0.00
   0.00000001   0.00000001  -0.00004476          0.00      0.00     -6.58


     BFGS Geometry Optimization

     number of scf cycles    =   1
     number of bfgs steps    =   0

     energy   new            =   -1949.3420736045 Ry

     new trust radius        =       0.0613752580 bohr
     new conv_thr            =       0.0000099958 Ry


ATOMIC_POSITIONS (crystal)
W1       0.166666667   0.166666667   0.405441099    0   0   0
W1       0.666666667   0.166666667   0.405441099    0   0   0
W1       0.166666667   0.666666667   0.405441099    0   0   0
W1       0.666666667   0.666666667   0.405441099    0   0   0
W1       0.833333333   0.333333333   0.500000000    0   0   0
W1       0.333333333   0.333333333   0.500000000    0   0   0
W1       0.833333333   0.833333333   0.500000000    0   0   0
W1       0.333333333   0.833333333   0.500000000    0   0   0
W1      -0.000002292   0.000002667   0.593873160
W1       0.503225088  -0.006448466   0.594803919
W1      -0.006450390   0.503224087   0.594803546
W1       0.503226131   0.503223225   0.594803793
S1       0.333333447   0.333333463   0.665298713



     Writing output data file calc.save
     Check: negative starting charge=   -0.760231
     NEW-OLD atomic charge density approx. for the potential
     Check: negative starting charge=   -0.760959

     negative rho (up, down):  7.939E-01 0.000E+00
 
     Adding external electric field

     Computed dipole along edir(3) : 
        Dipole                0.0325 Ry au,          0.0827 Debye
        Dipole field          0.0001 Ry au
 
        Potential amp.       -0.0079 Ry
        Total length         45.4439 bohr
 

     total cpu time spent up to now is      631.4 secs

     per-process dynamical memory:   159.6 Mb

     Self-consistent Calculation

     iteration #  1     ecut=    36.75 Ry     beta=0.30
     Davidson diagonalization with overlap
     ethr =  1.00E-06,  avg # of iterations =  5.6

     negative rho (up, down):  7.940E-01 0.000E+00
 
     Adding external electric field

     Computed dipole along edir(3) : 
        Dipole               -0.5831 Ry au,         -1.4821 Debye
        Dipole field         -0.0016 Ry au
 
        Potential amp.        0.1416 Ry
        Total length         45.4439 bohr
 

     total cpu time spent up to now is      671.4 secs

     total energy              =   -1949.33033009 Ry
     Harris-Foulkes estimate   =   -1949.35218901 Ry
     estimated scf accuracy    <       0.04570097 Ry

     iteration #  2     ecut=    36.75 Ry     beta=0.30
     Davidson diagonalization with overlap
     ethr =  2.63E-05,  avg # of iterations =  5.3

     negative rho (up, down):  7.940E-01 0.000E+00
 
     Adding external electric field

     Computed dipole along edir(3) : 
        Dipole               -0.0136 Ry au,         -0.0346 Debye
        Dipole field         -0.0000 Ry au
 
        Potential amp.        0.0033 Ry
        Total length         45.4439 bohr
 

     total cpu time spent up to now is      706.8 secs

     total energy              =   -1949.08880361 Ry
     Harris-Foulkes estimate   =   -1949.62464734 Ry
     estimated scf accuracy    <      21.39441406 Ry

     iteration #  3     ecut=    36.75 Ry     beta=0.30
     Davidson diagonalization with overlap
     ethr =  2.63E-05,  avg # of iterations =  5.8

     negative rho (up, down):  7.940E-01 0.000E+00
 
     Adding external electric field

     Computed dipole along edir(3) : 
        Dipole               -0.0077 Ry au,         -0.0195 Debye
        Dipole field         -0.0000 Ry au
 
        Potential amp.        0.0019 Ry
        Total length         45.4439 bohr
 

     total cpu time spent up to now is      742.8 secs

     total energy              =   -1949.35109242 Ry
     Harris-Foulkes estimate   =   -1949.35212025 Ry
     estimated scf accuracy    <       0.00448637 Ry

     iteration #  4     ecut=    36.75 Ry     beta=0.30
     Davidson diagonalization with overlap
     ethr =  2.58E-06,  avg # of iterations =  3.5

     negative rho (up, down):  7.941E-01 0.000E+00
 
     Adding external electric field

     Computed dipole along edir(3) : 
        Dipole               -0.0026 Ry au,         -0.0066 Debye
        Dipole field         -0.0000 Ry au
 
        Potential amp.        0.0006 Ry
        Total length         45.4439 bohr
 

     total cpu time spent up to now is      774.1 secs

     total energy              =   -1949.35165884 Ry
     Harris-Foulkes estimate   =   -1949.35174730 Ry
     estimated scf accuracy    <       0.00045966 Ry

     iteration #  5     ecut=    36.75 Ry     beta=0.30
     Davidson diagonalization with overlap
     ethr =  2.64E-07,  avg # of iterations =  3.6

     negative rho (up, down):  7.941E-01 0.000E+00
 
     Adding external electric field

     Computed dipole along edir(3) : 
        Dipole               -0.0048 Ry au,         -0.0121 Debye
        Dipole field         -0.0000 Ry au
 
        Potential amp.        0.0012 Ry
        Total length         45.4439 bohr
 

     total cpu time spent up to now is      805.1 secs

     total energy              =   -1949.35169265 Ry
     Harris-Foulkes estimate   =   -1949.35172870 Ry
     estimated scf accuracy    <       0.00021661 Ry

     iteration #  6     ecut=    36.75 Ry     beta=0.30
     Davidson diagonalization with overlap
     ethr =  1.24E-07,  avg # of iterations =  3.1

     negative rho (up, down):  7.941E-01 0.000E+00
 
     Adding external electric field

     Computed dipole along edir(3) : 
        Dipole               -0.0059 Ry au,         -0.0151 Debye
        Dipole field         -0.0000 Ry au
 
        Potential amp.        0.0014 Ry
        Total length         45.4439 bohr
 

     total cpu time spent up to now is      835.6 secs

     total energy              =   -1949.34960816 Ry
     Harris-Foulkes estimate   =   -1949.35172635 Ry
     estimated scf accuracy    <       0.00018729 Ry

     iteration #  7     ecut=    36.75 Ry     beta=0.30
     Davidson diagonalization with overlap
     ethr =  1.08E-07,  avg # of iterations =  3.0

     negative rho (up, down):  7.941E-01 0.000E+00
 
     Adding external electric field

     Computed dipole along edir(3) : 
        Dipole               -0.0067 Ry au,         -0.0171 Debye
        Dipole field         -0.0000 Ry au
 
        Potential amp.        0.0016 Ry
        Total length         45.4439 bohr
 

     total cpu time spent up to now is      865.6 secs

     total energy              =   -1949.35171718 Ry
     Harris-Foulkes estimate   =   -1949.34962645 Ry
     estimated scf accuracy    <       0.00004868 Ry

     iteration #  8     ecut=    36.75 Ry     beta=0.30
     Davidson diagonalization with overlap
     ethr =  2.80E-08,  avg # of iterations =  3.0

     negative rho (up, down):  7.942E-01 0.000E+00

     negative rho (up, down):  7.942E-01 0.000E+00

     negative rho (up, down):  7.942E-01 0.000E+00

     negative rho (up, down):  7.942E-01 0.000E+00

     negative rho (up, down):  7.942E-01 0.000E+00

     negative rho (up, down):  7.942E-01 0.000E+00

     negative rho (up, down):  7.942E-01 0.000E+00

     negative rho (up, down):  7.942E-01 0.000E+00

     negative rho (up, down):  7.942E-01 0.000E+00

     negative rho (up, down):  7.942E-01 0.000E+00

     negative rho (up, down):  7.942E-01 0.000E+00

     negative rho (up, down):  7.942E-01 0.000E+00

     negative rho (up, down):  7.942E-01 0.000E+00

     negative rho (up, down):  7.942E-01 0.000E+00

     negative rho (up, down):  7.942E-01 0.000E+00

     negative rho (up, down):  7.942E-01 0.000E+00

     negative rho (up, down):  7.942E-01 0.000E+00

     negative rho (up, down):  7.942E-01 0.000E+00

     negative rho (up, down):  7.942E-01 0.000E+00

     negative rho (up, down):  7.942E-01 0.000E+00

     negative rho (up, down):  7.942E-01 0.000E+00

     negative rho (up, down):  7.942E-01 0.000E+00

     negative rho (up, down):  7.942E-01 0.000E+00

     negative rho (up, down):  7.942E-01 0.000E+00

     negative rho (up, down):  7.942E-01 0.000E+00

     negative rho (up, down):  7.942E-01 0.000E+00

     negative rho (up, down):  7.942E-01 0.000E+00

     negative rho (up, down):  7.942E-01 0.000E+00

     negative rho (up, down):  7.942E-01 0.000E+00

     negative rho (up, down):  7.942E-01 0.000E+00

     negative rho (up, down):  7.942E-01 0.000E+00

     negative rho (up, down):  7.942E-01 0.000E+00

     negative rho (up, down):  7.942E-01 0.000E+00

     negative rho (up, down):  7.942E-01 0.000E+00

     negative rho (up, down):  7.942E-01 0.000E+00
 
     Adding external electric field

     Computed dipole along edir(3) : 
        Dipole                0.0071 Ry au,          0.0180 Debye
        Dipole field          0.0000 Ry au
 
        Potential amp.       -0.0017 Ry
        Total length         45.4439 bohr
 

     total cpu time spent up to now is      943.3 secs

     End of self-consistent calculation

          k = 0.0000 0.0000 0.0000 ( 17753 PWs)   bands (ev):

   -71.6146 -71.5727 -71.5443 -71.5276 -71.5252 -71.5251 -71.5017 -71.4966
   -71.4966 -71.4844 -71.4800 -71.4799 -36.1938 -36.1632 -36.1632 -36.1351
   -36.0930 -36.0879 -36.0879 -35.9968 -35.9851 -35.9851 -35.7817 -35.6768
   -35.6641 -35.6641 -35.6245 -35.6126 -35.6126 -35.5014 -35.5013 -35.4884
   -35.4201 -35.4095 -35.4095 -35.3858 -35.3858 -35.3625 -35.3408 -35.2977
   -35.2976 -35.2927 -35.2633 -35.2633 -35.1897 -35.1897 -35.1249 -35.1249
   -10.6919  -5.4988  -3.7667  -3.0314  -2.6404  -2.6404  -2.5479  -2.3604
    -2.3097  -2.3097  -1.7086  -1.6933  -1.6933  -1.3730  -1.3666  -1.3666
    -0.7010  -0.7010  -0.4341   0.2992   0.2992   0.5939   1.2540   1.3279
     1.3279   1.6007   1.8942   2.0376   2.0376   2.2110   2.2588   2.2588
     2.4136   2.4136   2.4555   2.5158   2.5380   2.5380   2.7088   2.7088
     3.3206   3.4088   3.4088   3.9644   4.2632   4.3067   4.3067   4.3904
     4.3904

          k = 0.0000 0.0337 0.0000 ( 17716 PWs)   bands (ev):

   -71.6095 -71.5684 -71.5461 -71.5288 -71.5252 -71.5240 -71.5048 -71.4993
   -71.4966 -71.4850 -71.4814 -71.4799 -36.1605 -36.1340 -36.1198 -36.1103
   -36.0673 -36.0615 -36.0514 -35.9664 -35.9565 -35.9382 -35.7798 -35.7097
   -35.6901 -35.6849 -35.6113 -35.5994 -35.5962 -35.5215 -35.5153 -35.4806
   -35.4590 -35.4405 -35.3969 -35.3822 -35.3803 -35.3607 -35.3557 -35.3263
   -35.3242 -35.3124 -35.2852 -35.2788 -35.2348 -35.2016 -35.1782 -35.1361
   -10.6742  -5.2535  -3.5423  -2.7886  -2.6416  -2.4763  -2.3828  -2.2665
    -2.1468  -2.1077  -1.6627  -1.5041  -1.4635  -1.2525  -1.2049  -1.1825
    -0.6720  -0.6274  -0.3340   0.3345   0.3355   0.5626   1.0930   1.3888
     1.3891   1.5432   1.6840   1.7498   1.9059   1.9330   2.0984   2.2731
     2.2818   2.3599   2.4596   2.4759   2.5272   2.5679   2.6659   2.8611
     3.0530   3.1538   3.2066   3.5324   3.7557   3.8339   4.0857   4.0940
     4.3626

          k = 0.0000 0.0674 0.0000 ( 17708 PWs)   bands (ev):

   -71.5960 -71.5596 -71.5515 -71.5338 -71.5252 -71.5181 -71.5146 -71.5002
   -71.4967 -71.4909 -71.4825 -71.4798 -36.0844 -36.0600 -36.0588 -36.0107
   -36.0006 -35.9894 -35.9733 -35.8990 -35.8875 -35.8116 -35.7847 -35.7419
   -35.7374 -35.7271 -35.5960 -35.5794 -35.5769 -35.5618 -35.5519 -35.5290
   -35.5112 -35.4781 -35.4415 -35.4296 -35.4227 -35.4186 -35.3629 -35.3602
   -35.3560 -35.3496 -35.3296 -35.3219 -35.2779 -35.2536 -35.2353 -35.1673
   -10.6391  -4.5794  -3.0541  -2.8462  -2.2674  -2.1177  -2.0759  -1.8427
    -1.6937  -1.6429  -1.4587  -1.1737  -1.0595  -0.8889  -0.7834  -0.6814
    -0.5064  -0.2613  -0.0380   0.3386   0.4017   0.4736   0.6794   0.9769
     1.0639   1.1907   1.3056   1.4490   1.7059   1.7634   1.8313   1.9367
     1.9890   2.0030   2.1308   2.3191   2.4384   2.4835   2.5734   2.7189
     2.7630   2.8435   2.9190   2.9428   2.9810   3.5210   3.6507   3.8449
     4.2969

          k = 0.0000-0.1011 0.0000 ( 17668 PWs)   bands (ev):

   -71.5832 -71.5682 -71.5411 -71.5369 -71.5303 -71.5252 -71.5044 -71.5020
   -71.4988 -71.4967 -71.4826 -71.4797 -36.0283 -36.0084 -36.0063 -35.9924
   -35.9652 -35.9625 -35.8585 -35.8445 -35.8363 -35.8357 -35.7867 -35.7814
   -35.6894 -35.6455 -35.6074 -35.5943 -35.5904 -35.5852 -35.5689 -35.5609
   -35.5210 -35.5120 -35.5076 -35.5059 -35.5001 -35.4953 -35.3884 -35.3804
   -35.3611 -35.3562 -35.3262 -35.3200 -35.2899 -35.2761 -35.2118 -35.2085
   -10.6219  -3.7560  -3.6056  -2.5360  -2.2746  -1.7932  -1.7157  -1.5498
    -1.3942  -1.3122  -1.2597  -1.1191  -0.8716  -0.6628  -0.3397  -0.2964
    -0.0983  -0.0267   0.0040   0.1474   0.4432   0.5245   0.5994   0.6420
     0.7866   0.8613   1.2159   1.3451   1.4514   1.4906   1.5249   1.6270
     1.6357   1.6393   1.7836   1.9333   2.1432   2.1818   2.2481   2.3288
     2.4011   2.9359   3.0312   3.4246   3.5360   3.7745   3.7775   3.8127
     4.0528

          k = 0.0292-0.0168 0.0000 ( 17716 PWs)   bands (ev):

   -71.6095 -71.5684 -71.5461 -71.5288 -71.5252 -71.5240 -71.5048 -71.4993
   -71.4966 -71.4850 -71.4813 -71.4799 -36.1605 -36.1340 -36.1198 -36.1103
   -36.0673 -36.0615 -36.0514 -35.9664 -35.9564 -35.9382 -35.7798 -35.7096
   -35.6901 -35.6849 -35.6113 -35.5994 -35.5962 -35.5216 -35.5153 -35.4806
   -35.4590 -35.4405 -35.3969 -35.3822 -35.3803 -35.3607 -35.3557 -35.3263
   -35.3242 -35.3124 -35.2852 -35.2788 -35.2348 -35.2016 -35.1782 -35.1361
   -10.6742  -5.2535  -3.5423  -2.7886  -2.6416  -2.4763  -2.3828  -2.2665
    -2.1468  -2.1077  -1.6627  -1.5041  -1.4635  -1.2525  -1.2049  -1.1825
    -0.6720  -0.6274  -0.3340   0.3345   0.3355   0.5626   1.0930   1.3888
     1.3891   1.5432   1.6840   1.7498   1.9059   1.9330   2.0984   2.2730
     2.2818   2.3599   2.4596   2.4759   2.5272   2.5679   2.6659   2.8611
     3.0530   3.1538   3.2066   3.5324   3.7557   3.8339   4.0857   4.0940
     4.3626

          k = 0.0292 0.0168 0.0000 ( 17716 PWs)   bands (ev):

   -71.6095 -71.5684 -71.5461 -71.5288 -71.5252 -71.5240 -71.5047 -71.4993
   -71.4966 -71.4850 -71.4814 -71.4799 -36.1605 -36.1340 -36.1198 -36.1103
   -36.0673 -36.0615 -36.0514 -35.9664 -35.9565 -35.9382 -35.7798 -35.7096
   -35.6901 -35.6849 -35.6113 -35.5994 -35.5962 -35.5216 -35.5153 -35.4806
   -35.4590 -35.4405 -35.3969 -35.3822 -35.3803 -35.3607 -35.3557 -35.3263
   -35.3242 -35.3124 -35.2852 -35.2788 -35.2348 -35.2016 -35.1782 -35.1361
   -10.6742  -5.2535  -3.5423  -2.7886  -2.6416  -2.4763  -2.3828  -2.2665
    -2.1468  -2.1077  -1.6627  -1.5041  -1.4635  -1.2525  -1.2049  -1.1825
    -0.6720  -0.6274  -0.3340   0.3345   0.3355   0.5626   1.0930   1.3888
     1.3891   1.5432   1.6840   1.7498   1.9059   1.9331   2.0984   2.2730
     2.2818   2.3599   2.4596   2.4759   2.5272   2.5680   2.6659   2.8611
     3.0530   3.1538   3.2066   3.5324   3.7557   3.8339   4.0857   4.0940
     4.3626

          k = 0.0292 0.0505 0.0000 ( 17715 PWs)   bands (ev):

   -71.6002 -71.5610 -71.5494 -71.5355 -71.5237 -71.5180 -71.5093 -71.5078
   -71.4930 -71.4871 -71.4848 -71.4792 -36.1106 -36.0780 -36.0565 -36.0462
   -36.0255 -36.0053 -35.9990 -35.9264 -35.8798 -35.8670 -35.7815 -35.7394
   -35.7303 -35.7173 -35.6103 -35.5842 -35.5823 -35.5677 -35.5454 -35.4929
   -35.4791 -35.4416 -35.4281 -35.4159 -35.4104 -35.3948 -35.3755 -35.3632
   -35.3432 -35.3192 -35.3064 -35.2995 -35.2980 -35.2539 -35.2223 -35.1639
   -10.6478  -4.7904  -3.1495  -2.5900  -2.5014  -2.3205  -2.1200  -2.0467
    -1.8657  -1.7148  -1.5135  -1.2187  -1.1411  -1.0254  -0.9149  -0.8224
    -0.5585  -0.4420  -0.1210   0.3279   0.3764   0.5554   0.8009   1.1661
     1.2183   1.3025   1.3902   1.4074   1.6668   1.8424   1.8949   2.0090
     2.0977   2.1580   2.2517   2.3794   2.5329   2.5910   2.7157   2.7472
     2.8187   2.8779   2.9319   3.0323   3.2329   3.3377   3.7211   3.9846
     4.1637

          k = 0.0292-0.1179 0.0000 ( 17692 PWs)   bands (ev):

   -71.5855 -71.5624 -71.5460 -71.5400 -71.5255 -71.5210 -71.5115 -71.5067
   -71.4953 -71.4896 -71.4871 -71.4787 -36.0336 -36.0167 -35.9801 -35.9728
   -35.9581 -35.9506 -35.9103 -35.8633 -35.8182 -35.8066 -35.7967 -35.7555
   -35.7425 -35.6865 -35.6705 -35.6164 -35.5866 -35.5715 -35.5620 -35.5543
   -35.5208 -35.5158 -35.4951 -35.4677 -35.4475 -35.4267 -35.3929 -35.3874
   -35.3640 -35.3595 -35.3227 -35.3124 -35.3086 -35.2712 -35.2571 -35.2089
   -10.6219  -3.9830  -3.1030  -2.5489  -2.2949  -2.1169  -1.7992  -1.6453
    -1.3968  -1.2433  -1.1821  -0.9246  -0.7597  -0.6663  -0.4703  -0.3127
    -0.2395  -0.0863   0.0755   0.3005   0.3265   0.4218   0.5463   0.6391
     0.8276   0.9156   1.0157   1.1810   1.3491   1.4456   1.4752   1.5481
     1.6285   1.6832   1.8294   2.0286   2.1397   2.2338   2.3844   2.5386
     2.6220   2.9204   2.9723   3.1167   3.5924   3.6414   3.7600   3.8222
     4.0117

          k = 0.0292-0.0842 0.0000 ( 17692 PWs)   bands (ev):

   -71.5855 -71.5624 -71.5460 -71.5400 -71.5255 -71.5210 -71.5115 -71.5067
   -71.4953 -71.4896 -71.4870 -71.4787 -36.0336 -36.0167 -35.9801 -35.9728
   -35.9581 -35.9506 -35.9103 -35.8633 -35.8182 -35.8067 -35.7967 -35.7555
   -35.7425 -35.6865 -35.6705 -35.6164 -35.5866 -35.5715 -35.5620 -35.5543
   -35.5208 -35.5158 -35.4951 -35.4677 -35.4475 -35.4267 -35.3929 -35.3874
   -35.3640 -35.3595 -35.3227 -35.3124 -35.3086 -35.2712 -35.2571 -35.2089
   -10.6219  -3.9830  -3.1030  -2.5489  -2.2949  -2.1169  -1.7992  -1.6453
    -1.3968  -1.2433  -1.1821  -0.9246  -0.7597  -0.6663  -0.4702  -0.3127
    -0.2395  -0.0863   0.0755   0.3005   0.3265   0.4218   0.5463   0.6391
     0.8276   0.9156   1.0157   1.1810   1.3491   1.4456   1.4752   1.5481
     1.6285   1.6832   1.8294   2.0286   2.1397   2.2338   2.3844   2.5386
     2.6220   2.9204   2.9723   3.1167   3.5924   3.6414   3.7600   3.8222
     4.0117

          k = 0.0292-0.0505 0.0000 ( 17715 PWs)   bands (ev):

   -71.6002 -71.5610 -71.5494 -71.5355 -71.5237 -71.5179 -71.5094 -71.5078
   -71.4930 -71.4871 -71.4848 -71.4793 -36.1106 -36.0780 -36.0565 -36.0462
   -36.0255 -36.0053 -35.9990 -35.9264 -35.8798 -35.8670 -35.7815 -35.7394
   -35.7303 -35.7173 -35.6103 -35.5842 -35.5823 -35.5677 -35.5454 -35.4929
   -35.4791 -35.4417 -35.4281 -35.4159 -35.4104 -35.3948 -35.3754 -35.3632
   -35.3432 -35.3192 -35.3064 -35.2995 -35.2980 -35.2539 -35.2223 -35.1639
   -10.6478  -4.7904  -3.1495  -2.5900  -2.5014  -2.3205  -2.1200  -2.0467
    -1.8657  -1.7148  -1.5135  -1.2187  -1.1411  -1.0254  -0.9149  -0.8224
    -0.5585  -0.4420  -0.1210   0.3279   0.3764   0.5554   0.8009   1.1661
     1.2183   1.3025   1.3902   1.4074   1.6668   1.8424   1.8949   2.0090
     2.0977   2.1580   2.2517   2.3794   2.5329   2.5910   2.7157   2.7472
     2.8187   2.8779   2.9319   3.0323   3.2329   3.3377   3.7211   3.9846
     4.1637

          k = 0.0583-0.0337 0.0000 ( 17708 PWs)   bands (ev):

   -71.5960 -71.5596 -71.5515 -71.5338 -71.5252 -71.5181 -71.5147 -71.5002
   -71.4967 -71.4910 -71.4825 -71.4799 -36.0844 -36.0600 -36.0588 -36.0107
   -36.0006 -35.9894 -35.9733 -35.8990 -35.8874 -35.8116 -35.7847 -35.7419
   -35.7374 -35.7271 -35.5960 -35.5794 -35.5768 -35.5618 -35.5519 -35.5290
   -35.5113 -35.4781 -35.4415 -35.4296 -35.4227 -35.4186 -35.3629 -35.3602
   -35.3561 -35.3496 -35.3296 -35.3219 -35.2779 -35.2536 -35.2353 -35.1673
   -10.6391  -4.5794  -3.0541  -2.8462  -2.2674  -2.1177  -2.0759  -1.8427
    -1.6937  -1.6429  -1.4587  -1.1737  -1.0595  -0.8889  -0.7834  -0.6814
    -0.5064  -0.2613  -0.0380   0.3386   0.4017   0.4736   0.6794   0.9769
     1.0639   1.1906   1.3056   1.4490   1.7059   1.7634   1.8313   1.9367
     1.9890   2.0030   2.1308   2.3191   2.4385   2.4835   2.5734   2.7189
     2.7630   2.8435   2.9190   2.9428   2.9810   3.5210   3.6507   3.8449
     4.2969

          k = 0.0583-0.0000 0.0000 ( 17715 PWs)   bands (ev):

   -71.6002 -71.5610 -71.5494 -71.5355 -71.5237 -71.5180 -71.5093 -71.5078
   -71.4930 -71.4871 -71.4848 -71.4793 -36.1106 -36.0780 -36.0565 -36.0462
   -36.0254 -36.0053 -35.9990 -35.9264 -35.8798 -35.8670 -35.7815 -35.7394
   -35.7303 -35.7173 -35.6103 -35.5842 -35.5823 -35.5677 -35.5454 -35.4929
   -35.4791 -35.4417 -35.4280 -35.4159 -35.4104 -35.3948 -35.3755 -35.3632
   -35.3432 -35.3192 -35.3064 -35.2995 -35.2980 -35.2539 -35.2223 -35.1639
   -10.6478  -4.7904  -3.1495  -2.5900  -2.5014  -2.3205  -2.1200  -2.0467
    -1.8657  -1.7148  -1.5135  -1.2187  -1.1411  -1.0254  -0.9149  -0.8224
    -0.5585  -0.4420  -0.1210   0.3279   0.3764   0.5554   0.8009   1.1661
     1.2183   1.3025   1.3902   1.4074   1.6668   1.8424   1.8949   2.0090
     2.0977   2.1580   2.2517   2.3794   2.5329   2.5910   2.7157   2.7472
     2.8187   2.8779   2.9319   3.0323   3.2329   3.3377   3.7211   3.9846
     4.1637

          k = 0.0583 0.0337 0.0000 ( 17708 PWs)   bands (ev):

   -71.5960 -71.5596 -71.5515 -71.5338 -71.5252 -71.5182 -71.5146 -71.5002
   -71.4966 -71.4910 -71.4825 -71.4798 -36.0844 -36.0600 -36.0588 -36.0107
   -36.0006 -35.9894 -35.9733 -35.8990 -35.8875 -35.8116 -35.7847 -35.7419
   -35.7374 -35.7271 -35.5960 -35.5794 -35.5769 -35.5619 -35.5519 -35.5290
   -35.5112 -35.4781 -35.4415 -35.4296 -35.4227 -35.4186 -35.3629 -35.3602
   -35.3561 -35.3496 -35.3296 -35.3219 -35.2779 -35.2536 -35.2353 -35.1673
   -10.6391  -4.5794  -3.0541  -2.8462  -2.2674  -2.1177  -2.0759  -1.8427
    -1.6937  -1.6429  -1.4587  -1.1737  -1.0595  -0.8889  -0.7834  -0.6814
    -0.5064  -0.2613  -0.0380   0.3386   0.4017   0.4736   0.6794   0.9769
     1.0639   1.1906   1.3056   1.4490   1.7059   1.7634   1.8313   1.9367
     1.9890   2.0030   2.1308   2.3191   2.4384   2.4835   2.5734   2.7189
     2.7630   2.8435   2.9190   2.9428   2.9810   3.5210   3.6507   3.8449
     4.2969

          k = 0.0583-0.1347 0.0000 ( 17692 PWs)   bands (ev):

   -71.5855 -71.5623 -71.5460 -71.5400 -71.5255 -71.5210 -71.5115 -71.5067
   -71.4953 -71.4897 -71.4870 -71.4787 -36.0336 -36.0167 -35.9801 -35.9728
   -35.9581 -35.9506 -35.9103 -35.8633 -35.8182 -35.8066 -35.7967 -35.7555
   -35.7425 -35.6865 -35.6705 -35.6164 -35.5866 -35.5715 -35.5620 -35.5543
   -35.5208 -35.5158 -35.4951 -35.4677 -35.4475 -35.4267 -35.3929 -35.3874
   -35.3640 -35.3595 -35.3227 -35.3124 -35.3086 -35.2712 -35.2571 -35.2089
   -10.6219  -3.9830  -3.1030  -2.5489  -2.2949  -2.1169  -1.7992  -1.6453
    -1.3967  -1.2433  -1.1821  -0.9246  -0.7597  -0.6663  -0.4703  -0.3127
    -0.2395  -0.0863   0.0755   0.3005   0.3265   0.4218   0.5463   0.6391
     0.8276   0.9156   1.0157   1.1810   1.3491   1.4456   1.4752   1.5481
     1.6285   1.6832   1.8294   2.0285   2.1397   2.2338   2.3844   2.5386
     2.6220   2.9204   2.9723   3.1167   3.5924   3.6414   3.7600   3.8222
     4.0117

          k = 0.0583-0.1011 0.0000 ( 17592 PWs)   bands (ev):

   -71.5778 -71.5622 -71.5532 -71.5286 -71.5282 -71.5264 -71.5181 -71.4973
   -71.4973 -71.4954 -71.4857 -71.4786 -35.9856 -35.9665 -35.9511 -35.9361
   -35.9346 -35.9080 -35.8777 -35.8748 -35.8730 -35.7866 -35.7540 -35.7228
   -35.7169 -35.7071 -35.6939 -35.6461 -35.6420 -35.6365 -35.5613 -35.5550
   -35.5535 -35.5483 -35.5295 -35.4264 -35.4217 -35.4178 -35.4070 -35.3647
   -35.3638 -35.3543 -35.3440 -35.3271 -35.3243 -35.2713 -35.2699 -35.2658
   -10.6133  -3.2446  -3.0815  -3.0368  -2.1158  -2.0092  -2.0074  -1.2872
    -1.2850  -0.9815  -0.6535  -0.6112  -0.5211  -0.4759  -0.3687  -0.2370
    -0.0189  -0.0174  -0.0008   0.1408   0.1502   0.2937   0.3566   0.5032
     0.5742   0.8081   0.8257   0.9629   1.0300   1.1241   1.1841   1.3085
     1.3777   1.5070   1.8582   1.8693   2.0765   2.3415   2.4348   2.4423
     2.7877   2.8996   2.9850   3.2343   3.2953   3.3851   3.8921   3.9373
     4.0576

          k = 0.0583-0.0674 0.0000 ( 17692 PWs)   bands (ev):

   -71.5855 -71.5624 -71.5460 -71.5400 -71.5255 -71.5210 -71.5115 -71.5067
   -71.4953 -71.4897 -71.4870 -71.4787 -36.0336 -36.0167 -35.9801 -35.9728
   -35.9581 -35.9506 -35.9103 -35.8633 -35.8182 -35.8066 -35.7967 -35.7555
   -35.7425 -35.6865 -35.6705 -35.6164 -35.5866 -35.5715 -35.5620 -35.5543
   -35.5208 -35.5158 -35.4951 -35.4677 -35.4475 -35.4267 -35.3929 -35.3874
   -35.3640 -35.3595 -35.3227 -35.3124 -35.3086 -35.2712 -35.2571 -35.2089
   -10.6219  -3.9830  -3.1030  -2.5489  -2.2949  -2.1169  -1.7992  -1.6453
    -1.3967  -1.2433  -1.1821  -0.9246  -0.7597  -0.6663  -0.4703  -0.3127
    -0.2395  -0.0863   0.0755   0.3005   0.3265   0.4218   0.5463   0.6391
     0.8277   0.9156   1.0157   1.1810   1.3491   1.4456   1.4752   1.5481
     1.6285   1.6832   1.8294   2.0286   2.1397   2.2338   2.3844   2.5386
     2.6220   2.9204   2.9723   3.1167   3.5924   3.6414   3.7600   3.8222
     4.0117

          k =-0.0875 0.0505 0.0000 ( 17668 PWs)   bands (ev):

   -71.5832 -71.5682 -71.5412 -71.5368 -71.5304 -71.5252 -71.5044 -71.5020
   -71.4988 -71.4967 -71.4825 -71.4798 -36.0283 -36.0084 -36.0064 -35.9924
   -35.9652 -35.9625 -35.8585 -35.8445 -35.8363 -35.8357 -35.7866 -35.7814
   -35.6894 -35.6455 -35.6074 -35.5943 -35.5904 -35.5852 -35.5689 -35.5609
   -35.5211 -35.5120 -35.5076 -35.5059 -35.5000 -35.4954 -35.3884 -35.3804
   -35.3611 -35.3562 -35.3262 -35.3200 -35.2899 -35.2761 -35.2117 -35.2085
   -10.6219  -3.7560  -3.6056  -2.5360  -2.2746  -1.7931  -1.7157  -1.5498
    -1.3941  -1.3122  -1.2597  -1.1190  -0.8716  -0.6628  -0.3397  -0.2964
    -0.0983  -0.0267   0.0040   0.1474   0.4432   0.5245   0.5995   0.6420
     0.7866   0.8613   1.2159   1.3451   1.4513   1.4906   1.5249   1.6270
     1.6357   1.6393   1.7836   1.9333   2.1432   2.1818   2.2481   2.3288
     2.4011   2.9359   3.0312   3.4246   3.5360   3.7745   3.7775   3.8127
     4.0527

          k =-0.0875 0.0842 0.0000 ( 17692 PWs)   bands (ev):

   -71.5855 -71.5623 -71.5460 -71.5399 -71.5255 -71.5210 -71.5115 -71.5067
   -71.4953 -71.4897 -71.4870 -71.4787 -36.0336 -36.0167 -35.9801 -35.9728
   -35.9581 -35.9506 -35.9103 -35.8633 -35.8182 -35.8067 -35.7967 -35.7555
   -35.7425 -35.6865 -35.6705 -35.6164 -35.5866 -35.5715 -35.5620 -35.5543
   -35.5208 -35.5158 -35.4951 -35.4677 -35.4475 -35.4267 -35.3929 -35.3874
   -35.3640 -35.3595 -35.3227 -35.3124 -35.3086 -35.2712 -35.2571 -35.2089
   -10.6219  -3.9830  -3.1030  -2.5489  -2.2949  -2.1169  -1.7992  -1.6453
    -1.3967  -1.2433  -1.1821  -0.9246  -0.7597  -0.6663  -0.4703  -0.3127
    -0.2395  -0.0863   0.0755   0.3005   0.3265   0.4218   0.5463   0.6391
     0.8277   0.9156   1.0157   1.1810   1.3491   1.4456   1.4752   1.5481
     1.6285   1.6832   1.8294   2.0286   2.1397   2.2338   2.3844   2.5386
     2.6220   2.9204   2.9723   3.1167   3.5924   3.6414   3.7600   3.8222
     4.0117

          k =-0.0875 0.1179 0.0000 ( 17692 PWs)   bands (ev):

   -71.5855 -71.5623 -71.5460 -71.5400 -71.5255 -71.5210 -71.5115 -71.5067
   -71.4953 -71.4897 -71.4870 -71.4787 -36.0336 -36.0167 -35.9801 -35.9728
   -35.9582 -35.9506 -35.9103 -35.8633 -35.8182 -35.8067 -35.7967 -35.7555
   -35.7425 -35.6865 -35.6705 -35.6164 -35.5866 -35.5715 -35.5620 -35.5543
   -35.5208 -35.5158 -35.4951 -35.4677 -35.4475 -35.4267 -35.3929 -35.3874
   -35.3640 -35.3595 -35.3227 -35.3124 -35.3086 -35.2712 -35.2571 -35.2089
   -10.6219  -3.9830  -3.1030  -2.5489  -2.2949  -2.1169  -1.7992  -1.6453
    -1.3968  -1.2433  -1.1821  -0.9246  -0.7597  -0.6663  -0.4703  -0.3127
    -0.2395  -0.0863   0.0755   0.3005   0.3265   0.4218   0.5463   0.6392
     0.8276   0.9156   1.0157   1.1810   1.3491   1.4456   1.4752   1.5481
     1.6285   1.6832   1.8294   2.0286   2.1397   2.2338   2.3844   2.5386
     2.6220   2.9204   2.9723   3.1167   3.5924   3.6413   3.7600   3.8222
     4.0117

          k =-0.0875-0.0505 0.0000 ( 17668 PWs)   bands (ev):

   -71.5832 -71.5682 -71.5411 -71.5368 -71.5304 -71.5252 -71.5044 -71.5019
   -71.4989 -71.4967 -71.4826 -71.4797 -36.0283 -36.0084 -36.0064 -35.9924
   -35.9652 -35.9625 -35.8585 -35.8445 -35.8363 -35.8357 -35.7866 -35.7814
   -35.6894 -35.6455 -35.6074 -35.5943 -35.5904 -35.5852 -35.5689 -35.5608
   -35.5211 -35.5120 -35.5076 -35.5059 -35.5001 -35.4953 -35.3884 -35.3804
   -35.3612 -35.3562 -35.3262 -35.3200 -35.2899 -35.2761 -35.2117 -35.2085
   -10.6219  -3.7560  -3.6056  -2.5360  -2.2746  -1.7932  -1.7157  -1.5498
    -1.3942  -1.3122  -1.2597  -1.1191  -0.8716  -0.6628  -0.3397  -0.2964
    -0.0983  -0.0267   0.0040   0.1474   0.4432   0.5245   0.5994   0.6420
     0.7867   0.8613   1.2159   1.3451   1.4514   1.4906   1.5249   1.6270
     1.6357   1.6393   1.7836   1.9333   2.1432   2.1818   2.2481   2.3288
     2.4011   2.9360   3.0312   3.4246   3.5360   3.7745   3.7775   3.8127
     4.0528

     the Fermi energy is     2.6221 ev

!    total energy              =   -1949.35171979 Ry
     Harris-Foulkes estimate   =   -1949.35172208 Ry
     estimated scf accuracy    <       0.00000591 Ry

     The total energy is the sum of the following terms:

     one-electron contribution =  -15043.80868164 Ry
     hartree contribution      =    7508.33959365 Ry
     xc contribution           =    -519.25478209 Ry
     ewald contribution        =    6105.46719652 Ry
     electric field correction =       0.00000013 Ry
     smearing contrib. (-TS)   =      -0.09504635 Ry

     convergence has been achieved in   8 iterations
 
 BEEF-vdW xc energy contributions
           1 :   -456.662722239077     
           2 :    422.306805296591     
           3 :   -361.798189579773     
           4 :    288.392328821961     
           5 :   -215.911532621793     
           6 :    154.755813189628     
           7 :   -109.662197517352     
           8 :    79.7574756271487     
           9 :   -60.5181171835404     
          10 :    46.5483100071199     
          11 :   -33.9206881551107     
          12 :    21.2293905552825     
          13 :   -9.23289840346655     
          14 :  -0.391568150116484     
          15 :    6.39050131748667     
          16 :   -8.72576036918321     
          17 :    8.55743842165901     
          18 :   -7.58763491311328     
          19 :    7.20955815070323     
          20 :   -7.92573859111064     
          21 :    9.29754734869510     
          22 :   -10.3848346764103     
          23 :    10.3863261059390     
          24 :   -9.12191239255742     
          25 :    7.11884108008451     
          26 :   -5.29338896034170     
          27 :    4.43334883627978     
          28 :   -4.77742070701208     
          29 :    5.91415271219438     
          30 :   -7.03578685316057     
          31 :   -41.5303671832737     
          32 :   -31.0884646181947     

     Forces acting on atoms (Ry/au):


     negative rho (up, down):  7.942E-01 0.000E+00
     atom    1 type  1   force =    -0.00198593   -0.00114746   -0.00308679
     atom    2 type  1   force =     0.00198689   -0.00115594   -0.00311020
     atom    3 type  1   force =    -0.00000629    0.00229712   -0.00307573
     atom    4 type  1   force =     0.00000598    0.00000593   -0.00198360
     atom    5 type  1   force =     0.00001541   -0.00038880   -0.00926699
     atom    6 type  1   force =    -0.00001929    0.00002113    0.02450090
     atom    7 type  1   force =     0.00034789    0.00017505   -0.00927815
     atom    8 type  1   force =    -0.00034873    0.00019408   -0.00927990
     atom    9 type  1   force =     0.00000673   -0.00001465   -0.02920166
     atom   10 type  1   force =    -0.00000688   -0.02828643    0.01426559
     atom   11 type  1   force =    -0.02448007    0.01414396    0.01426876
     atom   12 type  1   force =     0.02448336    0.01415399    0.01427363
     atom   13 type  2   force =     0.00000093    0.00000202    0.00097415

     Total force =     0.062159     Total SCF correction =     0.009744
     SCF correction compared to forces is large: reduce conv_thr to get better values


     entering subroutine stress ...


     negative rho (up, down):  7.942E-01 0.000E+00
          total   stress  (Ry/bohr**3)                   (kbar)     P=  -41.29
  -0.00039202   0.00000000   0.00000000        -57.67      0.00      0.00
   0.00000000  -0.00039201   0.00000000          0.00    -57.67      0.00
   0.00000000   0.00000000  -0.00005797          0.00      0.00     -8.53


     number of scf cycles    =   2
     number of bfgs steps    =   1

     energy   old            =   -1949.3420736045 Ry
     energy   new            =   -1949.3517197889 Ry

     CASE: energy  _new < energy  _old

     new trust radius        =       0.0675127838 bohr
     new conv_thr            =       0.0000001000 Ry


ATOMIC_POSITIONS (crystal)
W1       0.166666667   0.166666667   0.405441099    0   0   0
W1       0.666666667   0.166666667   0.405441099    0   0   0
W1       0.166666667   0.666666667   0.405441099    0   0   0
W1       0.666666667   0.666666667   0.405441099    0   0   0
W1       0.833333333   0.333333333   0.500000000    0   0   0
W1       0.333333333   0.333333333   0.500000000    0   0   0
W1       0.833333333   0.833333333   0.500000000    0   0   0
W1       0.333333333   0.833333333   0.500000000    0   0   0
W1       0.000000009   0.000000122   0.592606937
W1       0.506503627  -0.013007680   0.595409743
W1      -0.013007065   0.506503822   0.595409444
W1       0.506502613   0.506504840   0.595409921
[...]
    -0.5855  -0.4929  -0.0878   0.2948   0.3791   0.4917   0.8062   0.9921
     1.1596   1.3067   1.3412   1.4577   1.6089   1.7238   1.8873   1.9694
     2.0598   2.1243   2.2621   2.3923   2.4644   2.5840   2.6525   2.7318
     2.8172   2.8924   2.9641   3.0902   3.2206   3.4066   3.6742   3.9775
     4.0871

          k = 0.0583-0.0337 0.0000 ( 17708 PWs)   bands (ev):

   -71.6416 -71.6208 -71.5827 -71.5735 -71.5438 -71.5141 -71.5043 -71.4888
   -71.4888 -71.4712 -71.4573 -71.4483 -36.1209 -36.0973 -36.0889 -36.0321
   -36.0243 -36.0127 -35.9989 -35.9172 -35.8841 -35.8320 -35.7994 -35.7612
   -35.7516 -35.7430 -35.6311 -35.6154 -35.5897 -35.5882 -35.5758 -35.5335
   -35.5096 -35.4887 -35.4679 -35.4361 -35.4282 -35.4203 -35.3837 -35.3793
   -35.3427 -35.3300 -35.3196 -35.2807 -35.2642 -35.2148 -35.2023 -35.1623
   -10.6732  -4.5876  -3.0407  -2.8704  -2.2713  -2.1371  -2.0598  -1.8840
    -1.6789  -1.6593  -1.4736  -1.1842  -1.0697  -0.9418  -0.7758  -0.7019
    -0.5092  -0.3130  -0.0079   0.2849   0.3603   0.4739   0.6691   0.8431
     1.0008   1.1748   1.2776   1.4244   1.6158   1.6211   1.7727   1.9204
     1.9288   2.0240   2.1570   2.3499   2.4034   2.4542   2.6162   2.6244
     2.7823   2.8026   2.9385   2.9640   3.0928   3.5558   3.6250   3.8129
     4.2156

          k = 0.0583-0.0000 0.0000 ( 17715 PWs)   bands (ev):

   -71.6437 -71.6218 -71.5803 -71.5741 -71.5470 -71.5131 -71.5005 -71.4948
   -71.4845 -71.4694 -71.4574 -71.4488 -36.1425 -36.1198 -36.0897 -36.0650
   -36.0464 -36.0301 -36.0220 -35.9371 -35.8879 -35.8718 -35.7966 -35.7569
   -35.7479 -35.7378 -35.6384 -35.6167 -35.5941 -35.5881 -35.5438 -35.5290
   -35.4898 -35.4734 -35.4523 -35.4357 -35.4201 -35.3869 -35.3746 -35.3446
   -35.3282 -35.3159 -35.3037 -35.2966 -35.2574 -35.2154 -35.1950 -35.1600
   -10.6825  -4.7995  -3.1441  -2.6094  -2.4976  -2.3201  -2.1153  -2.1053
    -1.8460  -1.7283  -1.5224  -1.2533  -1.1746  -1.0226  -0.8889  -0.8294
    -0.5855  -0.4929  -0.0878   0.2948   0.3791   0.4917   0.8062   0.9921
     1.1596   1.3067   1.3412   1.4577   1.6089   1.7238   1.8873   1.9694
     2.0598   2.1243   2.2621   2.3923   2.4644   2.5840   2.6525   2.7318
     2.8172   2.8924   2.9641   3.0902   3.2206   3.4066   3.6742   3.9775
     4.0871

          k = 0.0583 0.0337 0.0000 ( 17708 PWs)   bands (ev):

   -71.6416 -71.6208 -71.5827 -71.5735 -71.5438 -71.5141 -71.5043 -71.4888
   -71.4888 -71.4712 -71.4573 -71.4483 -36.1209 -36.0973 -36.0889 -36.0321
   -36.0243 -36.0127 -35.9989 -35.9172 -35.8841 -35.8320 -35.7994 -35.7612
   -35.7516 -35.7430 -35.6311 -35.6154 -35.5897 -35.5882 -35.5758 -35.5335
   -35.5096 -35.4887 -35.4679 -35.4361 -35.4282 -35.4203 -35.3837 -35.3793
   -35.3427 -35.3300 -35.3196 -35.2807 -35.2642 -35.2148 -35.2023 -35.1623
   -10.6732  -4.5876  -3.0407  -2.8704  -2.2713  -2.1371  -2.0598  -1.8840
    -1.6789  -1.6593  -1.4736  -1.1842  -1.0697  -0.9418  -0.7758  -0.7019
    -0.5092  -0.3130  -0.0079   0.2849   0.3603   0.4739   0.6691   0.8431
     1.0008   1.1748   1.2776   1.4244   1.6158   1.6211   1.7727   1.9204
     1.9288   2.0240   2.1570   2.3499   2.4034   2.4542   2.6162   2.6244
     2.7823   2.8026   2.9385   2.9640   3.0928   3.5558   3.6250   3.8129
     4.2156

          k = 0.0583-0.1347 0.0000 ( 17692 PWs)   bands (ev):

   -71.6377 -71.6185 -71.5857 -71.5750 -71.5350 -71.5172 -71.5065 -71.4983
   -71.4819 -71.4747 -71.4574 -71.4477 -36.0732 -36.0548 -36.0188 -35.9990
   -35.9812 -35.9702 -35.9307 -35.8881 -35.8341 -35.8233 -35.8038 -35.7927
   -35.7567 -35.6980 -35.6663 -35.6455 -35.6278 -35.5988 -35.5913 -35.5516
   -35.5339 -35.5210 -35.4824 -35.4710 -35.4488 -35.4432 -35.4159 -35.3943
   -35.3668 -35.3486 -35.3342 -35.2893 -35.2647 -35.2386 -35.2120 -35.1902
   -10.6549  -3.9896  -3.1055  -2.5683  -2.3008  -2.1056  -1.8047  -1.6504
    -1.4527  -1.2534  -1.1736  -0.9590  -0.7905  -0.6723  -0.4901  -0.3829
    -0.2352  -0.1599   0.0915   0.1991   0.3455   0.4116   0.5401   0.5703
     0.7570   0.8589   0.9637   1.0486   1.2311   1.3574   1.4476   1.5454
     1.6325   1.7219   1.8105   1.9817   2.1704   2.2649   2.3323   2.6213
     2.6658   2.8611   2.9952   3.1472   3.5644   3.6317   3.7766   3.8229
     3.9770

          k = 0.0583-0.1011 0.0000 ( 17592 PWs)   bands (ev):

   -71.6357 -71.6169 -71.5865 -71.5767 -71.5251 -71.5218 -71.5103 -71.5013
   -71.4793 -71.4763 -71.4575 -71.4476 -36.0235 -36.0234 -35.9915 -35.9693
   -35.9365 -35.9356 -35.9081 -35.9026 -35.8622 -35.8433 -35.7624 -35.7609
   -35.7190 -35.7140 -35.6989 -35.6577 -35.6550 -35.6317 -35.6120 -35.5991
   -35.5633 -35.5273 -35.4918 -35.4751 -35.4501 -35.4162 -35.4094 -35.3904
   -35.3764 -35.3672 -35.3058 -35.2990 -35.2919 -35.2549 -35.2505 -35.1919
   -10.6457  -3.2522  -3.1157  -3.0078  -2.1901  -1.9815  -1.9564  -1.3359
    -1.3151  -0.9695  -0.7023  -0.7000  -0.5773  -0.4838  -0.4264  -0.1955
    -0.1384  -0.0381   0.0235   0.1035   0.1685   0.2152   0.4357   0.4621
     0.5062   0.5975   0.8292   0.8941   0.9627   1.0974   1.1323   1.2031
     1.5681   1.6257   1.6568   1.8721   1.8724   2.3554   2.4164   2.6198
     2.7604   2.9943   3.0256   3.1696   3.2320   3.4458   3.9196   4.0034
     4.1590

          k = 0.0583-0.0674 0.0000 ( 17692 PWs)   bands (ev):

   -71.6377 -71.6185 -71.5857 -71.5750 -71.5350 -71.5172 -71.5065 -71.4983
   -71.4819 -71.4747 -71.4574 -71.4477 -36.0732 -36.0548 -36.0188 -35.9990
   -35.9812 -35.9702 -35.9307 -35.8881 -35.8341 -35.8233 -35.8038 -35.7927
   -35.7567 -35.6980 -35.6663 -35.6455 -35.6278 -35.5988 -35.5913 -35.5516
   -35.5339 -35.5210 -35.4824 -35.4710 -35.4488 -35.4432 -35.4159 -35.3943
   -35.3668 -35.3486 -35.3342 -35.2893 -35.2647 -35.2386 -35.2120 -35.1902
   -10.6549  -3.9896  -3.1055  -2.5683  -2.3008  -2.1056  -1.8047  -1.6504
    -1.4527  -1.2534  -1.1736  -0.9590  -0.7905  -0.6723  -0.4901  -0.3829
    -0.2352  -0.1599   0.0915   0.1991   0.3455   0.4116   0.5401   0.5703
     0.7570   0.8589   0.9637   1.0486   1.2311   1.3574   1.4476   1.5454
     1.6325   1.7219   1.8105   1.9817   2.1704   2.2649   2.3323   2.6213
     2.6658   2.8611   2.9952   3.1472   3.5644   3.6317   3.7766   3.8229
     3.9770

          k =-0.0875 0.0505 0.0000 ( 17668 PWs)   bands (ev):

   -71.6374 -71.6186 -71.5871 -71.5735 -71.5333 -71.5222 -71.5057 -71.4892
   -71.4888 -71.4747 -71.4573 -71.4476 -36.0710 -36.0536 -36.0388 -36.0037
   -35.9953 -35.9795 -35.8954 -35.8633 -35.8520 -35.8300 -35.8028 -35.7862
   -35.7650 -35.6709 -35.6288 -35.6277 -35.6113 -35.6077 -35.5749 -35.5551
   -35.5492 -35.5135 -35.5109 -35.4943 -35.4826 -35.4652 -35.4212 -35.3995
   -35.3964 -35.3471 -35.3137 -35.2887 -35.2530 -35.2171 -35.2046 -35.1887
   -10.6549  -3.7671  -3.6031  -2.5653  -2.2603  -1.7763  -1.7180  -1.5893
    -1.4163  -1.3319  -1.2514  -1.1176  -0.8830  -0.7222  -0.3849  -0.3287
    -0.1472  -0.1047  -0.0209   0.1746   0.3812   0.4683   0.5860   0.6099
     0.7202   0.8585   1.0920   1.2905   1.2936   1.3745   1.5247   1.5353
     1.5536   1.6584   1.8173   1.9267   2.1556   2.1664   2.2756   2.4412
     2.6030   2.8156   3.1329   3.3446   3.4637   3.6757   3.7838   3.9257
     4.0366

          k =-0.0875 0.0842 0.0000 ( 17692 PWs)   bands (ev):

   -71.6377 -71.6185 -71.5857 -71.5750 -71.5350 -71.5172 -71.5065 -71.4983
   -71.4819 -71.4747 -71.4574 -71.4477 -36.0732 -36.0548 -36.0188 -35.9990
   -35.9812 -35.9702 -35.9307 -35.8881 -35.8341 -35.8233 -35.8038 -35.7927
   -35.7567 -35.6980 -35.6663 -35.6455 -35.6278 -35.5988 -35.5913 -35.5516
   -35.5339 -35.5210 -35.4824 -35.4710 -35.4488 -35.4432 -35.4159 -35.3943
   -35.3668 -35.3486 -35.3342 -35.2893 -35.2647 -35.2386 -35.2120 -35.1902
   -10.6549  -3.9896  -3.1055  -2.5683  -2.3008  -2.1056  -1.8047  -1.6504
    -1.4527  -1.2534  -1.1736  -0.9590  -0.7905  -0.6723  -0.4901  -0.3829
    -0.2352  -0.1599   0.0915   0.1991   0.3455   0.4116   0.5401   0.5703
     0.7570   0.8589   0.9637   1.0486   1.2311   1.3574   1.4476   1.5454
     1.6325   1.7219   1.8105   1.9817   2.1704   2.2649   2.3323   2.6213
     2.6658   2.8611   2.9952   3.1472   3.5644   3.6316   3.7766   3.8229
     3.9770

          k =-0.0875 0.1179 0.0000 ( 17692 PWs)   bands (ev):

   -71.6377 -71.6185 -71.5857 -71.5750 -71.5350 -71.5172 -71.5065 -71.4983
   -71.4819 -71.4747 -71.4574 -71.4477 -36.0732 -36.0548 -36.0188 -35.9990
   -35.9812 -35.9702 -35.9307 -35.8881 -35.8341 -35.8233 -35.8038 -35.7927
   -35.7567 -35.6980 -35.6663 -35.6455 -35.6278 -35.5988 -35.5913 -35.5516
   -35.5339 -35.5210 -35.4824 -35.4710 -35.4488 -35.4432 -35.4159 -35.3943
   -35.3668 -35.3486 -35.3342 -35.2893 -35.2647 -35.2386 -35.2120 -35.1902
   -10.6549  -3.9896  -3.1055  -2.5683  -2.3008  -2.1056  -1.8047  -1.6504
    -1.4527  -1.2534  -1.1736  -0.9590  -0.7905  -0.6723  -0.4901  -0.3829
    -0.2352  -0.1599   0.0915   0.1991   0.3455   0.4116   0.5401   0.5703
     0.7570   0.8589   0.9637   1.0486   1.2311   1.3574   1.4476   1.5454
     1.6325   1.7219   1.8105   1.9817   2.1704   2.2649   2.3323   2.6213
     2.6658   2.8611   2.9952   3.1472   3.5644   3.6316   3.7766   3.8229
     3.9770

          k =-0.0875-0.0505 0.0000 ( 17668 PWs)   bands (ev):

   -71.6374 -71.6186 -71.5871 -71.5735 -71.5333 -71.5222 -71.5057 -71.4892
   -71.4888 -71.4747 -71.4573 -71.4476 -36.0710 -36.0536 -36.0388 -36.0037
   -35.9953 -35.9795 -35.8954 -35.8633 -35.8520 -35.8300 -35.8028 -35.7862
   -35.7650 -35.6709 -35.6288 -35.6277 -35.6113 -35.6077 -35.5749 -35.5551
   -35.5492 -35.5135 -35.5109 -35.4943 -35.4826 -35.4652 -35.4212 -35.3995
   -35.3964 -35.3471 -35.3137 -35.2887 -35.2530 -35.2171 -35.2046 -35.1887
   -10.6549  -3.7671  -3.6031  -2.5653  -2.2603  -1.7763  -1.7180  -1.5893
    -1.4163  -1.3319  -1.2514  -1.1176  -0.8830  -0.7222  -0.3849  -0.3287
    -0.1472  -0.1047  -0.0209   0.1746   0.3812   0.4683   0.5860   0.6099
     0.7202   0.8585   1.0920   1.2905   1.2936   1.3745   1.5247   1.5353
     1.5536   1.6584   1.8173   1.9267   2.1556   2.1664   2.2756   2.4412
     2.6030   2.8156   3.1329   3.3446   3.4637   3.6757   3.7838   3.9257
     4.0366

     the Fermi energy is     2.6286 ev

!    total energy              =   -1949.36296195 Ry
     Harris-Foulkes estimate   =   -1949.36296201 Ry
     estimated scf accuracy    <       0.00000007 Ry

     The total energy is the sum of the following terms:

     one-electron contribution =  -15031.62368401 Ry
     hartree contribution      =    7502.15736708 Ry
     xc contribution           =    -519.28980171 Ry
     ewald contribution        =    6099.48623846 Ry
     electric field correction =       0.00000032 Ry
     smearing contrib. (-TS)   =      -0.09308208 Ry

     convergence has been achieved in   8 iterations
 
 BEEF-vdW xc energy contributions
           1 :   -456.697298884805     
           2 :    422.336175450482     
           3 :   -361.817396676052     
           4 :    288.394863923408     
           5 :   -215.888632035062     
           6 :    154.697938708139     
           7 :   -109.561639886151     
           8 :    79.6121437855958     
           9 :   -60.3364114397896     
          10 :    46.3520550988507     
          11 :   -33.7415380389687     
          12 :    21.0968256074435     
          13 :   -9.15836859673203     
          14 :  -0.424503255952516     
          15 :    6.42150952903398     
          16 :   -8.79831708905374     
          17 :    8.69389013145292     
          18 :   -7.77309026860240     
          19 :    7.39586098522727     
          20 :   -8.05558709308150     
          21 :    9.33622796737211     
          22 :   -10.3418930178806     
          23 :    10.3138018378174     
          24 :   -9.08795008659069     
          25 :    7.17018957028836     
          26 :   -5.42808703478312     
          27 :    4.60020937983387     
          28 :   -4.90391093613579     
          29 :    5.94738349425245     
          30 :   -6.97334725645783     
          31 :   -41.5319300531752     
          32 :   -31.0867469395721     

     Forces acting on atoms (Ry/au):


     negative rho (up, down):  7.916E-01 0.000E+00
     atom    1 type  1   force =    -0.00263890   -0.00152371   -0.00255610
     atom    2 type  1   force =     0.00263894   -0.00152376   -0.00255608
     atom    3 type  1   force =    -0.00000001    0.00304707   -0.00255609
     atom    4 type  1   force =    -0.00000001   -0.00000002    0.00592330
     atom    5 type  1   force =     0.00000006    0.01551333   -0.01761470
     atom    6 type  1   force =    -0.00000009   -0.00000002    0.05563664
     atom    7 type  1   force =    -0.01343490   -0.00775686   -0.01761448
     atom    8 type  1   force =     0.01343503   -0.00775682   -0.01761419
     atom    9 type  1   force =     0.00000026   -0.00000010   -0.00006366
     atom   10 type  1   force =    -0.00000042   -0.00108254   -0.00058977
     atom   11 type  1   force =    -0.00093770    0.00054180   -0.00058983
     atom   12 type  1   force =     0.00093741    0.00054157   -0.00058956
     atom   13 type  2   force =     0.00000035    0.00000005    0.00078454

     Total force =     0.002276     Total SCF correction =     0.000491
     SCF correction compared to forces is large: reduce conv_thr to get better values


     entering subroutine stress ...


     negative rho (up, down):  7.916E-01 0.000E+00
          total   stress  (Ry/bohr**3)                   (kbar)     P=  -39.38
  -0.00036127  -0.00000000   0.00000000        -53.14     -0.00      0.00
  -0.00000000  -0.00036127   0.00000000         -0.00    -53.14      0.00
   0.00000000   0.00000000  -0.00008051          0.00      0.00    -11.84


     bfgs converged in   9 scf cycles and   8 bfgs steps
     (criteria: energy <  1.0E+00, force <  1.9E-03)

     End of BFGS Geometry Optimization

     Final energy   =   -1949.3629619474 Ry
Begin final coordinates

ATOMIC_POSITIONS (crystal)
W1       0.166666667   0.166666667   0.405441099    0   0   0
W1       0.666666667   0.166666667   0.405441099    0   0   0
W1       0.166666667   0.666666667   0.405441099    0   0   0
W1       0.666666667   0.666666667   0.405441099    0   0   0
W1       0.833333333   0.333333333   0.500000000    0   0   0
W1       0.333333333   0.333333333   0.500000000    0   0   0
W1       0.833333333   0.833333333   0.500000000    0   0   0
W1       0.333333333   0.833333333   0.500000000    0   0   0
W1      -0.000000921   0.000001328   0.585372711
W1       0.506904126  -0.013807638   0.597563224
W1      -0.013808345   0.506904575   0.597563214
W1       0.506903611   0.506905082   0.597563216
S1       0.333332728   0.333334114   0.666770611
End final coordinates



     Writing output data file calc.save
 
     init_run     :     15.79s CPU     16.09s WALL (       1 calls)
     electrons    :   3562.00s CPU   3733.98s WALL (       9 calls)
     update_pot   :     23.81s CPU     25.49s WALL (       8 calls)
     forces       :    252.25s CPU    263.63s WALL (       9 calls)
     stress       :    878.49s CPU    897.73s WALL (       9 calls)

     Called by init_run:
     wfcinit      :      5.37s CPU      5.45s WALL (       1 calls)
     potinit      :      1.80s CPU      1.92s WALL (       1 calls)

     Called by electrons:
     c_bands      :   1192.42s CPU   1231.65s WALL (     101 calls)
     sum_band     :    841.33s CPU    880.08s WALL (     101 calls)
     v_of_rho     :    166.06s CPU    188.01s WALL (     109 calls)
     newd         :   1022.66s CPU   1051.26s WALL (     109 calls)
     mix_rho      :      6.22s CPU      6.40s WALL (     101 calls)
     vdW_energy   :     89.16s CPU     99.40s WALL (     433 calls)
     vdW_ffts     :    223.77s CPU    234.80s WALL (     884 calls)
     vdW_v        :     88.07s CPU     91.60s WALL (     433 calls)

     Called by c_bands:
     init_us_2    :      9.85s CPU      9.90s WALL (    1105 calls)
     cegterg      :   1085.39s CPU   1104.87s WALL (     505 calls)

     Called by *egterg:
     h_psi        :    729.53s CPU    745.07s WALL (    2388 calls)
     s_psi        :     80.07s CPU     80.20s WALL (    2388 calls)
     g_psi        :      3.68s CPU      3.67s WALL (    1878 calls)
     cdiaghg      :     88.88s CPU     89.49s WALL (    2338 calls)

     Called by h_psi:
     add_vuspsi   :     81.74s CPU     81.91s WALL (    2388 calls)

     General routines
     calbec       :    128.03s CPU    130.84s WALL (    2983 calls)
     fft          :    371.78s CPU    410.67s WALL (   26133 calls)
     ffts         :      0.37s CPU      0.41s WALL (     210 calls)
     fftw         :    418.65s CPU    435.56s WALL (  305555 calls)
     interpolate  :      3.87s CPU      3.99s WALL (     210 calls)
     davcio       :      0.00s CPU      0.03s WALL (       5 calls)
 
     Parallel routines
     fft_scatter  :    469.53s CPU    522.33s WALL (  331898 calls)
 
     PWSCF        :     1h20m CPU        1h23m WALL

 
   This run was terminated on:   7:44: 4   3May2018            

=------------------------------------------------------------------------------=
   JOB DONE.
=------------------------------------------------------------------------------=
Job  /afs/slac/g/suncat/bin/suncat-tsmpirun -x LD_LIBRARY_PATH -wdir /scratch/qe636952_67wjY pw.x -npool 4 -in pw.inp

TID   HOST_NAME   COMMAND_LINE            STATUS            TERMINATION_TIME
===== ========== ================  =======================  ===================
00000 suncat0008 pw.x -npool 4 -i  Done                     05/03/2018 07:44:04
00001 suncat0008 pw.x -npool 4 -i  Done                     05/03/2018 07:44:04
00002 suncat0008 pw.x -npool 4 -i  Done                     05/03/2018 07:44:04
00003 suncat0008 pw.x -npool 4 -i  Done                     05/03/2018 07:44:04
00004 suncat0008 pw.x -npool 4 -i  Done                     05/03/2018 07:44:04
00005 suncat0008 pw.x -npool 4 -i  Done                     05/03/2018 07:44:04
00006 suncat0008 pw.x -npool 4 -i  Done                     05/03/2018 07:44:04
00007 suncat0008 pw.x -npool 4 -i  Done                     05/03/2018 07:44:04
00008 suncat0001 pw.x -npool 4 -i  Done                     05/03/2018 07:44:04
00009 suncat0001 pw.x -npool 4 -i  Done                     05/03/2018 07:44:04
00010 suncat0001 pw.x -npool 4 -i  Done                     05/03/2018 07:44:04
00011 suncat0001 pw.x -npool 4 -i  Done                     05/03/2018 07:44:04
00012 suncat0001 pw.x -npool 4 -i  Done                     05/03/2018 07:44:04
00013 suncat0001 pw.x -npool 4 -i  Done                     05/03/2018 07:44:04
00014 suncat0001 pw.x -npool 4 -i  Done                     05/03/2018 07:44:04
00015 suncat0001 pw.x -npool 4 -i  Done                     05/03/2018 07:44:04
00016 suncat0184 pw.x -npool 4 -i  Done                     05/03/2018 07:44:04
00017 suncat0184 pw.x -npool 4 -i  Done                     05/03/2018 07:44:04
00018 suncat0184 pw.x -npool 4 -i  Done                     05/03/2018 07:44:04
00019 suncat0184 pw.x -npool 4 -i  Done                     05/03/2018 07:44:04
00020 suncat0184 pw.x -npool 4 -i  Done                     05/03/2018 07:44:04
00021 suncat0184 pw.x -npool 4 -i  Done                     05/03/2018 07:44:04
00022 suncat0184 pw.x -npool 4 -i  Done                     05/03/2018 07:44:04
00023 suncat0184 pw.x -npool 4 -i  Done                     05/03/2018 07:44:04
00024 suncat0171 pw.x -npool 4 -i  Done                     05/03/2018 07:44:04
00025 suncat0171 pw.x -npool 4 -i  Done                     05/03/2018 07:44:04
00026 suncat0171 pw.x -npool 4 -i  Done                     05/03/2018 07:44:04
00027 suncat0171 pw.x -npool 4 -i  Done                     05/03/2018 07:44:04
00028 suncat0171 pw.x -npool 4 -i  Done                     05/03/2018 07:44:04
00029 suncat0171 pw.x -npool 4 -i  Done                     05/03/2018 07:44:04
00030 suncat0171 pw.x -npool 4 -i  Done                     05/03/2018 07:44:04
00031 suncat0171 pw.x -npool 4 -i  Done                     05/03/2018 07:44:04
