  python dir          : /u/if/mamunm/src/espresso
  espresso dir        : /nfs/slac/g/suncatfs/sw/espv18/espresso-dynpy-beef/bin
  pseudo dir          : /u/if/mamunm/psp/gbrv1.5pbe
  ase-espresso py git : GITVERSION



     Program PWSCF v.5.1rc2 (svn rev. 11289) starts on  3May2018 at  4:48:51 

     This program is part of the open-source Quantum ESPRESSO suite
     for quantum simulation of materials; please cite
         "P. Giannozzi et al., J. Phys.:Condens. Matter 21 395502 (2009);
          URL http://www.quantum-espresso.org", 
     in publications or presentations arising from this work. More details at
     http://www.quantum-espresso.org/quote

     Parallel version (MPI), running on    32 processors
     K-points division:     npool     =       4
     R & G space division:  proc/nbgrp/npool/nimage =       8
     Reading input from pw.inp
     Message from routine read_cards :
     DEPRECATED: no units specified in CELL_PARAMETERS card

     Current dimensions of program PWSCF are:
     Max number of different atomic species (ntypx) = 10
     Max number of k-points (npk) =  40000
     Max angular momentum in pseudopotentials (lmaxx) =  3
     Presently stress not available with electric field


     **************************************************************************
     Initializing libbeef V0.1.1 with the BEEF-vdW functional.
     Citation: Wellendorff et al., PRB 85, 235149 (2012).
     **************************************************************************


     IMPORTANT: XC functional enforced from input :
     Exchange-correlation      = BEEF-VDW ( 1  4 27 13 2)
     Any further DFT definition will be discarded
     Please, verify this is what you really want


     Subspace diagonalization in iterative solution of the eigenvalue problem:
     a serial algorithm will be used

 
     Parallelization info
     --------------------
     sticks:   dense  smooth     PW     G-vecs:    dense   smooth      PW
     Min         367     147     43                69909    17663    2781
     Max         369     148     44                69918    17695    2794
     Sum        2941    1177    349               559305   141419   22321
 


     bravais-lattice index     =            0
     lattice parameter (alat)  =       1.8897  a.u.
     unit-cell volume          =    4704.3541 (a.u.)^3
     number of atoms/cell      =           13
     number of atomic types    =            2
     number of electrons       =       173.00
     number of Kohn-Sham states=           96
     kinetic-energy cutoff     =      36.7493  Ry
     charge density cutoff     =     367.4932  Ry
     convergence threshold     =      1.0E-05
     mixing beta               =       0.3000
     number of iterations used =           10  plain     mixing
     Exchange-correlation      = BEEF-VDW ( 1  4 27 13 2)
     nstep                     =           50


     celldm(1)=   1.889726  celldm(2)=   0.000000  celldm(3)=   0.000000
     celldm(4)=   0.000000  celldm(5)=   0.000000  celldm(6)=   0.000000

     crystal axes: (cart. coord. in units of alat)
               a(1) = (   5.712816   0.000000   0.000000 )  
               a(2) = (   2.856408   4.947444   0.000000 )  
               a(3) = (   0.000000   0.000000  24.664495 )  

     reciprocal axes: (cart. coord. in units 2 pi/alat)
               b(1) = (  0.175045 -0.101062  0.000000 )  
               b(2) = (  0.000000  0.202125  0.000000 )  
               b(3) = (  0.000000  0.000000  0.040544 )  


     PseudoPot. # 1 for W  read from file:
     /u/if/mamunm/psp/gbrv1.5pbe/W.UPF
     MD5 check sum: 9c083fa34c2a2ea0f02f1f893e16e1c8
     Pseudo is Ultrasoft + core correction, Zval = 14.0
     Generated by new atomic code, or converted to UPF format
     Using radial grid of  923 points,  8 beta functions with: 
                l(1) =   0
                l(2) =   0
                l(3) =   0
                l(4) =   1
                l(5) =   1
                l(6) =   2
                l(7) =   2
                l(8) =   3
     Q(r) pseudized with  6 coefficients,  rinner =    1.350   1.350   1.350
                                                       1.350   1.350   1.350
                                                       1.350

     PseudoPot. # 2 for N  read from file:
     /u/if/mamunm/psp/gbrv1.5pbe/N.UPF
     MD5 check sum: 95339753478d7afb44899504a8723017
     Pseudo is Ultrasoft + core correction, Zval =  5.0
     Generated by new atomic code, or converted to UPF format
     Using radial grid of  729 points,  4 beta functions with: 
                l(1) =   0
                l(2) =   0
                l(3) =   1
                l(4) =   1
     Q(r) pseudized with  8 coefficients,  rinner =    0.900   0.900   0.900


     vdW kernel table read from file vdW_kernel_table
     MD5 check sum: 095c7af220d748ca6e76c0b4c6cfb241

     atomic species   valence    mass     pseudopotential
        W1            14.00   183.84000     W ( 1.00)
        N1             5.00    14.00700     N ( 1.00)

     No symmetry found



   Cartesian axes

     site n.     atom                  positions (alat units)
         1           W1  tau(   1) = (   1.4282041   0.8245740  10.0000000  )
         2           W1  tau(   2) = (   4.2846123   0.8245740  10.0000000  )
         3           W1  tau(   3) = (   2.8564082   3.2982961  10.0000000  )
         4           W1  tau(   4) = (   5.7128165   3.2982961  10.0000000  )
         5           W1  tau(   5) = (   5.7128165   1.6491481  12.3322476  )
         6           W1  tau(   6) = (   2.8564082   1.6491481  12.3322476  )
         7           W1  tau(   7) = (   7.1410206   4.1228701  12.3322476  )
         8           W1  tau(   8) = (   4.2846123   4.1228701  12.3322476  )
         9           W1  tau(   9) = (   0.0000000   0.0000000  14.6644951  )
        10           W1  tau(  10) = (   2.8564082   0.0000000  14.6644951  )
        11           W1  tau(  11) = (   1.4282041   2.4737221  14.6644951  )
        12           W1  tau(  12) = (   4.2846123   2.4737221  14.6644951  )
        13           N1  tau(  13) = (   1.4282041   0.8245740  16.1789951  )

     number of k points=    20  Fermi-Dirac smearing, width (Ry)=  0.0110
                       cart. coord. in units 2pi/alat
        k(    1) = (   0.0000000   0.0000000   0.0000000), wk =   0.0555556
        k(    2) = (   0.0000000   0.0336874   0.0000000), wk =   0.1111111
        k(    3) = (   0.0000000   0.0673749   0.0000000), wk =   0.1111111
        k(    4) = (   0.0000000  -0.1010623   0.0000000), wk =   0.0555556
        k(    5) = (   0.0291742  -0.0168437   0.0000000), wk =   0.1111111
        k(    6) = (   0.0291742   0.0168437   0.0000000), wk =   0.1111111
        k(    7) = (   0.0291742   0.0505311   0.0000000), wk =   0.1111111
        k(    8) = (   0.0291742  -0.1179060   0.0000000), wk =   0.1111111
        k(    9) = (   0.0291742  -0.0842186   0.0000000), wk =   0.1111111
        k(   10) = (   0.0291742  -0.0505311   0.0000000), wk =   0.1111111
        k(   11) = (   0.0583483  -0.0336874   0.0000000), wk =   0.1111111
        k(   12) = (   0.0583483  -0.0000000   0.0000000), wk =   0.1111111
        k(   13) = (   0.0583483   0.0336874   0.0000000), wk =   0.1111111
        k(   14) = (   0.0583483  -0.1347497   0.0000000), wk =   0.1111111
        k(   15) = (   0.0583483  -0.1010623   0.0000000), wk =   0.1111111
        k(   16) = (   0.0583483  -0.0673749   0.0000000), wk =   0.1111111
        k(   17) = (  -0.0875225   0.0505311   0.0000000), wk =   0.0555556
        k(   18) = (  -0.0875225   0.0842186   0.0000000), wk =   0.1111111
        k(   19) = (  -0.0875225   0.1179060   0.0000000), wk =   0.1111111
        k(   20) = (  -0.0875225  -0.0505311   0.0000000), wk =   0.0555556

     Dense  grid:   559305 G-vectors     FFT dimensions: (  72,  72, 288)

     Smooth grid:   141419 G-vectors     FFT dimensions: (  45,  45, 180)

     Largest allocated arrays     est. size (Mb)     dimensions
        Kohn-Sham Wavefunctions         3.28 Mb     (    2239,   96)
        NL pseudopotentials            10.93 Mb     (    2239,  320)
        Each V/rho on FFT grid          2.85 Mb     (  186624)
        Each G-vector array             0.53 Mb     (   69911)
        G-vector shells                 0.14 Mb     (   18450)
     Largest temporary arrays     est. size (Mb)     dimensions
        Auxiliary wavefunctions        13.12 Mb     (    2239,  384)
        Each subspace H/S matrix        2.25 Mb     (     384,  384)
        Each <psi_i|beta_j> matrix      0.47 Mb     (     320,   96)
        Arrays for rho mixing          28.48 Mb     (  186624,   10)

     Initial potential from superposition of free atoms
     Check: negative starting charge=   -0.760411

     starting charge  171.79591, renormalised to  173.00000

     negative rho (up, down):  7.657E-01 0.000E+00


     ************************************************************************
     *
     * You are using vdW-DF for exchange-correlation in this calculation.
     * Please cite the following three references that made this development
     * possible:
     *
     *   M. Dion, H. Rydberg, E. Schroder, D. C. Langreth, and
     *   B. I. Lundqvist, Phys. Rev. Lett. 92, 246401 (2004).
     *
     *   T. Thonhauser, V. R. Cooper, S. Li, A. Puzder, P. Hyldgaard, and
     *   D. C. Langreth, Phys. Rev. B 76, 125112 (2007).
     *
     *   G. Roman-Perez and J. M. Soler, Phys. Rev. Lett. 103, 096102 (2009).
     *
     *
     * If you are using vdW-DF2, please also cite:
     *
     *   K. Lee, E. D. Murray, L. Kong, B. I. Lundqvist, and
     *   D. C. Langreth, Phys. Rev. B 82, 081101(R) (2010).
     *
     *
     * If you are calculating the stress with vdW-DF, please also cite:
     *
     *   R. Sabatini, E. Kucukbenli, B. Kolb, T. Thonhauser, and
     *   S. de Gironcoli, J. Phys.: Condens. Matter 24, 424209 (2012).
     *
     ************************************************************************

     Carrying out vdW-DF run using the following parameters:

     Nqs =      20    Nr_points =    1024   r_max =   100.000
     q_mesh =
               0.00001000     0.04494208     0.09755937     0.15916263
               0.23128650     0.31572767     0.41458969     0.53033537
               0.66584808     0.82450364     1.01025438     1.22772762
               1.48234092     1.78043706     2.12944203     2.53805004
               3.01644009     3.57652955     4.23227104     5.00000000

     Gradients computed in reciprocal space

     ************************************************************************


 
     Adding external electric field

     Computed dipole along edir(3) : 
        Dipole               -0.2547 Ry au,         -0.6473 Debye
        Dipole field         -0.0007 Ry au
 
        Potential amp.        0.0618 Ry
        Total length         45.4439 bohr
 
     Starting wfc are  160 randomized atomic wfcs

     total cpu time spent up to now is       16.7 secs

     per-process dynamical memory:    87.3 Mb

     Self-consistent Calculation

     iteration #  1     ecut=    36.75 Ry     beta=0.30
     Davidson diagonalization with overlap
     ethr =  1.00E-02,  avg # of iterations =  2.0

     negative rho (up, down):  7.706E-01 0.000E+00
 
     Adding external electric field

     Computed dipole along edir(3) : 
        Dipole                2.4124 Ry au,          6.1317 Debye
        Dipole field          0.0064 Ry au
 
        Potential amp.       -0.5857 Ry
        Total length         45.4439 bohr
 

     total cpu time spent up to now is       41.3 secs

     total energy              =   -1943.43108944 Ry
     Harris-Foulkes estimate   =   -1945.49513242 Ry
     estimated scf accuracy    <       4.51728483 Ry

     iteration #  2     ecut=    36.75 Ry     beta=0.30
     Davidson diagonalization with overlap
     ethr =  2.61E-03,  avg # of iterations =  8.7

     negative rho (up, down):  7.708E-01 0.000E+00
 
     Adding external electric field

     Computed dipole along edir(3) : 
        Dipole               -1.9412 Ry au,         -4.9340 Debye
        Dipole field         -0.0052 Ry au
 
        Potential amp.        0.4713 Ry
        Total length         45.4439 bohr
 

     total cpu time spent up to now is       76.0 secs

     total energy              =   -1934.68490527 Ry
     Harris-Foulkes estimate   =   -1954.59808125 Ry
     estimated scf accuracy    <     558.94564132 Ry

     iteration #  3     ecut=    36.75 Ry     beta=0.30
     Davidson diagonalization with overlap
     ethr =  2.61E-03,  avg # of iterations =  6.9

     negative rho (up, down):  7.719E-01 0.000E+00
 
     Adding external electric field

     Computed dipole along edir(3) : 
        Dipole               -0.9216 Ry au,         -2.3425 Debye
        Dipole field         -0.0025 Ry au
 
        Potential amp.        0.2237 Ry
        Total length         45.4439 bohr
 

     total cpu time spent up to now is      108.9 secs

     total energy              =   -1943.46867456 Ry
     Harris-Foulkes estimate   =   -1946.60056272 Ry
     estimated scf accuracy    <      53.81665119 Ry

     iteration #  4     ecut=    36.75 Ry     beta=0.30
     Davidson diagonalization with overlap
     ethr =  2.61E-03,  avg # of iterations =  4.0

     negative rho (up, down):  7.740E-01 0.000E+00
 
     Adding external electric field

     Computed dipole along edir(3) : 
        Dipole               -0.6823 Ry au,         -1.7343 Debye
        Dipole field         -0.0018 Ry au
 
        Potential amp.        0.1657 Ry
        Total length         45.4439 bohr
 

     total cpu time spent up to now is      135.6 secs

     total energy              =   -1944.97023606 Ry
     Harris-Foulkes estimate   =   -1945.25596109 Ry
     estimated scf accuracy    <       2.32430300 Ry

     iteration #  5     ecut=    36.75 Ry     beta=0.30
     Davidson diagonalization with overlap
     ethr =  1.34E-03,  avg # of iterations =  2.2

     negative rho (up, down):  7.793E-01 0.000E+00
 
     Adding external electric field

     Computed dipole along edir(3) : 
        Dipole               -0.4805 Ry au,         -1.2212 Debye
        Dipole field         -0.0013 Ry au
 
        Potential amp.        0.1167 Ry
        Total length         45.4439 bohr
 

     total cpu time spent up to now is      159.4 secs

     total energy              =   -1945.07704707 Ry
     Harris-Foulkes estimate   =   -1945.12407318 Ry
     estimated scf accuracy    <       0.26289211 Ry

     iteration #  6     ecut=    36.75 Ry     beta=0.30
     Davidson diagonalization with overlap
     ethr =  1.52E-04,  avg # of iterations =  4.3

     negative rho (up, down):  7.850E-01 0.000E+00
 
     Adding external electric field

     Computed dipole along edir(3) : 
        Dipole               -0.4336 Ry au,         -1.1020 Debye
        Dipole field         -0.0012 Ry au
 
        Potential amp.        0.1053 Ry
        Total length         45.4439 bohr
 

     total cpu time spent up to now is      185.7 secs

     total energy              =   -1945.09199711 Ry
     Harris-Foulkes estimate   =   -1945.10118708 Ry
     estimated scf accuracy    <       0.08485790 Ry

     iteration #  7     ecut=    36.75 Ry     beta=0.30
     Davidson diagonalization with overlap
     ethr =  4.91E-05,  avg # of iterations =  2.7

     negative rho (up, down):  7.884E-01 0.000E+00
 
     Adding external electric field

     Computed dipole along edir(3) : 
        Dipole               -0.3429 Ry au,         -0.8715 Debye
        Dipole field         -0.0009 Ry au
 
        Potential amp.        0.0832 Ry
        Total length         45.4439 bohr
 

     total cpu time spent up to now is      210.6 secs

     total energy              =   -1945.09649358 Ry
     Harris-Foulkes estimate   =   -1945.09702693 Ry
     estimated scf accuracy    <       0.00923304 Ry

     iteration #  8     ecut=    36.75 Ry     beta=0.30
     Davidson diagonalization with overlap
     ethr =  5.34E-06,  avg # of iterations =  6.0

     negative rho (up, down):  7.904E-01 0.000E+00
 
     Adding external electric field

     Computed dipole along edir(3) : 
        Dipole               -0.2710 Ry au,         -0.6888 Debye
        Dipole field         -0.0007 Ry au
 
        Potential amp.        0.0658 Ry
        Total length         45.4439 bohr
 

     total cpu time spent up to now is      240.5 secs

     total energy              =   -1945.09755141 Ry
     Harris-Foulkes estimate   =   -1945.09803737 Ry
     estimated scf accuracy    <       0.00360895 Ry

     iteration #  9     ecut=    36.75 Ry     beta=0.30
     Davidson diagonalization with overlap
     ethr =  2.09E-06,  avg # of iterations =  3.0

     negative rho (up, down):  7.920E-01 0.000E+00
 
     Adding external electric field

     Computed dipole along edir(3) : 
        Dipole               -0.2206 Ry au,         -0.5608 Debye
        Dipole field         -0.0006 Ry au
 
        Potential amp.        0.0536 Ry
        Total length         45.4439 bohr
 

     total cpu time spent up to now is      265.8 secs

     total energy              =   -1945.09782888 Ry
     Harris-Foulkes estimate   =   -1945.09803560 Ry
     estimated scf accuracy    <       0.00161713 Ry

     iteration # 10     ecut=    36.75 Ry     beta=0.30
     Davidson diagonalization with overlap
     ethr =  9.35E-07,  avg # of iterations =  3.4

     negative rho (up, down):  7.923E-01 0.000E+00
 
     Adding external electric field

     Computed dipole along edir(3) : 
        Dipole               -0.2223 Ry au,         -0.5649 Debye
        Dipole field         -0.0006 Ry au
 
        Potential amp.        0.0540 Ry
        Total length         45.4439 bohr
 

     total cpu time spent up to now is      291.7 secs

     total energy              =   -1945.09797798 Ry
     Harris-Foulkes estimate   =   -1945.09806966 Ry
     estimated scf accuracy    <       0.00085818 Ry

     iteration # 11     ecut=    36.75 Ry     beta=0.30
     Davidson diagonalization with overlap
     ethr =  4.96E-07,  avg # of iterations =  2.0

     negative rho (up, down):  7.926E-01 0.000E+00
 
     Adding external electric field

     Computed dipole along edir(3) : 
        Dipole               -0.2147 Ry au,         -0.5457 Debye
        Dipole field         -0.0006 Ry au
 
        Potential amp.        0.0521 Ry
        Total length         45.4439 bohr
 

     total cpu time spent up to now is      315.7 secs

     total energy              =   -1945.09804190 Ry
     Harris-Foulkes estimate   =   -1945.09804160 Ry
     estimated scf accuracy    <       0.00003309 Ry

     iteration # 12     ecut=    36.75 Ry     beta=0.30
     Davidson diagonalization with overlap
     ethr =  1.91E-08,  avg # of iterations =  5.7

     negative rho (up, down):  7.927E-01 0.000E+00
 
     Adding external electric field

     Computed dipole along edir(3) : 
        Dipole               -0.2096 Ry au,         -0.5329 Debye
        Dipole field         -0.0006 Ry au
 
        Potential amp.        0.0509 Ry
        Total length         45.4439 bohr
 

     total cpu time spent up to now is      347.3 secs

     total energy              =   -1945.09805468 Ry
     Harris-Foulkes estimate   =   -1945.09805902 Ry
     estimated scf accuracy    <       0.00002213 Ry

     iteration # 13     ecut=    36.75 Ry     beta=0.30
     Davidson diagonalization with overlap
     ethr =  1.28E-08,  avg # of iterations =  2.5

     negative rho (up, down):  7.930E-01 0.000E+00

     negative rho (up, down):  7.930E-01 0.000E+00

     negative rho (up, down):  7.930E-01 0.000E+00

     negative rho (up, down):  7.930E-01 0.000E+00

     negative rho (up, down):  7.930E-01 0.000E+00

     negative rho (up, down):  7.930E-01 0.000E+00

     negative rho (up, down):  7.930E-01 0.000E+00

     negative rho (up, down):  7.930E-01 0.000E+00

     negative rho (up, down):  7.930E-01 0.000E+00

     negative rho (up, down):  7.930E-01 0.000E+00

     negative rho (up, down):  7.930E-01 0.000E+00

     negative rho (up, down):  7.930E-01 0.000E+00

     negative rho (up, down):  7.930E-01 0.000E+00

     negative rho (up, down):  7.930E-01 0.000E+00

     negative rho (up, down):  7.930E-01 0.000E+00

     negative rho (up, down):  7.930E-01 0.000E+00

     negative rho (up, down):  7.930E-01 0.000E+00

     negative rho (up, down):  7.930E-01 0.000E+00

     negative rho (up, down):  7.930E-01 0.000E+00

     negative rho (up, down):  7.930E-01 0.000E+00

     negative rho (up, down):  7.930E-01 0.000E+00

     negative rho (up, down):  7.930E-01 0.000E+00

     negative rho (up, down):  7.930E-01 0.000E+00

     negative rho (up, down):  7.930E-01 0.000E+00

     negative rho (up, down):  7.930E-01 0.000E+00

     negative rho (up, down):  7.930E-01 0.000E+00

     negative rho (up, down):  7.930E-01 0.000E+00

     negative rho (up, down):  7.930E-01 0.000E+00

     negative rho (up, down):  7.930E-01 0.000E+00

     negative rho (up, down):  7.930E-01 0.000E+00

     negative rho (up, down):  7.930E-01 0.000E+00

     negative rho (up, down):  7.930E-01 0.000E+00

     negative rho (up, down):  7.930E-01 0.000E+00

     negative rho (up, down):  7.930E-01 0.000E+00

     negative rho (up, down):  7.930E-01 0.000E+00
 
     Adding external electric field

     Computed dipole along edir(3) : 
        Dipole               -0.1977 Ry au,         -0.5025 Debye
        Dipole field         -0.0005 Ry au
 
        Potential amp.        0.0480 Ry
        Total length         45.4439 bohr
 

     total cpu time spent up to now is      420.1 secs

     End of self-consistent calculation

          k = 0.0000 0.0000 0.0000 ( 17753 PWs)   bands (ev):

   -72.1813 -72.1173 -72.1169 -72.0901 -72.0423 -71.9825 -71.9744 -71.9626
   -71.9622 -71.9291 -71.9283 -71.9178 -36.6904 -36.6653 -36.6652 -36.6285
   -36.6039 -36.6039 -36.6034 -36.4512 -36.4425 -36.4422 -36.2728 -36.1973
   -36.1969 -36.1947 -36.0724 -36.0719 -36.0658 -36.0151 -36.0150 -36.0123
   -35.8938 -35.8938 -35.8886 -35.8820 -35.8761 -35.8760 -35.8150 -35.7914
   -35.7914 -35.7493 -35.7490 -35.7461 -35.6947 -35.6947 -35.5701 -35.5701
   -11.1828  -5.9540  -4.1428  -3.4068  -2.8742  -2.8742  -2.8374  -2.8165
    -2.8165  -2.7188  -2.0755  -1.9984  -1.9983  -1.8704  -1.8703  -1.8196
    -0.7485  -0.7485  -0.5233   0.1900   0.1900   0.7236   0.8683   0.8914
     0.8915   1.0402   1.5202   1.5658   1.5659   1.7102   1.7104   1.7195
     1.9204   1.9205   1.9882   2.0941   2.0941   2.1392   2.2473   2.2474
     3.1084   3.1086   3.1557   3.6906   3.7992   3.8502   3.8503   4.3202

          k = 0.0000 0.0337 0.0000 ( 17716 PWs)   bands (ev):

   -72.1768 -72.1205 -72.1170 -72.0913 -72.0376 -71.9808 -71.9745 -71.9652
   -71.9625 -71.9315 -71.9283 -71.9187 -36.6573 -36.6360 -36.6206 -36.5984
   -36.5838 -36.5768 -36.5656 -36.4221 -36.4150 -36.4003 -36.2706 -36.2193
   -36.2059 -36.2059 -36.0745 -36.0726 -36.0636 -36.0333 -36.0329 -35.9999
   -35.9397 -35.9323 -35.8767 -35.8732 -35.8665 -35.8614 -35.8597 -35.8124
   -35.8064 -35.7772 -35.7749 -35.7402 -35.7365 -35.7075 -35.6232 -35.5818
   -11.1662  -5.7058  -3.8991  -3.1417  -2.9323  -2.7346  -2.6841  -2.6427
    -2.6206  -2.5346  -1.9642  -1.8332  -1.7899  -1.7071  -1.6765  -1.6164
    -0.6998  -0.6621  -0.4744   0.0704   0.1102   0.5918   0.8892   0.9314
     1.0228   1.0420   1.2462   1.3109   1.3687   1.3735   1.5376   1.7975
     1.8685   1.9622   1.9865   2.0125   2.0549   2.2033   2.2044   2.4164
     2.7049   2.7581   2.9052   3.2074   3.4522   3.4637   3.7205   3.8273

          k = 0.0000 0.0674 0.0000 ( 17708 PWs)   bands (ev):

   -72.1647 -72.1307 -72.1170 -72.0933 -72.0249 -71.9881 -71.9702 -71.9655
   -71.9625 -71.9399 -71.9283 -71.9198 -36.5833 -36.5615 -36.5447 -36.5266
   -36.5145 -36.4901 -36.4751 -36.3611 -36.3512 -36.3127 -36.2734 -36.2436
   -36.2372 -36.2062 -36.1115 -36.1011 -36.0540 -36.0515 -36.0492 -36.0108
   -35.9975 -35.9911 -35.9602 -35.9083 -35.8944 -35.8917 -35.8506 -35.8382
   -35.8359 -35.8266 -35.8205 -35.8173 -35.7432 -35.7400 -35.7041 -35.6146
   -11.1336  -5.0216  -3.3334  -3.2442  -2.5460  -2.4219  -2.2441  -2.2218
    -2.1322  -2.0362  -1.7414  -1.3760  -1.3587  -1.2490  -1.1118  -1.0398
    -0.5506  -0.4109  -0.3962  -0.1741   0.0238   0.1292   0.4091   0.5445
     0.6757   0.6783   0.8726   1.0126   1.3103   1.3683   1.4399   1.4577
     1.5764   1.6201   1.7540   1.9104   2.0236   2.1388   2.1467   2.2771
     2.3668   2.3792   2.4323   2.5869   2.8348   3.0779   3.2220   3.4528

          k = 0.0000-0.1011 0.0000 ( 17668 PWs)   bands (ev):

   -72.1522 -72.1424 -72.1170 -72.0941 -72.0120 -72.0003 -71.9703 -71.9625
   -71.9550 -71.9507 -71.9283 -71.9202 -36.5321 -36.5062 -36.4943 -36.4844
   -36.4788 -36.4776 -36.3474 -36.3282 -36.3198 -36.3175 -36.2704 -36.2599
   -36.2087 -36.1866 -36.1461 -36.1218 -36.0727 -36.0669 -36.0657 -36.0614
   -35.9927 -35.9811 -35.9725 -35.9662 -35.9535 -35.9487 -35.9138 -35.8956
   -35.8339 -35.8246 -35.8004 -35.7950 -35.7933 -35.7884 -35.6627 -35.6560
   -11.1175  -4.1425  -4.0613  -2.7390  -2.5322  -1.9979  -1.9129  -1.7899
    -1.7546  -1.7204  -1.6946  -1.2376  -0.9392  -0.7965  -0.6231  -0.5714
    -0.5369  -0.4637  -0.4497  -0.2727   0.0165   0.0883   0.1036   0.1266
     0.3226   0.4356   0.7703   0.8308   1.0645   1.0794   1.1125   1.1244
     1.1875   1.2528   1.3828   1.7126   1.7345   1.7729   1.8973   2.2012
     2.2373   2.5052   2.6678   3.0641   3.1664   3.3148   3.3282   3.3316

          k = 0.0292-0.0168 0.0000 ( 17716 PWs)   bands (ev):

   -72.1768 -72.1202 -72.1173 -72.0913 -72.0376 -71.9808 -71.9744 -71.9656
   -71.9622 -71.9310 -71.9290 -71.9186 -36.6573 -36.6360 -36.6205 -36.5984
   -36.5838 -36.5768 -36.5656 -36.4223 -36.4147 -36.4004 -36.2706 -36.2192
   -36.2062 -36.2057 -36.0747 -36.0723 -36.0637 -36.0335 -36.0327 -35.9999
   -35.9396 -35.9322 -35.8767 -35.8732 -35.8667 -35.8614 -35.8596 -35.8124
   -35.8064 -35.7770 -35.7751 -35.7402 -35.7365 -35.7075 -35.6232 -35.5818
   -11.1662  -5.7058  -3.8991  -3.1417  -2.9323  -2.7347  -2.6840  -2.6428
    -2.6206  -2.5346  -1.9642  -1.8332  -1.7899  -1.7071  -1.6765  -1.6164
    -0.6999  -0.6620  -0.4744   0.0705   0.1102   0.5918   0.8891   0.9314
     1.0228   1.0421   1.2462   1.3109   1.3688   1.3734   1.5376   1.7975
     1.8685   1.9622   1.9864   2.0125   2.0551   2.2032   2.2044   2.4164
     2.7048   2.7581   2.9052   3.2074   3.4523   3.4637   3.7205   3.8273

          k = 0.0292 0.0168 0.0000 ( 17716 PWs)   bands (ev):

   -72.1768 -72.1205 -72.1169 -72.0913 -72.0376 -71.9808 -71.9745 -71.9652
   -71.9625 -71.9314 -71.9285 -71.9187 -36.6573 -36.6360 -36.6206 -36.5984
   -36.5838 -36.5768 -36.5656 -36.4221 -36.4150 -36.4003 -36.2706 -36.2193
   -36.2059 -36.2059 -36.0746 -36.0726 -36.0636 -36.0333 -36.0329 -35.9999
   -35.9397 -35.9323 -35.8767 -35.8732 -35.8665 -35.8614 -35.8597 -35.8124
   -35.8064 -35.7772 -35.7749 -35.7402 -35.7365 -35.7075 -35.6232 -35.5818
   -11.1662  -5.7058  -3.8991  -3.1417  -2.9323  -2.7346  -2.6841  -2.6427
    -2.6206  -2.5346  -1.9642  -1.8332  -1.7899  -1.7071  -1.6765  -1.6164
    -0.6998  -0.6621  -0.4744   0.0705   0.1102   0.5918   0.8892   0.9314
     1.0228   1.0420   1.2462   1.3109   1.3687   1.3735   1.5376   1.7975
     1.8685   1.9622   1.9865   2.0125   2.0549   2.2033   2.2044   2.4164
     2.7048   2.7581   2.9052   3.2074   3.4522   3.4637   3.7205   3.8273

          k = 0.0292 0.0505 0.0000 ( 17715 PWs)   bands (ev):

   -72.1685 -72.1261 -72.1185 -72.0926 -72.0289 -71.9833 -71.9720 -71.9696
   -71.9604 -71.9357 -71.9304 -71.9190 -36.6093 -36.5724 -36.5477 -36.5461
   -36.5421 -36.5192 -36.5088 -36.3831 -36.3501 -36.3441 -36.2708 -36.2346
   -36.2283 -36.2255 -36.1342 -36.0621 -36.0557 -36.0510 -36.0190 -36.0097
   -36.0068 -35.9607 -35.9087 -35.9037 -35.8991 -35.8750 -35.8470 -35.8412
   -35.8370 -35.8329 -35.7984 -35.7515 -35.7500 -35.7413 -35.7001 -35.6092
   -11.1417  -5.2365  -3.4550  -2.9066  -2.8450  -2.6517  -2.4328  -2.4279
    -2.2129  -2.0698  -1.6966  -1.6383  -1.4600  -1.3420  -1.3363  -1.1934
    -0.6166  -0.4681  -0.4253  -0.1363   0.0080   0.3104   0.5965   0.7432
     0.7704   0.8637   0.9392   1.1010   1.2416   1.3101   1.3718   1.6210
     1.6709   1.7534   1.8853   1.9395   2.0503   2.2301   2.2603   2.3295
     2.3589   2.4979   2.5521   2.7348   2.9019   2.9382   3.4098   3.5407

          k = 0.0292-0.1179 0.0000 ( 17692 PWs)   bands (ev):

   -72.1548 -72.1370 -72.1209 -72.0930 -72.0146 -71.9936 -71.9780 -71.9602
   -71.9568 -71.9447 -71.9331 -71.9183 -36.5334 -36.5073 -36.4871 -36.4747
   -36.4646 -36.4532 -36.3997 -36.3405 -36.3179 -36.2948 -36.2851 -36.2731
   -36.2190 -36.2071 -36.1451 -36.1249 -36.1009 -36.0534 -36.0390 -36.0329
   -36.0304 -35.9983 -35.9735 -35.9521 -35.9305 -35.9270 -35.8825 -35.8637
   -35.8560 -35.8480 -35.8108 -35.7870 -35.7783 -35.7725 -35.7072 -35.6557
   -11.1175  -4.4120  -3.4964  -2.7838  -2.6707  -2.3227  -1.9811  -1.8511
    -1.7082  -1.5233  -1.4378  -1.1869  -1.0023  -0.8913  -0.7438  -0.7117
    -0.6235  -0.4535  -0.3024  -0.1648  -0.0966   0.0105   0.0944   0.1469
     0.3954   0.4677   0.5647   0.6895   0.9269   1.0177   1.0995   1.1619
     1.1930   1.2669   1.4905   1.7035   1.7612   1.8352   2.0820   2.2249
     2.3042   2.5617   2.6327   2.9052   3.1191   3.2016   3.3377   3.3879

          k = 0.0292-0.0842 0.0000 ( 17692 PWs)   bands (ev):

   -72.1548 -72.1369 -72.1210 -72.0930 -72.0147 -71.9935 -71.9781 -71.9602
   -71.9569 -71.9446 -71.9333 -71.9182 -36.5335 -36.5072 -36.4871 -36.4748
   -36.4646 -36.4532 -36.3997 -36.3404 -36.3180 -36.2948 -36.2851 -36.2731
   -36.2190 -36.2070 -36.1452 -36.1250 -36.1009 -36.0533 -36.0391 -36.0328
   -36.0304 -35.9983 -35.9734 -35.9521 -35.9305 -35.9270 -35.8825 -35.8637
   -35.8560 -35.8479 -35.8108 -35.7872 -35.7782 -35.7724 -35.7072 -35.6556
   -11.1175  -4.4120  -3.4964  -2.7838  -2.6707  -2.3227  -1.9811  -1.8511
    -1.7082  -1.5234  -1.4378  -1.1868  -1.0023  -0.8914  -0.7438  -0.7117
    -0.6235  -0.4535  -0.3024  -0.1648  -0.0966   0.0105   0.0944   0.1469
     0.3954   0.4677   0.5647   0.6895   0.9269   1.0177   1.0995   1.1618
     1.1931   1.2669   1.4905   1.7035   1.7611   1.8352   2.0820   2.2249
     2.3042   2.5617   2.6327   2.9051   3.1191   3.2016   3.3376   3.3880

          k = 0.0292-0.0505 0.0000 ( 17715 PWs)   bands (ev):

   -72.1685 -72.1258 -72.1188 -72.0926 -72.0289 -71.9832 -71.9723 -71.9695
   -71.9604 -71.9352 -71.9310 -71.9188 -36.6094 -36.5723 -36.5478 -36.5462
   -36.5420 -36.5192 -36.5087 -36.3831 -36.3500 -36.3442 -36.2708 -36.2344
   -36.2285 -36.2255 -36.1342 -36.0619 -36.0560 -36.0509 -36.0190 -36.0098
   -36.0068 -35.9607 -35.9087 -35.9037 -35.8991 -35.8750 -35.8470 -35.8413
   -35.8369 -35.8329 -35.7984 -35.7516 -35.7500 -35.7413 -35.7001 -35.6092
   -11.1417  -5.2365  -3.4550  -2.9066  -2.8450  -2.6517  -2.4328  -2.4279
    -2.2129  -2.0698  -1.6966  -1.6383  -1.4601  -1.3420  -1.3363  -1.1934
    -0.6166  -0.4681  -0.4253  -0.1362   0.0080   0.3104   0.5964   0.7432
     0.7704   0.8638   0.9391   1.1009   1.2417   1.3101   1.3719   1.6209
     1.6709   1.7534   1.8853   1.9395   2.0504   2.2300   2.2603   2.3295
     2.3589   2.4979   2.5520   2.7349   2.9019   2.9381   3.4098   3.5406

          k = 0.0583-0.0337 0.0000 ( 17708 PWs)   bands (ev):

   -72.1647 -72.1304 -72.1173 -72.0932 -72.0250 -71.9879 -71.9706 -71.9656
   -71.9623 -71.9394 -71.9290 -71.9195 -36.5834 -36.5615 -36.5446 -36.5265
   -36.5145 -36.4901 -36.4751 -36.3615 -36.3508 -36.3128 -36.2734 -36.2434
   -36.2374 -36.2062 -36.1116 -36.1009 -36.0536 -36.0519 -36.0492 -36.0108
   -35.9975 -35.9911 -35.9603 -35.9083 -35.8943 -35.8918 -35.8506 -35.8382
   -35.8360 -35.8264 -35.8204 -35.8175 -35.7432 -35.7401 -35.7042 -35.6146
   -11.1336  -5.0216  -3.3333  -3.2443  -2.5460  -2.4219  -2.2442  -2.2218
    -2.1322  -2.0361  -1.7414  -1.3760  -1.3587  -1.2490  -1.1117  -1.0398
    -0.5507  -0.4109  -0.3962  -0.1740   0.0237   0.1292   0.4091   0.5446
     0.6758   0.6783   0.8726   1.0126   1.3104   1.3683   1.4398   1.4577
     1.5765   1.6201   1.7539   1.9104   2.0236   2.1388   2.1466   2.2771
     2.3670   2.3792   2.4322   2.5867   2.8348   3.0779   3.2222   3.4526

          k = 0.0583-0.0000 0.0000 ( 17715 PWs)   bands (ev):

   -72.1685 -72.1258 -72.1188 -72.0926 -72.0289 -71.9831 -71.9724 -71.9695
   -71.9603 -71.9350 -71.9311 -71.9188 -36.6094 -36.5723 -36.5478 -36.5462
   -36.5420 -36.5192 -36.5087 -36.3832 -36.3500 -36.3442 -36.2708 -36.2344
   -36.2286 -36.2255 -36.1342 -36.0619 -36.0561 -36.0509 -36.0190 -36.0098
   -36.0069 -35.9607 -35.9086 -35.9037 -35.8991 -35.8750 -35.8470 -35.8413
   -35.8369 -35.8329 -35.7984 -35.7516 -35.7500 -35.7413 -35.7001 -35.6092
   -11.1417  -5.2365  -3.4550  -2.9066  -2.8450  -2.6517  -2.4328  -2.4279
    -2.2129  -2.0698  -1.6966  -1.6383  -1.4601  -1.3420  -1.3363  -1.1934
    -0.6166  -0.4681  -0.4253  -0.1362   0.0080   0.3104   0.5964   0.7432
     0.7704   0.8638   0.9391   1.1009   1.2417   1.3101   1.3719   1.6209
     1.6709   1.7534   1.8853   1.9395   2.0504   2.2300   2.2603   2.3295
     2.3590   2.4979   2.5520   2.7349   2.9019   2.9381   3.4099   3.5406

          k = 0.0583 0.0337 0.0000 ( 17708 PWs)   bands (ev):

   -72.1647 -72.1307 -72.1170 -72.0933 -72.0249 -71.9881 -71.9703 -71.9655
   -71.9625 -71.9398 -71.9285 -71.9198 -36.5833 -36.5615 -36.5447 -36.5266
   -36.5145 -36.4901 -36.4751 -36.3612 -36.3511 -36.3127 -36.2734 -36.2436
   -36.2372 -36.2062 -36.1115 -36.1011 -36.0540 -36.0516 -36.0492 -36.0108
   -35.9975 -35.9911 -35.9602 -35.9083 -35.8944 -35.8917 -35.8506 -35.8382
   -35.8359 -35.8266 -35.8205 -35.8173 -35.7432 -35.7400 -35.7042 -35.6146
   -11.1336  -5.0216  -3.3333  -3.2442  -2.5460  -2.4219  -2.2441  -2.2218
    -2.1322  -2.0362  -1.7414  -1.3760  -1.3587  -1.2490  -1.1118  -1.0398
    -0.5506  -0.4109  -0.3962  -0.1741   0.0237   0.1292   0.4091   0.5445
     0.6757   0.6783   0.8726   1.0126   1.3104   1.3683   1.4399   1.4577
     1.5764   1.6201   1.7540   1.9104   2.0236   2.1388   2.1467   2.2771
     2.3668   2.3792   2.4323   2.5868   2.8348   3.0779   3.2221   3.4527

          k = 0.0583-0.1347 0.0000 ( 17692 PWs)   bands (ev):

   -72.1548 -72.1370 -72.1209 -72.0930 -72.0146 -71.9936 -71.9780 -71.9602
   -71.9568 -71.9447 -71.9332 -71.9182 -36.5334 -36.5073 -36.4872 -36.4747
   -36.4646 -36.4532 -36.3997 -36.3405 -36.3179 -36.2949 -36.2851 -36.2731
   -36.2190 -36.2070 -36.1451 -36.1249 -36.1009 -36.0534 -36.0389 -36.0329
   -36.0304 -35.9983 -35.9735 -35.9521 -35.9305 -35.9270 -35.8825 -35.8637
   -35.8560 -35.8480 -35.8108 -35.7870 -35.7783 -35.7725 -35.7072 -35.6557
   -11.1175  -4.4120  -3.4964  -2.7838  -2.6707  -2.3227  -1.9811  -1.8511
    -1.7082  -1.5233  -1.4378  -1.1869  -1.0023  -0.8913  -0.7438  -0.7117
    -0.6235  -0.4535  -0.3024  -0.1648  -0.0966   0.0105   0.0944   0.1469
     0.3954   0.4677   0.5647   0.6895   0.9269   1.0177   1.0995   1.1619
     1.1930   1.2669   1.4905   1.7035   1.7611   1.8352   2.0820   2.2249
     2.3042   2.5617   2.6327   2.9051   3.1191   3.2017   3.3377   3.3879

          k = 0.0583-0.1011 0.0000 ( 17592 PWs)   bands (ev):

   -72.1439 -72.1432 -72.1264 -72.0922 -72.0068 -71.9915 -71.9902 -71.9571
   -71.9490 -71.9477 -71.9400 -71.9169 -36.4788 -36.4631 -36.4576 -36.4375
   -36.4268 -36.4249 -36.3662 -36.3610 -36.3481 -36.3007 -36.2602 -36.2553
   -36.2427 -36.2219 -36.1728 -36.1034 -36.1028 -36.0995 -36.0614 -36.0333
   -36.0319 -36.0258 -35.9779 -35.9688 -35.9469 -35.9462 -35.8771 -35.8484
   -35.8453 -35.8435 -35.8198 -35.8133 -35.8097 -35.7245 -35.7197 -35.7178
   -11.1095  -3.5967  -3.5275  -3.4766  -2.2574  -2.1842  -2.0579  -1.3293
    -1.2511  -1.1466  -1.0735  -1.0629  -1.0203  -0.8257  -0.7384  -0.6033
    -0.4434  -0.3999  -0.3924  -0.3084  -0.2580  -0.1241  -0.0381   0.0046
     0.0167   0.2109   0.4084   0.6560   0.6860   0.7146   0.7272   0.8813
     0.9215   0.9884   1.4134   1.4293   1.9973   2.1202   2.2334   2.2493
     2.3704   2.4152   2.4891   2.9691   3.0222   3.2752   3.3987   3.4570

          k = 0.0583-0.0674 0.0000 ( 17692 PWs)   bands (ev):

   -72.1549 -72.1366 -72.1213 -72.0930 -72.0147 -71.9933 -71.9783 -71.9602
   -71.9569 -71.9442 -71.9337 -71.9181 -36.5335 -36.5073 -36.4873 -36.4746
   -36.4646 -36.4532 -36.3996 -36.3405 -36.3179 -36.2949 -36.2851 -36.2731
   -36.2191 -36.2069 -36.1452 -36.1249 -36.1009 -36.0534 -36.0390 -36.0329
   -36.0304 -35.9983 -35.9734 -35.9522 -35.9305 -35.9270 -35.8825 -35.8638
   -35.8558 -35.8480 -35.8109 -35.7870 -35.7783 -35.7725 -35.7072 -35.6556
   -11.1175  -4.4120  -3.4963  -2.7838  -2.6707  -2.3227  -1.9811  -1.8511
    -1.7082  -1.5233  -1.4378  -1.1868  -1.0023  -0.8913  -0.7438  -0.7117
    -0.6235  -0.4535  -0.3024  -0.1648  -0.0966   0.0105   0.0945   0.1469
     0.3955   0.4676   0.5647   0.6895   0.9269   1.0176   1.0996   1.1619
     1.1930   1.2669   1.4905   1.7036   1.7611   1.8353   2.0819   2.2249
     2.3041   2.5619   2.6327   2.9051   3.1191   3.2017   3.3375   3.3879

          k =-0.0875 0.0505 0.0000 ( 17668 PWs)   bands (ev):

   -72.1526 -72.1419 -72.1173 -72.0940 -72.0122 -71.9999 -71.9707 -71.9623
   -71.9557 -71.9498 -71.9290 -71.9198 -36.5323 -36.5062 -36.4943 -36.4840
   -36.4787 -36.4778 -36.3472 -36.3285 -36.3199 -36.3173 -36.2707 -36.2597
   -36.2089 -36.1862 -36.1464 -36.1216 -36.0723 -36.0672 -36.0655 -36.0617
   -35.9926 -35.9809 -35.9725 -35.9662 -35.9540 -35.9482 -35.9141 -35.8953
   -35.8337 -35.8246 -35.8008 -35.7954 -35.7931 -35.7882 -35.6633 -35.6554
   -11.1175  -4.1426  -4.0612  -2.7390  -2.5321  -1.9980  -1.9128  -1.7900
    -1.7547  -1.7203  -1.6945  -1.2376  -0.9392  -0.7965  -0.6232  -0.5714
    -0.5370  -0.4637  -0.4497  -0.2728   0.0164   0.0883   0.1036   0.1267
     0.3229   0.4356   0.7703   0.8308   1.0645   1.0794   1.1125   1.1243
     1.1875   1.2528   1.3828   1.7126   1.7344   1.7731   1.8971   2.2011
     2.2373   2.5055   2.6677   3.0641   3.1666   3.3146   3.3280   3.3316

          k =-0.0875 0.0842 0.0000 ( 17692 PWs)   bands (ev):

   -72.1549 -72.1366 -72.1213 -72.0930 -72.0147 -71.9933 -71.9783 -71.9602
   -71.9569 -71.9441 -71.9337 -71.9181 -36.5335 -36.5073 -36.4873 -36.4746
   -36.4646 -36.4532 -36.3996 -36.3405 -36.3179 -36.2949 -36.2851 -36.2731
   -36.2191 -36.2069 -36.1452 -36.1249 -36.1009 -36.0534 -36.0391 -36.0329
   -36.0304 -35.9983 -35.9734 -35.9522 -35.9305 -35.9270 -35.8825 -35.8638
   -35.8558 -35.8480 -35.8109 -35.7870 -35.7783 -35.7724 -35.7072 -35.6556
   -11.1175  -4.4120  -3.4963  -2.7838  -2.6707  -2.3227  -1.9811  -1.8511
    -1.7082  -1.5233  -1.4378  -1.1868  -1.0023  -0.8913  -0.7438  -0.7117
    -0.6235  -0.4535  -0.3024  -0.1648  -0.0966   0.0105   0.0945   0.1469
     0.3955   0.4677   0.5647   0.6895   0.9269   1.0177   1.0996   1.1619
     1.1930   1.2669   1.4905   1.7036   1.7611   1.8353   2.0819   2.2249
     2.3041   2.5619   2.6327   2.9051   3.1191   3.2017   3.3375   3.3879

          k =-0.0875 0.1179 0.0000 ( 17692 PWs)   bands (ev):

   -72.1548 -72.1369 -72.1210 -72.0930 -72.0147 -71.9935 -71.9781 -71.9602
   -71.9569 -71.9444 -71.9334 -71.9182 -36.5335 -36.5072 -36.4871 -36.4748
   -36.4646 -36.4532 -36.3997 -36.3404 -36.3180 -36.2948 -36.2851 -36.2731
   -36.2190 -36.2070 -36.1452 -36.1250 -36.1009 -36.0533 -36.0391 -36.0328
   -36.0304 -35.9983 -35.9734 -35.9521 -35.9305 -35.9270 -35.8825 -35.8637
   -35.8560 -35.8479 -35.8108 -35.7872 -35.7782 -35.7724 -35.7072 -35.6556
   -11.1175  -4.4120  -3.4964  -2.7838  -2.6707  -2.3227  -1.9811  -1.8511
    -1.7082  -1.5234  -1.4378  -1.1868  -1.0023  -0.8913  -0.7438  -0.7117
    -0.6235  -0.4535  -0.3024  -0.1648  -0.0966   0.0105   0.0944   0.1469
     0.3954   0.4677   0.5647   0.6895   0.9269   1.0177   1.0995   1.1618
     1.1931   1.2669   1.4905   1.7035   1.7611   1.8352   2.0820   2.2249
     2.3041   2.5617   2.6327   2.9051   3.1191   3.2017   3.3375   3.3880

          k =-0.0875-0.0505 0.0000 ( 17668 PWs)   bands (ev):

   -72.1522 -72.1425 -72.1169 -72.0941 -72.0120 -72.0002 -71.9704 -71.9625
   -71.9551 -71.9505 -71.9284 -71.9201 -36.5321 -36.5062 -36.4943 -36.4843
   -36.4788 -36.4777 -36.3474 -36.3283 -36.3198 -36.3175 -36.2705 -36.2598
   -36.2087 -36.1866 -36.1461 -36.1218 -36.0726 -36.0670 -36.0656 -36.0615
   -35.9927 -35.9811 -35.9725 -35.9662 -35.9536 -35.9486 -35.9138 -35.8956
   -35.8338 -35.8246 -35.8005 -35.7951 -35.7933 -35.7884 -35.6629 -35.6559
   -11.1175  -4.1425  -4.0613  -2.7390  -2.5322  -1.9979  -1.9129  -1.7899
    -1.7546  -1.7204  -1.6946  -1.2376  -0.9392  -0.7965  -0.6231  -0.5714
    -0.5369  -0.4637  -0.4497  -0.2727   0.0165   0.0883   0.1036   0.1266
     0.3227   0.4356   0.7703   0.8308   1.0645   1.0794   1.1125   1.1244
     1.1875   1.2528   1.3828   1.7126   1.7345   1.7730   1.8973   2.2012
     2.2373   2.5052   2.6678   3.0641   3.1664   3.3148   3.3281   3.3316

     the Fermi energy is     2.1812 ev

!    total energy              =   -1945.09805312 Ry
     Harris-Foulkes estimate   =   -1945.09806897 Ry
     estimated scf accuracy    <       0.00000548 Ry

     The total energy is the sum of the following terms:

     one-electron contribution =  -15029.82610205 Ry
     hartree contribution      =    7498.71275407 Ry
     xc contribution           =    -515.67110558 Ry
     ewald contribution        =    6101.78178042 Ry
     electric field correction =       0.00010439 Ry
     smearing contrib. (-TS)   =      -0.09548439 Ry

     convergence has been achieved in  13 iterations
 
 BEEF-vdW xc energy contributions
           1 :   -453.612314298147     
           2 :    419.580869181586     
           3 :   -359.672767377739     
           4 :    287.045080128033     
           5 :   -215.367693230392     
           6 :    154.861031210764     
           7 :   -110.127289939629     
           8 :    80.2667609811359     
           9 :   -60.8546161747264     
          10 :    46.6681157091471     
          11 :   -33.9384115075161     
          12 :    21.3270194929341     
          13 :   -9.54351154451712     
          14 :   0.134857761235025     
          15 :    5.77913155680926     
          16 :   -8.22128786683629     
          17 :    8.31261826045488     
          18 :   -7.64918458084463     
          19 :    7.51290809370539     
          20 :   -8.34185510694527     
          21 :    9.69776743792215     
          22 :   -10.6904602741239     
          23 :    10.5852391686110     
          24 :   -9.25269969548731     
          25 :    7.23569214045494     
          26 :   -5.43205207415360     
          27 :    4.59293162268068     
          28 :   -4.92244064652238     
          29 :    5.99413180963199     
          30 :   -7.01460690267209     
          31 :   -41.1675531633603     
          32 :   -30.8236333355266     

     Forces acting on atoms (Ry/au):


     negative rho (up, down):  7.930E-01 0.000E+00
     atom    1 type  1   force =    -0.00000601   -0.00000300   -0.00351758
     atom    2 type  1   force =     0.00000194    0.00084705   -0.00546410
     atom    3 type  1   force =     0.00073231   -0.00042014   -0.00549790
     atom    4 type  1   force =    -0.00073108   -0.00041983   -0.00546974
     atom    5 type  1   force =     0.00305029   -0.00176771    0.00738177
     atom    6 type  1   force =    -0.00304618   -0.00176928    0.00739329
     atom    7 type  1   force =    -0.00001672    0.00001959    0.00639291
     atom    8 type  1   force =     0.00000555    0.00352158    0.00738639
     atom    9 type  1   force =     0.00932129    0.00538980    0.08090445
     atom   10 type  1   force =    -0.00933393    0.00538942    0.08089595
     atom   11 type  1   force =    -0.00000607   -0.01076914    0.08089890
     atom   12 type  1   force =     0.00001832   -0.00001129   -0.05168244
     atom   13 type  2   force =     0.00001029   -0.00000705   -0.19962188

     Total force =     0.250005     Total SCF correction =     0.007506


     entering subroutine stress ...


     negative rho (up, down):  7.930E-01 0.000E+00
          total   stress  (Ry/bohr**3)                   (kbar)     P=  -52.42
  -0.00043932  -0.00000000  -0.00000000        -64.63     -0.00     -0.00
  -0.00000000  -0.00043935  -0.00000000         -0.00    -64.63     -0.00
  -0.00000000  -0.00000000  -0.00019042         -0.00     -0.00    -28.01


     BFGS Geometry Optimization

     number of scf cycles    =   1
     number of bfgs steps    =   0

     energy   new            =   -1945.0980531249 Ry

     new trust radius        =       0.1996218810 bohr
     new conv_thr            =       0.0000099958 Ry


ATOMIC_POSITIONS (crystal)
W1       0.166666667   0.166666667   0.405441099    0   0   0
W1       0.666666667   0.166666667   0.405441099    0   0   0
W1       0.166666667   0.666666667   0.405441099    0   0   0
W1       0.666666667   0.666666667   0.405441099    0   0   0
W1       0.833333333   0.333333333   0.500000000    0   0   0
W1       0.333333333   0.333333333   0.500000000    0   0   0
W1       0.833333333   0.833333333   0.500000000    0   0   0
W1       0.333333333   0.833333333   0.500000000    0   0   0
W1       0.000575184   0.000576492   0.596294707
W1       0.498847175   0.000576451   0.596294525
W1       0.000575370   0.498848136   0.596294588
W1       0.500002301   0.499998792   0.593450053
N1       0.166667997   0.166665912   0.651680064



     Writing output data file calc.save
     Check: negative starting charge=   -0.760411
     NEW-OLD atomic charge density approx. for the potential
     Check: negative starting charge=   -0.760897

     negative rho (up, down):  7.940E-01 0.000E+00
 
     Adding external electric field

     Computed dipole along edir(3) : 
        Dipole               -0.1785 Ry au,         -0.4538 Debye
        Dipole field         -0.0005 Ry au
 
        Potential amp.        0.0433 Ry
        Total length         45.4439 bohr
 

     total cpu time spent up to now is      523.1 secs

     per-process dynamical memory:    82.5 Mb

     Self-consistent Calculation

     iteration #  1     ecut=    36.75 Ry     beta=0.30
     Davidson diagonalization with overlap
     ethr =  1.00E-06,  avg # of iterations = 11.6

     negative rho (up, down):  7.939E-01 0.000E+00
 
     Adding external electric field

     Computed dipole along edir(3) : 
        Dipole               -0.4327 Ry au,         -1.0999 Debye
        Dipole field         -0.0012 Ry au
 
        Potential amp.        0.1051 Ry
        Total length         45.4439 bohr
 

     total cpu time spent up to now is      586.6 secs

     total energy              =   -1945.14271736 Ry
     Harris-Foulkes estimate   =   -1945.15686302 Ry
     estimated scf accuracy    <       0.03212295 Ry

     iteration #  2     ecut=    36.75 Ry     beta=0.30
     Davidson diagonalization with overlap
     ethr =  1.86E-05,  avg # of iterations =  5.3

     negative rho (up, down):  7.939E-01 0.000E+00
 
     Adding external electric field

     Computed dipole along edir(3) : 
        Dipole               -0.1017 Ry au,         -0.2584 Debye
        Dipole field         -0.0003 Ry au
 
        Potential amp.        0.0247 Ry
        Total length         45.4439 bohr
 

     total cpu time spent up to now is      627.5 secs

     total energy              =   -1945.08018675 Ry
     Harris-Foulkes estimate   =   -1945.21904628 Ry
     estimated scf accuracy    <       4.15081770 Ry

     iteration #  3     ecut=    36.75 Ry     beta=0.30
     Davidson diagonalization with overlap
     ethr =  1.86E-05,  avg # of iterations =  5.2

     negative rho (up, down):  7.940E-01 0.000E+00
 
     Adding external electric field

     Computed dipole along edir(3) : 
        Dipole               -0.1708 Ry au,         -0.4341 Debye
        Dipole field         -0.0005 Ry au
 
        Potential amp.        0.0415 Ry
        Total length         45.4439 bohr
 

     total cpu time spent up to now is      659.8 secs

     total energy              =   -1945.13865296 Ry
     Harris-Foulkes estimate   =   -1945.16648069 Ry
     estimated scf accuracy    <       0.64234432 Ry

     iteration #  4     ecut=    36.75 Ry     beta=0.30
     Davidson diagonalization with overlap
     ethr =  1.86E-05,  avg # of iterations =  3.8

     negative rho (up, down):  7.940E-01 0.000E+00
 
     Adding external electric field

     Computed dipole along edir(3) : 
        Dipole               -0.1371 Ry au,         -0.3484 Debye
        Dipole field         -0.0004 Ry au
 
        Potential amp.        0.0333 Ry
        Total length         45.4439 bohr
 

     total cpu time spent up to now is      689.8 secs

     total energy              =   -1945.15282405 Ry
     Harris-Foulkes estimate   =   -1945.15481953 Ry
     estimated scf accuracy    <       0.01482756 Ry

     iteration #  5     ecut=    36.75 Ry     beta=0.30
     Davidson diagonalization with overlap
     ethr =  8.57E-06,  avg # of iterations =  3.0

     negative rho (up, down):  7.940E-01 0.000E+00
 
     Adding external electric field

     Computed dipole along edir(3) : 
        Dipole               -0.1211 Ry au,         -0.3078 Debye
        Dipole field         -0.0003 Ry au
 
        Potential amp.        0.0294 Ry
        Total length         45.4439 bohr
 

     total cpu time spent up to now is      716.9 secs

     total energy              =   -1945.15360901 Ry
     Harris-Foulkes estimate   =   -1945.15381587 Ry
     estimated scf accuracy    <       0.00099550 Ry

     iteration #  6     ecut=    36.75 Ry     beta=0.30
     Davidson diagonalization with overlap
     ethr =  5.75E-07,  avg # of iterations =  4.3

     negative rho (up, down):  7.940E-01 0.000E+00
 
     Adding external electric field

     Computed dipole along edir(3) : 
        Dipole               -0.1240 Ry au,         -0.3152 Debye
        Dipole field         -0.0003 Ry au
 
        Potential amp.        0.0301 Ry
        Total length         45.4439 bohr
 

     total cpu time spent up to now is      747.2 secs

     total energy              =   -1945.15375793 Ry
     Harris-Foulkes estimate   =   -1945.15382925 Ry
     estimated scf accuracy    <       0.00059792 Ry

     iteration #  7     ecut=    36.75 Ry     beta=0.30
     Davidson diagonalization with overlap
     ethr =  3.46E-07,  avg # of iterations =  2.3

     negative rho (up, down):  7.941E-01 0.000E+00
 
     Adding external electric field

     Computed dipole along edir(3) : 
        Dipole               -0.1260 Ry au,         -0.3202 Debye
        Dipole field         -0.0003 Ry au
 
        Potential amp.        0.0306 Ry
        Total length         45.4439 bohr
 

     total cpu time spent up to now is      774.3 secs

     total energy              =   -1945.15377923 Ry
     Harris-Foulkes estimate   =   -1945.15379895 Ry
     estimated scf accuracy    <       0.00016600 Ry

     iteration #  8     ecut=    36.75 Ry     beta=0.30
     Davidson diagonalization with overlap
     ethr =  9.60E-08,  avg # of iterations =  4.0

     negative rho (up, down):  7.941E-01 0.000E+00
 
     Adding external electric field

     Computed dipole along edir(3) : 
        Dipole               -0.1265 Ry au,         -0.3216 Debye
        Dipole field         -0.0003 Ry au
 
        Potential amp.        0.0307 Ry
        Total length         45.4439 bohr
 

     total cpu time spent up to now is      804.3 secs

     total energy              =   -1945.15380340 Ry
     Harris-Foulkes estimate   =   -1945.15381779 Ry
     estimated scf accuracy    <       0.00014019 Ry

     iteration #  9     ecut=    36.75 Ry     beta=0.30
     Davidson diagonalization with overlap
     ethr =  8.10E-08,  avg # of iterations =  1.1

     negative rho (up, down):  7.941E-01 0.000E+00
 
     Adding external electric field

     Computed dipole along edir(3) : 
        Dipole               -0.1261 Ry au,         -0.3206 Debye
        Dipole field         -0.0003 Ry au
 
        Potential amp.        0.0306 Ry
        Total length         45.4439 bohr
 

     total cpu time spent up to now is      830.4 secs

     total energy              =   -1945.15380408 Ry
     Harris-Foulkes estimate   =   -1945.15380810 Ry
     estimated scf accuracy    <       0.00003845 Ry

     iteration # 10     ecut=    36.75 Ry     beta=0.30
     Davidson diagonalization with overlap
     ethr =  2.22E-08,  avg # of iterations =  4.0

     negative rho (up, down):  7.941E-01 0.000E+00

     negative rho (up, down):  7.941E-01 0.000E+00

     negative rho (up, down):  7.941E-01 0.000E+00

     negative rho (up, down):  7.941E-01 0.000E+00

     negative rho (up, down):  7.941E-01 0.000E+00

     negative rho (up, down):  7.941E-01 0.000E+00

     negative rho (up, down):  7.941E-01 0.000E+00

     negative rho (up, down):  7.941E-01 0.000E+00

     negative rho (up, down):  7.941E-01 0.000E+00

     negative rho (up, down):  7.941E-01 0.000E+00

     negative rho (up, down):  7.941E-01 0.000E+00

     negative rho (up, down):  7.941E-01 0.000E+00

     negative rho (up, down):  7.941E-01 0.000E+00

     negative rho (up, down):  7.941E-01 0.000E+00

     negative rho (up, down):  7.941E-01 0.000E+00

     negative rho (up, down):  7.941E-01 0.000E+00

     negative rho (up, down):  7.941E-01 0.000E+00

     negative rho (up, down):  7.941E-01 0.000E+00

     negative rho (up, down):  7.941E-01 0.000E+00

     negative rho (up, down):  7.941E-01 0.000E+00

     negative rho (up, down):  7.941E-01 0.000E+00

     negative rho (up, down):  7.941E-01 0.000E+00

     negative rho (up, down):  7.941E-01 0.000E+00

     negative rho (up, down):  7.941E-01 0.000E+00

     negative rho (up, down):  7.941E-01 0.000E+00

     negative rho (up, down):  7.941E-01 0.000E+00

     negative rho (up, down):  7.941E-01 0.000E+00

     negative rho (up, down):  7.941E-01 0.000E+00

     negative rho (up, down):  7.941E-01 0.000E+00

     negative rho (up, down):  7.941E-01 0.000E+00

     negative rho (up, down):  7.941E-01 0.000E+00

     negative rho (up, down):  7.941E-01 0.000E+00

     negative rho (up, down):  7.941E-01 0.000E+00

     negative rho (up, down):  7.941E-01 0.000E+00

     negative rho (up, down):  7.941E-01 0.000E+00
 
     Adding external electric field

     Computed dipole along edir(3) : 
        Dipole               -0.1273 Ry au,         -0.3237 Debye
        Dipole field         -0.0003 Ry au
 
        Potential amp.        0.0309 Ry
        Total length         45.4439 bohr
 

     total cpu time spent up to now is      908.3 secs

     End of self-consistent calculation

          k = 0.0000 0.0000 0.0000 ( 17753 PWs)   bands (ev):

   -72.1216 -72.0629 -72.0627 -71.9821 -71.9691 -71.9098 -71.8826 -71.8804
   -71.8802 -71.8300 -71.8296 -71.8123 -36.6461 -36.5819 -36.5819 -36.5450
   -36.5191 -36.5191 -36.5141 -36.3592 -36.3446 -36.3444 -36.2007 -36.1558
   -36.1556 -36.0823 -35.9814 -35.9812 -35.9790 -35.9397 -35.9396 -35.9375
   -35.8200 -35.8181 -35.8181 -35.8058 -35.8001 -35.8000 -35.7320 -35.7124
   -35.7124 -35.6504 -35.6503 -35.6502 -35.6151 -35.6151 -35.4693 -35.4693
   -11.6895  -5.8386  -4.0322  -3.3102  -2.8739  -2.8739  -2.7344  -2.7344
    -2.7235  -2.6553  -2.0706  -1.9828  -1.9827  -1.7593  -1.7592  -1.7148
    -0.8772  -0.8772  -0.4479   0.1314   0.1315   0.7487   0.8932   0.9424
     0.9424   1.1312   1.6247   1.6716   1.6716   1.7876   1.7877   1.8022
     2.0183   2.0184   2.1344   2.2054   2.2054   2.2935   2.3834   2.3834
     3.1999   3.2000   3.3394   3.7664   3.8874   3.9197   3.9197   4.4816

          k = 0.0000 0.0337 0.0000 ( 17716 PWs)   bands (ev):

   -72.1175 -72.0659 -72.0629 -71.9819 -71.9664 -71.9103 -71.8836 -71.8802
   -71.8789 -71.8324 -71.8299 -71.8132 -36.6114 -36.5525 -36.5396 -36.5119
   -36.4959 -36.4922 -36.4803 -36.3310 -36.3174 -36.3065 -36.1983 -36.1670
   -36.1595 -36.0988 -35.9916 -35.9872 -35.9801 -35.9557 -35.9514 -35.9254
   -35.8655 -35.8540 -35.8053 -35.8022 -35.7965 -35.7860 -35.7696 -35.7313
   -35.7261 -35.6785 -35.6784 -35.6604 -35.6391 -35.6274 -35.5227 -35.4812
   -11.6692  -5.5922  -3.7954  -3.0521  -2.8834  -2.7034  -2.6905  -2.5457
    -2.5413  -2.4630  -1.9514  -1.8232  -1.7803  -1.6088  -1.5816  -1.5190
    -0.8308  -0.7750  -0.4008   0.0405   0.0922   0.6182   0.9186   1.0274
     1.0753   1.1126   1.3488   1.3964   1.4578   1.4633   1.6041   1.9097
     1.9815   2.0829   2.0960   2.1009   2.1719   2.3220   2.3295   2.5109
     2.8071   2.8800   3.0662   3.2923   3.5087   3.5129   3.7913   4.0041

          k = 0.0000 0.0674 0.0000 ( 17708 PWs)   bands (ev):

   -72.1070 -72.0747 -72.0629 -71.9826 -71.9586 -71.9128 -71.8899 -71.8803
   -71.8692 -71.8410 -71.8299 -71.8147 -36.5330 -36.4780 -36.4571 -36.4429
   -36.4301 -36.4057 -36.3911 -36.2787 -36.2554 -36.2399 -36.1957 -36.1736
   -36.1598 -36.1121 -36.0479 -36.0260 -35.9818 -35.9758 -35.9545 -35.9286
   -35.9179 -35.9076 -35.8866 -35.8330 -35.8087 -35.8083 -35.7774 -35.7612
   -35.7565 -35.7373 -35.7282 -35.7277 -35.6634 -35.6463 -35.6056 -35.5144
   -11.6289  -4.9149  -3.2841  -3.1456  -2.5468  -2.3420  -2.2405  -2.1718
    -2.0678  -1.9526  -1.7041  -1.4060  -1.4055  -1.1659  -1.0730  -1.0176
    -0.6281  -0.4367  -0.3289  -0.1270   0.0785   0.2039   0.4661   0.6707
     0.7573   0.7600   0.9521   1.0980   1.3687   1.4609   1.5032   1.5689
     1.6288   1.7251   1.8243   2.0114   2.1156   2.2117   2.2204   2.3790
     2.4633   2.5255   2.5416   2.7141   2.9691   3.1799   3.3541   3.5473

          k = 0.0000-0.1011 0.0000 ( 17668 PWs)   bands (ev):

   -72.0979 -72.0830 -72.0629 -71.9831 -71.9532 -71.9156 -71.8928 -71.8803
   -71.8587 -71.8511 -71.8298 -71.8151 -36.4812 -36.4233 -36.4047 -36.3972
   -36.3944 -36.3941 -36.2854 -36.2430 -36.2308 -36.2307 -36.1775 -36.1719
   -36.1535 -36.1127 -36.0931 -36.0236 -36.0121 -36.0000 -35.9885 -35.9531
   -35.9170 -35.8952 -35.8795 -35.8746 -35.8606 -35.8519 -35.8503 -35.8073
   -35.7603 -35.7416 -35.7265 -35.7176 -35.7060 -35.6996 -35.5662 -35.5539
   -11.6089  -4.0655  -3.9542  -2.7622  -2.4417  -1.9805  -1.9225  -1.7542
    -1.7138  -1.6317  -1.5889  -1.3824  -1.1209  -0.7029  -0.6061  -0.5871
    -0.4556  -0.4254  -0.3726  -0.1783   0.1011   0.1876   0.2158   0.2168
     0.3951   0.5247   0.8138   0.9467   1.1294   1.1547   1.1936   1.2199
     1.2725   1.3664   1.4403   1.8025   1.8269   1.8521   1.9838   2.3077
     2.3865   2.6177   2.8039   3.1523   3.2597   3.3589   3.4144   3.4644

          k = 0.0292-0.0168 0.0000 ( 17716 PWs)   bands (ev):

   -72.1175 -72.0661 -72.0627 -71.9819 -71.9664 -71.9103 -71.8834 -71.8804
   -71.8789 -71.8327 -71.8295 -71.8133 -36.6114 -36.5525 -36.5397 -36.5119
   -36.4959 -36.4922 -36.4804 -36.3309 -36.3176 -36.3064 -36.1983 -36.1671
   -36.1593 -36.0988 -35.9915 -35.9873 -35.9801 -35.9556 -35.9515 -35.9253
   -35.8656 -35.8540 -35.8053 -35.8021 -35.7964 -35.7860 -35.7696 -35.7313
   -35.7261 -35.6786 -35.6783 -35.6604 -35.6391 -35.6274 -35.5227 -35.4812
   -11.6692  -5.5922  -3.7954  -3.0521  -2.8834  -2.7034  -2.6904  -2.5457
    -2.5413  -2.4630  -1.9514  -1.8232  -1.7804  -1.6088  -1.5816  -1.5190
    -0.8307  -0.7751  -0.4008   0.0404   0.0922   0.6182   0.9186   1.0274
     1.0753   1.1126   1.3488   1.3964   1.4579   1.4632   1.6041   1.9097
     1.9816   2.0829   2.0960   2.1009   2.1718   2.3220   2.3295   2.5109
     2.8072   2.8800   3.0662   3.2923   3.5087   3.5129   3.7913   4.0041

          k = 0.0292 0.0168 0.0000 ( 17716 PWs)   bands (ev):

   -72.1175 -72.0659 -72.0629 -71.9819 -71.9664 -71.9103 -71.8836 -71.8803
   -71.8789 -71.8325 -71.8298 -71.8132 -36.6114 -36.5525 -36.5397 -36.5119
   -36.4959 -36.4922 -36.4803 -36.3310 -36.3175 -36.3065 -36.1983 -36.1670
   -36.1595 -36.0988 -35.9916 -35.9872 -35.9801 -35.9557 -35.9514 -35.9253
   -35.8655 -35.8540 -35.8053 -35.8022 -35.7965 -35.7860 -35.7696 -35.7313
   -35.7261 -35.6785 -35.6784 -35.6604 -35.6391 -35.6274 -35.5227 -35.4812
   -11.6692  -5.5922  -3.7954  -3.0521  -2.8834  -2.7034  -2.6904  -2.5457
    -2.5413  -2.4630  -1.9514  -1.8232  -1.7803  -1.6088  -1.5816  -1.5190
    -0.8308  -0.7751  -0.4008   0.0405   0.0922   0.6182   0.9186   1.0274
     1.0753   1.1126   1.3488   1.3964   1.4579   1.4633   1.6041   1.9097
     1.9815   2.0829   2.0960   2.1009   2.1719   2.3220   2.3295   2.5109
     2.8071   2.8800   3.0662   3.2923   3.5087   3.5129   3.7913   4.0041

          k = 0.0292 0.0505 0.0000 ( 17715 PWs)   bands (ev):

   -72.1102 -72.0714 -72.0634 -71.9823 -71.9609 -71.9114 -71.8895 -71.8796
   -71.8722 -71.8368 -71.8317 -71.8140 -36.5550 -36.4955 -36.4675 -36.4599
   -36.4533 -36.4350 -36.4225 -36.2924 -36.2674 -36.2556 -36.1952 -36.1683
   -36.1669 -36.1232 -36.0603 -35.9883 -35.9780 -35.9578 -35.9390 -35.9359
   -35.9340 -35.8796 -35.8323 -35.8268 -35.8191 -35.7945 -35.7724 -35.7655
   -35.7555 -35.7397 -35.7151 -35.6608 -35.6537 -35.6511 -35.6052 -35.5085
   -11.6390  -5.1272  -3.3725  -2.8784  -2.7482  -2.5725  -2.4353  -2.3973
    -2.1606  -1.9871  -1.6896  -1.6173  -1.4556  -1.2988  -1.2383  -1.1629
    -0.7398  -0.5222  -0.3618  -0.0964   0.0380   0.3695   0.6490   0.8415
     0.8828   0.9703   1.0074   1.1577   1.3193   1.3856   1.4403   1.7192
     1.7715   1.8303   1.9637   2.0414   2.1493   2.3325   2.3741   2.4093
     2.4525   2.6164   2.6691   2.8185   3.0098   3.0833   3.5446   3.6180

          k = 0.0292-0.1179 0.0000 ( 17692 PWs)   bands (ev):

   -72.0989 -72.0808 -72.0642 -71.9831 -71.9536 -71.9129 -71.8968 -71.8785
   -71.8609 -71.8460 -71.8339 -71.8139 -36.4764 -36.4231 -36.4042 -36.3892
   -36.3781 -36.3717 -36.3231 -36.2672 -36.2352 -36.2129 -36.2032 -36.1959
   -36.1437 -36.1201 -36.0666 -36.0471 -36.0269 -35.9771 -35.9616 -35.9531
   -35.9368 -35.9183 -35.8833 -35.8781 -35.8480 -35.8359 -35.8071 -35.7883
   -35.7699 -35.7648 -35.7330 -35.7047 -35.6912 -35.6816 -35.6087 -35.5553
   -11.6089  -4.3148  -3.4211  -2.7733  -2.5867  -2.2871  -1.9911  -1.8149
    -1.6900  -1.4888  -1.3842  -1.2427  -1.1388  -0.8519  -0.6849  -0.6650
    -0.5324  -0.4753  -0.2458  -0.0759   0.0065   0.0822   0.1751   0.2462
     0.4903   0.5467   0.6421   0.7916   1.0142   1.0865   1.1799   1.2387
     1.3061   1.3500   1.5744   1.7848   1.8475   1.9147   2.1731   2.3340
     2.4169   2.6646   2.7353   3.0330   3.2278   3.2931   3.4250   3.5046

          k = 0.0292-0.0842 0.0000 ( 17692 PWs)   bands (ev):

   -72.0989 -72.0809 -72.0641 -71.9831 -71.9535 -71.9130 -71.8968 -71.8786
   -71.8609 -71.8461 -71.8338 -71.8140 -36.4764 -36.4232 -36.4042 -36.3892
   -36.3781 -36.3717 -36.3231 -36.2672 -36.2352 -36.2129 -36.2031 -36.1959
   -36.1438 -36.1201 -36.0665 -36.0470 -36.0270 -35.9771 -35.9616 -35.9530
   -35.9369 -35.9183 -35.8833 -35.8782 -35.8480 -35.8359 -35.8071 -35.7883
   -35.7698 -35.7649 -35.7330 -35.7047 -35.6911 -35.6818 -35.6087 -35.5553
   -11.6089  -4.3148  -3.4211  -2.7733  -2.5867  -2.2871  -1.9911  -1.8149
    -1.6900  -1.4888  -1.3842  -1.2428  -1.1388  -0.8519  -0.6848  -0.6650
    -0.5324  -0.4753  -0.2458  -0.0760   0.0065   0.0822   0.1751   0.2462
     0.4903   0.5467   0.6421   0.7916   1.0143   1.0865   1.1799   1.2387
     1.3061   1.3500   1.5744   1.7848   1.8475   1.9147   2.1731   2.3340
     2.4169   2.6646   2.7353   3.0330   3.2278   3.2931   3.4251   3.5045

          k = 0.0292-0.0505 0.0000 ( 17715 PWs)   bands (ev):

   -72.1102 -72.0716 -72.0633 -71.9823 -71.9609 -71.9115 -71.8893 -71.8797
   -71.8722 -71.8371 -71.8313 -71.8141 -36.5550 -36.4956 -36.4675 -36.4598
   -36.4534 -36.4349 -36.4226 -36.2924 -36.2675 -36.2555 -36.1952 -36.1683
   -36.1669 -36.1232 -36.0604 -35.9884 -35.9779 -35.9579 -35.9390 -35.9359
   -35.9339 -35.8796 -35.8323 -35.8267 -35.8191 -35.7945 -35.7724 -35.7654
   -35.7555 -35.7397 -35.7151 -35.6608 -35.6537 -35.6511 -35.6052 -35.5085
   -11.6390  -5.1272  -3.3725  -2.8784  -2.7482  -2.5725  -2.4353  -2.3973
    -2.1606  -1.9871  -1.6896  -1.6173  -1.4556  -1.2988  -1.2383  -1.1629
    -0.7398  -0.5222  -0.3618  -0.0964   0.0381   0.3694   0.6490   0.8415
     0.8828   0.9702   1.0075   1.1577   1.3192   1.3856   1.4403   1.7193
     1.7715   1.8303   1.9637   2.0413   2.1493   2.3325   2.3741   2.4093
     2.4525   2.6164   2.6692   2.8185   3.0098   3.0833   3.5445   3.6181

          k = 0.0583-0.0337 0.0000 ( 17708 PWs)   bands (ev):

   -72.1070 -72.0749 -72.0627 -71.9826 -71.9586 -71.9130 -71.8896 -71.8804
   -71.8691 -71.8413 -71.8295 -71.8148 -36.5329 -36.4780 -36.4572 -36.4429
   -36.4301 -36.4057 -36.3911 -36.2785 -36.2556 -36.2399 -36.1957 -36.1735
   -36.1597 -36.1121 -36.0479 -36.0261 -35.9820 -35.9756 -35.9545 -35.9286
   -35.9178 -35.9077 -35.8865 -35.8331 -35.8088 -35.8082 -35.7774 -35.7611
   -35.7565 -35.7374 -35.7283 -35.7276 -35.6634 -35.6463 -35.6056 -35.5144
   -11.6289  -4.9149  -3.2842  -3.1456  -2.5468  -2.3420  -2.2405  -2.1718
    -2.0679  -1.9526  -1.7041  -1.4059  -1.4055  -1.1659  -1.0730  -1.0175
    -0.6281  -0.4367  -0.3288  -0.1271   0.0785   0.2039   0.4661   0.6706
     0.7574   0.7600   0.9521   1.0980   1.3687   1.4609   1.5033   1.5689
     1.6288   1.7251   1.8244   2.0113   2.1156   2.2117   2.2204   2.3790
     2.4632   2.5255   2.5416   2.7142   2.9691   3.1799   3.3540   3.5474

          k = 0.0583-0.0000 0.0000 ( 17715 PWs)   bands (ev):

   -72.1102 -72.0716 -72.0633 -71.9823 -71.9609 -71.9115 -71.8893 -71.8797
   -71.8722 -71.8371 -71.8312 -71.8141 -36.5550 -36.4956 -36.4675 -36.4598
   -36.4534 -36.4349 -36.4226 -36.2924 -36.2676 -36.2555 -36.1952 -36.1683
   -36.1668 -36.1232 -36.0604 -35.9884 -35.9778 -35.9579 -35.9390 -35.9359
   -35.9339 -35.8796 -35.8323 -35.8266 -35.8192 -35.7945 -35.7724 -35.7654
   -35.7555 -35.7397 -35.7151 -35.6608 -35.6537 -35.6511 -35.6052 -35.5085
   -11.6390  -5.1272  -3.3725  -2.8784  -2.7482  -2.5725  -2.4353  -2.3973
    -2.1606  -1.9871  -1.6896  -1.6173  -1.4556  -1.2988  -1.2383  -1.1629
    -0.7398  -0.5222  -0.3618  -0.0964   0.0381   0.3694   0.6490   0.8415
     0.8828   0.9702   1.0075   1.1577   1.3192   1.3856   1.4403   1.7193
     1.7715   1.8303   1.9637   2.0413   2.1493   2.3326   2.3741   2.4093
     2.4525   2.6164   2.6692   2.8185   3.0098   3.0833   3.5445   3.6181

          k = 0.0583 0.0337 0.0000 ( 17708 PWs)   bands (ev):

   -72.1070 -72.0747 -72.0629 -71.9826 -71.9586 -71.9128 -71.8898 -71.8803
   -71.8692 -71.8411 -71.8298 -71.8147 -36.5330 -36.4780 -36.4571 -36.4429
   -36.4301 -36.4057 -36.3911 -36.2786 -36.2554 -36.2399 -36.1957 -36.1736
   -36.1597 -36.1121 -36.0479 -36.0260 -35.9819 -35.9758 -35.9545 -35.9286
   -35.9179 -35.9076 -35.8866 -35.8331 -35.8087 -35.8082 -35.7774 -35.7611
   -35.7565 -35.7373 -35.7282 -35.7277 -35.6634 -35.6463 -35.6056 -35.5144
   -11.6289  -4.9149  -3.2842  -3.1456  -2.5468  -2.3420  -2.2405  -2.1718
    -2.0678  -1.9526  -1.7041  -1.4060  -1.4055  -1.1659  -1.0730  -1.0176
    -0.6281  -0.4367  -0.3288  -0.1270   0.0785   0.2039   0.4661   0.6707
     0.7574   0.7600   0.9521   1.0980   1.3687   1.4609   1.5032   1.5689
     1.6288   1.7251   1.8243   2.0114   2.1156   2.2117   2.2204   2.3790
     2.4633   2.5255   2.5416   2.7142   2.9691   3.1799   3.3541   3.5473

          k = 0.0583-0.1347 0.0000 ( 17692 PWs)   bands (ev):

   -72.0989 -72.0808 -72.0642 -71.9831 -71.9536 -71.9130 -71.8968 -71.8785
   -71.8609 -71.8461 -71.8338 -71.8140 -36.4764 -36.4231 -36.4042 -36.3892
   -36.3781 -36.3717 -36.3231 -36.2672 -36.2352 -36.2129 -36.2032 -36.1959
   -36.1437 -36.1201 -36.0666 -36.0471 -36.0269 -35.9771 -35.9616 -35.9531
   -35.9368 -35.9183 -35.8833 -35.8781 -35.8480 -35.8359 -35.8071 -35.7883
   -35.7699 -35.7648 -35.7330 -35.7048 -35.6912 -35.6816 -35.6087 -35.5553
   -11.6089  -4.3148  -3.4211  -2.7733  -2.5867  -2.2871  -1.9911  -1.8149
    -1.6900  -1.4888  -1.3842  -1.2427  -1.1388  -0.8519  -0.6849  -0.6650
    -0.5324  -0.4753  -0.2458  -0.0759   0.0065   0.0822   0.1750   0.2462
     0.4903   0.5467   0.6421   0.7916   1.0142   1.0865   1.1799   1.2387
     1.3061   1.3500   1.5744   1.7848   1.8475   1.9147   2.1731   2.3340
     2.4169   2.6646   2.7353   3.0330   3.2278   3.2930   3.4250   3.5046

          k = 0.0583-0.1011 0.0000 ( 17592 PWs)   bands (ev):

   -72.0906 -72.0874 -72.0656 -71.9833 -71.9508 -71.9074 -71.9065 -71.8772
   -71.8521 -71.8505 -71.8390 -71.8130 -36.4081 -36.3976 -36.3662 -36.3599
   -36.3466 -36.3405 -36.2905 -36.2766 -36.2607 -36.2424 -36.1890 -36.1722
   -36.1645 -36.1292 -36.0937 -36.0240 -36.0179 -36.0057 -35.9851 -35.9539
   -35.9428 -35.9370 -35.9055 -35.8831 -35.8701 -35.8647 -35.8032 -35.7714
   -35.7688 -35.7546 -35.7491 -35.7258 -35.7215 -35.6288 -35.6209 -35.6170
   -11.5989  -3.5560  -3.4349  -3.3659  -2.3114  -2.1676  -1.9927  -1.5323
    -1.2900  -1.2194  -1.0005  -0.9734  -0.9474  -0.8012  -0.7303  -0.5511
    -0.3703  -0.3330  -0.2732  -0.2092  -0.1588  -0.0287   0.0297   0.0618
     0.1340   0.2598   0.4746   0.7609   0.7792   0.7867   0.8799   0.9762
     0.9844   1.0492   1.5165   1.5318   2.0705   2.2244   2.2895   2.3776
     2.4649   2.4800   2.5777   3.1062   3.1333   3.3437   3.5900   3.5904

          k = 0.0583-0.0674 0.0000 ( 17692 PWs)   bands (ev):

   -72.0988 -72.0811 -72.0640 -71.9831 -71.9535 -71.9131 -71.8966 -71.8786
   -71.8608 -71.8464 -71.8335 -71.8140 -36.4763 -36.4232 -36.4041 -36.3894
   -36.3781 -36.3717 -36.3231 -36.2672 -36.2352 -36.2128 -36.2032 -36.1958
   -36.1437 -36.1202 -36.0666 -36.0471 -36.0269 -35.9771 -35.9615 -35.9531
   -35.9368 -35.9183 -35.8833 -35.8781 -35.8480 -35.8359 -35.8071 -35.7884
   -35.7699 -35.7648 -35.7329 -35.7048 -35.6913 -35.6816 -35.6086 -35.5553
   -11.6089  -4.3148  -3.4211  -2.7732  -2.5867  -2.2871  -1.9911  -1.8149
    -1.6901  -1.4889  -1.3842  -1.2427  -1.1388  -0.8520  -0.6848  -0.6649
    -0.5324  -0.4753  -0.2458  -0.0760   0.0065   0.0821   0.1750   0.2462
     0.4902   0.5467   0.6421   0.7916   1.0143   1.0866   1.1799   1.2386
     1.3061   1.3500   1.5744   1.7848   1.8475   1.9147   2.1731   2.3340
     2.4169   2.6645   2.7353   3.0330   3.2278   3.2930   3.4251   3.5046

          k =-0.0875 0.0505 0.0000 ( 17668 PWs)   bands (ev):

   -72.0977 -72.0834 -72.0627 -71.9831 -71.9531 -71.9158 -71.8925 -71.8804
   -71.8583 -71.8517 -71.8295 -71.8153 -36.4810 -36.4233 -36.4047 -36.3973
   -36.3945 -36.3942 -36.2856 -36.2429 -36.2309 -36.2306 -36.1773 -36.1721
   -36.1534 -36.1130 -36.0929 -36.0236 -36.0123 -35.9998 -35.9884 -35.9532
   -35.9170 -35.8953 -35.8795 -35.8745 -35.8603 -35.8517 -35.8506 -35.8074
   -35.7605 -35.7415 -35.7263 -35.7174 -35.7062 -35.6998 -35.5659 -35.5542
   -11.6089  -4.0655  -3.9543  -2.7622  -2.4417  -1.9805  -1.9224  -1.7542
    -1.7139  -1.6316  -1.5889  -1.3824  -1.1209  -0.7030  -0.6061  -0.5871
    -0.4557  -0.4254  -0.3726  -0.1782   0.1012   0.1876   0.2157   0.2168
     0.3949   0.5248   0.8138   0.9467   1.1294   1.1547   1.1935   1.2200
     1.2725   1.3664   1.4403   1.8025   1.8269   1.8519   1.9839   2.3078
     2.3865   2.6175   2.8040   3.1522   3.2597   3.3591   3.4144   3.4644

          k =-0.0875 0.0842 0.0000 ( 17692 PWs)   bands (ev):

   -72.0988 -72.0811 -72.0640 -71.9831 -71.9535 -71.9131 -71.8966 -71.8786
   -71.8608 -71.8464 -71.8335 -71.8140 -36.4763 -36.4232 -36.4041 -36.3894
   -36.3781 -36.3718 -36.3231 -36.2672 -36.2352 -36.2128 -36.2032 -36.1958
   -36.1437 -36.1202 -36.0666 -36.0471 -36.0269 -35.9771 -35.9615 -35.9531
   -35.9368 -35.9183 -35.8833 -35.8781 -35.8480 -35.8359 -35.8071 -35.7884
   -35.7699 -35.7648 -35.7329 -35.7047 -35.6912 -35.6816 -35.6086 -35.5553
   -11.6089  -4.3148  -3.4211  -2.7732  -2.5867  -2.2871  -1.9911  -1.8149
    -1.6901  -1.4889  -1.3842  -1.2427  -1.1388  -0.8520  -0.6848  -0.6649
    -0.5324  -0.4753  -0.2458  -0.0760   0.0065   0.0821   0.1750   0.2462
     0.4902   0.5467   0.6421   0.7916   1.0143   1.0866   1.1799   1.2386
     1.3061   1.3500   1.5744   1.7848   1.8475   1.9147   2.1731   2.3340
     2.4169   2.6645   2.7353   3.0330   3.2278   3.2930   3.4252   3.5046

          k =-0.0875 0.1179 0.0000 ( 17692 PWs)   bands (ev):

   -72.0989 -72.0809 -72.0641 -71.9831 -71.9535 -71.9130 -71.8967 -71.8786
   -71.8609 -71.8462 -71.8337 -71.8140 -36.4764 -36.4232 -36.4042 -36.3892
   -36.3781 -36.3717 -36.3231 -36.2672 -36.2352 -36.2129 -36.2031 -36.1959
   -36.1438 -36.1201 -36.0665 -36.0470 -36.0270 -35.9771 -35.9616 -35.9530
   -35.9369 -35.9183 -35.8833 -35.8781 -35.8480 -35.8359 -35.8071 -35.7883
   -35.7698 -35.7649 -35.7330 -35.7047 -35.6911 -35.6818 -35.6086 -35.5553
   -11.6089  -4.3148  -3.4211  -2.7733  -2.5867  -2.2871  -1.9911  -1.8149
    -1.6901  -1.4888  -1.3842  -1.2427  -1.1388  -0.8519  -0.6848  -0.6650
    -0.5324  -0.4753  -0.2458  -0.0760   0.0065   0.0822   0.1751   0.2462
     0.4903   0.5467   0.6421   0.7916   1.0143   1.0865   1.1799   1.2387
     1.3061   1.3500   1.5744   1.7848   1.8475   1.9147   2.1731   2.3340
     2.4169   2.6646   2.7353   3.0330   3.2278   3.2931   3.4251   3.5045

          k =-0.0875-0.0505 0.0000 ( 17668 PWs)   bands (ev):

   -72.0979 -72.0831 -72.0628 -71.9831 -71.9532 -71.9156 -71.8928 -71.8803
   -71.8586 -71.8512 -71.8298 -71.8152 -36.4811 -36.4233 -36.4047 -36.3972
   -36.3945 -36.3941 -36.2854 -36.2430 -36.2308 -36.2307 -36.1775 -36.1720
   -36.1535 -36.1128 -36.0931 -36.0236 -36.0122 -35.9999 -35.9885 -35.9532
   -35.9170 -35.8952 -35.8795 -35.8746 -35.8605 -35.8519 -35.8504 -35.8073
   -35.7604 -35.7416 -35.7264 -35.7176 -35.7061 -35.6996 -35.5662 -35.5540
   -11.6089  -4.0655  -3.9542  -2.7622  -2.4417  -1.9805  -1.9225  -1.7542
    -1.7138  -1.6317  -1.5889  -1.3824  -1.1209  -0.7030  -0.6061  -0.5871
    -0.4556  -0.4254  -0.3726  -0.1783   0.1012   0.1876   0.2158   0.2168
     0.3950   0.5248   0.8138   0.9467   1.1294   1.1547   1.1936   1.2199
     1.2725   1.3664   1.4403   1.8025   1.8269   1.8521   1.9838   2.3077
     2.3865   2.6177   2.8039   3.1523   3.2597   3.3590   3.4144   3.4644

     the Fermi energy is     2.2835 ev

!    total energy              =   -1945.15380458 Ry
     Harris-Foulkes estimate   =   -1945.15380962 Ry
     estimated scf accuracy    <       0.00000830 Ry

     The total energy is the sum of the following terms:

     one-electron contribution =  -15008.85419949 Ry
     hartree contribution      =    7488.58971371 Ry
     xc contribution           =    -515.72319592 Ry
     ewald contribution        =    6090.92726539 Ry
     electric field correction =       0.00004332 Ry
     smearing contrib. (-TS)   =      -0.09343159 Ry

     convergence has been achieved in  10 iterations
 
 BEEF-vdW xc energy contributions
           1 :   -453.664447934082     
           2 :    419.643780914270     
           3 :   -359.745110352491     
           4 :    287.117214087593     
           5 :   -215.430380017123     
           6 :    154.907016302633     
           7 :   -110.148265503992     
           8 :    80.2518426552307     
           9 :   -60.7942335006245     
          10 :    46.5614426668182     
          11 :   -33.7985538824036     
          12 :    21.1792268586810     
          13 :   -9.41687006268637     
          14 :   5.144829756670788E-002
          15 :    5.81277978061320     
          16 :   -8.21542213590953     
          17 :    8.28731699151353     
          18 :   -7.62379106659853     
          19 :    7.49739121457281     
          20 :   -8.33429748364904     
          21 :    9.68924724459453     
          22 :   -10.6738980276808     
          23 :    10.5623639919714     
          24 :   -9.23483945624071     
          25 :    7.23741872709968     
          26 :   -5.46105008447910     
          27 :    4.64258509194281     
          28 :   -4.97242522797455     
          29 :    6.01923060647874     
          30 :   -6.99751481068478     
          31 :   -41.1704037838423     
          32 :   -30.8290437046558     

     Forces acting on atoms (Ry/au):


     negative rho (up, down):  7.941E-01 0.000E+00
     atom    1 type  1   force =     0.00002590   -0.00001781   -0.00266699
     atom    2 type  1   force =    -0.00002843    0.00082831   -0.00686850
     atom    3 type  1   force =     0.00072795   -0.00041770   -0.00679084
     atom    4 type  1   force =    -0.00073423   -0.00038785   -0.00685499
     atom    5 type  1   force =     0.00665874   -0.00383116    0.01429914
     atom    6 type  1   force =    -0.00664899   -0.00380070    0.01428389
     atom    7 type  1   force =     0.00002333   -0.00002548    0.02141961
     atom    8 type  1   force =    -0.00002185    0.00765081    0.01427463
     atom    9 type  1   force =     0.00206173    0.00114043    0.05649634
     atom   10 type  1   force =    -0.00206427    0.00118532    0.05646243
     atom   11 type  1   force =     0.00003728   -0.00235220    0.05649881
     atom   12 type  1   force =    -0.00003499    0.00002687   -0.05706256
     atom   13 type  2   force =    -0.00000217    0.00000117   -0.15349096

     Total force =     0.190799     Total SCF correction =     0.007918


     entering subroutine stress ...


     negative rho (up, down):  7.941E-01 0.000E+00
          total   stress  (Ry/bohr**3)                   (kbar)     P=  -51.32
  -0.00043300   0.00000000   0.00000001        -63.70      0.00      0.00
   0.00000000  -0.00043300  -0.00000000          0.00    -63.70     -0.00
   0.00000001  -0.00000000  -0.00018053          0.00     -0.00    -26.56


     number of scf cycles    =   2
     number of bfgs steps    =   1

     energy   old            =   -1945.0980531249 Ry
     energy   new            =   -1945.1538045820 Ry

     CASE: energy  _new < energy  _old

     new trust radius        =       0.2994328216 bohr
     new conv_thr            =       0.0000001000 Ry


ATOMIC_POSITIONS (crystal)
W1       0.166666667   0.166666667   0.405441099    0   0   0
W1       0.666666667   0.166666667   0.405441099    0   0   0
W1       0.166666667   0.666666667   0.405441099    0   0   0
W1       0.666666667   0.666666667   0.405441099    0   0   0
W1       0.833333333   0.333333333   0.500000000    0   0   0
W1       0.333333333   0.333333333   0.500000000    0   0   0
W1       0.833333333   0.833333333   0.500000000    0   0   0
W1       0.333333333   0.833333333   0.500000000    0   0   0
W1       0.000853674   0.000840079   0.598669126
W1       0.498300094   0.000849019   0.598667571
W1       0.000852489   0.498306751   0.598669099
W1       0.499993688   0.500004096   0.591091356
N1       0.166667587   0.166666100   0.645255727



     Writing output data file calc.save
     Check: negative starting charge=   -0.760897
     NEW-OLD atomic charge density approx. for the potential
     Check: negative starting charge=   -0.760100

     negative rho (up, down):  7.925E-01 0.000E+00
 
     Adding external electric field

     Computed dipole along edir(3) : 
        Dipole               -0.1051 Ry au,         -0.2671 Debye
        Dipole field         -0.0003 Ry au
 
        Potential amp.        0.0255 Ry
        Total length         45.4439 bohr
 

     total cpu time spent up to now is     1020.4 secs

     per-process dynamical memory:    82.5 Mb

     Self-consistent Calculation

     iteration #  1     ecut=    36.75 Ry     beta=0.30
     Davidson diagonalization with overlap
     c_bands:  1 eigenvalues not converged
     ethr =  1.00E-06,  avg # of iterations = 14.8

     negative rho (up, down):  7.925E-01 0.000E+00
 
     Adding external electric field

     Computed dipole along edir(3) : 
        Dipole               -0.0982 Ry au,         -0.2495 Debye
        Dipole field         -0.0003 Ry au
 
        Potential amp.        0.0238 Ry
        Total length         45.4439 bohr
 

     total cpu time spent up to now is     1068.1 secs

     total energy              =   -1945.19357165 Ry
     Harris-Foulkes estimate   =   -1945.20789645 Ry
[...]
    -2.1707  -1.8297  -1.7084  -1.6414  -1.4975  -1.1292  -1.0767  -1.0479
    -0.8235  -0.5333  -0.1227   0.0551   0.1117   0.5016   0.6215   0.9877
     1.0354   1.0894   1.1567   1.2711   1.4317   1.6299   1.7110   1.7871
     1.8751   2.0213   2.1121   2.2974   2.3676   2.4387   2.4794   2.6282
     2.6491   2.8921   2.9473   3.0051   3.3074   3.4184   3.7856   3.9014

          k = 0.0583-0.0337 0.0000 ( 17708 PWs)   bands (ev):

   -71.9530 -71.9205 -71.9093 -71.7954 -71.6902 -71.6609 -71.6493 -71.6396
   -71.6281 -71.6110 -71.6012 -71.5723 -36.4939 -36.3111 -36.3034 -36.2841
   -36.2280 -36.2248 -36.1932 -36.1141 -36.0632 -36.0557 -36.0217 -36.0187
   -35.9904 -35.9100 -35.8971 -35.8671 -35.7999 -35.7856 -35.7444 -35.7396
   -35.7204 -35.6947 -35.6920 -35.6289 -35.6242 -35.5743 -35.5598 -35.5436
   -35.5401 -35.4880 -35.4703 -35.4154 -35.4018 -35.3588 -35.3115 -35.3051
   -12.5353  -4.7616  -3.4943  -2.9969  -2.8010  -2.6620  -2.4535  -2.1006
    -1.9190  -1.8080  -1.6947  -1.5002  -1.4441  -1.0683  -0.9395  -0.9153
    -0.6052  -0.4564  -0.0998   0.0409   0.1319   0.3787   0.4770   0.8339
     0.8681   0.8775   1.0666   1.2784   1.4186   1.5366   1.6810   1.7453
     1.8345   1.9640   2.0189   2.2448   2.2901   2.3237   2.4481   2.4895
     2.5399   2.7481   2.9349   2.9955   3.3051   3.4014   3.7487   3.8301

          k = 0.0583-0.0000 0.0000 ( 17715 PWs)   bands (ev):

   -71.9556 -71.9180 -71.9094 -71.7961 -71.6934 -71.6598 -71.6468 -71.6424
   -71.6256 -71.6096 -71.6012 -71.5728 -36.5181 -36.3331 -36.3225 -36.2985
   -36.2476 -36.2370 -36.2172 -36.1226 -36.0809 -36.0681 -36.0240 -36.0159
   -36.0035 -35.9249 -35.8785 -35.8166 -35.7953 -35.7805 -35.7777 -35.7395
   -35.7129 -35.6870 -35.6569 -35.6224 -35.6160 -35.5722 -35.5658 -35.5267
   -35.4808 -35.4655 -35.4530 -35.4390 -35.3867 -35.3574 -35.3141 -35.2997
   -12.5520  -4.9626  -3.4510  -3.0290  -2.9378  -2.6175  -2.5327  -2.3925
    -2.1707  -1.8297  -1.7084  -1.6414  -1.4975  -1.1292  -1.0767  -1.0479
    -0.8235  -0.5333  -0.1227   0.0551   0.1117   0.5016   0.6215   0.9877
     1.0354   1.0894   1.1567   1.2711   1.4317   1.6299   1.7110   1.7871
     1.8751   2.0213   2.1121   2.2974   2.3676   2.4387   2.4794   2.6282
     2.6491   2.8921   2.9473   3.0051   3.3074   3.4184   3.7856   3.9014

          k = 0.0583 0.0337 0.0000 ( 17708 PWs)   bands (ev):

   -71.9529 -71.9206 -71.9093 -71.7954 -71.6902 -71.6609 -71.6493 -71.6397
   -71.6281 -71.6110 -71.6013 -71.5723 -36.4939 -36.3111 -36.3034 -36.2841
   -36.2280 -36.2248 -36.1932 -36.1142 -36.0632 -36.0557 -36.0217 -36.0186
   -35.9904 -35.9100 -35.8971 -35.8672 -35.7999 -35.7856 -35.7444 -35.7396
   -35.7204 -35.6947 -35.6920 -35.6289 -35.6242 -35.5743 -35.5598 -35.5436
   -35.5401 -35.4880 -35.4703 -35.4154 -35.4017 -35.3588 -35.3114 -35.3051
   -12.5353  -4.7616  -3.4943  -2.9969  -2.8010  -2.6620  -2.4534  -2.1006
    -1.9190  -1.8080  -1.6947  -1.5002  -1.4441  -1.0683  -0.9395  -0.9153
    -0.6052  -0.4564  -0.0998   0.0409   0.1320   0.3786   0.4770   0.8339
     0.8682   0.8775   1.0666   1.2784   1.4186   1.5367   1.6810   1.7453
     1.8345   1.9640   2.0189   2.2448   2.2901   2.3237   2.4481   2.4895
     2.5399   2.7481   2.9349   2.9955   3.3051   3.4014   3.7487   3.8301

          k = 0.0583-0.1347 0.0000 ( 17692 PWs)   bands (ev):

   -71.9463 -71.9267 -71.9096 -71.7941 -71.6816 -71.6631 -71.6502 -71.6460
   -71.6267 -71.6142 -71.6012 -71.5713 -36.4256 -36.2802 -36.2585 -36.2340
   -36.2070 -36.1815 -36.1353 -36.0966 -36.0535 -36.0406 -36.0221 -36.0043
   -35.9919 -35.9254 -35.9040 -35.8618 -35.8293 -35.7924 -35.7814 -35.7588
   -35.7404 -35.7094 -35.6826 -35.6640 -35.6473 -35.6065 -35.5964 -35.5741
   -35.5444 -35.5150 -35.4891 -35.4267 -35.3985 -35.3811 -35.3457 -35.3032
   -12.5016  -4.2226  -3.5035  -2.9415  -2.6952  -2.4378  -2.2030  -2.0019
    -1.6952  -1.4735  -1.3391  -1.2670  -1.1566  -0.7840  -0.6577  -0.5659
    -0.4489  -0.3405  -0.1045   0.0163   0.1422   0.2489   0.3240   0.3995
     0.6196   0.6471   0.7475   1.0282   1.0860   1.1656   1.2867   1.4114
     1.5124   1.5900   1.7392   1.9742   2.0555   2.1566   2.3991   2.5225
     2.6267   2.8915   3.1008   3.2191   3.3999   3.5540   3.6818   3.7474

          k = 0.0583-0.1011 0.0000 ( 17592 PWs)   bands (ev):

   -71.9403 -71.9321 -71.9099 -71.7934 -71.6745 -71.6616 -71.6588 -71.6469
   -71.6253 -71.6158 -71.6011 -71.5709 -36.3424 -36.3245 -36.2219 -36.1833
   -36.1805 -36.1732 -36.1079 -36.0898 -36.0651 -36.0579 -36.0196 -36.0180
   -35.9391 -35.9358 -35.9081 -35.8354 -35.8255 -35.8195 -35.7997 -35.7735
   -35.7724 -35.7364 -35.7020 -35.6987 -35.6419 -35.6141 -35.6101 -35.5531
   -35.5487 -35.5250 -35.4465 -35.4461 -35.4286 -35.3889 -35.3834 -35.2992
   -12.4846  -3.7950  -3.3093  -3.1819  -2.5747  -2.5681  -2.1712  -1.7408
    -1.4422  -1.3989  -1.0397  -0.9020  -0.8773  -0.7851  -0.4936  -0.4070
    -0.3009  -0.1967  -0.0889  -0.0710  -0.0211  -0.0067   0.2220   0.2235
     0.2895   0.5470   0.5544   0.8376   0.9156   0.9951   1.0488   1.1247
     1.2033   1.2758   1.7117   1.7285   2.0358   2.4272   2.5337   2.5852
     2.6892   2.8121   2.9480   3.1802   3.4547   3.6476   3.7893   3.8709

          k = 0.0583-0.0674 0.0000 ( 17692 PWs)   bands (ev):

   -71.9463 -71.9266 -71.9096 -71.7941 -71.6816 -71.6632 -71.6501 -71.6460
   -71.6267 -71.6142 -71.6012 -71.5713 -36.4256 -36.2802 -36.2585 -36.2340
   -36.2070 -36.1815 -36.1353 -36.0966 -36.0535 -36.0406 -36.0221 -36.0043
   -35.9919 -35.9254 -35.9040 -35.8618 -35.8293 -35.7924 -35.7814 -35.7588
   -35.7404 -35.7094 -35.6826 -35.6640 -35.6473 -35.6065 -35.5964 -35.5741
   -35.5444 -35.5150 -35.4891 -35.4267 -35.3985 -35.3810 -35.3457 -35.3032
   -12.5016  -4.2226  -3.5035  -2.9415  -2.6952  -2.4378  -2.2030  -2.0019
    -1.6952  -1.4735  -1.3391  -1.2670  -1.1566  -0.7840  -0.6577  -0.5659
    -0.4489  -0.3405  -0.1045   0.0163   0.1422   0.2489   0.3240   0.3995
     0.6196   0.6471   0.7475   1.0282   1.0860   1.1656   1.2867   1.4114
     1.5124   1.5900   1.7392   1.9742   2.0555   2.1566   2.3991   2.5225
     2.6267   2.8915   3.1008   3.2191   3.3999   3.5540   3.6818   3.7473

          k =-0.0875 0.0505 0.0000 ( 17668 PWs)   bands (ev):

   -71.9460 -71.9271 -71.9093 -71.7940 -71.6798 -71.6686 -71.6490 -71.6396
   -71.6311 -71.6137 -71.6012 -71.5713 -36.4337 -36.2683 -36.2557 -36.2499
   -36.2117 -36.1892 -36.1236 -36.0697 -36.0471 -36.0411 -36.0149 -35.9868
   -35.9849 -35.9676 -35.9539 -35.8419 -35.8077 -35.7953 -35.7582 -35.7270
   -35.7187 -35.7032 -35.6954 -35.6676 -35.6629 -35.6303 -35.6132 -35.5857
   -35.5725 -35.5271 -35.4924 -35.4109 -35.3941 -35.3674 -35.3264 -35.3100
   -12.5016  -4.0855  -3.7843  -3.0631  -2.6012  -2.3832  -2.1342  -1.8238
    -1.5590  -1.4799  -1.4286  -1.4239  -1.2640  -0.7207  -0.6963  -0.4986
    -0.3606  -0.3008  -0.1877  -0.0226   0.1975   0.2977   0.3611   0.4313
     0.6107   0.6243   0.8190   1.0355   1.1992   1.2851   1.3796   1.3891
     1.4711   1.5635   1.6693   1.9916   2.0332   2.0712   2.3091   2.4884
     2.6093   2.8586   3.1568   3.3314   3.4433   3.5185   3.6411   3.6939

          k =-0.0875 0.0842 0.0000 ( 17692 PWs)   bands (ev):

   -71.9463 -71.9266 -71.9096 -71.7941 -71.6816 -71.6632 -71.6501 -71.6460
   -71.6267 -71.6142 -71.6012 -71.5713 -36.4257 -36.2802 -36.2585 -36.2340
   -36.2070 -36.1815 -36.1353 -36.0966 -36.0535 -36.0406 -36.0221 -36.0043
   -35.9919 -35.9254 -35.9040 -35.8618 -35.8293 -35.7924 -35.7814 -35.7588
   -35.7404 -35.7094 -35.6826 -35.6640 -35.6473 -35.6065 -35.5964 -35.5741
   -35.5444 -35.5150 -35.4891 -35.4267 -35.3985 -35.3810 -35.3457 -35.3032
   -12.5016  -4.2226  -3.5035  -2.9415  -2.6952  -2.4378  -2.2030  -2.0019
    -1.6952  -1.4735  -1.3391  -1.2670  -1.1566  -0.7840  -0.6577  -0.5659
    -0.4489  -0.3405  -0.1045   0.0163   0.1422   0.2489   0.3240   0.3995
     0.6196   0.6471   0.7475   1.0282   1.0860   1.1656   1.2867   1.4114
     1.5124   1.5900   1.7392   1.9742   2.0555   2.1566   2.3991   2.5225
     2.6267   2.8915   3.1008   3.2191   3.3999   3.5540   3.6818   3.7473

          k =-0.0875 0.1179 0.0000 ( 17692 PWs)   bands (ev):

   -71.9463 -71.9267 -71.9096 -71.7941 -71.6816 -71.6632 -71.6501 -71.6460
   -71.6267 -71.6142 -71.6012 -71.5713 -36.4256 -36.2802 -36.2585 -36.2340
   -36.2070 -36.1815 -36.1353 -36.0966 -36.0535 -36.0406 -36.0221 -36.0043
   -35.9919 -35.9254 -35.9040 -35.8618 -35.8293 -35.7924 -35.7814 -35.7588
   -35.7404 -35.7094 -35.6826 -35.6640 -35.6473 -35.6065 -35.5964 -35.5741
   -35.5444 -35.5150 -35.4891 -35.4267 -35.3985 -35.3811 -35.3457 -35.3032
   -12.5016  -4.2226  -3.5035  -2.9415  -2.6952  -2.4378  -2.2030  -2.0019
    -1.6952  -1.4735  -1.3391  -1.2670  -1.1566  -0.7840  -0.6577  -0.5659
    -0.4489  -0.3405  -0.1045   0.0163   0.1422   0.2489   0.3240   0.3995
     0.6196   0.6471   0.7475   1.0282   1.0860   1.1656   1.2867   1.4114
     1.5124   1.5900   1.7392   1.9742   2.0555   2.1566   2.3991   2.5225
     2.6267   2.8915   3.1008   3.2191   3.3999   3.5540   3.6818   3.7474

          k =-0.0875-0.0505 0.0000 ( 17668 PWs)   bands (ev):

   -71.9460 -71.9273 -71.9092 -71.7940 -71.6798 -71.6686 -71.6489 -71.6397
   -71.6311 -71.6137 -71.6012 -71.5713 -36.4336 -36.2683 -36.2557 -36.2500
   -36.2117 -36.1892 -36.1237 -36.0697 -36.0471 -36.0411 -36.0149 -35.9868
   -35.9849 -35.9676 -35.9539 -35.8419 -35.8077 -35.7953 -35.7582 -35.7270
   -35.7186 -35.7032 -35.6954 -35.6676 -35.6629 -35.6302 -35.6132 -35.5857
   -35.5725 -35.5271 -35.4925 -35.4109 -35.3941 -35.3674 -35.3264 -35.3100
   -12.5016  -4.0855  -3.7843  -3.0631  -2.6012  -2.3832  -2.1342  -1.8238
    -1.5590  -1.4799  -1.4286  -1.4239  -1.2640  -0.7207  -0.6963  -0.4986
    -0.3606  -0.3008  -0.1877  -0.0226   0.1975   0.2977   0.3611   0.4313
     0.6107   0.6243   0.8190   1.0355   1.1992   1.2851   1.3796   1.3891
     1.4711   1.5636   1.6693   1.9916   2.0332   2.0712   2.3090   2.4884
     2.6093   2.8586   3.1568   3.3314   3.4433   3.5185   3.6410   3.6940

     the Fermi energy is     2.4849 ev

!    total energy              =   -1945.21829265 Ry
     Harris-Foulkes estimate   =   -1945.21829270 Ry
     estimated scf accuracy    <       0.00000007 Ry

     The total energy is the sum of the following terms:

     one-electron contribution =  -15175.01905143 Ry
     hartree contribution      =    7572.64463669 Ry
     xc contribution           =    -516.10826055 Ry
     ewald contribution        =    6173.35155791 Ry
     electric field correction =       0.00000112 Ry
     smearing contrib. (-TS)   =      -0.08717638 Ry

     convergence has been achieved in   8 iterations
 
 BEEF-vdW xc energy contributions
           1 :   -454.050210000702     
           2 :    420.118818737118     
           3 :   -360.321370537911     
           4 :    287.715294976546     
           5 :   -215.920128116821     
           6 :    155.167981003716     
           7 :   -110.125197156313     
           8 :    79.9829701941038     
           9 :   -60.3994081920189     
          10 :    46.1932429120745     
          11 :   -33.5765289344225     
          12 :    21.1388781390039     
          13 :   -9.50038826965300     
          14 :   0.145030845261317     
          15 :    5.81563511210794     
          16 :   -8.35812902911385     
          17 :    8.52996360021251     
          18 :   -7.86811104819196     
          19 :    7.64201147939531     
          20 :   -8.32891860455794     
          21 :    9.55937088904915     
          22 :   -10.5060857612577     
          23 :    10.4602425651770     
          24 :   -9.26938572767170     
          25 :    7.41581176122520     
          26 :   -5.72666602962312     
          27 :    4.90414406918302     
          28 :   -5.14782863015313     
          29 :    6.07267370194324     
          30 :   -6.95263417319012     
          31 :   -41.1932123003126     
          32 :   -30.8686867270633     

     Forces acting on atoms (Ry/au):


     negative rho (up, down):  7.927E-01 0.000E+00
     atom    1 type  1   force =    -0.00000178    0.00000137    0.00629286
     atom    2 type  1   force =     0.00000169    0.00024871   -0.00560876
     atom    3 type  1   force =     0.00021533   -0.00012466   -0.00560956
     atom    4 type  1   force =    -0.00021443   -0.00012614   -0.00560923
     atom    5 type  1   force =     0.02537117   -0.01464709   -0.00329114
     atom    6 type  1   force =    -0.02537124   -0.01463971   -0.00329825
     atom    7 type  1   force =     0.00000414   -0.00000285    0.02287027
     atom    8 type  1   force =    -0.00000636    0.02929133   -0.00329967
     atom    9 type  1   force =    -0.00157768   -0.00090901   -0.00083353
     atom   10 type  1   force =     0.00158094   -0.00091234   -0.00083059
     atom   11 type  1   force =    -0.00000116    0.00182007   -0.00083420
     atom   12 type  1   force =     0.00000044   -0.00000055    0.00072381
     atom   13 type  2   force =    -0.00000106    0.00000085   -0.00067200

     Total force =     0.003608     Total SCF correction =     0.000389
     SCF correction compared to forces is large: reduce conv_thr to get better values


     entering subroutine stress ...


     negative rho (up, down):  7.927E-01 0.000E+00
          total   stress  (Ry/bohr**3)                   (kbar)     P=  -34.25
  -0.00031126  -0.00000000   0.00000000        -45.79     -0.00      0.00
  -0.00000000  -0.00031126  -0.00000000         -0.00    -45.79     -0.00
   0.00000000  -0.00000000  -0.00007589          0.00     -0.00    -11.16


     bfgs converged in  12 scf cycles and  11 bfgs steps
     (criteria: energy <  1.0E+00, force <  1.9E-03)

     End of BFGS Geometry Optimization

     Final energy   =   -1945.2182926453 Ry
Begin final coordinates

ATOMIC_POSITIONS (crystal)
W1       0.166666667   0.166666667   0.405441099    0   0   0
W1       0.666666667   0.166666667   0.405441099    0   0   0
W1       0.166666667   0.666666667   0.405441099    0   0   0
W1       0.666666667   0.666666667   0.405441099    0   0   0
W1       0.833333333   0.333333333   0.500000000    0   0   0
W1       0.333333333   0.333333333   0.500000000    0   0   0
W1       0.833333333   0.833333333   0.500000000    0   0   0
W1       0.333333333   0.833333333   0.500000000    0   0   0
W1      -0.002562970  -0.002564331   0.597182257
W1       0.505126492  -0.002563331   0.597182071
W1      -0.002563084   0.505127385   0.597182262
W1       0.500000143   0.500000210   0.583059018
N1       0.166667370   0.166666283   0.640144773
End final coordinates



     Writing output data file calc.save
 
     init_run     :     15.28s CPU     15.75s WALL (       1 calls)
     electrons    :   4535.80s CPU   4828.96s WALL (      12 calls)
     update_pot   :     29.95s CPU     31.79s WALL (      11 calls)
     forces       :    317.38s CPU    344.34s WALL (      12 calls)
     stress       :    993.08s CPU   1046.32s WALL (      12 calls)

     Called by init_run:
     wfcinit      :      5.32s CPU      5.40s WALL (       1 calls)
     potinit      :      1.84s CPU      2.00s WALL (       1 calls)

     Called by electrons:
     c_bands      :   1581.39s CPU   1664.34s WALL (     134 calls)
     sum_band     :   1053.14s CPU   1117.75s WALL (     134 calls)
     v_of_rho     :    225.35s CPU    253.61s WALL (     143 calls)
     newd         :   1090.66s CPU   1104.92s WALL (     143 calls)
     mix_rho      :      7.55s CPU      7.76s WALL (     134 calls)
     vdW_energy   :    117.95s CPU    131.15s WALL (     575 calls)
     vdW_ffts     :    290.08s CPU    300.72s WALL (    1174 calls)
     vdW_v        :    111.90s CPU    117.88s WALL (     575 calls)

     Called by c_bands:
     init_us_2    :     11.58s CPU     11.65s WALL (    1465 calls)
     cegterg      :   1413.30s CPU   1450.05s WALL (     670 calls)

     Called by *egterg:
     h_psi        :    937.77s CPU    964.40s WALL (    3358 calls)
     s_psi        :    102.25s CPU    102.48s WALL (    3358 calls)
     g_psi        :      4.87s CPU      4.85s WALL (    2683 calls)
     cdiaghg      :    129.06s CPU    131.13s WALL (    3283 calls)

     Called by h_psi:
     add_vuspsi   :    104.21s CPU    104.41s WALL (    3358 calls)

     General routines
     calbec       :    162.66s CPU    165.80s WALL (    4148 calls)
     fft          :    476.58s CPU    520.13s WALL (   34697 calls)
     ffts         :      0.50s CPU      0.53s WALL (     277 calls)
     fftw         :    549.11s CPU    575.25s WALL (  402052 calls)
     interpolate  :      4.67s CPU      4.76s WALL (     277 calls)
     davcio       :      0.00s CPU      0.03s WALL (       5 calls)
 
     Parallel routines
     fft_scatter  :    599.17s CPU    671.56s WALL (  437026 calls)
 
     PWSCF        :     1h39m CPU        1h46m WALL

 
   This run was terminated on:   6:35: 2   3May2018            

=------------------------------------------------------------------------------=
   JOB DONE.
=------------------------------------------------------------------------------=
Job  /afs/slac/g/suncat/bin/suncat-tsmpirun -x LD_LIBRARY_PATH -wdir /scratch/qe617448_uR799 pw.x -npool 4 -in pw.inp

TID   HOST_NAME   COMMAND_LINE            STATUS            TERMINATION_TIME
===== ========== ================  =======================  ===================
00000 suncat0002 pw.x -npool 4 -i  Done                     05/03/2018 06:35:02
00001 suncat0002 pw.x -npool 4 -i  Done                     05/03/2018 06:35:02
00002 suncat0002 pw.x -npool 4 -i  Done                     05/03/2018 06:35:02
00003 suncat0002 pw.x -npool 4 -i  Done                     05/03/2018 06:35:02
00004 suncat0002 pw.x -npool 4 -i  Done                     05/03/2018 06:35:02
00005 suncat0002 pw.x -npool 4 -i  Done                     05/03/2018 06:35:02
00006 suncat0002 pw.x -npool 4 -i  Done                     05/03/2018 06:35:02
00007 suncat0002 pw.x -npool 4 -i  Done                     05/03/2018 06:35:02
00008 suncat0185 pw.x -npool 4 -i  Done                     05/03/2018 06:35:02
00009 suncat0185 pw.x -npool 4 -i  Done                     05/03/2018 06:35:02
00010 suncat0185 pw.x -npool 4 -i  Done                     05/03/2018 06:35:02
00011 suncat0185 pw.x -npool 4 -i  Done                     05/03/2018 06:35:02
00012 suncat0185 pw.x -npool 4 -i  Done                     05/03/2018 06:35:02
00013 suncat0185 pw.x -npool 4 -i  Done                     05/03/2018 06:35:02
00014 suncat0185 pw.x -npool 4 -i  Done                     05/03/2018 06:35:02
00015 suncat0185 pw.x -npool 4 -i  Done                     05/03/2018 06:35:02
00016 suncat0227 pw.x -npool 4 -i  Done                     05/03/2018 06:35:02
00017 suncat0227 pw.x -npool 4 -i  Done                     05/03/2018 06:35:02
00018 suncat0227 pw.x -npool 4 -i  Done                     05/03/2018 06:35:02
00019 suncat0227 pw.x -npool 4 -i  Done                     05/03/2018 06:35:02
00020 suncat0227 pw.x -npool 4 -i  Done                     05/03/2018 06:35:02
00021 suncat0227 pw.x -npool 4 -i  Done                     05/03/2018 06:35:02
00022 suncat0227 pw.x -npool 4 -i  Done                     05/03/2018 06:35:02
00023 suncat0227 pw.x -npool 4 -i  Done                     05/03/2018 06:35:02
00024 suncat0226 pw.x -npool 4 -i  Done                     05/03/2018 06:35:02
00025 suncat0226 pw.x -npool 4 -i  Done                     05/03/2018 06:35:02
00026 suncat0226 pw.x -npool 4 -i  Done                     05/03/2018 06:35:02
00027 suncat0226 pw.x -npool 4 -i  Done                     05/03/2018 06:35:02
00028 suncat0226 pw.x -npool 4 -i  Done                     05/03/2018 06:35:02
00029 suncat0226 pw.x -npool 4 -i  Done                     05/03/2018 06:35:02
00030 suncat0226 pw.x -npool 4 -i  Done                     05/03/2018 06:35:02
00031 suncat0226 pw.x -npool 4 -i  Done                     05/03/2018 06:35:02
