  python dir          : /nfs/slac/g/suncatfs/sw/espv20/lib/python2.7/site-packages/espresso
  espresso dir        : /nfs/slac/g/suncatfs/sw/espv18/espresso-dynpy-beef/bin
  pseudo dir          : /afs/slac.stanford.edu/u/if/mamunm/psp/gbrv1.5pbe
  ase-espresso py git : ffa2778-git



     Program PWSCF v.5.1rc2 (svn rev. 11289) starts on 14Jan2018 at 13:12:15 

     This program is part of the open-source Quantum ESPRESSO suite
     for quantum simulation of materials; please cite
         "P. Giannozzi et al., J. Phys.:Condens. Matter 21 395502 (2009);
          URL http://www.quantum-espresso.org", 
     in publications or presentations arising from this work. More details at
     http://www.quantum-espresso.org/quote

     Parallel version (MPI), running on    32 processors
     R & G space division:  proc/nbgrp/npool/nimage =      32
     Reading input from pw.inp
     Message from routine read_cards :
     DEPRECATED: no units specified in CELL_PARAMETERS card

     Current dimensions of program PWSCF are:
     Max number of different atomic species (ntypx) = 10
     Max number of k-points (npk) =  40000
     Max angular momentum in pseudopotentials (lmaxx) =  3
     Presently stress not available with electric field


     **************************************************************************
     Initializing libbeef V0.1.1 with the BEEF-vdW functional.
     Citation: Wellendorff et al., PRB 85, 235149 (2012).
     **************************************************************************


     IMPORTANT: XC functional enforced from input :
     Exchange-correlation      = BEEF-VDW ( 1  4 27 13 2)
     Any further DFT definition will be discarded
     Please, verify this is what you really want


     Subspace diagonalization in iterative solution of the eigenvalue problem:
     a serial algorithm will be used

 
     Parallelization info
     --------------------
     sticks:   dense  smooth     PW     G-vecs:    dense   smooth      PW
     Min          84      33      9                15972     4017     623
     Max          85      34     10                16001     4054     650
     Sum        2713    1069    313               511711   129131   20509
 


     bravais-lattice index     =            0
     lattice parameter (alat)  =       1.8897  a.u.
     unit-cell volume          =    4299.0717 (a.u.)^3
     number of atoms/cell      =           13
     number of atomic types    =            2
     number of electrons       =       186.00
     number of Kohn-Sham states=          103
     kinetic-energy cutoff     =      36.7493  Ry
     charge density cutoff     =     367.4932  Ry
     convergence threshold     =      1.0E-05
     mixing beta               =       0.3000
     number of iterations used =           10  plain     mixing
     Exchange-correlation      = BEEF-VDW ( 1  4 27 13 2)
     nstep                     =           50


     celldm(1)=   1.889726  celldm(2)=   0.000000  celldm(3)=   0.000000
     celldm(4)=   0.000000  celldm(5)=   0.000000  celldm(6)=   0.000000

     crystal axes: (cart. coord. in units of alat)
               a(1) = (   5.482164   0.000000   0.000000 )  
               a(2) = (   2.741082   4.747693   0.000000 )  
               a(3) = (   0.000000   0.000000  24.476168 )  

     reciprocal axes: (cart. coord. in units 2 pi/alat)
               b(1) = (  0.182410 -0.105314  0.000000 )  
               b(2) = (  0.000000  0.210629  0.000000 )  
               b(3) = (  0.000000  0.000000  0.040856 )  


     PseudoPot. # 1 for Ir read from file:
     /afs/slac.stanford.edu/u/if/mamunm/psp/gbrv1.5pbe/Ir.UPF
     MD5 check sum: 8836f839c3459d2b385c504ce6d91f2c
     Pseudo is Ultrasoft + core correction, Zval = 15.0
     Generated by new atomic code, or converted to UPF format
     Using radial grid of  983 points,  7 beta functions with: 
                l(1) =   0
                l(2) =   0
                l(3) =   1
                l(4) =   1
                l(5) =   1
                l(6) =   2
                l(7) =   2
     Q(r) pseudized with  8 coefficients,  rinner =    1.400   1.400   1.400
                                                       1.400   1.400

     PseudoPot. # 2 for O  read from file:
     /afs/slac.stanford.edu/u/if/mamunm/psp/gbrv1.5pbe/O.UPF
     MD5 check sum: 734c27235a0248c51dbae37a1fbe46ec
     Pseudo is Ultrasoft + core correction, Zval =  6.0
     Generated by new atomic code, or converted to UPF format
     Using radial grid of  737 points,  5 beta functions with: 
                l(1) =   0
                l(2) =   0
                l(3) =   1
                l(4) =   1
                l(5) =   2
     Q(r) pseudized with  8 coefficients,  rinner =    0.900   0.900   0.900
                                                       0.900   0.900

     vdW kernel table read from file vdW_kernel_table
     MD5 check sum: 095c7af220d748ca6e76c0b4c6cfb241

     atomic species   valence    mass     pseudopotential
        Ir1           15.00   192.21700     Ir( 1.00)
        O1             6.00    15.99900     O ( 1.00)

     No symmetry found



   Cartesian axes

     site n.     atom                  positions (alat units)
         1           Ir1 tau(   1) = (   1.3705410   0.7912822  10.0000000  )
         2           Ir1 tau(   2) = (   4.1116229   0.7912822  10.0000000  )
         3           Ir1 tau(   3) = (   2.7410819   3.1651288  10.0000000  )
         4           Ir1 tau(   4) = (   5.4821639   3.1651288  10.0000000  )
         5           Ir1 tau(   5) = (   5.4821639   1.5825644  12.2380840  )
         6           Ir1 tau(   6) = (   2.7410819   1.5825644  12.2380840  )
         7           Ir1 tau(   7) = (   6.8527049   3.9564110  12.2380840  )
         8           Ir1 tau(   8) = (   4.1116229   3.9564110  12.2380840  )
         9           Ir1 tau(   9) = (   0.0000000   0.0000000  14.4761681  )
        10           Ir1 tau(  10) = (   2.7410819   0.0000000  14.4761681  )
        11           Ir1 tau(  11) = (   1.3705410   2.3738466  14.4761681  )
        12           Ir1 tau(  12) = (   4.1116229   2.3738466  14.4761681  )
        13           O1  tau(  13) = (   2.7410819   1.5825644  16.5461681  )

     number of k points=    20  Fermi-Dirac smearing, width (Ry)=  0.0110
                       cart. coord. in units 2pi/alat
        k(    1) = (   0.0000000   0.0000000   0.0000000), wk =   0.0555556
        k(    2) = (   0.0000000   0.0351048   0.0000000), wk =   0.1111111
        k(    3) = (   0.0000000   0.0702095   0.0000000), wk =   0.1111111
        k(    4) = (   0.0000000  -0.1053143   0.0000000), wk =   0.0555556
        k(    5) = (   0.0304016  -0.0175524   0.0000000), wk =   0.1111111
        k(    6) = (   0.0304016   0.0175524   0.0000000), wk =   0.1111111
        k(    7) = (   0.0304016   0.0526572   0.0000000), wk =   0.1111111
        k(    8) = (   0.0304016  -0.1228667   0.0000000), wk =   0.1111111
        k(    9) = (   0.0304016  -0.0877619   0.0000000), wk =   0.1111111
        k(   10) = (   0.0304016  -0.0526572   0.0000000), wk =   0.1111111
        k(   11) = (   0.0608032  -0.0351048   0.0000000), wk =   0.1111111
        k(   12) = (   0.0608032   0.0000000   0.0000000), wk =   0.1111111
        k(   13) = (   0.0608032   0.0351048   0.0000000), wk =   0.1111111
        k(   14) = (   0.0608032  -0.1404191   0.0000000), wk =   0.1111111
        k(   15) = (   0.0608032  -0.1053143   0.0000000), wk =   0.1111111
        k(   16) = (   0.0608032  -0.0702095   0.0000000), wk =   0.1111111
        k(   17) = (  -0.0912049   0.0526572   0.0000000), wk =   0.0555556
        k(   18) = (  -0.0912049   0.0877619   0.0000000), wk =   0.1111111
        k(   19) = (  -0.0912049   0.1228667   0.0000000), wk =   0.1111111
        k(   20) = (  -0.0912049  -0.0526572   0.0000000), wk =   0.0555556

     Dense  grid:   511711 G-vectors     FFT dimensions: (  64,  64, 288)

     Smooth grid:   129131 G-vectors     FFT dimensions: (  40,  40, 180)

     Largest allocated arrays     est. size (Mb)     dimensions
        Kohn-Sham Wavefunctions         0.81 Mb     (     515,  103)
        NL pseudopotentials             2.08 Mb     (     515,  265)
        Each V/rho on FFT grid          0.56 Mb     (   36864)
        Each G-vector array             0.12 Mb     (   16001)
        G-vector shells                 0.06 Mb     (    7228)
     Largest temporary arrays     est. size (Mb)     dimensions
        Auxiliary wavefunctions         3.24 Mb     (     515,  412)
        Each subspace H/S matrix        2.59 Mb     (     412,  412)
        Each <psi_i|beta_j> matrix      0.42 Mb     (     265,  103)
        Arrays for rho mixing           5.62 Mb     (   36864,   10)

     Initial potential from superposition of free atoms
     Check: negative starting charge=   -4.361939

     starting charge  179.99962, renormalised to  186.00000

     negative rho (up, down):  4.507E+00 0.000E+00


     ************************************************************************
     *
     * You are using vdW-DF for exchange-correlation in this calculation.
     * Please cite the following three references that made this development
     * possible:
     *
     *   M. Dion, H. Rydberg, E. Schroder, D. C. Langreth, and
     *   B. I. Lundqvist, Phys. Rev. Lett. 92, 246401 (2004).
     *
     *   T. Thonhauser, V. R. Cooper, S. Li, A. Puzder, P. Hyldgaard, and
     *   D. C. Langreth, Phys. Rev. B 76, 125112 (2007).
     *
     *   G. Roman-Perez and J. M. Soler, Phys. Rev. Lett. 103, 096102 (2009).
     *
     *
     * If you are using vdW-DF2, please also cite:
     *
     *   K. Lee, E. D. Murray, L. Kong, B. I. Lundqvist, and
     *   D. C. Langreth, Phys. Rev. B 82, 081101(R) (2010).
     *
     *
     * If you are calculating the stress with vdW-DF, please also cite:
     *
     *   R. Sabatini, E. Kucukbenli, B. Kolb, T. Thonhauser, and
     *   S. de Gironcoli, J. Phys.: Condens. Matter 24, 424209 (2012).
     *
     ************************************************************************

     Carrying out vdW-DF run using the following parameters:

     Nqs =      20    Nr_points =    1024   r_max =   100.000
     q_mesh =
               0.00001000     0.04494208     0.09755937     0.15916263
               0.23128650     0.31572767     0.41458969     0.53033537
               0.66584808     0.82450364     1.01025438     1.22772762
               1.48234092     1.78043706     2.12944203     2.53805004
               3.01644009     3.57652955     4.23227104     5.00000000

     Gradients computed in reciprocal space

     ************************************************************************


 
     Adding external electric field

     Computed dipole along edir(3) : 
        Dipole               -1.6283 Ry au,         -4.1387 Debye
        Dipole field         -0.0048 Ry au
 
        Potential amp.        0.4293 Ry
        Total length         45.0969 bohr
 
     Starting wfc are  148 randomized atomic wfcs

     total cpu time spent up to now is       22.3 secs

     per-process dynamical memory:    46.9 Mb

     Self-consistent Calculation

     iteration #  1     ecut=    36.75 Ry     beta=0.30
     Davidson diagonalization with overlap
     ethr =  1.00E-02,  avg # of iterations =  3.4

     negative rho (up, down):  4.171E+00 0.000E+00
 
     Adding external electric field

     Computed dipole along edir(3) : 
        Dipole               22.1629 Ry au,         56.3326 Debye
        Dipole field          0.0648 Ry au
 
        Potential amp.       -5.8430 Ry
        Total length         45.0969 bohr
 

     total cpu time spent up to now is       63.3 secs

     total energy              =   -2194.53675634 Ry
     Harris-Foulkes estimate   =   -2234.77532791 Ry
     estimated scf accuracy    <      84.64707918 Ry

     iteration #  2     ecut=    36.75 Ry     beta=0.30
     Davidson diagonalization with overlap
     ethr =  1.00E-02,  avg # of iterations = 16.6

     negative rho (up, down):  4.070E+00 0.000E+00
 
     Adding external electric field

     Computed dipole along edir(3) : 
        Dipole               -1.3724 Ry au,         -3.4882 Debye
        Dipole field         -0.0040 Ry au
 
        Potential amp.        0.3618 Ry
        Total length         45.0969 bohr
 

     total cpu time spent up to now is      184.6 secs

     total energy              =   -2065.04764092 Ry
     Harris-Foulkes estimate   =   -2437.34601081 Ry
     estimated scf accuracy    <    9854.91339144 Ry

     iteration #  3     ecut=    36.75 Ry     beta=0.30
     Davidson diagonalization with overlap
     ethr =  1.00E-02,  avg # of iterations =  7.7

     negative rho (up, down):  3.930E+00 0.000E+00
 
     Adding external electric field

     Computed dipole along edir(3) : 
        Dipole                0.8083 Ry au,          2.0546 Debye
        Dipole field          0.0024 Ry au
 
        Potential amp.       -0.2131 Ry
        Total length         45.0969 bohr
 

     total cpu time spent up to now is      263.7 secs

     total energy              =   -2211.06272175 Ry
     Harris-Foulkes estimate   =   -2270.05981526 Ry
     estimated scf accuracy    <     955.72666741 Ry

     iteration #  4     ecut=    36.75 Ry     beta=0.30
     Davidson diagonalization with overlap
     ethr =  1.00E-02,  avg # of iterations =  5.2

     negative rho (up, down):  4.005E+00 0.000E+00
 
     Adding external electric field

     Computed dipole along edir(3) : 
        Dipole                1.3741 Ry au,          3.4926 Debye
        Dipole field          0.0040 Ry au
 
        Potential amp.       -0.3623 Ry
        Total length         45.0969 bohr
 

     total cpu time spent up to now is      326.2 secs

     total energy              =   -2230.95527690 Ry
     Harris-Foulkes estimate   =   -2233.71259451 Ry
     estimated scf accuracy    <      36.83483536 Ry

     iteration #  5     ecut=    36.75 Ry     beta=0.30
     Davidson diagonalization with overlap
     ethr =  1.00E-02,  avg # of iterations =  1.9

     negative rho (up, down):  3.926E+00 0.000E+00
 
     Adding external electric field

     Computed dipole along edir(3) : 
        Dipole                0.1491 Ry au,          0.3790 Debye
        Dipole field          0.0004 Ry au
 
        Potential amp.       -0.0393 Ry
        Total length         45.0969 bohr
 

     total cpu time spent up to now is      361.9 secs

     total energy              =   -2231.33161879 Ry
     Harris-Foulkes estimate   =   -2232.89523492 Ry
     estimated scf accuracy    <      28.70987814 Ry

     iteration #  6     ecut=    36.75 Ry     beta=0.30
     Davidson diagonalization with overlap
     ethr =  1.00E-02,  avg # of iterations =  1.1

     negative rho (up, down):  3.911E+00 0.000E+00
 
     Adding external electric field

     Computed dipole along edir(3) : 
        Dipole               -0.4742 Ry au,         -1.2054 Debye
        Dipole field         -0.0014 Ry au
 
        Potential amp.        0.1250 Ry
        Total length         45.0969 bohr
 

     total cpu time spent up to now is      396.1 secs

     total energy              =   -2231.91574257 Ry
     Harris-Foulkes estimate   =   -2232.36125972 Ry
     estimated scf accuracy    <       5.68094595 Ry

     iteration #  7     ecut=    36.75 Ry     beta=0.30
     Davidson diagonalization with overlap
     ethr =  3.05E-03,  avg # of iterations =  2.0

     negative rho (up, down):  3.860E+00 0.000E+00
 
     Adding external electric field

     Computed dipole along edir(3) : 
        Dipole               -0.4431 Ry au,         -1.1262 Debye
        Dipole field         -0.0013 Ry au
 
        Potential amp.        0.1168 Ry
        Total length         45.0969 bohr
 

     total cpu time spent up to now is      431.9 secs

     total energy              =   -2231.96742128 Ry
     Harris-Foulkes estimate   =   -2232.30001143 Ry
     estimated scf accuracy    <       3.27958458 Ry

     iteration #  8     ecut=    36.75 Ry     beta=0.30
     Davidson diagonalization with overlap
     ethr =  1.76E-03,  avg # of iterations =  1.4

     negative rho (up, down):  3.845E+00 0.000E+00
 
     Adding external electric field

     Computed dipole along edir(3) : 
        Dipole               -0.4141 Ry au,         -1.0526 Debye
        Dipole field         -0.0012 Ry au
 
        Potential amp.        0.1092 Ry
        Total length         45.0969 bohr
 

     total cpu time spent up to now is      466.3 secs

     total energy              =   -2232.10072710 Ry
     Harris-Foulkes estimate   =   -2232.14687520 Ry
     estimated scf accuracy    <       0.28796683 Ry

     iteration #  9     ecut=    36.75 Ry     beta=0.30
     Davidson diagonalization with overlap
     ethr =  1.55E-04,  avg # of iterations =  5.6

     negative rho (up, down):  3.866E+00 0.000E+00
 
     Adding external electric field

     Computed dipole along edir(3) : 
        Dipole               -0.5433 Ry au,         -1.3809 Debye
        Dipole field         -0.0016 Ry au
 
        Potential amp.        0.1432 Ry
        Total length         45.0969 bohr
 

     total cpu time spent up to now is      513.9 secs

     total energy              =   -2232.12038870 Ry
     Harris-Foulkes estimate   =   -2232.15128883 Ry
     estimated scf accuracy    <       0.36281865 Ry

     iteration # 10     ecut=    36.75 Ry     beta=0.30
     Davidson diagonalization with overlap
     ethr =  1.55E-04,  avg # of iterations =  2.1

     negative rho (up, down):  3.868E+00 0.000E+00
 
     Adding external electric field

     Computed dipole along edir(3) : 
        Dipole               -0.6497 Ry au,         -1.6514 Debye
        Dipole field         -0.0019 Ry au
 
        Potential amp.        0.1713 Ry
        Total length         45.0969 bohr
 

     total cpu time spent up to now is      550.1 secs

     total energy              =   -2232.13212883 Ry
     Harris-Foulkes estimate   =   -2232.13796468 Ry
     estimated scf accuracy    <       0.14271789 Ry

     iteration # 11     ecut=    36.75 Ry     beta=0.30
     Davidson diagonalization with overlap
     ethr =  7.67E-05,  avg # of iterations =  1.0

     negative rho (up, down):  3.872E+00 0.000E+00
 
     Adding external electric field

     Computed dipole along edir(3) : 
        Dipole               -0.6709 Ry au,         -1.7053 Debye
        Dipole field         -0.0020 Ry au
 
        Potential amp.        0.1769 Ry
        Total length         45.0969 bohr
 

     total cpu time spent up to now is      585.3 secs

     total energy              =   -2232.13595249 Ry
     Harris-Foulkes estimate   =   -2232.13716531 Ry
     estimated scf accuracy    <       0.04467678 Ry

     iteration # 12     ecut=    36.75 Ry     beta=0.30
     Davidson diagonalization with overlap
     ethr =  2.40E-05,  avg # of iterations =  1.6

     negative rho (up, down):  3.878E+00 0.000E+00
 
     Adding external electric field

     Computed dipole along edir(3) : 
        Dipole               -0.6799 Ry au,         -1.7281 Debye
        Dipole field         -0.0020 Ry au
 
        Potential amp.        0.1792 Ry
        Total length         45.0969 bohr
 

     total cpu time spent up to now is      618.4 secs

     total energy              =   -2232.13603710 Ry
     Harris-Foulkes estimate   =   -2232.13680959 Ry
     estimated scf accuracy    <       0.02802067 Ry

     iteration # 13     ecut=    36.75 Ry     beta=0.30
     Davidson diagonalization with overlap
     ethr =  1.51E-05,  avg # of iterations =  1.0

     negative rho (up, down):  3.882E+00 0.000E+00
 
     Adding external electric field

     Computed dipole along edir(3) : 
        Dipole               -0.6272 Ry au,         -1.5942 Debye
        Dipole field         -0.0018 Ry au
 
        Potential amp.        0.1654 Ry
        Total length         45.0969 bohr
 

     total cpu time spent up to now is      650.1 secs

     total energy              =   -2232.13626079 Ry
     Harris-Foulkes estimate   =   -2232.13676496 Ry
     estimated scf accuracy    <       0.00525172 Ry

     iteration # 14     ecut=    36.75 Ry     beta=0.30
     Davidson diagonalization with overlap
     ethr =  2.82E-06,  avg # of iterations =  8.2

     negative rho (up, down):  3.882E+00 0.000E+00
 
     Adding external electric field

     Computed dipole along edir(3) : 
        Dipole               -0.5805 Ry au,         -1.4756 Debye
        Dipole field         -0.0017 Ry au
 
        Potential amp.        0.1531 Ry
        Total length         45.0969 bohr
 

     total cpu time spent up to now is      698.5 secs

     total energy              =   -2232.13653292 Ry
     Harris-Foulkes estimate   =   -2232.13695550 Ry
     estimated scf accuracy    <       0.00482771 Ry

     iteration # 15     ecut=    36.75 Ry     beta=0.30
     Davidson diagonalization with overlap
     ethr =  2.60E-06,  avg # of iterations =  1.1

     negative rho (up, down):  3.882E+00 0.000E+00
 
     Adding external electric field

     Computed dipole along edir(3) : 
        Dipole               -0.5521 Ry au,         -1.4032 Debye
        Dipole field         -0.0016 Ry au
 
        Potential amp.        0.1455 Ry
        Total length         45.0969 bohr
 

     total cpu time spent up to now is      731.4 secs

     total energy              =   -2232.13668517 Ry
     Harris-Foulkes estimate   =   -2232.13679443 Ry
     estimated scf accuracy    <       0.00044545 Ry

     iteration # 16     ecut=    36.75 Ry     beta=0.30
     Davidson diagonalization with overlap
     ethr =  2.39E-07,  avg # of iterations =  3.9

     negative rho (up, down):  3.883E+00 0.000E+00
 
     Adding external electric field

     Computed dipole along edir(3) : 
        Dipole               -0.5284 Ry au,         -1.3431 Debye
        Dipole field         -0.0015 Ry au
 
        Potential amp.        0.1393 Ry
        Total length         45.0969 bohr
 

     total cpu time spent up to now is      770.7 secs

     total energy              =   -2232.13673741 Ry
     Harris-Foulkes estimate   =   -2232.13681145 Ry
     estimated scf accuracy    <       0.00016522 Ry

     iteration # 17     ecut=    36.75 Ry     beta=0.30
     Davidson diagonalization with overlap
     ethr =  8.88E-08,  avg # of iterations =  3.4

     negative rho (up, down):  3.883E+00 0.000E+00
 
     Adding external electric field

     Computed dipole along edir(3) : 
        Dipole               -0.5171 Ry au,         -1.3142 Debye
        Dipole field         -0.0015 Ry au
 
        Potential amp.        0.1363 Ry
        Total length         45.0969 bohr
 

     total cpu time spent up to now is      807.9 secs

     total energy              =   -2232.13674862 Ry
     Harris-Foulkes estimate   =   -2232.13679422 Ry
     estimated scf accuracy    <       0.00014927 Ry

     iteration # 18     ecut=    36.75 Ry     beta=0.30
     Davidson diagonalization with overlap
     ethr =  8.03E-08,  avg # of iterations =  1.1

     negative rho (up, down):  3.883E+00 0.000E+00
 
     Adding external electric field

     Computed dipole along edir(3) : 
        Dipole               -0.5161 Ry au,         -1.3118 Debye
        Dipole field         -0.0015 Ry au
 
        Potential amp.        0.1361 Ry
        Total length         45.0969 bohr
 

     total cpu time spent up to now is      838.5 secs

     total energy              =   -2232.13675356 Ry
     Harris-Foulkes estimate   =   -2232.13675888 Ry
     estimated scf accuracy    <       0.00001317 Ry

     iteration # 19     ecut=    36.75 Ry     beta=0.30
     Davidson diagonalization with overlap
     ethr =  7.08E-09,  avg # of iterations =  4.7

     negative rho (up, down):  3.884E+00 0.000E+00

     negative rho (up, down):  3.884E+00 0.000E+00

     negative rho (up, down):  3.884E+00 0.000E+00

     negative rho (up, down):  3.884E+00 0.000E+00

     negative rho (up, down):  3.884E+00 0.000E+00

     negative rho (up, down):  3.884E+00 0.000E+00

     negative rho (up, down):  3.884E+00 0.000E+00

     negative rho (up, down):  3.884E+00 0.000E+00

     negative rho (up, down):  3.884E+00 0.000E+00

     negative rho (up, down):  3.884E+00 0.000E+00

     negative rho (up, down):  3.884E+00 0.000E+00

     negative rho (up, down):  3.884E+00 0.000E+00

     negative rho (up, down):  3.884E+00 0.000E+00

     negative rho (up, down):  3.884E+00 0.000E+00

     negative rho (up, down):  3.884E+00 0.000E+00

     negative rho (up, down):  3.884E+00 0.000E+00

     negative rho (up, down):  3.884E+00 0.000E+00

     negative rho (up, down):  3.884E+00 0.000E+00

     negative rho (up, down):  3.884E+00 0.000E+00

     negative rho (up, down):  3.884E+00 0.000E+00

     negative rho (up, down):  3.884E+00 0.000E+00

     negative rho (up, down):  3.884E+00 0.000E+00

     negative rho (up, down):  3.884E+00 0.000E+00

     negative rho (up, down):  3.884E+00 0.000E+00

     negative rho (up, down):  3.884E+00 0.000E+00

     negative rho (up, down):  3.884E+00 0.000E+00

     negative rho (up, down):  3.884E+00 0.000E+00

     negative rho (up, down):  3.884E+00 0.000E+00

     negative rho (up, down):  3.884E+00 0.000E+00

     negative rho (up, down):  3.884E+00 0.000E+00

     negative rho (up, down):  3.884E+00 0.000E+00

     negative rho (up, down):  3.884E+00 0.000E+00

     negative rho (up, down):  3.884E+00 0.000E+00

     negative rho (up, down):  3.884E+00 0.000E+00

     negative rho (up, down):  3.884E+00 0.000E+00
 
     Adding external electric field

     Computed dipole along edir(3) : 
        Dipole               -0.4980 Ry au,         -1.2657 Debye
        Dipole field         -0.0015 Ry au
 
        Potential amp.        0.1313 Ry
        Total length         45.0969 bohr
 

     total cpu time spent up to now is      951.6 secs

     End of self-consistent calculation

          k = 0.0000 0.0000 0.0000 ( 16073 PWs)   bands (ev):

   -48.3414 -48.3221 -48.3220 -48.2012 -48.1163 -48.1157 -48.1155 -47.9243
   -47.9242 -47.8998 -47.8911 -47.8383 -47.8378 -47.7821 -47.7820 -47.7328
   -47.7325 -47.7308 -47.5698 -47.5687 -47.5572 -47.5147 -47.4385 -47.4375
   -47.3873 -47.3736 -47.3733 -47.3599 -47.3315 -47.3144 -47.3141 -47.3092
   -47.3084 -47.3040 -47.2411 -47.2410 -14.2090  -7.7024  -5.7838  -5.4463
    -5.1399  -5.1380  -5.1379  -4.8497  -4.8341  -4.8341  -4.3405  -4.3402
    -4.3401  -4.0655  -4.0463  -4.0463  -2.6299  -2.5660  -2.5660  -2.0623
    -2.0222  -2.0222  -1.8316  -1.6841  -1.6840  -1.4768  -1.2308  -1.2308
    -1.1880  -1.1879  -1.1756  -0.9226  -0.9226  -0.7612  -0.7610  -0.5838
    -0.1228   0.3259   0.3259   0.6692   0.7359   0.7359   0.7666   0.7668
     0.8986   0.9752   0.9753   1.5121   1.5121   1.5285   2.1586   2.1958
     2.1958   2.2058   2.3824   2.3824   2.4592   2.4594   2.7303   2.7328
     2.7329   2.7466   3.0805   3.0806   3.1708   3.2170   3.2173

          k = 0.0000 0.0351 0.0000 ( 16131 PWs)   bands (ev):

   -48.3187 -48.3026 -48.2905 -48.1932 -48.1162 -48.1112 -48.1111 -47.9466
   -47.9350 -47.9027 -47.8725 -47.8225 -47.8190 -47.8137 -47.7910 -47.7179
   -47.7157 -47.7049 -47.5754 -47.5701 -47.5515 -47.5258 -47.4522 -47.4388
   -47.3933 -47.3854 -47.3849 -47.3590 -47.3446 -47.3303 -47.3215 -47.3118
   -47.3085 -47.3041 -47.2754 -47.2496 -14.2079  -7.4443  -5.5234  -5.1947
    -5.1085  -4.9243  -4.9225  -4.7440  -4.6723  -4.6620  -4.2698  -4.2154
    -4.2142  -3.9279  -3.8029  -3.7899  -2.6027  -2.5592  -2.5103  -2.0022
    -1.9726  -1.9126  -1.9087  -1.8363  -1.7008  -1.4881  -1.4580  -1.4496
    -1.1330  -1.1238  -1.0763  -1.0267  -0.9376  -0.7800  -0.7010  -0.6995
    -0.2794   0.0513   0.1139   0.3602   0.5411   0.5670   0.6702   0.6814
     0.6884   0.8110   0.8976   1.0603   1.4221   1.5023   1.5270   1.6800
     1.8907   1.9777   2.0114   2.1083   2.1707   2.2281   2.3175   2.3994
     2.4410   2.4465   2.5584   2.8452   2.8510   2.8910   2.9022

          k = 0.0000 0.0702 0.0000 ( 16137 PWs)   bands (ev):

   -48.2684 -48.2548 -48.1976 -48.1718 -48.1237 -48.1025 -48.1024 -47.9993
   -47.9844 -47.9272 -47.8821 -47.8294 -47.8156 -47.7710 -47.7467 -47.6806
   -47.6747 -47.6270 -47.5981 -47.5888 -47.5464 -47.5402 -47.4838 -47.4412
   -47.4351 -47.4265 -47.4193 -47.3796 -47.3693 -47.3393 -47.3366 -47.3296
   -47.3159 -47.3080 -47.3021 -47.2725 -14.2055  -6.7369  -5.2173  -4.8659
    -4.5458  -4.5054  -4.3739  -4.3674  -4.2733  -4.2657  -4.0709  -3.8356
    -3.8318  -3.5756  -3.1420  -3.1171  -2.6166  -2.6015  -2.5551  -2.3722
    -2.2412  -2.0500  -2.0326  -1.8509  -1.8080  -1.6138  -1.5579  -1.3260
    -1.2728  -1.1448  -1.0262  -1.0253  -0.9540  -0.9387  -0.7394  -0.6906
    -0.4819  -0.4335  -0.2822  -0.1102  -0.0732  -0.0437   0.0323   0.1461
     0.1822   0.2104   0.4745   0.5462   0.6029   0.7356   0.9578   1.1202
     1.1943   1.2165   1.4839   1.5243   1.5454   1.7464   1.8078   1.8732
     2.0143   2.1801   2.3189   2.4395   2.5405   2.6003   2.7930

          k = 0.0000-0.1053 0.0000 ( 16164 PWs)   bands (ev):

   -48.2350 -48.2224 -48.1483 -48.1430 -48.0988 -48.0985 -48.0723 -48.0559
   -48.0332 -48.0187 -47.8548 -47.8435 -47.8048 -47.7340 -47.6678 -47.6552
   -47.6530 -47.6443 -47.6200 -47.5499 -47.5358 -47.5197 -47.5032 -47.4886
   -47.4693 -47.4593 -47.4590 -47.4250 -47.3737 -47.3488 -47.3302 -47.3178
   -47.3118 -47.3100 -47.3024 -47.2964 -14.2043  -5.8389  -5.8242  -4.4001
    -4.3736  -4.0362  -4.0183  -3.9877  -3.9787  -3.9746  -3.9672  -3.4075
    -3.4054  -3.0902  -3.0634  -2.9183  -2.8911  -2.6076  -2.5794  -2.5411
    -2.5387  -2.2061  -2.1884  -1.7944  -1.7490  -1.5617  -1.3543  -1.3434
    -1.3317  -1.3021  -1.2135  -1.1266  -0.9568  -0.9249  -0.9208  -0.8979
    -0.8903  -0.8122  -0.7718  -0.7612  -0.7473  -0.1483  -0.0453  -0.0382
    -0.0029   0.0924   0.2795   0.4149   0.5096   0.6574   0.7123   0.7908
     0.8276   0.9852   1.0259   1.0282   1.3747   1.4438   1.4974   1.6800
     1.7637   2.0856   2.3082   2.4566   2.4858   2.5584   2.8084

          k = 0.0304-0.0176 0.0000 ( 16131 PWs)   bands (ev):

   -48.3187 -48.3026 -48.2905 -48.1932 -48.1162 -48.1112 -48.1111 -47.9466
   -47.9351 -47.9027 -47.8725 -47.8226 -47.8189 -47.8137 -47.7910 -47.7181
   -47.7155 -47.7049 -47.5752 -47.5702 -47.5515 -47.5258 -47.4521 -47.4389
   -47.3934 -47.3854 -47.3847 -47.3591 -47.3446 -47.3303 -47.3214 -47.3120
   -47.3083 -47.3042 -47.2755 -47.2496 -14.2079  -7.4443  -5.5234  -5.1947
    -5.1085  -4.9244  -4.9225  -4.7440  -4.6723  -4.6620  -4.2698  -4.2154
    -4.2142  -3.9279  -3.8029  -3.7899  -2.6027  -2.5592  -2.5103  -2.0022
    -1.9725  -1.9126  -1.9088  -1.8363  -1.7008  -1.4881  -1.4580  -1.4496
    -1.1330  -1.1238  -1.0762  -1.0267  -0.9376  -0.7800  -0.7010  -0.6995
    -0.2794   0.0513   0.1139   0.3602   0.5412   0.5669   0.6702   0.6813
     0.6885   0.8110   0.8976   1.0602   1.4221   1.5023   1.5270   1.6800
     1.8907   1.9776   2.0114   2.1083   2.1707   2.2282   2.3175   2.3995
     2.4410   2.4465   2.5583   2.8451   2.8510   2.8910   2.9022

          k = 0.0304 0.0176 0.0000 ( 16131 PWs)   bands (ev):

   -48.3187 -48.3025 -48.2906 -48.1932 -48.1161 -48.1113 -48.1111 -47.9465
   -47.9351 -47.9027 -47.8724 -47.8225 -47.8194 -47.8134 -47.7909 -47.7178
   -47.7159 -47.7049 -47.5761 -47.5694 -47.5514 -47.5256 -47.4529 -47.4381
   -47.3931 -47.3854 -47.3852 -47.3589 -47.3444 -47.3303 -47.3217 -47.3113
   -47.3090 -47.3041 -47.2754 -47.2496 -14.2078  -7.4443  -5.5234  -5.1947
    -5.1085  -4.9244  -4.9225  -4.7440  -4.6723  -4.6620  -4.2698  -4.2153
    -4.2142  -3.9279  -3.8029  -3.7899  -2.6026  -2.5593  -2.5103  -2.0022
    -1.9726  -1.9126  -1.9087  -1.8363  -1.7008  -1.4881  -1.4579  -1.4496
    -1.1330  -1.1238  -1.0762  -1.0267  -0.9376  -0.7799  -0.7010  -0.6995
    -0.2794   0.0513   0.1139   0.3602   0.5411   0.5672   0.6701   0.6815
     0.6883   0.8109   0.8975   1.0603   1.4220   1.5023   1.5270   1.6801
     1.8906   1.9777   2.0114   2.1083   2.1707   2.2281   2.3175   2.3995
     2.4410   2.4463   2.5585   2.8452   2.8510   2.8909   2.9023

          k = 0.0304 0.0527 0.0000 ( 16186 PWs)   bands (ev):

   -48.2867 -48.2509 -48.2403 -48.1786 -48.1165 -48.1129 -48.1000 -48.0071
   -47.9272 -47.9105 -47.8928 -47.8395 -47.8103 -47.7783 -47.7755 -47.6975
   -47.6665 -47.6654 -47.6000 -47.5695 -47.5454 -47.5430 -47.4677 -47.4513
   -47.4417 -47.3959 -47.3770 -47.3727 -47.3664 -47.3417 -47.3371 -47.3288
   -47.3147 -47.3083 -47.3016 -47.2673 -14.2061  -6.9573  -5.0493  -4.9194
    -4.9106  -4.7333  -4.4918  -4.4745  -4.4077  -4.3248  -4.0769  -4.0752
    -3.8886  -3.5763  -3.5575  -3.2297  -2.6618  -2.4917  -2.4723  -2.4058
    -2.0486  -1.9247  -1.9025  -1.8464  -1.7928  -1.7136  -1.5128  -1.4923
    -1.2292  -1.1796  -1.0810  -0.9918  -0.9515  -0.8970  -0.8301  -0.5425
    -0.3828  -0.2683  -0.2411  -0.0799   0.1581   0.2180   0.3010   0.3597
     0.3748   0.3944   0.5399   0.6399   0.7009   0.8685   0.8991   1.2869
     1.3015   1.5137   1.5669   1.7554   1.7740   1.9411   2.0050   2.1394
     2.2711   2.3341   2.4625   2.5508   2.5720   2.6665   3.0620

          k = 0.0304-0.1229 0.0000 ( 16191 PWs)   bands (ev):

   -48.2353 -48.1965 -48.1551 -48.1386 -48.1277 -48.1126 -48.0897 -48.0818
   -48.0071 -47.9515 -47.8847 -47.8441 -47.7970 -47.7285 -47.7030 -47.6639
   -47.6461 -47.6213 -47.5943 -47.5694 -47.5616 -47.5329 -47.5185 -47.5000
   -47.4497 -47.4451 -47.4243 -47.3964 -47.3745 -47.3582 -47.3384 -47.3293
   -47.3191 -47.3096 -47.3022 -47.2966 -14.2043  -6.1150  -5.2745  -4.5499
    -4.3769  -4.2288  -4.0758  -4.0230  -3.9825  -3.8302  -3.7641  -3.6237
    -3.3726  -3.1614  -3.0812  -2.9474  -2.8636  -2.5949  -2.5573  -2.5430
    -2.4661  -2.2671  -2.1115  -1.9754  -1.9235  -1.6276  -1.5403  -1.4992
    -1.3616  -1.3437  -1.2635  -1.2218  -1.1927  -1.1279  -1.0019  -0.8153
    -0.7477  -0.6468  -0.5416  -0.5281  -0.4528  -0.3337  -0.0893  -0.0016
     0.0920   0.2261   0.3365   0.4272   0.5558   0.6137   0.7538   0.8175
     1.0049   1.0960   1.2829   1.3620   1.5867   1.7221   1.7758   1.8821
     1.9681   2.0895   2.2203   2.2836   2.4030   2.5343   2.5986

          k = 0.0304-0.0878 0.0000 ( 16191 PWs)   bands (ev):

   -48.2353 -48.1965 -48.1551 -48.1386 -48.1277 -48.1126 -48.0897 -48.0818
   -48.0071 -47.9515 -47.8847 -47.8441 -47.7971 -47.7287 -47.7030 -47.6632
   -47.6455 -47.6213 -47.5952 -47.5695 -47.5617 -47.5332 -47.5184 -47.4996
   -47.4500 -47.4453 -47.4242 -47.3964 -47.3745 -47.3582 -47.3384 -47.3291
   -47.3194 -47.3096 -47.3021 -47.2966 -14.2043  -6.1150  -5.2745  -4.5499
    -4.3769  -4.2288  -4.0758  -4.0230  -3.9825  -3.8302  -3.7641  -3.6237
    -3.3726  -3.1614  -3.0812  -2.9474  -2.8636  -2.5949  -2.5574  -2.5429
    -2.4661  -2.2671  -2.1115  -1.9754  -1.9235  -1.6275  -1.5403  -1.4991
    -1.3616  -1.3437  -1.2634  -1.2220  -1.1927  -1.1279  -1.0019  -0.8153
    -0.7477  -0.6469  -0.5416  -0.5282  -0.4527  -0.3337  -0.0893  -0.0016
     0.0919   0.2261   0.3365   0.4272   0.5559   0.6137   0.7538   0.8176
     1.0050   1.0960   1.2829   1.3619   1.5868   1.7220   1.7759   1.8821
     1.9681   2.0896   2.2202   2.2836   2.4030   2.5343   2.5986

          k = 0.0304-0.0527 0.0000 ( 16186 PWs)   bands (ev):

   -48.2866 -48.2509 -48.2402 -48.1786 -48.1166 -48.1128 -48.1001 -48.0072
   -47.9272 -47.9105 -47.8928 -47.8397 -47.8103 -47.7778 -47.7757 -47.6976
   -47.6663 -47.6655 -47.5991 -47.5702 -47.5455 -47.5432 -47.4671 -47.4514
   -47.4423 -47.3959 -47.3770 -47.3726 -47.3666 -47.3416 -47.3369 -47.3286
   -47.3153 -47.3079 -47.3017 -47.2673 -14.2061  -6.9573  -5.0493  -4.9193
    -4.9107  -4.7333  -4.4917  -4.4746  -4.4077  -4.3248  -4.0769  -4.0752
    -3.8886  -3.5763  -3.5575  -3.2297  -2.6618  -2.4918  -2.4722  -2.4057
    -2.0486  -1.9247  -1.9024  -1.8463  -1.7929  -1.7136  -1.5128  -1.4923
    -1.2291  -1.1796  -1.0811  -0.9918  -0.9515  -0.8970  -0.8302  -0.5425
    -0.3828  -0.2683  -0.2412  -0.0799   0.1582   0.2180   0.3011   0.3596
     0.3747   0.3944   0.5398   0.6400   0.7010   0.8685   0.8991   1.2867
     1.3017   1.5137   1.5669   1.7555   1.7742   1.9407   2.0050   2.1395
     2.2710   2.3342   2.4625   2.5509   2.5720   2.6665   3.0620

          k = 0.0608-0.0351 0.0000 ( 16137 PWs)   bands (ev):

   -48.2684 -48.2548 -48.1976 -48.1718 -48.1237 -48.1026 -48.1024 -47.9992
   -47.9844 -47.9272 -47.8821 -47.8295 -47.8156 -47.7709 -47.7467 -47.6808
   -47.6745 -47.6269 -47.5980 -47.5889 -47.5465 -47.5402 -47.4836 -47.4414
   -47.4351 -47.4264 -47.4193 -47.3796 -47.3694 -47.3392 -47.3366 -47.3294
   -47.3162 -47.3078 -47.3021 -47.2724 -14.2055  -6.7369  -5.2173  -4.8659
    -4.5458  -4.5054  -4.3739  -4.3674  -4.2733  -4.2657  -4.0709  -3.8356
    -3.8318  -3.5756  -3.1420  -3.1172  -2.6166  -2.6015  -2.5551  -2.3722
    -2.2412  -2.0500  -2.0326  -1.8509  -1.8080  -1.6138  -1.5579  -1.3260
    -1.2727  -1.1448  -1.0262  -1.0253  -0.9539  -0.9387  -0.7394  -0.6906
    -0.4819  -0.4335  -0.2822  -0.1102  -0.0732  -0.0437   0.0323   0.1462
     0.1822   0.2104   0.4745   0.5462   0.6029   0.7355   0.9578   1.1202
     1.1943   1.2165   1.4839   1.5243   1.5454   1.7465   1.8077   1.8732
     2.0143   2.1801   2.3189   2.4395   2.5405   2.6004   2.7930

          k = 0.0608 0.0000 0.0000 ( 16186 PWs)   bands (ev):

   -48.2867 -48.2509 -48.2403 -48.1786 -48.1165 -48.1129 -48.1000 -48.0071
   -47.9272 -47.9105 -47.8928 -47.8395 -47.8103 -47.7782 -47.7755 -47.6975
   -47.6664 -47.6655 -47.5998 -47.5696 -47.5454 -47.5430 -47.4676 -47.4513
   -47.4418 -47.3959 -47.3770 -47.3726 -47.3665 -47.3417 -47.3371 -47.3287
   -47.3150 -47.3082 -47.3016 -47.2673 -14.2061  -6.9573  -5.0493  -4.9194
    -4.9106  -4.7333  -4.4918  -4.4746  -4.4077  -4.3248  -4.0769  -4.0752
    -3.8886  -3.5763  -3.5575  -3.2297  -2.6618  -2.4917  -2.4723  -2.4058
    -2.0486  -1.9247  -1.9025  -1.8464  -1.7928  -1.7136  -1.5128  -1.4923
    -1.2292  -1.1796  -1.0810  -0.9918  -0.9515  -0.8970  -0.8301  -0.5425
    -0.3828  -0.2683  -0.2411  -0.0799   0.1581   0.2180   0.3011   0.3597
     0.3747   0.3944   0.5399   0.6399   0.7009   0.8685   0.8991   1.2868
     1.3015   1.5137   1.5669   1.7554   1.7741   1.9410   2.0050   2.1394
     2.2711   2.3342   2.4625   2.5508   2.5720   2.6665   3.0620

          k = 0.0608 0.0351 0.0000 ( 16137 PWs)   bands (ev):

   -48.2685 -48.2547 -48.1976 -48.1718 -48.1237 -48.1027 -48.1023 -47.9992
   -47.9845 -47.9272 -47.8821 -47.8290 -47.8156 -47.7716 -47.7467 -47.6803
   -47.6750 -47.6270 -47.5988 -47.5884 -47.5457 -47.5400 -47.4847 -47.4409
   -47.4348 -47.4265 -47.4191 -47.3795 -47.3693 -47.3395 -47.3367 -47.3298
   -47.3153 -47.3084 -47.3020 -47.2725 -14.2055  -6.7369  -5.2173  -4.8659
    -4.5458  -4.5054  -4.3739  -4.3674  -4.2734  -4.2657  -4.0709  -3.8356
    -3.8318  -3.5756  -3.1420  -3.1172  -2.6165  -2.6016  -2.5550  -2.3722
    -2.2413  -2.0500  -2.0326  -1.8508  -1.8081  -1.6138  -1.5579  -1.3260
    -1.2728  -1.1448  -1.0262  -1.0252  -0.9539  -0.9387  -0.7394  -0.6906
    -0.4819  -0.4334  -0.2823  -0.1101  -0.0733  -0.0438   0.0323   0.1460
     0.1823   0.2105   0.4746   0.5463   0.6028   0.7356   0.9576   1.1202
     1.1943   1.2165   1.4839   1.5243   1.5455   1.7463   1.8078   1.8733
     2.0143   2.1801   2.3189   2.4395   2.5405   2.6002   2.7930

          k = 0.0608-0.1404 0.0000 ( 16191 PWs)   bands (ev):

   -48.2354 -48.1965 -48.1551 -48.1386 -48.1277 -48.1126 -48.0897 -48.0818
   -48.0071 -47.9515 -47.8847 -47.8440 -47.7965 -47.7292 -47.7035 -47.6634
   -47.6459 -47.6214 -47.5947 -47.5694 -47.5609 -47.5327 -47.5185 -47.5006
   -47.4496 -47.4451 -47.4239 -47.3964 -47.3745 -47.3585 -47.3384 -47.3295
   -47.3188 -47.3097 -47.3021 -47.2967 -14.2043  -6.1150  -5.2745  -4.5499
    -4.3768  -4.2288  -4.0758  -4.0230  -3.9825  -3.8302  -3.7641  -3.6237
    -3.3726  -3.1614  -3.0812  -2.9474  -2.8636  -2.5949  -2.5574  -2.5430
    -2.4661  -2.2671  -2.1115  -1.9754  -1.9235  -1.6277  -1.5403  -1.4991
    -1.3616  -1.3437  -1.2635  -1.2218  -1.1927  -1.1279  -1.0020  -0.8152
    -0.7477  -0.6469  -0.5416  -0.5281  -0.4528  -0.3337  -0.0892  -0.0016
     0.0920   0.2261   0.3365   0.4272   0.5559   0.6136   0.7538   0.8175
     1.0049   1.0959   1.2829   1.3619   1.5868   1.7220   1.7758   1.8821
     1.9681   2.0896   2.2203   2.2836   2.4029   2.5343   2.5987

          k = 0.0608-0.1053 0.0000 ( 16242 PWs)   bands (ev):

   -48.1714 -48.1702 -48.1382 -48.1300 -48.1289 -48.1113 -48.1108 -48.0907
   -48.0833 -47.9094 -47.8896 -47.8887 -47.7463 -47.7400 -47.6826 -47.6417
   -47.6354 -47.6086 -47.5876 -47.5775 -47.5499 -47.5417 -47.5369 -47.5187
   -47.5068 -47.4495 -47.4012 -47.3980 -47.3698 -47.3488 -47.3474 -47.3445
   -47.3281 -47.3220 -47.3047 -47.3017 -14.2037  -5.2632  -5.2450  -5.2433
    -3.9874  -3.9600  -3.9556  -3.5629  -3.5432  -3.5396  -3.4019  -3.3852
    -3.3835  -3.2089  -3.2084  -3.2009  -2.8113  -2.7958  -2.5492  -2.4687
    -2.4614  -2.2065  -2.1742  -2.1722  -2.0174  -1.9373  -1.9191  -1.7618
    -1.7344  -1.7266  -1.6178  -1.2720  -1.1977  -1.0123  -0.9840  -0.8162
    -0.7875  -0.7533  -0.7360  -0.7216  -0.7163  -0.1435  -0.1078  -0.0903
     0.0423   0.1997   0.4553   0.4858   0.5338   0.7802   0.7996   0.8954
     1.0605   1.2539   1.5212   1.7294   1.7682   1.8056   1.8882   1.9379
     1.9901   1.9964   2.0415   2.1216   2.1285   2.1435   2.1989

          k = 0.0608-0.0702 0.0000 ( 16191 PWs)   bands (ev):

   -48.2353 -48.1965 -48.1551 -48.1386 -48.1277 -48.1126 -48.0897 -48.0818
   -48.0071 -47.9515 -47.8847 -47.8441 -47.7972 -47.7286 -47.7029 -47.6633
   -47.6455 -47.6213 -47.5951 -47.5695 -47.5618 -47.5332 -47.5184 -47.4995
   -47.4500 -47.4452 -47.4242 -47.3964 -47.3745 -47.3581 -47.3385 -47.3290
   -47.3196 -47.3095 -47.3021 -47.2965 -14.2043  -6.1150  -5.2745  -4.5499
    -4.3769  -4.2288  -4.0758  -4.0230  -3.9825  -3.8302  -3.7641  -3.6237
    -3.3726  -3.1614  -3.0812  -2.9474  -2.8636  -2.5949  -2.5574  -2.5430
    -2.4661  -2.2671  -2.1115  -1.9754  -1.9235  -1.6275  -1.5403  -1.4991
    -1.3616  -1.3437  -1.2634  -1.2220  -1.1927  -1.1279  -1.0019  -0.8153
    -0.7477  -0.6469  -0.5416  -0.5282  -0.4527  -0.3337  -0.0893  -0.0017
     0.0919   0.2261   0.3365   0.4272   0.5559   0.6137   0.7538   0.8176
     1.0050   1.0960   1.2829   1.3619   1.5867   1.7220   1.7759   1.8821
     1.9681   2.0896   2.2202   2.2836   2.4030   2.5343   2.5986

          k =-0.0912 0.0527 0.0000 ( 16164 PWs)   bands (ev):

   -48.2350 -48.2223 -48.1483 -48.1429 -48.0987 -48.0985 -48.0723 -48.0559
   -48.0331 -48.0187 -47.8548 -47.8435 -47.8049 -47.7338 -47.6675 -47.6554
   -47.6531 -47.6441 -47.6202 -47.5500 -47.5359 -47.5196 -47.5030 -47.4884
   -47.4697 -47.4591 -47.4590 -47.4251 -47.3737 -47.3487 -47.3300 -47.3182
   -47.3115 -47.3103 -47.3025 -47.2962 -14.2043  -5.8389  -5.8242  -4.4002
    -4.3736  -4.0362  -4.0183  -3.9877  -3.9788  -3.9746  -3.9672  -3.4075
    -3.4054  -3.0902  -3.0634  -2.9183  -2.8912  -2.6076  -2.5794  -2.5410
    -2.5387  -2.2060  -2.1885  -1.7944  -1.7490  -1.5616  -1.3543  -1.3434
    -1.3316  -1.3022  -1.2135  -1.1267  -0.9568  -0.9248  -0.9208  -0.8979
    -0.8903  -0.8122  -0.7718  -0.7612  -0.7473  -0.1484  -0.0453  -0.0382
    -0.0029   0.0924   0.2795   0.4149   0.5096   0.6575   0.7123   0.7907
     0.8278   0.9851   1.0260   1.0282   1.3746   1.4437   1.4975   1.6800
     1.7637   2.0855   2.3082   2.4565   2.4859   2.5585   2.8084

          k =-0.0912 0.0878 0.0000 ( 16191 PWs)   bands (ev):

   -48.2353 -48.1965 -48.1551 -48.1386 -48.1277 -48.1126 -48.0897 -48.0818
   -48.0071 -47.9515 -47.8847 -47.8441 -47.7971 -47.7284 -47.7029 -47.6639
   -47.6461 -47.6212 -47.5943 -47.5694 -47.5618 -47.5330 -47.5185 -47.4998
   -47.4498 -47.4451 -47.4244 -47.3964 -47.3745 -47.3581 -47.3385 -47.3291
   -47.3194 -47.3095 -47.3022 -47.2965 -14.2043  -6.1150  -5.2745  -4.5499
    -4.3769  -4.2288  -4.0758  -4.0230  -3.9825  -3.8302  -3.7641  -3.6237
    -3.3726  -3.1614  -3.0812  -2.9474  -2.8636  -2.5949  -2.5573  -2.5430
    -2.4661  -2.2671  -2.1115  -1.9754  -1.9235  -1.6276  -1.5403  -1.4992
    -1.3616  -1.3437  -1.2635  -1.2219  -1.1927  -1.1280  -1.0019  -0.8153
    -0.7477  -0.6468  -0.5416  -0.5281  -0.4527  -0.3337  -0.0893  -0.0016
     0.0920   0.2261   0.3365   0.4272   0.5558   0.6137   0.7538   0.8175
     1.0050   1.0960   1.2828   1.3620   1.5866   1.7221   1.7759   1.8821
     1.9681   2.0895   2.2203   2.2836   2.4030   2.5343   2.5986

          k =-0.0912 0.1229 0.0000 ( 16191 PWs)   bands (ev):

   -48.2354 -48.1965 -48.1551 -48.1386 -48.1277 -48.1126 -48.0897 -48.0818
   -48.0071 -47.9515 -47.8847 -47.8440 -47.7965 -47.7292 -47.7035 -47.6633
   -47.6458 -47.6214 -47.5949 -47.5694 -47.5609 -47.5328 -47.5184 -47.5005
   -47.4497 -47.4451 -47.4239 -47.3964 -47.3745 -47.3585 -47.3384 -47.3294
   -47.3189 -47.3097 -47.3021 -47.2967 -14.2043  -6.1150  -5.2745  -4.5499
    -4.3768  -4.2288  -4.0758  -4.0230  -3.9825  -3.8302  -3.7641  -3.6237
    -3.3726  -3.1614  -3.0812  -2.9474  -2.8636  -2.5949  -2.5574  -2.5430
    -2.4661  -2.2671  -2.1115  -1.9754  -1.9235  -1.6277  -1.5403  -1.4991
    -1.3616  -1.3437  -1.2635  -1.2219  -1.1927  -1.1279  -1.0020  -0.8152
    -0.7477  -0.6469  -0.5416  -0.5281  -0.4528  -0.3336  -0.0892  -0.0016
     0.0920   0.2261   0.3365   0.4272   0.5559   0.6136   0.7538   0.8175
     1.0050   1.0959   1.2829   1.3619   1.5869   1.7220   1.7758   1.8821
     1.9681   2.0896   2.2204   2.2836   2.4029   2.5343   2.5987

          k =-0.0912-0.0527 0.0000 ( 16164 PWs)   bands (ev):

   -48.2351 -48.2222 -48.1483 -48.1429 -48.0987 -48.0986 -48.0722 -48.0560
   -48.0331 -48.0188 -47.8549 -47.8433 -47.8040 -47.7350 -47.6690 -47.6548
   -47.6527 -47.6447 -47.6194 -47.5490 -47.5352 -47.5202 -47.5038 -47.4889
   -47.4688 -47.4597 -47.4590 -47.4242 -47.3737 -47.3492 -47.3305 -47.3171
   -47.3123 -47.3095 -47.3023 -47.2969 -14.2043  -5.8388  -5.8242  -4.3999
    -4.3739  -4.0363  -4.0183  -3.9877  -3.9788  -3.9745  -3.9673  -3.4074
    -3.4055  -3.0901  -3.0634  -2.9182  -2.8912  -2.6076  -2.5794  -2.5410
    -2.5387  -2.2060  -2.1886  -1.7944  -1.7491  -1.5618  -1.3542  -1.3433
    -1.3319  -1.3020  -1.2136  -1.1265  -0.9569  -0.9248  -0.9208  -0.8979
    -0.8904  -0.8121  -0.7717  -0.7613  -0.7473  -0.1482  -0.0452  -0.0383
    -0.0028   0.0925   0.2794   0.4149   0.5097   0.6574   0.7123   0.7912
     0.8273   0.9853   1.0259   1.0280   1.3749   1.4439   1.4972   1.6800
     1.7637   2.0856   2.3083   2.4566   2.4858   2.5582   2.8084

     the Fermi energy is     1.7919 ev

!    total energy              =   -2232.13675006 Ry
     Harris-Foulkes estimate   =   -2232.13680997 Ry
     estimated scf accuracy    <       0.00000528 Ry

     The total energy is the sum of the following terms:

     one-electron contribution =  -18791.83585262 Ry
     hartree contribution      =    9425.24379654 Ry
     xc contribution           =    -630.78207838 Ry
     ewald contribution        =    7765.33449755 Ry
     electric field correction =       0.00072479 Ry
     smearing contrib. (-TS)   =      -0.09783794 Ry

     convergence has been achieved in  19 iterations
 
 BEEF-vdW xc energy contributions
           1 :   -558.475567653410     
           2 :    519.140461592944     
           3 :   -449.002616614560     
           4 :    362.034814536604     
           5 :   -273.394028389666     
           6 :    195.554631856572     
           7 :   -135.744322377307     
           8 :    95.2090956239470     
           9 :   -70.3146091535785     
          10 :    54.8878015075253     
          11 :   -42.8476609715493     
          12 :    30.1868020675063     
          13 :   -15.7704998536209     
          14 :   0.932430764688547     
          15 :    11.7551914475415     
          16 :   -19.9520085066189     
          17 :    22.6649163228253     
          18 :   -20.6390925623234     
          19 :    15.9796644294057     
          20 :   -11.2588652892474     
          21 :    8.51949245263006     
          22 :   -8.57847026409411     
          23 :    10.8801737448209     
          24 :   -13.9119199509270     
          25 :    15.9601413584585     
          26 :   -15.8733506369625     
          27 :    13.5174405177758     
          28 :   -9.75650195553442     
          29 :    6.00558960665501     
          30 :   -3.58091489907008     
          31 :   -47.9898133947423     
          32 :   -35.9019654404592     

     Forces acting on atoms (Ry/au):


     negative rho (up, down):  3.884E+00 0.000E+00
     atom    1 type  1   force =     0.00050516    0.00029065    0.01535272
     atom    2 type  1   force =    -0.00050081    0.00028131    0.01533912
     atom    3 type  1   force =    -0.00000530   -0.00057300    0.01534712
     atom    4 type  1   force =     0.00000915    0.00000792    0.02576554
     atom    5 type  1   force =     0.00008040    0.00422595    0.01189345
     atom    6 type  1   force =    -0.00007004   -0.00002147   -0.00992316
     atom    7 type  1   force =    -0.00367370   -0.00214054    0.01196158
     atom    8 type  1   force =     0.00368344   -0.00205661    0.01186898
     atom    9 type  1   force =    -0.00000215   -0.00000603   -0.03292543
     atom   10 type  1   force =     0.00001242    0.03091274    0.02597117
     atom   11 type  1   force =     0.02678197   -0.01544882    0.02597268
     atom   12 type  1   force =    -0.02676725   -0.01545333    0.02600794
     atom   13 type  2   force =    -0.00005331   -0.00001875   -0.14263170

     Total force =     0.168135     Total SCF correction =     0.015643


     entering subroutine stress ...


     negative rho (up, down):  3.884E+00 0.000E+00
          total   stress  (Ry/bohr**3)                   (kbar)     P=  -42.74
  -0.00026798  -0.00000002   0.00000002        -39.42     -0.00      0.00
  -0.00000002  -0.00026797   0.00000001         -0.00    -39.42      0.00
   0.00000002   0.00000001  -0.00033562          0.00      0.00    -49.37

 !ASE

     Writing output data file calc.save
 
     init_run     :     12.72s CPU     21.87s WALL (       1 calls)
     electrons    :    574.91s CPU    929.47s WALL (       1 calls)
     forces       :      3.99s CPU      5.23s WALL (       1 calls)
     stress       :     10.68s CPU     12.83s WALL (       1 calls)

     Called by init_run:
     wfcinit      :      9.63s CPU     16.88s WALL (       1 calls)
     potinit      :      1.49s CPU      2.80s WALL (       1 calls)

     Called by electrons:
     c_bands      :    440.90s CPU    697.46s WALL (      19 calls)
     sum_band     :     64.55s CPU    111.08s WALL (      19 calls)
     v_of_rho     :     23.16s CPU     42.58s WALL (      20 calls)
     newd         :     10.12s CPU     10.75s WALL (      20 calls)
     mix_rho      :      0.88s CPU      1.67s WALL (      19 calls)
     vdW_energy   :      2.48s CPU      2.67s WALL (      56 calls)
     vdW_ffts     :     38.64s CPU     75.31s WALL (     114 calls)
     vdW_v        :      7.23s CPU     12.85s WALL (      56 calls)

     Called by c_bands:
     init_us_2    :      0.94s CPU      0.96s WALL (     820 calls)
     cegterg      :    431.99s CPU    687.24s WALL (     380 calls)

     Called by *egterg:
     h_psi        :    285.92s CPU    521.97s WALL (    1853 calls)
     s_psi        :     12.96s CPU     13.09s WALL (    1853 calls)
     g_psi        :      0.68s CPU      0.69s WALL (    1453 calls)
     cdiaghg      :     81.88s CPU     86.58s WALL (    1833 calls)

     Called by h_psi:
     add_vuspsi   :     13.21s CPU     13.21s WALL (    1853 calls)

     General routines
     calbec       :     26.69s CPU     34.93s WALL (    2273 calls)
     fft          :     58.39s CPU    114.18s WALL (    3423 calls)
     ffts         :      0.17s CPU      0.36s WALL (      39 calls)
     fftw         :    288.61s CPU    561.17s WALL (  250682 calls)
     interpolate  :      0.90s CPU      1.80s WALL (      39 calls)
     davcio       :      0.00s CPU      0.03s WALL (      20 calls)
 
     Parallel routines
     fft_scatter  :    317.73s CPU    644.55s WALL (  254144 calls)
 
     PWSCF        : 10m 3.02s CPU    16m10.68s WALL

 
   This run was terminated on:  13:28:25  14Jan2018            

=------------------------------------------------------------------------------=
   JOB DONE.
=------------------------------------------------------------------------------=
Job  /afs/slac/g/suncat/bin/suncat-tsmpirun -x LD_LIBRARY_PATH -wdir /scratch/qe842452_jhir7 pw.x -in pw.inp

TID   HOST_NAME   COMMAND_LINE            STATUS            TERMINATION_TIME
===== ========== ================  =======================  ===================
00000 suncat0253 pw.x -in pw.inp   Done                     01/14/2018 13:28:25
00001 suncat0253 pw.x -in pw.inp   Done                     01/14/2018 13:28:25
00002 suncat0253 pw.x -in pw.inp   Done                     01/14/2018 13:28:25
00003 suncat0253 pw.x -in pw.inp   Done                     01/14/2018 13:28:25
00004 suncat0253 pw.x -in pw.inp   Done                     01/14/2018 13:28:25
00005 suncat0253 pw.x -in pw.inp   Done                     01/14/2018 13:28:25
00006 suncat0253 pw.x -in pw.inp   Done                     01/14/2018 13:28:25
00007 suncat0253 pw.x -in pw.inp   Done                     01/14/2018 13:28:25
00008 suncat0249 pw.x -in pw.inp   Done                     01/14/2018 13:28:25
00009 suncat0249 pw.x -in pw.inp   Done                     01/14/2018 13:28:25
00010 suncat0249 pw.x -in pw.inp   Done                     01/14/2018 13:28:25
00011 suncat0249 pw.x -in pw.inp   Done                     01/14/2018 13:28:25
00012 suncat0249 pw.x -in pw.inp   Done                     01/14/2018 13:28:25
00013 suncat0249 pw.x -in pw.inp   Done                     01/14/2018 13:28:25
00014 suncat0249 pw.x -in pw.inp   Done                     01/14/2018 13:28:25
00015 suncat0249 pw.x -in pw.inp   Done                     01/14/2018 13:28:25
00016 suncat0248 pw.x -in pw.inp   Done                     01/14/2018 13:28:25
00017 suncat0248 pw.x -in pw.inp   Done                     01/14/2018 13:28:25
00018 suncat0248 pw.x -in pw.inp   Done                     01/14/2018 13:28:25
00019 suncat0248 pw.x -in pw.inp   Done                     01/14/2018 13:28:25
00020 suncat0248 pw.x -in pw.inp   Done                     01/14/2018 13:28:25
00021 suncat0248 pw.x -in pw.inp   Done                     01/14/2018 13:28:25
00022 suncat0248 pw.x -in pw.inp   Done                     01/14/2018 13:28:25
00023 suncat0248 pw.x -in pw.inp   Done                     01/14/2018 13:28:25
00024 suncat0247 pw.x -in pw.inp   Done                     01/14/2018 13:28:25
00025 suncat0247 pw.x -in pw.inp   Done                     01/14/2018 13:28:25
00026 suncat0247 pw.x -in pw.inp   Done                     01/14/2018 13:28:25
00027 suncat0247 pw.x -in pw.inp   Done                     01/14/2018 13:28:25
00028 suncat0247 pw.x -in pw.inp   Done                     01/14/2018 13:28:25
00029 suncat0247 pw.x -in pw.inp   Done                     01/14/2018 13:28:25
00030 suncat0247 pw.x -in pw.inp   Done                     01/14/2018 13:28:25
00031 suncat0247 pw.x -in pw.inp   Done                     01/14/2018 13:28:25

     Program PWSCF v.5.1rc2 (svn rev. 11289) starts on 14Jan2018 at 13:28:31 

     This program is part of the open-source Quantum ESPRESSO suite
     for quantum simulation of materials; please cite
         "P. Giannozzi et al., J. Phys.:Condens. Matter 21 395502 (2009);
          URL http://www.quantum-espresso.org", 
     in publications or presentations arising from this work. More details at
     http://www.quantum-espresso.org/quote

     Parallel version (MPI), running on    32 processors
     R & G space division:  proc/nbgrp/npool/nimage =      32
     Reading input from pw.inp
     Message from routine read_cards :
     DEPRECATED: no units specified in CELL_PARAMETERS card

     Current dimensions of program PWSCF are:
     Max number of different atomic species (ntypx) = 10
     Max number of k-points (npk) =  40000
     Max angular momentum in pseudopotentials (lmaxx) =  3
     Presently stress not available with electric field


     **************************************************************************
     Initializing libbeef V0.1.1 with the BEEF-vdW functional.
     Citation: Wellendorff et al., PRB 85, 235149 (2012).
     **************************************************************************


     IMPORTANT: XC functional enforced from input :
     Exchange-correlation      = BEEF-VDW ( 1  4 27 13 2)
     Any further DFT definition will be discarded
     Please, verify this is what you really want


     Subspace diagonalization in iterative solution of the eigenvalue problem:
     a serial algorithm will be used

 
     Parallelization info
     --------------------
     sticks:   dense  smooth     PW     G-vecs:    dense   smooth      PW
     Min          84      33      9                15972     4017     623
     Max          85      34     10                16001     4054     650
     Sum        2713    1069    313               511711   129131   20509
 


     bravais-lattice index     =            0
     lattice parameter (alat)  =       1.8897  a.u.
     unit-cell volume          =    4299.0717 (a.u.)^3
     number of atoms/cell      =           13
     number of atomic types    =            2
     number of electrons       =       186.00
     number of Kohn-Sham states=          103
     kinetic-energy cutoff     =      36.7493  Ry
     charge density cutoff     =     367.4932  Ry
     convergence threshold     =      1.0E-05
     mixing beta               =       0.3000
     number of iterations used =           10  plain     mixing
     Exchange-correlation      = BEEF-VDW ( 1  4 27 13 2)
     nstep                     =           50


     celldm(1)=   1.889726  celldm(2)=   0.000000  celldm(3)=   0.000000
     celldm(4)=   0.000000  celldm(5)=   0.000000  celldm(6)=   0.000000

     crystal axes: (cart. coord. in units of alat)
               a(1) = (   5.482164   0.000000   0.000000 )  
               a(2) = (   2.741082   4.747693   0.000000 )  
               a(3) = (   0.000000   0.000000  24.476168 )  

     reciprocal axes: (cart. coord. in units 2 pi/alat)
               b(1) = (  0.182410 -0.105314  0.000000 )  
               b(2) = (  0.000000  0.210629  0.000000 )  
               b(3) = (  0.000000  0.000000  0.040856 )  


     PseudoPot. # 1 for Ir read from file:
     /afs/slac.stanford.edu/u/if/mamunm/psp/gbrv1.5pbe/Ir.UPF
     MD5 check sum: 8836f839c3459d2b385c504ce6d91f2c
     Pseudo is Ultrasoft + core correction, Zval = 15.0
     Generated by new atomic code, or converted to UPF format
     Using radial grid of  983 points,  7 beta functions with: 
                l(1) =   0
                l(2) =   0
                l(3) =   1
                l(4) =   1
                l(5) =   1
                l(6) =   2
                l(7) =   2
     Q(r) pseudized with  8 coefficients,  rinner =    1.400   1.400   1.400
                                                       1.400   1.400

     PseudoPot. # 2 for O  read from file:
     /afs/slac.stanford.edu/u/if/mamunm/psp/gbrv1.5pbe/O.UPF
     MD5 check sum: 734c27235a0248c51dbae37a1fbe46ec
     Pseudo is Ultrasoft + core correction, Zval =  6.0
     Generated by new atomic code, or converted to UPF format
     Using radial grid of  737 points,  5 beta functions with: 
                l(1) =   0
                l(2) =   0
                l(3) =   1
                l(4) =   1
                l(5) =   2
     Q(r) pseudized with  8 coefficients,  rinner =    0.900   0.900   0.900
                                                       0.900   0.900

     vdW kernel table read from file vdW_kernel_table
     MD5 check sum: 095c7af220d748ca6e76c0b4c6cfb241

     atomic species   valence    mass     pseudopotential
        Ir1           15.00   192.21700     Ir( 1.00)
        O1             6.00    15.99900     O ( 1.00)

     No symmetry found



   Cartesian axes

     site n.     atom                  positions (alat units)
         1           Ir1 tau(   1) = (   1.3705410   0.7912822  10.0000000  )
         2           Ir1 tau(   2) = (   4.1116229   0.7912822  10.0000000  )
         3           Ir1 tau(   3) = (   2.7410819   3.1651288  10.0000000  )
         4           Ir1 tau(   4) = (   5.4821639   3.1651288  10.0000000  )
         5           Ir1 tau(   5) = (   5.4821639   1.5825644  12.2380840  )
         6           Ir1 tau(   6) = (   2.7410819   1.5825644  12.2380840  )
         7           Ir1 tau(   7) = (   6.8527049   3.9564110  12.2380840  )
         8           Ir1 tau(   8) = (   4.1116229   3.9564110  12.2380840  )
         9           Ir1 tau(   9) = (   2.7410764   4.7476777  14.3915134  )
        10           Ir1 tau(  10) = (   2.7411139   0.0794798  14.5429426  )
        11           Ir1 tau(  11) = (   1.4394002   2.3341261  14.5429465  )
        12           Ir1 tau(  12) = (   4.0428015   2.3341145  14.5430372  )
        13           O1  tau(  13) = (   2.7409449   1.5825162  16.1794472  )

     number of k points=    20  Fermi-Dirac smearing, width (Ry)=  0.0110
                       cart. coord. in units 2pi/alat
        k(    1) = (   0.0000000   0.0000000   0.0000000), wk =   0.0555556
        k(    2) = (   0.0000000   0.0351048   0.0000000), wk =   0.1111111
        k(    3) = (   0.0000000   0.0702095   0.0000000), wk =   0.1111111
        k(    4) = (   0.0000000  -0.1053143   0.0000000), wk =   0.0555556
        k(    5) = (   0.0304016  -0.0175524   0.0000000), wk =   0.1111111
        k(    6) = (   0.0304016   0.0175524   0.0000000), wk =   0.1111111
        k(    7) = (   0.0304016   0.0526572   0.0000000), wk =   0.1111111
        k(    8) = (   0.0304016  -0.1228667   0.0000000), wk =   0.1111111
        k(    9) = (   0.0304016  -0.0877619   0.0000000), wk =   0.1111111
        k(   10) = (   0.0304016  -0.0526572   0.0000000), wk =   0.1111111
        k(   11) = (   0.0608032  -0.0351048   0.0000000), wk =   0.1111111
        k(   12) = (   0.0608032   0.0000000   0.0000000), wk =   0.1111111
        k(   13) = (   0.0608032   0.0351048   0.0000000), wk =   0.1111111
        k(   14) = (   0.0608032  -0.1404191   0.0000000), wk =   0.1111111
        k(   15) = (   0.0608032  -0.1053143   0.0000000), wk =   0.1111111
        k(   16) = (   0.0608032  -0.0702095   0.0000000), wk =   0.1111111
        k(   17) = (  -0.0912049   0.0526572   0.0000000), wk =   0.0555556
        k(   18) = (  -0.0912049   0.0877619   0.0000000), wk =   0.1111111
        k(   19) = (  -0.0912049   0.1228667   0.0000000), wk =   0.1111111
        k(   20) = (  -0.0912049  -0.0526572   0.0000000), wk =   0.0555556

     Dense  grid:   511711 G-vectors     FFT dimensions: (  64,  64, 288)

     Smooth grid:   129131 G-vectors     FFT dimensions: (  40,  40, 180)

     Largest allocated arrays     est. size (Mb)     dimensions
        Kohn-Sham Wavefunctions         0.81 Mb     (     515,  103)
        NL pseudopotentials             2.08 Mb     (     515,  265)
        Each V/rho on FFT grid          0.56 Mb     (   36864)
        Each G-vector array             0.12 Mb     (   16001)
        G-vector shells                 0.06 Mb     (    7228)
     Largest temporary arrays     est. size (Mb)     dimensions
        Auxiliary wavefunctions         3.24 Mb     (     515,  412)
        Each subspace H/S matrix        2.59 Mb     (     412,  412)
        Each <psi_i|beta_j> matrix      0.42 Mb     (     265,  103)
        Arrays for rho mixing           5.62 Mb     (   36864,   10)

     Initial potential from superposition of free atoms
     Check: negative starting charge=   -4.368276

     starting charge  179.99962, renormalised to  186.00000

     negative rho (up, down):  4.514E+00 0.000E+00


     ************************************************************************
     *
     * You are using vdW-DF for exchange-correlation in this calculation.
     * Please cite the following three references that made this development
     * possible:
     *
     *   M. Dion, H. Rydberg, E. Schroder, D. C. Langreth, and
     *   B. I. Lundqvist, Phys. Rev. Lett. 92, 246401 (2004).
     *
     *   T. Thonhauser, V. R. Cooper, S. Li, A. Puzder, P. Hyldgaard, and
     *   D. C. Langreth, Phys. Rev. B 76, 125112 (2007).
     *
     *   G. Roman-Perez and J. M. Soler, Phys. Rev. Lett. 103, 096102 (2009).
     *
     *
     * If you are using vdW-DF2, please also cite:
     *
     *   K. Lee, E. D. Murray, L. Kong, B. I. Lundqvist, and
     *   D. C. Langreth, Phys. Rev. B 82, 081101(R) (2010).
     *
     *
     * If you are calculating the stress with vdW-DF, please also cite:
     *
     *   R. Sabatini, E. Kucukbenli, B. Kolb, T. Thonhauser, and
     *   S. de Gironcoli, J. Phys.: Condens. Matter 24, 424209 (2012).
     *
     ************************************************************************

     Carrying out vdW-DF run using the following parameters:

     Nqs =      20    Nr_points =    1024   r_max =   100.000
     q_mesh =
               0.00001000     0.04494208     0.09755937     0.15916263
               0.23128650     0.31572767     0.41458969     0.53033537
               0.66584808     0.82450364     1.01025438     1.22772762
               1.48234092     1.78043706     2.12944203     2.53805004
               3.01644009     3.57652955     4.23227104     5.00000000

     Gradients computed in reciprocal space

     ************************************************************************


 
     Adding external electric field

     Computed dipole along edir(3) : 
        Dipole               -1.4861 Ry au,         -3.7772 Debye
        Dipole field         -0.0043 Ry au
 
        Potential amp.        0.3918 Ry
        Total length         45.0969 bohr
 
     Starting wfc are  148 randomized atomic wfcs

     total cpu time spent up to now is       21.8 secs

     per-process dynamical memory:    45.9 Mb

     Self-consistent Calculation

     iteration #  1     ecut=    36.75 Ry     beta=0.30
     Davidson diagonalization with overlap
     ethr =  1.00E-02,  avg # of iterations =  2.5

     negative rho (up, down):  4.181E+00 0.000E+00
 
     Adding external electric field

     Computed dipole along edir(3) : 
        Dipole               22.7906 Ry au,         57.9278 Debye
        Dipole field          0.0666 Ry au
 
        Potential amp.       -6.0085 Ry
        Total length         45.0969 bohr
 

     total cpu time spent up to now is       61.8 secs

     total energy              =   -2193.89393437 Ry
     Harris-Foulkes estimate   =   -2234.78554497 Ry
     estimated scf accuracy    <      86.04108213 Ry

     iteration #  2     ecut=    36.75 Ry     beta=0.30
     Davidson diagonalization with overlap
     c_bands:  2 eigenvalues not converged
     ethr =  1.00E-02,  avg # of iterations = 17.6

     negative rho (up, down):  4.091E+00 0.000E+00
 
     Adding external electric field

     Computed dipole along edir(3) : 
        Dipole               -1.4142 Ry au,         -3.5946 Debye
        Dipole field         -0.0041 Ry au
 
        Potential amp.        0.3728 Ry
        Total length         45.0969 bohr
 

     total cpu time spent up to now is      186.0 secs

     total energy              =   -2054.64342295 Ry
     Harris-Foulkes estimate   =   -2458.42307466 Ry
     estimated scf accuracy    <   11402.40663795 Ry

     iteration #  3     ecut=    36.75 Ry     beta=0.30
     Davidson diagonalization with overlap
     ethr =  1.00E-02,  avg # of iterations =  8.0

     negative rho (up, down):  3.952E+00 0.000E+00
 
     Adding external electric field

     Computed dipole along edir(3) : 
        Dipole                0.8393 Ry au,          2.1334 Debye
        Dipole field          0.0025 Ry au
 
        Potential amp.       -0.2213 Ry
        Total length         45.0969 bohr
 

     total cpu time spent up to now is      279.2 secs

     total energy              =   -2212.66874590 Ry
     Harris-Foulkes estimate   =   -2273.24129161 Ry
     estimated scf accuracy    <    1073.19189501 Ry

     iteration #  4     ecut=    36.75 Ry     beta=0.30
     Davidson diagonalization with overlap
     ethr =  1.00E-02,  avg # of iterations =  5.5

     negative rho (up, down):  3.996E+00 0.000E+00
 
     Adding external electric field

     Computed dipole along edir(3) : 
        Dipole                1.1866 Ry au,          3.0161 Debye
        Dipole field          0.0035 Ry au
 
        Potential amp.       -0.3128 Ry
        Total length         45.0969 bohr
 

     total cpu time spent up to now is      345.9 secs

     total energy              =   -2231.33498078 Ry
     Harris-Foulkes estimate   =   -2233.63117925 Ry
     estimated scf accuracy    <      25.09852552 Ry

     iteration #  5     ecut=    36.75 Ry     beta=0.30
     Davidson diagonalization with overlap
     ethr =  1.00E-02,  avg # of iterations =  1.6

     negative rho (up, down):  3.937E+00 0.000E+00
 
     Adding external electric field

     Computed dipole along edir(3) : 
        Dipole               -0.0672 Ry au,         -0.1707 Debye
        Dipole field         -0.0002 Ry au
 
        Potential amp.        0.0177 Ry
        Total length         45.0969 bohr
 

     total cpu time spent up to now is      381.2 secs

     total energy              =   -2231.77769191 Ry
     Harris-Foulkes estimate   =   -2232.77013844 Ry
     estimated scf accuracy    <       9.25873609 Ry

     iteration #  6     ecut=    36.75 Ry     beta=0.30
     Davidson diagonalization with overlap
     ethr =  4.98E-03,  avg # of iterations =  1.9

     negative rho (up, down):  3.873E+00 0.000E+00
 
     Adding external electric field

     Computed dipole along edir(3) : 
        Dipole               -0.3679 Ry au,         -0.9352 Debye
        Dipole field         -0.0011 Ry au
 
        Potential amp.        0.0970 Ry
        Total length         45.0969 bohr
 

     total cpu time spent up to now is      413.2 secs

     total energy              =   -2232.12964403 Ry
     Harris-Foulkes estimate   =   -2232.35010015 Ry
     estimated scf accuracy    <       1.40594209 Ry

     iteration #  7     ecut=    36.75 Ry     beta=0.30
     Davidson diagonalization with overlap
     ethr =  7.56E-04,  avg # of iterations =  2.8

     negative rho (up, down):  3.864E+00 0.000E+00
 
     Adding external electric field

     Computed dipole along edir(3) : 
        Dipole               -0.3583 Ry au,         -0.9106 Debye
        Dipole field         -0.0010 Ry au
 
        Potential amp.        0.0945 Ry
        Total length         45.0969 bohr
 

     total cpu time spent up to now is      448.8 secs

     total energy              =   -2232.20164177 Ry
     Harris-Foulkes estimate   =   -2232.25487971 Ry
     estimated scf accuracy    <       0.45318040 Ry

     iteration #  8     ecut=    36.75 Ry     beta=0.30
     Davidson diagonalization with overlap
     ethr =  2.44E-04,  avg # of iterations =  5.8

     negative rho (up, down):  3.865E+00 0.000E+00
 
     Adding external electric field

     Computed dipole along edir(3) : 
        Dipole               -0.3513 Ry au,         -0.8930 Debye
        Dipole field         -0.0010 Ry au
 
        Potential amp.        0.0926 Ry
        Total length         45.0969 bohr
 

     total cpu time spent up to now is      488.7 secs

     total energy              =   -2232.22362823 Ry
     Harris-Foulkes estimate   =   -2232.25777830 Ry
     estimated scf accuracy    <       0.18431457 Ry

     iteration #  9     ecut=    36.75 Ry     beta=0.30
     Davidson diagonalization with overlap
     ethr =  9.91E-05,  avg # of iterations =  2.5

     negative rho (up, down):  3.872E+00 0.000E+00
 
     Adding external electric field

     Computed dipole along edir(3) : 
        Dipole               -0.3946 Ry au,         -1.0031 Debye
        Dipole field         -0.0012 Ry au
 
        Potential amp.        0.1040 Ry
        Total length         45.0969 bohr
 

     total cpu time spent up to now is      523.3 secs

     total energy              =   -2232.23726766 Ry
     Harris-Foulkes estimate   =   -2232.24178899 Ry
     estimated scf accuracy    <       0.04961344 Ry

     iteration # 10     ecut=    36.75 Ry     beta=0.30
     Davidson diagonalization with overlap
     ethr =  2.67E-05,  avg # of iterations =  3.5

     negative rho (up, down):  3.880E+00 0.000E+00
 
     Adding external electric field

     Computed dipole along edir(3) : 
        Dipole               -0.4558 Ry au,         -1.1586 Debye
        Dipole field         -0.0013 Ry au
 
        Potential amp.        0.1202 Ry
        Total length         45.0969 bohr
 

     total cpu time spent up to now is      559.3 secs

     total energy              =   -2232.23817720 Ry
     Harris-Foulkes estimate   =   -2232.24065341 Ry
     estimated scf accuracy    <       0.01577602 Ry

     iteration # 11     ecut=    36.75 Ry     beta=0.30
     Davidson diagonalization with overlap
     ethr =  8.48E-06,  avg # of iterations =  3.9

     negative rho (up, down):  3.882E+00 0.000E+00
 
     Adding external electric field

     Computed dipole along edir(3) : 
        Dipole               -0.4719 Ry au,         -1.1994 Debye
        Dipole field         -0.0014 Ry au
 
        Potential amp.        0.1244 Ry
        Total length         45.0969 bohr
 

     total cpu time spent up to now is      597.2 secs

     total energy              =   -2232.23905678 Ry
     Harris-Foulkes estimate   =   -2232.23953606 Ry
     estimated scf accuracy    <       0.00414479 Ry

     iteration # 12     ecut=    36.75 Ry     beta=0.30
     Davidson diagonalization with overlap
     ethr =  2.23E-06,  avg # of iterations =  5.2

     negative rho (up, down):  3.885E+00 0.000E+00
 
     Adding external electric field

     Computed dipole along edir(3) : 
        Dipole               -0.4724 Ry au,         -1.2008 Debye
        Dipole field         -0.0014 Ry au
 
        Potential amp.        0.1246 Ry
        Total length         45.0969 bohr
 

     total cpu time spent up to now is      639.0 secs

     total energy              =   -2232.23933296 Ry
     Harris-Foulkes estimate   =   -2232.23959225 Ry
     estimated scf accuracy    <       0.00487844 Ry

     iteration # 13     ecut=    36.75 Ry     beta=0.30
     Davidson diagonalization with overlap
     ethr =  2.23E-06,  avg # of iterations =  1.0

     negative rho (up, down):  3.891E+00 0.000E+00
 
     Adding external electric field

     Computed dipole along edir(3) : 
        Dipole               -0.3671 Ry au,         -0.9330 Debye
        Dipole field         -0.0011 Ry au
 
        Potential amp.        0.0968 Ry
        Total length         45.0969 bohr
 

     total cpu time spent up to now is      670.6 secs

     total energy              =   -2232.23926051 Ry
     Harris-Foulkes estimate   =   -2232.23973266 Ry
     estimated scf accuracy    <       0.00129310 Ry

     iteration # 14     ecut=    36.75 Ry     beta=0.30
     Davidson diagonalization with overlap
     ethr =  6.95E-07,  avg # of iterations =  4.0

     negative rho (up, down):  3.890E+00 0.000E+00
 
     Adding external electric field

     Computed dipole along edir(3) : 
        Dipole               -0.3305 Ry au,         -0.8399 Debye
        Dipole field         -0.0010 Ry au
 
        Potential amp.        0.0871 Ry
        Total length         45.0969 bohr
 

     total cpu time spent up to now is      710.3 secs

     total energy              =   -2232.23931060 Ry
     Harris-Foulkes estimate   =   -2232.23954430 Ry
     estimated scf accuracy    <       0.00392688 Ry

     iteration # 15     ecut=    36.75 Ry     beta=0.30
     Davidson diagonalization with overlap
     ethr =  6.95E-07,  avg # of iterations =  2.1

     negative rho (up, down):  3.889E+00 0.000E+00
 
     Adding external electric field

     Computed dipole along edir(3) : 
        Dipole               -0.2956 Ry au,         -0.7513 Debye
        Dipole field         -0.0009 Ry au
 
        Potential amp.        0.0779 Ry
        Total length         45.0969 bohr
 

     total cpu time spent up to now is      744.6 secs

     total energy              =   -2232.23942415 Ry
     Harris-Foulkes estimate   =   -2232.23949349 Ry
     estimated scf accuracy    <       0.00072098 Ry

     iteration # 16     ecut=    36.75 Ry     beta=0.30
     Davidson diagonalization with overlap
     ethr =  3.88E-07,  avg # of iterations =  1.4

     negative rho (up, down):  3.889E+00 0.000E+00
 
     Adding external electric field

     Computed dipole along edir(3) : 
        Dipole               -0.2734 Ry au,         -0.6950 Debye
        Dipole field         -0.0008 Ry au
 
        Potential amp.        0.0721 Ry
        Total length         45.0969 bohr
 

     total cpu time spent up to now is      777.0 secs

     total energy              =   -2232.23945641 Ry
     Harris-Foulkes estimate   =   -2232.23950118 Ry
     estimated scf accuracy    <       0.00014697 Ry

     iteration # 17     ecut=    36.75 Ry     beta=0.30
     Davidson diagonalization with overlap
     ethr =  7.90E-08,  avg # of iterations =  3.4

     negative rho (up, down):  3.889E+00 0.000E+00
 
     Adding external electric field

     Computed dipole along edir(3) : 
        Dipole               -0.2599 Ry au,         -0.6605 Debye
        Dipole field         -0.0008 Ry au
 
        Potential amp.        0.0685 Ry
        Total length         45.0969 bohr
 

     total cpu time spent up to now is      813.2 secs

     total energy              =   -2232.23947018 Ry
     Harris-Foulkes estimate   =   -2232.23950024 Ry
     estimated scf accuracy    <       0.00011489 Ry

     iteration # 18     ecut=    36.75 Ry     beta=0.30
     Davidson diagonalization with overlap
     ethr =  6.18E-08,  avg # of iterations =  2.2

     negative rho (up, down):  3.889E+00 0.000E+00
 
     Adding external electric field

     Computed dipole along edir(3) : 
        Dipole               -0.2567 Ry au,         -0.6525 Debye
        Dipole field         -0.0008 Ry au
 
        Potential amp.        0.0677 Ry
        Total length         45.0969 bohr
 

     total cpu time spent up to now is      848.0 secs

     total energy              =   -2232.23947310 Ry
     Harris-Foulkes estimate   =   -2232.23948478 Ry
     estimated scf accuracy    <       0.00003964 Ry

     iteration # 19     ecut=    36.75 Ry     beta=0.30
     Davidson diagonalization with overlap
     ethr =  2.13E-08,  avg # of iterations =  3.1

     negative rho (up, down):  3.889E+00 0.000E+00
 
     Adding external electric field

     Computed dipole along edir(3) : 
        Dipole               -0.2534 Ry au,         -0.6442 Debye
        Dipole field         -0.0007 Ry au
 
        Potential amp.        0.0668 Ry
        Total length         45.0969 bohr
 

     total cpu time spent up to now is      884.8 secs

     total energy              =   -2232.23947473 Ry
     Harris-Foulkes estimate   =   -2232.23948247 Ry
     estimated scf accuracy    <       0.00004803 Ry

     iteration # 20     ecut=    36.75 Ry     beta=0.30
     Davidson diagonalization with overlap
     ethr =  2.13E-08,  avg # of iterations =  1.8

     negative rho (up, down):  3.889E+00 0.000E+00
 
     Adding external electric field

     Computed dipole along edir(3) : 
        Dipole               -0.2519 Ry au,         -0.6403 Debye
        Dipole field         -0.0007 Ry au
 
        Potential amp.        0.0664 Ry
        Total length         45.0969 bohr
 

     total cpu time spent up to now is      919.2 secs

     total energy              =   -2232.23947525 Ry
     Harris-Foulkes estimate   =   -2232.23947960 Ry
[...]
   -47.4006 -47.3400 -47.3213 -47.2886 -47.2791 -47.2678 -47.2445 -47.1792
   -47.1318 -47.1018 -47.0693 -47.0555 -47.0354 -47.0300 -46.9854 -46.9791
   -46.8156 -46.8070 -46.7729 -46.7525 -46.7363 -46.7353 -46.7156 -46.6997
   -46.6957 -46.6882 -46.6842 -46.6345 -17.1794  -6.3867  -4.8854  -4.5792
    -4.4395  -4.2103  -4.1738  -4.0854  -4.0064  -3.8154  -3.6966  -3.5639
    -3.4919  -3.3278  -3.1934  -3.0617  -2.8212  -2.6662  -2.0783  -1.9062
    -1.8068  -1.7938  -1.6728  -1.3870  -1.3413  -1.2585  -1.1800  -1.1505
    -0.9517  -0.8410  -0.7006  -0.6064  -0.5369  -0.4016  -0.3368  -0.2898
    -0.2304  -0.0753   0.2534   0.4622   0.5012   0.7001   0.7426   0.8502
     0.9050   0.9634   1.0416   1.2044   1.2886   1.5347   1.6264   1.8355
     1.9385   2.2175   2.2972   2.3121   2.4084   2.6532   2.6632   2.7545
     2.8759   3.0095   3.0973   3.1939   3.2963   3.4508   3.6959

          k = 0.0608-0.0351 0.0000 ( 16137 PWs)   bands (ev):

   -47.7682 -47.6417 -47.5908 -47.5646 -47.5361 -47.5214 -47.5033 -47.4283
   -47.4049 -47.3457 -47.3192 -47.3145 -47.2786 -47.2741 -47.2225 -47.2102
   -47.1413 -47.1005 -47.0654 -47.0423 -47.0422 -47.0083 -46.9767 -46.9753
   -46.8231 -46.8032 -46.8001 -46.7712 -46.7495 -46.7402 -46.7054 -46.7040
   -46.6973 -46.6875 -46.6848 -46.6399 -17.1755  -6.1821  -4.9328  -4.5443
    -4.2170  -4.1759  -4.0836  -3.9308  -3.7378  -3.7181  -3.6281  -3.4433
    -3.4014  -3.2058  -3.1865  -2.9575  -2.7246  -2.5067  -2.0674  -1.9370
    -1.8976  -1.8175  -1.7364  -1.4611  -1.4352  -1.3504  -1.2497  -1.1475
    -0.9192  -0.9134  -0.7124  -0.5242  -0.5025  -0.4062  -0.3736  -0.2838
    -0.1869  -0.1815   0.2176   0.3386   0.3959   0.5009   0.5214   0.5771
     0.6565   0.8040   0.9239   1.0472   1.1446   1.4034   1.6888   1.7598
     1.7840   1.9212   2.0061   2.1733   2.1978   2.2947   2.5759   2.5895
     2.6341   2.9194   2.9437   3.0660   3.2187   3.4100   3.6248

          k = 0.0608 0.0000 0.0000 ( 16186 PWs)   bands (ev):

   -47.7829 -47.6526 -47.5938 -47.5730 -47.5471 -47.5455 -47.5130 -47.4228
   -47.4005 -47.3401 -47.3214 -47.2886 -47.2790 -47.2677 -47.2445 -47.1792
   -47.1319 -47.1019 -47.0693 -47.0555 -47.0354 -47.0300 -46.9852 -46.9793
   -46.8155 -46.8070 -46.7728 -46.7525 -46.7363 -46.7353 -46.7156 -46.6996
   -46.6958 -46.6881 -46.6843 -46.6345 -17.1794  -6.3866  -4.8854  -4.5792
    -4.4394  -4.2103  -4.1738  -4.0854  -4.0064  -3.8154  -3.6965  -3.5638
    -3.4919  -3.3277  -3.1934  -3.0617  -2.8212  -2.6662  -2.0783  -1.9061
    -1.8068  -1.7938  -1.6728  -1.3870  -1.3413  -1.2586  -1.1800  -1.1505
    -0.9517  -0.8411  -0.7007  -0.6064  -0.5370  -0.4016  -0.3367  -0.2896
    -0.2305  -0.0753   0.2534   0.4622   0.5011   0.7001   0.7426   0.8501
     0.9050   0.9633   1.0415   1.2044   1.2886   1.5347   1.6264   1.8356
     1.9384   2.2174   2.2972   2.3121   2.4084   2.6531   2.6632   2.7545
     2.8759   3.0095   3.0972   3.1938   3.2963   3.4508   3.6959

          k = 0.0608 0.0351 0.0000 ( 16137 PWs)   bands (ev):

   -47.7683 -47.6416 -47.5906 -47.5647 -47.5360 -47.5215 -47.5034 -47.4283
   -47.4049 -47.3459 -47.3193 -47.3144 -47.2784 -47.2742 -47.2223 -47.2102
   -47.1414 -47.1006 -47.0655 -47.0423 -47.0422 -47.0082 -46.9769 -46.9753
   -46.8232 -46.8031 -46.8001 -46.7711 -46.7495 -46.7402 -46.7054 -46.7040
   -46.6973 -46.6875 -46.6847 -46.6399 -17.1755  -6.1821  -4.9328  -4.5443
    -4.2170  -4.1759  -4.0836  -3.9308  -3.7378  -3.7181  -3.6281  -3.4433
    -3.4014  -3.2058  -3.1866  -2.9575  -2.7245  -2.5067  -2.0674  -1.9371
    -1.8976  -1.8175  -1.7364  -1.4610  -1.4352  -1.3504  -1.2497  -1.1475
    -0.9192  -0.9134  -0.7124  -0.5242  -0.5025  -0.4061  -0.3737  -0.2838
    -0.1869  -0.1814   0.2176   0.3386   0.3959   0.5009   0.5214   0.5771
     0.6565   0.8040   0.9238   1.0472   1.1447   1.4034   1.6888   1.7598
     1.7840   1.9212   2.0062   2.1734   2.1978   2.2947   2.5758   2.5895
     2.6341   2.9194   2.9437   3.0660   3.2188   3.4099   3.6248

          k = 0.0608-0.1404 0.0000 ( 16191 PWs)   bands (ev):

   -47.7307 -47.6138 -47.5901 -47.5472 -47.5000 -47.4856 -47.4766 -47.4387
   -47.4226 -47.3849 -47.3337 -47.3167 -47.2764 -47.2726 -47.2520 -47.2049
   -47.1652 -47.1250 -47.0585 -47.0227 -47.0104 -46.9874 -46.9765 -46.9299
   -46.8836 -46.8335 -46.8136 -46.7866 -46.7647 -46.7418 -46.7087 -46.7043
   -46.6971 -46.6909 -46.6829 -46.6662 -17.1678  -5.6228  -4.9013  -4.3798
    -4.1381  -3.9159  -3.7541  -3.6562  -3.5146  -3.4020  -3.3148  -3.2171
    -3.0926  -2.9560  -2.8344  -2.7523  -2.4980  -2.4211  -2.2605  -2.0937
    -1.9930  -1.9470  -1.7934  -1.7235  -1.5798  -1.5444  -1.3901  -1.2612
    -1.0556  -0.9820  -0.8534  -0.7751  -0.6738  -0.6556  -0.5752  -0.5046
    -0.3493  -0.2335  -0.0283  -0.0063   0.0811   0.1318   0.2505   0.4226
     0.6816   0.7561   0.8754   0.9550   1.1036   1.1795   1.3001   1.4339
     1.6048   1.8046   1.8666   2.1153   2.1950   2.3358   2.4698   2.5608
     2.6161   2.7240   2.8968   2.9662   3.1024   3.2112   3.3308

          k = 0.0608-0.1053 0.0000 ( 16242 PWs)   bands (ev):

   -47.7014 -47.6214 -47.5531 -47.5369 -47.5286 -47.4627 -47.4528 -47.4252
   -47.4133 -47.4059 -47.3748 -47.3260 -47.2805 -47.2804 -47.2222 -47.2087
   -47.1678 -47.1609 -47.0553 -47.0142 -46.9910 -46.9692 -46.9534 -46.9060
   -46.9039 -46.8974 -46.8171 -46.8125 -46.7417 -46.7192 -46.7111 -46.7102
   -46.7078 -46.6954 -46.6937 -46.6813 -17.1639  -5.1068  -4.7289  -4.6421
    -4.0433  -3.8626  -3.7603  -3.3399  -3.2933  -3.0814  -3.0347  -2.9608
    -2.8477  -2.7861  -2.6330  -2.5844  -2.5815  -2.5099  -2.4366  -2.1692
    -2.1677  -1.9903  -1.9230  -1.8221  -1.5761  -1.5625  -1.5270  -1.4085
    -1.3061  -1.2722  -1.1984  -1.1392  -0.9977  -0.9721  -0.5461  -0.3703
    -0.3430  -0.2504  -0.2238  -0.1355  -0.0574   0.0266   0.2485   0.5489
     0.5852   0.6042   1.0055   1.0789   1.2405   1.3476   1.3592   1.4747
     1.5859   1.9036   2.1381   2.1608   2.4838   2.5234   2.5235   2.5416
     2.5935   2.6556   2.6727   2.7007   2.7400   2.7840   2.9143

          k = 0.0608-0.0702 0.0000 ( 16191 PWs)   bands (ev):

   -47.7306 -47.6139 -47.5902 -47.5472 -47.4999 -47.4854 -47.4765 -47.4388
   -47.4225 -47.3848 -47.3338 -47.3168 -47.2764 -47.2726 -47.2521 -47.2049
   -47.1650 -47.1249 -47.0585 -47.0228 -47.0105 -46.9873 -46.9764 -46.9299
   -46.8836 -46.8335 -46.8136 -46.7867 -46.7647 -46.7418 -46.7087 -46.7043
   -46.6972 -46.6909 -46.6829 -46.6661 -17.1678  -5.6228  -4.9013  -4.3798
    -4.1381  -3.9159  -3.7541  -3.6563  -3.5146  -3.4019  -3.3148  -3.2170
    -3.0927  -2.9560  -2.8344  -2.7523  -2.4980  -2.4211  -2.2604  -2.0936
    -1.9931  -1.9471  -1.7934  -1.7235  -1.5798  -1.5444  -1.3901  -1.2612
    -1.0556  -0.9819  -0.8533  -0.7751  -0.6738  -0.6556  -0.5752  -0.5046
    -0.3493  -0.2335  -0.0284  -0.0063   0.0811   0.1319   0.2505   0.4226
     0.6815   0.7561   0.8754   0.9550   1.1036   1.1794   1.3001   1.4339
     1.6048   1.8046   1.8666   2.1154   2.1950   2.3358   2.4698   2.5609
     2.6161   2.7240   2.8968   2.9662   3.1024   3.2113   3.3309

          k =-0.0912 0.0527 0.0000 ( 16164 PWs)   bands (ev):

   -47.7321 -47.6260 -47.5850 -47.5417 -47.5005 -47.4832 -47.4577 -47.4343
   -47.4229 -47.3954 -47.3400 -47.3200 -47.2820 -47.2722 -47.2574 -47.2073
   -47.1644 -47.1101 -47.0627 -47.0241 -47.0132 -47.0006 -46.9765 -46.8696
   -46.8636 -46.8461 -46.8351 -46.8292 -46.7763 -46.7422 -46.7088 -46.6984
   -46.6881 -46.6862 -46.6739 -46.6684 -17.1678  -5.4904  -5.2237  -4.4402
    -4.0043  -3.8451  -3.7991  -3.5401  -3.4784  -3.3985  -3.3911  -3.3212
    -3.0000  -2.8991  -2.7805  -2.7304  -2.5323  -2.4053  -2.3709  -2.0829
    -1.9303  -1.8858  -1.8438  -1.7588  -1.5973  -1.5559  -1.2700  -1.1239
    -0.9251  -0.8300  -0.8256  -0.7360  -0.5707  -0.4501  -0.3631  -0.3630
    -0.3558  -0.2885  -0.2346  -0.2248  -0.1549   0.0107   0.1995   0.5520
     0.6133   0.6642   0.8373   0.9964   1.0140   1.0809   1.1628   1.3594
     1.4051   1.5571   1.7578   1.9015   1.9798   2.1029   2.1233   2.4049
     2.5566   2.8743   2.9217   3.0885   3.1872   3.4582   3.6187

          k =-0.0912 0.0878 0.0000 ( 16191 PWs)   bands (ev):

   -47.7306 -47.6139 -47.5902 -47.5472 -47.4999 -47.4853 -47.4766 -47.4387
   -47.4227 -47.3849 -47.3337 -47.3167 -47.2765 -47.2726 -47.2520 -47.2050
   -47.1651 -47.1249 -47.0585 -47.0227 -47.0104 -46.9874 -46.9764 -46.9299
   -46.8836 -46.8334 -46.8136 -46.7866 -46.7647 -46.7418 -46.7086 -46.7043
   -46.6972 -46.6908 -46.6829 -46.6661 -17.1678  -5.6228  -4.9013  -4.3798
    -4.1381  -3.9159  -3.7541  -3.6563  -3.5146  -3.4019  -3.3148  -3.2170
    -3.0927  -2.9561  -2.8344  -2.7523  -2.4980  -2.4211  -2.2604  -2.0937
    -1.9930  -1.9471  -1.7934  -1.7235  -1.5798  -1.5444  -1.3901  -1.2612
    -1.0555  -0.9820  -0.8534  -0.7750  -0.6738  -0.6556  -0.5752  -0.5047
    -0.3493  -0.2334  -0.0284  -0.0063   0.0811   0.1318   0.2505   0.4226
     0.6816   0.7561   0.8754   0.9550   1.1036   1.1795   1.3001   1.4339
     1.6047   1.8046   1.8666   2.1153   2.1950   2.3358   2.4698   2.5609
     2.6161   2.7241   2.8968   2.9661   3.1025   3.2113   3.3309

          k =-0.0912 0.1229 0.0000 ( 16191 PWs)   bands (ev):

   -47.7307 -47.6138 -47.5901 -47.5472 -47.5000 -47.4856 -47.4766 -47.4387
   -47.4226 -47.3849 -47.3337 -47.3167 -47.2764 -47.2726 -47.2520 -47.2049
   -47.1652 -47.1250 -47.0585 -47.0227 -47.0104 -46.9874 -46.9765 -46.9299
   -46.8836 -46.8335 -46.8136 -46.7866 -46.7647 -46.7418 -46.7087 -46.7043
   -46.6972 -46.6909 -46.6829 -46.6661 -17.1678  -5.6228  -4.9013  -4.3798
    -4.1381  -3.9159  -3.7541  -3.6562  -3.5146  -3.4020  -3.3148  -3.2170
    -3.0926  -2.9561  -2.8344  -2.7523  -2.4980  -2.4211  -2.2605  -2.0937
    -1.9930  -1.9470  -1.7934  -1.7235  -1.5798  -1.5444  -1.3901  -1.2612
    -1.0555  -0.9820  -0.8534  -0.7751  -0.6738  -0.6556  -0.5752  -0.5046
    -0.3493  -0.2334  -0.0283  -0.0063   0.0811   0.1318   0.2505   0.4226
     0.6816   0.7561   0.8754   0.9550   1.1036   1.1795   1.3001   1.4339
     1.6048   1.8046   1.8666   2.1153   2.1951   2.3358   2.4698   2.5608
     2.6161   2.7240   2.8969   2.9662   3.1024   3.2112   3.3308

          k =-0.0912-0.0527 0.0000 ( 16164 PWs)   bands (ev):

   -47.7323 -47.6258 -47.5847 -47.5417 -47.5006 -47.4835 -47.4575 -47.4346
   -47.4229 -47.3953 -47.3399 -47.3200 -47.2820 -47.2718 -47.2575 -47.2071
   -47.1646 -47.1103 -47.0628 -47.0240 -47.0132 -47.0004 -46.9767 -46.8696
   -46.8636 -46.8461 -46.8351 -46.8293 -46.7762 -46.7422 -46.7088 -46.6983
   -46.6882 -46.6862 -46.6739 -46.6685 -17.1678  -5.4903  -5.2237  -4.4402
    -4.0044  -3.8452  -3.7990  -3.5400  -3.4783  -3.3986  -3.3910  -3.3213
    -3.0000  -2.8991  -2.7805  -2.7305  -2.5323  -2.4054  -2.3708  -2.0830
    -1.9303  -1.8858  -1.8438  -1.7588  -1.5973  -1.5560  -1.2701  -1.1239
    -0.9250  -0.8300  -0.8256  -0.7360  -0.5707  -0.4501  -0.3631  -0.3629
    -0.3558  -0.2884  -0.2346  -0.2248  -0.1549   0.0106   0.1995   0.5521
     0.6132   0.6643   0.8373   0.9963   1.0141   1.0809   1.1628   1.3594
     1.4050   1.5572   1.7578   1.9015   1.9799   2.1029   2.1234   2.4048
     2.5566   2.8742   2.9217   3.0886   3.1873   3.4581   3.6186

     the Fermi energy is     2.4379 ev

!    total energy              =   -2232.28293050 Ry
     Harris-Foulkes estimate   =   -2232.28292985 Ry
     estimated scf accuracy    <       0.00000078 Ry

     The total energy is the sum of the following terms:

     one-electron contribution =  -19119.66819463 Ry
     hartree contribution      =    9591.84111724 Ry
     xc contribution           =    -631.24182268 Ry
     ewald contribution        =    7926.88052607 Ry
     electric field correction =       0.00001337 Ry
     smearing contrib. (-TS)   =      -0.09456987 Ry

     convergence has been achieved in  20 iterations
 
 BEEF-vdW xc energy contributions
           1 :   -558.962498754128     
           2 :    519.824873987698     
           3 :   -449.895304495794     
           4 :    362.951271945854     
           5 :   -274.080675745102     
           6 :    195.829639946770     
           7 :   -135.583524358387     
           8 :    94.7495209573503     
           9 :   -69.7850626178267     
          10 :    54.5052364267974     
          11 :   -42.7295256449172     
          12 :    30.3200342745033     
          13 :   -16.0440561765868     
          14 :    1.20478531826984     
          15 :    11.5928953100715     
          16 :   -19.9441512351930     
          17 :    22.7949009459668     
          18 :   -20.8527930357782     
          19 :    16.2108491321715     
          20 :   -11.4475592913988     
          21 :    8.62309771103401     
          22 :   -8.57928622651980     
          23 :    10.7900446564288     
          24 :   -13.7709478949264     
          25 :    15.8262403416018     
          26 :   -15.8021434578620     
          27 :    13.5379271063806     
          28 :   -9.85541046298977     
          29 :    6.13233182783483     
          30 :   -3.67217562732640     
          31 :   -48.0208433216828     
          32 :   -35.9738407876168     

     Forces acting on atoms (Ry/au):


     negative rho (up, down):  3.883E+00 0.000E+00
     atom    1 type  1   force =     0.00068381    0.00039099    0.01824458
     atom    2 type  1   force =    -0.00068430    0.00040231    0.01826258
     atom    3 type  1   force =     0.00000837   -0.00079168    0.01826092
     atom    4 type  1   force =    -0.00001363   -0.00000740    0.01851968
     atom    5 type  1   force =    -0.00001182    0.00664396   -0.01359637
     atom    6 type  1   force =     0.00000095   -0.00000403   -0.03267381
     atom    7 type  1   force =    -0.00576766   -0.00332522   -0.01367155
     atom    8 type  1   force =     0.00575416   -0.00333345   -0.01362253
     atom    9 type  1   force =     0.00001527    0.00002341    0.00028986
     atom   10 type  1   force =    -0.00002189    0.00051379   -0.00030650
     atom   11 type  1   force =     0.00040187   -0.00027711   -0.00031607
     atom   12 type  1   force =    -0.00039188   -0.00024559   -0.00031401
     atom   13 type  2   force =     0.00002676    0.00001001    0.00092322

     Total force =     0.055716     Total SCF correction =     0.004979


     entering subroutine stress ...


     negative rho (up, down):  3.883E+00 0.000E+00
          total   stress  (Ry/bohr**3)                   (kbar)     P=  -25.58
  -0.00020147   0.00000001   0.00000001        -29.64      0.00      0.00
   0.00000001  -0.00020148  -0.00000001          0.00    -29.64     -0.00
   0.00000001  -0.00000001  -0.00011875          0.00     -0.00    -17.47

 !ASE

     Writing output data file calc.save
 
     init_run     :     12.39s CPU     21.36s WALL (       1 calls)
     electrons    :    606.45s CPU    987.01s WALL (       1 calls)
     forces       :      3.82s CPU      4.81s WALL (       1 calls)
     stress       :     10.66s CPU     12.59s WALL (       1 calls)

     Called by init_run:
     wfcinit      :      9.65s CPU     16.83s WALL (       1 calls)
     potinit      :      1.28s CPU      2.26s WALL (       1 calls)

     Called by electrons:
     c_bands      :    467.29s CPU    747.04s WALL (      20 calls)
     sum_band     :     67.48s CPU    116.41s WALL (      20 calls)
     v_of_rho     :     23.23s CPU     42.26s WALL (      21 calls)
     newd         :     10.63s CPU     11.20s WALL (      21 calls)
     mix_rho      :      0.90s CPU      1.65s WALL (      20 calls)
     vdW_energy   :      2.52s CPU      2.72s WALL (      57 calls)
     vdW_ffts     :     39.90s CPU     76.99s WALL (     116 calls)
     vdW_v        :      7.08s CPU     12.46s WALL (      57 calls)

     Called by c_bands:
     init_us_2    :      0.91s CPU      0.94s WALL (     860 calls)
     cegterg      :    457.97s CPU    736.29s WALL (     400 calls)

     Called by *egterg:
     h_psi        :    301.78s CPU    559.57s WALL (    1929 calls)
     s_psi        :     13.95s CPU     14.03s WALL (    1929 calls)
     g_psi        :      0.77s CPU      0.76s WALL (    1509 calls)
     cdiaghg      :     86.97s CPU     91.79s WALL (    1909 calls)

     Called by h_psi:
     add_vuspsi   :     14.06s CPU     14.09s WALL (    1929 calls)

     General routines
     calbec       :     27.81s CPU     36.60s WALL (    2369 calls)
     fft          :     59.87s CPU    115.45s WALL (    3489 calls)
     ffts         :      0.17s CPU      0.35s WALL (      41 calls)
     fftw         :    304.46s CPU    600.11s WALL (  268292 calls)
     interpolate  :      0.83s CPU      1.67s WALL (      41 calls)
     davcio       :      0.00s CPU      0.02s WALL (      20 calls)
 
     Parallel routines
     fft_scatter  :    332.53s CPU    682.55s WALL (  271822 calls)
 
     PWSCF        : 10m34.10s CPU    17m 7.03s WALL

 
   This run was terminated on:  15: 9:22  14Jan2018            

=------------------------------------------------------------------------------=
   JOB DONE.
=------------------------------------------------------------------------------=
Job  /afs/slac/g/suncat/bin/suncat-tsmpirun -x LD_LIBRARY_PATH -wdir /scratch/qe842452_jhir7 pw.x -in pw.inp

TID   HOST_NAME   COMMAND_LINE            STATUS            TERMINATION_TIME
===== ========== ================  =======================  ===================
00000 suncat0253 pw.x -in pw.inp   Done                     01/14/2018 15:09:22
00001 suncat0253 pw.x -in pw.inp   Done                     01/14/2018 15:09:22
00002 suncat0253 pw.x -in pw.inp   Done                     01/14/2018 15:09:22
00003 suncat0253 pw.x -in pw.inp   Done                     01/14/2018 15:09:22
00004 suncat0253 pw.x -in pw.inp   Done                     01/14/2018 15:09:22
00005 suncat0253 pw.x -in pw.inp   Done                     01/14/2018 15:09:22
00006 suncat0253 pw.x -in pw.inp   Done                     01/14/2018 15:09:22
00007 suncat0253 pw.x -in pw.inp   Done                     01/14/2018 15:09:22
00008 suncat0249 pw.x -in pw.inp   Done                     01/14/2018 15:09:22
00009 suncat0249 pw.x -in pw.inp   Done                     01/14/2018 15:09:22
00010 suncat0249 pw.x -in pw.inp   Done                     01/14/2018 15:09:22
00011 suncat0249 pw.x -in pw.inp   Done                     01/14/2018 15:09:22
00012 suncat0249 pw.x -in pw.inp   Done                     01/14/2018 15:09:22
00013 suncat0249 pw.x -in pw.inp   Done                     01/14/2018 15:09:22
00014 suncat0249 pw.x -in pw.inp   Done                     01/14/2018 15:09:22
00015 suncat0249 pw.x -in pw.inp   Done                     01/14/2018 15:09:22
00016 suncat0248 pw.x -in pw.inp   Done                     01/14/2018 15:09:22
00017 suncat0248 pw.x -in pw.inp   Done                     01/14/2018 15:09:22
00018 suncat0248 pw.x -in pw.inp   Done                     01/14/2018 15:09:22
00019 suncat0248 pw.x -in pw.inp   Done                     01/14/2018 15:09:22
00020 suncat0248 pw.x -in pw.inp   Done                     01/14/2018 15:09:22
00021 suncat0248 pw.x -in pw.inp   Done                     01/14/2018 15:09:22
00022 suncat0248 pw.x -in pw.inp   Done                     01/14/2018 15:09:22
00023 suncat0248 pw.x -in pw.inp   Done                     01/14/2018 15:09:22
00024 suncat0247 pw.x -in pw.inp   Done                     01/14/2018 15:09:22
00025 suncat0247 pw.x -in pw.inp   Done                     01/14/2018 15:09:22
00026 suncat0247 pw.x -in pw.inp   Done                     01/14/2018 15:09:22
00027 suncat0247 pw.x -in pw.inp   Done                     01/14/2018 15:09:22
00028 suncat0247 pw.x -in pw.inp   Done                     01/14/2018 15:09:22
00029 suncat0247 pw.x -in pw.inp   Done                     01/14/2018 15:09:22
00030 suncat0247 pw.x -in pw.inp   Done                     01/14/2018 15:09:22
00031 suncat0247 pw.x -in pw.inp   Done                     01/14/2018 15:09:22
