  python dir          : /nfs/slac/g/suncatfs/sw/espv20/lib/python2.7/site-packages/espresso
  espresso dir        : /nfs/slac/g/suncatfs/sw/espv18/espresso-dynpy-beef/bin
  pseudo dir          : /afs/slac.stanford.edu/u/if/mamunm/psp/gbrv1.5pbe
  ase-espresso py git : ffa2778-git



     Program PWSCF v.5.1rc2 (svn rev. 11289) starts on 18Jan2018 at  3: 2: 5 

     This program is part of the open-source Quantum ESPRESSO suite
     for quantum simulation of materials; please cite
         "P. Giannozzi et al., J. Phys.:Condens. Matter 21 395502 (2009);
          URL http://www.quantum-espresso.org", 
     in publications or presentations arising from this work. More details at
     http://www.quantum-espresso.org/quote

     Parallel version (MPI), running on    32 processors
     R & G space division:  proc/nbgrp/npool/nimage =      32
     Reading input from pw.inp
     Message from routine read_cards :
     DEPRECATED: no units specified in CELL_PARAMETERS card

     Current dimensions of program PWSCF are:
     Max number of different atomic species (ntypx) = 10
     Max number of k-points (npk) =  40000
     Max angular momentum in pseudopotentials (lmaxx) =  3
     Presently stress not available with electric field


     **************************************************************************
     Initializing libbeef V0.1.1 with the BEEF-vdW functional.
     Citation: Wellendorff et al., PRB 85, 235149 (2012).
     **************************************************************************


     IMPORTANT: XC functional enforced from input :
     Exchange-correlation      = BEEF-VDW ( 1  4 27 13 2)
     Any further DFT definition will be discarded
     Please, verify this is what you really want


     Subspace diagonalization in iterative solution of the eigenvalue problem:
     a serial algorithm will be used

 
     Parallelization info
     --------------------
     sticks:   dense  smooth     PW     G-vecs:    dense   smooth      PW
     Min          83      33      9                15610     3925     617
     Max          85      34     10                15618     3977     642
     Sum        2677    1069    313               499637   126395   20221
 


     bravais-lattice index     =            0
     lattice parameter (alat)  =       1.8897  a.u.
     unit-cell volume          =    4198.3539 (a.u.)^3
     number of atoms/cell      =           13
     number of atomic types    =            2
     number of electrons       =       197.00
     number of Kohn-Sham states=          108
     kinetic-energy cutoff     =      36.7493  Ry
     charge density cutoff     =     367.4932  Ry
     convergence threshold     =      1.0E-05
     mixing beta               =       0.3000
     number of iterations used =           10  plain     mixing
     Exchange-correlation      = BEEF-VDW ( 1  4 27 13 2)
     nstep                     =           50


     celldm(1)=   1.889726  celldm(2)=   0.000000  celldm(3)=   0.000000
     celldm(4)=   0.000000  celldm(5)=   0.000000  celldm(6)=   0.000000

     crystal axes: (cart. coord. in units of alat)
               a(1) = (   5.422927   0.000000   0.000000 )  
               a(2) = (   2.711463   4.696392   0.000000 )  
               a(3) = (   0.000000   0.000000  24.427801 )  

     reciprocal axes: (cart. coord. in units 2 pi/alat)
               b(1) = (  0.184402 -0.106465  0.000000 )  
               b(2) = (  0.000000  0.212929  0.000000 )  
               b(3) = (  0.000000  0.000000  0.040937 )  


     PseudoPot. # 1 for Ru read from file:
     /afs/slac.stanford.edu/u/if/mamunm/psp/gbrv1.5pbe/Ru.UPF
     MD5 check sum: 7158a806dd851261a58e6920c40ebe78
     Pseudo is Ultrasoft + core correction, Zval = 16.0
     Generated by new atomic code, or converted to UPF format
     Using radial grid of  967 points,  6 beta functions with: 
                l(1) =   0
                l(2) =   0
                l(3) =   1
                l(4) =   1
                l(5) =   2
                l(6) =   2
     Q(r) pseudized with  8 coefficients,  rinner =    1.300   1.300   1.300
                                                       1.300   1.300

     PseudoPot. # 2 for N  read from file:
     /afs/slac.stanford.edu/u/if/mamunm/psp/gbrv1.5pbe/N.UPF
     MD5 check sum: 95339753478d7afb44899504a8723017
     Pseudo is Ultrasoft + core correction, Zval =  5.0
     Generated by new atomic code, or converted to UPF format
     Using radial grid of  729 points,  4 beta functions with: 
                l(1) =   0
                l(2) =   0
                l(3) =   1
                l(4) =   1
     Q(r) pseudized with  8 coefficients,  rinner =    0.900   0.900   0.900


     vdW kernel table read from file vdW_kernel_table
     MD5 check sum: 095c7af220d748ca6e76c0b4c6cfb241

     atomic species   valence    mass     pseudopotential
        Ru1           16.00   101.07000     Ru( 1.00)
        N1             5.00    14.00700     N ( 1.00)

     No symmetry found



   Cartesian axes

     site n.     atom                  positions (alat units)
         1           Ru1 tau(   1) = (   1.3557316   0.7827320  10.0000000  )
         2           Ru1 tau(   2) = (   4.0671949   0.7827320  10.0000000  )
         3           Ru1 tau(   3) = (   2.7114633   3.1309281  10.0000000  )
         4           Ru1 tau(   4) = (   5.4229265   3.1309281  10.0000000  )
         5           Ru1 tau(   5) = (   5.4229265   1.5654640  12.2139005  )
         6           Ru1 tau(   6) = (   2.7114633   1.5654640  12.2139005  )
         7           Ru1 tau(   7) = (   6.7786581   3.9136601  12.2139005  )
         8           Ru1 tau(   8) = (   4.0671949   3.9136601  12.2139005  )
         9           Ru1 tau(   9) = (   0.0000000   0.0000000  14.4278010  )
        10           Ru1 tau(  10) = (   2.7114633   0.0000000  14.4278010  )
        11           Ru1 tau(  11) = (   1.3557316   2.3481961  14.4278010  )
        12           Ru1 tau(  12) = (   4.0671949   2.3481961  14.4278010  )
        13           N1  tau(  13) = (   2.7114633   1.5654640  16.5978010  )

     number of k points=    20  Fermi-Dirac smearing, width (Ry)=  0.0110
                       cart. coord. in units 2pi/alat
        k(    1) = (   0.0000000   0.0000000   0.0000000), wk =   0.0555556
        k(    2) = (   0.0000000   0.0354882   0.0000000), wk =   0.1111111
        k(    3) = (   0.0000000   0.0709765   0.0000000), wk =   0.1111111
        k(    4) = (   0.0000000  -0.1064647   0.0000000), wk =   0.0555556
        k(    5) = (   0.0307337  -0.0177441   0.0000000), wk =   0.1111111
        k(    6) = (   0.0307337   0.0177441   0.0000000), wk =   0.1111111
        k(    7) = (   0.0307337   0.0532324   0.0000000), wk =   0.1111111
        k(    8) = (   0.0307337  -0.1242088   0.0000000), wk =   0.1111111
        k(    9) = (   0.0307337  -0.0887206   0.0000000), wk =   0.1111111
        k(   10) = (   0.0307337  -0.0532324   0.0000000), wk =   0.1111111
        k(   11) = (   0.0614674  -0.0354882   0.0000000), wk =   0.1111111
        k(   12) = (   0.0614674   0.0000000   0.0000000), wk =   0.1111111
        k(   13) = (   0.0614674   0.0354882   0.0000000), wk =   0.1111111
        k(   14) = (   0.0614674  -0.1419529   0.0000000), wk =   0.1111111
        k(   15) = (   0.0614674  -0.1064647   0.0000000), wk =   0.1111111
        k(   16) = (   0.0614674  -0.0709765   0.0000000), wk =   0.1111111
        k(   17) = (  -0.0922011   0.0532324   0.0000000), wk =   0.0555556
        k(   18) = (  -0.0922011   0.0887206   0.0000000), wk =   0.1111111
        k(   19) = (  -0.0922011   0.1242088   0.0000000), wk =   0.1111111
        k(   20) = (  -0.0922011  -0.0532324   0.0000000), wk =   0.0555556

     Dense  grid:   499637 G-vectors     FFT dimensions: (  64,  64, 288)

     Smooth grid:   126395 G-vectors     FFT dimensions: (  40,  40, 180)

     Largest allocated arrays     est. size (Mb)     dimensions
        Kohn-Sham Wavefunctions         0.85 Mb     (     516,  108)
        NL pseudopotentials             1.76 Mb     (     516,  224)
        Each V/rho on FFT grid          0.56 Mb     (   36864)
        Each G-vector array             0.12 Mb     (   15614)
        G-vector shells                 0.05 Mb     (    6919)
     Largest temporary arrays     est. size (Mb)     dimensions
        Auxiliary wavefunctions         3.40 Mb     (     516,  432)
        Each subspace H/S matrix        2.85 Mb     (     432,  432)
        Each <psi_i|beta_j> matrix      0.37 Mb     (     224,  108)
        Arrays for rho mixing           5.62 Mb     (   36864,   10)

     Initial potential from superposition of free atoms
     Check: negative starting charge=   -0.873645

     starting charge  184.99980, renormalised to  197.00000

     negative rho (up, down):  9.303E-01 0.000E+00


     ************************************************************************
     *
     * You are using vdW-DF for exchange-correlation in this calculation.
     * Please cite the following three references that made this development
     * possible:
     *
     *   M. Dion, H. Rydberg, E. Schroder, D. C. Langreth, and
     *   B. I. Lundqvist, Phys. Rev. Lett. 92, 246401 (2004).
     *
     *   T. Thonhauser, V. R. Cooper, S. Li, A. Puzder, P. Hyldgaard, and
     *   D. C. Langreth, Phys. Rev. B 76, 125112 (2007).
     *
     *   G. Roman-Perez and J. M. Soler, Phys. Rev. Lett. 103, 096102 (2009).
     *
     *
     * If you are using vdW-DF2, please also cite:
     *
     *   K. Lee, E. D. Murray, L. Kong, B. I. Lundqvist, and
     *   D. C. Langreth, Phys. Rev. B 82, 081101(R) (2010).
     *
     *
     * If you are calculating the stress with vdW-DF, please also cite:
     *
     *   R. Sabatini, E. Kucukbenli, B. Kolb, T. Thonhauser, and
     *   S. de Gironcoli, J. Phys.: Condens. Matter 24, 424209 (2012).
     *
     ************************************************************************

     Carrying out vdW-DF run using the following parameters:

     Nqs =      20    Nr_points =    1024   r_max =   100.000
     q_mesh =
               0.00001000     0.04494208     0.09755937     0.15916263
               0.23128650     0.31572767     0.41458969     0.53033537
               0.66584808     0.82450364     1.01025438     1.22772762
               1.48234092     1.78043706     2.12944203     2.53805004
               3.01644009     3.57652955     4.23227104     5.00000000

     Gradients computed in reciprocal space

     ************************************************************************


 
     Adding external electric field

     Computed dipole along edir(3) : 
        Dipole               -2.6868 Ry au,         -6.8291 Debye
        Dipole field         -0.0080 Ry au
 
        Potential amp.        0.7239 Ry
        Total length         45.0078 bohr
 
     Starting wfc are  160 randomized atomic wfcs

     total cpu time spent up to now is       18.7 secs

     per-process dynamical memory:    46.9 Mb

     Self-consistent Calculation

     iteration #  1     ecut=    36.75 Ry     beta=0.30
     Davidson diagonalization with overlap
     ethr =  1.00E-02,  avg # of iterations =  5.4

     negative rho (up, down):  9.223E-01 0.000E+00
 
     Adding external electric field

     Computed dipole along edir(3) : 
        Dipole               52.4701 Ry au,        133.3658 Debye
        Dipole field          0.1571 Ry au
 
        Potential amp.      -14.1371 Ry
        Total length         45.0078 bohr
 

     total cpu time spent up to now is       62.1 secs

     total energy              =   -2200.92931704 Ry
     Harris-Foulkes estimate   =   -2361.25471537 Ry
     estimated scf accuracy    <     335.72844609 Ry

     iteration #  2     ecut=    36.75 Ry     beta=0.30
     Davidson diagonalization with overlap
     ethr =  1.00E-02,  avg # of iterations = 16.3

     negative rho (up, down):  9.084E-01 0.000E+00
 
     Adding external electric field

     Computed dipole along edir(3) : 
        Dipole                3.8249 Ry au,          9.7219 Debye
        Dipole field          0.0114 Ry au
 
        Potential amp.       -1.0305 Ry
        Total length         45.0078 bohr
 

     total cpu time spent up to now is      204.1 secs

     total energy              =   -2013.71274189 Ry
     Harris-Foulkes estimate   =   -3160.39282217 Ry
     estimated scf accuracy    <   23612.59674009 Ry

     iteration #  3     ecut=    36.75 Ry     beta=0.30
     Davidson diagonalization with overlap
     ethr =  1.00E-02,  avg # of iterations = 13.3

     negative rho (up, down):  9.047E-01 0.000E+00
 
     Adding external electric field

     Computed dipole along edir(3) : 
        Dipole                5.4756 Ry au,         13.9176 Debye
        Dipole field          0.0164 Ry au
 
        Potential amp.       -1.4753 Ry
        Total length         45.0078 bohr
 

     total cpu time spent up to now is      306.6 secs

     total energy              =   -2280.98772244 Ry
     Harris-Foulkes estimate   =   -2504.30146340 Ry
     estimated scf accuracy    <    3313.71345209 Ry

     iteration #  4     ecut=    36.75 Ry     beta=0.30
     Davidson diagonalization with overlap
     ethr =  1.00E-02,  avg # of iterations =  9.3

     negative rho (up, down):  9.229E-01 0.000E+00
 
     Adding external electric field

     Computed dipole along edir(3) : 
        Dipole                3.0574 Ry au,          7.7712 Debye
        Dipole field          0.0092 Ry au
 
        Potential amp.       -0.8238 Ry
        Total length         45.0078 bohr
 

     total cpu time spent up to now is      372.1 secs

     total energy              =   -2346.09652438 Ry
     Harris-Foulkes estimate   =   -2372.97935587 Ry
     estimated scf accuracy    <     486.04444213 Ry

     iteration #  5     ecut=    36.75 Ry     beta=0.30
     Davidson diagonalization with overlap
     ethr =  1.00E-02,  avg # of iterations =  5.6

     negative rho (up, down):  9.277E-01 0.000E+00
 
     Adding external electric field

     Computed dipole along edir(3) : 
        Dipole                3.7586 Ry au,          9.5534 Debye
        Dipole field          0.0113 Ry au
 
        Potential amp.       -1.0127 Ry
        Total length         45.0078 bohr
 

     total cpu time spent up to now is      428.3 secs

     total energy              =   -2361.88734038 Ry
     Harris-Foulkes estimate   =   -2369.50564141 Ry
     estimated scf accuracy    <     112.24793629 Ry

     iteration #  6     ecut=    36.75 Ry     beta=0.30
     Davidson diagonalization with overlap
     ethr =  1.00E-02,  avg # of iterations =  4.0

     negative rho (up, down):  9.150E-01 0.000E+00
 
     Adding external electric field

     Computed dipole along edir(3) : 
        Dipole                2.7621 Ry au,          7.0205 Debye
        Dipole field          0.0083 Ry au
 
        Potential amp.       -0.7442 Ry
        Total length         45.0078 bohr
 

     total cpu time spent up to now is      465.3 secs

     total energy              =   -2360.54587831 Ry
     Harris-Foulkes estimate   =   -2365.04768510 Ry
     estimated scf accuracy    <     156.84978424 Ry

     iteration #  7     ecut=    36.75 Ry     beta=0.30
     Davidson diagonalization with overlap
     ethr =  1.00E-02,  avg # of iterations =  2.4

     negative rho (up, down):  9.141E-01 0.000E+00
 
     Adding external electric field

     Computed dipole along edir(3) : 
        Dipole                2.5362 Ry au,          6.4463 Debye
        Dipole field          0.0076 Ry au
 
        Potential amp.       -0.6833 Ry
        Total length         45.0078 bohr
 

     total cpu time spent up to now is      496.0 secs

     total energy              =   -2361.67289899 Ry
     Harris-Foulkes estimate   =   -2362.13471426 Ry
     estimated scf accuracy    <      10.83695745 Ry

     iteration #  8     ecut=    36.75 Ry     beta=0.30
     Davidson diagonalization with overlap
     ethr =  5.50E-03,  avg # of iterations =  1.9

     negative rho (up, down):  9.140E-01 0.000E+00
 
     Adding external electric field

     Computed dipole along edir(3) : 
        Dipole                0.0941 Ry au,          0.2391 Debye
        Dipole field          0.0003 Ry au
 
        Potential amp.       -0.0253 Ry
        Total length         45.0078 bohr
 

     total cpu time spent up to now is      525.9 secs

     total energy              =   -2360.69850692 Ry
     Harris-Foulkes estimate   =   -2361.86531320 Ry
     estimated scf accuracy    <       2.67988582 Ry

     iteration #  9     ecut=    36.75 Ry     beta=0.30
     Davidson diagonalization with overlap
     ethr =  1.36E-03,  avg # of iterations =  5.7

     negative rho (up, down):  9.140E-01 0.000E+00
 
     Adding external electric field

     Computed dipole along edir(3) : 
        Dipole                0.1192 Ry au,          0.3031 Debye
        Dipole field          0.0004 Ry au
 
        Potential amp.       -0.0321 Ry
        Total length         45.0078 bohr
 

     total cpu time spent up to now is      572.8 secs

     total energy              =   -2361.15777275 Ry
     Harris-Foulkes estimate   =   -2361.59577959 Ry
     estimated scf accuracy    <      14.56475408 Ry

     iteration # 10     ecut=    36.75 Ry     beta=0.30
     Davidson diagonalization with overlap
     ethr =  1.36E-03,  avg # of iterations =  3.5

     negative rho (up, down):  9.140E-01 0.000E+00
 
     Adding external electric field

     Computed dipole along edir(3) : 
        Dipole                0.5877 Ry au,          1.4938 Debye
        Dipole field          0.0018 Ry au
 
        Potential amp.       -0.1583 Ry
        Total length         45.0078 bohr
 

     total cpu time spent up to now is      606.6 secs

     total energy              =   -2361.26427688 Ry
     Harris-Foulkes estimate   =   -2361.42854285 Ry
     estimated scf accuracy    <       5.51600585 Ry

     iteration # 11     ecut=    36.75 Ry     beta=0.30
     Davidson diagonalization with overlap
     ethr =  1.36E-03,  avg # of iterations =  2.5

     negative rho (up, down):  9.124E-01 0.000E+00
 
     Adding external electric field

     Computed dipole along edir(3) : 
        Dipole               -0.0306 Ry au,         -0.0777 Debye
        Dipole field         -0.0001 Ry au
 
        Potential amp.        0.0082 Ry
        Total length         45.0078 bohr
 

     total cpu time spent up to now is      637.7 secs

     total energy              =   -2361.29857077 Ry
     Harris-Foulkes estimate   =   -2361.43995852 Ry
     estimated scf accuracy    <       4.20916554 Ry

     iteration # 12     ecut=    36.75 Ry     beta=0.30
     Davidson diagonalization with overlap
     ethr =  1.36E-03,  avg # of iterations =  1.2

     negative rho (up, down):  9.095E-01 0.000E+00
 
     Adding external electric field

     Computed dipole along edir(3) : 
        Dipole               -1.1337 Ry au,         -2.8815 Debye
        Dipole field         -0.0034 Ry au
 
        Potential amp.        0.3054 Ry
        Total length         45.0078 bohr
 

     total cpu time spent up to now is      666.7 secs

     total energy              =   -2361.03618401 Ry
     Harris-Foulkes estimate   =   -2361.36234148 Ry
     estimated scf accuracy    <       6.28951528 Ry

     iteration # 13     ecut=    36.75 Ry     beta=0.30
     Davidson diagonalization with overlap
     ethr =  1.36E-03,  avg # of iterations =  5.2

     negative rho (up, down):  9.097E-01 0.000E+00
 
     Adding external electric field

     Computed dipole along edir(3) : 
        Dipole               -1.0023 Ry au,         -2.5477 Debye
        Dipole field         -0.0030 Ry au
 
        Potential amp.        0.2701 Ry
        Total length         45.0078 bohr
 

     total cpu time spent up to now is      702.3 secs

     total energy              =   -2361.28013443 Ry
     Harris-Foulkes estimate   =   -2361.37587568 Ry
     estimated scf accuracy    <       5.68818657 Ry

     iteration # 14     ecut=    36.75 Ry     beta=0.30
     Davidson diagonalization with overlap
     ethr =  1.36E-03,  avg # of iterations =  1.0

     negative rho (up, down):  9.103E-01 0.000E+00
 
     Adding external electric field

     Computed dipole along edir(3) : 
        Dipole               -0.7700 Ry au,         -1.9570 Debye
        Dipole field         -0.0023 Ry au
 
        Potential amp.        0.2074 Ry
        Total length         45.0078 bohr
 

     total cpu time spent up to now is      731.3 secs

     total energy              =   -2361.21837743 Ry
     Harris-Foulkes estimate   =   -2361.30821009 Ry
     estimated scf accuracy    <       2.07300334 Ry

     iteration # 15     ecut=    36.75 Ry     beta=0.30
     Davidson diagonalization with overlap
     ethr =  1.05E-03,  avg # of iterations =  1.0

     negative rho (up, down):  9.101E-01 0.000E+00
 
     Adding external electric field

     Computed dipole along edir(3) : 
        Dipole               -0.6455 Ry au,         -1.6407 Debye
        Dipole field         -0.0019 Ry au
 
        Potential amp.        0.1739 Ry
        Total length         45.0078 bohr
 

     total cpu time spent up to now is      760.0 secs

     total energy              =   -2361.24791401 Ry
     Harris-Foulkes estimate   =   -2361.25868506 Ry
     estimated scf accuracy    <       0.18212131 Ry

     iteration # 16     ecut=    36.75 Ry     beta=0.30
     Davidson diagonalization with overlap
     ethr =  9.24E-05,  avg # of iterations =  5.2

     negative rho (up, down):  9.099E-01 0.000E+00
 
     Adding external electric field

     Computed dipole along edir(3) : 
        Dipole               -0.5942 Ry au,         -1.5103 Debye
        Dipole field         -0.0018 Ry au
 
        Potential amp.        0.1601 Ry
        Total length         45.0078 bohr
 

     total cpu time spent up to now is      798.7 secs

     total energy              =   -2361.26275412 Ry
     Harris-Foulkes estimate   =   -2361.26495880 Ry
     estimated scf accuracy    <       0.02622185 Ry

     iteration # 17     ecut=    36.75 Ry     beta=0.30
     Davidson diagonalization with overlap
     ethr =  1.33E-05,  avg # of iterations =  2.9

     negative rho (up, down):  9.097E-01 0.000E+00
 
     Adding external electric field

     Computed dipole along edir(3) : 
        Dipole               -0.5236 Ry au,         -1.3308 Debye
        Dipole field         -0.0016 Ry au
 
        Potential amp.        0.1411 Ry
        Total length         45.0078 bohr
 

     total cpu time spent up to now is      831.1 secs

     total energy              =   -2361.26299051 Ry
     Harris-Foulkes estimate   =   -2361.26457142 Ry
     estimated scf accuracy    <       0.02706369 Ry

     iteration # 18     ecut=    36.75 Ry     beta=0.30
     Davidson diagonalization with overlap
     ethr =  1.33E-05,  avg # of iterations =  1.0

     negative rho (up, down):  9.096E-01 0.000E+00
 
     Adding external electric field

     Computed dipole along edir(3) : 
        Dipole               -0.4865 Ry au,         -1.2366 Debye
        Dipole field         -0.0015 Ry au
 
        Potential amp.        0.1311 Ry
        Total length         45.0078 bohr
 

     total cpu time spent up to now is      860.0 secs

     total energy              =   -2361.26285318 Ry
     Harris-Foulkes estimate   =   -2361.26394055 Ry
     estimated scf accuracy    <       0.01447612 Ry

     iteration # 19     ecut=    36.75 Ry     beta=0.30
     Davidson diagonalization with overlap
     ethr =  7.35E-06,  avg # of iterations =  3.5

     negative rho (up, down):  9.096E-01 0.000E+00
 
     Adding external electric field

     Computed dipole along edir(3) : 
        Dipole               -0.4927 Ry au,         -1.2524 Debye
        Dipole field         -0.0015 Ry au
 
        Potential amp.        0.1328 Ry
        Total length         45.0078 bohr
 

     total cpu time spent up to now is      892.7 secs

     total energy              =   -2361.26337872 Ry
     Harris-Foulkes estimate   =   -2361.26365783 Ry
     estimated scf accuracy    <       0.00368081 Ry

     iteration # 20     ecut=    36.75 Ry     beta=0.30
     Davidson diagonalization with overlap
     ethr =  1.87E-06,  avg # of iterations =  4.4

     negative rho (up, down):  9.096E-01 0.000E+00
 
     Adding external electric field

     Computed dipole along edir(3) : 
        Dipole               -0.4980 Ry au,         -1.2659 Debye
        Dipole field         -0.0015 Ry au
 
        Potential amp.        0.1342 Ry
        Total length         45.0078 bohr
 

     total cpu time spent up to now is      927.6 secs

     total energy              =   -2361.26346376 Ry
     Harris-Foulkes estimate   =   -2361.26361026 Ry
     estimated scf accuracy    <       0.00135459 Ry

     iteration # 21     ecut=    36.75 Ry     beta=0.30
     Davidson diagonalization with overlap
     ethr =  6.88E-07,  avg # of iterations =  4.1

     negative rho (up, down):  9.097E-01 0.000E+00
 
     Adding external electric field

     Computed dipole along edir(3) : 
        Dipole               -0.4758 Ry au,         -1.2094 Debye
        Dipole field         -0.0014 Ry au
 
        Potential amp.        0.1282 Ry
        Total length         45.0078 bohr
 

     total cpu time spent up to now is      963.2 secs

     total energy              =   -2361.26355501 Ry
     Harris-Foulkes estimate   =   -2361.26370559 Ry
     estimated scf accuracy    <       0.00098294 Ry

     iteration # 22     ecut=    36.75 Ry     beta=0.30
     Davidson diagonalization with overlap
     ethr =  4.99E-07,  avg # of iterations =  2.5

     negative rho (up, down):  9.098E-01 0.000E+00
 
     Adding external electric field

     Computed dipole along edir(3) : 
        Dipole               -0.4776 Ry au,         -1.2138 Debye
        Dipole field         -0.0014 Ry au
 
        Potential amp.        0.1287 Ry
        Total length         45.0078 bohr
 

     total cpu time spent up to now is      994.3 secs

     total energy              =   -2361.26361146 Ry
     Harris-Foulkes estimate   =   -2361.26362240 Ry
     estimated scf accuracy    <       0.00013519 Ry

     iteration # 23     ecut=    36.75 Ry     beta=0.30
     Davidson diagonalization with overlap
     ethr =  6.86E-08,  avg # of iterations =  5.2

     negative rho (up, down):  9.098E-01 0.000E+00
 
     Adding external electric field

     Computed dipole along edir(3) : 
        Dipole               -0.4780 Ry au,         -1.2151 Debye
        Dipole field         -0.0014 Ry au
 
        Potential amp.        0.1288 Ry
        Total length         45.0078 bohr
 

     total cpu time spent up to now is     1035.0 secs

     total energy              =   -2361.26362773 Ry
     Harris-Foulkes estimate   =   -2361.26363165 Ry
     estimated scf accuracy    <       0.00004792 Ry

     iteration # 24     ecut=    36.75 Ry     beta=0.30
     Davidson diagonalization with overlap
     ethr =  2.43E-08,  avg # of iterations =  2.2

     negative rho (up, down):  9.100E-01 0.000E+00
 
     Adding external electric field

     Computed dipole along edir(3) : 
        Dipole               -0.4752 Ry au,         -1.2078 Debye
        Dipole field         -0.0014 Ry au
 
        Potential amp.        0.1280 Ry
        Total length         45.0078 bohr
 

     total cpu time spent up to now is     1065.5 secs

     total energy              =   -2361.26362956 Ry
     Harris-Foulkes estimate   =   -2361.26363922 Ry
     estimated scf accuracy    <       0.00001744 Ry

     iteration # 25     ecut=    36.75 Ry     beta=0.30
     Davidson diagonalization with overlap
     ethr =  8.85E-09,  avg # of iterations =  4.8

     negative rho (up, down):  9.100E-01 0.000E+00
 
     Adding external electric field

     Computed dipole along edir(3) : 
        Dipole               -0.4753 Ry au,         -1.2080 Debye
        Dipole field         -0.0014 Ry au
 
        Potential amp.        0.1280 Ry
        Total length         45.0078 bohr
 

     total cpu time spent up to now is     1101.3 secs

     total energy              =   -2361.26362920 Ry
     Harris-Foulkes estimate   =   -2361.26363141 Ry
     estimated scf accuracy    <       0.00001595 Ry

     iteration # 26     ecut=    36.75 Ry     beta=0.30
     Davidson diagonalization with overlap
     ethr =  8.10E-09,  avg # of iterations =  4.5

     negative rho (up, down):  9.101E-01 0.000E+00
 
     Adding external electric field

     Computed dipole along edir(3) : 
        Dipole               -0.4733 Ry au,         -1.2030 Debye
        Dipole field         -0.0014 Ry au
 
        Potential amp.        0.1275 Ry
        Total length         45.0078 bohr
 

     total cpu time spent up to now is     1136.8 secs

     total energy              =   -2361.26362916 Ry
     Harris-Foulkes estimate   =   -2361.26363727 Ry
     estimated scf accuracy    <       0.00006209 Ry

     iteration # 27     ecut=    36.75 Ry     beta=0.30
     Davidson diagonalization with overlap
     ethr =  8.10E-09,  avg # of iterations =  1.6

     negative rho (up, down):  9.101E-01 0.000E+00

     negative rho (up, down):  9.101E-01 0.000E+00

     negative rho (up, down):  9.101E-01 0.000E+00

     negative rho (up, down):  9.101E-01 0.000E+00

     negative rho (up, down):  9.101E-01 0.000E+00

     negative rho (up, down):  9.101E-01 0.000E+00

     negative rho (up, down):  9.101E-01 0.000E+00

     negative rho (up, down):  9.101E-01 0.000E+00

     negative rho (up, down):  9.101E-01 0.000E+00

     negative rho (up, down):  9.101E-01 0.000E+00

     negative rho (up, down):  9.101E-01 0.000E+00

     negative rho (up, down):  9.101E-01 0.000E+00

     negative rho (up, down):  9.101E-01 0.000E+00

     negative rho (up, down):  9.101E-01 0.000E+00

     negative rho (up, down):  9.101E-01 0.000E+00

     negative rho (up, down):  9.101E-01 0.000E+00

     negative rho (up, down):  9.101E-01 0.000E+00

     negative rho (up, down):  9.101E-01 0.000E+00

     negative rho (up, down):  9.101E-01 0.000E+00

     negative rho (up, down):  9.101E-01 0.000E+00

     negative rho (up, down):  9.101E-01 0.000E+00

     negative rho (up, down):  9.101E-01 0.000E+00

     negative rho (up, down):  9.101E-01 0.000E+00

     negative rho (up, down):  9.101E-01 0.000E+00

     negative rho (up, down):  9.101E-01 0.000E+00

     negative rho (up, down):  9.101E-01 0.000E+00

     negative rho (up, down):  9.101E-01 0.000E+00

     negative rho (up, down):  9.101E-01 0.000E+00

     negative rho (up, down):  9.101E-01 0.000E+00

     negative rho (up, down):  9.101E-01 0.000E+00

     negative rho (up, down):  9.101E-01 0.000E+00

     negative rho (up, down):  9.101E-01 0.000E+00

     negative rho (up, down):  9.101E-01 0.000E+00

     negative rho (up, down):  9.101E-01 0.000E+00

     negative rho (up, down):  9.101E-01 0.000E+00
 
     Adding external electric field

     Computed dipole along edir(3) : 
        Dipole               -0.4748 Ry au,         -1.2069 Debye
        Dipole field         -0.0014 Ry au
 
        Potential amp.        0.1279 Ry
        Total length         45.0078 bohr
 

     total cpu time spent up to now is     1215.5 secs

     End of self-consistent calculation

          k = 0.0000 0.0000 0.0000 ( 15761 PWs)   bands (ev):

   -71.5447 -71.4527 -71.4152 -71.4149 -71.1699 -71.0871 -71.0868 -71.0574
   -70.9951 -70.9634 -70.9633 -70.9528 -41.8151 -41.8150 -41.7984 -41.6527
   -41.5908 -41.5455 -41.5454 -41.3954 -41.3531 -41.3531 -41.2586 -41.2585
   -41.2354 -41.2131 -41.1841 -41.1840 -41.0719 -41.0719 -41.0506 -40.9875
   -40.9872 -40.9229 -40.8781 -40.8780 -40.8765 -40.8607 -40.8580 -40.8579
   -40.8350 -40.7802 -40.7802 -40.7793 -40.6996 -40.6995 -40.6171 -40.6170
   -10.0272  -4.9764  -3.7681  -3.7662  -3.7661  -3.6615  -3.5124  -3.3957
    -3.3957  -3.3941  -3.1518  -3.1469  -3.1468  -2.8079  -2.7849  -2.7848
    -1.6780  -1.6295  -1.6294  -1.0704  -1.0330  -1.0330  -0.7920  -0.6451
    -0.6451  -0.4089  -0.2631  -0.2630  -0.2210  -0.2209  -0.1972   0.0013
     0.0013   0.3211   0.3212   0.5335   0.8396   1.2349   1.2349   1.4085
     1.4995   1.4995   1.5588   1.5589   1.6637   1.7538   1.7538   2.1485
     2.1485   2.3050   2.7590   2.7829   2.7830   2.8000   2.9564   2.9564
     3.0760   3.0760   3.3103   3.3104

          k = 0.0000 0.0355 0.0000 ( 15763 PWs)   bands (ev):

   -71.5387 -71.4544 -71.4197 -71.4150 -71.1641 -71.0915 -71.0868 -71.0510
   -70.9965 -70.9684 -70.9634 -70.9542 -41.7898 -41.7806 -41.7608 -41.6404
   -41.5752 -41.5322 -41.5310 -41.3718 -41.3322 -41.3190 -41.2872 -41.2722
   -41.2367 -41.1996 -41.1754 -41.1747 -41.1401 -41.0839 -41.0238 -40.9865
   -40.9823 -40.9187 -40.9038 -40.9000 -40.8687 -40.8638 -40.8581 -40.8565
   -40.8384 -40.8052 -40.8052 -40.7692 -40.7425 -40.7099 -40.6631 -40.6281
   -10.0239  -4.7354  -3.6546  -3.5667  -3.5646  -3.4472  -3.2868  -3.2705
    -3.2428  -3.2395  -3.0609  -3.0056  -3.0007  -2.6752  -2.5670  -2.5510
    -1.6403  -1.6089  -1.5498  -0.9864  -0.9393  -0.9302  -0.9103  -0.7916
    -0.6925  -0.4598  -0.4050  -0.3949  -0.1524  -0.1453  -0.1225  -0.0810
     0.1726   0.1872   0.2653   0.3843   0.6495   0.9366   1.0013   1.1459
     1.3590   1.3614   1.4556   1.4588   1.4877   1.5664   1.6908   1.8153
     2.1582   2.2182   2.3549   2.4717   2.5609   2.6356   2.6417   2.7162
     2.8619   2.8734   2.9717   3.0589

          k = 0.0000 0.0710 0.0000 ( 15793 PWs)   bands (ev):

   -71.5237 -71.4611 -71.4283 -71.4150 -71.1490 -71.1041 -71.0868 -71.0335
   -70.9993 -70.9851 -70.9634 -70.9553 -41.7285 -41.7112 -41.6396 -41.6083
   -41.5484 -41.5162 -41.5018 -41.3763 -41.3522 -41.3099 -41.2774 -41.2606
   -41.2148 -41.2078 -41.1567 -41.1460 -41.1150 -41.1122 -41.0089 -40.9962
   -40.9835 -40.9600 -40.9437 -40.9147 -40.8839 -40.8718 -40.8700 -40.8582
   -40.8540 -40.8508 -40.8389 -40.8334 -40.7801 -40.7405 -40.7352 -40.6580
   -10.0173  -4.1054  -3.4024  -3.1007  -3.0955  -3.0433  -2.9594  -2.8018
    -2.7942  -2.7831  -2.6801  -2.6357  -2.6270  -2.3498  -1.9927  -1.9637
    -1.5882  -1.5810  -1.4477  -1.3208  -1.1943  -0.8612  -0.8373  -0.7997
    -0.7664  -0.6381  -0.6024  -0.2983  -0.2318  -0.1586  -0.0919  -0.0875
     0.0096   0.0379   0.1991   0.2616   0.4425   0.5033   0.6060   0.7494
     0.8116   0.9590   0.9651   1.0287   1.0415   1.2601   1.2910   1.3738
     1.4137   1.5264   1.7457   1.9034   1.9496   2.0659   2.1309   2.2132
     2.2259   2.4137   2.5255   2.6224

          k = 0.0000-0.1065 0.0000 ( 15808 PWs)   bands (ev):

   -71.5130 -71.4682 -71.4320 -71.4150 -71.1351 -71.1167 -71.0869 -71.0123
   -71.0063 -71.0005 -70.9634 -70.9556 -41.6877 -41.6633 -41.5822 -41.5497
   -41.5125 -41.4874 -41.4841 -41.4489 -41.4160 -41.3944 -41.2721 -41.2218
   -41.1750 -41.1511 -41.1297 -41.1144 -41.0959 -41.0679 -41.0201 -41.0008
   -40.9891 -40.9706 -40.9605 -40.9497 -40.9446 -40.9240 -40.9048 -40.8936
   -40.8600 -40.8565 -40.8447 -40.8362 -40.8211 -40.7555 -40.7032 -40.6949
   -10.0140  -3.4710  -3.4611  -2.8391  -2.8101  -2.8017  -2.8000  -2.5210
    -2.5020  -2.3745  -2.3577  -2.2484  -2.2370  -1.9502  -1.9177  -1.8374
    -1.8099  -1.4054  -1.3921  -1.2853  -1.2581  -1.1629  -1.1513  -0.7877
    -0.7501  -0.5675  -0.3489  -0.3461  -0.3238  -0.1858  -0.1516  -0.1289
     0.0282   0.0599   0.0956   0.1165   0.1603   0.1656   0.1844   0.1940
     0.2082   0.7229   0.7892   0.8445   0.8717   0.9172   1.0583   1.2693
     1.3475   1.4481   1.5073   1.5695   1.5972   1.7095   1.7382   1.8051
     2.0612   2.1298   2.1520   2.3535

          k = 0.0307-0.0177 0.0000 ( 15763 PWs)   bands (ev):

   -71.5387 -71.4545 -71.4196 -71.4150 -71.1641 -71.0913 -71.0871 -71.0510
   -70.9965 -70.9685 -70.9633 -70.9542 -41.7898 -41.7806 -41.7608 -41.6404
   -41.5752 -41.5322 -41.5311 -41.3718 -41.3322 -41.3190 -41.2871 -41.2722
   -41.2367 -41.1996 -41.1755 -41.1747 -41.1401 -41.0839 -41.0237 -40.9863
   -40.9825 -40.9187 -40.9039 -40.8998 -40.8688 -40.8639 -40.8581 -40.8565
   -40.8384 -40.8052 -40.8051 -40.7692 -40.7425 -40.7099 -40.6631 -40.6281
   -10.0239  -4.7354  -3.6546  -3.5667  -3.5645  -3.4472  -3.2868  -3.2705
    -3.2428  -3.2396  -3.0609  -3.0056  -3.0007  -2.6752  -2.5670  -2.5510
    -1.6403  -1.6088  -1.5498  -0.9864  -0.9394  -0.9302  -0.9103  -0.7916
    -0.6925  -0.4598  -0.4050  -0.3950  -0.1525  -0.1453  -0.1225  -0.0810
     0.1727   0.1872   0.2653   0.3843   0.6495   0.9366   1.0013   1.1459
     1.3589   1.3614   1.4557   1.4588   1.4877   1.5664   1.6908   1.8153
     2.1582   2.2182   2.3549   2.4717   2.5609   2.6355   2.6417   2.7161
     2.8620   2.8734   2.9716   3.0586

          k = 0.0307 0.0177 0.0000 ( 15763 PWs)   bands (ev):

   -71.5387 -71.4545 -71.4194 -71.4152 -71.1641 -71.0914 -71.0870 -71.0510
   -70.9965 -70.9684 -70.9634 -70.9542 -41.7897 -41.7808 -41.7608 -41.6404
   -41.5752 -41.5321 -41.5312 -41.3718 -41.3322 -41.3190 -41.2871 -41.2723
   -41.2366 -41.1996 -41.1755 -41.1747 -41.1400 -41.0839 -41.0238 -40.9864
   -40.9825 -40.9187 -40.9039 -40.8999 -40.8688 -40.8638 -40.8581 -40.8565
   -40.8384 -40.8052 -40.8052 -40.7692 -40.7425 -40.7099 -40.6631 -40.6281
   -10.0239  -4.7354  -3.6546  -3.5668  -3.5645  -3.4472  -3.2868  -3.2705
    -3.2428  -3.2396  -3.0609  -3.0056  -3.0007  -2.6752  -2.5670  -2.5510
    -1.6403  -1.6088  -1.5498  -0.9864  -0.9394  -0.9302  -0.9103  -0.7916
    -0.6925  -0.4598  -0.4050  -0.3950  -0.1525  -0.1453  -0.1225  -0.0810
     0.1727   0.1872   0.2653   0.3843   0.6495   0.9365   1.0014   1.1459
     1.3589   1.3614   1.4557   1.4587   1.4877   1.5664   1.6908   1.8153
     2.1582   2.2182   2.3549   2.4717   2.5609   2.6355   2.6417   2.7161
     2.8620   2.8734   2.9716   3.0571

          k = 0.0307 0.0532 0.0000 ( 15768 PWs)   bands (ev):

   -71.5280 -71.4579 -71.4284 -71.4136 -71.1536 -71.0992 -71.0878 -71.0390
   -70.9986 -70.9756 -70.9701 -70.9525 -41.7520 -41.7055 -41.6970 -41.6181
   -41.5537 -41.5176 -41.5095 -41.3846 -41.3237 -41.2780 -41.2731 -41.2523
   -41.2472 -41.2302 -41.1713 -41.1503 -41.1390 -41.1100 -41.0065 -41.0027
   -40.9782 -40.9572 -40.9153 -40.8921 -40.8870 -40.8812 -40.8645 -40.8601
   -40.8533 -40.8460 -40.8090 -40.7825 -40.7810 -40.7431 -40.7314 -40.6511
   -10.0189  -4.2917  -3.3510  -3.3475  -3.2079  -3.0668  -3.0432  -3.0381
    -2.8799  -2.8620  -2.8543  -2.8434  -2.6652  -2.3402  -2.3220  -2.0813
    -1.6456  -1.4890  -1.4761  -1.2967  -1.0299  -0.8758  -0.8410  -0.7922
    -0.7529  -0.7401  -0.4004  -0.3744  -0.2684  -0.1956  -0.0876  -0.0011
     0.0260   0.0569   0.0936   0.4179   0.5044   0.6142   0.6865   0.7780
     0.9727   1.1170   1.1518   1.2244   1.2942   1.3583   1.4026   1.4365
     1.5506   1.6411   1.7149   2.0299   2.0901   2.2179   2.2838   2.4233
     2.4441   2.6069   2.6219   2.7609

          k = 0.0307-0.1242 0.0000 ( 15803 PWs)   bands (ev):

   -71.5140 -71.4633 -71.4392 -71.4118 -71.1370 -71.1127 -71.0892 -71.0185
   -71.0004 -70.9938 -70.9752 -70.9499 -41.6853 -41.6333 -41.5857 -41.5630
   -41.5386 -41.5147 -41.4884 -41.4763 -41.3876 -41.3118 -41.2637 -41.2185
   -41.1987 -41.1605 -41.1544 -41.1319 -41.0981 -41.0703 -41.0473 -41.0011
   -40.9875 -40.9809 -40.9609 -40.9565 -40.9135 -40.9020 -40.9005 -40.8632
   -40.8585 -40.8518 -40.8396 -40.8275 -40.8136 -40.7655 -40.7408 -40.6925
   -10.0140  -3.5904  -3.1623  -2.8200  -2.8107  -2.7801  -2.6802  -2.6230
    -2.5126  -2.4604  -2.3704  -2.3062  -2.2052  -2.0136  -1.9373  -1.7838
    -1.7482  -1.4566  -1.4184  -1.4051  -1.2028  -1.1140  -1.0669  -0.9264
    -0.8408  -0.6090  -0.5297  -0.4647  -0.4047  -0.3362  -0.2865  -0.2562
    -0.2319  -0.0650   0.0568   0.1241   0.1631   0.3303   0.3812   0.4431
     0.4724   0.4927   0.7719   0.8518   0.9312   1.0440   1.1568   1.2176
     1.3318   1.4515   1.5549   1.6102   1.7700   1.8622   2.0218   2.0741
     2.2645   2.3950   2.4364   2.5972

          k = 0.0307-0.0887 0.0000 ( 15803 PWs)   bands (ev):

   -71.5140 -71.4632 -71.4392 -71.4118 -71.1370 -71.1127 -71.0892 -71.0185
   -71.0004 -70.9938 -70.9752 -70.9499 -41.6853 -41.6333 -41.5857 -41.5630
   -41.5386 -41.5148 -41.4884 -41.4763 -41.3877 -41.3118 -41.2638 -41.2185
   -41.1987 -41.1605 -41.1544 -41.1318 -41.0981 -41.0702 -41.0473 -41.0012
   -40.9875 -40.9809 -40.9609 -40.9564 -40.9135 -40.9020 -40.9004 -40.8631
   -40.8585 -40.8519 -40.8396 -40.8275 -40.8136 -40.7655 -40.7408 -40.6926
   -10.0140  -3.5904  -3.1623  -2.8200  -2.8107  -2.7801  -2.6802  -2.6230
    -2.5126  -2.4604  -2.3704  -2.3062  -2.2052  -2.0136  -1.9373  -1.7838
    -1.7482  -1.4566  -1.4184  -1.4051  -1.2028  -1.1140  -1.0669  -0.9264
    -0.8408  -0.6090  -0.5297  -0.4647  -0.4047  -0.3362  -0.2865  -0.2561
    -0.2319  -0.0650   0.0568   0.1241   0.1631   0.3303   0.3812   0.4431
     0.4724   0.4927   0.7719   0.8518   0.9312   1.0440   1.1568   1.2176
     1.3318   1.4515   1.5549   1.6102   1.7700   1.8622   2.0218   2.0741
     2.2645   2.3950   2.4364   2.5971

          k = 0.0307-0.0532 0.0000 ( 15768 PWs)   bands (ev):

   -71.5280 -71.4578 -71.4286 -71.4135 -71.1536 -71.0991 -71.0879 -71.0390
   -70.9986 -70.9757 -70.9700 -70.9526 -41.7520 -41.7054 -41.6970 -41.6181
   -41.5537 -41.5178 -41.5094 -41.3846 -41.3237 -41.2780 -41.2731 -41.2524
   -41.2472 -41.2302 -41.1713 -41.1503 -41.1390 -41.1100 -41.0065 -41.0026
   -40.9783 -40.9571 -40.9153 -40.8920 -40.8870 -40.8812 -40.8645 -40.8602
   -40.8533 -40.8460 -40.8090 -40.7825 -40.7810 -40.7431 -40.7313 -40.6512
   -10.0189  -4.2917  -3.3510  -3.3475  -3.2079  -3.0668  -3.0432  -3.0381
    -2.8799  -2.8620  -2.8543  -2.8434  -2.6652  -2.3402  -2.3220  -2.0813
    -1.6456  -1.4890  -1.4761  -1.2967  -1.0299  -0.8758  -0.8410  -0.7922
    -0.7529  -0.7400  -0.4004  -0.3744  -0.2684  -0.1956  -0.0876  -0.0010
     0.0260   0.0569   0.0936   0.4179   0.5044   0.6142   0.6865   0.7780
     0.9727   1.1170   1.1518   1.2244   1.2942   1.3583   1.4026   1.4365
     1.5506   1.6411   1.7149   2.0299   2.0901   2.2179   2.2837   2.4233
     2.4441   2.6069   2.6219   2.7610

          k = 0.0615-0.0355 0.0000 ( 15793 PWs)   bands (ev):

   -71.5236 -71.4612 -71.4282 -71.4151 -71.1490 -71.1038 -71.0871 -71.0335
   -70.9993 -70.9851 -70.9633 -70.9554 -41.7285 -41.7113 -41.6396 -41.6083
   -41.5484 -41.5162 -41.5018 -41.3763 -41.3523 -41.3100 -41.2774 -41.2605
   -41.2148 -41.2078 -41.1566 -41.1461 -41.1150 -41.1122 -41.0086 -40.9962
   -40.9836 -40.9602 -40.9435 -40.9147 -40.8839 -40.8719 -40.8700 -40.8581
   -40.8540 -40.8508 -40.8390 -40.8334 -40.7801 -40.7405 -40.7351 -40.6580
   -10.0173  -4.1054  -3.4024  -3.1008  -3.0955  -3.0433  -2.9594  -2.8018
    -2.7942  -2.7831  -2.6801  -2.6357  -2.6270  -2.3498  -1.9928  -1.9637
    -1.5882  -1.5810  -1.4477  -1.3208  -1.1943  -0.8612  -0.8373  -0.7997
    -0.7664  -0.6381  -0.6024  -0.2983  -0.2318  -0.1585  -0.0919  -0.0875
     0.0096   0.0379   0.1991   0.2616   0.4425   0.5033   0.6060   0.7494
     0.8117   0.9589   0.9651   1.0287   1.0415   1.2601   1.2910   1.3738
     1.4136   1.5264   1.7457   1.9034   1.9496   2.0660   2.1309   2.2132
     2.2259   2.4137   2.5254   2.6224

          k = 0.0615 0.0000 0.0000 ( 15768 PWs)   bands (ev):

   -71.5280 -71.4579 -71.4283 -71.4137 -71.1537 -71.0989 -71.0880 -71.0390
   -70.9985 -70.9756 -70.9700 -70.9526 -41.7519 -41.7055 -41.6970 -41.6181
   -41.5537 -41.5176 -41.5096 -41.3846 -41.3237 -41.2780 -41.2731 -41.2523
   -41.2472 -41.2302 -41.1712 -41.1504 -41.1390 -41.1100 -41.0065 -41.0025
   -40.9784 -40.9570 -40.9153 -40.8921 -40.8871 -40.8813 -40.8645 -40.8602
   -40.8533 -40.8460 -40.8089 -40.7825 -40.7810 -40.7431 -40.7313 -40.6511
   -10.0189  -4.2917  -3.3509  -3.3476  -3.2079  -3.0668  -3.0432  -3.0381
    -2.8799  -2.8620  -2.8543  -2.8434  -2.6652  -2.3402  -2.3220  -2.0813
    -1.6456  -1.4890  -1.4761  -1.2967  -1.0299  -0.8758  -0.8410  -0.7922
    -0.7529  -0.7400  -0.4004  -0.3744  -0.2684  -0.1956  -0.0876  -0.0010
     0.0260   0.0569   0.0936   0.4179   0.5044   0.6142   0.6865   0.7780
     0.9727   1.1170   1.1518   1.2244   1.2942   1.3584   1.4026   1.4364
     1.5506   1.6411   1.7149   2.0298   2.0901   2.2178   2.2838   2.4233
     2.4441   2.6069   2.6219   2.7609

          k = 0.0615 0.0355 0.0000 ( 15793 PWs)   bands (ev):

   -71.5236 -71.4613 -71.4279 -71.4153 -71.1490 -71.1039 -71.0870 -71.0335
   -70.9993 -70.9851 -70.9634 -70.9553 -41.7284 -41.7114 -41.6396 -41.6083
   -41.5485 -41.5161 -41.5019 -41.3762 -41.3524 -41.3100 -41.2773 -41.2606
   -41.2148 -41.2077 -41.1566 -41.1461 -41.1150 -41.1122 -41.0087 -40.9962
   -40.9836 -40.9601 -40.9436 -40.9147 -40.8839 -40.8718 -40.8701 -40.8582
   -40.8540 -40.8507 -40.8390 -40.8334 -40.7802 -40.7405 -40.7352 -40.6580
   -10.0173  -4.1054  -3.4024  -3.1008  -3.0955  -3.0433  -2.9594  -2.8017
    -2.7942  -2.7831  -2.6801  -2.6357  -2.6270  -2.3498  -1.9928  -1.9637
    -1.5882  -1.5810  -1.4477  -1.3208  -1.1943  -0.8612  -0.8374  -0.7996
    -0.7664  -0.6381  -0.6024  -0.2983  -0.2318  -0.1585  -0.0920  -0.0875
     0.0097   0.0379   0.1991   0.2616   0.4424   0.5033   0.6060   0.7494
     0.8116   0.9589   0.9651   1.0287   1.0415   1.2601   1.2910   1.3738
     1.4137   1.5264   1.7457   1.9035   1.9495   2.0659   2.1309   2.2132
     2.2259   2.4136   2.5254   2.6224

          k = 0.0615-0.1420 0.0000 ( 15803 PWs)   bands (ev):

   -71.5140 -71.4635 -71.4389 -71.4119 -71.1371 -71.1126 -71.0893 -71.0185
   -71.0004 -70.9938 -70.9752 -70.9499 -41.6852 -41.6334 -41.5856 -41.5630
   -41.5387 -41.5146 -41.4884 -41.4763 -41.3877 -41.3118 -41.2638 -41.2184
   -41.1987 -41.1605 -41.1544 -41.1319 -41.0981 -41.0703 -41.0474 -41.0010
   -40.9876 -40.9809 -40.9609 -40.9564 -40.9135 -40.9020 -40.9005 -40.8632
   -40.8585 -40.8518 -40.8396 -40.8276 -40.8136 -40.7654 -40.7408 -40.6925
   -10.0140  -3.5904  -3.1623  -2.8200  -2.8106  -2.7801  -2.6802  -2.6230
    -2.5126  -2.4604  -2.3704  -2.3062  -2.2052  -2.0136  -1.9373  -1.7838
    -1.7482  -1.4566  -1.4184  -1.4051  -1.2028  -1.1140  -1.0669  -0.9264
    -0.8408  -0.6090  -0.5297  -0.4647  -0.4047  -0.3362  -0.2865  -0.2562
    -0.2319  -0.0650   0.0568   0.1241   0.1631   0.3303   0.3812   0.4431
     0.4724   0.4927   0.7719   0.8517   0.9312   1.0441   1.1568   1.2176
     1.3318   1.4515   1.5548   1.6102   1.7699   1.8622   2.0218   2.0742
     2.2645   2.3950   2.4364   2.5971

          k = 0.0615-0.1065 0.0000 ( 15828 PWs)   bands (ev):

   -71.5088 -71.4553 -71.4548 -71.4094 -71.1235 -71.1231 -71.0921 -71.0015
   -71.0001 -70.9993 -70.9905 -70.9469 -41.6009 -41.5998 -41.5711 -41.5354
   -41.5334 -41.5187 -41.5088 -41.5024 -41.4706 -41.2396 -41.2391 -41.2330
   -41.2057 -41.1810 -41.1022 -41.0997 -41.0983 -41.0875 -41.0322 -41.0153
   -41.0116 -41.0075 -40.9751 -40.9636 -40.9604 -40.9099 -40.8851 -40.8645
   -40.8635 -40.8515 -40.8466 -40.8155 -40.8079 -40.7577 -40.7496 -40.7490
   -10.0124  -2.9695  -2.9615  -2.9542  -2.4568  -2.4354  -2.4349  -2.4185
    -2.4140  -2.2076  -2.1265  -2.1075  -2.1054  -2.0930  -2.0876  -2.0756
    -1.5934  -1.5822  -1.2282  -1.1492  -1.1335  -1.0389  -1.0327  -1.0217
    -0.9356  -0.9013  -0.8612  -0.7458  -0.7381  -0.7274  -0.5706  -0.3474
    -0.3004  -0.1645  -0.1433   0.0474   0.0854   0.1083   0.1528   0.1722
     0.1839   0.6923   0.7236   0.7392   0.9209   1.0629   1.2685   1.2752
     1.3200   1.5562   1.5902   1.6455   1.8650   2.0009   2.2591   2.3915
     2.4442   2.5037   2.5275   2.5834

          k = 0.0615-0.0710 0.0000 ( 15803 PWs)   bands (ev):

   -71.5140 -71.4633 -71.4392 -71.4118 -71.1371 -71.1124 -71.0894 -71.0184
   -71.0004 -70.9938 -70.9752 -70.9499 -41.6853 -41.6333 -41.5857 -41.5630
   -41.5386 -41.5147 -41.4884 -41.4763 -41.3877 -41.3118 -41.2638 -41.2185
   -41.1986 -41.1604 -41.1544 -41.1319 -41.0981 -41.0703 -41.0473 -41.0010
   -40.9876 -40.9809 -40.9610 -40.9563 -40.9135 -40.9020 -40.9004 -40.8632
   -40.8585 -40.8519 -40.8397 -40.8276 -40.8136 -40.7654 -40.7408 -40.6926
   -10.0140  -3.5904  -3.1623  -2.8200  -2.8107  -2.7801  -2.6802  -2.6230
    -2.5126  -2.4604  -2.3704  -2.3062  -2.2052  -2.0136  -1.9373  -1.7838
    -1.7482  -1.4566  -1.4184  -1.4051  -1.2028  -1.1140  -1.0669  -0.9264
    -0.8408  -0.6090  -0.5297  -0.4647  -0.4047  -0.3362  -0.2865  -0.2562
    -0.2319  -0.0650   0.0568   0.1241   0.1631   0.3303   0.3812   0.4431
     0.4724   0.4927   0.7719   0.8517   0.9312   1.0441   1.1568   1.2176
     1.3318   1.4515   1.5549   1.6102   1.7699   1.8622   2.0218   2.0741
     2.2645   2.3950   2.4364   2.5971

          k =-0.0922 0.0532 0.0000 ( 15808 PWs)   bands (ev):

   -71.5130 -71.4682 -71.4319 -71.4151 -71.1354 -71.1162 -71.0871 -71.0122
   -71.0064 -71.0004 -70.9633 -70.9556 -41.6877 -41.6634 -41.5821 -41.5498
   -41.5124 -41.4874 -41.4841 -41.4489 -41.4159 -41.3944 -41.2722 -41.2216
   -41.1750 -41.1511 -41.1296 -41.1144 -41.0954 -41.0681 -41.0203 -41.0009
   -40.9889 -40.9709 -40.9604 -40.9496 -40.9446 -40.9240 -40.9048 -40.8936
   -40.8599 -40.8566 -40.8447 -40.8363 -40.8214 -40.7553 -40.7031 -40.6950
   -10.0140  -3.4710  -3.4611  -2.8391  -2.8101  -2.8017  -2.8000  -2.5210
    -2.5019  -2.3744  -2.3578  -2.2484  -2.2370  -1.9502  -1.9177  -1.8375
    -1.8098  -1.4054  -1.3921  -1.2854  -1.2581  -1.1630  -1.1513  -0.7877
    -0.7501  -0.5675  -0.3489  -0.3461  -0.3238  -0.1859  -0.1516  -0.1289
     0.0281   0.0599   0.0956   0.1165   0.1603   0.1656   0.1844   0.1940
     0.2083   0.7228   0.7892   0.8446   0.8717   0.9172   1.0584   1.2694
     1.3475   1.4481   1.5073   1.5694   1.5973   1.7095   1.7382   1.8051
     2.0612   2.1297   2.1521   2.3535

          k =-0.0922 0.0887 0.0000 ( 15803 PWs)   bands (ev):

   -71.5140 -71.4634 -71.4391 -71.4118 -71.1372 -71.1123 -71.0894 -71.0184
   -71.0004 -70.9938 -70.9752 -70.9499 -41.6853 -41.6333 -41.5856 -41.5630
   -41.5387 -41.5146 -41.4884 -41.4764 -41.3876 -41.3118 -41.2638 -41.2185
   -41.1986 -41.1604 -41.1544 -41.1318 -41.0981 -41.0702 -41.0473 -41.0011
   -40.9876 -40.9810 -40.9610 -40.9563 -40.9135 -40.9020 -40.9004 -40.8632
   -40.8585 -40.8519 -40.8396 -40.8275 -40.8136 -40.7654 -40.7408 -40.6926
   -10.0140  -3.5904  -3.1623  -2.8200  -2.8107  -2.7801  -2.6802  -2.6230
    -2.5126  -2.4604  -2.3704  -2.3062  -2.2052  -2.0136  -1.9373  -1.7838
    -1.7482  -1.4566  -1.4184  -1.4051  -1.2028  -1.1140  -1.0669  -0.9264
    -0.8408  -0.6090  -0.5297  -0.4647  -0.4047  -0.3362  -0.2865  -0.2562
    -0.2319  -0.0650   0.0568   0.1241   0.1631   0.3303   0.3812   0.4431
     0.4724   0.4927   0.7718   0.8518   0.9312   1.0440   1.1568   1.2176
     1.3318   1.4515   1.5548   1.6102   1.7700   1.8622   2.0218   2.0741
     2.2645   2.3950   2.4364   2.5972

          k =-0.0922 0.1242 0.0000 ( 15803 PWs)   bands (ev):

   -71.5140 -71.4635 -71.4389 -71.4119 -71.1371 -71.1124 -71.0894 -71.0185
   -71.0004 -70.9938 -70.9752 -70.9499 -41.6852 -41.6334 -41.5856 -41.5630
   -41.5388 -41.5145 -41.4884 -41.4764 -41.3876 -41.3118 -41.2638 -41.2184
   -41.1987 -41.1605 -41.1545 -41.1318 -41.0981 -41.0702 -41.0473 -41.0012
   -40.9876 -40.9810 -40.9609 -40.9563 -40.9135 -40.9020 -40.9004 -40.8632
   -40.8585 -40.8519 -40.8396 -40.8275 -40.8136 -40.7654 -40.7408 -40.6925
   -10.0140  -3.5904  -3.1623  -2.8200  -2.8106  -2.7801  -2.6802  -2.6230
    -2.5126  -2.4604  -2.3704  -2.3062  -2.2052  -2.0136  -1.9373  -1.7838
    -1.7482  -1.4566  -1.4184  -1.4051  -1.2028  -1.1140  -1.0669  -0.9264
    -0.8408  -0.6090  -0.5297  -0.4646  -0.4047  -0.3362  -0.2865  -0.2561
    -0.2319  -0.0650   0.0568   0.1241   0.1631   0.3303   0.3812   0.4431
     0.4724   0.4927   0.7718   0.8518   0.9312   1.0441   1.1568   1.2176
     1.3318   1.4515   1.5548   1.6102   1.7700   1.8622   2.0218   2.0741
     2.2645   2.3950   2.4364   2.5971

          k =-0.0922-0.0532 0.0000 ( 15808 PWs)   bands (ev):

   -71.5130 -71.4684 -71.4316 -71.4153 -71.1353 -71.1164 -71.0870 -71.0123
   -71.0062 -71.0005 -70.9634 -70.9556 -41.6875 -41.6636 -41.5821 -41.5499
   -41.5122 -41.4876 -41.4841 -41.4491 -41.4156 -41.3946 -41.2722 -41.2217
   -41.1748 -41.1513 -41.1296 -41.1144 -41.0956 -41.0680 -41.0202 -41.0009
   -40.9890 -40.9708 -40.9605 -40.9497 -40.9446 -40.9240 -40.9049 -40.8936
   -40.8600 -40.8565 -40.8447 -40.8363 -40.8213 -40.7554 -40.7032 -40.6948
   -10.0140  -3.4710  -3.4611  -2.8391  -2.8101  -2.8016  -2.8001  -2.5209
    -2.5020  -2.3744  -2.3578  -2.2483  -2.2371  -1.9503  -1.9177  -1.8374
    -1.8099  -1.4054  -1.3921  -1.2854  -1.2580  -1.1630  -1.1513  -0.7877
    -0.7501  -0.5675  -0.3489  -0.3461  -0.3238  -0.1859  -0.1516  -0.1289
     0.0281   0.0599   0.0956   0.1165   0.1603   0.1656   0.1844   0.1939
     0.2082   0.7228   0.7892   0.8446   0.8716   0.9172   1.0584   1.2694
     1.3475   1.4481   1.5073   1.5694   1.5973   1.7095   1.7382   1.8051
     2.0612   2.1297   2.1521   2.3534

     the Fermi energy is     1.7424 ev

!    total energy              =   -2361.26362847 Ry
     Harris-Foulkes estimate   =   -2361.26362593 Ry
     estimated scf accuracy    <       0.00000183 Ry

     The total energy is the sum of the following terms:

     one-electron contribution =  -22131.24333072 Ry
     hartree contribution      =   11063.77549077 Ry
     xc contribution           =    -326.78119550 Ry
     ewald contribution        =    9033.08402507 Ry
     electric field correction =       0.00067481 Ry
     smearing contrib. (-TS)   =      -0.09929290 Ry

     convergence has been achieved in  27 iterations
 
 BEEF-vdW xc energy contributions
           1 :   -283.272369617553     
           2 :    259.775636352170     
           3 :   -219.210211669944     
           4 :    171.719222575992     
           5 :   -127.501769990424     
           6 :    93.7483832787804     
           7 :   -73.0404073288802     
           8 :    63.5374228658105     
           9 :   -60.6322628777478     
          10 :    59.2446138526021     
          11 :   -55.7966747866409     
          12 :    49.1694784473272     
          13 :   -40.4682695162561     
          14 :    31.9449052301968     
          15 :   -25.6885666014580     
          16 :    22.6532957997662     
          17 :   -22.3617500104401     
          18 :    23.3023464380709     
          19 :   -23.7442265879060     
          20 :    22.5486671190661     
          21 :   -19.6095430936804     
          22 :    15.7633572918324     
          23 :   -12.2707679808764     
          24 :    10.1556793782988     
          25 :   -9.72514754493136     
          26 :    10.4828665979705     
          27 :   -11.4429137904278     
          28 :    11.6521998115920     
          29 :   -10.6499071484382     
          30 :    8.64549484633920     
          31 :   -29.4978280235056     
          32 :   -22.3119689357714     

     Forces acting on atoms (Ry/au):


     negative rho (up, down):  9.101E-01 0.000E+00
     atom    1 type  1   force =     0.00210150    0.00123601    0.03038712
     atom    2 type  1   force =    -0.00210259    0.00122765    0.03038469
     atom    3 type  1   force =    -0.00000388   -0.00244543    0.03039487
     atom    4 type  1   force =     0.00000342   -0.00001466    0.02772622
     atom    5 type  1   force =    -0.00000525   -0.00499424    0.00427420
     atom    6 type  1   force =     0.00000237   -0.00006185    0.00592469
     atom    7 type  1   force =     0.00426882    0.00252863    0.00431719
     atom    8 type  1   force =    -0.00427119    0.00251752    0.00434868
     atom    9 type  1   force =    -0.00000354    0.00002114   -0.04026377
     atom   10 type  1   force =     0.00000453    0.01148445    0.02660674
     atom   11 type  1   force =     0.00992587   -0.00575022    0.02656479
     atom   12 type  1   force =    -0.00992306   -0.00575535    0.02658356
     atom   13 type  2   force =     0.00000300    0.00000635   -0.17724898

     Total force =     0.198181     Total SCF correction =     0.007244


     entering subroutine stress ...


     negative rho (up, down):  9.101E-01 0.000E+00
          total   stress  (Ry/bohr**3)                   (kbar)     P=  -44.93
  -0.00023904  -0.00000002   0.00000001        -35.16     -0.00      0.00
  -0.00000002  -0.00023905  -0.00000001         -0.00    -35.17     -0.00
   0.00000001  -0.00000001  -0.00043809          0.00     -0.00    -64.45

 !ASE

     Writing output data file calc.save
 
     init_run     :     11.86s CPU     18.37s WALL (       1 calls)
     electrons    :    851.30s CPU   1196.95s WALL (       1 calls)
     forces       :      3.20s CPU      3.85s WALL (       1 calls)
     stress       :      7.95s CPU      9.14s WALL (       1 calls)

     Called by init_run:
     wfcinit      :      9.61s CPU     15.07s WALL (       1 calls)
     potinit      :      0.99s CPU      1.64s WALL (       1 calls)

     Called by electrons:
     c_bands      :    691.12s CPU    960.77s WALL (      27 calls)
     sum_band     :     90.00s CPU    135.24s WALL (      27 calls)
     v_of_rho     :     26.93s CPU     40.31s WALL (      28 calls)
     newd         :     10.12s CPU     10.50s WALL (      28 calls)
     mix_rho      :      1.12s CPU      1.70s WALL (      27 calls)
     vdW_energy   :      2.53s CPU      2.55s WALL (      64 calls)
     vdW_ffts     :     37.20s CPU     58.75s WALL (     130 calls)
     vdW_v        :      7.23s CPU     10.42s WALL (      64 calls)

     Called by c_bands:
     init_us_2    :      1.15s CPU      1.21s WALL (    1140 calls)
     cegterg      :    680.95s CPU    949.23s WALL (     540 calls)

     Called by *egterg:
     h_psi        :    425.26s CPU    670.91s WALL (    2964 calls)
     s_psi        :     16.09s CPU     16.36s WALL (    2964 calls)
     g_psi        :      1.06s CPU      1.07s WALL (    2404 calls)
     cdiaghg      :    147.49s CPU    153.23s WALL (    2944 calls)

     Called by h_psi:
     add_vuspsi   :     16.85s CPU     16.92s WALL (    2964 calls)

     General routines
     calbec       :     34.49s CPU     41.66s WALL (    3544 calls)
     fft          :     57.47s CPU     90.82s WALL (    3951 calls)
     ffts         :      0.21s CPU      0.34s WALL (      55 calls)
     fftw         :    434.72s CPU    715.84s WALL (  386914 calls)
     interpolate  :      0.98s CPU      1.53s WALL (      55 calls)
     davcio       :      0.00s CPU      0.02s WALL (      20 calls)
 
     Parallel routines
     fft_scatter  :    445.25s CPU    756.92s WALL (  390920 calls)
 
     PWSCF        : 14m35.08s CPU    20m29.65s WALL

 
   This run was terminated on:   3:22:34  18Jan2018            

=------------------------------------------------------------------------------=
   JOB DONE.
=------------------------------------------------------------------------------=
Job  /afs/slac/g/suncat/bin/suncat-tsmpirun -x LD_LIBRARY_PATH -wdir /scratch/qe842477_s7B5m pw.x -in pw.inp

TID   HOST_NAME   COMMAND_LINE            STATUS            TERMINATION_TIME
===== ========== ================  =======================  ===================
00000 suncat0153 pw.x -in pw.inp   Done                     01/18/2018 03:22:34
00001 suncat0153 pw.x -in pw.inp   Done                     01/18/2018 03:22:34
00002 suncat0153 pw.x -in pw.inp   Done                     01/18/2018 03:22:34
00003 suncat0153 pw.x -in pw.inp   Done                     01/18/2018 03:22:34
00004 suncat0153 pw.x -in pw.inp   Done                     01/18/2018 03:22:34
00005 suncat0153 pw.x -in pw.inp   Done                     01/18/2018 03:22:34
00006 suncat0153 pw.x -in pw.inp   Done                     01/18/2018 03:22:34
00007 suncat0153 pw.x -in pw.inp   Done                     01/18/2018 03:22:34
00008 suncat0146 pw.x -in pw.inp   Done                     01/18/2018 03:22:34
00009 suncat0146 pw.x -in pw.inp   Done                     01/18/2018 03:22:34
00010 suncat0146 pw.x -in pw.inp   Done                     01/18/2018 03:22:34
00011 suncat0146 pw.x -in pw.inp   Done                     01/18/2018 03:22:34
00012 suncat0146 pw.x -in pw.inp   Done                     01/18/2018 03:22:34
00013 suncat0146 pw.x -in pw.inp   Done                     01/18/2018 03:22:34
00014 suncat0146 pw.x -in pw.inp   Done                     01/18/2018 03:22:34
00015 suncat0146 pw.x -in pw.inp   Done                     01/18/2018 03:22:34
00016 suncat0115 pw.x -in pw.inp   Done                     01/18/2018 03:22:34
00017 suncat0115 pw.x -in pw.inp   Done                     01/18/2018 03:22:34
00018 suncat0115 pw.x -in pw.inp   Done                     01/18/2018 03:22:34
00019 suncat0115 pw.x -in pw.inp   Done                     01/18/2018 03:22:34
00020 suncat0115 pw.x -in pw.inp   Done                     01/18/2018 03:22:34
00021 suncat0115 pw.x -in pw.inp   Done                     01/18/2018 03:22:34
00022 suncat0115 pw.x -in pw.inp   Done                     01/18/2018 03:22:34
00023 suncat0115 pw.x -in pw.inp   Done                     01/18/2018 03:22:34
00024 suncat0114 pw.x -in pw.inp   Done                     01/18/2018 03:22:34
00025 suncat0114 pw.x -in pw.inp   Done                     01/18/2018 03:22:34
00026 suncat0114 pw.x -in pw.inp   Done                     01/18/2018 03:22:34
00027 suncat0114 pw.x -in pw.inp   Done                     01/18/2018 03:22:34
00028 suncat0114 pw.x -in pw.inp   Done                     01/18/2018 03:22:34
00029 suncat0114 pw.x -in pw.inp   Done                     01/18/2018 03:22:34
00030 suncat0114 pw.x -in pw.inp   Done                     01/18/2018 03:22:34
00031 suncat0114 pw.x -in pw.inp   Done                     01/18/2018 03:22:34

     Program PWSCF v.5.1rc2 (svn rev. 11289) starts on 18Jan2018 at  3:22:40 

     This program is part of the open-source Quantum ESPRESSO suite
     for quantum simulation of materials; please cite
         "P. Giannozzi et al., J. Phys.:Condens. Matter 21 395502 (2009);
          URL http://www.quantum-espresso.org", 
     in publications or presentations arising from this work. More details at
     http://www.quantum-espresso.org/quote

     Parallel version (MPI), running on    32 processors
     R & G space division:  proc/nbgrp/npool/nimage =      32
     Reading input from pw.inp
     Message from routine read_cards :
     DEPRECATED: no units specified in CELL_PARAMETERS card

     Current dimensions of program PWSCF are:
     Max number of different atomic species (ntypx) = 10
     Max number of k-points (npk) =  40000
     Max angular momentum in pseudopotentials (lmaxx) =  3
     Presently stress not available with electric field


     **************************************************************************
     Initializing libbeef V0.1.1 with the BEEF-vdW functional.
     Citation: Wellendorff et al., PRB 85, 235149 (2012).
     **************************************************************************


     IMPORTANT: XC functional enforced from input :
     Exchange-correlation      = BEEF-VDW ( 1  4 27 13 2)
     Any further DFT definition will be discarded
     Please, verify this is what you really want


     Subspace diagonalization in iterative solution of the eigenvalue problem:
     a serial algorithm will be used

 
     Parallelization info
     --------------------
     sticks:   dense  smooth     PW     G-vecs:    dense   smooth      PW
     Min          83      33      9                15610     3925     617
     Max          85      34     10                15618     3977     642
     Sum        2677    1069    313               499637   126395   20221
 


     bravais-lattice index     =            0
     lattice parameter (alat)  =       1.8897  a.u.
     unit-cell volume          =    4198.3539 (a.u.)^3
     number of atoms/cell      =           13
     number of atomic types    =            2
     number of electrons       =       197.00
     number of Kohn-Sham states=          108
     kinetic-energy cutoff     =      36.7493  Ry
     charge density cutoff     =     367.4932  Ry
     convergence threshold     =      1.0E-05
     mixing beta               =       0.3000
     number of iterations used =           10  plain     mixing
     Exchange-correlation      = BEEF-VDW ( 1  4 27 13 2)
     nstep                     =           50


     celldm(1)=   1.889726  celldm(2)=   0.000000  celldm(3)=   0.000000
     celldm(4)=   0.000000  celldm(5)=   0.000000  celldm(6)=   0.000000

     crystal axes: (cart. coord. in units of alat)
               a(1) = (   5.422927   0.000000   0.000000 )  
               a(2) = (   2.711463   4.696392   0.000000 )  
               a(3) = (   0.000000   0.000000  24.427801 )  

     reciprocal axes: (cart. coord. in units 2 pi/alat)
               b(1) = (  0.184402 -0.106465  0.000000 )  
               b(2) = (  0.000000  0.212929  0.000000 )  
               b(3) = (  0.000000  0.000000  0.040937 )  


     PseudoPot. # 1 for Ru read from file:
     /afs/slac.stanford.edu/u/if/mamunm/psp/gbrv1.5pbe/Ru.UPF
     MD5 check sum: 7158a806dd851261a58e6920c40ebe78
     Pseudo is Ultrasoft + core correction, Zval = 16.0
     Generated by new atomic code, or converted to UPF format
     Using radial grid of  967 points,  6 beta functions with: 
                l(1) =   0
                l(2) =   0
                l(3) =   1
                l(4) =   1
                l(5) =   2
                l(6) =   2
     Q(r) pseudized with  8 coefficients,  rinner =    1.300   1.300   1.300
                                                       1.300   1.300

     PseudoPot. # 2 for N  read from file:
     /afs/slac.stanford.edu/u/if/mamunm/psp/gbrv1.5pbe/N.UPF
     MD5 check sum: 95339753478d7afb44899504a8723017
     Pseudo is Ultrasoft + core correction, Zval =  5.0
     Generated by new atomic code, or converted to UPF format
     Using radial grid of  729 points,  4 beta functions with: 
                l(1) =   0
                l(2) =   0
                l(3) =   1
                l(4) =   1
     Q(r) pseudized with  8 coefficients,  rinner =    0.900   0.900   0.900


     vdW kernel table read from file vdW_kernel_table
     MD5 check sum: 095c7af220d748ca6e76c0b4c6cfb241

     atomic species   valence    mass     pseudopotential
        Ru1           16.00   101.07000     Ru( 1.00)
        N1             5.00    14.00700     N ( 1.00)

     No symmetry found



   Cartesian axes

     site n.     atom                  positions (alat units)
         1           Ru1 tau(   1) = (   1.3557316   0.7827320  10.0000000  )
         2           Ru1 tau(   2) = (   4.0671949   0.7827320  10.0000000  )
         3           Ru1 tau(   3) = (   2.7114633   3.1309281  10.0000000  )
         4           Ru1 tau(   4) = (   5.4229265   3.1309281  10.0000000  )
         5           Ru1 tau(   5) = (   5.4229265   1.5654640  12.2139005  )
         6           Ru1 tau(   6) = (   2.7114633   1.5654640  12.2139005  )
         7           Ru1 tau(   7) = (   6.7786581   3.9136601  12.2139005  )
         8           Ru1 tau(   8) = (   4.0671949   3.9136601  12.2139005  )
         9           Ru1 tau(   9) = (   5.4229174   0.0000544  14.3242786  )
        10           Ru1 tau(  10) = (   2.7114749   0.0295277  14.4962096  )
        11           Ru1 tau(  11) = (   1.3812521   2.3334117  14.4961018  )
        12           Ru1 tau(  12) = (   4.0416817   2.3333985  14.4961500  )
        13           N1  tau(  13) = (   2.7114710   1.5654804  16.1420755  )

     number of k points=    20  Fermi-Dirac smearing, width (Ry)=  0.0110
                       cart. coord. in units 2pi/alat
        k(    1) = (   0.0000000   0.0000000   0.0000000), wk =   0.0555556
        k(    2) = (   0.0000000   0.0354882   0.0000000), wk =   0.1111111
        k(    3) = (   0.0000000   0.0709765   0.0000000), wk =   0.1111111
        k(    4) = (   0.0000000  -0.1064647   0.0000000), wk =   0.0555556
        k(    5) = (   0.0307337  -0.0177441   0.0000000), wk =   0.1111111
        k(    6) = (   0.0307337   0.0177441   0.0000000), wk =   0.1111111
        k(    7) = (   0.0307337   0.0532324   0.0000000), wk =   0.1111111
        k(    8) = (   0.0307337  -0.1242088   0.0000000), wk =   0.1111111
        k(    9) = (   0.0307337  -0.0887206   0.0000000), wk =   0.1111111
        k(   10) = (   0.0307337  -0.0532324   0.0000000), wk =   0.1111111
        k(   11) = (   0.0614674  -0.0354882   0.0000000), wk =   0.1111111
        k(   12) = (   0.0614674   0.0000000   0.0000000), wk =   0.1111111
        k(   13) = (   0.0614674   0.0354882   0.0000000), wk =   0.1111111
        k(   14) = (   0.0614674  -0.1419529   0.0000000), wk =   0.1111111
        k(   15) = (   0.0614674  -0.1064647   0.0000000), wk =   0.1111111
        k(   16) = (   0.0614674  -0.0709765   0.0000000), wk =   0.1111111
        k(   17) = (  -0.0922011   0.0532324   0.0000000), wk =   0.0555556
        k(   18) = (  -0.0922011   0.0887206   0.0000000), wk =   0.1111111
        k(   19) = (  -0.0922011   0.1242088   0.0000000), wk =   0.1111111
        k(   20) = (  -0.0922011  -0.0532324   0.0000000), wk =   0.0555556

     Dense  grid:   499637 G-vectors     FFT dimensions: (  64,  64, 288)

     Smooth grid:   126395 G-vectors     FFT dimensions: (  40,  40, 180)

     Largest allocated arrays     est. size (Mb)     dimensions
        Kohn-Sham Wavefunctions         0.85 Mb     (     516,  108)
        NL pseudopotentials             1.76 Mb     (     516,  224)
        Each V/rho on FFT grid          0.56 Mb     (   36864)
        Each G-vector array             0.12 Mb     (   15614)
        G-vector shells                 0.05 Mb     (    6919)
     Largest temporary arrays     est. size (Mb)     dimensions
        Auxiliary wavefunctions         3.40 Mb     (     516,  432)
        Each subspace H/S matrix        2.85 Mb     (     432,  432)
        Each <psi_i|beta_j> matrix      0.37 Mb     (     224,  108)
        Arrays for rho mixing           5.62 Mb     (   36864,   10)

     Initial potential from superposition of free atoms
     Check: negative starting charge=   -0.877303

     starting charge  184.99980, renormalised to  197.00000

     negative rho (up, down):  9.342E-01 0.000E+00


     ************************************************************************
     *
     * You are using vdW-DF for exchange-correlation in this calculation.
     * Please cite the following three references that made this development
     * possible:
     *
     *   M. Dion, H. Rydberg, E. Schroder, D. C. Langreth, and
     *   B. I. Lundqvist, Phys. Rev. Lett. 92, 246401 (2004).
     *
     *   T. Thonhauser, V. R. Cooper, S. Li, A. Puzder, P. Hyldgaard, and
     *   D. C. Langreth, Phys. Rev. B 76, 125112 (2007).
     *
     *   G. Roman-Perez and J. M. Soler, Phys. Rev. Lett. 103, 096102 (2009).
     *
     *
     * If you are using vdW-DF2, please also cite:
     *
     *   K. Lee, E. D. Murray, L. Kong, B. I. Lundqvist, and
     *   D. C. Langreth, Phys. Rev. B 82, 081101(R) (2010).
     *
     *
     * If you are calculating the stress with vdW-DF, please also cite:
     *
     *   R. Sabatini, E. Kucukbenli, B. Kolb, T. Thonhauser, and
     *   S. de Gironcoli, J. Phys.: Condens. Matter 24, 424209 (2012).
     *
     ************************************************************************

     Carrying out vdW-DF run using the following parameters:

     Nqs =      20    Nr_points =    1024   r_max =   100.000
     q_mesh =
               0.00001000     0.04494208     0.09755937     0.15916263
               0.23128650     0.31572767     0.41458969     0.53033537
               0.66584808     0.82450364     1.01025438     1.22772762
               1.48234092     1.78043706     2.12944203     2.53805004
               3.01644009     3.57652955     4.23227104     5.00000000

     Gradients computed in reciprocal space

     ************************************************************************


 
     Adding external electric field

     Computed dipole along edir(3) : 
        Dipole               -2.4023 Ry au,         -6.1060 Debye
        Dipole field         -0.0072 Ry au
 
        Potential amp.        0.6473 Ry
        Total length         45.0078 bohr
 
     Starting wfc are  160 randomized atomic wfcs

     total cpu time spent up to now is       18.5 secs

     per-process dynamical memory:    47.0 Mb

     Self-consistent Calculation

     iteration #  1     ecut=    36.75 Ry     beta=0.30
     Davidson diagonalization with overlap
     ethr =  1.00E-02,  avg # of iterations =  5.3

     negative rho (up, down):  9.269E-01 0.000E+00
 
     Adding external electric field

     Computed dipole along edir(3) : 
        Dipole               46.3240 Ry au,        117.7439 Debye
        Dipole field          0.1387 Ry au
 
        Potential amp.      -12.4812 Ry
        Total length         45.0078 bohr
 

     total cpu time spent up to now is       61.7 secs

     total energy              =   -2227.58210757 Ry
     Harris-Foulkes estimate   =   -2363.22461581 Ry
     estimated scf accuracy    <     283.56442452 Ry

     iteration #  2     ecut=    36.75 Ry     beta=0.30
     Davidson diagonalization with overlap
     ethr =  1.00E-02,  avg # of iterations = 17.2

     negative rho (up, down):  9.136E-01 0.000E+00
 
     Adding external electric field

     Computed dipole along edir(3) : 
        Dipole                3.0617 Ry au,          7.7820 Debye
        Dipole field          0.0092 Ry au
 
        Potential amp.       -0.8249 Ry
        Total length         45.0078 bohr
 

     total cpu time spent up to now is      206.8 secs

     total energy              =   -2020.03799741 Ry
     Harris-Foulkes estimate   =   -2998.24981451 Ry
     estimated scf accuracy    <   21056.51361158 Ry

     iteration #  3     ecut=    36.75 Ry     beta=0.30
     Davidson diagonalization with overlap
     ethr =  1.00E-02,  avg # of iterations = 15.1

     negative rho (up, down):  9.235E-01 0.000E+00
 
     Adding external electric field

     Computed dipole along edir(3) : 
        Dipole                4.7254 Ry au,         12.0109 Debye
        Dipole field          0.0141 Ry au
 
        Potential amp.       -1.2732 Ry
        Total length         45.0078 bohr
 

     total cpu time spent up to now is      322.0 secs

     total energy              =   -2358.57773139 Ry
     Harris-Foulkes estimate   =   -2483.90588438 Ry
     estimated scf accuracy    <    1318.48740973 Ry

     iteration #  4     ecut=    36.75 Ry     beta=0.30
     Davidson diagonalization with overlap
     ethr =  1.00E-02,  avg # of iterations =  5.7

     negative rho (up, down):  9.241E-01 0.000E+00
 
     Adding external electric field

     Computed dipole along edir(3) : 
        Dipole                3.8340 Ry au,          9.7451 Debye
        Dipole field          0.0115 Ry au
 
        Potential amp.       -1.0330 Ry
        Total length         45.0078 bohr
 

     total cpu time spent up to now is      371.4 secs

     total energy              =   -2354.97676731 Ry
     Harris-Foulkes estimate   =   -2375.41822079 Ry
     estimated scf accuracy    <     567.91898559 Ry

     iteration #  5     ecut=    36.75 Ry     beta=0.30
     Davidson diagonalization with overlap
     ethr =  1.00E-02,  avg # of iterations =  6.2

     negative rho (up, down):  1.001E+00 0.000E+00
 
     Adding external electric field

     Computed dipole along edir(3) : 
        Dipole                4.0206 Ry au,         10.2195 Debye
        Dipole field          0.0120 Ry au
 
        Potential amp.       -1.0833 Ry
        Total length         45.0078 bohr
 

     total cpu time spent up to now is      422.6 secs

     total energy              =   -2360.06759281 Ry
     Harris-Foulkes estimate   =   -2366.32198248 Ry
     estimated scf accuracy    <      50.40083656 Ry

     iteration #  6     ecut=    36.75 Ry     beta=0.30
     Davidson diagonalization with overlap
     ethr =  1.00E-02,  avg # of iterations =  5.0

     negative rho (up, down):  9.195E-01 0.000E+00
 
     Adding external electric field

     Computed dipole along edir(3) : 
        Dipole                2.4870 Ry au,          6.3212 Debye
        Dipole field          0.0074 Ry au
 
        Potential amp.       -0.6701 Ry
        Total length         45.0078 bohr
 

     total cpu time spent up to now is      461.8 secs

     total energy              =   -2359.06025618 Ry
     Harris-Foulkes estimate   =   -2365.69437763 Ry
     estimated scf accuracy    <     201.03843206 Ry

     iteration #  7     ecut=    36.75 Ry     beta=0.30
     Davidson diagonalization with overlap
     ethr =  1.00E-02,  avg # of iterations =  3.6

     negative rho (up, down):  9.190E-01 0.000E+00
 
     Adding external electric field

     Computed dipole along edir(3) : 
        Dipole                1.5076 Ry au,          3.8321 Debye
        Dipole field          0.0045 Ry au
 
        Potential amp.       -0.4062 Ry
        Total length         45.0078 bohr
 

     total cpu time spent up to now is      494.3 secs

     total energy              =   -2361.40318919 Ry
     Harris-Foulkes estimate   =   -2362.08456206 Ry
     estimated scf accuracy    <       3.24493386 Ry

     iteration #  8     ecut=    36.75 Ry     beta=0.30
     Davidson diagonalization with overlap
     ethr =  1.65E-03,  avg # of iterations =  6.3

     negative rho (up, down):  9.165E-01 0.000E+00
 
     Adding external electric field

     Computed dipole along edir(3) : 
        Dipole                0.3272 Ry au,          0.8318 Debye
        Dipole field          0.0010 Ry au
 
        Potential amp.       -0.0882 Ry
        Total length         45.0078 bohr
 

     total cpu time spent up to now is      539.3 secs

     total energy              =   -2360.25456230 Ry
     Harris-Foulkes estimate   =   -2362.20833384 Ry
     estimated scf accuracy    <      39.60997975 Ry

     iteration #  9     ecut=    36.75 Ry     beta=0.30
     Davidson diagonalization with overlap
     ethr =  1.65E-03,  avg # of iterations =  4.9

     negative rho (up, down):  9.162E-01 0.000E+00
 
     Adding external electric field

     Computed dipole along edir(3) : 
        Dipole                0.6386 Ry au,          1.6231 Debye
        Dipole field          0.0019 Ry au
 
        Potential amp.       -0.1721 Ry
        Total length         45.0078 bohr
 

     total cpu time spent up to now is      584.8 secs

     total energy              =   -2361.58176447 Ry
     Harris-Foulkes estimate   =   -2362.00276404 Ry
     estimated scf accuracy    <      34.80486175 Ry

     iteration # 10     ecut=    36.75 Ry     beta=0.30
     Davidson diagonalization with overlap
     ethr =  1.65E-03,  avg # of iterations =  1.4

     negative rho (up, down):  9.158E-01 0.000E+00
 
     Adding external electric field

     Computed dipole along edir(3) : 
        Dipole                0.5906 Ry au,          1.5011 Debye
        Dipole field          0.0018 Ry au
 
        Potential amp.       -0.1591 Ry
        Total length         45.0078 bohr
 

     total cpu time spent up to now is      614.3 secs

     total energy              =   -2361.39607235 Ry
     Harris-Foulkes estimate   =   -2361.75631797 Ry
     estimated scf accuracy    <      21.04020057 Ry

     iteration # 11     ecut=    36.75 Ry     beta=0.30
     Davidson diagonalization with overlap
     ethr =  1.65E-03,  avg # of iterations =  1.8

     negative rho (up, down):  9.137E-01 0.000E+00
 
     Adding external electric field

     Computed dipole along edir(3) : 
        Dipole               -0.6011 Ry au,         -1.5280 Debye
        Dipole field         -0.0018 Ry au
 
        Potential amp.        0.1620 Ry
        Total length         45.0078 bohr
 

     total cpu time spent up to now is      644.3 secs

     total energy              =   -2361.35576414 Ry
     Harris-Foulkes estimate   =   -2361.55482351 Ry
[...]
    -1.6988  -1.5981  -1.0236  -0.9319  -0.8482  -0.7635  -0.5746  -0.3236
    -0.2898  -0.2590  -0.2044  -0.1622  -0.0243   0.1228   0.2654   0.3266
     0.3687   0.4804   0.5325   0.6150   0.7234   0.8974   1.1371   1.3218
     1.3988   1.5218   1.5743   1.7042   1.7577   1.8465   1.9354   1.9672
     2.3071   2.3781   2.4543   2.5683   2.6780   2.8889   2.9751   3.0142
     3.0859   3.2343   3.3499   3.5012

          k = 0.0615-0.0355 0.0000 ( 15793 PWs)   bands (ev):

   -70.9714 -70.9137 -70.8852 -70.8830 -70.8368 -70.7851 -70.7723 -70.4150
   -70.3960 -70.3675 -70.3487 -70.3144 -41.3686 -41.1926 -41.1920 -41.1440
   -41.1009 -41.0921 -41.0870 -40.9201 -40.8961 -40.8735 -40.7887 -40.7814
   -40.7679 -40.7210 -40.7051 -40.6555 -40.5939 -40.5762 -40.5692 -40.5643
   -40.5371 -40.5299 -40.4786 -40.4651 -40.3303 -40.3020 -40.2651 -40.2643
   -40.2565 -40.2467 -40.2402 -40.2034 -40.1981 -40.1589 -40.1191 -40.0347
   -12.5487  -3.8758  -3.4576  -3.1086  -3.0872  -2.9015  -2.6739  -2.6620
    -2.5337  -2.4131  -2.3331  -2.3112  -2.1875  -2.0064  -1.9502  -1.7359
    -1.6056  -1.4673  -1.1052  -0.8985  -0.8670  -0.7695  -0.6161  -0.3801
    -0.3551  -0.3143  -0.2131  -0.1031  -0.0122   0.0267   0.2973   0.3197
     0.3883   0.4605   0.4829   0.6234   0.6496   0.7681   1.1363   1.1923
     1.3009   1.4249   1.4432   1.4807   1.5841   1.6717   1.8000   1.8431
     2.1463   2.2116   2.4265   2.4607   2.5608   2.6412   2.7862   2.8104
     2.9364   3.0618   3.2210   3.2652

          k = 0.0615 0.0000 0.0000 ( 15768 PWs)   bands (ev):

   -70.9780 -70.9005 -70.8975 -70.8770 -70.8399 -70.7822 -70.7727 -70.4202
   -70.3958 -70.3608 -70.3511 -70.3133 -41.3895 -41.2192 -41.1827 -41.1737
   -41.1197 -41.1169 -41.0946 -40.9133 -40.8970 -40.8541 -40.7939 -40.7495
   -40.7387 -40.7192 -40.7026 -40.6763 -40.5935 -40.5858 -40.5714 -40.5601
   -40.5428 -40.5138 -40.5001 -40.4793 -40.3313 -40.2812 -40.2663 -40.2592
   -40.2586 -40.2547 -40.2075 -40.1922 -40.1636 -40.1595 -40.1200 -40.0280
   -12.5627  -3.9129  -3.5545  -3.3044  -3.1348  -2.9111  -2.8741  -2.7580
    -2.5956  -2.5447  -2.5157  -2.4313  -2.3156  -2.0582  -1.9729  -1.8328
    -1.6989  -1.5980  -1.0236  -0.9318  -0.8482  -0.7635  -0.5746  -0.3235
    -0.2899  -0.2590  -0.2044  -0.1622  -0.0243   0.1228   0.2654   0.3265
     0.3687   0.4804   0.5324   0.6150   0.7234   0.8976   1.1371   1.3218
     1.3986   1.5219   1.5743   1.7041   1.7577   1.8465   1.9356   1.9671
     2.3072   2.3781   2.4542   2.5684   2.6780   2.8888   2.9751   3.0142
     3.0860   3.2343   3.3499   3.5012

          k = 0.0615 0.0355 0.0000 ( 15793 PWs)   bands (ev):

   -70.9714 -70.9137 -70.8849 -70.8832 -70.8368 -70.7852 -70.7723 -70.4150
   -70.3960 -70.3673 -70.3489 -70.3143 -41.3686 -41.1927 -41.1919 -41.1439
   -41.1009 -41.0923 -41.0868 -40.9201 -40.8962 -40.8734 -40.7888 -40.7813
   -40.7679 -40.7209 -40.7051 -40.6554 -40.5940 -40.5762 -40.5693 -40.5643
   -40.5371 -40.5298 -40.4787 -40.4651 -40.3303 -40.3020 -40.2650 -40.2644
   -40.2564 -40.2469 -40.2401 -40.2034 -40.1981 -40.1589 -40.1191 -40.0346
   -12.5487  -3.8758  -3.4576  -3.1087  -3.0871  -2.9015  -2.6738  -2.6621
    -2.5336  -2.4131  -2.3330  -2.3113  -2.1876  -2.0062  -1.9501  -1.7360
    -1.6057  -1.4672  -1.1052  -0.8983  -0.8670  -0.7695  -0.6161  -0.3801
    -0.3550  -0.3143  -0.2132  -0.1032  -0.0121   0.0267   0.2973   0.3197
     0.3883   0.4605   0.4827   0.6233   0.6496   0.7680   1.1363   1.1923
     1.3010   1.4249   1.4432   1.4806   1.5841   1.6717   1.7999   1.8432
     2.1462   2.2117   2.4266   2.4607   2.5608   2.6412   2.7861   2.8104
     2.9364   3.0618   3.2210   3.2651

          k = 0.0615-0.1420 0.0000 ( 15803 PWs)   bands (ev):

   -70.9535 -70.9243 -70.9028 -70.8732 -70.8297 -70.7908 -70.7730 -70.4016
   -70.3963 -70.3759 -70.3543 -70.3141 -41.3156 -41.1578 -41.1454 -41.1131
   -41.0721 -41.0558 -41.0272 -40.9783 -40.9244 -40.8972 -40.8535 -40.8095
   -40.7550 -40.7082 -40.6917 -40.6553 -40.6133 -40.5928 -40.5734 -40.5372
   -40.5270 -40.5026 -40.4744 -40.4206 -40.3580 -40.3230 -40.3100 -40.2847
   -40.2618 -40.2595 -40.2382 -40.2271 -40.1966 -40.1904 -40.1204 -40.0687
   -12.5205  -3.8038  -3.0303  -3.0031  -2.8282  -2.6237  -2.3816  -2.3560
    -2.2700  -2.1383  -2.0893  -1.9964  -1.9154  -1.7890  -1.6979  -1.5387
    -1.4736  -1.3560  -1.2140  -1.0439  -0.9148  -0.8207  -0.6967  -0.6107
    -0.5407  -0.4752  -0.3245  -0.2019  -0.1083  -0.0068   0.0666   0.1757
     0.2651   0.3267   0.3954   0.4384   0.5804   0.7080   0.8664   0.9284
     0.9576   0.9820   1.1023   1.3146   1.4860   1.5832   1.6767   1.7274
     1.8977   1.9956   2.1031   2.2041   2.4395   2.5339   2.6042   2.8179
     2.9053   3.1176   3.1389   3.2131

          k = 0.0615-0.1065 0.0000 ( 15828 PWs)   bands (ev):

   -70.9329 -70.9260 -70.9259 -70.8692 -70.8254 -70.7940 -70.7737 -70.3972
   -70.3856 -70.3851 -70.3615 -70.3132 -41.2766 -41.1527 -41.0993 -41.0804
   -41.0646 -41.0319 -40.9899 -40.9810 -40.9792 -40.9648 -40.8764 -40.8053
   -40.7417 -40.6994 -40.6781 -40.6517 -40.6365 -40.5943 -40.5883 -40.5348
   -40.5317 -40.4743 -40.4396 -40.3888 -40.3879 -40.3772 -40.3141 -40.2911
   -40.2734 -40.2628 -40.2518 -40.2442 -40.1957 -40.1423 -40.1249 -40.1232
   -12.5063  -3.7567  -2.9371  -2.7925  -2.5061  -2.3638  -2.3431  -2.0724
    -1.9876  -1.9540  -1.9001  -1.8294  -1.7458  -1.7209  -1.6483  -1.5772
    -1.5535  -1.3482  -1.1590  -1.1008  -1.0816  -0.7908  -0.6855  -0.6603
    -0.5274  -0.4679  -0.4418  -0.3611  -0.2778  -0.2644  -0.1738  -0.1362
    -0.0841   0.0909   0.3663   0.4492   0.4698   0.5749   0.6066   0.6686
     0.8544   0.8889   1.2260   1.3774   1.3780   1.4768   1.7619   1.8282
     1.9351   1.9753   2.2499   2.3150   2.4335   2.5704   2.8818   2.8866
     3.0582   3.1369   3.2697   3.3027

          k = 0.0615-0.0710 0.0000 ( 15803 PWs)   bands (ev):

   -70.9535 -70.9243 -70.9028 -70.8732 -70.8297 -70.7908 -70.7730 -70.4015
   -70.3963 -70.3761 -70.3542 -70.3141 -41.3156 -41.1578 -41.1453 -41.1132
   -41.0722 -41.0557 -41.0271 -40.9783 -40.9245 -40.8971 -40.8535 -40.8095
   -40.7551 -40.7082 -40.6917 -40.6553 -40.6133 -40.5928 -40.5734 -40.5372
   -40.5269 -40.5026 -40.4745 -40.4206 -40.3580 -40.3230 -40.3099 -40.2846
   -40.2619 -40.2594 -40.2382 -40.2272 -40.1966 -40.1904 -40.1204 -40.0688
   -12.5205  -3.8038  -3.0303  -3.0030  -2.8284  -2.6238  -2.3815  -2.3561
    -2.2701  -2.1383  -2.0894  -1.9965  -1.9153  -1.7889  -1.6979  -1.5387
    -1.4736  -1.3559  -1.2140  -1.0439  -0.9148  -0.8206  -0.6967  -0.6108
    -0.5407  -0.4752  -0.3245  -0.2019  -0.1083  -0.0068   0.0666   0.1757
     0.2651   0.3266   0.3954   0.4384   0.5805   0.7080   0.8664   0.9285
     0.9577   0.9820   1.1023   1.3147   1.4860   1.5832   1.6768   1.7274
     1.8977   1.9956   2.1031   2.2041   2.4395   2.5339   2.6042   2.8179
     2.9053   3.1176   3.1389   3.2132

          k =-0.0922 0.0532 0.0000 ( 15808 PWs)   bands (ev):

   -70.9455 -70.9400 -70.8852 -70.8831 -70.8294 -70.7917 -70.7723 -70.3987
   -70.3958 -70.3835 -70.3488 -70.3155 -41.3176 -41.1670 -41.1500 -41.1300
   -41.0595 -41.0591 -40.9623 -40.9528 -40.9243 -40.9179 -40.8854 -40.8289
   -40.7775 -40.7105 -40.6879 -40.6208 -40.6144 -40.6006 -40.5809 -40.5448
   -40.5257 -40.5095 -40.4618 -40.3569 -40.3429 -40.3375 -40.3221 -40.2981
   -40.2763 -40.2627 -40.2555 -40.2361 -40.2103 -40.1980 -40.0878 -40.0664
   -12.5206  -3.8511  -2.9928  -2.8610  -2.8607  -2.8109  -2.4302  -2.3798
    -2.3457  -2.1119  -2.0134  -1.9031  -1.8262  -1.7920  -1.7691  -1.5314
    -1.4754  -1.4190  -1.3029  -1.0110  -0.8941  -0.7811  -0.7541  -0.5420
    -0.5093  -0.4550  -0.2523  -0.1409   0.0141   0.0314   0.3066   0.3881
     0.3887   0.4513   0.4627   0.5315   0.6000   0.6236   0.7147   0.7457
     0.7720   0.9175   1.2624   1.3010   1.4066   1.4618   1.6854   1.7799
     1.8282   1.8499   1.9172   2.1709   2.2783   2.2995   2.5153   2.5386
     2.6351   2.7448   3.0676   3.2535

          k =-0.0922 0.0887 0.0000 ( 15803 PWs)   bands (ev):

   -70.9535 -70.9243 -70.9028 -70.8732 -70.8297 -70.7907 -70.7730 -70.4016
   -70.3963 -70.3760 -70.3543 -70.3141 -41.3156 -41.1578 -41.1453 -41.1131
   -41.0722 -41.0557 -41.0271 -40.9783 -40.9244 -40.8971 -40.8535 -40.8095
   -40.7551 -40.7081 -40.6917 -40.6553 -40.6133 -40.5928 -40.5734 -40.5373
   -40.5269 -40.5026 -40.4745 -40.4206 -40.3579 -40.3230 -40.3099 -40.2847
   -40.2618 -40.2595 -40.2382 -40.2272 -40.1966 -40.1903 -40.1204 -40.0687
   -12.5205  -3.8038  -3.0304  -3.0032  -2.8282  -2.6238  -2.3816  -2.3560
    -2.2701  -2.1383  -2.0893  -1.9965  -1.9153  -1.7889  -1.6979  -1.5387
    -1.4736  -1.3559  -1.2140  -1.0440  -0.9148  -0.8207  -0.6967  -0.6107
    -0.5407  -0.4752  -0.3245  -0.2018  -0.1083  -0.0068   0.0667   0.1757
     0.2650   0.3266   0.3954   0.4384   0.5805   0.7080   0.8664   0.9284
     0.9577   0.9821   1.1023   1.3146   1.4860   1.5832   1.6769   1.7273
     1.8977   1.9957   2.1031   2.2040   2.4395   2.5340   2.6042   2.8179
     2.9053   3.1175   3.1389   3.2131

          k =-0.0922 0.1242 0.0000 ( 15803 PWs)   bands (ev):

   -70.9535 -70.9243 -70.9028 -70.8732 -70.8297 -70.7907 -70.7730 -70.4016
   -70.3963 -70.3758 -70.3544 -70.3141 -41.3156 -41.1578 -41.1454 -41.1131
   -41.0722 -41.0557 -41.0272 -40.9783 -40.9244 -40.8972 -40.8535 -40.8095
   -40.7550 -40.7082 -40.6917 -40.6553 -40.6133 -40.5928 -40.5735 -40.5373
   -40.5270 -40.5027 -40.4744 -40.4206 -40.3579 -40.3230 -40.3100 -40.2847
   -40.2618 -40.2596 -40.2382 -40.2271 -40.1966 -40.1903 -40.1204 -40.0687
   -12.5205  -3.8038  -3.0303  -3.0032  -2.8282  -2.6237  -2.3816  -2.3560
    -2.2700  -2.1383  -2.0893  -1.9964  -1.9154  -1.7890  -1.6979  -1.5387
    -1.4735  -1.3559  -1.2140  -1.0439  -0.9148  -0.8206  -0.6967  -0.6107
    -0.5407  -0.4752  -0.3245  -0.2019  -0.1082  -0.0068   0.0666   0.1757
     0.2651   0.3267   0.3955   0.4384   0.5804   0.7081   0.8664   0.9284
     0.9576   0.9821   1.1023   1.3145   1.4860   1.5832   1.6768   1.7274
     1.8978   1.9957   2.1031   2.2040   2.4395   2.5340   2.6042   2.8179
     2.9052   3.1175   3.1389   3.2131

          k =-0.0922-0.0532 0.0000 ( 15808 PWs)   bands (ev):

   -70.9454 -70.9401 -70.8850 -70.8833 -70.8294 -70.7917 -70.7723 -70.3988
   -70.3958 -70.3832 -70.3489 -70.3154 -41.3175 -41.1670 -41.1501 -41.1299
   -41.0597 -41.0589 -40.9624 -40.9528 -40.9244 -40.9178 -40.8855 -40.8291
   -40.7773 -40.7104 -40.6879 -40.6209 -40.6142 -40.6006 -40.5810 -40.5448
   -40.5258 -40.5093 -40.4618 -40.3570 -40.3428 -40.3375 -40.3220 -40.2983
   -40.2763 -40.2625 -40.2557 -40.2361 -40.2103 -40.1980 -40.0879 -40.0662
   -12.5206  -3.8513  -2.9929  -2.8608  -2.8608  -2.8109  -2.4301  -2.3796
    -2.3459  -2.1116  -2.0134  -1.9031  -1.8261  -1.7920  -1.7693  -1.5313
    -1.4755  -1.4189  -1.3029  -1.0110  -0.8941  -0.7812  -0.7540  -0.5418
    -0.5095  -0.4550  -0.2523  -0.1409   0.0143   0.0313   0.3066   0.3880
     0.3887   0.4514   0.4627   0.5316   0.6000   0.6234   0.7147   0.7457
     0.7720   0.9174   1.2624   1.3010   1.4065   1.4618   1.6854   1.7798
     1.8282   1.8500   1.9173   2.1708   2.2784   2.2996   2.5153   2.5386
     2.6351   2.7448   3.0676   3.2535

     the Fermi energy is     2.3742 ev

!    total energy              =   -2361.60708861 Ry
     Harris-Foulkes estimate   =   -2361.60709514 Ry
     estimated scf accuracy    <       0.00000448 Ry

     The total energy is the sum of the following terms:

     one-electron contribution =  -22756.83497487 Ry
     hartree contribution      =   11379.30924096 Ry
     xc contribution           =    -327.58869098 Ry
     ewald contribution        =    9343.59342829 Ry
     electric field correction =       0.00002052 Ry
     smearing contrib. (-TS)   =      -0.08611253 Ry

     convergence has been achieved in  25 iterations
 
 BEEF-vdW xc energy contributions
           1 :   -284.111629701485     
           2 :    260.929752677784     
           3 :   -220.731959343395     
           4 :    173.363977101313     
           5 :   -128.876640990788     
           6 :    94.5093483828507     
           7 :   -73.0496160489088     
           8 :    62.9222608142422     
           9 :   -59.7263035888835     
          10 :    58.4397465346149     
          11 :   -55.3752730498816     
          12 :    49.1992285531907     
          13 :   -40.8085690835767     
          14 :    32.3461348197000     
          15 :   -25.9232058594733     
          16 :    22.6195595280996     
          17 :   -22.1180975030082     
          18 :    23.0213712104230     
          19 :   -23.6152644986270     
          20 :    22.6810994371004     
          21 :   -19.9820927763713     
          22 :    16.2387757543981     
          23 :   -12.6640057204869     
          24 :    10.3218506319962     
          25 :   -9.62858545463496     
          26 :    10.2139094239335     
          27 :   -11.1732080387272     
          28 :    11.5532462537122     
          29 :   -10.8143488622809     
          30 :    9.04667409278971     
          31 :   -29.5536829144016     
          32 :   -22.4372082592444     

     Forces acting on atoms (Ry/au):


     negative rho (up, down):  9.203E-01 0.000E+00
     atom    1 type  1   force =     0.00521876    0.00302458    0.02839755
     atom    2 type  1   force =    -0.00521391    0.00300648    0.02839834
     atom    3 type  1   force =    -0.00001290   -0.00602814    0.02838328
     atom    4 type  1   force =     0.00002109   -0.00000872    0.01389642
     atom    5 type  1   force =    -0.00002597   -0.00781209   -0.01731872
     atom    6 type  1   force =     0.00002191    0.00000780   -0.04709601
     atom    7 type  1   force =     0.00678048    0.00391846   -0.01735873
     atom    8 type  1   force =    -0.00677735    0.00388615   -0.01733755
     atom    9 type  1   force =     0.00003228    0.00002530    0.00022791
     atom   10 type  1   force =    -0.00002476    0.00006658   -0.00012997
     atom   11 type  1   force =    -0.00003298   -0.00004556   -0.00019074
     atom   12 type  1   force =     0.00004845   -0.00001835   -0.00018781
     atom   13 type  2   force =    -0.00003510   -0.00002249    0.00031601

     Total force =     0.077615     Total SCF correction =     0.006231


     entering subroutine stress ...


     negative rho (up, down):  9.203E-01 0.000E+00
          total   stress  (Ry/bohr**3)                   (kbar)     P=  -16.20
  -0.00011079  -0.00000002  -0.00000002        -16.30     -0.00     -0.00
  -0.00000002  -0.00011086  -0.00000006         -0.00    -16.31     -0.01
  -0.00000002  -0.00000006  -0.00010863         -0.00     -0.01    -15.98

 !ASE

     Writing output data file calc.save
 
     init_run     :     12.29s CPU     17.79s WALL (       1 calls)
     electrons    :    795.36s CPU   1107.47s WALL (       1 calls)
     forces       :      3.21s CPU      3.96s WALL (       1 calls)
     stress       :      8.05s CPU      9.24s WALL (       1 calls)

     Called by init_run:
     wfcinit      :     10.05s CPU     14.90s WALL (       1 calls)
     potinit      :      1.19s CPU      1.65s WALL (       1 calls)

     Called by electrons:
     c_bands      :    648.38s CPU    888.51s WALL (      25 calls)
     sum_band     :     81.40s CPU    122.71s WALL (      25 calls)
     v_of_rho     :     25.28s CPU     37.66s WALL (      26 calls)
     newd         :      9.47s CPU      9.84s WALL (      26 calls)
     mix_rho      :      1.02s CPU      1.54s WALL (      25 calls)
     vdW_energy   :      2.58s CPU      2.61s WALL (      62 calls)
     vdW_ffts     :     34.77s CPU     56.56s WALL (     126 calls)
     vdW_v        :      6.67s CPU      9.97s WALL (      62 calls)

     Called by c_bands:
     init_us_2    :      0.96s CPU      1.00s WALL (    1060 calls)
     cegterg      :    639.32s CPU    878.39s WALL (     500 calls)

     Called by *egterg:
     h_psi        :    390.04s CPU    609.07s WALL (    2735 calls)
     s_psi        :     14.91s CPU     15.05s WALL (    2735 calls)
     g_psi        :      0.97s CPU      0.98s WALL (    2215 calls)
     cdiaghg      :    151.33s CPU    156.42s WALL (    2715 calls)

     Called by h_psi:
     add_vuspsi   :     15.20s CPU     15.33s WALL (    2735 calls)

     General routines
     calbec       :     31.36s CPU     37.99s WALL (    3275 calls)
     fft          :     53.14s CPU     86.12s WALL (    3819 calls)
     ffts         :      0.20s CPU      0.32s WALL (      51 calls)
     fftw         :    398.27s CPU    649.66s WALL (  356768 calls)
     interpolate  :      0.88s CPU      1.42s WALL (      51 calls)
     davcio       :      0.00s CPU      0.02s WALL (      20 calls)
 
     Parallel routines
     fft_scatter  :    407.89s CPU    689.60s WALL (  360638 calls)
 
     PWSCF        : 13m39.66s CPU    18m59.72s WALL

 
   This run was terminated on:   6:38:11  18Jan2018            

=------------------------------------------------------------------------------=
   JOB DONE.
=------------------------------------------------------------------------------=
Job  /afs/slac/g/suncat/bin/suncat-tsmpirun -x LD_LIBRARY_PATH -wdir /scratch/qe842477_s7B5m pw.x -in pw.inp

TID   HOST_NAME   COMMAND_LINE            STATUS            TERMINATION_TIME
===== ========== ================  =======================  ===================
00000 suncat0153 pw.x -in pw.inp   Done                     01/18/2018 06:38:11
00001 suncat0153 pw.x -in pw.inp   Done                     01/18/2018 06:38:11
00002 suncat0153 pw.x -in pw.inp   Done                     01/18/2018 06:38:11
00003 suncat0153 pw.x -in pw.inp   Done                     01/18/2018 06:38:11
00004 suncat0153 pw.x -in pw.inp   Done                     01/18/2018 06:38:11
00005 suncat0153 pw.x -in pw.inp   Done                     01/18/2018 06:38:11
00006 suncat0153 pw.x -in pw.inp   Done                     01/18/2018 06:38:11
00007 suncat0153 pw.x -in pw.inp   Done                     01/18/2018 06:38:11
00008 suncat0146 pw.x -in pw.inp   Done                     01/18/2018 06:38:11
00009 suncat0146 pw.x -in pw.inp   Done                     01/18/2018 06:38:11
00010 suncat0146 pw.x -in pw.inp   Done                     01/18/2018 06:38:11
00011 suncat0146 pw.x -in pw.inp   Done                     01/18/2018 06:38:11
00012 suncat0146 pw.x -in pw.inp   Done                     01/18/2018 06:38:11
00013 suncat0146 pw.x -in pw.inp   Done                     01/18/2018 06:38:11
00014 suncat0146 pw.x -in pw.inp   Done                     01/18/2018 06:38:11
00015 suncat0146 pw.x -in pw.inp   Done                     01/18/2018 06:38:11
00016 suncat0115 pw.x -in pw.inp   Done                     01/18/2018 06:38:11
00017 suncat0115 pw.x -in pw.inp   Done                     01/18/2018 06:38:11
00018 suncat0115 pw.x -in pw.inp   Done                     01/18/2018 06:38:11
00019 suncat0115 pw.x -in pw.inp   Done                     01/18/2018 06:38:11
00020 suncat0115 pw.x -in pw.inp   Done                     01/18/2018 06:38:11
00021 suncat0115 pw.x -in pw.inp   Done                     01/18/2018 06:38:11
00022 suncat0115 pw.x -in pw.inp   Done                     01/18/2018 06:38:11
00023 suncat0115 pw.x -in pw.inp   Done                     01/18/2018 06:38:11
00024 suncat0114 pw.x -in pw.inp   Done                     01/18/2018 06:38:11
00025 suncat0114 pw.x -in pw.inp   Done                     01/18/2018 06:38:11
00026 suncat0114 pw.x -in pw.inp   Done                     01/18/2018 06:38:11
00027 suncat0114 pw.x -in pw.inp   Done                     01/18/2018 06:38:11
00028 suncat0114 pw.x -in pw.inp   Done                     01/18/2018 06:38:11
00029 suncat0114 pw.x -in pw.inp   Done                     01/18/2018 06:38:11
00030 suncat0114 pw.x -in pw.inp   Done                     01/18/2018 06:38:11
00031 suncat0114 pw.x -in pw.inp   Done                     01/18/2018 06:38:11
