  python dir    : /nfs/slac/g/suncatfs/mamunm/src/decaf-espresso/decaf
espresso dir  : /nfs/slac/g/suncatfs/sw/espv18/espresso-dynpy-beef/bin/pw.x
executable    : pam -g /afs/slac/g/suncat/bin/suncat-tsmpirun -x LD_LIBRARY_PATH -wdir /tmp/qe_673114zrw9zwz4_scratch pw.x -npool 2 -in pw.pwi

     Program PWSCF v.5.1rc2 (svn rev. 11289) starts on 11Jan2019 at 18:11: 0 

     This program is part of the open-source Quantum ESPRESSO suite
     for quantum simulation of materials; please cite
         "P. Giannozzi et al., J. Phys.:Condens. Matter 21 395502 (2009);
          URL http://www.quantum-espresso.org", 
     in publications or presentations arising from this work. More details at
     http://www.quantum-espresso.org/quote

     Parallel version (MPI), running on    32 processors
     K-points division:     npool     =       2
     R & G space division:  proc/nbgrp/npool/nimage =      16
     Reading input from pw.pwi
Warning: card &CELL ignored
Warning: card / ignored

     Current dimensions of program PWSCF are:
     Max number of different atomic species (ntypx) = 10
     Max number of k-points (npk) =  40000
     Max angular momentum in pseudopotentials (lmaxx) =  3

     **************************************************************************
     Initializing libbeef V0.1.1 with the BEEF-vdW functional.
     Citation: Wellendorff et al., PRB 85, 235149 (2012).
     **************************************************************************


     IMPORTANT: XC functional enforced from input :
     Exchange-correlation      = BEEF-VDW ( 1  4 27 13 2)
     Any further DFT definition will be discarded
     Please, verify this is what you really want


     Subspace diagonalization in iterative solution of the eigenvalue problem:
     a serial algorithm will be used

 
     Parallelization info
     --------------------
     sticks:   dense  smooth     PW     G-vecs:    dense   smooth      PW
     Min         141      57     16                26287     6655    1072
     Max         142      58     17                26300     6683    1085
     Sum        2263     913    265               420703   106687   17243
 
     Generating pointlists ...
     new r_m :   0.1799 (alat units)  1.7042 (a.u.) for type    1
     new r_m :   0.1799 (alat units)  1.7042 (a.u.) for type    2


     bravais-lattice index     =            0
     lattice parameter (alat)  =       9.4723  a.u.
     unit-cell volume          =    3537.7769 (a.u.)^3
     number of atoms/cell      =           13
     number of atomic types    =            2
     number of electrons       =       210.00
     number of Kohn-Sham states=          115
     kinetic-energy cutoff     =      36.7493  Ry
     charge density cutoff     =     367.4933  Ry
     convergence threshold     =      1.0E-04
     mixing beta               =       0.1000
     number of iterations used =            8  plain     mixing
     Exchange-correlation      = BEEF-VDW ( 1  4 27 13 2)
     nstep                     =           50


     celldm(1)=   9.472344  celldm(2)=   0.000000  celldm(3)=   0.000000
     celldm(4)=   0.000000  celldm(5)=   0.000000  celldm(6)=   0.000000

     crystal axes: (cart. coord. in units of alat)
               a(1) = (   1.000000   0.000000   0.000000 )  
               a(2) = (   0.500000   0.866025   0.000000 )  
               a(3) = (   0.000000   0.000000   4.806483 )  

     reciprocal axes: (cart. coord. in units 2 pi/alat)
               b(1) = (  1.000000 -0.577350  0.000000 )  
               b(2) = (  0.000000  1.154701  0.000000 )  
               b(3) = (  0.000000  0.000000  0.208052 )  


     PseudoPot. # 1 for Co read from file:
     /u/if/jboes/code/decaf-espresso/gbrv15pbe/Co.UPF
     MD5 check sum: 5f91765df6ddd3222702df6e7b74a16d
     Pseudo is Ultrasoft + core correction, Zval = 17.0
     Generated by new atomic code, or converted to UPF format
     Using radial grid of  863 points,  6 beta functions with: 
                l(1) =   0
                l(2) =   0
                l(3) =   1
                l(4) =   1
                l(5) =   2
                l(6) =   2
     Q(r) pseudized with  8 coefficients,  rinner =    1.200   1.200   1.200
                                                       1.200   1.200

     PseudoPot. # 2 for S  read from file:
     /u/if/jboes/code/decaf-espresso/gbrv15pbe/S.UPF
     MD5 check sum: 88d86576ff6df21479756cfb9bdac1df
     Pseudo is Ultrasoft + core correction, Zval =  6.0
     Generated by new atomic code, or converted to UPF format
     Using radial grid of  907 points,  6 beta functions with: 
                l(1) =   0
                l(2) =   0
                l(3) =   1
                l(4) =   1
                l(5) =   2
                l(6) =   2
     Q(r) pseudized with  8 coefficients,  rinner =    1.300   1.300   1.300
                                                       1.300   1.300

     vdW kernel table read from file vdW_kernel_table
     MD5 check sum: 095c7af220d748ca6e76c0b4c6cfb241

     atomic species   valence    mass     pseudopotential
        Co            17.00    58.93319     Co( 1.00)
        S              6.00    32.06000     S ( 1.00)

     Starting magnetic structure 
     atomic species   magnetization
        Co           0.118
        S            0.000

     No symmetry found



   Cartesian axes

     site n.     atom                  positions (alat units)
         1           Co  tau(   1) = (   0.2500000   0.1443376   1.9949931  )
         2           Co  tau(   2) = (   0.7500000   0.1443376   1.9949931  )
         3           Co  tau(   3) = (   0.5000000   0.5773503   1.9949931  )
         4           Co  tau(   4) = (   1.0000000   0.5773503   1.9949931  )
         5           Co  tau(   5) = (   1.0000000   0.2886751   2.4032414  )
         6           Co  tau(   6) = (   0.5000000   0.2886751   2.4032414  )
         7           Co  tau(   7) = (   1.2500000   0.7216878   2.4032414  )
         8           Co  tau(   8) = (   0.7500000   0.7216878   2.4032414  )
         9           Co  tau(   9) = (  -0.0056635  -0.0032701   2.8074432  )
        10           Co  tau(  10) = (   0.5056623  -0.0032701   2.8074370  )
        11           Co  tau(  11) = (   0.2499992   0.4395510   2.8074365  )
        12           Co  tau(  12) = (   0.7499976   0.4330132   2.8026589  )
        13           S   tau(  13) = (   0.2499982   0.1443355   3.1285059  )

     number of k points=    40  Fermi-Dirac smearing, width (Ry)=  0.0110
                       cart. coord. in units 2pi/alat
        k(    1) = (   0.0000000   0.0000000   0.0000000), wk =   0.0277778
        k(    2) = (   0.0000000   0.1924501   0.0000000), wk =   0.0555556
        k(    3) = (   0.0000000   0.3849002   0.0000000), wk =   0.0555556
        k(    4) = (   0.0000000  -0.5773503   0.0000000), wk =   0.0277778
        k(    5) = (   0.1666667  -0.0962250   0.0000000), wk =   0.0555556
        k(    6) = (   0.1666667   0.0962250   0.0000000), wk =   0.0555556
        k(    7) = (   0.1666667   0.2886751   0.0000000), wk =   0.0555556
        k(    8) = (   0.1666667  -0.6735753   0.0000000), wk =   0.0555556
        k(    9) = (   0.1666667  -0.4811252   0.0000000), wk =   0.0555556
        k(   10) = (   0.1666667  -0.2886751   0.0000000), wk =   0.0555556
        k(   11) = (   0.3333333  -0.1924501   0.0000000), wk =   0.0555556
        k(   12) = (   0.3333333  -0.0000000   0.0000000), wk =   0.0555556
        k(   13) = (   0.3333333   0.1924501   0.0000000), wk =   0.0555556
        k(   14) = (   0.3333333  -0.7698004   0.0000000), wk =   0.0555556
        k(   15) = (   0.3333333  -0.5773503   0.0000000), wk =   0.0555556
        k(   16) = (   0.3333333  -0.3849002   0.0000000), wk =   0.0555556
        k(   17) = (  -0.5000000   0.2886751   0.0000000), wk =   0.0277778
        k(   18) = (  -0.5000000   0.4811252   0.0000000), wk =   0.0555556
        k(   19) = (  -0.5000000   0.6735753   0.0000000), wk =   0.0555556
        k(   20) = (  -0.5000000  -0.2886751   0.0000000), wk =   0.0277778
        k(   21) = (   0.0000000   0.0000000   0.0000000), wk =   0.0277778
        k(   22) = (   0.0000000   0.1924501   0.0000000), wk =   0.0555556
        k(   23) = (   0.0000000   0.3849002   0.0000000), wk =   0.0555556
        k(   24) = (   0.0000000  -0.5773503   0.0000000), wk =   0.0277778
        k(   25) = (   0.1666667  -0.0962250   0.0000000), wk =   0.0555556
        k(   26) = (   0.1666667   0.0962250   0.0000000), wk =   0.0555556
        k(   27) = (   0.1666667   0.2886751   0.0000000), wk =   0.0555556
        k(   28) = (   0.1666667  -0.6735753   0.0000000), wk =   0.0555556
        k(   29) = (   0.1666667  -0.4811252   0.0000000), wk =   0.0555556
        k(   30) = (   0.1666667  -0.2886751   0.0000000), wk =   0.0555556
        k(   31) = (   0.3333333  -0.1924501   0.0000000), wk =   0.0555556
        k(   32) = (   0.3333333  -0.0000000   0.0000000), wk =   0.0555556
        k(   33) = (   0.3333333   0.1924501   0.0000000), wk =   0.0555556
        k(   34) = (   0.3333333  -0.7698004   0.0000000), wk =   0.0555556
        k(   35) = (   0.3333333  -0.5773503   0.0000000), wk =   0.0555556
        k(   36) = (   0.3333333  -0.3849002   0.0000000), wk =   0.0555556
        k(   37) = (  -0.5000000   0.2886751   0.0000000), wk =   0.0277778
        k(   38) = (  -0.5000000   0.4811252   0.0000000), wk =   0.0555556
        k(   39) = (  -0.5000000   0.6735753   0.0000000), wk =   0.0555556
        k(   40) = (  -0.5000000  -0.2886751   0.0000000), wk =   0.0277778

     Dense  grid:   420703 G-vectors     FFT dimensions: (  60,  60, 288)

     Smooth grid:   106687 G-vectors     FFT dimensions: (  40,  40, 180)

     Largest allocated arrays     est. size (Mb)     dimensions
        Kohn-Sham Wavefunctions         1.63 Mb     (     930,  115)
        NL pseudopotentials             3.32 Mb     (     930,  234)
        Each V/rho on FFT grid          1.98 Mb     (   64800,   2)
        Each G-vector array             0.20 Mb     (   26295)
        G-vector shells                 0.08 Mb     (   10522)
     Largest temporary arrays     est. size (Mb)     dimensions
        Auxiliary wavefunctions         6.53 Mb     (     930,  460)
        Each subspace H/S matrix        3.23 Mb     (     460,  460)
        Each <psi_i|beta_j> matrix      0.41 Mb     (     234,  115)
        Arrays for rho mixing           7.91 Mb     (   64800,    8)

     Check: negative/imaginary core charge=   -0.000007    0.000000

     Initial potential from superposition of free atoms
     Check: negative starting charge=(component1):   -0.000182
     Check: negative starting charge=(component2):   -0.000142

     starting charge  197.99988, renormalised to  210.00000

     negative rho (up, down):  1.928E-04 1.510E-04


     ************************************************************************
     *
     * You are using vdW-DF for exchange-correlation in this calculation.
     * Please cite the following three references that made this development
     * possible:
     *
     *   M. Dion, H. Rydberg, E. Schroder, D. C. Langreth, and
     *   B. I. Lundqvist, Phys. Rev. Lett. 92, 246401 (2004).
     *
     *   T. Thonhauser, V. R. Cooper, S. Li, A. Puzder, P. Hyldgaard, and
     *   D. C. Langreth, Phys. Rev. B 76, 125112 (2007).
     *
     *   G. Roman-Perez and J. M. Soler, Phys. Rev. Lett. 103, 096102 (2009).
     *
     *
     * If you are using vdW-DF2, please also cite:
     *
     *   K. Lee, E. D. Murray, L. Kong, B. I. Lundqvist, and
     *   D. C. Langreth, Phys. Rev. B 82, 081101(R) (2010).
     *
     *
     * If you are calculating the stress with vdW-DF, please also cite:
     *
     *   R. Sabatini, E. Kucukbenli, B. Kolb, T. Thonhauser, and
     *   S. de Gironcoli, J. Phys.: Condens. Matter 24, 424209 (2012).
     *
     ************************************************************************

     Carrying out vdW-DF run using the following parameters:

     Nqs =      20    Nr_points =    1024   r_max =   100.000
     q_mesh =
               0.00001000     0.04494208     0.09755937     0.15916263
               0.23128650     0.31572767     0.41458969     0.53033537
               0.66584808     0.82450364     1.01025438     1.22772762
               1.48234092     1.78043706     2.12944203     2.53805004
               3.01644009     3.57652955     4.23227104     5.00000000

     Gradients computed in reciprocal space

     ************************************************************************


 
     Adding external electric field

     Computed dipole along edir(3) : 
        Dipole               -2.5039 Ry au,         -6.3644 Debye
        Dipole field         -0.0089 Ry au
 
        Potential amp.        0.7289 Ry
        Total length         40.9758 bohr
 
 
     Adding external electric field

     Computed dipole along edir(3) : 
        Dipole               -2.5039 Ry au,         -6.3644 Debye
        Dipole field         -0.0089 Ry au
 
        Potential amp.        0.7289 Ry
        Total length         40.9758 bohr
 
     Starting wfc are  160 randomized atomic wfcs

     total cpu time spent up to now is        9.6 secs

     Self-consistent Calculation

     iteration #  1     ecut=    36.75 Ry     beta=0.10
     Davidson diagonalization with overlap
     ethr =  1.00E-02,  avg # of iterations =  7.5

     negative rho (up, down):  1.673E-05 1.262E-05
 
     Adding external electric field

     Computed dipole along edir(3) : 
        Dipole               26.8884 Ry au,         68.3436 Debye
        Dipole field          0.0955 Ry au
 
        Potential amp.       -7.8271 Ry
        Total length         40.9758 bohr
 
 
     Adding external electric field

     Computed dipole along edir(3) : 
        Dipole               26.8884 Ry au,         68.3436 Debye
        Dipole field          0.0955 Ry au
 
        Potential amp.       -7.8271 Ry
        Total length         40.9758 bohr
 
 
     Magnetic moment per site:
     atom:    1    charge:   15.3556    magn:    1.7325    constr:    0.0000
     atom:    2    charge:   15.3554    magn:    1.7323    constr:    0.0000
     atom:    3    charge:   15.3555    magn:    1.7322    constr:    0.0000
     atom:    4    charge:   15.3554    magn:    1.7324    constr:    0.0000
     atom:    5    charge:   15.2006    magn:    1.7423    constr:    0.0000
     atom:    6    charge:   15.2006    magn:    1.7422    constr:    0.0000
     atom:    7    charge:   15.2035    magn:    1.7403    constr:    0.0000
     atom:    8    charge:   15.2006    magn:    1.7423    constr:    0.0000
     atom:    9    charge:   14.9410    magn:    1.6792    constr:    0.0000
     atom:   10    charge:   14.9410    magn:    1.6792    constr:    0.0000
     atom:   11    charge:   14.9410    magn:    1.6792    constr:    0.0000
     atom:   12    charge:   14.8782    magn:    1.6772    constr:    0.0000
     atom:   13    charge:    3.5768    magn:    0.0111    constr:    0.0000

     total cpu time spent up to now is       50.1 secs

     total energy              =   -3458.84821997 Ry
     Harris-Foulkes estimate   =   -3644.02481836 Ry
     estimated scf accuracy    <    1019.29093580 Ry

     total magnetization       =    10.42 Bohr mag/cell
     absolute magnetization    =    11.04 Bohr mag/cell

     iteration #  2     ecut=    36.75 Ry     beta=0.10
     Davidson diagonalization with overlap
     ethr =  1.00E-02,  avg # of iterations = 13.3
 
     Adding external electric field

     Computed dipole along edir(3) : 
        Dipole                6.5334 Ry au,         16.6062 Debye
        Dipole field          0.0232 Ry au
 
        Potential amp.       -1.9018 Ry
        Total length         40.9758 bohr
 
 
     Adding external electric field

     Computed dipole along edir(3) : 
        Dipole                6.5334 Ry au,         16.6062 Debye
        Dipole field          0.0232 Ry au
 
        Potential amp.       -1.9018 Ry
        Total length         40.9758 bohr
 
 
     Magnetic moment per site:
     atom:    1    charge:   15.1762    magn:    1.6910    constr:    0.0000
     atom:    2    charge:   15.1761    magn:    1.6908    constr:    0.0000
     atom:    3    charge:   15.1761    magn:    1.6907    constr:    0.0000
     atom:    4    charge:   15.1760    magn:    1.6910    constr:    0.0000
     atom:    5    charge:   15.0301    magn:    1.7008    constr:    0.0000
     atom:    6    charge:   15.0301    magn:    1.7008    constr:    0.0000
     atom:    7    charge:   15.0330    magn:    1.6990    constr:    0.0000
     atom:    8    charge:   15.0301    magn:    1.7009    constr:    0.0000
     atom:    9    charge:   15.0237    magn:    1.6420    constr:    0.0000
     atom:   10    charge:   15.0237    magn:    1.6420    constr:    0.0000
     atom:   11    charge:   15.0237    magn:    1.6420    constr:    0.0000
     atom:   12    charge:   14.9621    magn:    1.6401    constr:    0.0000
     atom:   13    charge:    3.6780    magn:    0.0111    constr:    0.0000

     total cpu time spent up to now is      111.1 secs

     total energy              =   -3536.13916564 Ry
     Harris-Foulkes estimate   =   -3823.92161441 Ry
     estimated scf accuracy    <    6110.74088251 Ry

     total magnetization       =     1.37 Bohr mag/cell
     absolute magnetization    =     1.77 Bohr mag/cell

     iteration #  3     ecut=    36.75 Ry     beta=0.10
     Davidson diagonalization with overlap
     ethr =  1.00E-02,  avg # of iterations =  6.7
 
     Adding external electric field

     Computed dipole along edir(3) : 
        Dipole                6.1801 Ry au,         15.7084 Debye
        Dipole field          0.0220 Ry au
 
        Potential amp.       -1.7990 Ry
        Total length         40.9758 bohr
 
 
     Adding external electric field

     Computed dipole along edir(3) : 
        Dipole                6.1801 Ry au,         15.7084 Debye
        Dipole field          0.0220 Ry au
 
        Potential amp.       -1.7990 Ry
        Total length         40.9758 bohr
 
 
     Magnetic moment per site:
     atom:    1    charge:   14.9012    magn:    1.6258    constr:    0.0000
     atom:    2    charge:   14.9009    magn:    1.6257    constr:    0.0000
     atom:    3    charge:   14.9010    magn:    1.6257    constr:    0.0000
     atom:    4    charge:   14.9008    magn:    1.6259    constr:    0.0000
     atom:    5    charge:   15.2456    magn:    1.6435    constr:    0.0000
     atom:    6    charge:   15.2457    magn:    1.6434    constr:    0.0000
     atom:    7    charge:   15.2479    magn:    1.6415    constr:    0.0000
     atom:    8    charge:   15.2456    magn:    1.6435    constr:    0.0000
     atom:    9    charge:   15.1196    magn:    1.5849    constr:    0.0000
     atom:   10    charge:   15.1196    magn:    1.5849    constr:    0.0000
     atom:   11    charge:   15.1196    magn:    1.5849    constr:    0.0000
     atom:   12    charge:   15.0631    magn:    1.5823    constr:    0.0000
     atom:   13    charge:    3.5810    magn:    0.0096    constr:    0.0000

     total cpu time spent up to now is      148.9 secs

     total energy              =   -3611.59658138 Ry
     Harris-Foulkes estimate   =   -3669.78884710 Ry
     estimated scf accuracy    <     923.41900565 Ry

     total magnetization       =     1.75 Bohr mag/cell
     absolute magnetization    =     2.01 Bohr mag/cell

     iteration #  4     ecut=    36.75 Ry     beta=0.10
     Davidson diagonalization with overlap
     ethr =  1.00E-02,  avg # of iterations =  6.3
 
     Adding external electric field

     Computed dipole along edir(3) : 
        Dipole                5.2612 Ry au,         13.3728 Debye
        Dipole field          0.0187 Ry au
 
        Potential amp.       -1.5315 Ry
        Total length         40.9758 bohr
 
 
     Adding external electric field

     Computed dipole along edir(3) : 
        Dipole                5.2612 Ry au,         13.3728 Debye
        Dipole field          0.0187 Ry au
 
        Potential amp.       -1.5315 Ry
        Total length         40.9758 bohr
 
 
     Magnetic moment per site:
     atom:    1    charge:   14.8889    magn:    1.6559    constr:    0.0000
     atom:    2    charge:   14.8860    magn:    1.6523    constr:    0.0000
     atom:    3    charge:   14.8855    magn:    1.6520    constr:    0.0000
     atom:    4    charge:   14.8855    magn:    1.6521    constr:    0.0000
     atom:    5    charge:   15.1798    magn:    1.6125    constr:    0.0000
     atom:    6    charge:   15.1797    magn:    1.6125    constr:    0.0000
     atom:    7    charge:   15.1862    magn:    1.6083    constr:    0.0000
     atom:    8    charge:   15.1797    magn:    1.6126    constr:    0.0000
     atom:    9    charge:   15.0220    magn:    1.5793    constr:    0.0000
     atom:   10    charge:   15.0220    magn:    1.5792    constr:    0.0000
     atom:   11    charge:   15.0220    magn:    1.5793    constr:    0.0000
     atom:   12    charge:   15.0146    magn:    1.5829    constr:    0.0000
     atom:   13    charge:    3.4886    magn:    0.0007    constr:    0.0000

     total cpu time spent up to now is      185.5 secs

     total energy              =   -3622.06686734 Ry
     Harris-Foulkes estimate   =   -3625.54770522 Ry
     estimated scf accuracy    <      27.03259749 Ry

     total magnetization       =    18.13 Bohr mag/cell
     absolute magnetization    =    19.06 Bohr mag/cell

     iteration #  5     ecut=    36.75 Ry     beta=0.10
     Davidson diagonalization with overlap
     ethr =  1.00E-02,  avg # of iterations =  1.3
 
     Adding external electric field

     Computed dipole along edir(3) : 
        Dipole                4.7747 Ry au,         12.1361 Debye
        Dipole field          0.0170 Ry au
 
        Potential amp.       -1.3899 Ry
        Total length         40.9758 bohr
 
 
     Adding external electric field

     Computed dipole along edir(3) : 
        Dipole                4.7747 Ry au,         12.1361 Debye
        Dipole field          0.0170 Ry au
 
        Potential amp.       -1.3899 Ry
        Total length         40.9758 bohr
 
 
     Magnetic moment per site:
     atom:    1    charge:   14.8605    magn:    1.7347    constr:    0.0000
     atom:    2    charge:   14.8635    magn:    1.7244    constr:    0.0000
     atom:    3    charge:   14.8643    magn:    1.7231    constr:    0.0000
     atom:    4    charge:   14.8639    magn:    1.7231    constr:    0.0000
     atom:    5    charge:   15.0828    magn:    1.6276    constr:    0.0000
     atom:    6    charge:   15.0829    magn:    1.6275    constr:    0.0000
     atom:    7    charge:   15.0975    magn:    1.6117    constr:    0.0000
     atom:    8    charge:   15.0830    magn:    1.6278    constr:    0.0000
     atom:    9    charge:   15.0443    magn:    1.4907    constr:    0.0000
     atom:   10    charge:   15.0444    magn:    1.4906    constr:    0.0000
     atom:   11    charge:   15.0440    magn:    1.4908    constr:    0.0000
     atom:   12    charge:   15.0432    magn:    1.5175    constr:    0.0000
     atom:   13    charge:    3.4243    magn:   -0.0161    constr:    0.0000

     total cpu time spent up to now is      202.0 secs

     total energy              =   -3619.74947911 Ry
     Harris-Foulkes estimate   =   -3622.89443290 Ry
     estimated scf accuracy    <      36.02524680 Ry

     total magnetization       =    17.44 Bohr mag/cell
     absolute magnetization    =    18.86 Bohr mag/cell

     iteration #  6     ecut=    36.75 Ry     beta=0.10
     Davidson diagonalization with overlap
     ethr =  1.00E-02,  avg # of iterations =  1.2
 
     Adding external electric field

     Computed dipole along edir(3) : 
        Dipole                3.7310 Ry au,          9.4832 Debye
        Dipole field          0.0133 Ry au
 
        Potential amp.       -1.0861 Ry
        Total length         40.9758 bohr
 
 
     Adding external electric field

     Computed dipole along edir(3) : 
        Dipole                3.7310 Ry au,          9.4832 Debye
        Dipole field          0.0133 Ry au
 
        Potential amp.       -1.0861 Ry
        Total length         40.9758 bohr
 
 
     Magnetic moment per site:
     atom:    1    charge:   14.9061    magn:    1.6684    constr:    0.0000
     atom:    2    charge:   14.9085    magn:    1.6561    constr:    0.0000
     atom:    3    charge:   14.9091    magn:    1.6551    constr:    0.0000
     atom:    4    charge:   14.9086    magn:    1.6546    constr:    0.0000
     atom:    5    charge:   14.9661    magn:    1.6329    constr:    0.0000
     atom:    6    charge:   14.9661    magn:    1.6329    constr:    0.0000
     atom:    7    charge:   14.9590    magn:    1.6305    constr:    0.0000
     atom:    8    charge:   14.9657    magn:    1.6334    constr:    0.0000
     atom:    9    charge:   14.9966    magn:    1.4229    constr:    0.0000
     atom:   10    charge:   14.9965    magn:    1.4229    constr:    0.0000
     atom:   11    charge:   14.9969    magn:    1.4227    constr:    0.0000
     atom:   12    charge:   14.8679    magn:    1.5374    constr:    0.0000
     atom:   13    charge:    3.3942    magn:   -0.0364    constr:    0.0000

     total cpu time spent up to now is      218.1 secs

     total energy              =   -3618.68655929 Ry
     Harris-Foulkes estimate   =   -3621.12307656 Ry
     estimated scf accuracy    <      23.13215458 Ry

     total magnetization       =    16.07 Bohr mag/cell
     absolute magnetization    =    17.53 Bohr mag/cell

     iteration #  7     ecut=    36.75 Ry     beta=0.10
     Davidson diagonalization with overlap
     ethr =  1.00E-02,  avg # of iterations =  1.0
 
     Adding external electric field

     Computed dipole along edir(3) : 
        Dipole                2.8590 Ry au,          7.2668 Debye
        Dipole field          0.0102 Ry au
 
        Potential amp.       -0.8322 Ry
        Total length         40.9758 bohr
 
 
     Adding external electric field

     Computed dipole along edir(3) : 
        Dipole                2.8590 Ry au,          7.2668 Debye
        Dipole field          0.0102 Ry au
 
        Potential amp.       -0.8322 Ry
        Total length         40.9758 bohr
 
 
     Magnetic moment per site:
     atom:    1    charge:   14.8908    magn:    1.7368    constr:    0.0000
     atom:    2    charge:   14.8878    magn:    1.7213    constr:    0.0000
     atom:    3    charge:   14.8879    magn:    1.7206    constr:    0.0000
     atom:    4    charge:   14.8879    magn:    1.7192    constr:    0.0000
     atom:    5    charge:   14.9243    magn:    1.6161    constr:    0.0000
     atom:    6    charge:   14.9243    magn:    1.6160    constr:    0.0000
     atom:    7    charge:   14.9247    magn:    1.6004    constr:    0.0000
     atom:    8    charge:   14.9242    magn:    1.6163    constr:    0.0000
     atom:    9    charge:   14.9521    magn:    1.3680    constr:    0.0000
     atom:   10    charge:   14.9521    magn:    1.3680    constr:    0.0000
     atom:   11    charge:   14.9520    magn:    1.3683    constr:    0.0000
     atom:   12    charge:   14.8929    magn:    1.4558    constr:    0.0000
     atom:   13    charge:    3.3639    magn:   -0.0555    constr:    0.0000

     total cpu time spent up to now is      234.4 secs

     total energy              =   -3618.43373218 Ry
     Harris-Foulkes estimate   =   -3620.05789854 Ry
     estimated scf accuracy    <      24.00639605 Ry

     total magnetization       =    17.75 Bohr mag/cell
     absolute magnetization    =    19.24 Bohr mag/cell

     iteration #  8     ecut=    36.75 Ry     beta=0.10
     Davidson diagonalization with overlap
     ethr =  1.00E-02,  avg # of iterations =  1.5
 
     Adding external electric field

     Computed dipole along edir(3) : 
        Dipole                2.7709 Ry au,          7.0430 Debye
        Dipole field          0.0098 Ry au
 
        Potential amp.       -0.8066 Ry
        Total length         40.9758 bohr
 
 
     Adding external electric field

     Computed dipole along edir(3) : 
        Dipole                2.7709 Ry au,          7.0430 Debye
        Dipole field          0.0098 Ry au
 
        Potential amp.       -0.8066 Ry
        Total length         40.9758 bohr
 
 
     Magnetic moment per site:
     atom:    1    charge:   14.9117    magn:    1.6951    constr:    0.0000
     atom:    2    charge:   14.9123    magn:    1.6761    constr:    0.0000
     atom:    3    charge:   14.9126    magn:    1.6756    constr:    0.0000
     atom:    4    charge:   14.9123    magn:    1.6742    constr:    0.0000
     atom:    5    charge:   14.9083    magn:    1.6419    constr:    0.0000
     atom:    6    charge:   14.9083    magn:    1.6417    constr:    0.0000
     atom:    7    charge:   14.9144    magn:    1.6196    constr:    0.0000
     atom:    8    charge:   14.9082    magn:    1.6420    constr:    0.0000
     atom:    9    charge:   14.9475    magn:    1.3743    constr:    0.0000
     atom:   10    charge:   14.9475    magn:    1.3742    constr:    0.0000
     atom:   11    charge:   14.9475    magn:    1.3744    constr:    0.0000
     atom:   12    charge:   14.9041    magn:    1.4611    constr:    0.0000
     atom:   13    charge:    3.3892    magn:   -0.0553    constr:    0.0000

     total cpu time spent up to now is      251.0 secs

     total energy              =   -3619.07880957 Ry
     Harris-Foulkes estimate   =   -3619.34763174 Ry
     estimated scf accuracy    <       3.56694828 Ry

     total magnetization       =    18.31 Bohr mag/cell
     absolute magnetization    =    19.60 Bohr mag/cell

     iteration #  9     ecut=    36.75 Ry     beta=0.10
     Davidson diagonalization with overlap
     ethr =  1.70E-03,  avg # of iterations =  3.1
 
     Adding external electric field

     Computed dipole along edir(3) : 
        Dipole                2.5454 Ry au,          6.4698 Debye
        Dipole field          0.0090 Ry au
 
        Potential amp.       -0.7410 Ry
        Total length         40.9758 bohr
 
 
     Adding external electric field

     Computed dipole along edir(3) : 
        Dipole                2.5454 Ry au,          6.4698 Debye
        Dipole field          0.0090 Ry au
 
        Potential amp.       -0.7410 Ry
        Total length         40.9758 bohr
 
 
     Magnetic moment per site:
     atom:    1    charge:   14.9084    magn:    1.7002    constr:    0.0000
     atom:    2    charge:   14.9119    magn:    1.6789    constr:    0.0000
     atom:    3    charge:   14.9126    magn:    1.6786    constr:    0.0000
     atom:    4    charge:   14.9123    magn:    1.6770    constr:    0.0000
     atom:    5    charge:   14.9178    magn:    1.6509    constr:    0.0000
     atom:    6    charge:   14.9179    magn:    1.6506    constr:    0.0000
     atom:    7    charge:   14.9295    magn:    1.6197    constr:    0.0000
     atom:    8    charge:   14.9179    magn:    1.6509    constr:    0.0000
     atom:    9    charge:   14.9489    magn:    1.3773    constr:    0.0000
     atom:   10    charge:   14.9489    magn:    1.3774    constr:    0.0000
     atom:   11    charge:   14.9488    magn:    1.3775    constr:    0.0000
     atom:   12    charge:   14.9127    magn:    1.4779    constr:    0.0000
     atom:   13    charge:    3.4211    magn:   -0.0502    constr:    0.0000

     total cpu time spent up to now is      270.0 secs

     total energy              =   -3619.19180853 Ry
     Harris-Foulkes estimate   =   -3619.37027511 Ry
     estimated scf accuracy    <       4.94579158 Ry

     total magnetization       =    19.01 Bohr mag/cell
     absolute magnetization    =    20.24 Bohr mag/cell

     iteration # 10     ecut=    36.75 Ry     beta=0.10
     Davidson diagonalization with overlap
     ethr =  1.70E-03,  avg # of iterations =  1.0
 
     Adding external electric field

     Computed dipole along edir(3) : 
        Dipole                1.4676 Ry au,          3.7303 Debye
        Dipole field          0.0052 Ry au
 
        Potential amp.       -0.4272 Ry
        Total length         40.9758 bohr
 
 
     Adding external electric field

     Computed dipole along edir(3) : 
        Dipole                1.4676 Ry au,          3.7303 Debye
        Dipole field          0.0052 Ry au
 
        Potential amp.       -0.4272 Ry
        Total length         40.9758 bohr
 
 
     Magnetic moment per site:
     atom:    1    charge:   14.9221    magn:    1.6649    constr:    0.0000
     atom:    2    charge:   14.9090    magn:    1.6552    constr:    0.0000
     atom:    3    charge:   14.9075    magn:    1.6589    constr:    0.0000
     atom:    4    charge:   14.9080    magn:    1.6553    constr:    0.0000
     atom:    5    charge:   14.9232    magn:    1.6710    constr:    0.0000
     atom:    6    charge:   14.9232    magn:    1.6708    constr:    0.0000
     atom:    7    charge:   14.9111    magn:    1.6451    constr:    0.0000
     atom:    8    charge:   14.9229    magn:    1.6714    constr:    0.0000
     atom:    9    charge:   14.9273    magn:    1.3876    constr:    0.0000
     atom:   10    charge:   14.9270    magn:    1.3879    constr:    0.0000
     atom:   11    charge:   14.9272    magn:    1.3877    constr:    0.0000
     atom:   12    charge:   14.8871    magn:    1.5741    constr:    0.0000
     atom:   13    charge:    3.4974    magn:   -0.0378    constr:    0.0000

     total cpu time spent up to now is      286.5 secs

     total energy              =   -3618.89924250 Ry
     Harris-Foulkes estimate   =   -3619.24603721 Ry
     estimated scf accuracy    <       1.27214510 Ry

     total magnetization       =    18.92 Bohr mag/cell
     absolute magnetization    =    20.20 Bohr mag/cell

     iteration # 11     ecut=    36.75 Ry     beta=0.10
     Davidson diagonalization with overlap
     ethr =  6.06E-04,  avg # of iterations =  3.3
 
     Adding external electric field

     Computed dipole along edir(3) : 
        Dipole                0.4858 Ry au,          1.2347 Debye
        Dipole field          0.0017 Ry au
 
        Potential amp.       -0.1414 Ry
        Total length         40.9758 bohr
 
 
     Adding external electric field

     Computed dipole along edir(3) : 
        Dipole                0.4858 Ry au,          1.2347 Debye
        Dipole field          0.0017 Ry au
 
        Potential amp.       -0.1414 Ry
        Total length         40.9758 bohr
 
 
     Magnetic moment per site:
     atom:    1    charge:   14.8915    magn:    1.6663    constr:    0.0000
     atom:    2    charge:   14.8931    magn:    1.6436    constr:    0.0000
     atom:    3    charge:   14.8934    magn:    1.6480    constr:    0.0000
     atom:    4    charge:   14.8935    magn:    1.6434    constr:    0.0000
     atom:    5    charge:   14.9131    magn:    1.6840    constr:    0.0000
     atom:    6    charge:   14.9130    magn:    1.6840    constr:    0.0000
     atom:    7    charge:   14.9128    magn:    1.6372    constr:    0.0000
     atom:    8    charge:   14.9132    magn:    1.6845    constr:    0.0000
     atom:    9    charge:   14.9073    magn:    1.3910    constr:    0.0000
     atom:   10    charge:   14.9074    magn:    1.3912    constr:    0.0000
     atom:   11    charge:   14.9071    magn:    1.3912    constr:    0.0000
     atom:   12    charge:   14.8428    magn:    1.6754    constr:    0.0000
     atom:   13    charge:    3.5290    magn:   -0.0269    constr:    0.0000

     total cpu time spent up to now is      305.5 secs

     total energy              =   -3618.86988933 Ry
     Harris-Foulkes estimate   =   -3618.98307113 Ry
     estimated scf accuracy    <       0.62370591 Ry

     total magnetization       =    18.70 Bohr mag/cell
     absolute magnetization    =    20.19 Bohr mag/cell

     iteration # 12     ecut=    36.75 Ry     beta=0.10
     Davidson diagonalization with overlap
     ethr =  2.97E-04,  avg # of iterations =  4.6
 
     Adding external electric field

     Computed dipole along edir(3) : 
        Dipole                0.7172 Ry au,          1.8229 Debye
        Dipole field          0.0025 Ry au
 
        Potential amp.       -0.2088 Ry
        Total length         40.9758 bohr
 
 
     Adding external electric field

     Computed dipole along edir(3) : 
        Dipole                0.7172 Ry au,          1.8229 Debye
        Dipole field          0.0025 Ry au
 
        Potential amp.       -0.2088 Ry
        Total length         40.9758 bohr
 
 
     Magnetic moment per site:
     atom:    1    charge:   14.8958    magn:    1.6509    constr:    0.0000
     atom:    2    charge:   14.8956    magn:    1.6317    constr:    0.0000
     atom:    3    charge:   14.8956    magn:    1.6360    constr:    0.0000
     atom:    4    charge:   14.8959    magn:    1.6317    constr:    0.0000
     atom:    5    charge:   14.9082    magn:    1.6880    constr:    0.0000
     atom:    6    charge:   14.9081    magn:    1.6880    constr:    0.0000
     atom:    7    charge:   14.9118    magn:    1.6403    constr:    0.0000
     atom:    8    charge:   14.9081    magn:    1.6885    constr:    0.0000
     atom:    9    charge:   14.9177    magn:    1.4020    constr:    0.0000
     atom:   10    charge:   14.9177    magn:    1.4021    constr:    0.0000
     atom:   11    charge:   14.9178    magn:    1.4019    constr:    0.0000
     atom:   12    charge:   14.8625    magn:    1.6669    constr:    0.0000
     atom:   13    charge:    3.5212    magn:   -0.0208    constr:    0.0000

     total cpu time spent up to now is      330.1 secs

     total energy              =   -3618.80161377 Ry
     Harris-Foulkes estimate   =   -3619.04181938 Ry
     estimated scf accuracy    <       6.49599531 Ry

     total magnetization       =    18.83 Bohr mag/cell
     absolute magnetization    =    20.45 Bohr mag/cell

     iteration # 13     ecut=    36.75 Ry     beta=0.10
     Davidson diagonalization with overlap
     ethr =  2.97E-04,  avg # of iterations =  3.6
 
     Adding external electric field

     Computed dipole along edir(3) : 
        Dipole                0.5924 Ry au,          1.5058 Debye
        Dipole field          0.0021 Ry au
 
        Potential amp.       -0.1725 Ry
        Total length         40.9758 bohr
 
 
     Adding external electric field

     Computed dipole along edir(3) : 
        Dipole                0.5924 Ry au,          1.5058 Debye
        Dipole field          0.0021 Ry au
 
        Potential amp.       -0.1725 Ry
        Total length         40.9758 bohr
 
 
     Magnetic moment per site:
     atom:    1    charge:   14.8857    magn:    1.6592    constr:    0.0000
     atom:    2    charge:   14.8886    magn:    1.6405    constr:    0.0000
     atom:    3    charge:   14.8886    magn:    1.6448    constr:    0.0000
     atom:    4    charge:   14.8883    magn:    1.6411    constr:    0.0000
     atom:    5    charge:   14.9049    magn:    1.7005    constr:    0.0000
     atom:    6    charge:   14.9050    magn:    1.7005    constr:    0.0000
     atom:    7    charge:   14.9122    magn:    1.6471    constr:    0.0000
     atom:    8    charge:   14.9048    magn:    1.7012    constr:    0.0000
     atom:    9    charge:   14.9267    magn:    1.4186    constr:    0.0000
     atom:   10    charge:   14.9268    magn:    1.4186    constr:    0.0000
     atom:   11    charge:   14.9264    magn:    1.4188    constr:    0.0000
     atom:   12    charge:   14.8994    magn:    1.6777    constr:    0.0000
     atom:   13    charge:    3.5077    magn:   -0.0080    constr:    0.0000

     total cpu time spent up to now is      349.5 secs

     total energy              =   -3618.82380576 Ry
     Harris-Foulkes estimate   =   -3618.89609412 Ry
     estimated scf accuracy    <       0.58607862 Ry

     total magnetization       =    19.25 Bohr mag/cell
     absolute magnetization    =    20.92 Bohr mag/cell

     iteration # 14     ecut=    36.75 Ry     beta=0.10
     Davidson diagonalization with overlap
     ethr =  2.79E-04,  avg # of iterations =  1.6

     negative rho (up, down):  2.404E-08 0.000E+00
 
     Adding external electric field

     Computed dipole along edir(3) : 
        Dipole                0.4137 Ry au,          1.0514 Debye
        Dipole field          0.0015 Ry au
 
        Potential amp.       -0.1204 Ry
        Total length         40.9758 bohr
 
 
     Adding external electric field

     Computed dipole along edir(3) : 
        Dipole                0.4137 Ry au,          1.0514 Debye
        Dipole field          0.0015 Ry au
 
        Potential amp.       -0.1204 Ry
        Total length         40.9758 bohr
 
 
     Magnetic moment per site:
     atom:    1    charge:   14.8898    magn:    1.6659    constr:    0.0000
     atom:    2    charge:   14.8861    magn:    1.6521    constr:    0.0000
     atom:    3    charge:   14.8857    magn:    1.6564    constr:    0.0000
     atom:    4    charge:   14.8868    magn:    1.6518    constr:    0.0000
     atom:    5    charge:   14.8985    magn:    1.6996    constr:    0.0000
     atom:    6    charge:   14.8983    magn:    1.6998    constr:    0.0000
     atom:    7    charge:   14.9058    magn:    1.6447    constr:    0.0000
     atom:    8    charge:   14.8985    magn:    1.7001    constr:    0.0000
     atom:    9    charge:   14.9271    magn:    1.4171    constr:    0.0000
     atom:   10    charge:   14.9268    magn:    1.4173    constr:    0.0000
     atom:   11    charge:   14.9275    magn:    1.4167    constr:    0.0000
     atom:   12    charge:   14.8787    magn:    1.7177    constr:    0.0000
     atom:   13    charge:    3.4924    magn:   -0.0090    constr:    0.0000

     total cpu time spent up to now is      367.5 secs

     total energy              =   -3618.84101550 Ry
     Harris-Foulkes estimate   =   -3618.86227051 Ry
     estimated scf accuracy    <       0.16025676 Ry

     total magnetization       =    19.43 Bohr mag/cell
     absolute magnetization    =    21.20 Bohr mag/cell

     iteration # 15     ecut=    36.75 Ry     beta=0.10
     Davidson diagonalization with overlap
     ethr =  7.63E-05,  avg # of iterations =  4.0

     negative rho (up, down):  1.337E-07 3.908E-08
 
     Adding external electric field

     Computed dipole along edir(3) : 
        Dipole                0.2859 Ry au,          0.7268 Debye
        Dipole field          0.0010 Ry au
 
        Potential amp.       -0.0832 Ry
        Total length         40.9758 bohr
 
 
     Adding external electric field

     Computed dipole along edir(3) : 
        Dipole                0.2859 Ry au,          0.7268 Debye
        Dipole field          0.0010 Ry au
 
        Potential amp.       -0.0832 Ry
        Total length         40.9758 bohr
 
 
     Magnetic moment per site:
     atom:    1    charge:   14.8813    magn:    1.6751    constr:    0.0000
     atom:    2    charge:   14.8842    magn:    1.6566    constr:    0.0000
     atom:    3    charge:   14.8843    magn:    1.6605    constr:    0.0000
     atom:    4    charge:   14.8840    magn:    1.6571    constr:    0.0000
     atom:    5    charge:   14.9021    magn:    1.7026    constr:    0.0000
     atom:    6    charge:   14.9021    magn:    1.7027    constr:    0.0000
     atom:    7    charge:   14.9070    magn:    1.6474    constr:    0.0000
     atom:    8    charge:   14.9020    magn:    1.7033    constr:    0.0000
     atom:    9    charge:   14.9255    magn:    1.4283    constr:    0.0000
     atom:   10    charge:   14.9256    magn:    1.4284    constr:    0.0000
     atom:   11    charge:   14.9253    magn:    1.4284    constr:    0.0000
     atom:   12    charge:   14.8838    magn:    1.7379    constr:    0.0000
     atom:   13    charge:    3.4965    magn:   -0.0037    constr:    0.0000

     total cpu time spent up to now is      389.6 secs

     total energy              =   -3618.84603521 Ry
     Harris-Foulkes estimate   =   -3618.85601409 Ry
     estimated scf accuracy    <       0.12461734 Ry

     total magnetization       =    19.49 Bohr mag/cell
     absolute magnetization    =    21.34 Bohr mag/cell

     iteration # 16     ecut=    36.75 Ry     beta=0.10
     Davidson diagonalization with overlap
     ethr =  5.93E-05,  avg # of iterations =  1.1

     negative rho (up, down):  1.248E-06 3.738E-07
 
     Adding external electric field

     Computed dipole along edir(3) : 
        Dipole                0.1769 Ry au,          0.4495 Debye
        Dipole field          0.0006 Ry au
 
        Potential amp.       -0.0515 Ry
        Total length         40.9758 bohr
 
 
     Adding external electric field

     Computed dipole along edir(3) : 
        Dipole                0.1769 Ry au,          0.4495 Debye
        Dipole field          0.0006 Ry au
 
        Potential amp.       -0.0515 Ry
        Total length         40.9758 bohr
 
 
     Magnetic moment per site:
     atom:    1    charge:   14.8826    magn:    1.6790    constr:    0.0000
     atom:    2    charge:   14.8826    magn:    1.6638    constr:    0.0000
     atom:    3    charge:   14.8825    magn:    1.6678    constr:    0.0000
     atom:    4    charge:   14.8832    magn:    1.6636    constr:    0.0000
     atom:    5    charge:   14.9025    magn:    1.7072    constr:    0.0000
     atom:    6    charge:   14.9024    magn:    1.7076    constr:    0.0000
     atom:    7    charge:   14.9103    magn:    1.6473    constr:    0.0000
     atom:    8    charge:   14.9025    magn:    1.7078    constr:    0.0000
     atom:    9    charge:   14.9219    magn:    1.4343    constr:    0.0000
     atom:   10    charge:   14.9218    magn:    1.4347    constr:    0.0000
     atom:   11    charge:   14.9220    magn:    1.4341    constr:    0.0000
     atom:   12    charge:   14.8842    magn:    1.7513    constr:    0.0000
     atom:   13    charge:    3.4996    magn:   -0.0014    constr:    0.0000

     total cpu time spent up to now is      406.1 secs

     total energy              =   -3618.84500249 Ry
     Harris-Foulkes estimate   =   -3618.84869025 Ry
     estimated scf accuracy    <       0.04704287 Ry

     total magnetization       =    19.50 Bohr mag/cell
     absolute magnetization    =    21.40 Bohr mag/cell

     iteration # 17     ecut=    36.75 Ry     beta=0.10
     Davidson diagonalization with overlap
     ethr =  2.24E-05,  avg # of iterations =  1.4

     negative rho (up, down):  5.001E-05 2.702E-05
 
     Adding external electric field

     Computed dipole along edir(3) : 
        Dipole                0.0457 Ry au,          0.1161 Debye
        Dipole field          0.0002 Ry au
 
        Potential amp.       -0.0133 Ry
        Total length         40.9758 bohr
 
 
     Adding external electric field

     Computed dipole along edir(3) : 
        Dipole                0.0457 Ry au,          0.1161 Debye
        Dipole field          0.0002 Ry au
 
        Potential amp.       -0.0133 Ry
        Total length         40.9758 bohr
 
 
     Magnetic moment per site:
     atom:    1    charge:   14.8785    magn:    1.6953    constr:    0.0000
     atom:    2    charge:   14.8807    magn:    1.6794    constr:    0.0000
     atom:    3    charge:   14.8807    magn:    1.6828    constr:    0.0000
     atom:    4    charge:   14.8802    magn:    1.6799    constr:    0.0000
     atom:    5    charge:   14.9049    magn:    1.7138    constr:    0.0000
     atom:    6    charge:   14.9049    magn:    1.7143    constr:    0.0000
     atom:    7    charge:   14.9103    magn:    1.6524    constr:    0.0000
     atom:    8    charge:   14.9049    magn:    1.7145    constr:    0.0000
     atom:    9    charge:   14.9198    magn:    1.4463    constr:    0.0000
     atom:   10    charge:   14.9199    magn:    1.4467    constr:    0.0000
     atom:   11    charge:   14.9198    magn:    1.4459    constr:    0.0000
     atom:   12    charge:   14.8797    magn:    1.7834    constr:    0.0000
     atom:   13    charge:    3.4964    magn:    0.0033    constr:    0.0000

     total cpu time spent up to now is      422.8 secs

     total energy              =   -3618.84474056 Ry
     Harris-Foulkes estimate   =   -3618.84647622 Ry
     estimated scf accuracy    <       0.01519804 Ry

     total magnetization       =    19.50 Bohr mag/cell
     absolute magnetization    =    21.46 Bohr mag/cell

     iteration # 18     ecut=    36.75 Ry     beta=0.10
     Davidson diagonalization with overlap
     ethr =  7.24E-06,  avg # of iterations =  4.2

     negative rho (up, down):  3.257E-05 1.304E-05
 
     Adding external electric field

     Computed dipole along edir(3) : 
        Dipole                0.0239 Ry au,          0.0609 Debye
        Dipole field          0.0001 Ry au
 
        Potential amp.       -0.0070 Ry
        Total length         40.9758 bohr
 
 
     Adding external electric field

     Computed dipole along edir(3) : 
        Dipole                0.0239 Ry au,          0.0609 Debye
        Dipole field          0.0001 Ry au
 
        Potential amp.       -0.0070 Ry
        Total length         40.9758 bohr
 
 
     Magnetic moment per site:
     atom:    1    charge:   14.8767    magn:    1.7059    constr:    0.0000
     atom:    2    charge:   14.8780    magn:    1.6910    constr:    0.0000
     atom:    3    charge:   14.8779    magn:    1.6940    constr:    0.0000
     atom:    4    charge:   14.8781    magn:    1.6909    constr:    0.0000
     atom:    5    charge:   14.9039    magn:    1.7164    constr:    0.0000
     atom:    6    charge:   14.9038    magn:    1.7171    constr:    0.0000
     atom:    7    charge:   14.9090    magn:    1.6540    constr:    0.0000
     atom:    8    charge:   14.9038    magn:    1.7170    constr:    0.0000
     atom:    9    charge:   14.9193    magn:    1.4522    constr:    0.0000
     atom:   10    charge:   14.9193    magn:    1.4527    constr:    0.0000
     atom:   11    charge:   14.9192    magn:    1.4518    constr:    0.0000
     atom:   12    charge:   14.8788    magn:    1.7967    constr:    0.0000
     atom:   13    charge:    3.4873    magn:    0.0051    constr:    0.0000

     total cpu time spent up to now is      445.4 secs

     total energy              =   -3618.84516767 Ry
     Harris-Foulkes estimate   =   -3618.84632912 Ry
     estimated scf accuracy    <       0.03786416 Ry

     total magnetization       =    19.48 Bohr mag/cell
     absolute magnetization    =    21.53 Bohr mag/cell

     iteration # 19     ecut=    36.75 Ry     beta=0.10
     Davidson diagonalization with overlap
     ethr =  7.24E-06,  avg # of iterations =  1.4

     negative rho (up, down):  1.124E-04 6.587E-05
 
     Adding external electric field

     Computed dipole along edir(3) : 
        Dipole               -0.0344 Ry au,         -0.0874 Debye
        Dipole field         -0.0001 Ry au
 
        Potential amp.        0.0100 Ry
        Total length         40.9758 bohr
 
 
     Adding external electric field

     Computed dipole along edir(3) : 
        Dipole               -0.0344 Ry au,         -0.0874 Debye
        Dipole field         -0.0001 Ry au
 
        Potential amp.        0.0100 Ry
        Total length         40.9758 bohr
 
 
     Magnetic moment per site:
     atom:    1    charge:   14.8707    magn:    1.7291    constr:    0.0000
     atom:    2    charge:   14.8721    magn:    1.7140    constr:    0.0000
     atom:    3    charge:   14.8720    magn:    1.7161    constr:    0.0000
     atom:    4    charge:   14.8719    magn:    1.7142    constr:    0.0000
     atom:    5    charge:   14.8990    magn:    1.7259    constr:    0.0000
     atom:    6    charge:   14.8990    magn:    1.7267    constr:    0.0000
     atom:    7    charge:   14.9059    magn:    1.6595    constr:    0.0000
     atom:    8    charge:   14.8990    magn:    1.7265    constr:    0.0000
     atom:    9    charge:   14.9210    magn:    1.4646    constr:    0.0000
     atom:   10    charge:   14.9210    magn:    1.4650    constr:    0.0000
     atom:   11    charge:   14.9211    magn:    1.4641    constr:    0.0000
     atom:   12    charge:   14.8774    magn:    1.8267    constr:    0.0000
     atom:   13    charge:    3.4707    magn:    0.0094    constr:    0.0000

     total cpu time spent up to now is      461.7 secs

     total energy              =   -3618.84510767 Ry
     Harris-Foulkes estimate   =   -3618.84556315 Ry
     estimated scf accuracy    <       0.00963237 Ry

     total magnetization       =    19.53 Bohr mag/cell
     absolute magnetization    =    21.61 Bohr mag/cell

     iteration # 20     ecut=    36.75 Ry     beta=0.10
     Davidson diagonalization with overlap
     ethr =  4.59E-06,  avg # of iterations =  3.9

     negative rho (up, down):  1.084E-04 5.431E-05
 
     Adding external electric field

     Computed dipole along edir(3) : 
        Dipole               -0.0404 Ry au,         -0.1026 Debye
        Dipole field         -0.0001 Ry au
 
        Potential amp.        0.0118 Ry
        Total length         40.9758 bohr
 
 
     Adding external electric field

     Computed dipole along edir(3) : 
        Dipole               -0.0404 Ry au,         -0.1026 Debye
        Dipole field         -0.0001 Ry au
 
        Potential amp.        0.0118 Ry
        Total length         40.9758 bohr
 
 
     Magnetic moment per site:
     atom:    1    charge:   14.8708    magn:    1.7336    constr:    0.0000
     atom:    2    charge:   14.8718    magn:    1.7185    constr:    0.0000
     atom:    3    charge:   14.8717    magn:    1.7205    constr:    0.0000
     atom:    4    charge:   14.8726    magn:    1.7178    constr:    0.0000
     atom:    5    charge:   14.9006    magn:    1.7297    constr:    0.0000
     atom:    6    charge:   14.9004    magn:    1.7305    constr:    0.0000
     atom:    7    charge:   14.9063    magn:    1.6628    constr:    0.0000
     atom:    8    charge:   14.9005    magn:    1.7302    constr:    0.0000
     atom:    9    charge:   14.9197    magn:    1.4691    constr:    0.0000
     atom:   10    charge:   14.9195    magn:    1.4697    constr:    0.0000
     atom:   11    charge:   14.9196    magn:    1.4688    constr:    0.0000
     atom:   12    charge:   14.8766    magn:    1.8317    constr:    0.0000
     atom:   13    charge:    3.4747    magn:    0.0103    constr:    0.0000

     total cpu time spent up to now is      483.9 secs

     total energy              =   -3618.84606382 Ry
     Harris-Foulkes estimate   =   -3618.84706925 Ry
     estimated scf accuracy    <       0.01760158 Ry

     total magnetization       =    19.60 Bohr mag/cell
     absolute magnetization    =    21.80 Bohr mag/cell

     iteration # 21     ecut=    36.75 Ry     beta=0.10
     Davidson diagonalization with overlap
     ethr =  4.59E-06,  avg # of iterations =  2.2

     negative rho (up, down):  1.642E-04 8.731E-05
 
     Adding external electric field

     Computed dipole along edir(3) : 
        Dipole               -0.0566 Ry au,         -0.1439 Debye
        Dipole field         -0.0002 Ry au
 
        Potential amp.        0.0165 Ry
        Total length         40.9758 bohr
 
 
     Adding external electric field

     Computed dipole along edir(3) : 
        Dipole               -0.0566 Ry au,         -0.1439 Debye
        Dipole field         -0.0002 Ry au
 
        Potential amp.        0.0165 Ry
        Total length         40.9758 bohr
 
 
     Magnetic moment per site:
     atom:    1    charge:   14.8703    magn:    1.7378    constr:    0.0000
     atom:    2    charge:   14.8719    magn:    1.7220    constr:    0.0000
     atom:    3    charge:   14.8718    magn:    1.7239    constr:    0.0000
     atom:    4    charge:   14.8711    magn:    1.7228    constr:    0.0000
     atom:    5    charge:   14.9003    magn:    1.7336    constr:    0.0000
     atom:    6    charge:   14.9004    magn:    1.7342    constr:    0.0000
     atom:    7    charge:   14.9063    magn:    1.6651    constr:    0.0000
     atom:    8    charge:   14.9002    magn:    1.7341    constr:    0.0000
     atom:    9    charge:   14.9188    magn:    1.4740    constr:    0.0000
     atom:   10    charge:   14.9191    magn:    1.4742    constr:    0.0000
     atom:   11    charge:   14.9190    magn:    1.4734    constr:    0.0000
     atom:   12    charge:   14.8761    magn:    1.8383    constr:    0.0000
     atom:   13    charge:    3.4766    magn:    0.0115    constr:    0.0000

     total cpu time spent up to now is      501.0 secs

     total energy              =   -3618.84655861 Ry
     Harris-Foulkes estimate   =   -3618.84647151 Ry
     estimated scf accuracy    <       0.00226007 Ry

     total magnetization       =    19.58 Bohr mag/cell
     absolute magnetization    =    21.79 Bohr mag/cell

     iteration # 22     ecut=    36.75 Ry     beta=0.10
     Davidson diagonalization with overlap
     ethr =  1.08E-06,  avg # of iterations =  3.7

     negative rho (up, down):  1.053E-03 8.732E-04
 
     Adding external electric field

     Computed dipole along edir(3) : 
        Dipole               -0.1212 Ry au,         -0.3080 Debye
        Dipole field         -0.0004 Ry au
 
        Potential amp.        0.0353 Ry
        Total length         40.9758 bohr
 
 
     Adding external electric field

     Computed dipole along edir(3) : 
        Dipole               -0.1212 Ry au,         -0.3080 Debye
        Dipole field         -0.0004 Ry au
 
        Potential amp.        0.0353 Ry
        Total length         40.9758 bohr
 
 
     Magnetic moment per site:
     atom:    1    charge:   14.8678    magn:    1.7483    constr:    0.0000
     atom:    2    charge:   14.8700    magn:    1.7318    constr:    0.0000
     atom:    3    charge:   14.8699    magn:    1.7333    constr:    0.0000
     atom:    4    charge:   14.8699    magn:    1.7320    constr:    0.0000
     atom:    5    charge:   14.9003    magn:    1.7415    constr:    0.0000
     atom:    6    charge:   14.9003    magn:    1.7421    constr:    0.0000
     atom:    7    charge:   14.9065    magn:    1.6700    constr:    0.0000
     atom:    8    charge:   14.9003    magn:    1.7419    constr:    0.0000
     atom:    9    charge:   14.9178    magn:    1.4838    constr:    0.0000
     atom:   10    charge:   14.9177    magn:    1.4842    constr:    0.0000
     atom:   11    charge:   14.9177    magn:    1.4835    constr:    0.0000
     atom:   12    charge:   14.8747    magn:    1.8567    constr:    0.0000
     atom:   13    charge:    3.4786    magn:    0.0149    constr:    0.0000

     total cpu time spent up to now is      520.8 secs

     total energy              =   -3618.84719859 Ry
     Harris-Foulkes estimate   =   -3618.84666858 Ry
     estimated scf accuracy    <       0.00172619 Ry

     total magnetization       =    19.58 Bohr mag/cell
     absolute magnetization    =    21.82 Bohr mag/cell

     iteration # 23     ecut=    36.75 Ry     beta=0.10
     Davidson diagonalization with overlap
     ethr =  8.22E-07,  avg # of iterations =  3.5

     negative rho (up, down):  6.025E-04 4.200E-04
 
     Adding external electric field

     Computed dipole along edir(3) : 
        Dipole               -0.1030 Ry au,         -0.2617 Debye
        Dipole field         -0.0004 Ry au
 
        Potential amp.        0.0300 Ry
        Total length         40.9758 bohr
 
 
     Adding external electric field

     Computed dipole along edir(3) : 
        Dipole               -0.1030 Ry au,         -0.2617 Debye
        Dipole field         -0.0004 Ry au
 
        Potential amp.        0.0300 Ry
        Total length         40.9758 bohr
 
 
     Magnetic moment per site:
     atom:    1    charge:   14.8674    magn:    1.7563    constr:    0.0000
     atom:    2    charge:   14.8688    magn:    1.7397    constr:    0.0000
     atom:    3    charge:   14.8687    magn:    1.7409    constr:    0.0000
     atom:    4    charge:   14.8687    magn:    1.7401    constr:    0.0000
     atom:    5    charge:   14.8990    magn:    1.7468    constr:    0.0000
     atom:    6    charge:   14.8990    magn:    1.7473    constr:    0.0000
     atom:    7    charge:   14.9050    magn:    1.6741    constr:    0.0000
     atom:    8    charge:   14.8990    magn:    1.7471    constr:    0.0000
     atom:    9    charge:   14.9184    magn:    1.4897    constr:    0.0000
     atom:   10    charge:   14.9185    magn:    1.4899    constr:    0.0000
     atom:   11    charge:   14.9185    magn:    1.4892    constr:    0.0000
     atom:   12    charge:   14.8749    magn:    1.8634    constr:    0.0000
     atom:   13    charge:    3.4762    magn:    0.0163    constr:    0.0000

     total cpu time spent up to now is      542.9 secs

     total energy              =   -3618.84733072 Ry
     Harris-Foulkes estimate   =   -3618.84746015 Ry
     estimated scf accuracy    <       0.00477784 Ry

     total magnetization       =    19.59 Bohr mag/cell
     absolute magnetization    =    21.89 Bohr mag/cell

     iteration # 24     ecut=    36.75 Ry     beta=0.10
     Davidson diagonalization with overlap
     ethr =  8.22E-07,  avg # of iterations =  2.4

     negative rho (up, down):  1.581E-03 1.317E-03
 
     Adding external electric field

     Computed dipole along edir(3) : 
        Dipole               -0.1089 Ry au,         -0.2769 Debye
        Dipole field         -0.0004 Ry au
 
        Potential amp.        0.0317 Ry
        Total length         40.9758 bohr
 
 
     Adding external electric field

     Computed dipole along edir(3) : 
        Dipole               -0.1089 Ry au,         -0.2769 Debye
        Dipole field         -0.0004 Ry au
 
        Potential amp.        0.0317 Ry
        Total length         40.9758 bohr
 
 
     Magnetic moment per site:
     atom:    1    charge:   14.8665    magn:    1.7629    constr:    0.0000
     atom:    2    charge:   14.8680    magn:    1.7458    constr:    0.0000
     atom:    3    charge:   14.8679    magn:    1.7468    constr:    0.0000
     atom:    4    charge:   14.8680    magn:    1.7461    constr:    0.0000
     atom:    5    charge:   14.8980    magn:    1.7515    constr:    0.0000
     atom:    6    charge:   14.8980    magn:    1.7519    constr:    0.0000
     atom:    7    charge:   14.9047    magn:    1.6771    constr:    0.0000
     atom:    8    charge:   14.8980    magn:    1.7518    constr:    0.0000
     atom:    9    charge:   14.9188    magn:    1.4952    constr:    0.0000
     atom:   10    charge:   14.9187    magn:    1.4956    constr:    0.0000
     atom:   11    charge:   14.9187    magn:    1.4949    constr:    0.0000
     atom:   12    charge:   14.8747    magn:    1.8713    constr:    0.0000
     atom:   13    charge:    3.4756    magn:    0.0179    constr:    0.0000

     total cpu time spent up to now is      560.3 secs

     total energy              =   -3618.84752378 Ry
     Harris-Foulkes estimate   =   -3618.84744074 Ry
     estimated scf accuracy    <       0.00106362 Ry

     total magnetization       =    19.60 Bohr mag/cell
     absolute magnetization    =    21.93 Bohr mag/cell

     iteration # 25     ecut=    36.75 Ry     beta=0.10
     Davidson diagonalization with overlap
     ethr =  5.06E-07,  avg # of iterations =  3.1

     negative rho (up, down):  1.494E-03 1.223E-03
 
     Adding external electric field

     Computed dipole along edir(3) : 
        Dipole               -0.1066 Ry au,         -0.2709 Debye
        Dipole field         -0.0004 Ry au
 
        Potential amp.        0.0310 Ry
        Total length         40.9758 bohr
 
 
     Adding external electric field

     Computed dipole along edir(3) : 
        Dipole               -0.1066 Ry au,         -0.2709 Debye
        Dipole field         -0.0004 Ry au
 
        Potential amp.        0.0310 Ry
        Total length         40.9758 bohr
 
 
     Magnetic moment per site:
     atom:    1    charge:   14.8665    magn:    1.7678    constr:    0.0000
     atom:    2    charge:   14.8680    magn:    1.7504    constr:    0.0000
     atom:    3    charge:   14.8680    magn:    1.7512    constr:    0.0000
     atom:    4    charge:   14.8679    magn:    1.7508    constr:    0.0000
     atom:    5    charge:   14.8981    magn:    1.7552    constr:    0.0000
     atom:    6    charge:   14.8981    magn:    1.7555    constr:    0.0000
     atom:    7    charge:   14.9047    magn:    1.6799    constr:    0.0000
     atom:    8    charge:   14.8981    magn:    1.7554    constr:    0.0000
     atom:    9    charge:   14.9184    magn:    1.5003    constr:    0.0000
     atom:   10    charge:   14.9186    magn:    1.5004    constr:    0.0000
     atom:   11    charge:   14.9185    magn:    1.4999    constr:    0.0000
     atom:   12    charge:   14.8747    magn:    1.8762    constr:    0.0000
     atom:   13    charge:    3.4761    magn:    0.0189    constr:    0.0000

     total cpu time spent up to now is      579.1 secs

     total energy              =   -3618.84766455 Ry
     Harris-Foulkes estimate   =   -3618.84760196 Ry
     estimated scf accuracy    <       0.00039056 Ry

     total magnetization       =    19.62 Bohr mag/cell
     absolute magnetization    =    21.99 Bohr mag/cell

     iteration # 26     ecut=    36.75 Ry     beta=0.10
     Davidson diagonalization with overlap
     ethr =  1.86E-07,  avg # of iterations =  1.8

     negative rho (up, down):  1.002E-03 7.481E-04
 
     Adding external electric field

     Computed dipole along edir(3) : 
        Dipole               -0.1008 Ry au,         -0.2562 Debye
        Dipole field         -0.0004 Ry au
 
        Potential amp.        0.0293 Ry
        Total length         40.9758 bohr
 
 
     Adding external electric field

     Computed dipole along edir(3) : 
        Dipole               -0.1008 Ry au,         -0.2562 Debye
        Dipole field         -0.0004 Ry au
 
        Potential amp.        0.0293 Ry
        Total length         40.9758 bohr
 
 
     Magnetic moment per site:
     atom:    1    charge:   14.8666    magn:    1.7715    constr:    0.0000
     atom:    2    charge:   14.8682    magn:    1.7536    constr:    0.0000
     atom:    3    charge:   14.8682    magn:    1.7543    constr:    0.0000
     atom:    4    charge:   14.8682    magn:    1.7541    constr:    0.0000
     atom:    5    charge:   14.8983    magn:    1.7581    constr:    0.0000
     atom:    6    charge:   14.8983    magn:    1.7584    constr:    0.0000
     atom:    7    charge:   14.9046    magn:    1.6824    constr:    0.0000
     atom:    8    charge:   14.8983    magn:    1.7584    constr:    0.0000
     atom:    9    charge:   14.9184    magn:    1.5040    constr:    0.0000
     atom:   10    charge:   14.9183    magn:    1.5043    constr:    0.0000
     atom:   11    charge:   14.9183    magn:    1.5038    constr:    0.0000
     atom:   12    charge:   14.8739    magn:    1.8799    constr:    0.0000
     atom:   13    charge:    3.4770    magn:    0.0197    constr:    0.0000

     total cpu time spent up to now is      597.3 secs

     total energy              =   -3618.84772003 Ry
     Harris-Foulkes estimate   =   -3618.84768640 Ry
     estimated scf accuracy    <       0.00025485 Ry

     total magnetization       =    19.63 Bohr mag/cell
     absolute magnetization    =    22.01 Bohr mag/cell

     iteration # 27     ecut=    36.75 Ry     beta=0.10
     Davidson diagonalization with overlap
     ethr =  1.21E-07,  avg # of iterations =  3.1

     negative rho (up, down):  6.986E-04 4.494E-04
 
     Adding external electric field

     Computed dipole along edir(3) : 
        Dipole               -0.0946 Ry au,         -0.2406 Debye
        Dipole field         -0.0003 Ry au
 
        Potential amp.        0.0276 Ry
        Total length         40.9758 bohr
 
 
     Adding external electric field

     Computed dipole along edir(3) : 
        Dipole               -0.0946 Ry au,         -0.2406 Debye
        Dipole field         -0.0003 Ry au
 
        Potential amp.        0.0276 Ry
        Total length         40.9758 bohr
 
 
     Magnetic moment per site:
     atom:    1    charge:   14.8667    magn:    1.7768    constr:    0.0000
     atom:    2    charge:   14.8682    magn:    1.7587    constr:    0.0000
     atom:    3    charge:   14.8682    magn:    1.7592    constr:    0.0000
     atom:    4    charge:   14.8682    magn:    1.7591    constr:    0.0000
     atom:    5    charge:   14.8981    magn:    1.7624    constr:    0.0000
     atom:    6    charge:   14.8981    magn:    1.7626    constr:    0.0000
     atom:    7    charge:   14.9047    magn:    1.6854    constr:    0.0000
     atom:    8    charge:   14.8981    magn:    1.7625    constr:    0.0000
     atom:    9    charge:   14.9182    magn:    1.5095    constr:    0.0000
     atom:   10    charge:   14.9181    magn:    1.5099    constr:    0.0000
     atom:   11    charge:   14.9181    magn:    1.5095    constr:    0.0000
     atom:   12    charge:   14.8740    magn:    1.8847    constr:    0.0000
     atom:   13    charge:    3.4775    magn:    0.0208    constr:    0.0000

     total cpu time spent up to now is      617.1 secs

     total energy              =   -3618.84780445 Ry
     Harris-Foulkes estimate   =   -3618.84774922 Ry
     estimated scf accuracy    <       0.00028369 Ry

     total magnetization       =    19.63 Bohr mag/cell
     absolute magnetization    =    22.04 Bohr mag/cell

     iteration # 28     ecut=    36.75 Ry     beta=0.10
     Davidson diagonalization with overlap
     ethr =  1.21E-07,  avg # of iterations =  2.1

     negative rho (up, down):  8.583E-04 5.954E-04
 
     Adding external electric field

     Computed dipole along edir(3) : 
        Dipole               -0.0926 Ry au,         -0.2354 Debye
        Dipole field         -0.0003 Ry au
 
        Potential amp.        0.0270 Ry
        Total length         40.9758 bohr
 
 
     Adding external electric field

     Computed dipole along edir(3) : 
        Dipole               -0.0926 Ry au,         -0.2354 Debye
        Dipole field         -0.0003 Ry au
 
        Potential amp.        0.0270 Ry
        Total length         40.9758 bohr
 
 
     Magnetic moment per site:
     atom:    1    charge:   14.8666    magn:    1.7817    constr:    0.0000
     atom:    2    charge:   14.8679    magn:    1.7635    constr:    0.0000
     atom:    3    charge:   14.8679    magn:    1.7637    constr:    0.0000
     atom:    4    charge:   14.8680    magn:    1.7637    constr:    0.0000
     atom:    5    charge:   14.8977    magn:    1.7657    constr:    0.0000
     atom:    6    charge:   14.8976    magn:    1.7658    constr:    0.0000
     atom:    7    charge:   14.9044    magn:    1.6880    constr:    0.0000
     atom:    8    charge:   14.8977    magn:    1.7658    constr:    0.0000
     atom:    9    charge:   14.9180    magn:    1.5147    constr:    0.0000
     atom:   10    charge:   14.9182    magn:    1.5149    constr:    0.0000
     atom:   11    charge:   14.9182    magn:    1.5145    constr:    0.0000
     atom:   12    charge:   14.8738    magn:    1.8897    constr:    0.0000
     atom:   13    charge:    3.4769    magn:    0.0219    constr:    0.0000

     total cpu time spent up to now is      635.1 secs

     total energy              =   -3618.84782944 Ry
     Harris-Foulkes estimate   =   -3618.84781956 Ry
     estimated scf accuracy    <       0.00024281 Ry

     total magnetization       =    19.64 Bohr mag/cell
     absolute magnetization    =    22.07 Bohr mag/cell

     iteration # 29     ecut=    36.75 Ry     beta=0.10
     Davidson diagonalization with overlap
     ethr =  1.16E-07,  avg # of iterations =  3.1

     negative rho (up, down):  8.191E-04 5.497E-04
 
     Adding external electric field

     Computed dipole along edir(3) : 
        Dipole               -0.0943 Ry au,         -0.2397 Debye
        Dipole field         -0.0003 Ry au
 
        Potential amp.        0.0275 Ry
        Total length         40.9758 bohr
 
 
     Adding external electric field

     Computed dipole along edir(3) : 
        Dipole               -0.0943 Ry au,         -0.2397 Debye
        Dipole field         -0.0003 Ry au
 
        Potential amp.        0.0275 Ry
        Total length         40.9758 bohr
 
 
     Magnetic moment per site:
     atom:    1    charge:   14.8666    magn:    1.7826    constr:    0.0000
     atom:    2    charge:   14.8681    magn:    1.7641    constr:    0.0000
     atom:    3    charge:   14.8680    magn:    1.7645    constr:    0.0000
     atom:    4    charge:   14.8679    magn:    1.7646    constr:    0.0000
     atom:    5    charge:   14.8977    magn:    1.7664    constr:    0.0000
     atom:    6    charge:   14.8978    magn:    1.7665    constr:    0.0000
     atom:    7    charge:   14.9045    magn:    1.6886    constr:    0.0000
     atom:    8    charge:   14.8977    magn:    1.7665    constr:    0.0000
     atom:    9    charge:   14.9181    magn:    1.5157    constr:    0.0000
     atom:   10    charge:   14.9181    magn:    1.5160    constr:    0.0000
     atom:   11    charge:   14.9181    magn:    1.5157    constr:    0.0000
     atom:   12    charge:   14.8737    magn:    1.8906    constr:    0.0000
     atom:   13    charge:    3.4773    magn:    0.0221    constr:    0.0000

     total cpu time spent up to now is      654.7 secs

     total energy              =   -3618.84785724 Ry
     Harris-Foulkes estimate   =   -3618.84785673 Ry
     estimated scf accuracy    <       0.00019929 Ry

     total magnetization       =    19.65 Bohr mag/cell
     absolute magnetization    =    22.11 Bohr mag/cell

     iteration # 30     ecut=    36.75 Ry     beta=0.10
     Davidson diagonalization with overlap
     ethr =  9.49E-08,  avg # of iterations =  1.6

     negative rho (up, down):  8.886E-04 6.108E-04
 
     Adding external electric field

     Computed dipole along edir(3) : 
        Dipole               -0.0954 Ry au,         -0.2425 Debye
        Dipole field         -0.0003 Ry au
 
        Potential amp.        0.0278 Ry
        Total length         40.9758 bohr
 
 
     Adding external electric field

     Computed dipole along edir(3) : 
        Dipole               -0.0954 Ry au,         -0.2425 Debye
        Dipole field         -0.0003 Ry au
 
        Potential amp.        0.0278 Ry
        Total length         40.9758 bohr
 
 
     Magnetic moment per site:
     atom:    1    charge:   14.8666    magn:    1.7857    constr:    0.0000
     atom:    2    charge:   14.8681    magn:    1.7671    constr:    0.0000
     atom:    3    charge:   14.8680    magn:    1.7673    constr:    0.0000
     atom:    4    charge:   14.8680    magn:    1.7675    constr:    0.0000
     atom:    5    charge:   14.8977    magn:    1.7684    constr:    0.0000
     atom:    6    charge:   14.8977    magn:    1.7685    constr:    0.0000
     atom:    7    charge:   14.9043    magn:    1.6903    constr:    0.0000
     atom:    8    charge:   14.8977    magn:    1.7685    constr:    0.0000
     atom:    9    charge:   14.9180    magn:    1.5197    constr:    0.0000
     atom:   10    charge:   14.9178    magn:    1.5201    constr:    0.0000
     atom:   11    charge:   14.9179    magn:    1.5198    constr:    0.0000
     atom:   12    charge:   14.8736    magn:    1.8937    constr:    0.0000
     atom:   13    charge:    3.4773    magn:    0.0229    constr:    0.0000

     total cpu time spent up to now is      671.0 secs

     total energy              =   -3618.84787408 Ry
     Harris-Foulkes estimate   =   -3618.84786395 Ry
     estimated scf accuracy    <       0.00012731 Ry

     total magnetization       =    19.65 Bohr mag/cell
     absolute magnetization    =    22.12 Bohr mag/cell

     iteration # 31     ecut=    36.75 Ry     beta=0.10
     Davidson diagonalization with overlap
     ethr =  6.06E-08,  avg # of iterations =  2.4

     negative rho (up, down):  6.078E-04 3.089E-04
 
     Adding external electric field

     Computed dipole along edir(3) : 
        Dipole               -0.1121 Ry au,         -0.2848 Debye
        Dipole field         -0.0004 Ry au
 
        Potential amp.        0.0326 Ry
        Total length         40.9758 bohr
 
 
     Adding external electric field

     Computed dipole along edir(3) : 
        Dipole               -0.1121 Ry au,         -0.2848 Debye
        Dipole field         -0.0004 Ry au
 
        Potential amp.        0.0326 Ry
        Total length         40.9758 bohr
 
 
     Magnetic moment per site:
     atom:    1    charge:   14.8654    magn:    1.7889    constr:    0.0000
     atom:    2    charge:   14.8660    magn:    1.7714    constr:    0.0000
     atom:    3    charge:   14.8670    magn:    1.7705    constr:    0.0000
     atom:    4    charge:   14.8686    magn:    1.7694    constr:    0.0000
     atom:    5    charge:   14.8981    magn:    1.7685    constr:    0.0000
     atom:    6    charge:   14.8976    magn:    1.7690    constr:    0.0000
     atom:    7    charge:   14.9060    magn:    1.6898    constr:    0.0000
     atom:    8    charge:   14.8982    magn:    1.7685    constr:    0.0000
     atom:    9    charge:   14.9159    magn:    1.5270    constr:    0.0000
     atom:   10    charge:   14.9193    magn:    1.5245    constr:    0.0000
     atom:   11    charge:   14.9182    magn:    1.5251    constr:    0.0000
     atom:   12    charge:   14.8736    magn:    1.8939    constr:    0.0000
     atom:   13    charge:    3.4776    magn:    0.0232    constr:    0.0000

     total cpu time spent up to now is      689.1 secs

     End of self-consistent calculation

 ------ SPIN UP ------------


          k = 0.0000 0.0000 0.0000 ( 13257 PWs)   bands (ev):

   -95.5189 -95.4915 -95.4911 -95.4464 -95.4228 -95.3245 -95.2963 -95.2833
   -95.2818 -95.2030 -95.1800 -95.1778 -58.8962 -58.8511 -58.8509 -58.8300
   -58.7807 -58.7804 -58.7557 -58.7367 -58.6979 -58.6893 -58.6891 -58.6791
   -58.6790 -58.6437 -58.6278 -58.6235 -58.6231 -58.6144 -58.6144 -58.6063
   -58.5978 -58.5966 -58.5871 -58.5211 -58.5194 -58.4682 -58.4678 -58.4632
   -58.4218 -58.4125 -58.4122 -58.4018 -58.4017 -58.3418 -58.3392 -58.3388
   -12.2364  -6.9979  -5.1123  -4.2938  -4.1002  -4.0999  -3.9453  -3.8938
    -3.8723  -3.8722  -3.6235  -3.4054  -3.4052  -3.3792  -3.3791  -3.2802
    -2.8301  -2.8300  -2.7100  -2.2793  -2.2791  -2.0801  -2.0180  -2.0178
    -1.9585  -1.8456  -1.8381  -1.8380  -1.6451  -1.6450  -1.6333  -1.5777
    -1.5641  -1.5639  -1.4888  -1.4887  -1.3049  -1.1728  -1.1723  -0.8602
    -0.8600  -0.7948  -0.7939  -0.7938  -0.5540  -0.5537  -0.4413  -0.4412
    -0.3794  -0.2196  -0.2194  -0.2157  -0.1931  -0.1426  -0.1425   0.0241
     0.0444   0.0445   0.2219   0.2227   0.2634   0.2647   0.2653   0.3295
     0.4954   0.4959   0.6055

          k = 0.0000 0.1925 0.0000 ( 13286 PWs)   bands (ev):

   -95.5171 -95.4930 -95.4912 -95.4463 -95.4231 -95.3230 -95.2966 -95.2835
   -95.2828 -95.2018 -95.1809 -95.1782 -58.8878 -58.8423 -58.8402 -58.8254
   -58.7834 -58.7790 -58.7520 -58.7347 -58.7052 -58.6949 -58.6878 -58.6767
   -58.6766 -58.6415 -58.6275 -58.6254 -58.6198 -58.6150 -58.6120 -58.6022
   -58.5965 -58.5952 -58.5826 -58.5251 -58.5192 -58.4760 -58.4732 -58.4624
   -58.4271 -58.4192 -58.4159 -58.4052 -58.3997 -58.3486 -58.3460 -58.3404
   -12.2171  -6.7789  -4.9412  -4.1597  -4.0864  -4.0038  -3.9412  -3.8341
    -3.7772  -3.7580  -3.5372  -3.3858  -3.3398  -3.2960  -3.2667  -3.1513
    -2.8074  -2.7691  -2.6733  -2.3576  -2.3337  -2.0624  -2.0305  -1.9901
    -1.9506  -1.9181  -1.9037  -1.7467  -1.7377  -1.6980  -1.6917  -1.5940
    -1.5573  -1.5316  -1.5153  -1.4255  -1.4071  -1.2739  -1.2479  -0.9723
    -0.9503  -0.8936  -0.8467  -0.8202  -0.7761  -0.6166  -0.5845  -0.5024
[...]
     0.4714   0.4850   0.5738   0.6511   0.6805   0.7279   1.0124   1.0331
     1.1332   1.2083   1.2884   1.4676   1.4932   1.5899   1.6186   1.6737
     1.7199   1.7800   1.8366   1.8600   1.9324   2.0079   2.0375   2.0802
     2.1384   2.1878   2.3633

          k = 0.3333-0.1925 0.0000 ( 13322 PWs)   bands (ev):

   -93.1215 -93.1003 -93.0966 -93.0920 -93.0694 -93.0566 -93.0517 -92.8921
   -92.8752 -92.8705 -92.8669 -92.8664 -56.6742 -56.6013 -56.5915 -56.5267
   -56.5082 -56.4989 -56.4875 -56.4748 -56.4736 -56.4490 -56.4170 -56.4163
   -56.3970 -56.3886 -56.3878 -56.3633 -56.3540 -56.3476 -56.3257 -56.3229
   -56.3187 -56.3134 -56.2935 -56.2934 -56.2245 -56.2165 -56.2128 -56.2112
   -56.1941 -56.1908 -56.1886 -56.1864 -56.1847 -56.1800 -56.1688 -56.1399
   -12.1146  -6.2484  -4.4272  -4.1721  -3.3869  -3.1279  -3.1070  -2.7278
    -2.6231  -2.5350  -2.2633  -2.1068  -2.0471  -1.8063  -1.6928  -1.6898
    -1.5208  -1.3883  -1.3780  -1.1045  -1.0509  -0.9947  -0.8074  -0.5984
    -0.5338  -0.5312  -0.4267  -0.3104  -0.1291  -0.0970  -0.0921   0.0003
     0.0082   0.0534   0.1272   0.2216   0.2541   0.3027   0.3528   0.3587
     0.3710   0.4359   0.5008   0.5518   0.6793   0.7287   0.9824   1.0027
     1.1185   1.1805   1.2656   1.4210   1.4438   1.4495   1.5278   1.5630
     1.6098   1.6506   1.7197   1.8116   1.8536   1.9383   1.9652   2.0399
     2.1191   2.1657   2.2752

          k = 0.3333-0.0000 0.0000 ( 13291 PWs)   bands (ev):

   -93.1229 -93.0999 -93.0960 -93.0922 -93.0697 -93.0559 -93.0515 -92.8941
   -92.8712 -92.8707 -92.8704 -92.8647 -56.6793 -56.6015 -56.5935 -56.5315
   -56.5113 -56.5105 -56.4920 -56.4803 -56.4781 -56.4500 -56.4209 -56.4031
   -56.3959 -56.3856 -56.3746 -56.3718 -56.3477 -56.3465 -56.3267 -56.3237
   -56.3184 -56.3131 -56.3039 -56.2952 -56.2251 -56.2186 -56.2086 -56.1926
   -56.1918 -56.1868 -56.1867 -56.1851 -56.1831 -56.1828 -56.1686 -56.1374
   -12.1247  -6.4572  -4.5571  -3.6845  -3.5757  -3.2014  -3.1132  -3.0345
    -2.5990  -2.4438  -2.3309  -2.1426  -2.0393  -1.8324  -1.7819  -1.7025
    -1.5996  -1.4765  -1.3988  -1.1148  -1.0884  -0.9726  -0.7128  -0.5279
    -0.4585  -0.3911  -0.3838  -0.2737  -0.1526  -0.0830  -0.0512  -0.0149
     0.0698   0.1131   0.1550   0.2263   0.3024   0.3132   0.3710   0.4256
     0.4715   0.4850   0.5738   0.6511   0.6805   0.7279   1.0124   1.0331
     1.1332   1.2083   1.2884   1.4676   1.4932   1.5899   1.6186   1.6737
     1.7199   1.7800   1.8366   1.8601   1.9323   2.0079   2.0375   2.0802
     2.1384   2.1878   2.3633

          k = 0.3333 0.1925 0.0000 ( 13322 PWs)   bands (ev):

   -93.1215 -93.1002 -93.0966 -93.0921 -93.0694 -93.0567 -93.0516 -92.8921
   -92.8752 -92.8705 -92.8669 -92.8664 -56.6742 -56.6013 -56.5916 -56.5267
   -56.5082 -56.4989 -56.4875 -56.4747 -56.4736 -56.4490 -56.4170 -56.4163
   -56.3970 -56.3886 -56.3877 -56.3634 -56.3540 -56.3476 -56.3256 -56.3229
   -56.3187 -56.3134 -56.2935 -56.2935 -56.2245 -56.2166 -56.2128 -56.2112
   -56.1941 -56.1908 -56.1886 -56.1864 -56.1847 -56.1800 -56.1688 -56.1399
   -12.1146  -6.2484  -4.4271  -4.1722  -3.3869  -3.1279  -3.1070  -2.7278
    -2.6231  -2.5350  -2.2633  -2.1068  -2.0472  -1.8064  -1.6928  -1.6898
    -1.5209  -1.3882  -1.3780  -1.1045  -1.0509  -0.9946  -0.8074  -0.5984
    -0.5338  -0.5312  -0.4266  -0.3104  -0.1291  -0.0969  -0.0921   0.0003
     0.0082   0.0534   0.1272   0.2216   0.2541   0.3027   0.3527   0.3587
     0.3710   0.4359   0.5008   0.5518   0.6793   0.7287   0.9824   1.0027
     1.1185   1.1805   1.2656   1.4209   1.4439   1.4495   1.5278   1.5630
     1.6097   1.6506   1.7196   1.8116   1.8536   1.9383   1.9652   2.0400
     2.1191   2.1657   2.2751

          k = 0.3333-0.7698 0.0000 ( 13313 PWs)   bands (ev):

   -93.1182 -93.1021 -93.0965 -93.0923 -93.0678 -93.0598 -93.0512 -92.8868
   -92.8783 -92.8721 -92.8706 -92.8635 -56.6616 -56.6075 -56.5839 -56.5094
   -56.4934 -56.4810 -56.4722 -56.4667 -56.4599 -56.4495 -56.4455 -56.4198
   -56.4124 -56.4004 -56.3806 -56.3636 -56.3597 -56.3520 -56.3369 -56.3229
   -56.3085 -56.3015 -56.2914 -56.2716 -56.2501 -56.2239 -56.2204 -56.2168
   -56.1984 -56.1960 -56.1903 -56.1872 -56.1852 -56.1845 -56.1688 -56.1519
   -12.0948  -5.6445  -4.5916  -3.9939  -3.7096  -3.4455  -3.0146  -2.7864
    -2.4737  -2.2601  -2.1059  -1.9599  -1.8371  -1.7077  -1.5706  -1.5203
    -1.4823  -1.2716  -1.2256  -1.0541  -1.0337  -0.9804  -0.9241  -0.8503
    -0.7551  -0.6279  -0.5693  -0.4761  -0.3834  -0.3163  -0.2856  -0.2175
    -0.1764  -0.1132   0.0064   0.0646   0.1173   0.1529   0.2715   0.3848
     0.4202   0.5095   0.5773   0.6424   0.7663   0.9125   0.9522   0.9726
     1.0426   1.0944   1.1760   1.2076   1.2964   1.3573   1.4368   1.5126
     1.6261   1.6577   1.6790   1.7889   1.8257   1.8527   1.9188   1.9878
     2.0220   2.1328   2.2222

          k = 0.3333-0.5774 0.0000 ( 13323 PWs)   bands (ev):

   -93.1162 -93.1036 -93.0961 -93.0926 -93.0651 -93.0634 -93.0508 -92.8797
   -92.8796 -92.8790 -92.8707 -92.8624 -56.6525 -56.6143 -56.5790 -56.4900
   -56.4807 -56.4655 -56.4636 -56.4632 -56.4611 -56.4578 -56.4564 -56.4387
   -56.4107 -56.4091 -56.3725 -56.3626 -56.3594 -56.3577 -56.3468 -56.3243
   -56.3044 -56.2912 -56.2784 -56.2605 -56.2596 -56.2572 -56.2188 -56.2139
   -56.2102 -56.1904 -56.1881 -56.1863 -56.1846 -56.1743 -56.1719 -56.1711
   -12.0849  -4.7876  -4.7251  -4.6586  -3.4718  -3.4655  -3.4605  -2.5803
    -2.4242  -2.3228  -1.7434  -1.7311  -1.6476  -1.6230  -1.6011  -1.5433
    -1.3137  -1.2726  -1.1698  -1.1435  -1.1407  -0.9775  -0.9096  -0.8990
    -0.8946  -0.6896  -0.6346  -0.6166  -0.5331  -0.5158  -0.4077  -0.4004
    -0.3529  -0.3118  -0.1318   0.0095   0.1657   0.3259   0.3324   0.4035
     0.4143   0.4867   0.5205   0.7156   0.8252   0.8988   0.9911   1.0331
     1.0713   1.1604   1.1785   1.2415   1.2683   1.2985   1.5960   1.6050
     1.7157   1.7204   1.7231   1.7787   1.8166   1.8379   1.8413   1.8544
     1.8621   1.8910   1.9045

          k = 0.3333-0.3849 0.0000 ( 13313 PWs)   bands (ev):

   -93.1182 -93.1021 -93.0965 -93.0923 -93.0679 -93.0597 -93.0513 -92.8868
   -92.8783 -92.8721 -92.8706 -92.8635 -56.6616 -56.6075 -56.5839 -56.5094
   -56.4934 -56.4809 -56.4722 -56.4667 -56.4600 -56.4495 -56.4455 -56.4198
   -56.4125 -56.4003 -56.3807 -56.3636 -56.3597 -56.3519 -56.3369 -56.3230
   -56.3085 -56.3015 -56.2913 -56.2716 -56.2501 -56.2239 -56.2204 -56.2167
   -56.1984 -56.1960 -56.1903 -56.1872 -56.1852 -56.1845 -56.1688 -56.1519
   -12.0948  -5.6445  -4.5916  -3.9939  -3.7096  -3.4455  -3.0146  -2.7864
    -2.4736  -2.2601  -2.1059  -1.9599  -1.8371  -1.7077  -1.5706  -1.5202
    -1.4823  -1.2716  -1.2257  -1.0541  -1.0337  -0.9805  -0.9241  -0.8504
    -0.7551  -0.6279  -0.5693  -0.4761  -0.3834  -0.3163  -0.2856  -0.2176
    -0.1764  -0.1133   0.0064   0.0646   0.1173   0.1529   0.2714   0.3848
     0.4202   0.5094   0.5774   0.6424   0.7663   0.9125   0.9522   0.9726
     1.0426   1.0944   1.1760   1.2077   1.2964   1.3573   1.4368   1.5126
     1.6261   1.6577   1.6790   1.7888   1.8257   1.8527   1.9188   1.9878
     2.0220   2.1328   2.2222

          k =-0.5000 0.2887 0.0000 ( 13378 PWs)   bands (ev):

   -93.1181 -93.1025 -93.0965 -93.0920 -93.0684 -93.0588 -93.0517 -92.8839
   -92.8834 -92.8706 -92.8669 -92.8664 -56.6622 -56.6054 -56.5860 -56.5128
   -56.4983 -56.4819 -56.4639 -56.4621 -56.4521 -56.4462 -56.4373 -56.4287
   -56.4255 -56.3968 -56.3949 -56.3608 -56.3598 -56.3456 -56.3350 -56.3265
   -56.3087 -56.3042 -56.2925 -56.2445 -56.2429 -56.2300 -56.2277 -56.2268
   -56.2162 -56.1931 -56.1908 -56.1878 -56.1854 -56.1847 -56.1557 -56.1531
   -12.0946  -5.3368  -5.2166  -3.8936  -3.7040  -3.0834  -2.8578  -2.6523
    -2.5043  -2.4952  -2.1046  -2.0904  -1.9075  -1.8241  -1.5422  -1.4695
    -1.3978  -1.3762  -1.1762  -1.1389  -0.9091  -0.8776  -0.8484  -0.8386
    -0.8143  -0.7050  -0.5336  -0.4101  -0.3556  -0.2880  -0.2571  -0.2452
    -0.1921  -0.0949  -0.0690   0.1448   0.1659   0.1681   0.1841   0.3062
     0.4271   0.4492   0.5535   0.7661   0.8295   0.8658   0.9113   0.9286
     1.0552   1.1013   1.1672   1.1715   1.2514   1.2797   1.3186   1.3474
     1.5087   1.5325   1.5799   1.6166   1.8429   1.9381   1.9619   2.0273
     2.1293   2.1981   2.2814

          k =-0.5000 0.4811 0.0000 ( 13313 PWs)   bands (ev):

   -93.1182 -93.1021 -93.0965 -93.0923 -93.0678 -93.0597 -93.0512 -92.8868
   -92.8783 -92.8721 -92.8706 -92.8635 -56.6616 -56.6075 -56.5839 -56.5094
   -56.4934 -56.4809 -56.4722 -56.4668 -56.4599 -56.4495 -56.4455 -56.4198
   -56.4125 -56.4003 -56.3807 -56.3636 -56.3597 -56.3519 -56.3369 -56.3230
   -56.3085 -56.3015 -56.2914 -56.2716 -56.2501 -56.2239 -56.2204 -56.2167
   -56.1984 -56.1960 -56.1903 -56.1872 -56.1852 -56.1845 -56.1688 -56.1519
   -12.0948  -5.6445  -4.5916  -3.9939  -3.7096  -3.4455  -3.0146  -2.7864
    -2.4736  -2.2601  -2.1059  -1.9599  -1.8371  -1.7077  -1.5706  -1.5203
    -1.4823  -1.2716  -1.2256  -1.0541  -1.0337  -0.9804  -0.9242  -0.8504
    -0.7551  -0.6279  -0.5693  -0.4761  -0.3834  -0.3163  -0.2856  -0.2176
    -0.1764  -0.1133   0.0064   0.0646   0.1173   0.1528   0.2715   0.3849
     0.4201   0.5095   0.5774   0.6424   0.7663   0.9125   0.9521   0.9726
     1.0426   1.0944   1.1760   1.2076   1.2964   1.3573   1.4368   1.5126
     1.6261   1.6577   1.6790   1.7889   1.8257   1.8527   1.9188   1.9878
     2.0220   2.1328   2.2222

          k =-0.5000 0.6736 0.0000 ( 13313 PWs)   bands (ev):

   -93.1182 -93.1021 -93.0965 -93.0923 -93.0678 -93.0598 -93.0512 -92.8868
   -92.8783 -92.8721 -92.8706 -92.8635 -56.6616 -56.6075 -56.5839 -56.5094
   -56.4934 -56.4810 -56.4722 -56.4667 -56.4599 -56.4495 -56.4455 -56.4198
   -56.4124 -56.4004 -56.3806 -56.3637 -56.3597 -56.3520 -56.3369 -56.3229
   -56.3085 -56.3015 -56.2914 -56.2716 -56.2501 -56.2239 -56.2204 -56.2168
   -56.1984 -56.1960 -56.1903 -56.1872 -56.1852 -56.1845 -56.1688 -56.1519
   -12.0948  -5.6445  -4.5916  -3.9939  -3.7096  -3.4455  -3.0146  -2.7864
    -2.4736  -2.2601  -2.1059  -1.9599  -1.8371  -1.7077  -1.5706  -1.5203
    -1.4823  -1.2716  -1.2256  -1.0541  -1.0337  -0.9804  -0.9241  -0.8503
    -0.7551  -0.6279  -0.5693  -0.4761  -0.3834  -0.3163  -0.2856  -0.2176
    -0.1764  -0.1133   0.0064   0.0646   0.1173   0.1528   0.2715   0.3848
     0.4202   0.5095   0.5773   0.6423   0.7663   0.9125   0.9522   0.9726
     1.0426   1.0944   1.1760   1.2076   1.2964   1.3573   1.4368   1.5126
     1.6261   1.6577   1.6790   1.7889   1.8257   1.8527   1.9188   1.9878
     2.0220   2.1328   2.2222

          k =-0.5000-0.2887 0.0000 ( 13378 PWs)   bands (ev):

   -93.1181 -93.1025 -93.0964 -93.0921 -93.0683 -93.0589 -93.0516 -92.8839
   -92.8834 -92.8706 -92.8669 -92.8664 -56.6623 -56.6054 -56.5861 -56.5127
   -56.4984 -56.4821 -56.4638 -56.4620 -56.4521 -56.4463 -56.4373 -56.4286
   -56.4256 -56.3969 -56.3949 -56.3608 -56.3598 -56.3457 -56.3350 -56.3265
   -56.3087 -56.3042 -56.2925 -56.2445 -56.2429 -56.2300 -56.2277 -56.2268
   -56.2162 -56.1931 -56.1908 -56.1878 -56.1854 -56.1847 -56.1557 -56.1531
   -12.0946  -5.3368  -5.2167  -3.8936  -3.7040  -3.0834  -2.8578  -2.6524
    -2.5043  -2.4953  -2.1046  -2.0904  -1.9075  -1.8241  -1.5422  -1.4696
    -1.3978  -1.3762  -1.1762  -1.1389  -0.9091  -0.8776  -0.8484  -0.8386
    -0.8143  -0.7050  -0.5336  -0.4101  -0.3555  -0.2880  -0.2571  -0.2451
    -0.1921  -0.0950  -0.0690   0.1448   0.1659   0.1682   0.1841   0.3061
     0.4270   0.4492   0.5535   0.7660   0.8295   0.8658   0.9113   0.9286
     1.0552   1.1014   1.1671   1.1716   1.2514   1.2797   1.3186   1.3473
     1.5087   1.5325   1.5798   1.6166   1.8429   1.9381   1.9618   2.0273
     2.1293   2.1980   2.2813

     the Fermi energy is     1.0109 ev

!    total energy              =   -3618.84792363 Ry
     Harris-Foulkes estimate   =   -3618.84792194 Ry
     estimated scf accuracy    <       0.00000082 Ry

     The total energy is the sum of the following terms:

     one-electron contribution =  -32021.47625341 Ry
     hartree contribution      =   16019.89980022 Ry
     xc contribution           =    -414.14828976 Ry
     ewald contribution        =   12796.95486143 Ry
     electric field correction =       0.00003298 Ry
     smearing contrib. (-TS)   =      -0.07807508 Ry

     total magnetization       =    19.66 Bohr mag/cell
     absolute magnetization    =    22.20 Bohr mag/cell

     convergence has been achieved in   6 iterations

     Forces acting on atoms (Ry/au):


     negative rho (up, down):  6.069E-04 3.078E-04
     atom    1 type  1   force =    -0.00002223   -0.00000497    0.00836485
     atom    2 type  1   force =     0.00001799   -0.00228634    0.01073409
     atom    3 type  1   force =    -0.00197754    0.00115942    0.01073352
     atom    4 type  1   force =     0.00197454    0.00113645    0.01075157
     atom    5 type  1   force =     0.00036600   -0.00026074   -0.00580054
     atom    6 type  1   force =    -0.00037397   -0.00022313   -0.00577118
     atom    7 type  1   force =     0.00004727    0.00003148   -0.02374151
     atom    8 type  1   force =    -0.00003577    0.00045760   -0.00579966
     atom    9 type  1   force =    -0.00097925   -0.00055377    0.00016990
     atom   10 type  1   force =     0.00094992   -0.00043533    0.00026806
     atom   11 type  1   force =     0.00008748    0.00103808    0.00026341
     atom   12 type  1   force =    -0.00007953   -0.00007040   -0.00098120
     atom   13 type  2   force =     0.00002510    0.00001165    0.00080868

     Total force =     0.002289     Total SCF correction =     0.004322
     SCF correction compared to forces is large: reduce conv_thr to get better values

     bfgs converged in   5 scf cycles and   3 bfgs steps
     (criteria: energy <  1.0E+12, force <  1.9E-03)

     End of BFGS Geometry Optimization

     Final energy   =   -3618.8479236321 Ry
Begin final coordinates

ATOMIC_POSITIONS (angstrom)
Co       1.253137179   0.723499087  10.000000000    0   0   0
Co       3.759411536   0.723499087  10.000000000    0   0   0
Co       2.506274357   2.893996350  10.000000000    0   0   0
Co       5.012548715   2.893996350  10.000000000    0   0   0
Co       5.012548715   1.446998175  12.046364444    0   0   0
Co       2.506274357   1.446998175  12.046364444    0   0   0
Co       6.265685894   3.617495438  12.046364444    0   0   0
Co       3.759411536   3.617495438  12.046364444    0   0   0
Co      -0.028151808  -0.016270070  14.071958982
Co       2.534650885  -0.016352476  14.071862299
Co       1.253176032   2.203152980  14.071826494
Co       3.759405247   2.170505168  14.045714282
S        1.253161483   0.723502701  15.685107365
End final coordinates



     Writing output data file calc.save
 
     init_run     :      6.09s CPU      7.67s WALL (       1 calls)
     electrons    :    976.28s CPU   1276.23s WALL (       5 calls)
     update_pot   :      5.31s CPU      6.90s WALL (       4 calls)
     forces       :     25.56s CPU     30.59s WALL (       5 calls)

     Called by init_run:
     wfcinit      :      3.95s CPU      5.10s WALL (       1 calls)
     potinit      :      0.60s CPU      0.84s WALL (       1 calls)

     Called by electrons:
     c_bands      :    767.28s CPU   1006.41s WALL (      59 calls)
     sum_band     :    139.26s CPU    179.83s WALL (      59 calls)
     v_of_rho     :     27.16s CPU     37.87s WALL (      64 calls)
     newd         :     40.70s CPU     45.11s WALL (      64 calls)
     mix_rho      :      1.07s CPU      1.39s WALL (      59 calls)
     vdW_energy   :      4.43s CPU      4.91s WALL (      69 calls)
     vdW_ffts     :      6.39s CPU     10.22s WALL (     138 calls)
     vdW_v        :      2.56s CPU      3.02s WALL (      69 calls)

     Called by c_bands:
     init_us_2    :      4.26s CPU      4.63s WALL (    2480 calls)
     cegterg      :    664.31s CPU    817.62s WALL (    1180 calls)

     Called by *egterg:
     h_psi        :    283.34s CPU    393.19s WALL (    5051 calls)
     s_psi        :     35.75s CPU     36.61s WALL (    5051 calls)
     g_psi        :      2.74s CPU      2.78s WALL (    3851 calls)
     cdiaghg      :    199.68s CPU    202.43s WALL (    4951 calls)

     Called by h_psi:
     add_vuspsi   :     37.27s CPU     38.03s WALL (    5051 calls)

     General routines
     calbec       :     54.46s CPU     56.96s WALL (    6331 calls)
     fft          :     12.71s CPU     20.76s WALL (    5479 calls)
     ffts         :      0.12s CPU      0.17s WALL (     246 calls)
     fftw         :    205.59s CPU    333.37s WALL (  789846 calls)
     interpolate  :      0.55s CPU      0.97s WALL (     246 calls)
     davcio       :      0.02s CPU      0.35s WALL (      20 calls)
 
     Parallel routines
     fft_scatter  :     99.05s CPU    191.52s WALL (  795571 calls)
 
     PWSCF        : 16m58.76s CPU    22m 9.96s WALL

 
   This run was terminated on:  18:33:10  11Jan2019            

=------------------------------------------------------------------------------=
   JOB DONE.
=------------------------------------------------------------------------------=
Job  /afs/slac/g/suncat/bin/suncat-tsmpirun -x LD_LIBRARY_PATH -wdir /tmp/qe_673114zrw9zwz4_scratch pw.x -npool 2 -in pw.pwi

TID   HOST_NAME   COMMAND_LINE            STATUS            TERMINATION_TIME
===== ========== ================  =======================  ===================
00000 suncat2062 pw.x -npool 2 -i  Done                     01/11/2019 18:33:10
00001 suncat2062 pw.x -npool 2 -i  Done                     01/11/2019 18:33:10
00002 suncat2062 pw.x -npool 2 -i  Done                     01/11/2019 18:33:10
00003 suncat2062 pw.x -npool 2 -i  Done                     01/11/2019 18:33:10
00004 suncat2062 pw.x -npool 2 -i  Done                     01/11/2019 18:33:10
00005 suncat2062 pw.x -npool 2 -i  Done                     01/11/2019 18:33:10
00006 suncat2062 pw.x -npool 2 -i  Done                     01/11/2019 18:33:10
00007 suncat2062 pw.x -npool 2 -i  Done                     01/11/2019 18:33:10
00008 suncat2062 pw.x -npool 2 -i  Done                     01/11/2019 18:33:10
00009 suncat2062 pw.x -npool 2 -i  Done                     01/11/2019 18:33:10
00010 suncat2062 pw.x -npool 2 -i  Done                     01/11/2019 18:33:10
00011 suncat2062 pw.x -npool 2 -i  Done                     01/11/2019 18:33:10
00012 suncat2062 pw.x -npool 2 -i  Done                     01/11/2019 18:33:10
00013 suncat2062 pw.x -npool 2 -i  Done                     01/11/2019 18:33:10
00014 suncat2062 pw.x -npool 2 -i  Done                     01/11/2019 18:33:10
00015 suncat2062 pw.x -npool 2 -i  Done                     01/11/2019 18:33:10
00016 suncat2058 pw.x -npool 2 -i  Done                     01/11/2019 18:33:10
00017 suncat2058 pw.x -npool 2 -i  Done                     01/11/2019 18:33:10
00018 suncat2058 pw.x -npool 2 -i  Done                     01/11/2019 18:33:10
00019 suncat2058 pw.x -npool 2 -i  Done                     01/11/2019 18:33:10
00020 suncat2058 pw.x -npool 2 -i  Done                     01/11/2019 18:33:10
00021 suncat2058 pw.x -npool 2 -i  Done                     01/11/2019 18:33:10
00022 suncat2058 pw.x -npool 2 -i  Done                     01/11/2019 18:33:10
00023 suncat2058 pw.x -npool 2 -i  Done                     01/11/2019 18:33:10
00024 suncat2058 pw.x -npool 2 -i  Done                     01/11/2019 18:33:10
00025 suncat2058 pw.x -npool 2 -i  Done                     01/11/2019 18:33:10
00026 suncat2058 pw.x -npool 2 -i  Done                     01/11/2019 18:33:10
00027 suncat2058 pw.x -npool 2 -i  Done                     01/11/2019 18:33:10
00028 suncat2058 pw.x -npool 2 -i  Done                     01/11/2019 18:33:10
00029 suncat2058 pw.x -npool 2 -i  Done                     01/11/2019 18:33:10
00030 suncat2058 pw.x -npool 2 -i  Done                     01/11/2019 18:33:10
00031 suncat2058 pw.x -npool 2 -i  Done                     01/11/2019 18:33:10
