  python dir          : /u/if/mamunm/src/espresso
  espresso dir        : /nfs/slac/g/suncatfs/sw/espv18/espresso-dynpy-beef/bin
  pseudo dir          : /u/if/mamunm/psp/gbrv1.5pbe
  ase-espresso py git : GITVERSION



     Program PWSCF v.5.1rc2 (svn rev. 11289) starts on 21Apr2018 at 19:36:37 

     This program is part of the open-source Quantum ESPRESSO suite
     for quantum simulation of materials; please cite
         "P. Giannozzi et al., J. Phys.:Condens. Matter 21 395502 (2009);
          URL http://www.quantum-espresso.org", 
     in publications or presentations arising from this work. More details at
     http://www.quantum-espresso.org/quote

     Parallel version (MPI), running on    32 processors
     K-points division:     npool     =       4
     R & G space division:  proc/nbgrp/npool/nimage =       8
     Reading input from pw.inp
     Message from routine read_cards :
     DEPRECATED: no units specified in CELL_PARAMETERS card

     Current dimensions of program PWSCF are:
     Max number of different atomic species (ntypx) = 10
     Max number of k-points (npk) =  40000
     Max angular momentum in pseudopotentials (lmaxx) =  3
     Presently stress not available with electric field


     **************************************************************************
     Initializing libbeef V0.1.1 with the BEEF-vdW functional.
     Citation: Wellendorff et al., PRB 85, 235149 (2012).
     **************************************************************************


     IMPORTANT: XC functional enforced from input :
     Exchange-correlation      = BEEF-VDW ( 1  4 27 13 2)
     Any further DFT definition will be discarded
     Please, verify this is what you really want


     Subspace diagonalization in iterative solution of the eigenvalue problem:
     a serial algorithm will be used

 
     Parallelization info
     --------------------
     sticks:   dense  smooth     PW     G-vecs:    dense   smooth      PW
     Min         358     144     41                67928    17211    2707
     Max         359     145     43                67951    17239    2717
     Sum        2869    1159    337               543535   137813   21685
 


     bravais-lattice index     =            0
     lattice parameter (alat)  =       1.8897  a.u.
     unit-cell volume          =    4569.9960 (a.u.)^3
     number of atoms/cell      =           14
     number of atomic types    =            3
     number of electrons       =       197.00
     number of Kohn-Sham states=          108
     kinetic-energy cutoff     =      36.7493  Ry
     charge density cutoff     =     367.4932  Ry
     convergence threshold     =      1.0E-05
     mixing beta               =       0.3000
     number of iterations used =           10  plain     mixing
     Exchange-correlation      = BEEF-VDW ( 1  4 27 13 2)
     nstep                     =           50


     celldm(1)=   1.889726  celldm(2)=   0.000000  celldm(3)=   0.000000
     celldm(4)=   0.000000  celldm(5)=   0.000000  celldm(6)=   0.000000

     crystal axes: (cart. coord. in units of alat)
               a(1) = (   5.637663   0.000000   0.000000 )  
               a(2) = (   2.818831   4.882359   0.000000 )  
               a(3) = (   0.000000   0.000000  24.603132 )  

     reciprocal axes: (cart. coord. in units 2 pi/alat)
               b(1) = (  0.177378 -0.102410  0.000000 )  
               b(2) = (  0.000000  0.204819  0.000000 )  
               b(3) = (  0.000000  0.000000  0.040645 )  


     PseudoPot. # 1 for Pd read from file:
     /u/if/mamunm/psp/gbrv1.5pbe/Pd.UPF
     MD5 check sum: 2d733d2bc2cbfd217af676df1668a4bc
     Pseudo is Ultrasoft + core correction, Zval = 16.0
     Generated by new atomic code, or converted to UPF format
     Using radial grid of  887 points,  6 beta functions with: 
                l(1) =   0
                l(2) =   0
                l(3) =   1
                l(4) =   1
                l(5) =   2
                l(6) =   2
     Q(r) pseudized with  8 coefficients,  rinner =    1.130   1.130   1.130
                                                       1.130   1.130

     PseudoPot. # 2 for C  read from file:
     /u/if/mamunm/psp/gbrv1.5pbe/C.UPF
     MD5 check sum: d1aef80898a10debaa0f26306b886e00
     Pseudo is Ultrasoft + core correction, Zval =  4.0
     Generated by new atomic code, or converted to UPF format
     Using radial grid of  721 points,  4 beta functions with: 
                l(1) =   0
                l(2) =   0
                l(3) =   1
                l(4) =   1
     Q(r) pseudized with  8 coefficients,  rinner =    1.100   1.100   1.100


     PseudoPot. # 3 for H  read from file:
     /u/if/mamunm/psp/gbrv1.5pbe/H.UPF
     MD5 check sum: 761ae9a214b05c3daf00ab9f6b793d6f
     Pseudo is Ultrasoft, Zval =  1.0
     Generated by new atomic code, or converted to UPF format
     Using radial grid of  615 points,  2 beta functions with: 
                l(1) =   0
                l(2) =   0
     Q(r) pseudized with  8 coefficients,  rinner =    0.700

     vdW kernel table read from file vdW_kernel_table
     MD5 check sum: 095c7af220d748ca6e76c0b4c6cfb241

     atomic species   valence    mass     pseudopotential
        Pd1           16.00   106.42000     Pd( 1.00)
        C1             4.00    12.01100     C ( 1.00)
        H1             1.00     1.00800     H ( 1.00)

     No symmetry found



   Cartesian axes

     site n.     atom                  positions (alat units)
         1           Pd1 tau(   1) = (   1.4094157   0.8137265  10.0000000  )
         2           Pd1 tau(   2) = (   4.2282471   0.8137265  10.0000000  )
         3           Pd1 tau(   3) = (   2.8188314   3.2549061  10.0000000  )
         4           Pd1 tau(   4) = (   5.6376627   3.2549061  10.0000000  )
         5           Pd1 tau(   5) = (   5.6376627   1.6274531  12.3015662  )
         6           Pd1 tau(   6) = (   2.8188314   1.6274531  12.3015662  )
         7           Pd1 tau(   7) = (   7.0470784   4.0686326  12.3015662  )
         8           Pd1 tau(   8) = (   4.2282471   4.0686326  12.3015662  )
         9           Pd1 tau(   9) = (   0.0000000   0.0000000  14.6031324  )
        10           Pd1 tau(  10) = (   2.8188314   0.0000000  14.6031324  )
        11           Pd1 tau(  11) = (   1.4094157   2.4411796  14.6031324  )
        12           Pd1 tau(  12) = (   4.2282471   2.4411796  14.6031324  )
        13           C1  tau(  13) = (   0.0000000   0.0000000  16.4306324  )
        14           H1  tau(  14) = (   0.0000000   0.0000000  17.5306324  )

     number of k points=    20  Fermi-Dirac smearing, width (Ry)=  0.0110
                       cart. coord. in units 2pi/alat
        k(    1) = (   0.0000000   0.0000000   0.0000000), wk =   0.0555556
        k(    2) = (   0.0000000   0.0341365   0.0000000), wk =   0.1111111
        k(    3) = (   0.0000000   0.0682730   0.0000000), wk =   0.1111111
        k(    4) = (   0.0000000  -0.1024095   0.0000000), wk =   0.0555556
        k(    5) = (   0.0295631  -0.0170683   0.0000000), wk =   0.1111111
        k(    6) = (   0.0295631   0.0170683   0.0000000), wk =   0.1111111
        k(    7) = (   0.0295631   0.0512048   0.0000000), wk =   0.1111111
        k(    8) = (   0.0295631  -0.1194778   0.0000000), wk =   0.1111111
        k(    9) = (   0.0295631  -0.0853413   0.0000000), wk =   0.1111111
        k(   10) = (   0.0295631  -0.0512048   0.0000000), wk =   0.1111111
        k(   11) = (   0.0591262  -0.0341365   0.0000000), wk =   0.1111111
        k(   12) = (   0.0591262  -0.0000000   0.0000000), wk =   0.1111111
        k(   13) = (   0.0591262   0.0341365   0.0000000), wk =   0.1111111
        k(   14) = (   0.0591262  -0.1365460   0.0000000), wk =   0.1111111
        k(   15) = (   0.0591262  -0.1024095   0.0000000), wk =   0.1111111
        k(   16) = (   0.0591262  -0.0682730   0.0000000), wk =   0.1111111
        k(   17) = (  -0.0886892   0.0512048   0.0000000), wk =   0.0555556
        k(   18) = (  -0.0886892   0.0853413   0.0000000), wk =   0.1111111
        k(   19) = (  -0.0886892   0.1194778   0.0000000), wk =   0.1111111
        k(   20) = (  -0.0886892  -0.0512048   0.0000000), wk =   0.0555556

     Dense  grid:   543535 G-vectors     FFT dimensions: (  72,  72, 288)

     Smooth grid:   137813 G-vectors     FFT dimensions: (  45,  45, 180)

     Largest allocated arrays     est. size (Mb)     dimensions
        Kohn-Sham Wavefunctions         3.62 Mb     (    2194,  108)
        NL pseudopotentials             7.57 Mb     (    2194,  226)
        Each V/rho on FFT grid          2.85 Mb     (  186624)
        Each G-vector array             0.52 Mb     (   67930)
        G-vector shells                 0.13 Mb     (   17595)
     Largest temporary arrays     est. size (Mb)     dimensions
        Auxiliary wavefunctions        14.46 Mb     (    2194,  432)
        Each subspace H/S matrix        2.85 Mb     (     432,  432)
        Each <psi_i|beta_j> matrix      0.37 Mb     (     226,  108)
        Arrays for rho mixing          28.48 Mb     (  186624,   10)

     Initial potential from superposition of free atoms
     Check: negative starting charge=   -0.903935

     starting charge  190.99987, renormalised to  197.00000

     negative rho (up, down):  9.323E-01 0.000E+00


     ************************************************************************
     *
     * You are using vdW-DF for exchange-correlation in this calculation.
     * Please cite the following three references that made this development
     * possible:
     *
     *   M. Dion, H. Rydberg, E. Schroder, D. C. Langreth, and
     *   B. I. Lundqvist, Phys. Rev. Lett. 92, 246401 (2004).
     *
     *   T. Thonhauser, V. R. Cooper, S. Li, A. Puzder, P. Hyldgaard, and
     *   D. C. Langreth, Phys. Rev. B 76, 125112 (2007).
     *
     *   G. Roman-Perez and J. M. Soler, Phys. Rev. Lett. 103, 096102 (2009).
     *
     *
     * If you are using vdW-DF2, please also cite:
     *
     *   K. Lee, E. D. Murray, L. Kong, B. I. Lundqvist, and
     *   D. C. Langreth, Phys. Rev. B 82, 081101(R) (2010).
     *
     *
     * If you are calculating the stress with vdW-DF, please also cite:
     *
     *   R. Sabatini, E. Kucukbenli, B. Kolb, T. Thonhauser, and
     *   S. de Gironcoli, J. Phys.: Condens. Matter 24, 424209 (2012).
     *
     ************************************************************************

     Carrying out vdW-DF run using the following parameters:

     Nqs =      20    Nr_points =    1024   r_max =   100.000
     q_mesh =
               0.00001000     0.04494208     0.09755937     0.15916263
               0.23128650     0.31572767     0.41458969     0.53033537
               0.66584808     0.82450364     1.01025438     1.22772762
               1.48234092     1.78043706     2.12944203     2.53805004
               3.01644009     3.57652955     4.23227104     5.00000000

     Gradients computed in reciprocal space

     ************************************************************************


 
     Adding external electric field

     Computed dipole along edir(3) : 
        Dipole               -1.2905 Ry au,         -3.2801 Debye
        Dipole field         -0.0035 Ry au
 
        Potential amp.        0.3217 Ry
        Total length         45.3309 bohr
 
     Starting wfc are  149 randomized atomic wfcs

     total cpu time spent up to now is       12.3 secs

     per-process dynamical memory:    85.4 Mb

     Self-consistent Calculation

     iteration #  1     ecut=    36.75 Ry     beta=0.30
     Davidson diagonalization with overlap
     ethr =  1.00E-02,  avg # of iterations =  3.6

     negative rho (up, down):  9.260E-01 0.000E+00
 
     Adding external electric field

     Computed dipole along edir(3) : 
        Dipole               19.5740 Ry au,         49.7521 Debye
        Dipole field          0.0538 Ry au
 
        Potential amp.       -4.8797 Ry
        Total length         45.3309 bohr
 

     total cpu time spent up to now is       32.6 secs

     total energy              =   -2377.84521748 Ry
     Harris-Foulkes estimate   =   -2413.58350714 Ry
     estimated scf accuracy    <      75.62229513 Ry

     iteration #  2     ecut=    36.75 Ry     beta=0.30
     Davidson diagonalization with overlap
     ethr =  1.00E-02,  avg # of iterations = 13.6

     negative rho (up, down):  9.251E-01 0.000E+00
 
     Adding external electric field

     Computed dipole along edir(3) : 
        Dipole                0.2180 Ry au,          0.5542 Debye
        Dipole field          0.0006 Ry au
 
        Potential amp.       -0.0544 Ry
        Total length         45.3309 bohr
 

     total cpu time spent up to now is       72.5 secs

     total energy              =   -2332.87686857 Ry
     Harris-Foulkes estimate   =   -2572.31596735 Ry
     estimated scf accuracy    <    6596.72279055 Ry

     iteration #  3     ecut=    36.75 Ry     beta=0.30
     Davidson diagonalization with overlap
     ethr =  1.00E-02,  avg # of iterations =  6.4

     negative rho (up, down):  9.291E-01 0.000E+00
 
     Adding external electric field

     Computed dipole along edir(3) : 
        Dipole                1.5200 Ry au,          3.8634 Debye
        Dipole field          0.0042 Ry au
 
        Potential amp.       -0.3789 Ry
        Total length         45.3309 bohr
 

     total cpu time spent up to now is      102.5 secs

     total energy              =   -2382.47059194 Ry
     Harris-Foulkes estimate   =   -2446.81629226 Ry
     estimated scf accuracy    <    1110.92679678 Ry

     iteration #  4     ecut=    36.75 Ry     beta=0.30
     Davidson diagonalization with overlap
     ethr =  1.00E-02,  avg # of iterations =  5.2

     negative rho (up, down):  9.354E-01 0.000E+00
 
     Adding external electric field

     Computed dipole along edir(3) : 
        Dipole                2.0557 Ry au,          5.2252 Debye
        Dipole field          0.0057 Ry au
 
        Potential amp.       -0.5125 Ry
        Total length         45.3309 bohr
 

     total cpu time spent up to now is      130.5 secs

     total energy              =   -2408.60444658 Ry
     Harris-Foulkes estimate   =   -2412.73586577 Ry
     estimated scf accuracy    <      15.31415361 Ry

     iteration #  5     ecut=    36.75 Ry     beta=0.30
     Davidson diagonalization with overlap
     ethr =  7.77E-03,  avg # of iterations =  2.0

     negative rho (up, down):  9.338E-01 0.000E+00
 
     Adding external electric field

     Computed dipole along edir(3) : 
        Dipole                0.5227 Ry au,          1.3285 Debye
        Dipole field          0.0014 Ry au
 
        Potential amp.       -0.1303 Ry
        Total length         45.3309 bohr
 

     total cpu time spent up to now is      148.3 secs

     total energy              =   -2409.76366877 Ry
     Harris-Foulkes estimate   =   -2410.64177493 Ry
     estimated scf accuracy    <       6.04383158 Ry

     iteration #  6     ecut=    36.75 Ry     beta=0.30
     Davidson diagonalization with overlap
     ethr =  3.07E-03,  avg # of iterations =  3.4

     negative rho (up, down):  9.343E-01 0.000E+00
 
     Adding external electric field

     Computed dipole along edir(3) : 
        Dipole                0.5207 Ry au,          1.3235 Debye
        Dipole field          0.0014 Ry au
 
        Potential amp.       -0.1298 Ry
        Total length         45.3309 bohr
 

     total cpu time spent up to now is      166.9 secs

     total energy              =   -2409.71207013 Ry
     Harris-Foulkes estimate   =   -2410.24364222 Ry
     estimated scf accuracy    <      13.33393210 Ry

     iteration #  7     ecut=    36.75 Ry     beta=0.30
     Davidson diagonalization with overlap
     ethr =  3.07E-03,  avg # of iterations =  1.1

     negative rho (up, down):  9.356E-01 0.000E+00
 
     Adding external electric field

     Computed dipole along edir(3) : 
        Dipole                0.0806 Ry au,          0.2048 Debye
        Dipole field          0.0002 Ry au
 
        Potential amp.       -0.0201 Ry
        Total length         45.3309 bohr
 

     total cpu time spent up to now is      184.1 secs

     total energy              =   -2409.96588738 Ry
     Harris-Foulkes estimate   =   -2410.04948624 Ry
     estimated scf accuracy    <       1.39663770 Ry

     iteration #  8     ecut=    36.75 Ry     beta=0.30
     Davidson diagonalization with overlap
     ethr =  7.09E-04,  avg # of iterations =  1.0

     negative rho (up, down):  9.363E-01 0.000E+00
 
     Adding external electric field

     Computed dipole along edir(3) : 
        Dipole               -0.0184 Ry au,         -0.0468 Debye
        Dipole field         -0.0001 Ry au
 
        Potential amp.        0.0046 Ry
        Total length         45.3309 bohr
 

     total cpu time spent up to now is      201.4 secs

     total energy              =   -2409.97723957 Ry
     Harris-Foulkes estimate   =   -2409.99901408 Ry
     estimated scf accuracy    <       0.15605822 Ry

     iteration #  9     ecut=    36.75 Ry     beta=0.30
     Davidson diagonalization with overlap
     ethr =  7.92E-05,  avg # of iterations =  4.3

     negative rho (up, down):  9.377E-01 0.000E+00
 
     Adding external electric field

     Computed dipole along edir(3) : 
        Dipole               -0.1251 Ry au,         -0.3180 Debye
        Dipole field         -0.0003 Ry au
 
        Potential amp.        0.0312 Ry
        Total length         45.3309 bohr
 

     total cpu time spent up to now is      220.4 secs

     total energy              =   -2409.97095482 Ry
     Harris-Foulkes estimate   =   -2409.99258218 Ry
     estimated scf accuracy    <       0.09956366 Ry

     iteration # 10     ecut=    36.75 Ry     beta=0.30
     Davidson diagonalization with overlap
     ethr =  5.05E-05,  avg # of iterations =  1.4

     negative rho (up, down):  9.387E-01 0.000E+00
 
     Adding external electric field

     Computed dipole along edir(3) : 
        Dipole               -0.1878 Ry au,         -0.4773 Debye
        Dipole field         -0.0005 Ry au
 
        Potential amp.        0.0468 Ry
        Total length         45.3309 bohr
 

     total cpu time spent up to now is      237.9 secs

     total energy              =   -2409.97067185 Ry
     Harris-Foulkes estimate   =   -2409.98196010 Ry
     estimated scf accuracy    <       0.08680286 Ry

     iteration # 11     ecut=    36.75 Ry     beta=0.30
     Davidson diagonalization with overlap
     ethr =  4.41E-05,  avg # of iterations =  2.4

     negative rho (up, down):  9.396E-01 0.000E+00
 
     Adding external electric field

     Computed dipole along edir(3) : 
        Dipole               -0.2426 Ry au,         -0.6165 Debye
        Dipole field         -0.0007 Ry au
 
        Potential amp.        0.0605 Ry
        Total length         45.3309 bohr
 

     total cpu time spent up to now is      255.8 secs

     total energy              =   -2409.97239829 Ry
     Harris-Foulkes estimate   =   -2409.97583342 Ry
     estimated scf accuracy    <       0.02280806 Ry

     iteration # 12     ecut=    36.75 Ry     beta=0.30
     Davidson diagonalization with overlap
     ethr =  1.16E-05,  avg # of iterations =  2.8

     negative rho (up, down):  9.399E-01 0.000E+00
 
     Adding external electric field

     Computed dipole along edir(3) : 
        Dipole               -0.2079 Ry au,         -0.5285 Debye
        Dipole field         -0.0006 Ry au
 
        Potential amp.        0.0518 Ry
        Total length         45.3309 bohr
 

     total cpu time spent up to now is      274.2 secs

     total energy              =   -2409.97153822 Ry
     Harris-Foulkes estimate   =   -2409.97550819 Ry
     estimated scf accuracy    <       0.07641476 Ry

     iteration # 13     ecut=    36.75 Ry     beta=0.30
     Davidson diagonalization with overlap
     ethr =  1.16E-05,  avg # of iterations =  2.0

     negative rho (up, down):  9.408E-01 0.000E+00
 
     Adding external electric field

     Computed dipole along edir(3) : 
        Dipole                0.0035 Ry au,          0.0090 Debye
        Dipole field          0.0000 Ry au
 
        Potential amp.       -0.0009 Ry
        Total length         45.3309 bohr
 

     total cpu time spent up to now is      291.9 secs

     total energy              =   -2409.97175196 Ry
     Harris-Foulkes estimate   =   -2409.97368204 Ry
     estimated scf accuracy    <       0.00938336 Ry

     iteration # 14     ecut=    36.75 Ry     beta=0.30
     Davidson diagonalization with overlap
     ethr =  4.76E-06,  avg # of iterations =  5.0

     negative rho (up, down):  9.414E-01 0.000E+00
 
     Adding external electric field

     Computed dipole along edir(3) : 
        Dipole                0.0907 Ry au,          0.2305 Debye
        Dipole field          0.0002 Ry au
 
        Potential amp.       -0.0226 Ry
        Total length         45.3309 bohr
 

     total cpu time spent up to now is      311.8 secs

     total energy              =   -2409.97003303 Ry
     Harris-Foulkes estimate   =   -2409.97333934 Ry
     estimated scf accuracy    <       0.03938702 Ry

     iteration # 15     ecut=    36.75 Ry     beta=0.30
     Davidson diagonalization with overlap
     ethr =  4.76E-06,  avg # of iterations =  3.2

     negative rho (up, down):  9.425E-01 0.000E+00
 
     Adding external electric field

     Computed dipole along edir(3) : 
        Dipole                0.1658 Ry au,          0.4214 Debye
        Dipole field          0.0005 Ry au
 
        Potential amp.       -0.0413 Ry
        Total length         45.3309 bohr
 

     total cpu time spent up to now is      330.6 secs

     total energy              =   -2409.97121240 Ry
     Harris-Foulkes estimate   =   -2409.97201946 Ry
     estimated scf accuracy    <       0.00503371 Ry

     iteration # 16     ecut=    36.75 Ry     beta=0.30
     Davidson diagonalization with overlap
     ethr =  2.56E-06,  avg # of iterations =  3.1

     negative rho (up, down):  9.417E-01 0.000E+00
 
     Adding external electric field

     Computed dipole along edir(3) : 
        Dipole                0.2232 Ry au,          0.5672 Debye
        Dipole field          0.0006 Ry au
 
        Potential amp.       -0.0556 Ry
        Total length         45.3309 bohr
 

     total cpu time spent up to now is      349.2 secs

     total energy              =   -2409.97161815 Ry
     Harris-Foulkes estimate   =   -2409.97201958 Ry
     estimated scf accuracy    <       0.00684497 Ry

     iteration # 17     ecut=    36.75 Ry     beta=0.30
     Davidson diagonalization with overlap
     ethr =  2.56E-06,  avg # of iterations =  1.4

     negative rho (up, down):  9.418E-01 0.000E+00
 
     Adding external electric field

     Computed dipole along edir(3) : 
        Dipole                0.2486 Ry au,          0.6318 Debye
        Dipole field          0.0007 Ry au
 
        Potential amp.       -0.0620 Ry
        Total length         45.3309 bohr
 

     total cpu time spent up to now is      367.0 secs

     total energy              =   -2409.97187364 Ry
     Harris-Foulkes estimate   =   -2409.97186859 Ry
     estimated scf accuracy    <       0.00044297 Ry

     iteration # 18     ecut=    36.75 Ry     beta=0.30
     Davidson diagonalization with overlap
     ethr =  2.25E-07,  avg # of iterations =  2.8

     negative rho (up, down):  9.421E-01 0.000E+00
 
     Adding external electric field

     Computed dipole along edir(3) : 
        Dipole                0.2627 Ry au,          0.6676 Debye
        Dipole field          0.0007 Ry au
 
        Potential amp.       -0.0655 Ry
        Total length         45.3309 bohr
 

     total cpu time spent up to now is      385.4 secs

     total energy              =   -2409.97190045 Ry
     Harris-Foulkes estimate   =   -2409.97192180 Ry
     estimated scf accuracy    <       0.00049728 Ry

     iteration # 19     ecut=    36.75 Ry     beta=0.30
     Davidson diagonalization with overlap
     ethr =  2.25E-07,  avg # of iterations =  1.0

     negative rho (up, down):  9.421E-01 0.000E+00
 
     Adding external electric field

     Computed dipole along edir(3) : 
        Dipole                0.2716 Ry au,          0.6903 Debye
        Dipole field          0.0007 Ry au
 
        Potential amp.       -0.0677 Ry
        Total length         45.3309 bohr
 

     total cpu time spent up to now is      403.0 secs

     total energy              =   -2409.97192116 Ry
     Harris-Foulkes estimate   =   -2409.97191594 Ry
     estimated scf accuracy    <       0.00019051 Ry

     iteration # 20     ecut=    36.75 Ry     beta=0.30
     Davidson diagonalization with overlap
     ethr =  9.67E-08,  avg # of iterations =  1.0

     negative rho (up, down):  9.423E-01 0.000E+00
 
     Adding external electric field

     Computed dipole along edir(3) : 
        Dipole                0.2757 Ry au,          0.7008 Debye
        Dipole field          0.0008 Ry au
 
        Potential amp.       -0.0687 Ry
        Total length         45.3309 bohr
 

     total cpu time spent up to now is      420.5 secs

     total energy              =   -2409.97192494 Ry
     Harris-Foulkes estimate   =   -2409.97192249 Ry
     estimated scf accuracy    <       0.00010242 Ry

     iteration # 21     ecut=    36.75 Ry     beta=0.30
     Davidson diagonalization with overlap
     ethr =  5.20E-08,  avg # of iterations =  1.0

     negative rho (up, down):  9.423E-01 0.000E+00
 
     Adding external electric field

     Computed dipole along edir(3) : 
        Dipole                0.2784 Ry au,          0.7076 Debye
        Dipole field          0.0008 Ry au
 
        Potential amp.       -0.0694 Ry
        Total length         45.3309 bohr
 

     total cpu time spent up to now is      438.0 secs

     total energy              =   -2409.97192431 Ry
     Harris-Foulkes estimate   =   -2409.97192333 Ry
     estimated scf accuracy    <       0.00001015 Ry

     iteration # 22     ecut=    36.75 Ry     beta=0.30
     Davidson diagonalization with overlap
     ethr =  5.15E-09,  avg # of iterations =  1.8

     negative rho (up, down):  9.424E-01 0.000E+00

     negative rho (up, down):  9.424E-01 0.000E+00

     negative rho (up, down):  9.424E-01 0.000E+00

     negative rho (up, down):  9.424E-01 0.000E+00

     negative rho (up, down):  9.424E-01 0.000E+00

     negative rho (up, down):  9.424E-01 0.000E+00

     negative rho (up, down):  9.424E-01 0.000E+00

     negative rho (up, down):  9.424E-01 0.000E+00

     negative rho (up, down):  9.424E-01 0.000E+00

     negative rho (up, down):  9.424E-01 0.000E+00

     negative rho (up, down):  9.424E-01 0.000E+00

     negative rho (up, down):  9.424E-01 0.000E+00

     negative rho (up, down):  9.424E-01 0.000E+00

     negative rho (up, down):  9.424E-01 0.000E+00

     negative rho (up, down):  9.424E-01 0.000E+00

     negative rho (up, down):  9.424E-01 0.000E+00

     negative rho (up, down):  9.424E-01 0.000E+00

     negative rho (up, down):  9.424E-01 0.000E+00

     negative rho (up, down):  9.424E-01 0.000E+00

     negative rho (up, down):  9.424E-01 0.000E+00

     negative rho (up, down):  9.424E-01 0.000E+00

     negative rho (up, down):  9.424E-01 0.000E+00

     negative rho (up, down):  9.424E-01 0.000E+00

     negative rho (up, down):  9.424E-01 0.000E+00

     negative rho (up, down):  9.424E-01 0.000E+00

     negative rho (up, down):  9.424E-01 0.000E+00

     negative rho (up, down):  9.424E-01 0.000E+00

     negative rho (up, down):  9.424E-01 0.000E+00

     negative rho (up, down):  9.424E-01 0.000E+00

     negative rho (up, down):  9.424E-01 0.000E+00

     negative rho (up, down):  9.424E-01 0.000E+00

     negative rho (up, down):  9.424E-01 0.000E+00

     negative rho (up, down):  9.424E-01 0.000E+00

     negative rho (up, down):  9.424E-01 0.000E+00

     negative rho (up, down):  9.424E-01 0.000E+00
 
     Adding external electric field

     Computed dipole along edir(3) : 
        Dipole                0.2887 Ry au,          0.7337 Debye
        Dipole field          0.0008 Ry au
 
        Potential amp.       -0.0720 Ry
        Total length         45.3309 bohr
 

     total cpu time spent up to now is      504.0 secs

     End of self-consistent calculation

          k = 0.0000 0.0000 0.0000 ( 17231 PWs)   bands (ev):

   -50.2962 -49.5812 -49.5812 -48.5529 -48.5105 -48.5104 -48.4519 -48.4280
   -48.4280 -48.3632 -48.3505 -48.3504 -48.3428 -48.2718 -48.2696 -48.2696
   -48.2445 -48.2445 -48.2355 -48.1556 -48.1556 -48.0976 -48.0708 -48.0708
   -48.0465 -48.0464 -48.0464 -48.0119 -48.0119 -47.9579 -47.9349 -47.9348
   -47.9340 -47.9244 -47.9243 -47.8507 -10.1797  -5.3206  -4.2977  -3.3183
    -3.3183  -3.3036  -3.0724  -3.0724  -3.0242  -2.9980  -2.8364  -2.8363
    -2.7838  -2.6174  -2.5611  -2.5611  -2.4655  -2.2344  -2.2344  -1.5076
    -1.3103  -1.3103  -1.2208  -1.0674  -1.0674  -1.0666  -1.0086  -1.0086
    -0.8321  -0.8321  -0.7283  -0.7283  -0.7161  -0.4654  -0.3150  -0.3150
    -0.0449  -0.0449   0.2566   0.2990   0.2990   0.3386   0.3525   0.3525
     0.5582   0.6691   0.6691   1.0199   1.0200   1.1076   1.1076   1.1111
     1.1650   1.1944   1.1944   1.2600   1.2600   1.3676   1.4046   1.4046
     1.5804   1.5859   1.5859   1.6187   1.6288   1.6288   2.3540   3.5384
     3.7994   3.9495   3.9496   4.9303

          k = 0.0000 0.0341 0.0000 ( 17192 PWs)   bands (ev):

   -50.2962 -49.5807 -49.5797 -48.5423 -48.5011 -48.4982 -48.4495 -48.4290
   -48.4273 -48.3603 -48.3594 -48.3559 -48.3434 -48.2847 -48.2731 -48.2610
   -48.2362 -48.2347 -48.2278 -48.1560 -48.1490 -48.1032 -48.0796 -48.0708
   -48.0585 -48.0538 -48.0467 -48.0261 -48.0154 -47.9556 -47.9355 -47.9342
   -47.9333 -47.9257 -47.9248 -47.8508 -10.1773  -5.3079  -4.1067  -3.2557
    -3.2535  -3.1240  -2.9839  -2.9428  -2.8794  -2.8533  -2.7513  -2.7099
    -2.6728  -2.5421  -2.4661  -2.4239  -2.3259  -2.1877  -2.1832  -1.4891
    -1.2847  -1.2658  -1.2238  -1.1466  -1.1178  -1.0286  -0.9602  -0.9427
    -0.8861  -0.8287  -0.7999  -0.7256  -0.6122  -0.5181  -0.4885  -0.3719
    -0.1677  -0.1292  -0.0087   0.1824   0.2296   0.2715   0.2739   0.3364
     0.4172   0.5743   0.6499   0.8362   0.8371   0.8846   0.9497   0.9743
     1.0291   1.0389   1.1142   1.1747   1.1908   1.1938   1.2531   1.2923
     1.3200   1.4331   1.4395   1.4514   1.5247   1.7583   2.5800   2.8195
     3.6613   3.8843   3.9384   4.0092

          k = 0.0000 0.0683 0.0000 ( 17196 PWs)   bands (ev):

   -50.2961 -49.5796 -49.5767 -48.5185 -48.4770 -48.4651 -48.4430 -48.4318
   -48.4265 -48.3825 -48.3788 -48.3548 -48.3369 -48.3220 -48.2810 -48.2375
   -48.2171 -48.2149 -48.1953 -48.1544 -48.1311 -48.1223 -48.1038 -48.0890
   -48.0735 -48.0659 -48.0604 -48.0473 -48.0238 -47.9500 -47.9371 -47.9327
   -47.9325 -47.9288 -47.9258 -47.8509 -10.1725  -5.2882  -3.5854  -3.1339
    -3.0962  -2.8376  -2.6885  -2.6310  -2.6062  -2.4896  -2.4227  -2.3697
    -2.3614  -2.3208  -2.2453  -2.1571  -2.0947  -1.9499  -1.9115  -1.5174
    -1.4662  -1.3696  -1.2502  -1.2043  -1.1398  -1.0165  -1.0028  -0.9603
    -0.8643  -0.8428  -0.7655  -0.6839  -0.6287  -0.5874  -0.5651  -0.5598
    -0.4380  -0.3363  -0.2632  -0.0896  -0.0195   0.0121   0.0719   0.0918
     0.1455   0.1862   0.2530   0.2618   0.4241   0.5492   0.5930   0.6092
     0.7021   0.7595   0.7746   0.8287   0.8348   0.9691   0.9727   1.1465
     1.1548   1.2613   1.2763   1.4049   1.4221   1.8099   1.8259   2.7347
     3.4528   3.7974   3.9708   4.7122

          k = 0.0000-0.1024 0.0000 ( 17240 PWs)   bands (ev):

   -50.2961 -49.5791 -49.5752 -48.5040 -48.4580 -48.4437 -48.4389 -48.4272
   -48.4180 -48.4092 -48.3963 -48.3529 -48.3485 -48.3324 -48.2858 -48.2245
   -48.2060 -48.1987 -48.1536 -48.1472 -48.1388 -48.1382 -48.1128 -48.1123
   -48.0925 -48.0818 -48.0612 -48.0475 -48.0295 -47.9454 -47.9396 -47.9324
   -47.9318 -47.9302 -47.9265 -47.8510 -10.1701  -5.2804  -3.1130  -3.0717
    -3.0316  -2.7336  -2.6394  -2.4292  -2.3905  -2.3000  -2.1901  -2.1435
    -2.1041  -2.0898  -1.9793  -1.9124  -1.8995  -1.7536  -1.7514  -1.7028
    -1.4356  -1.3666  -1.3323  -1.3211  -1.2791  -1.2471  -1.1254  -1.0839
    -0.9790  -0.8520  -0.6914  -0.6785  -0.6079  -0.5757  -0.5340  -0.5017
    -0.4773  -0.4173  -0.4048  -0.3866  -0.3379  -0.2492  -0.1541  -0.0547
    -0.0086   0.0471   0.0923   0.1115   0.2199   0.2653   0.3178   0.3423
     0.4032   0.4079   0.5328   0.6792   0.7336   0.7918   0.9451   1.0956
     1.1340   1.1488   1.2525   1.3849   1.4184   1.8222   2.1766   2.2529
     3.7684   3.9795   3.9990   4.3319

          k = 0.0296-0.0171 0.0000 ( 17192 PWs)   bands (ev):

   -50.2962 -49.5807 -49.5797 -48.5423 -48.5011 -48.4982 -48.4495 -48.4289
   -48.4274 -48.3603 -48.3594 -48.3560 -48.3434 -48.2847 -48.2731 -48.2610
   -48.2362 -48.2347 -48.2278 -48.1560 -48.1490 -48.1032 -48.0796 -48.0708
   -48.0585 -48.0539 -48.0467 -48.0261 -48.0154 -47.9556 -47.9355 -47.9342
   -47.9333 -47.9257 -47.9247 -47.8508 -10.1773  -5.3079  -4.1067  -3.2557
    -3.2535  -3.1240  -2.9839  -2.9428  -2.8794  -2.8533  -2.7514  -2.7099
    -2.6728  -2.5421  -2.4661  -2.4239  -2.3259  -2.1877  -2.1832  -1.4891
    -1.2847  -1.2658  -1.2237  -1.1466  -1.1178  -1.0286  -0.9602  -0.9427
    -0.8861  -0.8287  -0.7999  -0.7256  -0.6122  -0.5181  -0.4885  -0.3719
    -0.1677  -0.1292  -0.0087   0.1824   0.2296   0.2715   0.2739   0.3364
     0.4172   0.5743   0.6499   0.8362   0.8371   0.8846   0.9497   0.9743
     1.0291   1.0388   1.1142   1.1747   1.1908   1.1938   1.2531   1.2923
     1.3200   1.4331   1.4395   1.4514   1.5247   1.7583   2.5800   2.8195
     3.6613   3.8843   3.9384   4.0092

          k = 0.0296 0.0171 0.0000 ( 17192 PWs)   bands (ev):

   -50.2962 -49.5807 -49.5797 -48.5423 -48.5010 -48.4982 -48.4495 -48.4289
   -48.4274 -48.3603 -48.3594 -48.3560 -48.3434 -48.2847 -48.2731 -48.2610
   -48.2362 -48.2347 -48.2278 -48.1560 -48.1490 -48.1032 -48.0796 -48.0708
   -48.0585 -48.0539 -48.0467 -48.0261 -48.0154 -47.9556 -47.9355 -47.9342
   -47.9333 -47.9258 -47.9247 -47.8508 -10.1773  -5.3079  -4.1067  -3.2557
    -3.2535  -3.1240  -2.9839  -2.9428  -2.8794  -2.8533  -2.7514  -2.7099
    -2.6728  -2.5421  -2.4661  -2.4239  -2.3259  -2.1877  -2.1832  -1.4891
    -1.2847  -1.2658  -1.2237  -1.1466  -1.1178  -1.0286  -0.9602  -0.9427
    -0.8861  -0.8287  -0.7999  -0.7256  -0.6122  -0.5181  -0.4884  -0.3719
    -0.1677  -0.1292  -0.0087   0.1824   0.2296   0.2715   0.2739   0.3364
     0.4172   0.5743   0.6499   0.8362   0.8371   0.8846   0.9497   0.9743
     1.0291   1.0388   1.1142   1.1747   1.1908   1.1938   1.2531   1.2923
     1.3200   1.4331   1.4395   1.4514   1.5247   1.7583   2.5800   2.8195
     3.6613   3.8843   3.9384   4.0092

          k = 0.0296 0.0512 0.0000 ( 17186 PWs)   bands (ev):

   -50.2962 -49.5796 -49.5777 -48.5245 -48.4809 -48.4786 -48.4451 -48.4311
   -48.4266 -48.3848 -48.3561 -48.3540 -48.3491 -48.3079 -48.2805 -48.2430
   -48.2242 -48.2149 -48.2104 -48.1575 -48.1352 -48.1206 -48.0870 -48.0830
   -48.0737 -48.0560 -48.0555 -48.0482 -48.0227 -47.9516 -47.9362 -47.9334
   -47.9326 -47.9281 -47.9254 -47.8509 -10.1737  -5.2926  -3.7435  -3.1644
    -3.1313  -2.8411  -2.8132  -2.6989  -2.6730  -2.5908  -2.5488  -2.5203
    -2.4170  -2.3870  -2.2751  -2.2500  -2.1350  -2.0909  -1.9911  -1.4886
    -1.3680  -1.3499  -1.2459  -1.2052  -1.1669  -1.0660  -1.0049  -0.8908
    -0.8391  -0.8168  -0.7477  -0.6741  -0.6517  -0.6344  -0.5587  -0.4735
    -0.3694  -0.3162  -0.2716   0.0463   0.0497   0.0678   0.1488   0.1941
     0.2779   0.3322   0.3629   0.3861   0.4574   0.5412   0.7019   0.7268
     0.7546   0.8363   0.8869   0.9337   1.0482   1.0566   1.1111   1.1322
     1.2070   1.2798   1.3074   1.4926   1.6571   1.7213   2.3014   2.3498
     3.2394   3.3329   3.7067   4.5621

          k = 0.0296-0.1195 0.0000 ( 17183 PWs)   bands (ev):

   -50.2961 -49.5784 -49.5758 -48.5003 -48.4562 -48.4491 -48.4380 -48.4300
   -48.4267 -48.4129 -48.3802 -48.3533 -48.3523 -48.3248 -48.2911 -48.2196
   -48.2054 -48.1924 -48.1723 -48.1600 -48.1496 -48.1167 -48.1117 -48.1103
   -48.0780 -48.0763 -48.0623 -48.0562 -48.0338 -47.9458 -47.9383 -47.9337
   -47.9317 -47.9302 -47.9262 -47.8510 -10.1701  -5.2805  -3.1740  -3.0617
    -2.9731  -2.6416  -2.5256  -2.4322  -2.3389  -2.3085  -2.2278  -2.1621
    -2.1183  -2.0956  -2.0684  -1.9500  -1.9339  -1.8006  -1.7175  -1.6373
    -1.5484  -1.4421  -1.4027  -1.3089  -1.2186  -1.1948  -1.1382  -1.1042
    -0.9793  -0.9387  -0.8697  -0.7716  -0.7049  -0.6910  -0.5993  -0.5527
    -0.4881  -0.4478  -0.3697  -0.2860  -0.2597  -0.2348  -0.1371  -0.0517
     0.0235   0.0654   0.1358   0.1721   0.2347   0.3356   0.4144   0.4471
     0.5361   0.6141   0.7016   0.8083   0.8800   0.9847   1.0343   1.0788
     1.0995   1.1648   1.2320   1.2835   1.3330   1.6486   2.1023   2.3983
     2.5676   3.4529   3.9419   4.7857

          k = 0.0296-0.0853 0.0000 ( 17183 PWs)   bands (ev):

   -50.2961 -49.5784 -49.5758 -48.5003 -48.4562 -48.4491 -48.4380 -48.4300
   -48.4267 -48.4129 -48.3802 -48.3533 -48.3523 -48.3248 -48.2911 -48.2196
   -48.2054 -48.1924 -48.1723 -48.1600 -48.1496 -48.1167 -48.1116 -48.1103
   -48.0780 -48.0763 -48.0623 -48.0562 -48.0338 -47.9458 -47.9383 -47.9336
   -47.9317 -47.9302 -47.9262 -47.8510 -10.1701  -5.2805  -3.1740  -3.0617
    -2.9731  -2.6416  -2.5256  -2.4322  -2.3390  -2.3085  -2.2278  -2.1621
    -2.1183  -2.0956  -2.0684  -1.9500  -1.9339  -1.8006  -1.7175  -1.6373
    -1.5484  -1.4421  -1.4027  -1.3089  -1.2186  -1.1948  -1.1382  -1.1042
    -0.9793  -0.9387  -0.8696  -0.7716  -0.7049  -0.6910  -0.5993  -0.5527
    -0.4881  -0.4478  -0.3697  -0.2860  -0.2597  -0.2348  -0.1371  -0.0517
     0.0235   0.0654   0.1358   0.1721   0.2347   0.3356   0.4144   0.4471
     0.5361   0.6141   0.7016   0.8083   0.8800   0.9847   1.0343   1.0788
     1.0995   1.1648   1.2320   1.2835   1.3330   1.6486   2.1023   2.3983
     2.5676   3.4528   3.9419   4.7857

          k = 0.0296-0.0512 0.0000 ( 17186 PWs)   bands (ev):

   -50.2962 -49.5796 -49.5777 -48.5245 -48.4810 -48.4786 -48.4451 -48.4311
   -48.4266 -48.3848 -48.3561 -48.3540 -48.3491 -48.3079 -48.2805 -48.2430
   -48.2242 -48.2149 -48.2104 -48.1575 -48.1352 -48.1206 -48.0870 -48.0829
   -48.0737 -48.0560 -48.0556 -48.0482 -48.0227 -47.9516 -47.9362 -47.9334
   -47.9326 -47.9281 -47.9254 -47.8509 -10.1737  -5.2926  -3.7435  -3.1644
    -3.1313  -2.8411  -2.8132  -2.6989  -2.6730  -2.5908  -2.5488  -2.5203
    -2.4170  -2.3870  -2.2751  -2.2500  -2.1350  -2.0909  -1.9911  -1.4886
    -1.3680  -1.3499  -1.2459  -1.2053  -1.1669  -1.0660  -1.0049  -0.8908
    -0.8391  -0.8168  -0.7477  -0.6741  -0.6517  -0.6344  -0.5587  -0.4735
    -0.3694  -0.3162  -0.2716   0.0463   0.0497   0.0678   0.1488   0.1942
     0.2779   0.3322   0.3629   0.3861   0.4574   0.5412   0.7019   0.7268
     0.7546   0.8363   0.8869   0.9337   1.0482   1.0566   1.1111   1.1322
     1.2070   1.2798   1.3074   1.4926   1.6571   1.7213   2.3014   2.3498
     3.2394   3.3329   3.7067   4.5621

          k = 0.0591-0.0341 0.0000 ( 17196 PWs)   bands (ev):

   -50.2961 -49.5796 -49.5767 -48.5185 -48.4769 -48.4651 -48.4430 -48.4318
   -48.4265 -48.3825 -48.3788 -48.3548 -48.3369 -48.3220 -48.2810 -48.2375
   -48.2171 -48.2149 -48.1953 -48.1544 -48.1311 -48.1222 -48.1038 -48.0890
   -48.0735 -48.0659 -48.0604 -48.0472 -48.0238 -47.9500 -47.9371 -47.9327
   -47.9325 -47.9288 -47.9257 -47.8509 -10.1725  -5.2882  -3.5854  -3.1339
    -3.0962  -2.8376  -2.6885  -2.6310  -2.6062  -2.4896  -2.4228  -2.3697
    -2.3614  -2.3208  -2.2453  -2.1571  -2.0946  -1.9499  -1.9115  -1.5174
    -1.4662  -1.3696  -1.2503  -1.2043  -1.1398  -1.0165  -1.0028  -0.9603
    -0.8643  -0.8428  -0.7655  -0.6839  -0.6288  -0.5874  -0.5651  -0.5598
    -0.4380  -0.3363  -0.2632  -0.0896  -0.0195   0.0121   0.0719   0.0918
     0.1455   0.1862   0.2530   0.2618   0.4241   0.5492   0.5930   0.6092
     0.7021   0.7595   0.7746   0.8287   0.8348   0.9691   0.9727   1.1465
     1.1549   1.2613   1.2763   1.4049   1.4221   1.8099   1.8259   2.7347
     3.4528   3.7974   3.9708   4.7124

          k = 0.0591-0.0000 0.0000 ( 17186 PWs)   bands (ev):

   -50.2962 -49.5796 -49.5777 -48.5245 -48.4809 -48.4786 -48.4451 -48.4310
   -48.4266 -48.3848 -48.3561 -48.3540 -48.3491 -48.3079 -48.2805 -48.2430
   -48.2242 -48.2149 -48.2104 -48.1575 -48.1352 -48.1206 -48.0870 -48.0830
   -48.0737 -48.0560 -48.0555 -48.0482 -48.0227 -47.9516 -47.9363 -47.9334
   -47.9326 -47.9281 -47.9254 -47.8509 -10.1737  -5.2926  -3.7435  -3.1644
    -3.1313  -2.8411  -2.8132  -2.6989  -2.6730  -2.5908  -2.5488  -2.5203
    -2.4170  -2.3870  -2.2751  -2.2500  -2.1350  -2.0909  -1.9911  -1.4886
    -1.3680  -1.3499  -1.2459  -1.2052  -1.1669  -1.0660  -1.0049  -0.8908
    -0.8391  -0.8168  -0.7477  -0.6741  -0.6517  -0.6344  -0.5588  -0.4735
    -0.3694  -0.3162  -0.2716   0.0463   0.0497   0.0678   0.1487   0.1942
     0.2779   0.3323   0.3629   0.3862   0.4574   0.5412   0.7019   0.7268
     0.7546   0.8362   0.8869   0.9337   1.0482   1.0566   1.1111   1.1322
     1.2070   1.2798   1.3074   1.4926   1.6571   1.7213   2.3014   2.3498
     3.2394   3.3329   3.7067   4.5621

          k = 0.0591 0.0341 0.0000 ( 17196 PWs)   bands (ev):

   -50.2961 -49.5796 -49.5767 -48.5185 -48.4769 -48.4651 -48.4430 -48.4318
   -48.4265 -48.3824 -48.3788 -48.3548 -48.3369 -48.3220 -48.2810 -48.2375
   -48.2171 -48.2149 -48.1953 -48.1544 -48.1311 -48.1222 -48.1038 -48.0890
   -48.0736 -48.0659 -48.0604 -48.0472 -48.0238 -47.9500 -47.9371 -47.9327
   -47.9325 -47.9289 -47.9257 -47.8509 -10.1725  -5.2882  -3.5854  -3.1339
    -3.0962  -2.8376  -2.6885  -2.6310  -2.6062  -2.4896  -2.4228  -2.3697
    -2.3614  -2.3208  -2.2453  -2.1571  -2.0947  -1.9499  -1.9115  -1.5173
    -1.4662  -1.3696  -1.2502  -1.2043  -1.1398  -1.0165  -1.0028  -0.9603
    -0.8643  -0.8428  -0.7655  -0.6839  -0.6288  -0.5874  -0.5650  -0.5598
    -0.4380  -0.3363  -0.2632  -0.0896  -0.0195   0.0121   0.0719   0.0918
     0.1455   0.1862   0.2530   0.2618   0.4241   0.5492   0.5930   0.6092
     0.7021   0.7595   0.7746   0.8287   0.8348   0.9691   0.9727   1.1465
     1.1549   1.2613   1.2763   1.4049   1.4221   1.8099   1.8259   2.7347
     3.4528   3.7974   3.9708   4.7125

          k = 0.0591-0.1365 0.0000 ( 17183 PWs)   bands (ev):

   -50.2961 -49.5784 -49.5758 -48.5003 -48.4562 -48.4490 -48.4380 -48.4300
   -48.4267 -48.4129 -48.3802 -48.3533 -48.3523 -48.3248 -48.2911 -48.2196
   -48.2054 -48.1924 -48.1723 -48.1601 -48.1496 -48.1167 -48.1116 -48.1103
   -48.0781 -48.0763 -48.0623 -48.0561 -48.0338 -47.9458 -47.9383 -47.9337
   -47.9317 -47.9302 -47.9261 -47.8510 -10.1701  -5.2805  -3.1740  -3.0617
    -2.9731  -2.6416  -2.5256  -2.4321  -2.3389  -2.3084  -2.2278  -2.1621
    -2.1183  -2.0956  -2.0684  -1.9500  -1.9339  -1.8006  -1.7175  -1.6373
    -1.5484  -1.4421  -1.4027  -1.3089  -1.2186  -1.1948  -1.1382  -1.1042
    -0.9793  -0.9386  -0.8697  -0.7716  -0.7049  -0.6910  -0.5993  -0.5527
    -0.4880  -0.4478  -0.3697  -0.2860  -0.2597  -0.2348  -0.1371  -0.0517
     0.0235   0.0654   0.1358   0.1721   0.2347   0.3356   0.4144   0.4471
     0.5361   0.6141   0.7016   0.8083   0.8800   0.9847   1.0343   1.0788
     1.0995   1.1649   1.2320   1.2835   1.3330   1.6486   2.1023   2.3983
     2.5676   3.4528   3.9419   4.7857

          k = 0.0591-0.1024 0.0000 ( 17208 PWs)   bands (ev):

   -50.2961 -49.5766 -49.5766 -48.4735 -48.4709 -48.4345 -48.4327 -48.4268
   -48.4231 -48.4105 -48.4105 -48.3603 -48.3509 -48.3100 -48.3097 -48.1914
   -48.1902 -48.1878 -48.1737 -48.1716 -48.1472 -48.1455 -48.1219 -48.0880
   -48.0773 -48.0766 -48.0754 -48.0514 -48.0511 -47.9417 -47.9399 -47.9356
   -47.9310 -47.9309 -47.9262 -47.8510 -10.1689  -5.2771  -3.0293  -2.9846
    -2.6180  -2.5106  -2.4662  -2.2882  -2.1594  -2.1345  -2.0569  -2.0459
    -1.9690  -1.9292  -1.9238  -1.9224  -1.8448  -1.8084  -1.7925  -1.6518
    -1.5781  -1.5425  -1.5210  -1.4771  -1.2972  -1.2693  -1.2493  -1.1051
    -1.0114  -1.0091  -0.9730  -0.9691  -0.9317  -0.9298  -0.7325  -0.6336
    -0.6247  -0.5037  -0.4820  -0.4753  -0.4630  -0.3604  -0.1276  -0.0004
     0.0410   0.1525   0.1632   0.2509   0.2768   0.4069   0.4251   0.4525
     0.6350   0.7611   0.8053   0.9125   0.9745   0.9770   1.0312   1.0346
     1.0921   1.1147   1.1439   1.1583   1.2517   1.3831   1.4450   2.4878
     2.5240   2.6840   4.4294   4.4510

          k = 0.0591-0.0683 0.0000 ( 17183 PWs)   bands (ev):

   -50.2961 -49.5784 -49.5758 -48.5003 -48.4562 -48.4490 -48.4380 -48.4300
   -48.4267 -48.4129 -48.3802 -48.3533 -48.3523 -48.3248 -48.2911 -48.2196
   -48.2054 -48.1924 -48.1723 -48.1600 -48.1496 -48.1167 -48.1116 -48.1103
   -48.0780 -48.0763 -48.0623 -48.0562 -48.0338 -47.9458 -47.9383 -47.9336
   -47.9317 -47.9302 -47.9261 -47.8510 -10.1701  -5.2805  -3.1740  -3.0617
    -2.9731  -2.6416  -2.5256  -2.4321  -2.3389  -2.3084  -2.2278  -2.1621
    -2.1183  -2.0956  -2.0684  -1.9500  -1.9339  -1.8006  -1.7175  -1.6373
    -1.5484  -1.4421  -1.4027  -1.3089  -1.2186  -1.1948  -1.1382  -1.1042
    -0.9793  -0.9387  -0.8696  -0.7716  -0.7049  -0.6910  -0.5993  -0.5527
    -0.4881  -0.4478  -0.3697  -0.2860  -0.2597  -0.2348  -0.1371  -0.0517
     0.0235   0.0654   0.1358   0.1721   0.2347   0.3356   0.4144   0.4471
     0.5361   0.6141   0.7016   0.8083   0.8800   0.9847   1.0343   1.0788
     1.0995   1.1649   1.2320   1.2835   1.3330   1.6486   2.1023   2.3983
     2.5676   3.4528   3.9419   4.7857

          k =-0.0887 0.0512 0.0000 ( 17240 PWs)   bands (ev):

   -50.2961 -49.5791 -49.5752 -48.5040 -48.4580 -48.4437 -48.4389 -48.4273
   -48.4179 -48.4093 -48.3963 -48.3529 -48.3485 -48.3325 -48.2858 -48.2245
   -48.2059 -48.1987 -48.1536 -48.1473 -48.1387 -48.1383 -48.1128 -48.1122
   -48.0926 -48.0818 -48.0612 -48.0475 -48.0295 -47.9454 -47.9396 -47.9324
   -47.9318 -47.9302 -47.9264 -47.8510 -10.1701  -5.2804  -3.1130  -3.0717
    -3.0316  -2.7336  -2.6394  -2.4292  -2.3905  -2.3000  -2.1901  -2.1435
    -2.1041  -2.0898  -1.9793  -1.9124  -1.8995  -1.7536  -1.7514  -1.7028
    -1.4356  -1.3666  -1.3323  -1.3211  -1.2791  -1.2471  -1.1254  -1.0839
    -0.9790  -0.8520  -0.6914  -0.6785  -0.6079  -0.5758  -0.5340  -0.5018
    -0.4773  -0.4173  -0.4047  -0.3866  -0.3379  -0.2492  -0.1541  -0.0547
    -0.0086   0.0471   0.0924   0.1114   0.2198   0.2653   0.3178   0.3423
     0.4032   0.4079   0.5328   0.6792   0.7336   0.7918   0.9451   1.0956
     1.1340   1.1488   1.2525   1.3849   1.4184   1.8222   2.1766   2.2529
     3.7684   3.9795   3.9990   4.3319

          k =-0.0887 0.0853 0.0000 ( 17183 PWs)   bands (ev):

   -50.2961 -49.5784 -49.5758 -48.5003 -48.4562 -48.4490 -48.4380 -48.4300
   -48.4267 -48.4129 -48.3802 -48.3533 -48.3523 -48.3248 -48.2911 -48.2196
   -48.2054 -48.1924 -48.1723 -48.1600 -48.1496 -48.1167 -48.1116 -48.1103
   -48.0780 -48.0763 -48.0623 -48.0562 -48.0338 -47.9458 -47.9383 -47.9337
   -47.9317 -47.9302 -47.9261 -47.8510 -10.1701  -5.2805  -3.1740  -3.0617
    -2.9731  -2.6416  -2.5256  -2.4322  -2.3389  -2.3085  -2.2278  -2.1621
    -2.1183  -2.0956  -2.0684  -1.9500  -1.9339  -1.8006  -1.7175  -1.6373
    -1.5484  -1.4421  -1.4027  -1.3089  -1.2186  -1.1948  -1.1382  -1.1042
    -0.9793  -0.9386  -0.8697  -0.7716  -0.7049  -0.6910  -0.5993  -0.5527
    -0.4881  -0.4478  -0.3697  -0.2860  -0.2597  -0.2348  -0.1371  -0.0517
     0.0234   0.0654   0.1358   0.1721   0.2347   0.3356   0.4144   0.4471
     0.5361   0.6141   0.7016   0.8083   0.8800   0.9847   1.0343   1.0788
     1.0995   1.1649   1.2320   1.2835   1.3330   1.6486   2.1023   2.3983
     2.5676   3.4528   3.9419   4.7857

          k =-0.0887 0.1195 0.0000 ( 17183 PWs)   bands (ev):

   -50.2961 -49.5784 -49.5758 -48.5003 -48.4561 -48.4490 -48.4380 -48.4300
   -48.4267 -48.4129 -48.3802 -48.3533 -48.3523 -48.3248 -48.2911 -48.2196
   -48.2054 -48.1924 -48.1723 -48.1601 -48.1496 -48.1167 -48.1116 -48.1103
   -48.0780 -48.0763 -48.0623 -48.0561 -48.0338 -47.9458 -47.9383 -47.9337
   -47.9317 -47.9303 -47.9261 -47.8510 -10.1701  -5.2805  -3.1740  -3.0617
    -2.9731  -2.6416  -2.5256  -2.4322  -2.3389  -2.3084  -2.2278  -2.1621
    -2.1183  -2.0956  -2.0684  -1.9500  -1.9339  -1.8006  -1.7175  -1.6373
    -1.5484  -1.4421  -1.4027  -1.3089  -1.2186  -1.1948  -1.1382  -1.1042
    -0.9793  -0.9386  -0.8697  -0.7716  -0.7049  -0.6910  -0.5993  -0.5527
    -0.4881  -0.4478  -0.3697  -0.2860  -0.2597  -0.2348  -0.1371  -0.0517
     0.0234   0.0654   0.1358   0.1721   0.2347   0.3356   0.4144   0.4471
     0.5361   0.6141   0.7016   0.8083   0.8800   0.9847   1.0343   1.0788
     1.0995   1.1649   1.2320   1.2835   1.3330   1.6486   2.1023   2.3983
     2.5676   3.4528   3.9419   4.7857

          k =-0.0887-0.0512 0.0000 ( 17240 PWs)   bands (ev):

   -50.2961 -49.5791 -49.5752 -48.5040 -48.4579 -48.4436 -48.4389 -48.4273
   -48.4178 -48.4093 -48.3964 -48.3529 -48.3485 -48.3325 -48.2857 -48.2244
   -48.2059 -48.1987 -48.1536 -48.1473 -48.1388 -48.1383 -48.1127 -48.1122
   -48.0927 -48.0818 -48.0612 -48.0475 -48.0295 -47.9454 -47.9396 -47.9324
   -47.9318 -47.9303 -47.9264 -47.8510 -10.1701  -5.2804  -3.1130  -3.0718
    -3.0316  -2.7336  -2.6395  -2.4291  -2.3905  -2.3000  -2.1901  -2.1435
    -2.1040  -2.0898  -1.9793  -1.9124  -1.8995  -1.7536  -1.7514  -1.7028
    -1.4356  -1.3666  -1.3323  -1.3211  -1.2791  -1.2471  -1.1253  -1.0839
    -0.9790  -0.8520  -0.6914  -0.6785  -0.6079  -0.5758  -0.5340  -0.5018
    -0.4773  -0.4173  -0.4047  -0.3866  -0.3379  -0.2492  -0.1541  -0.0547
    -0.0086   0.0470   0.0924   0.1114   0.2198   0.2653   0.3177   0.3423
     0.4032   0.4079   0.5328   0.6792   0.7336   0.7918   0.9451   1.0955
     1.1340   1.1488   1.2525   1.3849   1.4184   1.8222   2.1766   2.2529
     3.7684   3.9795   3.9990   4.3319

     the Fermi energy is     1.3870 ev

!    total energy              =   -2409.97192065 Ry
     Harris-Foulkes estimate   =   -2409.97190943 Ry
     estimated scf accuracy    <       0.00000466 Ry

     The total energy is the sum of the following terms:

     one-electron contribution =  -20447.36370972 Ry
     hartree contribution      =   10276.53212435 Ry
     xc contribution           =    -394.29558237 Ry
     ewald contribution        =    8155.27646388 Ry
     electric field correction =       0.00022914 Ry
     smearing contrib. (-TS)   =      -0.12144593 Ry

     convergence has been achieved in  22 iterations
 
 BEEF-vdW xc energy contributions
           1 :   -343.166316375001     
           2 :    313.459062969011     
           3 :   -262.842486365921     
           4 :    204.974526730976     
           5 :   -153.014601876339     
           6 :    115.311886337436     
           7 :   -93.6243658081611     
           8 :    84.1533473432204     
           9 :   -80.5134001657976     
          10 :    77.0409492597498     
          11 :   -70.9533278616915     
          12 :    62.6315922568102     
          13 :   -54.3262484898103     
          14 :    48.2826008893887     
          15 :   -45.3704204359688     
          16 :    44.8079519124241     
          17 :   -44.8792432821788     
          18 :    44.0407539052285     
          19 :   -41.7273140946105     
          20 :    38.4549105969475     
          21 :   -35.2914135040178     
          22 :    33.1099377753122     
          23 :   -32.0937963729918     
          24 :    31.7359118207109     
          25 :   -31.2537743373323     
          26 :    30.1076149348053     
          27 :   -28.2971874226665     
          28 :    26.2860819832415     
          29 :   -24.6465887891752     
          30 :    23.6763175781236     
          31 :   -33.5565164197973     
          32 :   -24.7747091217933     

     Forces acting on atoms (Ry/au):


     negative rho (up, down):  9.424E-01 0.000E+00
     atom    1 type  1   force =     0.00033621    0.00019212   -0.00023960
     atom    2 type  1   force =    -0.00033613    0.00018957   -0.00024242
     atom    3 type  1   force =    -0.00000086   -0.00038444   -0.00022429
     atom    4 type  1   force =     0.00000107    0.00000792   -0.00620980
     atom    5 type  1   force =     0.00000191   -0.00201545    0.00302189
     atom    6 type  1   force =    -0.00000126   -0.00000603   -0.00127231
     atom    7 type  1   force =     0.00174589    0.00100935    0.00303099
     atom    8 type  1   force =    -0.00174603    0.00101263    0.00302742
     atom    9 type  1   force =    -0.00000007   -0.00000617    0.02927648
     atom   10 type  1   force =     0.00000087   -0.00130813    0.00530658
     atom   11 type  1   force =    -0.00113308    0.00065585    0.00530690
     atom   12 type  1   force =     0.00113090    0.00065406    0.00531067
     atom   13 type  2   force =     0.00000053   -0.00000024   -0.03905448
     atom   14 type  3   force =     0.00000005   -0.00000105   -0.00703804

     Total force =     0.050215     Total SCF correction =     0.007761
     SCF correction compared to forces is large: reduce conv_thr to get better values


     entering subroutine stress ...


     negative rho (up, down):  9.424E-01 0.000E+00
          total   stress  (Ry/bohr**3)                   (kbar)     P=   -9.68
  -0.00007624   0.00000000  -0.00000000        -11.22      0.00     -0.00
   0.00000000  -0.00007625   0.00000000          0.00    -11.22      0.00
  -0.00000000   0.00000000  -0.00004485         -0.00      0.00     -6.60


     BFGS Geometry Optimization

     number of scf cycles    =   1
     number of bfgs steps    =   0

     energy   new            =   -2409.9719206452 Ry

     new trust radius        =       0.0390544766 bohr
     new conv_thr            =       0.0000099958 Ry


ATOMIC_POSITIONS (crystal)
Pd1      0.166666667   0.166666667   0.406452311    0   0   0
Pd1      0.666666667   0.166666667   0.406452311    0   0   0
Pd1      0.166666667   0.666666667   0.406452311    0   0   0
Pd1      0.666666667   0.666666667   0.406452311    0   0   0
Pd1      0.833333333   0.333333333   0.500000000    0   0   0
Pd1      0.333333333   0.333333333   0.500000000    0   0   0
Pd1      0.833333333   0.833333333   0.500000000    0   0   0
Pd1      0.333333333   0.833333333   0.500000000    0   0   0
Pd1      0.000000328  -0.000000668   0.594177383
Pd1      0.500070973  -0.000141783   0.593661826
Pd1     -0.000141899   0.500071085   0.593661833
Pd1      0.500070706   0.500070891   0.593661914
C1       0.000000062  -0.000000026   0.666986845
H1       0.000000061  -0.000000114   0.712385225



     Writing output data file calc.save
     Check: negative starting charge=   -0.903935
     NEW-OLD atomic charge density approx. for the potential
     Check: negative starting charge=   -0.903683

     negative rho (up, down):  9.422E-01 0.000E+00
 
     Adding external electric field

     Computed dipole along edir(3) : 
        Dipole                0.3113 Ry au,          0.7912 Debye
        Dipole field          0.0009 Ry au
 
        Potential amp.       -0.0776 Ry
        Total length         45.3309 bohr
 

     total cpu time spent up to now is      563.1 secs

     per-process dynamical memory:   111.3 Mb

     Self-consistent Calculation

     iteration #  1     ecut=    36.75 Ry     beta=0.30
     Davidson diagonalization with overlap
     ethr =  1.00E-06,  avg # of iterations =  4.0

     negative rho (up, down):  9.422E-01 0.000E+00
 
     Adding external electric field

     Computed dipole along edir(3) : 
        Dipole               -0.1673 Ry au,         -0.4253 Debye
        Dipole field         -0.0005 Ry au
 
        Potential amp.        0.0417 Ry
        Total length         45.3309 bohr
 

     total cpu time spent up to now is      591.5 secs

     total energy              =   -2409.95698531 Ry
     Harris-Foulkes estimate   =   -2409.97392532 Ry
     estimated scf accuracy    <       0.03335717 Ry

     iteration #  2     ecut=    36.75 Ry     beta=0.30
     Davidson diagonalization with overlap
     ethr =  1.69E-05,  avg # of iterations =  3.7

     negative rho (up, down):  9.423E-01 0.000E+00
 
     Adding external electric field

     Computed dipole along edir(3) : 
        Dipole                0.2964 Ry au,          0.7534 Debye
        Dipole field          0.0008 Ry au
 
        Potential amp.       -0.0739 Ry
        Total length         45.3309 bohr
 

     total cpu time spent up to now is      613.4 secs

     total energy              =   -2409.82642798 Ry
     Harris-Foulkes estimate   =   -2410.16330699 Ry
     estimated scf accuracy    <      11.37781291 Ry

     iteration #  3     ecut=    36.75 Ry     beta=0.30
     Davidson diagonalization with overlap
     ethr =  1.69E-05,  avg # of iterations =  4.2

     negative rho (up, down):  9.423E-01 0.000E+00
 
     Adding external electric field

     Computed dipole along edir(3) : 
        Dipole                0.2877 Ry au,          0.7312 Debye
        Dipole field          0.0008 Ry au
 
        Potential amp.       -0.0717 Ry
        Total length         45.3309 bohr
 

     total cpu time spent up to now is      635.8 secs

     total energy              =   -2409.97241126 Ry
     Harris-Foulkes estimate   =   -2409.97371780 Ry
     estimated scf accuracy    <       0.00793611 Ry

     iteration #  4     ecut=    36.75 Ry     beta=0.30
     Davidson diagonalization with overlap
     ethr =  4.03E-06,  avg # of iterations =  1.2

     negative rho (up, down):  9.423E-01 0.000E+00
 
     Adding external electric field

     Computed dipole along edir(3) : 
        Dipole                0.2935 Ry au,          0.7460 Debye
        Dipole field          0.0008 Ry au
 
        Potential amp.       -0.0732 Ry
        Total length         45.3309 bohr
 

     total cpu time spent up to now is      653.7 secs

     total energy              =   -2409.97303062 Ry
     Harris-Foulkes estimate   =   -2409.97317424 Ry
     estimated scf accuracy    <       0.00232881 Ry

     iteration #  5     ecut=    36.75 Ry     beta=0.30
     Davidson diagonalization with overlap
     ethr =  1.18E-06,  avg # of iterations =  1.0

     negative rho (up, down):  9.423E-01 0.000E+00
 
     Adding external electric field

     Computed dipole along edir(3) : 
        Dipole                0.2935 Ry au,          0.7460 Debye
        Dipole field          0.0008 Ry au
 
        Potential amp.       -0.0732 Ry
        Total length         45.3309 bohr
 

     total cpu time spent up to now is      671.3 secs

     total energy              =   -2409.97308169 Ry
     Harris-Foulkes estimate   =   -2409.97312532 Ry
     estimated scf accuracy    <       0.00055970 Ry

     iteration #  6     ecut=    36.75 Ry     beta=0.30
     Davidson diagonalization with overlap
     ethr =  2.84E-07,  avg # of iterations =  1.0

     negative rho (up, down):  9.423E-01 0.000E+00
 
     Adding external electric field

     Computed dipole along edir(3) : 
        Dipole                0.2901 Ry au,          0.7373 Debye
        Dipole field          0.0008 Ry au
 
        Potential amp.       -0.0723 Ry
        Total length         45.3309 bohr
 

     total cpu time spent up to now is      689.0 secs

     total energy              =   -2409.97309661 Ry
     Harris-Foulkes estimate   =   -2409.97312750 Ry
     estimated scf accuracy    <       0.00025986 Ry

     iteration #  7     ecut=    36.75 Ry     beta=0.30
     Davidson diagonalization with overlap
     ethr =  1.32E-07,  avg # of iterations =  1.1

     negative rho (up, down):  9.424E-01 0.000E+00
 
     Adding external electric field

     Computed dipole along edir(3) : 
        Dipole                0.2937 Ry au,          0.7464 Debye
        Dipole field          0.0008 Ry au
 
        Potential amp.       -0.0732 Ry
        Total length         45.3309 bohr
 

     total cpu time spent up to now is      707.6 secs

     total energy              =   -2409.97310084 Ry
     Harris-Foulkes estimate   =   -2409.97311249 Ry
     estimated scf accuracy    <       0.00010400 Ry

     iteration #  8     ecut=    36.75 Ry     beta=0.30
     Davidson diagonalization with overlap
     ethr =  5.28E-08,  avg # of iterations =  2.5

     negative rho (up, down):  9.424E-01 0.000E+00
 
     Adding external electric field

     Computed dipole along edir(3) : 
        Dipole                0.2925 Ry au,          0.7435 Debye
        Dipole field          0.0008 Ry au
 
        Potential amp.       -0.0729 Ry
        Total length         45.3309 bohr
 

     total cpu time spent up to now is      726.6 secs

     total energy              =   -2409.97311241 Ry
     Harris-Foulkes estimate   =   -2409.97312872 Ry
     estimated scf accuracy    <       0.00071227 Ry

     iteration #  9     ecut=    36.75 Ry     beta=0.30
     Davidson diagonalization with overlap
     ethr =  5.28E-08,  avg # of iterations =  1.0

     negative rho (up, down):  9.424E-01 0.000E+00
 
     Adding external electric field

     Computed dipole along edir(3) : 
        Dipole                0.2904 Ry au,          0.7381 Debye
        Dipole field          0.0008 Ry au
 
        Potential amp.       -0.0724 Ry
        Total length         45.3309 bohr
 

     total cpu time spent up to now is      744.8 secs

     total energy              =   -2409.97311331 Ry
     Harris-Foulkes estimate   =   -2409.97312038 Ry
     estimated scf accuracy    <       0.00010354 Ry

     iteration # 10     ecut=    36.75 Ry     beta=0.30
     Davidson diagonalization with overlap
     ethr =  5.26E-08,  avg # of iterations =  1.0

     negative rho (up, down):  9.424E-01 0.000E+00

     negative rho (up, down):  9.424E-01 0.000E+00

     negative rho (up, down):  9.424E-01 0.000E+00

     negative rho (up, down):  9.424E-01 0.000E+00

     negative rho (up, down):  9.424E-01 0.000E+00

     negative rho (up, down):  9.424E-01 0.000E+00

     negative rho (up, down):  9.424E-01 0.000E+00

     negative rho (up, down):  9.424E-01 0.000E+00

     negative rho (up, down):  9.424E-01 0.000E+00

     negative rho (up, down):  9.424E-01 0.000E+00

     negative rho (up, down):  9.424E-01 0.000E+00

     negative rho (up, down):  9.424E-01 0.000E+00

     negative rho (up, down):  9.424E-01 0.000E+00

     negative rho (up, down):  9.424E-01 0.000E+00

     negative rho (up, down):  9.424E-01 0.000E+00

     negative rho (up, down):  9.424E-01 0.000E+00

     negative rho (up, down):  9.424E-01 0.000E+00

     negative rho (up, down):  9.424E-01 0.000E+00

     negative rho (up, down):  9.424E-01 0.000E+00

     negative rho (up, down):  9.424E-01 0.000E+00

     negative rho (up, down):  9.424E-01 0.000E+00

     negative rho (up, down):  9.424E-01 0.000E+00

     negative rho (up, down):  9.424E-01 0.000E+00

     negative rho (up, down):  9.424E-01 0.000E+00

     negative rho (up, down):  9.424E-01 0.000E+00

     negative rho (up, down):  9.424E-01 0.000E+00

     negative rho (up, down):  9.424E-01 0.000E+00

     negative rho (up, down):  9.424E-01 0.000E+00

     negative rho (up, down):  9.424E-01 0.000E+00

     negative rho (up, down):  9.424E-01 0.000E+00

     negative rho (up, down):  9.424E-01 0.000E+00

     negative rho (up, down):  9.424E-01 0.000E+00

     negative rho (up, down):  9.424E-01 0.000E+00

     negative rho (up, down):  9.424E-01 0.000E+00

     negative rho (up, down):  9.424E-01 0.000E+00
 
     Adding external electric field

     Computed dipole along edir(3) : 
        Dipole                0.3151 Ry au,          0.8009 Debye
        Dipole field          0.0009 Ry au
 
        Potential amp.       -0.0785 Ry
        Total length         45.3309 bohr
 

     total cpu time spent up to now is      812.6 secs

     End of self-consistent calculation

          k = 0.0000 0.0000 0.0000 ( 17231 PWs)   bands (ev):

   -50.4428 -49.6571 -49.6571 -48.5300 -48.4890 -48.4889 -48.4282 -48.4040
   -48.4039 -48.3429 -48.3286 -48.3286 -48.3207 -48.2549 -48.2489 -48.2489
   -48.2270 -48.2269 -48.2178 -48.1390 -48.1390 -48.0815 -48.0537 -48.0536
   -48.0299 -48.0295 -48.0294 -47.9933 -47.9933 -47.9402 -47.9174 -47.9173
   -47.9161 -47.9064 -47.9064 -47.8280 -10.1815  -5.4572  -4.2969  -3.3929
    -3.3929  -3.2943  -3.0820  -3.0820  -3.0041  -2.9764  -2.8234  -2.8234
    -2.7653  -2.5944  -2.5545  -2.5545  -2.4492  -2.2603  -2.2603  -1.4896
    -1.2992  -1.2991  -1.2014  -1.0533  -1.0533  -1.0488  -0.9948  -0.9948
    -0.8173  -0.8172  -0.7120  -0.7120  -0.6932  -0.4497  -0.3229  -0.3228
    -0.0272  -0.0271   0.2868   0.3158   0.3158   0.3555   0.3698   0.3699
     0.5754   0.6832   0.6833   1.0364   1.0364   1.1110   1.1111   1.1288
     1.1753   1.2109   1.2109   1.2709   1.2709   1.3884   1.4229   1.4230
     1.5969   1.6072   1.6072   1.6353   1.6476   1.6477   2.3797   3.5505
     3.8062   3.9775   3.9775   4.9434

          k = 0.0000 0.0341 0.0000 ( 17192 PWs)   bands (ev):

   -50.4428 -49.6566 -49.6557 -48.5194 -48.4796 -48.4766 -48.4258 -48.4048
   -48.4032 -48.3397 -48.3376 -48.3340 -48.3213 -48.2641 -48.2525 -48.2440
   -48.2187 -48.2173 -48.2103 -48.1393 -48.1323 -48.0871 -48.0626 -48.0537
   -48.0416 -48.0372 -48.0299 -48.0073 -47.9967 -47.9379 -47.9180 -47.9167
   -47.9155 -47.9078 -47.9068 -47.8281 -10.1790  -5.4484  -4.1019  -3.3418
    -3.3323  -3.1173  -2.9903  -2.9493  -2.8592  -2.8337  -2.7388  -2.6933
    -2.6533  -2.5204  -2.4581  -2.4217  -2.3123  -2.2098  -2.2014  -1.4718
    -1.2753  -1.2560  -1.2108  -1.1281  -1.0984  -1.0113  -0.9526  -0.9239
    -0.8690  -0.8107  -0.7863  -0.7049  -0.5967  -0.5015  -0.4909  -0.3725
    -0.1497  -0.1127   0.0132   0.1942   0.2435   0.2899   0.2918   0.3524
     0.4330   0.5921   0.6634   0.8450   0.8456   0.8988   0.9639   0.9892
     1.0462   1.0536   1.1286   1.1911   1.2074   1.2115   1.2713   1.3076
     1.3359   1.4522   1.4569   1.4689   1.5444   1.7878   2.6026   2.8486
     3.6759   3.9103   3.9631   4.0112

          k = 0.0000 0.0683 0.0000 ( 17196 PWs)   bands (ev):

   -50.4428 -49.6556 -49.6529 -48.4956 -48.4556 -48.4428 -48.4194 -48.4077
   -48.4022 -48.3606 -48.3568 -48.3340 -48.3147 -48.3019 -48.2605 -48.2206
   -48.1999 -48.1975 -48.1785 -48.1374 -48.1144 -48.1059 -48.0873 -48.0721
   -48.0569 -48.0492 -48.0407 -48.0304 -48.0049 -47.9324 -47.9196 -47.9153
   -47.9148 -47.9108 -47.9077 -47.8282 -10.1741  -5.4342  -3.5758  -3.2412
    -3.1859  -2.8437  -2.6813  -2.6196  -2.6074  -2.4745  -2.4056  -2.3509
    -2.3399  -2.3015  -2.2326  -2.1682  -2.1044  -1.9471  -1.8995  -1.5036
    -1.4506  -1.3508  -1.2461  -1.1927  -1.1293  -1.0029  -0.9844  -0.9369
    -0.8559  -0.8306  -0.7528  -0.6702  -0.6139  -0.5673  -0.5439  -0.5419
    -0.4193  -0.3264  -0.2500  -0.0812  -0.0047   0.0168   0.0874   0.1064
     0.1610   0.2040   0.2697   0.2773   0.4423   0.5613   0.6085   0.6280
     0.7171   0.7785   0.7940   0.8445   0.8508   0.9829   0.9908   1.1615
     1.1714   1.2777   1.2947   1.4230   1.4391   1.8451   1.8582   2.7722
     3.4766   3.8106   3.9946   4.7209

          k = 0.0000-0.1024 0.0000 ( 17240 PWs)   bands (ev):

   -50.4427 -49.6551 -49.6515 -48.4810 -48.4368 -48.4192 -48.4150 -48.4028
   -48.3958 -48.3871 -48.3742 -48.3323 -48.3288 -48.3101 -48.2654 -48.2077
   -48.1888 -48.1812 -48.1371 -48.1301 -48.1226 -48.1219 -48.0961 -48.0952
   -48.0764 -48.0613 -48.0449 -48.0306 -48.0103 -47.9278 -47.9221 -47.9146
   -47.9144 -47.9122 -47.9083 -47.8283 -10.1717  -5.4283  -3.1902  -3.1691
    -3.0262  -2.7886  -2.6368  -2.4098  -2.3826  -2.2871  -2.1728  -2.1305
    -2.0997  -2.0707  -1.9598  -1.8971  -1.8868  -1.7605  -1.7392  -1.6861
    -1.4321  -1.3486  -1.3155  -1.3084  -1.2718  -1.2381  -1.1225  -1.0683
    -0.9631  -0.8431  -0.6745  -0.6612  -0.5936  -0.5549  -0.5191  -0.4851
    -0.4558  -0.3990  -0.3902  -0.3708  -0.3200  -0.2341  -0.1398  -0.0349
     0.0042   0.0501   0.1071   0.1288   0.2347   0.2755   0.3353   0.3589
     0.4203   0.4305   0.5488   0.6977   0.7516   0.8117   0.9670   1.1069
     1.1482   1.1658   1.2691   1.3993   1.4364   1.8590   2.2088   2.3000
     3.7782   3.9943   4.0226   4.3475

          k = 0.0296-0.0171 0.0000 ( 17192 PWs)   bands (ev):

   -50.4428 -49.6566 -49.6557 -48.5194 -48.4796 -48.4766 -48.4258 -48.4048
   -48.4032 -48.3397 -48.3376 -48.3340 -48.3213 -48.2641 -48.2524 -48.2440
   -48.2187 -48.2173 -48.2103 -48.1393 -48.1323 -48.0871 -48.0626 -48.0537
   -48.0416 -48.0372 -48.0299 -48.0073 -47.9967 -47.9379 -47.9180 -47.9167
   -47.9155 -47.9077 -47.9068 -47.8281 -10.1790  -5.4484  -4.1019  -3.3418
    -3.3323  -3.1173  -2.9903  -2.9493  -2.8592  -2.8337  -2.7388  -2.6933
    -2.6533  -2.5204  -2.4581  -2.4217  -2.3123  -2.2098  -2.2014  -1.4718
    -1.2753  -1.2560  -1.2109  -1.1281  -1.0984  -1.0113  -0.9526  -0.9239
    -0.8690  -0.8107  -0.7863  -0.7049  -0.5967  -0.5015  -0.4909  -0.3725
    -0.1497  -0.1127   0.0132   0.1942   0.2435   0.2899   0.2918   0.3524
     0.4330   0.5921   0.6634   0.8450   0.8456   0.8988   0.9638   0.9892
     1.0462   1.0536   1.1286   1.1911   1.2074   1.2115   1.2713   1.3076
     1.3359   1.4522   1.4568   1.4689   1.5444   1.7878   2.6026   2.8486
     3.6759   3.9103   3.9631   4.0112

          k = 0.0296 0.0171 0.0000 ( 17192 PWs)   bands (ev):

   -50.4428 -49.6566 -49.6557 -48.5194 -48.4795 -48.4766 -48.4258 -48.4048
   -48.4033 -48.3397 -48.3376 -48.3341 -48.3214 -48.2641 -48.2524 -48.2440
   -48.2187 -48.2174 -48.2103 -48.1393 -48.1323 -48.0871 -48.0625 -48.0538
   -48.0416 -48.0372 -48.0299 -48.0073 -47.9967 -47.9379 -47.9179 -47.9168
   -47.9155 -47.9078 -47.9068 -47.8281 -10.1790  -5.4484  -4.1019  -3.3418
    -3.3323  -3.1173  -2.9903  -2.9493  -2.8592  -2.8337  -2.7388  -2.6933
    -2.6533  -2.5204  -2.4581  -2.4217  -2.3123  -2.2098  -2.2014  -1.4718
    -1.2753  -1.2560  -1.2108  -1.1281  -1.0984  -1.0113  -0.9526  -0.9239
    -0.8690  -0.8107  -0.7863  -0.7049  -0.5967  -0.5015  -0.4908  -0.3725
    -0.1497  -0.1128   0.0132   0.1942   0.2436   0.2899   0.2918   0.3524
     0.4330   0.5921   0.6633   0.8450   0.8456   0.8988   0.9638   0.9892
     1.0462   1.0536   1.1286   1.1911   1.2074   1.2115   1.2713   1.3076
     1.3359   1.4522   1.4568   1.4688   1.5444   1.7878   2.6026   2.8486
     3.6759   3.9103   3.9631   4.0112

          k = 0.0296 0.0512 0.0000 ( 17186 PWs)   bands (ev):

   -50.4428 -49.6556 -49.6538 -48.5016 -48.4594 -48.4567 -48.4214 -48.4069
   -48.4024 -48.3630 -48.3353 -48.3321 -48.3269 -48.2877 -48.2599 -48.2261
   -48.2068 -48.1978 -48.1932 -48.1406 -48.1185 -48.1042 -48.0706 -48.0662
   -48.0568 -48.0392 -48.0388 -48.0288 -48.0040 -47.9340 -47.9187 -47.9160
   -47.9148 -47.9101 -47.9073 -47.8282 -10.1753  -5.4374  -3.7344  -3.2643
    -3.2253  -2.8358  -2.8184  -2.6936  -2.6554  -2.5798  -2.5301  -2.5027
    -2.3955  -2.3657  -2.2735  -2.2515  -2.1446  -2.0937  -1.9830  -1.4730
    -1.3578  -1.3348  -1.2308  -1.1963  -1.1525  -1.0504  -0.9868  -0.8760
    -0.8253  -0.8059  -0.7304  -0.6553  -0.6379  -0.6174  -0.5465  -0.4582
    -0.3545  -0.2989  -0.2581   0.0556   0.0624   0.0770   0.1628   0.2075
     0.2950   0.3464   0.3798   0.4016   0.4754   0.5570   0.7206   0.7428
     0.7698   0.8534   0.9021   0.9500   1.0650   1.0728   1.1273   1.1481
     1.2218   1.2967   1.3247   1.5115   1.6830   1.7504   2.3244   2.3735
     3.2712   3.3565   3.7334   4.5570

          k = 0.0296-0.1195 0.0000 ( 17183 PWs)   bands (ev):

   -50.4427 -49.6545 -49.6521 -48.4773 -48.4340 -48.4261 -48.4144 -48.4070
   -48.4024 -48.3910 -48.3583 -48.3318 -48.3313 -48.3041 -48.2707 -48.2028
   -48.1882 -48.1754 -48.1556 -48.1429 -48.1329 -48.1002 -48.0949 -48.0935
   -48.0614 -48.0586 -48.0438 -48.0393 -48.0147 -47.9282 -47.9208 -47.9160
   -47.9141 -47.9123 -47.9080 -47.8283 -10.1717  -5.4283  -3.2015  -3.1720
    -3.0434  -2.6544  -2.5182  -2.4289  -2.3224  -2.2931  -2.2134  -2.1452
    -2.1051  -2.0818  -2.0638  -1.9418  -1.9189  -1.7975  -1.7055  -1.6205
    -1.5349  -1.4333  -1.3963  -1.2935  -1.2139  -1.1767  -1.1232  -1.0898
    -0.9685  -0.9250  -0.8560  -0.7545  -0.6874  -0.6718  -0.5821  -0.5399
    -0.4706  -0.4318  -0.3559  -0.2708  -0.2427  -0.2152  -0.1194  -0.0388
     0.0307   0.0773   0.1515   0.1883   0.2505   0.3527   0.4321   0.4653
     0.5523   0.6320   0.7189   0.8228   0.8978   1.0032   1.0495   1.0943
     1.1155   1.1805   1.2490   1.3015   1.3524   1.6746   2.1409   2.4215
     2.6071   3.4783   3.9592   4.7950

          k = 0.0296-0.0853 0.0000 ( 17183 PWs)   bands (ev):

   -50.4427 -49.6545 -49.6521 -48.4773 -48.4340 -48.4261 -48.4144 -48.4070
   -48.4024 -48.3910 -48.3583 -48.3318 -48.3313 -48.3041 -48.2707 -48.2028
   -48.1882 -48.1754 -48.1556 -48.1429 -48.1330 -48.1001 -48.0949 -48.0935
   -48.0614 -48.0586 -48.0438 -48.0393 -48.0147 -47.9282 -47.9209 -47.9160
   -47.9141 -47.9122 -47.9080 -47.8283 -10.1717  -5.4283  -3.2015  -3.1720
    -3.0434  -2.6544  -2.5182  -2.4289  -2.3224  -2.2930  -2.2134  -2.1452
    -2.1051  -2.0818  -2.0638  -1.9418  -1.9189  -1.7975  -1.7055  -1.6205
    -1.5349  -1.4333  -1.3963  -1.2936  -1.2139  -1.1767  -1.1231  -1.0898
    -0.9686  -0.9250  -0.8559  -0.7545  -0.6874  -0.6718  -0.5821  -0.5399
    -0.4706  -0.4318  -0.3560  -0.2707  -0.2427  -0.2152  -0.1194  -0.0388
     0.0307   0.0773   0.1515   0.1883   0.2505   0.3527   0.4321   0.4653
     0.5523   0.6320   0.7189   0.8228   0.8978   1.0032   1.0495   1.0943
     1.1155   1.1805   1.2490   1.3015   1.3524   1.6746   2.1409   2.4215
     2.6071   3.4783   3.9592   4.7950

          k = 0.0296-0.0512 0.0000 ( 17186 PWs)   bands (ev):

   -50.4428 -49.6556 -49.6538 -48.5016 -48.4594 -48.4567 -48.4214 -48.4069
   -48.4024 -48.3630 -48.3353 -48.3321 -48.3269 -48.2877 -48.2599 -48.2261
   -48.2068 -48.1977 -48.1933 -48.1406 -48.1185 -48.1042 -48.0706 -48.0661
   -48.0567 -48.0392 -48.0388 -48.0288 -48.0040 -47.9340 -47.9188 -47.9159
   -47.9149 -47.9101 -47.9074 -47.8282 -10.1753  -5.4374  -3.7344  -3.2643
    -3.2253  -2.8358  -2.8184  -2.6936  -2.6554  -2.5798  -2.5301  -2.5027
    -2.3955  -2.3656  -2.2735  -2.2515  -2.1446  -2.0937  -1.9830  -1.4730
    -1.3578  -1.3348  -1.2307  -1.1963  -1.1525  -1.0504  -0.9868  -0.8760
    -0.8253  -0.8059  -0.7304  -0.6553  -0.6379  -0.6174  -0.5465  -0.4582
    -0.3545  -0.2989  -0.2581   0.0556   0.0624   0.0770   0.1628   0.2075
     0.2949   0.3464   0.3798   0.4016   0.4754   0.5570   0.7206   0.7428
     0.7698   0.8534   0.9021   0.9499   1.0650   1.0728   1.1272   1.1482
     1.2218   1.2967   1.3248   1.5115   1.6830   1.7504   2.3244   2.3735
     3.2712   3.3565   3.7334   4.5570

          k = 0.0591-0.0341 0.0000 ( 17196 PWs)   bands (ev):

   -50.4428 -49.6556 -49.6529 -48.4956 -48.4555 -48.4428 -48.4194 -48.4077
   -48.4022 -48.3606 -48.3568 -48.3340 -48.3147 -48.3019 -48.2605 -48.2206
   -48.1999 -48.1975 -48.1785 -48.1374 -48.1144 -48.1059 -48.0873 -48.0722
   -48.0569 -48.0492 -48.0407 -48.0304 -48.0049 -47.9324 -47.9196 -47.9153
   -47.9148 -47.9107 -47.9077 -47.8282 -10.1741  -5.4342  -3.5758  -3.2412
    -3.1859  -2.8437  -2.6813  -2.6196  -2.6073  -2.4745  -2.4056  -2.3509
    -2.3399  -2.3015  -2.2326  -2.1682  -2.1044  -1.9471  -1.8996  -1.5036
    -1.4506  -1.3508  -1.2461  -1.1927  -1.1293  -1.0029  -0.9844  -0.9369
    -0.8559  -0.8306  -0.7528  -0.6702  -0.6139  -0.5673  -0.5439  -0.5419
    -0.4193  -0.3264  -0.2500  -0.0812  -0.0047   0.0168   0.0874   0.1064
     0.1610   0.2040   0.2697   0.2773   0.4423   0.5613   0.6085   0.6280
     0.7171   0.7785   0.7940   0.8445   0.8508   0.9829   0.9908   1.1615
     1.1714   1.2777   1.2947   1.4230   1.4391   1.8451   1.8582   2.7722
     3.4766   3.8106   3.9946   4.7209

          k = 0.0591-0.0000 0.0000 ( 17186 PWs)   bands (ev):

   -50.4428 -49.6556 -49.6538 -48.5016 -48.4594 -48.4567 -48.4214 -48.4069
   -48.4024 -48.3630 -48.3353 -48.3321 -48.3269 -48.2877 -48.2599 -48.2261
   -48.2068 -48.1978 -48.1932 -48.1406 -48.1185 -48.1042 -48.0706 -48.0661
   -48.0568 -48.0392 -48.0388 -48.0288 -48.0040 -47.9340 -47.9187 -47.9160
   -47.9148 -47.9100 -47.9074 -47.8282 -10.1753  -5.4374  -3.7344  -3.2643
    -3.2253  -2.8358  -2.8184  -2.6936  -2.6554  -2.5798  -2.5301  -2.5027
    -2.3955  -2.3657  -2.2735  -2.2515  -2.1446  -2.0937  -1.9830  -1.4731
    -1.3578  -1.3348  -1.2308  -1.1963  -1.1525  -1.0504  -0.9868  -0.8760
    -0.8253  -0.8059  -0.7304  -0.6553  -0.6379  -0.6174  -0.5465  -0.4582
    -0.3545  -0.2989  -0.2581   0.0556   0.0625   0.0770   0.1628   0.2075
     0.2950   0.3464   0.3798   0.4016   0.4754   0.5570   0.7206   0.7428
     0.7698   0.8534   0.9021   0.9500   1.0651   1.0728   1.1273   1.1481
     1.2218   1.2967   1.3247   1.5115   1.6830   1.7504   2.3244   2.3735
     3.2712   3.3565   3.7334   4.5570

          k = 0.0591 0.0341 0.0000 ( 17196 PWs)   bands (ev):

   -50.4428 -49.6556 -49.6529 -48.4956 -48.4555 -48.4428 -48.4194 -48.4077
   -48.4023 -48.3605 -48.3568 -48.3340 -48.3148 -48.3019 -48.2605 -48.2206
   -48.1999 -48.1974 -48.1785 -48.1374 -48.1144 -48.1060 -48.0871 -48.0721
   -48.0569 -48.0493 -48.0407 -48.0304 -48.0049 -47.9324 -47.9195 -47.9154
   -47.9147 -47.9108 -47.9077 -47.8282 -10.1741  -5.4342  -3.5758  -3.2412
    -3.1859  -2.8437  -2.6813  -2.6196  -2.6073  -2.4745  -2.4056  -2.3509
    -2.3399  -2.3015  -2.2327  -2.1682  -2.1045  -1.9470  -1.8996  -1.5037
    -1.4506  -1.3508  -1.2461  -1.1927  -1.1293  -1.0030  -0.9844  -0.9369
    -0.8558  -0.8306  -0.7528  -0.6701  -0.6139  -0.5673  -0.5439  -0.5419
    -0.4193  -0.3264  -0.2500  -0.0812  -0.0046   0.0168   0.0874   0.1064
     0.1610   0.2040   0.2696   0.2774   0.4423   0.5613   0.6085   0.6280
     0.7171   0.7785   0.7940   0.8445   0.8508   0.9830   0.9908   1.1615
     1.1714   1.2777   1.2947   1.4229   1.4391   1.8451   1.8582   2.7722
     3.4766   3.8107   3.9945   4.7209

          k = 0.0591-0.1365 0.0000 ( 17183 PWs)   bands (ev):

   -50.4427 -49.6545 -49.6521 -48.4774 -48.4339 -48.4261 -48.4144 -48.4070
   -48.4024 -48.3910 -48.3583 -48.3318 -48.3313 -48.3041 -48.2707 -48.2028
   -48.1882 -48.1753 -48.1556 -48.1429 -48.1330 -48.1002 -48.0949 -48.0935
   -48.0614 -48.0587 -48.0438 -48.0394 -48.0146 -47.9283 -47.9208 -47.9161
   -47.9141 -47.9123 -47.9080 -47.8283 -10.1717  -5.4283  -3.2015  -3.1720
    -3.0434  -2.6544  -2.5182  -2.4289  -2.3224  -2.2931  -2.2134  -2.1452
    -2.1051  -2.0818  -2.0638  -1.9418  -1.9189  -1.7974  -1.7055  -1.6205
    -1.5349  -1.4333  -1.3963  -1.2936  -1.2139  -1.1767  -1.1231  -1.0898
    -0.9685  -0.9250  -0.8560  -0.7545  -0.6874  -0.6718  -0.5821  -0.5399
    -0.4706  -0.4317  -0.3560  -0.2708  -0.2427  -0.2152  -0.1194  -0.0388
     0.0307   0.0773   0.1514   0.1884   0.2505   0.3527   0.4321   0.4653
     0.5523   0.6320   0.7188   0.8228   0.8978   1.0032   1.0495   1.0943
     1.1155   1.1805   1.2490   1.3014   1.3524   1.6746   2.1409   2.4215
     2.6071   3.4783   3.9592   4.7950

          k = 0.0591-0.1024 0.0000 ( 17208 PWs)   bands (ev):

   -50.4427 -49.6528 -49.6528 -48.4501 -48.4477 -48.4111 -48.4093 -48.4024
   -48.4009 -48.3894 -48.3893 -48.3379 -48.3299 -48.2895 -48.2893 -48.1744
   -48.1737 -48.1709 -48.1563 -48.1553 -48.1300 -48.1282 -48.1053 -48.0707
   -48.0610 -48.0601 -48.0589 -48.0321 -48.0318 -47.9242 -47.9225 -47.9177
   -47.9135 -47.9129 -47.9081 -47.8283 -10.1705  -5.4257  -3.1387  -3.1039
    -2.6041  -2.5176  -2.4683  -2.2875  -2.1578  -2.1181  -2.0428  -2.0245
    -1.9580  -1.9159  -1.9021  -1.9005  -1.8320  -1.7885  -1.7817  -1.6526
    -1.5883  -1.5311  -1.5043  -1.4636  -1.2807  -1.2532  -1.2331  -1.0913
    -0.9985  -0.9922  -0.9572  -0.9492  -0.9171  -0.9168  -0.7300  -0.6154
    -0.6066  -0.4891  -0.4647  -0.4562  -0.4455  -0.3396  -0.1156   0.0179
     0.0478   0.1655   0.1832   0.2703   0.2943   0.4229   0.4409   0.4730
     0.6505   0.7734   0.8166   0.9292   0.9905   0.9927   1.0458   1.0537
[...]
     0.7225   0.7496   0.7614   0.8370   0.8377   0.9628   0.9837   1.1466
     1.1575   1.2523   1.2895   1.3987   1.4391   1.8856   1.9038   2.8495
     3.5013   3.8042   4.0020   4.6599

          k = 0.0591-0.0000 0.0000 ( 17186 PWs)   bands (ev):

   -50.5419 -49.7257 -49.7241 -48.5261 -48.4636 -48.4605 -48.4206 -48.4196
   -48.4169 -48.3629 -48.3359 -48.3312 -48.2972 -48.2732 -48.2486 -48.2169
   -48.2034 -48.2013 -48.1833 -48.1183 -48.1080 -48.0962 -48.0730 -48.0602
   -48.0427 -48.0392 -48.0179 -48.0137 -48.0127 -47.9306 -47.9189 -47.9165
   -47.8879 -47.8775 -47.8746 -47.8436 -10.3200  -5.6068  -3.7324  -3.4111
    -3.3984  -2.8745  -2.8577  -2.7166  -2.6273  -2.5576  -2.5257  -2.4994
    -2.3732  -2.3451  -2.2682  -2.2376  -2.1549  -2.0983  -1.9824  -1.4342
    -1.3400  -1.3051  -1.2339  -1.1681  -1.1402  -1.0448  -0.9865  -0.8850
    -0.8368  -0.8135  -0.7276  -0.6393  -0.6285  -0.5971  -0.5648  -0.4349
    -0.3500  -0.2984  -0.2581   0.0657   0.0834   0.0934   0.1765   0.2226
     0.2914   0.3547   0.3716   0.4080   0.4837   0.5495   0.6995   0.7291
     0.7688   0.8545   0.8908   0.9331   1.0515   1.0564   1.1172   1.1388
     1.2072   1.2807   1.3000   1.5302   1.7043   1.7815   2.3319   2.3905
     3.3060   3.3763   3.8240   4.4937

          k = 0.0591 0.0341 0.0000 ( 17196 PWs)   bands (ev):

   -50.5419 -49.7257 -49.7233 -48.5201 -48.4560 -48.4550 -48.4205 -48.4182
   -48.4148 -48.3616 -48.3582 -48.3202 -48.2956 -48.2857 -48.2486 -48.2114
   -48.2030 -48.1869 -48.1766 -48.1142 -48.1098 -48.0917 -48.0894 -48.0522
   -48.0520 -48.0480 -48.0355 -48.0141 -48.0066 -47.9294 -47.9196 -47.9163
   -47.8873 -47.8782 -47.8746 -47.8437 -10.3186  -5.6035  -3.5762  -3.3868
    -3.3649  -2.8919  -2.6914  -2.6650  -2.6017  -2.4642  -2.3962  -2.3363
    -2.3034  -2.3020  -2.2157  -2.1776  -2.1067  -1.9552  -1.8888  -1.4725
    -1.4239  -1.3389  -1.2231  -1.1690  -1.1167  -0.9913  -0.9612  -0.9343
    -0.8700  -0.8317  -0.7600  -0.6611  -0.6304  -0.5606  -0.5292  -0.5036
    -0.4182  -0.3149  -0.2608  -0.0411  -0.0059   0.0474   0.0890   0.1112
     0.1630   0.2013   0.2830   0.2932   0.4284   0.5751   0.6013   0.6273
     0.7225   0.7496   0.7614   0.8370   0.8377   0.9628   0.9837   1.1466
     1.1575   1.2523   1.2895   1.3987   1.4391   1.8856   1.9038   2.8495
     3.5013   3.8042   4.0020   4.6599

          k = 0.0591-0.1365 0.0000 ( 17183 PWs)   bands (ev):

   -50.5419 -49.7247 -49.7226 -48.5022 -48.4559 -48.4323 -48.4183 -48.4159
   -48.4040 -48.3878 -48.3594 -48.3329 -48.2926 -48.2907 -48.2581 -48.1982
   -48.1814 -48.1674 -48.1567 -48.1368 -48.1172 -48.1023 -48.0744 -48.0703
   -48.0649 -48.0509 -48.0394 -48.0244 -48.0160 -47.9267 -47.9212 -47.9164
   -47.8856 -47.8802 -47.8745 -47.8437 -10.3159  -5.5975  -3.3427  -3.3118
    -3.1199  -2.7044  -2.5461  -2.4800  -2.3380  -2.2824  -2.2030  -2.1350
    -2.1038  -2.0792  -2.0621  -1.9276  -1.9069  -1.7978  -1.6881  -1.6073
    -1.5214  -1.4151  -1.3587  -1.2880  -1.1796  -1.1383  -1.1093  -1.0809
    -0.9478  -0.8928  -0.8176  -0.7413  -0.6760  -0.6617  -0.5844  -0.5334
    -0.4461  -0.4157  -0.3376  -0.2644  -0.2487  -0.2143  -0.1114  -0.0515
     0.0539   0.0872   0.1587   0.1770   0.2433   0.3504   0.4146   0.4646
     0.5543   0.6253   0.6902   0.8158   0.8790   0.9760   1.0391   1.0810
     1.1065   1.1664   1.2340   1.2758   1.3448   1.6945   2.1916   2.4343
     2.6779   3.5063   3.9959   4.7943

          k = 0.0591-0.1024 0.0000 ( 17208 PWs)   bands (ev):

   -50.5419 -49.7232 -49.7232 -48.4780 -48.4745 -48.4221 -48.4087 -48.4077
   -48.4037 -48.3839 -48.3830 -48.3436 -48.2899 -48.2764 -48.2763 -48.1765
   -48.1698 -48.1597 -48.1425 -48.1384 -48.1344 -48.1305 -48.0862 -48.0624
   -48.0426 -48.0422 -48.0417 -48.0395 -48.0387 -47.9240 -47.9231 -47.9165
   -47.8836 -47.8823 -47.8745 -47.8438 -10.3146  -5.5948  -3.3109  -3.2750
    -2.6599  -2.5857  -2.5029  -2.3556  -2.1704  -2.1359  -2.0183  -2.0160
    -1.9725  -1.8872  -1.8849  -1.8571  -1.8102  -1.8100  -1.8025  -1.6326
    -1.5281  -1.4870  -1.4816  -1.4251  -1.2671  -1.2355  -1.2142  -1.0305
    -0.9918  -0.9832  -0.9650  -0.9491  -0.9052  -0.8615  -0.6218  -0.6190
    -0.6114  -0.4778  -0.4616  -0.4437  -0.4404  -0.3557  -0.0923  -0.0156
     0.0865   0.1332   0.1998   0.2359   0.2807   0.4167   0.4399   0.4863
     0.6349   0.7464   0.8267   0.9230   0.9790   1.0016   1.0149   1.0525
     1.0903   1.1341   1.1444   1.1448   1.2547   1.3822   1.4648   2.5879
     2.6417   2.7949   4.4364   4.4540

          k = 0.0591-0.0683 0.0000 ( 17183 PWs)   bands (ev):

   -50.5419 -49.7247 -49.7226 -48.5022 -48.4559 -48.4323 -48.4183 -48.4159
   -48.4040 -48.3878 -48.3594 -48.3329 -48.2926 -48.2907 -48.2581 -48.1982
   -48.1814 -48.1674 -48.1567 -48.1368 -48.1172 -48.1023 -48.0744 -48.0703
   -48.0649 -48.0509 -48.0394 -48.0244 -48.0160 -47.9267 -47.9212 -47.9163
   -47.8856 -47.8802 -47.8746 -47.8437 -10.3159  -5.5975  -3.3427  -3.3118
    -3.1199  -2.7044  -2.5461  -2.4800  -2.3380  -2.2824  -2.2030  -2.1350
    -2.1038  -2.0792  -2.0621  -1.9276  -1.9069  -1.7978  -1.6881  -1.6073
    -1.5214  -1.4151  -1.3587  -1.2880  -1.1796  -1.1383  -1.1093  -1.0809
    -0.9478  -0.8928  -0.8176  -0.7413  -0.6760  -0.6617  -0.5844  -0.5334
    -0.4461  -0.4157  -0.3376  -0.2644  -0.2487  -0.2143  -0.1114  -0.0515
     0.0539   0.0872   0.1587   0.1770   0.2433   0.3504   0.4146   0.4646
     0.5543   0.6253   0.6902   0.8158   0.8790   0.9760   1.0392   1.0810
     1.1065   1.1664   1.2339   1.2758   1.3448   1.6945   2.1916   2.4343
     2.6779   3.5063   3.9959   4.7943

          k =-0.0887 0.0512 0.0000 ( 17240 PWs)   bands (ev):

   -50.5419 -49.7252 -49.7220 -48.5052 -48.4495 -48.4313 -48.4250 -48.4175
   -48.3900 -48.3883 -48.3741 -48.3168 -48.3083 -48.2918 -48.2524 -48.2010
   -48.1874 -48.1701 -48.1383 -48.1254 -48.1232 -48.1030 -48.0765 -48.0735
   -48.0706 -48.0571 -48.0467 -48.0205 -48.0070 -47.9265 -47.9216 -47.9161
   -47.8856 -47.8801 -47.8746 -47.8437 -10.3159  -5.5974  -3.3415  -3.3169
    -3.0559  -2.8388  -2.6813  -2.4565  -2.3772  -2.3088  -2.1749  -2.1227
    -2.0918  -2.0649  -1.9707  -1.8815  -1.8765  -1.7797  -1.7167  -1.6554
    -1.4422  -1.3253  -1.3002  -1.2927  -1.2255  -1.2039  -1.0604  -1.0321
    -0.9728  -0.7748  -0.6709  -0.6600  -0.5700  -0.5537  -0.5290  -0.4768
    -0.4109  -0.3992  -0.3667  -0.3615  -0.3220  -0.2191  -0.1579  -0.0210
     0.0195   0.0556   0.0954   0.1240   0.2233   0.2851   0.3223   0.3709
     0.4196   0.4291   0.5470   0.6498   0.7456   0.7806   0.9119   1.1114
     1.1373   1.1476   1.2437   1.3964   1.4112   1.9022   2.2854   2.3620
     3.7350   4.0288   4.0318   4.3185

          k =-0.0887 0.0853 0.0000 ( 17183 PWs)   bands (ev):

   -50.5419 -49.7247 -49.7226 -48.5022 -48.4559 -48.4323 -48.4183 -48.4159
   -48.4040 -48.3878 -48.3594 -48.3329 -48.2926 -48.2907 -48.2581 -48.1982
   -48.1814 -48.1674 -48.1567 -48.1368 -48.1172 -48.1023 -48.0744 -48.0703
   -48.0649 -48.0509 -48.0394 -48.0244 -48.0160 -47.9267 -47.9212 -47.9163
   -47.8856 -47.8802 -47.8746 -47.8437 -10.3159  -5.5975  -3.3427  -3.3118
    -3.1199  -2.7044  -2.5461  -2.4800  -2.3380  -2.2824  -2.2030  -2.1350
    -2.1038  -2.0792  -2.0621  -1.9276  -1.9069  -1.7978  -1.6881  -1.6073
    -1.5214  -1.4151  -1.3587  -1.2880  -1.1796  -1.1383  -1.1093  -1.0809
    -0.9478  -0.8928  -0.8176  -0.7413  -0.6760  -0.6617  -0.5844  -0.5334
    -0.4461  -0.4157  -0.3376  -0.2644  -0.2487  -0.2143  -0.1114  -0.0515
     0.0539   0.0872   0.1587   0.1770   0.2433   0.3504   0.4146   0.4646
     0.5543   0.6253   0.6902   0.8158   0.8790   0.9760   1.0392   1.0810
     1.1065   1.1664   1.2339   1.2758   1.3448   1.6945   2.1916   2.4343
     2.6779   3.5063   3.9960   4.7943

          k =-0.0887 0.1195 0.0000 ( 17183 PWs)   bands (ev):

   -50.5419 -49.7247 -49.7226 -48.5022 -48.4559 -48.4323 -48.4183 -48.4159
   -48.4040 -48.3878 -48.3594 -48.3329 -48.2926 -48.2907 -48.2581 -48.1982
   -48.1814 -48.1674 -48.1567 -48.1368 -48.1172 -48.1023 -48.0744 -48.0703
   -48.0649 -48.0509 -48.0394 -48.0244 -48.0160 -47.9267 -47.9212 -47.9164
   -47.8856 -47.8802 -47.8745 -47.8437 -10.3159  -5.5975  -3.3427  -3.3118
    -3.1199  -2.7044  -2.5461  -2.4800  -2.3380  -2.2824  -2.2030  -2.1350
    -2.1038  -2.0792  -2.0621  -1.9276  -1.9069  -1.7978  -1.6881  -1.6073
    -1.5214  -1.4151  -1.3587  -1.2880  -1.1797  -1.1383  -1.1093  -1.0808
    -0.9478  -0.8928  -0.8176  -0.7413  -0.6760  -0.6617  -0.5844  -0.5334
    -0.4461  -0.4157  -0.3376  -0.2644  -0.2487  -0.2143  -0.1114  -0.0515
     0.0539   0.0872   0.1587   0.1770   0.2433   0.3504   0.4146   0.4646
     0.5543   0.6253   0.6902   0.8158   0.8790   0.9760   1.0392   1.0810
     1.1065   1.1664   1.2340   1.2758   1.3448   1.6945   2.1916   2.4343
     2.6779   3.5063   3.9960   4.7943

          k =-0.0887-0.0512 0.0000 ( 17240 PWs)   bands (ev):

   -50.5419 -49.7252 -49.7220 -48.5052 -48.4495 -48.4313 -48.4250 -48.4175
   -48.3899 -48.3883 -48.3742 -48.3169 -48.3083 -48.2918 -48.2524 -48.2010
   -48.1873 -48.1701 -48.1384 -48.1255 -48.1232 -48.1030 -48.0765 -48.0735
   -48.0706 -48.0571 -48.0467 -48.0204 -48.0069 -47.9265 -47.9216 -47.9161
   -47.8856 -47.8802 -47.8746 -47.8437 -10.3159  -5.5974  -3.3415  -3.3169
    -3.0559  -2.8388  -2.6813  -2.4565  -2.3772  -2.3088  -2.1749  -2.1227
    -2.0917  -2.0649  -1.9707  -1.8815  -1.8765  -1.7797  -1.7167  -1.6554
    -1.4421  -1.3253  -1.3002  -1.2927  -1.2255  -1.2039  -1.0604  -1.0321
    -0.9728  -0.7748  -0.6709  -0.6600  -0.5700  -0.5537  -0.5290  -0.4768
    -0.4109  -0.3992  -0.3667  -0.3615  -0.3220  -0.2191  -0.1579  -0.0210
     0.0195   0.0556   0.0954   0.1240   0.2233   0.2851   0.3223   0.3709
     0.4196   0.4290   0.5470   0.6498   0.7456   0.7806   0.9119   1.1114
     1.1372   1.1476   1.2437   1.3965   1.4112   1.9022   2.2854   2.3620
     3.7350   4.0288   4.0318   4.3185

     the Fermi energy is     1.3971 ev

!    total energy              =   -2409.97677156 Ry
     Harris-Foulkes estimate   =   -2409.97677276 Ry
     estimated scf accuracy    <       0.00000007 Ry

     The total energy is the sum of the following terms:

     one-electron contribution =  -20445.26065831 Ry
     hartree contribution      =   10275.47882648 Ry
     xc contribution           =    -394.33523316 Ry
     ewald contribution        =    8154.25754549 Ry
     electric field correction =       0.00022030 Ry
     smearing contrib. (-TS)   =      -0.11747234 Ry

     convergence has been achieved in  10 iterations
 
 BEEF-vdW xc energy contributions
           1 :   -343.205124262969     
           2 :    313.506843287742     
           3 :   -262.898771238123     
           4 :    205.033064037514     
           5 :   -153.070062795011     
           6 :    115.359824867092     
           7 :   -93.6576949704518     
           8 :    84.1621813313049     
           9 :   -80.4905834310334     
          10 :    76.9903735074483     
          11 :   -70.8930844578242     
          12 :    62.5876982827241     
          13 :   -54.3194264768636     
          14 :    48.3154512780276     
          15 :   -45.4235604719939     
          16 :    44.8493107931398     
          17 :   -44.8823331046021     
          18 :    44.0006215820471     
          19 :   -41.6641329738843     
          20 :    38.4024310454002     
          21 :   -35.2771168284173     
          22 :    33.1389418797839     
          23 :   -32.1459660283807     
          24 :    31.7784550092417     
          25 :   -31.2607548828917     
          26 :    30.0742390789889     
          27 :   -28.2403895832314     
          28 :    26.2315596932888     
          29 :   -24.6117836447143     
          30 :    23.6604762434100     
          31 :   -33.5589752955177     
          32 :   -24.7795255794859     

     Forces acting on atoms (Ry/au):


     negative rho (up, down):  9.513E-01 0.000E+00
     atom    1 type  1   force =     0.00044318    0.00025695   -0.00088151
     atom    2 type  1   force =    -0.00044443    0.00025664   -0.00087891
     atom    3 type  1   force =    -0.00000088   -0.00051221   -0.00088164
     atom    4 type  1   force =     0.00000085   -0.00000054   -0.00627108
     atom    5 type  1   force =     0.00000099    0.00510405    0.00112398
     atom    6 type  1   force =    -0.00000136    0.00000038    0.00672625
     atom    7 type  1   force =    -0.00442027   -0.00255296    0.00112375
     atom    8 type  1   force =     0.00442188   -0.00255271    0.00112233
     atom    9 type  1   force =    -0.00000203    0.00000247   -0.00010050
     atom   10 type  1   force =     0.00000282   -0.00147673   -0.00023411
     atom   11 type  1   force =    -0.00128002    0.00073832   -0.00023333
     atom   12 type  1   force =     0.00128109    0.00073540   -0.00023317
     atom   13 type  2   force =    -0.00000210    0.00000112   -0.00001925
     atom   14 type  3   force =     0.00000027   -0.00000015   -0.00036281

     Total force =     0.002618     Total SCF correction =     0.000440
     SCF correction compared to forces is large: reduce conv_thr to get better values


     entering subroutine stress ...


     negative rho (up, down):  9.513E-01 0.000E+00
          total   stress  (Ry/bohr**3)                   (kbar)     P=   -8.85
  -0.00008540  -0.00000000  -0.00000000        -12.56     -0.00     -0.00
  -0.00000000  -0.00008540   0.00000000         -0.00    -12.56      0.00
  -0.00000000   0.00000000  -0.00000977         -0.00      0.00     -1.44


     bfgs converged in  14 scf cycles and  13 bfgs steps
     (criteria: energy <  1.0E+00, force <  1.9E-03)

     End of BFGS Geometry Optimization

     Final energy   =   -2409.9767715552 Ry
Begin final coordinates

ATOMIC_POSITIONS (crystal)
Pd1      0.166666667   0.166666667   0.406452311    0   0   0
Pd1      0.666666667   0.166666667   0.406452311    0   0   0
Pd1      0.166666667   0.666666667   0.406452311    0   0   0
Pd1      0.666666667   0.666666667   0.406452311    0   0   0
Pd1      0.833333333   0.333333333   0.500000000    0   0   0
Pd1      0.333333333   0.333333333   0.500000000    0   0   0
Pd1      0.833333333   0.833333333   0.500000000    0   0   0
Pd1      0.333333333   0.833333333   0.500000000    0   0   0
Pd1      0.000002436  -0.000001951   0.589216394
Pd1      0.500007684  -0.000015536   0.595875683
Pd1     -0.000014339   0.500006902   0.595875103
Pd1      0.500007225   0.500007328   0.595875467
C1      -0.000003208   0.000000813   0.661575205
H1       0.000000623  -0.000000788   0.706018873
End final coordinates



     Writing output data file calc.save
 
     init_run     :     11.25s CPU     11.67s WALL (       1 calls)
     electrons    :   4263.04s CPU   4505.24s WALL (      14 calls)
     update_pot   :     42.32s CPU     45.73s WALL (      13 calls)
     forces       :    193.55s CPU    207.96s WALL (      14 calls)
     stress       :    639.37s CPU    651.85s WALL (      14 calls)

     Called by init_run:
     wfcinit      :      4.50s CPU      4.60s WALL (       1 calls)
     potinit      :      2.05s CPU      2.23s WALL (       1 calls)

     Called by electrons:
     c_bands      :   1723.43s CPU   1789.01s WALL (     173 calls)
     sum_band     :    890.05s CPU    921.84s WALL (     173 calls)
     v_of_rho     :    289.50s CPU    323.45s WALL (     187 calls)
     newd         :    700.35s CPU    711.78s WALL (     187 calls)
     mix_rho      :     10.55s CPU     10.76s WALL (     173 calls)
     vdW_energy   :    141.27s CPU    157.32s WALL (     691 calls)
     vdW_ffts     :    348.70s CPU    362.82s WALL (    1410 calls)
     vdW_v        :    135.89s CPU    143.46s WALL (     691 calls)

     Called by c_bands:
     init_us_2    :     10.53s CPU     10.58s WALL (    1875 calls)
     cegterg      :   1627.91s CPU   1670.56s WALL (     865 calls)

     Called by *egterg:
     h_psi        :   1109.55s CPU   1134.95s WALL (    3059 calls)
     s_psi        :     86.57s CPU     86.71s WALL (    3059 calls)
     g_psi        :      5.50s CPU      5.54s WALL (    2189 calls)
     cdiaghg      :    134.60s CPU    135.63s WALL (    2989 calls)

     Called by h_psi:
     add_vuspsi   :     89.38s CPU     89.51s WALL (    3059 calls)

     General routines
     calbec       :    142.30s CPU    144.88s WALL (    4064 calls)
     fft          :    534.89s CPU    571.13s WALL (   41797 calls)
     ffts         :      0.67s CPU      0.73s WALL (     360 calls)
     fftw         :    713.71s CPU    741.38s WALL (  526574 calls)
     interpolate  :      6.18s CPU      6.36s WALL (     360 calls)
     davcio       :      0.00s CPU      0.03s WALL (       5 calls)
 
     Parallel routines
     fft_scatter  :    718.97s CPU    778.90s WALL (  568731 calls)
 
     PWSCF        :     1h26m CPU        1h31m WALL

 
   This run was terminated on:  21: 8:10  21Apr2018            

=------------------------------------------------------------------------------=
   JOB DONE.
=------------------------------------------------------------------------------=
Job  /afs/slac/g/suncat/bin/suncat-tsmpirun -x LD_LIBRARY_PATH -wdir /scratch/qe392439_iJQFD pw.x -npool 4 -in pw.inp

TID   HOST_NAME   COMMAND_LINE            STATUS            TERMINATION_TIME
===== ========== ================  =======================  ===================
00000 suncat0100 pw.x -npool 4 -i  Done                     04/21/2018 21:08:10
00001 suncat0100 pw.x -npool 4 -i  Done                     04/21/2018 21:08:10
00002 suncat0100 pw.x -npool 4 -i  Done                     04/21/2018 21:08:10
00003 suncat0100 pw.x -npool 4 -i  Done                     04/21/2018 21:08:10
00004 suncat0100 pw.x -npool 4 -i  Done                     04/21/2018 21:08:10
00005 suncat0100 pw.x -npool 4 -i  Done                     04/21/2018 21:08:10
00006 suncat0100 pw.x -npool 4 -i  Done                     04/21/2018 21:08:10
00007 suncat0100 pw.x -npool 4 -i  Done                     04/21/2018 21:08:10
00008 suncat0277 pw.x -npool 4 -i  Done                     04/21/2018 21:08:10
00009 suncat0277 pw.x -npool 4 -i  Done                     04/21/2018 21:08:10
00010 suncat0277 pw.x -npool 4 -i  Done                     04/21/2018 21:08:10
00011 suncat0277 pw.x -npool 4 -i  Done                     04/21/2018 21:08:10
00012 suncat0277 pw.x -npool 4 -i  Done                     04/21/2018 21:08:10
00013 suncat0277 pw.x -npool 4 -i  Done                     04/21/2018 21:08:10
00014 suncat0277 pw.x -npool 4 -i  Done                     04/21/2018 21:08:10
00015 suncat0277 pw.x -npool 4 -i  Done                     04/21/2018 21:08:10
00016 suncat0264 pw.x -npool 4 -i  Done                     04/21/2018 21:08:10
00017 suncat0264 pw.x -npool 4 -i  Done                     04/21/2018 21:08:10
00018 suncat0264 pw.x -npool 4 -i  Done                     04/21/2018 21:08:10
00019 suncat0264 pw.x -npool 4 -i  Done                     04/21/2018 21:08:10
00020 suncat0264 pw.x -npool 4 -i  Done                     04/21/2018 21:08:10
00021 suncat0264 pw.x -npool 4 -i  Done                     04/21/2018 21:08:10
00022 suncat0264 pw.x -npool 4 -i  Done                     04/21/2018 21:08:10
00023 suncat0264 pw.x -npool 4 -i  Done                     04/21/2018 21:08:10
00024 suncat0233 pw.x -npool 4 -i  Done                     04/21/2018 21:08:10
00025 suncat0233 pw.x -npool 4 -i  Done                     04/21/2018 21:08:10
00026 suncat0233 pw.x -npool 4 -i  Done                     04/21/2018 21:08:10
00027 suncat0233 pw.x -npool 4 -i  Done                     04/21/2018 21:08:10
00028 suncat0233 pw.x -npool 4 -i  Done                     04/21/2018 21:08:10
00029 suncat0233 pw.x -npool 4 -i  Done                     04/21/2018 21:08:10
00030 suncat0233 pw.x -npool 4 -i  Done                     04/21/2018 21:08:10
00031 suncat0233 pw.x -npool 4 -i  Done                     04/21/2018 21:08:10
