  python dir          : /u/if/mamunm/src/espresso
  espresso dir        : /nfs/slac/g/suncatfs/sw/espv18/espresso-dynpy-beef/bin
  pseudo dir          : /u/if/mamunm/psp/gbrv1.5pbe
  ase-espresso py git : GITVERSION



     Program PWSCF v.5.1rc2 (svn rev. 11289) starts on 23Apr2018 at  9: 0:23 

     This program is part of the open-source Quantum ESPRESSO suite
     for quantum simulation of materials; please cite
         "P. Giannozzi et al., J. Phys.:Condens. Matter 21 395502 (2009);
          URL http://www.quantum-espresso.org", 
     in publications or presentations arising from this work. More details at
     http://www.quantum-espresso.org/quote

     Parallel version (MPI), running on    36 processors
     K-points division:     npool     =       3
     R & G space division:  proc/nbgrp/npool/nimage =      12
     Reading input from pw.inp
     Message from routine read_cards :
     DEPRECATED: no units specified in CELL_PARAMETERS card

     Current dimensions of program PWSCF are:
     Max number of different atomic species (ntypx) = 10
     Max number of k-points (npk) =  40000
     Max angular momentum in pseudopotentials (lmaxx) =  3
     Presently stress not available with electric field


     **************************************************************************
     Initializing libbeef V0.1.1 with the BEEF-vdW functional.
     Citation: Wellendorff et al., PRB 85, 235149 (2012).
     **************************************************************************


     IMPORTANT: XC functional enforced from input :
     Exchange-correlation      = BEEF-VDW ( 1  4 27 13 2)
     Any further DFT definition will be discarded
     Please, verify this is what you really want


     Subspace diagonalization in iterative solution of the eigenvalue problem:
     a serial algorithm will be used

 
     Parallelization info
     --------------------
     sticks:   dense  smooth     PW     G-vecs:    dense   smooth      PW
     Min         269     107     31                51421    12993    2025
     Max         271     108     33                51431    13027    2039
     Sum        3241    1285    379               617075   156145   24367
 


     bravais-lattice index     =            0
     lattice parameter (alat)  =       1.8897  a.u.
     unit-cell volume          =    5185.0501 (a.u.)^3
     number of atoms/cell      =           14
     number of atomic types    =            3
     number of electrons       =       163.00
     number of Kohn-Sham states=           91
     kinetic-energy cutoff     =      36.7493  Ry
     charge density cutoff     =     367.4932  Ry
     convergence threshold     =      1.0E-05
     mixing beta               =       0.3000
     number of iterations used =           10  plain     mixing
     Exchange-correlation      = BEEF-VDW ( 1  4 27 13 2)
     nstep                     =           50


     celldm(1)=   1.889726  celldm(2)=   0.000000  celldm(3)=   0.000000
     celldm(4)=   0.000000  celldm(5)=   0.000000  celldm(6)=   0.000000

     crystal axes: (cart. coord. in units of alat)
               a(1) = (   5.972022   0.000000   0.000000 )  
               a(2) = (   2.986011   5.171923   0.000000 )  
               a(3) = (   0.000000   0.000000  24.876136 )  

     reciprocal axes: (cart. coord. in units 2 pi/alat)
               b(1) = (  0.167447 -0.096676  0.000000 )  
               b(2) = (  0.000000  0.193352  0.000000 )  
               b(3) = (  0.000000  0.000000  0.040199 )  


     PseudoPot. # 1 for Ta read from file:
     /u/if/mamunm/psp/gbrv1.5pbe/Ta.UPF
     MD5 check sum: f8bbe9446314a3b8ea5d9f3e3836c939
     Pseudo is Ultrasoft + core correction, Zval = 13.0
     Generated by new atomic code, or converted to UPF format
     Using radial grid of  921 points,  7 beta functions with: 
                l(1) =   0
                l(2) =   0
                l(3) =   1
                l(4) =   1
                l(5) =   2
                l(6) =   2
                l(7) =   3
     Q(r) pseudized with  6 coefficients,  rinner =    1.300   1.300   1.300
                                                       1.300   1.300   1.300
                                                       1.300

     PseudoPot. # 2 for S  read from file:
     /u/if/mamunm/psp/gbrv1.5pbe/S.UPF
     MD5 check sum: 88d86576ff6df21479756cfb9bdac1df
     Pseudo is Ultrasoft + core correction, Zval =  6.0
     Generated by new atomic code, or converted to UPF format
     Using radial grid of  907 points,  6 beta functions with: 
                l(1) =   0
                l(2) =   0
                l(3) =   1
                l(4) =   1
                l(5) =   2
                l(6) =   2
     Q(r) pseudized with  8 coefficients,  rinner =    1.300   1.300   1.300
                                                       1.300   1.300

     PseudoPot. # 3 for H  read from file:
     /u/if/mamunm/psp/gbrv1.5pbe/H.UPF
     MD5 check sum: 761ae9a214b05c3daf00ab9f6b793d6f
     Pseudo is Ultrasoft, Zval =  1.0
     Generated by new atomic code, or converted to UPF format
     Using radial grid of  615 points,  2 beta functions with: 
                l(1) =   0
                l(2) =   0
     Q(r) pseudized with  8 coefficients,  rinner =    0.700

     vdW kernel table read from file vdW_kernel_table
     MD5 check sum: 095c7af220d748ca6e76c0b4c6cfb241

     atomic species   valence    mass     pseudopotential
        Ta1           13.00   180.94788     Ta( 1.00)
        S1             6.00    32.06000     S ( 1.00)
        H1             1.00     1.00800     H ( 1.00)

     No symmetry found



   Cartesian axes

     site n.     atom                  positions (alat units)
         1           Ta1 tau(   1) = (   1.4930055   0.8619871  10.0000000  )
         2           Ta1 tau(   2) = (   4.4790165   0.8619871  10.0000000  )
         3           Ta1 tau(   3) = (   2.9860110   3.4479485  10.0000000  )
         4           Ta1 tau(   4) = (   5.9720221   3.4479485  10.0000000  )
         5           Ta1 tau(   5) = (   5.9720221   1.7239743  12.4380678  )
         6           Ta1 tau(   6) = (   2.9860110   1.7239743  12.4380678  )
         7           Ta1 tau(   7) = (   7.4650276   4.3099357  12.4380678  )
         8           Ta1 tau(   8) = (   4.4790165   4.3099357  12.4380678  )
         9           Ta1 tau(   9) = (   0.0000000   0.0000000  14.8761356  )
        10           Ta1 tau(  10) = (   2.9860110   0.0000000  14.8761356  )
        11           Ta1 tau(  11) = (   1.4930055   2.5859614  14.8761356  )
        12           Ta1 tau(  12) = (   4.4790165   2.5859614  14.8761356  )
        13           S1  tau(  13) = (   1.4930055   0.8619871  16.6636356  )
        14           H1  tau(  14) = (   1.4930055   0.8619871  17.9136356  )

     number of k points=    20  Fermi-Dirac smearing, width (Ry)=  0.0110
                       cart. coord. in units 2pi/alat
        k(    1) = (   0.0000000   0.0000000   0.0000000), wk =   0.0555556
        k(    2) = (   0.0000000   0.0322253   0.0000000), wk =   0.1111111
        k(    3) = (   0.0000000   0.0644506   0.0000000), wk =   0.1111111
        k(    4) = (   0.0000000  -0.0966758   0.0000000), wk =   0.0555556
        k(    5) = (   0.0279079  -0.0161126   0.0000000), wk =   0.1111111
        k(    6) = (   0.0279079   0.0161126   0.0000000), wk =   0.1111111
        k(    7) = (   0.0279079   0.0483379   0.0000000), wk =   0.1111111
        k(    8) = (   0.0279079  -0.1127885   0.0000000), wk =   0.1111111
        k(    9) = (   0.0279079  -0.0805632   0.0000000), wk =   0.1111111
        k(   10) = (   0.0279079  -0.0483379   0.0000000), wk =   0.1111111
        k(   11) = (   0.0558158  -0.0322253   0.0000000), wk =   0.1111111
        k(   12) = (   0.0558158   0.0000000   0.0000000), wk =   0.1111111
        k(   13) = (   0.0558158   0.0322253   0.0000000), wk =   0.1111111
        k(   14) = (   0.0558158  -0.1289011   0.0000000), wk =   0.1111111
        k(   15) = (   0.0558158  -0.0966758   0.0000000), wk =   0.1111111
        k(   16) = (   0.0558158  -0.0644506   0.0000000), wk =   0.1111111
        k(   17) = (  -0.0837237   0.0483379   0.0000000), wk =   0.0555556
        k(   18) = (  -0.0837237   0.0805632   0.0000000), wk =   0.1111111
        k(   19) = (  -0.0837237   0.1127885   0.0000000), wk =   0.1111111
        k(   20) = (  -0.0837237  -0.0483379   0.0000000), wk =   0.0555556

     Dense  grid:   617075 G-vectors     FFT dimensions: (  72,  72, 288)

     Smooth grid:   156145 G-vectors     FFT dimensions: (  45,  45, 192)

     Largest allocated arrays     est. size (Mb)     dimensions
        Kohn-Sham Wavefunctions         2.32 Mb     (    1673,   91)
        NL pseudopotentials             8.17 Mb     (    1673,  320)
        Each V/rho on FFT grid          1.90 Mb     (  124416)
        Each G-vector array             0.39 Mb     (   51431)
        G-vector shells                 0.14 Mb     (   18336)
     Largest temporary arrays     est. size (Mb)     dimensions
        Auxiliary wavefunctions         9.29 Mb     (    1673,  364)
        Each subspace H/S matrix        2.02 Mb     (     364,  364)
        Each <psi_i|beta_j> matrix      0.44 Mb     (     320,   91)
        Arrays for rho mixing          18.98 Mb     (  124416,   10)

     Initial potential from superposition of free atoms
     Check: negative starting charge=   -1.121399

     starting charge  162.98661, renormalised to  163.00000

     negative rho (up, down):  1.121E+00 0.000E+00


     ************************************************************************
     *
     * You are using vdW-DF for exchange-correlation in this calculation.
     * Please cite the following three references that made this development
     * possible:
     *
     *   M. Dion, H. Rydberg, E. Schroder, D. C. Langreth, and
     *   B. I. Lundqvist, Phys. Rev. Lett. 92, 246401 (2004).
     *
     *   T. Thonhauser, V. R. Cooper, S. Li, A. Puzder, P. Hyldgaard, and
     *   D. C. Langreth, Phys. Rev. B 76, 125112 (2007).
     *
     *   G. Roman-Perez and J. M. Soler, Phys. Rev. Lett. 103, 096102 (2009).
     *
     *
     * If you are using vdW-DF2, please also cite:
     *
     *   K. Lee, E. D. Murray, L. Kong, B. I. Lundqvist, and
     *   D. C. Langreth, Phys. Rev. B 82, 081101(R) (2010).
     *
     *
     * If you are calculating the stress with vdW-DF, please also cite:
     *
     *   R. Sabatini, E. Kucukbenli, B. Kolb, T. Thonhauser, and
     *   S. de Gironcoli, J. Phys.: Condens. Matter 24, 424209 (2012).
     *
     ************************************************************************

     Carrying out vdW-DF run using the following parameters:

     Nqs =      20    Nr_points =    1024   r_max =   100.000
     q_mesh =
               0.00001000     0.04494208     0.09755937     0.15916263
               0.23128650     0.31572767     0.41458969     0.53033537
               0.66584808     0.82450364     1.01025438     1.22772762
               1.48234092     1.78043706     2.12944203     2.53805004
               3.01644009     3.57652955     4.23227104     5.00000000

     Gradients computed in reciprocal space

     ************************************************************************


 
     Adding external electric field

     Computed dipole along edir(3) : 
        Dipole               -0.0044 Ry au,         -0.0112 Debye
        Dipole field         -0.0000 Ry au
 
        Potential amp.        0.0010 Ry
        Total length         45.8339 bohr
 
     Starting wfc are  161 randomized atomic wfcs

     total cpu time spent up to now is       10.9 secs

     Self-consistent Calculation

     iteration #  1     ecut=    36.75 Ry     beta=0.30
     Davidson diagonalization with overlap
     ethr =  1.00E-02,  avg # of iterations =  2.0

     negative rho (up, down):  1.136E+00 0.000E+00
 
     Adding external electric field

     Computed dipole along edir(3) : 
        Dipole               -0.5948 Ry au,         -1.5119 Debye
        Dipole field         -0.0014 Ry au
 
        Potential amp.        0.1322 Ry
        Total length         45.8339 bohr
 

     total cpu time spent up to now is       25.0 secs

     total energy              =   -1741.99377988 Ry
     Harris-Foulkes estimate   =   -1744.41017397 Ry
     estimated scf accuracy    <       5.17057523 Ry

     iteration #  2     ecut=    36.75 Ry     beta=0.30
     Davidson diagonalization with overlap
     ethr =  3.17E-03,  avg # of iterations =  6.3

     negative rho (up, down):  1.137E+00 0.000E+00
 
     Adding external electric field

     Computed dipole along edir(3) : 
        Dipole                2.7885 Ry au,          7.0876 Debye
        Dipole field          0.0068 Ry au
 
        Potential amp.       -0.6195 Ry
        Total length         45.8339 bohr
 

     total cpu time spent up to now is       43.9 secs

     total energy              =   -1738.87608251 Ry
     Harris-Foulkes estimate   =   -1748.75226781 Ry
     estimated scf accuracy    <     108.43685861 Ry

     iteration #  3     ecut=    36.75 Ry     beta=0.30
     Davidson diagonalization with overlap
     ethr =  3.17E-03,  avg # of iterations = 10.0

     negative rho (up, down):  1.138E+00 0.000E+00
 
     Adding external electric field

     Computed dipole along edir(3) : 
        Dipole                0.0976 Ry au,          0.2481 Debye
        Dipole field          0.0002 Ry au
 
        Potential amp.       -0.0217 Ry
        Total length         45.8339 bohr
 

     total cpu time spent up to now is       65.8 secs

     total energy              =   -1739.69452665 Ry
     Harris-Foulkes estimate   =   -1748.49227055 Ry
     estimated scf accuracy    <     300.87180767 Ry

     iteration #  4     ecut=    36.75 Ry     beta=0.30
     Davidson diagonalization with overlap
     ethr =  3.17E-03,  avg # of iterations =  7.0

     negative rho (up, down):  1.150E+00 0.000E+00
 
     Adding external electric field

     Computed dipole along edir(3) : 
        Dipole                0.2459 Ry au,          0.6251 Debye
        Dipole field          0.0006 Ry au
 
        Potential amp.       -0.0546 Ry
        Total length         45.8339 bohr
 

     total cpu time spent up to now is       84.9 secs

     total energy              =   -1743.97771590 Ry
     Harris-Foulkes estimate   =   -1744.03273560 Ry
     estimated scf accuracy    <       0.26409582 Ry

     iteration #  5     ecut=    36.75 Ry     beta=0.30
     Davidson diagonalization with overlap
     ethr =  1.62E-04,  avg # of iterations =  7.0

     negative rho (up, down):  1.156E+00 0.000E+00
 
     Adding external electric field

     Computed dipole along edir(3) : 
        Dipole                0.1547 Ry au,          0.3932 Debye
        Dipole field          0.0004 Ry au
 
        Potential amp.       -0.0344 Ry
        Total length         45.8339 bohr
 

     total cpu time spent up to now is      101.8 secs

     total energy              =   -1743.99667275 Ry
     Harris-Foulkes estimate   =   -1744.02784143 Ry
     estimated scf accuracy    <       0.84420785 Ry

     iteration #  6     ecut=    36.75 Ry     beta=0.30
     Davidson diagonalization with overlap
     ethr =  1.62E-04,  avg # of iterations =  2.4

     negative rho (up, down):  1.165E+00 0.000E+00
 
     Adding external electric field

     Computed dipole along edir(3) : 
        Dipole                0.2817 Ry au,          0.7161 Debye
        Dipole field          0.0007 Ry au
 
        Potential amp.       -0.0626 Ry
        Total length         45.8339 bohr
 

     total cpu time spent up to now is      115.5 secs

     total energy              =   -1744.01151070 Ry
     Harris-Foulkes estimate   =   -1744.01810104 Ry
     estimated scf accuracy    <       0.13959480 Ry

     iteration #  7     ecut=    36.75 Ry     beta=0.30
     Davidson diagonalization with overlap
     ethr =  8.56E-05,  avg # of iterations =  1.1

     negative rho (up, down):  1.171E+00 0.000E+00
 
     Adding external electric field

     Computed dipole along edir(3) : 
        Dipole                0.3283 Ry au,          0.8344 Debye
        Dipole field          0.0008 Ry au
 
        Potential amp.       -0.0729 Ry
        Total length         45.8339 bohr
 

     total cpu time spent up to now is      128.8 secs

     total energy              =   -1744.01107217 Ry
     Harris-Foulkes estimate   =   -1744.01416507 Ry
     estimated scf accuracy    <       0.08083612 Ry

     iteration #  8     ecut=    36.75 Ry     beta=0.30
     Davidson diagonalization with overlap
     ethr =  4.96E-05,  avg # of iterations =  1.4

     negative rho (up, down):  1.174E+00 0.000E+00
 
     Adding external electric field

     Computed dipole along edir(3) : 
        Dipole                0.3547 Ry au,          0.9015 Debye
        Dipole field          0.0009 Ry au
 
        Potential amp.       -0.0788 Ry
        Total length         45.8339 bohr
 

     total cpu time spent up to now is      142.9 secs

     total energy              =   -1744.01182034 Ry
     Harris-Foulkes estimate   =   -1744.01248670 Ry
     estimated scf accuracy    <       0.02329057 Ry

     iteration #  9     ecut=    36.75 Ry     beta=0.30
     Davidson diagonalization with overlap
     ethr =  1.43E-05,  avg # of iterations =  3.5

     negative rho (up, down):  1.175E+00 0.000E+00
 
     Adding external electric field

     Computed dipole along edir(3) : 
        Dipole                0.3651 Ry au,          0.9280 Debye
        Dipole field          0.0009 Ry au
 
        Potential amp.       -0.0811 Ry
        Total length         45.8339 bohr
 

     total cpu time spent up to now is      157.6 secs

     total energy              =   -1744.01250764 Ry
     Harris-Foulkes estimate   =   -1744.01250003 Ry
     estimated scf accuracy    <       0.00094333 Ry

     iteration # 10     ecut=    36.75 Ry     beta=0.30
     Davidson diagonalization with overlap
     ethr =  5.79E-07,  avg # of iterations =  7.0

     negative rho (up, down):  1.177E+00 0.000E+00
 
     Adding external electric field

     Computed dipole along edir(3) : 
        Dipole                0.3619 Ry au,          0.9200 Debye
        Dipole field          0.0009 Ry au
 
        Potential amp.       -0.0804 Ry
        Total length         45.8339 bohr
 

     total cpu time spent up to now is      176.7 secs

     total energy              =   -1744.01273631 Ry
     Harris-Foulkes estimate   =   -1744.01279477 Ry
     estimated scf accuracy    <       0.00062241 Ry

     iteration # 11     ecut=    36.75 Ry     beta=0.30
     Davidson diagonalization with overlap
     ethr =  3.82E-07,  avg # of iterations =  2.9

     negative rho (up, down):  1.177E+00 0.000E+00
 
     Adding external electric field

     Computed dipole along edir(3) : 
        Dipole                0.3595 Ry au,          0.9137 Debye
        Dipole field          0.0009 Ry au
 
        Potential amp.       -0.0799 Ry
        Total length         45.8339 bohr
 

     total cpu time spent up to now is      190.9 secs

     total energy              =   -1744.01277240 Ry
     Harris-Foulkes estimate   =   -1744.01278972 Ry
     estimated scf accuracy    <       0.00038822 Ry

     iteration # 12     ecut=    36.75 Ry     beta=0.30
     Davidson diagonalization with overlap
     ethr =  2.38E-07,  avg # of iterations =  1.1

     negative rho (up, down):  1.177E+00 0.000E+00
 
     Adding external electric field

     Computed dipole along edir(3) : 
        Dipole                0.3597 Ry au,          0.9142 Debye
        Dipole field          0.0009 Ry au
 
        Potential amp.       -0.0799 Ry
        Total length         45.8339 bohr
 

     total cpu time spent up to now is      204.5 secs

     total energy              =   -1744.01277886 Ry
     Harris-Foulkes estimate   =   -1744.01278441 Ry
     estimated scf accuracy    <       0.00002966 Ry

     iteration # 13     ecut=    36.75 Ry     beta=0.30
     Davidson diagonalization with overlap
     ethr =  1.82E-08,  avg # of iterations =  4.5

     negative rho (up, down):  1.177E+00 0.000E+00
 
     Adding external electric field

     Computed dipole along edir(3) : 
        Dipole                0.3614 Ry au,          0.9186 Debye
        Dipole field          0.0009 Ry au
 
        Potential amp.       -0.0803 Ry
        Total length         45.8339 bohr
 

     total cpu time spent up to now is      221.2 secs

     total energy              =   -1744.01278089 Ry
     Harris-Foulkes estimate   =   -1744.01278049 Ry
     estimated scf accuracy    <       0.00002825 Ry

     iteration # 14     ecut=    36.75 Ry     beta=0.30
     Davidson diagonalization with overlap
     ethr =  1.73E-08,  avg # of iterations =  3.3

     negative rho (up, down):  1.177E+00 0.000E+00

     negative rho (up, down):  1.177E+00 0.000E+00

     negative rho (up, down):  1.177E+00 0.000E+00

     negative rho (up, down):  1.177E+00 0.000E+00

     negative rho (up, down):  1.177E+00 0.000E+00

     negative rho (up, down):  1.177E+00 0.000E+00

     negative rho (up, down):  1.177E+00 0.000E+00

     negative rho (up, down):  1.177E+00 0.000E+00

     negative rho (up, down):  1.177E+00 0.000E+00

     negative rho (up, down):  1.177E+00 0.000E+00

     negative rho (up, down):  1.177E+00 0.000E+00

     negative rho (up, down):  1.177E+00 0.000E+00

     negative rho (up, down):  1.177E+00 0.000E+00

     negative rho (up, down):  1.177E+00 0.000E+00

     negative rho (up, down):  1.177E+00 0.000E+00

     negative rho (up, down):  1.177E+00 0.000E+00

     negative rho (up, down):  1.177E+00 0.000E+00

     negative rho (up, down):  1.177E+00 0.000E+00

     negative rho (up, down):  1.177E+00 0.000E+00

     negative rho (up, down):  1.177E+00 0.000E+00

     negative rho (up, down):  1.177E+00 0.000E+00

     negative rho (up, down):  1.177E+00 0.000E+00

     negative rho (up, down):  1.177E+00 0.000E+00

     negative rho (up, down):  1.177E+00 0.000E+00

     negative rho (up, down):  1.177E+00 0.000E+00

     negative rho (up, down):  1.177E+00 0.000E+00

     negative rho (up, down):  1.177E+00 0.000E+00

     negative rho (up, down):  1.177E+00 0.000E+00

     negative rho (up, down):  1.177E+00 0.000E+00

     negative rho (up, down):  1.177E+00 0.000E+00

     negative rho (up, down):  1.177E+00 0.000E+00

     negative rho (up, down):  1.177E+00 0.000E+00

     negative rho (up, down):  1.177E+00 0.000E+00

     negative rho (up, down):  1.177E+00 0.000E+00

     negative rho (up, down):  1.177E+00 0.000E+00
 
     Adding external electric field

     Computed dipole along edir(3) : 
        Dipole                0.3747 Ry au,          0.9525 Debye
        Dipole field          0.0009 Ry au
 
        Potential amp.       -0.0833 Ry
        Total length         45.8339 bohr
 

     total cpu time spent up to now is      268.4 secs

     End of self-consistent calculation

          k = 0.0000 0.0000 0.0000 ( 19447 PWs)   bands (ev):

   -65.7379 -65.6677 -65.6115 -65.6112 -65.6046 -65.5958 -65.5536 -65.5536
   -65.5501 -65.5097 -65.5096 -65.4713 -32.4048 -32.3957 -32.3957 -32.3585
   -32.3551 -32.3226 -32.3225 -32.3050 -32.3050 -32.2931 -32.1218 -32.0182
   -31.9817 -31.9816 -31.9307 -31.9188 -31.9187 -31.8049 -31.8049 -31.7860
   -31.7541 -31.7540 -31.7232 -31.7101 -31.7100 -31.7071 -31.6561 -31.6343
   -31.6343 -31.6244 -31.5878 -31.5878 -31.5620 -31.5620 -31.4835 -31.4835
   -12.6399  -6.0126  -4.5946  -2.9319  -2.3426  -2.3426  -2.0344  -1.4168
    -1.4168  -1.3422  -1.1860  -0.9960  -0.9960  -0.4999  -0.3818  -0.3818
    -0.1928  -0.1511  -0.1510   1.0189   1.0189   1.1094   1.9229   2.1287
     2.1287   2.2342   2.4760   2.5350   2.6751   2.6752   2.7724   3.0193
     3.0193   3.1285   3.2979   3.2979   3.3855   3.3855   3.3917   3.4574
     3.4574   3.6917   3.6917

          k = 0.0000 0.0322 0.0000 ( 19481 PWs)   bands (ev):

   -65.7371 -65.6638 -65.6144 -65.6112 -65.6056 -65.5938 -65.5563 -65.5536
   -65.5473 -65.5117 -65.5097 -65.4721 -32.3811 -32.3705 -32.3577 -32.3345
   -32.3290 -32.3001 -32.2922 -32.2798 -32.2730 -32.2545 -32.1203 -32.0337
   -32.0042 -31.9948 -31.9247 -31.9083 -31.9066 -31.8303 -31.8175 -31.7940
   -31.7930 -31.7710 -31.7309 -31.7043 -31.6979 -31.6943 -31.6780 -31.6582
   -31.6536 -31.6344 -31.6217 -31.6013 -31.5898 -31.5731 -31.5311 -31.4925
   -12.6358  -5.9513  -4.3920  -2.7771  -2.3066  -2.2831  -1.7855  -1.5000
    -1.2655  -1.2033  -1.0683  -0.8779  -0.8341  -0.3530  -0.2420  -0.1973
    -0.1079  -0.0026   0.0006   1.0200   1.0395   1.1526   1.8291   2.1366
     2.2246   2.2436   2.3779   2.4739   2.4863   2.5356   2.5761   2.6612
     3.0565   3.1776   3.1854   3.2261   3.2393   3.3179   3.3594   3.4079
     3.4549   3.5093   3.6737

          k = 0.0000 0.0645 0.0000 ( 19517 PWs)   bands (ev):

   -65.7356 -65.6533 -65.6243 -65.6112 -65.6063 -65.5886 -65.5632 -65.5536
   -65.5398 -65.5179 -65.5096 -65.4734 -32.3293 -32.3083 -32.2881 -32.2746
   -32.2487 -32.2452 -32.2234 -32.2176 -32.2043 -32.1372 -32.1147 -32.0603
   -32.0366 -32.0297 -31.9186 -31.8963 -31.8832 -31.8737 -31.8700 -31.8575
   -31.8484 -31.7951 -31.7602 -31.7525 -31.7336 -31.7307 -31.6992 -31.6864
   -31.6756 -31.6664 -31.6546 -31.6373 -31.6196 -31.6096 -31.5902 -31.5175
   -12.6276  -5.8337  -3.8204  -2.6126  -2.1701  -2.0879  -1.7863  -1.1310
    -0.9865  -0.9022  -0.7525  -0.5515  -0.4730  -0.1583   0.2046   0.2591
     0.2663   0.4495   0.5006   1.0422   1.0982   1.2421   1.4726   1.7146
     1.8546   1.8572   2.0048   2.1297   2.3606   2.4935   2.5287   2.5644
     2.6079   2.6152   2.7181   2.8158   2.9032   2.9841   3.0306   3.2836
     3.3460   3.3694   3.6782

          k = 0.0000-0.0967 0.0000 ( 19532 PWs)   bands (ev):

   -65.7348 -65.6403 -65.6372 -65.6113 -65.6065 -65.5844 -65.5681 -65.5537
   -65.5328 -65.5243 -65.5096 -65.4741 -32.2898 -32.2653 -32.2516 -32.2376
   -32.2273 -32.2228 -32.1689 -32.1630 -32.1515 -32.0972 -32.0860 -32.0640
   -32.0273 -31.9746 -31.9556 -31.9372 -31.9241 -31.9114 -31.8951 -31.8825
   -31.8431 -31.8420 -31.8090 -31.7949 -31.7871 -31.7692 -31.7138 -31.6848
   -31.6816 -31.6758 -31.6617 -31.6511 -31.6351 -31.6326 -31.5688 -31.5420
   -12.6236  -5.7773  -3.1649  -2.8939  -2.2773  -2.1170  -1.3822  -1.1520
    -0.6660  -0.6370  -0.4199  -0.3223  -0.2709  -0.1709   0.5471   0.6486
     0.8066   0.8139   0.8356   0.8837   1.2370   1.3406   1.3656   1.4202
     1.5037   1.5430   1.7855   1.8575   2.0240   2.0338   2.0933   2.1165
     2.2627   2.2820   2.4293   2.7523   2.8363   2.9063   2.9196   3.1134
     3.1593   3.5479   3.8752

          k = 0.0279-0.0161 0.0000 ( 19481 PWs)   bands (ev):

   -65.7371 -65.6638 -65.6143 -65.6115 -65.6055 -65.5938 -65.5564 -65.5536
   -65.5473 -65.5118 -65.5096 -65.4721 -32.3811 -32.3705 -32.3577 -32.3345
   -32.3290 -32.3001 -32.2922 -32.2797 -32.2731 -32.2545 -32.1203 -32.0338
   -32.0041 -31.9949 -31.9247 -31.9083 -31.9066 -31.8303 -31.8175 -31.7940
   -31.7930 -31.7710 -31.7309 -31.7043 -31.6979 -31.6943 -31.6780 -31.6582
   -31.6536 -31.6344 -31.6217 -31.6013 -31.5898 -31.5731 -31.5311 -31.4925
   -12.6358  -5.9513  -4.3920  -2.7771  -2.3066  -2.2831  -1.7855  -1.5000
    -1.2655  -1.2033  -1.0683  -0.8779  -0.8341  -0.3530  -0.2420  -0.1973
    -0.1079  -0.0026   0.0006   1.0200   1.0395   1.1526   1.8291   2.1366
     2.2246   2.2436   2.3779   2.4739   2.4863   2.5356   2.5761   2.6612
     3.0565   3.1776   3.1854   3.2261   3.2393   3.3179   3.3594   3.4079
     3.4549   3.5093   3.6737

          k = 0.0279 0.0161 0.0000 ( 19481 PWs)   bands (ev):

   -65.7371 -65.6638 -65.6144 -65.6113 -65.6056 -65.5938 -65.5564 -65.5536
   -65.5473 -65.5118 -65.5096 -65.4721 -32.3811 -32.3705 -32.3577 -32.3345
   -32.3290 -32.3001 -32.2922 -32.2798 -32.2730 -32.2545 -32.1203 -32.0337
   -32.0041 -31.9948 -31.9247 -31.9083 -31.9066 -31.8303 -31.8175 -31.7940
   -31.7930 -31.7710 -31.7309 -31.7043 -31.6979 -31.6943 -31.6780 -31.6582
   -31.6536 -31.6344 -31.6217 -31.6013 -31.5898 -31.5731 -31.5311 -31.4925
   -12.6358  -5.9513  -4.3920  -2.7771  -2.3066  -2.2831  -1.7855  -1.5000
    -1.2655  -1.2033  -1.0683  -0.8779  -0.8341  -0.3530  -0.2420  -0.1973
    -0.1079  -0.0026   0.0006   1.0200   1.0395   1.1526   1.8291   2.1366
     2.2246   2.2436   2.3779   2.4739   2.4863   2.5356   2.5761   2.6612
     3.0565   3.1776   3.1854   3.2261   3.2393   3.3179   3.3594   3.4079
     3.4549   3.5093   3.6737

          k = 0.0279 0.0483 0.0000 ( 19485 PWs)   bands (ev):

   -65.7359 -65.6566 -65.6187 -65.6151 -65.6047 -65.5901 -65.5613 -65.5536
   -65.5421 -65.5155 -65.5102 -65.4731 -32.3464 -32.3248 -32.2930 -32.2909
   -32.2790 -32.2560 -32.2464 -32.2424 -32.1971 -32.1936 -32.1189 -32.0566
   -32.0351 -32.0129 -31.9143 -31.9104 -31.8978 -31.8795 -31.8786 -31.7998
   -31.7878 -31.7720 -31.7600 -31.7461 -31.7353 -31.7147 -31.6945 -31.6794
   -31.6758 -31.6440 -31.6354 -31.6299 -31.6268 -31.6053 -31.5807 -31.5160
   -12.6297  -5.8627  -4.0012  -2.5956  -2.2551  -2.0763  -1.5574  -1.4960
    -1.2489  -0.9027  -0.7910  -0.6539  -0.5194  -0.0864  -0.0536   0.1304
     0.1452   0.2650   0.3595   1.0264   1.0809   1.1964   1.6240   1.8796
     1.9659   2.0409   2.0962   2.2045   2.4301   2.4409   2.5763   2.5826
     2.7261   2.7417   2.8670   2.9101   3.0321   3.0753   3.1665   3.2436
     3.4882   3.5383   3.6268

          k = 0.0279-0.1128 0.0000 ( 19521 PWs)   bands (ev):

   -65.7348 -65.6442 -65.6296 -65.6183 -65.6031 -65.5840 -65.5687 -65.5535
   -65.5339 -65.5220 -65.5110 -65.4739 -32.2943 -32.2625 -32.2439 -32.2309
   -32.2185 -32.2027 -32.1785 -32.1648 -32.1366 -32.1098 -32.0872 -32.0702
   -32.0516 -32.0314 -31.9842 -31.9670 -31.9135 -31.8887 -31.8730 -31.8657
   -31.8479 -31.8185 -31.8076 -31.7781 -31.7592 -31.7337 -31.7155 -31.7028
   -31.6934 -31.6791 -31.6571 -31.6488 -31.6333 -31.6232 -31.5988 -31.5528
   -12.6236  -5.7781  -3.3129  -2.5984  -2.2504  -2.0629  -1.5098  -1.3320
    -0.8938  -0.5503  -0.4696  -0.2063  -0.0814   0.0568   0.4563   0.5972
     0.6307   0.6704   0.7700   1.0807   1.1680   1.1988   1.2571   1.4418
     1.5634   1.5995   1.7139   1.7896   1.9492   1.9930   2.1552   2.1945
     2.3148   2.3645   2.5438   2.6370   2.7487   2.8637   3.0538   3.1332
     3.4250   3.4546   3.7935

          k = 0.0279-0.0806 0.0000 ( 19521 PWs)   bands (ev):

   -65.7348 -65.6442 -65.6296 -65.6183 -65.6031 -65.5840 -65.5687 -65.5535
   -65.5339 -65.5220 -65.5110 -65.4739 -32.2943 -32.2625 -32.2439 -32.2309
   -32.2185 -32.2027 -32.1785 -32.1648 -32.1366 -32.1098 -32.0872 -32.0703
   -32.0516 -32.0314 -31.9842 -31.9670 -31.9135 -31.8887 -31.8730 -31.8657
   -31.8480 -31.8185 -31.8076 -31.7781 -31.7592 -31.7337 -31.7155 -31.7028
   -31.6934 -31.6791 -31.6571 -31.6488 -31.6333 -31.6232 -31.5988 -31.5528
   -12.6236  -5.7781  -3.3129  -2.5984  -2.2504  -2.0629  -1.5098  -1.3320
    -0.8938  -0.5503  -0.4696  -0.2063  -0.0814   0.0568   0.4563   0.5973
     0.6307   0.6704   0.7700   1.0807   1.1681   1.1988   1.2571   1.4418
     1.5634   1.5995   1.7139   1.7896   1.9492   1.9930   2.1552   2.1945
     2.3148   2.3645   2.5438   2.6370   2.7487   2.8637   3.0538   3.1332
     3.4250   3.4546   3.7934

          k = 0.0279-0.0483 0.0000 ( 19485 PWs)   bands (ev):

   -65.7359 -65.6566 -65.6186 -65.6153 -65.6046 -65.5901 -65.5613 -65.5536
   -65.5421 -65.5155 -65.5102 -65.4731 -32.3464 -32.3248 -32.2930 -32.2909
   -32.2790 -32.2560 -32.2464 -32.2424 -32.1971 -32.1936 -32.1189 -32.0567
   -32.0351 -32.0129 -31.9143 -31.9104 -31.8978 -31.8795 -31.8787 -31.7998
   -31.7878 -31.7720 -31.7600 -31.7461 -31.7353 -31.7147 -31.6945 -31.6794
   -31.6758 -31.6440 -31.6354 -31.6299 -31.6268 -31.6053 -31.5807 -31.5160
   -12.6297  -5.8627  -4.0012  -2.5956  -2.2551  -2.0763  -1.5574  -1.4960
    -1.2489  -0.9027  -0.7910  -0.6539  -0.5194  -0.0864  -0.0536   0.1304
     0.1452   0.2650   0.3595   1.0265   1.0809   1.1964   1.6240   1.8796
     1.9659   2.0409   2.0962   2.2045   2.4301   2.4409   2.5763   2.5827
     2.7261   2.7417   2.8670   2.9101   3.0321   3.0753   3.1665   3.2436
     3.4882   3.5383   3.6268

          k = 0.0558-0.0322 0.0000 ( 19517 PWs)   bands (ev):

   -65.7356 -65.6533 -65.6242 -65.6115 -65.6062 -65.5886 -65.5632 -65.5536
   -65.5398 -65.5180 -65.5096 -65.4734 -32.3293 -32.3083 -32.2881 -32.2745
   -32.2488 -32.2452 -32.2234 -32.2175 -32.2044 -32.1372 -32.1147 -32.0603
   -32.0366 -32.0298 -31.9186 -31.8964 -31.8832 -31.8737 -31.8701 -31.8574
   -31.8484 -31.7951 -31.7602 -31.7525 -31.7336 -31.7307 -31.6992 -31.6864
   -31.6756 -31.6663 -31.6546 -31.6373 -31.6196 -31.6097 -31.5901 -31.5175
   -12.6276  -5.8337  -3.8204  -2.6126  -2.1701  -2.0879  -1.7863  -1.1310
    -0.9865  -0.9022  -0.7525  -0.5515  -0.4730  -0.1583   0.2046   0.2591
     0.2663   0.4495   0.5006   1.0423   1.0982   1.2421   1.4726   1.7146
     1.8546   1.8572   2.0048   2.1297   2.3606   2.4936   2.5287   2.5644
     2.6079   2.6152   2.7181   2.8158   2.9032   2.9841   3.0306   3.2836
     3.3460   3.3694   3.6781

          k = 0.0558 0.0000 0.0000 ( 19485 PWs)   bands (ev):

   -65.7359 -65.6566 -65.6185 -65.6154 -65.6046 -65.5901 -65.5614 -65.5536
   -65.5421 -65.5155 -65.5101 -65.4731 -32.3464 -32.3248 -32.2930 -32.2909
   -32.2790 -32.2560 -32.2463 -32.2424 -32.1971 -32.1936 -32.1189 -32.0567
   -32.0350 -32.0129 -31.9143 -31.9104 -31.8978 -31.8795 -31.8787 -31.7998
   -31.7878 -31.7720 -31.7600 -31.7461 -31.7353 -31.7147 -31.6945 -31.6794
   -31.6758 -31.6440 -31.6353 -31.6299 -31.6268 -31.6053 -31.5807 -31.5160
   -12.6297  -5.8627  -4.0012  -2.5956  -2.2551  -2.0763  -1.5574  -1.4960
    -1.2489  -0.9027  -0.7910  -0.6539  -0.5194  -0.0864  -0.0536   0.1304
     0.1452   0.2650   0.3595   1.0265   1.0809   1.1964   1.6240   1.8796
     1.9659   2.0409   2.0962   2.2045   2.4301   2.4409   2.5763   2.5827
     2.7261   2.7417   2.8671   2.9101   3.0321   3.0753   3.1665   3.2436
     3.4882   3.5383   3.6268

          k = 0.0558 0.0322 0.0000 ( 19517 PWs)   bands (ev):

   -65.7356 -65.6533 -65.6243 -65.6113 -65.6063 -65.5886 -65.5632 -65.5536
   -65.5398 -65.5180 -65.5096 -65.4734 -32.3293 -32.3083 -32.2881 -32.2745
   -32.2488 -32.2452 -32.2234 -32.2176 -32.2043 -32.1372 -32.1147 -32.0603
   -32.0366 -32.0297 -31.9186 -31.8964 -31.8832 -31.8737 -31.8700 -31.8575
   -31.8484 -31.7951 -31.7602 -31.7525 -31.7336 -31.7307 -31.6992 -31.6864
   -31.6756 -31.6664 -31.6546 -31.6373 -31.6196 -31.6097 -31.5902 -31.5175
   -12.6276  -5.8337  -3.8204  -2.6126  -2.1701  -2.0879  -1.7863  -1.1310
    -0.9865  -0.9022  -0.7525  -0.5515  -0.4731  -0.1583   0.2046   0.2591
     0.2663   0.4495   0.5006   1.0422   1.0982   1.2421   1.4726   1.7146
     1.8546   1.8572   2.0048   2.1297   2.3606   2.4936   2.5287   2.5644
     2.6079   2.6152   2.7181   2.8158   2.9032   2.9841   3.0306   3.2836
     3.3460   3.3694   3.6781

          k = 0.0558-0.1289 0.0000 ( 19521 PWs)   bands (ev):

   -65.7348 -65.6442 -65.6296 -65.6183 -65.6031 -65.5840 -65.5688 -65.5535
   -65.5339 -65.5221 -65.5110 -65.4739 -32.2943 -32.2625 -32.2439 -32.2309
   -32.2185 -32.2027 -32.1785 -32.1648 -32.1366 -32.1098 -32.0872 -32.0702
   -32.0517 -32.0314 -31.9842 -31.9670 -31.9135 -31.8887 -31.8730 -31.8657
   -31.8479 -31.8185 -31.8076 -31.7781 -31.7593 -31.7337 -31.7155 -31.7028
   -31.6934 -31.6791 -31.6571 -31.6488 -31.6333 -31.6232 -31.5988 -31.5528
   -12.6236  -5.7781  -3.3129  -2.5984  -2.2504  -2.0629  -1.5098  -1.3320
    -0.8938  -0.5503  -0.4696  -0.2063  -0.0814   0.0568   0.4563   0.5972
     0.6307   0.6704   0.7700   1.0807   1.1680   1.1988   1.2571   1.4418
     1.5634   1.5995   1.7139   1.7896   1.9492   1.9930   2.1552   2.1945
     2.3148   2.3645   2.5438   2.6370   2.7487   2.8637   3.0538   3.1332
     3.4249   3.4546   3.7935

          k = 0.0558-0.0967 0.0000 ( 19521 PWs)   bands (ev):

   -65.7344 -65.6334 -65.6329 -65.6276 -65.6013 -65.5780 -65.5754 -65.5532
   -65.5279 -65.5261 -65.5127 -65.4741 -32.2684 -32.2268 -32.2199 -32.1927
   -32.1836 -32.1783 -32.1484 -32.1393 -32.1328 -32.0982 -32.0821 -32.0520
   -32.0507 -32.0146 -32.0043 -31.9920 -31.9906 -31.9781 -31.8866 -31.8554
   -31.8451 -31.8431 -31.8267 -31.7453 -31.7411 -31.7404 -31.7142 -31.7073
   -31.6965 -31.6897 -31.6598 -31.6592 -31.6549 -31.6116 -31.6101 -31.6003
   -12.6216  -5.7513  -2.7994  -2.5889  -2.3430  -2.0764  -1.8954  -0.9172
    -0.8443  -0.7060   0.2126   0.2476   0.2632   0.3314   0.3504   0.3582
     0.8832   0.9063   0.9482   0.9939   1.0503   1.1253   1.1298   1.1436
     1.2117   1.3633   1.5408   1.6767   1.8354   1.8761   1.9620   2.0037
     2.0488   2.1262   2.4123   2.4779   2.7085   2.7156   3.3393   3.4249
     3.5103   3.6154   3.6885

          k = 0.0558-0.0645 0.0000 ( 19521 PWs)   bands (ev):

   -65.7348 -65.6442 -65.6295 -65.6184 -65.6031 -65.5840 -65.5688 -65.5534
   -65.5339 -65.5221 -65.5110 -65.4739 -32.2943 -32.2625 -32.2439 -32.2309
   -32.2185 -32.2027 -32.1785 -32.1648 -32.1366 -32.1098 -32.0872 -32.0703
   -32.0516 -32.0314 -31.9842 -31.9670 -31.9135 -31.8887 -31.8730 -31.8657
   -31.8479 -31.8185 -31.8076 -31.7781 -31.7593 -31.7337 -31.7155 -31.7028
   -31.6934 -31.6791 -31.6571 -31.6488 -31.6333 -31.6232 -31.5988 -31.5528
   -12.6236  -5.7781  -3.3129  -2.5984  -2.2504  -2.0629  -1.5098  -1.3320
    -0.8938  -0.5503  -0.4696  -0.2063  -0.0814   0.0568   0.4563   0.5972
     0.6307   0.6704   0.7701   1.0807   1.1680   1.1988   1.2571   1.4418
     1.5634   1.5996   1.7139   1.7896   1.9492   1.9930   2.1552   2.1945
     2.3148   2.3646   2.5438   2.6370   2.7487   2.8637   3.0538   3.1332
     3.4249   3.4546   3.7935

          k =-0.0837 0.0483 0.0000 ( 19532 PWs)   bands (ev):

   -65.7348 -65.6405 -65.6369 -65.6115 -65.6064 -65.5844 -65.5682 -65.5536
   -65.5328 -65.5244 -65.5096 -65.4741 -32.2898 -32.2653 -32.2516 -32.2376
   -32.2273 -32.2228 -32.1688 -32.1630 -32.1516 -32.0972 -32.0861 -32.0640
   -32.0273 -31.9746 -31.9556 -31.9372 -31.9239 -31.9115 -31.8950 -31.8826
   -31.8431 -31.8421 -31.8091 -31.7948 -31.7870 -31.7692 -31.7138 -31.6849
   -31.6816 -31.6757 -31.6617 -31.6511 -31.6351 -31.6326 -31.5687 -31.5420
   -12.6236  -5.7773  -3.1649  -2.8939  -2.2773  -2.1170  -1.3821  -1.1520
    -0.6660  -0.6370  -0.4199  -0.3223  -0.2710  -0.1709   0.5471   0.6486
     0.8066   0.8139   0.8356   0.8837   1.2370   1.3405   1.3656   1.4202
     1.5038   1.5430   1.7855   1.8575   2.0240   2.0338   2.0933   2.1165
     2.2627   2.2821   2.4293   2.7523   2.8363   2.9063   2.9197   3.1134
     3.1594   3.5479   3.8752

          k =-0.0837 0.0806 0.0000 ( 19521 PWs)   bands (ev):

   -65.7348 -65.6442 -65.6295 -65.6184 -65.6031 -65.5840 -65.5688 -65.5534
   -65.5338 -65.5221 -65.5110 -65.4739 -32.2943 -32.2625 -32.2439 -32.2309
   -32.2185 -32.2027 -32.1785 -32.1648 -32.1366 -32.1098 -32.0872 -32.0703
   -32.0516 -32.0314 -31.9842 -31.9670 -31.9134 -31.8887 -31.8730 -31.8657
   -31.8479 -31.8185 -31.8076 -31.7781 -31.7592 -31.7337 -31.7155 -31.7028
   -31.6934 -31.6791 -31.6571 -31.6488 -31.6333 -31.6232 -31.5988 -31.5528
   -12.6236  -5.7781  -3.3129  -2.5984  -2.2504  -2.0629  -1.5098  -1.3320
    -0.8938  -0.5503  -0.4696  -0.2063  -0.0814   0.0568   0.4563   0.5972
     0.6307   0.6704   0.7700   1.0807   1.1680   1.1988   1.2571   1.4418
     1.5634   1.5996   1.7139   1.7896   1.9492   1.9929   2.1552   2.1945
     2.3148   2.3646   2.5438   2.6370   2.7487   2.8637   3.0538   3.1332
     3.4249   3.4546   3.7934

          k =-0.0837 0.1128 0.0000 ( 19521 PWs)   bands (ev):

   -65.7348 -65.6442 -65.6295 -65.6184 -65.6031 -65.5840 -65.5688 -65.5534
   -65.5338 -65.5221 -65.5110 -65.4739 -32.2943 -32.2625 -32.2439 -32.2309
   -32.2185 -32.2027 -32.1785 -32.1648 -32.1366 -32.1098 -32.0872 -32.0703
   -32.0516 -32.0314 -31.9842 -31.9670 -31.9135 -31.8887 -31.8730 -31.8657
   -31.8480 -31.8185 -31.8076 -31.7781 -31.7592 -31.7337 -31.7155 -31.7028
   -31.6934 -31.6791 -31.6571 -31.6488 -31.6333 -31.6232 -31.5988 -31.5528
   -12.6236  -5.7781  -3.3129  -2.5984  -2.2504  -2.0629  -1.5098  -1.3320
    -0.8938  -0.5503  -0.4696  -0.2063  -0.0814   0.0568   0.4563   0.5972
     0.6307   0.6704   0.7700   1.0807   1.1681   1.1988   1.2571   1.4418
     1.5634   1.5995   1.7139   1.7896   1.9492   1.9929   2.1552   2.1945
     2.3148   2.3646   2.5438   2.6370   2.7487   2.8637   3.0538   3.1332
     3.4249   3.4546   3.7935

          k =-0.0837-0.0483 0.0000 ( 19532 PWs)   bands (ev):

   -65.7348 -65.6404 -65.6371 -65.6113 -65.6065 -65.5844 -65.5682 -65.5536
   -65.5328 -65.5244 -65.5096 -65.4741 -32.2898 -32.2653 -32.2516 -32.2376
   -32.2273 -32.2228 -32.1689 -32.1630 -32.1515 -32.0972 -32.0861 -32.0640
   -32.0273 -31.9746 -31.9556 -31.9372 -31.9240 -31.9114 -31.8951 -31.8825
   -31.8431 -31.8421 -31.8091 -31.7949 -31.7870 -31.7692 -31.7138 -31.6848
   -31.6816 -31.6757 -31.6617 -31.6511 -31.6351 -31.6326 -31.5687 -31.5420
   -12.6236  -5.7773  -3.1649  -2.8939  -2.2773  -2.1170  -1.3822  -1.1520
    -0.6660  -0.6370  -0.4199  -0.3223  -0.2710  -0.1709   0.5471   0.6486
     0.8066   0.8139   0.8356   0.8837   1.2370   1.3406   1.3656   1.4202
     1.5037   1.5430   1.7855   1.8575   2.0240   2.0338   2.0933   2.1165
     2.2627   2.2820   2.4293   2.7523   2.8363   2.9063   2.9196   3.1134
     3.1593   3.5479   3.8752

     the Fermi energy is     2.6523 ev

!    total energy              =   -1744.01277962 Ry
     Harris-Foulkes estimate   =   -1744.01276033 Ry
     estimated scf accuracy    <       0.00000845 Ry

     The total energy is the sum of the following terms:

     one-electron contribution =  -11737.76529709 Ry
     hartree contribution      =    5856.43940083 Ry
     xc contribution           =    -532.51919670 Ry
     ewald contribution        =    4669.93882028 Ry
     electric field correction =       0.00034032 Ry
     smearing contrib. (-TS)   =      -0.10684726 Ry

     convergence has been achieved in  14 iterations
 
 BEEF-vdW xc energy contributions
           1 :   -468.568515175674     
           2 :    432.273205137693     
           3 :   -368.928466692665     
           4 :    293.192379974136     
           5 :   -219.774215829291     
           6 :    158.947478836630     
           7 :   -114.475351382399     
           8 :    84.3738669557482     
           9 :   -63.6568336129929     
          10 :    47.4578709036277     
          11 :   -33.0534676726806     
          12 :    20.1461870202411     
          13 :   -9.77800032199406     
          14 :    2.85199029976445     
          15 :   0.803999244386432     
          16 :   -2.42818601779271     
          17 :    3.58781344607934     
          18 :   -5.30224406852790     
          19 :    7.58900514257715     
          20 :   -9.65867176783405     
          21 :    10.5715037695399     
          22 :   -9.91635855982025     
          23 :    8.10242265120183     
          24 :   -6.12186479530777     
          25 :    4.96857506968871     
          26 :   -5.08690954344314     
          27 :    6.17426636130131     
          28 :   -7.42384073686543     
          29 :    8.02817722850097     
          30 :   -7.62864103032979     
          31 :   -42.0860694774914     
          32 :   -31.2065345540940     

     Forces acting on atoms (Ry/au):


     negative rho (up, down):  1.177E+00 0.000E+00
     atom    1 type  1   force =     0.00000255    0.00000930    0.00113132
     atom    2 type  1   force =    -0.00000629    0.00171254    0.00228839
     atom    3 type  1   force =     0.00148030   -0.00085855    0.00229671
     atom    4 type  1   force =    -0.00148310   -0.00086240    0.00228912
     atom    5 type  1   force =     0.00161888   -0.00094614   -0.00408320
     atom    6 type  1   force =    -0.00162221   -0.00095564   -0.00407443
     atom    7 type  1   force =    -0.00000635    0.00001766   -0.00953522
     atom    8 type  1   force =     0.00001129    0.00188717   -0.00406424
     atom    9 type  1   force =    -0.03783409   -0.02184024    0.01858289
     atom   10 type  1   force =     0.03783721   -0.02183933    0.01858176
     atom   11 type  1   force =     0.00000129    0.04368037    0.01857809
     atom   12 type  1   force =    -0.00000008   -0.00000465   -0.03709450
     atom   13 type  2   force =     0.00000010    0.00000041   -0.14404759
     atom   14 type  3   force =     0.00000050   -0.00000050    0.13915090

     Total force =     0.219658     Total SCF correction =     0.003599


     entering subroutine stress ...


     negative rho (up, down):  1.177E+00 0.000E+00
          total   stress  (Ry/bohr**3)                   (kbar)     P=  -22.99
  -0.00024109  -0.00000000   0.00000000        -35.47     -0.00      0.00
  -0.00000000  -0.00024109   0.00000000         -0.00    -35.46      0.00
   0.00000000   0.00000000   0.00001325          0.00      0.00      1.95


     BFGS Geometry Optimization

     number of scf cycles    =   1
     number of bfgs steps    =   0

     energy   new            =   -1744.0127796196 Ry

     new trust radius        =       0.1440475893 bohr
     new conv_thr            =       0.0000099958 Ry


ATOMIC_POSITIONS (crystal)
Ta1      0.166666667   0.166666667   0.401991699    0   0   0
Ta1      0.666666667   0.166666667   0.401991699    0   0   0
Ta1      0.166666667   0.666666667   0.401991699    0   0   0
Ta1      0.666666667   0.666666667   0.401991699    0   0   0
Ta1      0.833333333   0.333333333   0.500000000    0   0   0
Ta1      0.333333333   0.333333333   0.500000000    0   0   0
Ta1      0.833333333   0.833333333   0.500000000    0   0   0
Ta1      0.333333333   0.833333333   0.500000000    0   0   0
Ta1     -0.002235139  -0.002234635   0.598403606
Ta1      0.504470002  -0.002234541   0.598403582
Ta1     -0.002234515   0.504469258   0.598403503
Ta1      0.500000230   0.499999524   0.597219209
S1       0.166666655   0.166666709   0.666800067
H1       0.166666736   0.166666615   0.723073365



     Writing output data file calc.save
     Check: negative starting charge=   -1.121399
     NEW-OLD atomic charge density approx. for the potential
     Check: negative starting charge=   -1.123578

     negative rho (up, down):  1.179E+00 0.000E+00
 
     Adding external electric field

     Computed dipole along edir(3) : 
        Dipole                0.3747 Ry au,          0.9525 Debye
        Dipole field          0.0009 Ry au
 
        Potential amp.       -0.0833 Ry
        Total length         45.8339 bohr
 

     total cpu time spent up to now is      319.5 secs

     Self-consistent Calculation

     iteration #  1     ecut=    36.75 Ry     beta=0.30
     Davidson diagonalization with overlap
     ethr =  1.00E-06,  avg # of iterations = 10.2

     negative rho (up, down):  1.179E+00 0.000E+00
 
     Adding external electric field

     Computed dipole along edir(3) : 
        Dipole               -0.4135 Ry au,         -1.0511 Debye
        Dipole field         -0.0010 Ry au
 
        Potential amp.        0.0919 Ry
        Total length         45.8339 bohr
 

     total cpu time spent up to now is      345.2 secs

     total energy              =   -1744.00085262 Ry
     Harris-Foulkes estimate   =   -1744.03704517 Ry
     estimated scf accuracy    <       0.07468914 Ry

     iteration #  2     ecut=    36.75 Ry     beta=0.30
     Davidson diagonalization with overlap
     ethr =  4.58E-05,  avg # of iterations =  8.3

     negative rho (up, down):  1.179E+00 0.000E+00
 
     Adding external electric field

     Computed dipole along edir(3) : 
        Dipole                0.3657 Ry au,          0.9295 Debye
        Dipole field          0.0009 Ry au
 
        Potential amp.       -0.0812 Ry
        Total length         45.8339 bohr
 

     total cpu time spent up to now is      366.9 secs

     total energy              =   -1743.59487125 Ry
     Harris-Foulkes estimate   =   -1744.54224821 Ry
     estimated scf accuracy    <      41.53338812 Ry

     iteration #  3     ecut=    36.75 Ry     beta=0.30
     Davidson diagonalization with overlap
     ethr =  4.58E-05,  avg # of iterations =  6.5

     negative rho (up, down):  1.180E+00 0.000E+00
 
     Adding external electric field

     Computed dipole along edir(3) : 
        Dipole                0.3353 Ry au,          0.8523 Debye
        Dipole field          0.0008 Ry au
 
        Potential amp.       -0.0745 Ry
        Total length         45.8339 bohr
 

     total cpu time spent up to now is      385.9 secs

     total energy              =   -1744.03354973 Ry
     Harris-Foulkes estimate   =   -1744.03514491 Ry
     estimated scf accuracy    <       0.00632830 Ry

     iteration #  4     ecut=    36.75 Ry     beta=0.30
     Davidson diagonalization with overlap
     ethr =  3.88E-06,  avg # of iterations =  5.5

     negative rho (up, down):  1.180E+00 0.000E+00
 
     Adding external electric field

     Computed dipole along edir(3) : 
        Dipole                0.3214 Ry au,          0.8169 Debye
        Dipole field          0.0008 Ry au
 
        Potential amp.       -0.0714 Ry
        Total length         45.8339 bohr
 

     total cpu time spent up to now is      403.8 secs

     total energy              =   -1744.03346298 Ry
     Harris-Foulkes estimate   =   -1744.03542080 Ry
     estimated scf accuracy    <       0.01633177 Ry

     iteration #  5     ecut=    36.75 Ry     beta=0.30
     Davidson diagonalization with overlap
     ethr =  3.88E-06,  avg # of iterations =  3.9

     negative rho (up, down):  1.180E+00 0.000E+00
 
     Adding external electric field

     Computed dipole along edir(3) : 
        Dipole                0.3177 Ry au,          0.8074 Debye
        Dipole field          0.0008 Ry au
 
        Potential amp.       -0.0706 Ry
        Total length         45.8339 bohr
 

     total cpu time spent up to now is      419.5 secs

     total energy              =   -1744.03430379 Ry
     Harris-Foulkes estimate   =   -1744.03475588 Ry
     estimated scf accuracy    <       0.00362502 Ry

     iteration #  6     ecut=    36.75 Ry     beta=0.30
     Davidson diagonalization with overlap
     ethr =  2.22E-06,  avg # of iterations =  2.6

     negative rho (up, down):  1.180E+00 0.000E+00
 
     Adding external electric field

     Computed dipole along edir(3) : 
        Dipole                0.3162 Ry au,          0.8038 Debye
        Dipole field          0.0008 Ry au
 
        Potential amp.       -0.0703 Ry
        Total length         45.8339 bohr
 

     total cpu time spent up to now is      433.2 secs

     total energy              =   -1744.03453719 Ry
     Harris-Foulkes estimate   =   -1744.03456257 Ry
     estimated scf accuracy    <       0.00036885 Ry

     iteration #  7     ecut=    36.75 Ry     beta=0.30
     Davidson diagonalization with overlap
     ethr =  2.26E-07,  avg # of iterations =  3.6

     negative rho (up, down):  1.180E+00 0.000E+00
 
     Adding external electric field

     Computed dipole along edir(3) : 
        Dipole                0.3083 Ry au,          0.7836 Debye
        Dipole field          0.0007 Ry au
 
        Potential amp.       -0.0685 Ry
        Total length         45.8339 bohr
 

     total cpu time spent up to now is      450.2 secs

     total energy              =   -1744.03459041 Ry
     Harris-Foulkes estimate   =   -1744.03460718 Ry
     estimated scf accuracy    <       0.00014162 Ry

     iteration #  8     ecut=    36.75 Ry     beta=0.30
     Davidson diagonalization with overlap
     ethr =  8.69E-08,  avg # of iterations =  2.9

     negative rho (up, down):  1.180E+00 0.000E+00
 
     Adding external electric field

     Computed dipole along edir(3) : 
        Dipole                0.3094 Ry au,          0.7864 Debye
        Dipole field          0.0007 Ry au
 
        Potential amp.       -0.0687 Ry
        Total length         45.8339 bohr
 

     total cpu time spent up to now is      464.9 secs

     total energy              =   -1744.03460010 Ry
     Harris-Foulkes estimate   =   -1744.03459798 Ry
     estimated scf accuracy    <       0.00002557 Ry

     iteration #  9     ecut=    36.75 Ry     beta=0.30
     Davidson diagonalization with overlap
     ethr =  1.57E-08,  avg # of iterations =  4.5

     negative rho (up, down):  1.180E+00 0.000E+00
 
     Adding external electric field

     Computed dipole along edir(3) : 
        Dipole                0.3101 Ry au,          0.7882 Debye
        Dipole field          0.0008 Ry au
 
        Potential amp.       -0.0689 Ry
        Total length         45.8339 bohr
 

     total cpu time spent up to now is      481.9 secs

     total energy              =   -1744.03460066 Ry
     Harris-Foulkes estimate   =   -1744.03460352 Ry
     estimated scf accuracy    <       0.00001508 Ry

     iteration # 10     ecut=    36.75 Ry     beta=0.30
     Davidson diagonalization with overlap
     ethr =  9.25E-09,  avg # of iterations =  2.2

     negative rho (up, down):  1.180E+00 0.000E+00

     negative rho (up, down):  1.180E+00 0.000E+00

     negative rho (up, down):  1.180E+00 0.000E+00

     negative rho (up, down):  1.180E+00 0.000E+00

     negative rho (up, down):  1.180E+00 0.000E+00

     negative rho (up, down):  1.180E+00 0.000E+00

     negative rho (up, down):  1.180E+00 0.000E+00

     negative rho (up, down):  1.180E+00 0.000E+00

     negative rho (up, down):  1.180E+00 0.000E+00

     negative rho (up, down):  1.180E+00 0.000E+00

     negative rho (up, down):  1.180E+00 0.000E+00

     negative rho (up, down):  1.180E+00 0.000E+00

     negative rho (up, down):  1.180E+00 0.000E+00

     negative rho (up, down):  1.180E+00 0.000E+00

     negative rho (up, down):  1.180E+00 0.000E+00

     negative rho (up, down):  1.180E+00 0.000E+00

     negative rho (up, down):  1.180E+00 0.000E+00

     negative rho (up, down):  1.180E+00 0.000E+00

     negative rho (up, down):  1.180E+00 0.000E+00

     negative rho (up, down):  1.180E+00 0.000E+00

     negative rho (up, down):  1.180E+00 0.000E+00

     negative rho (up, down):  1.180E+00 0.000E+00

     negative rho (up, down):  1.180E+00 0.000E+00

     negative rho (up, down):  1.180E+00 0.000E+00

     negative rho (up, down):  1.180E+00 0.000E+00

     negative rho (up, down):  1.180E+00 0.000E+00

     negative rho (up, down):  1.180E+00 0.000E+00

     negative rho (up, down):  1.180E+00 0.000E+00

     negative rho (up, down):  1.180E+00 0.000E+00

     negative rho (up, down):  1.180E+00 0.000E+00

     negative rho (up, down):  1.180E+00 0.000E+00

     negative rho (up, down):  1.180E+00 0.000E+00

     negative rho (up, down):  1.180E+00 0.000E+00

     negative rho (up, down):  1.180E+00 0.000E+00

     negative rho (up, down):  1.180E+00 0.000E+00
 
     Adding external electric field

     Computed dipole along edir(3) : 
        Dipole                0.3108 Ry au,          0.7899 Debye
        Dipole field          0.0008 Ry au
 
        Potential amp.       -0.0690 Ry
        Total length         45.8339 bohr
 

     total cpu time spent up to now is      532.3 secs

     End of self-consistent calculation

          k = 0.0000 0.0000 0.0000 ( 19447 PWs)   bands (ev):

   -65.7782 -65.7255 -65.6686 -65.6685 -65.6640 -65.6316 -65.6046 -65.5835
   -65.5834 -65.5692 -65.5692 -65.5329 -32.4621 -32.4474 -32.4474 -32.4091
   -32.4082 -32.3756 -32.3756 -32.3585 -32.3585 -32.3417 -32.1659 -32.0602
   -32.0313 -32.0313 -31.9842 -31.9646 -31.9646 -31.8530 -31.8530 -31.8413
   -31.8052 -31.8052 -31.7682 -31.7681 -31.7681 -31.7641 -31.7110 -31.6922
   -31.6922 -31.6810 -31.6415 -31.6415 -31.6033 -31.6032 -31.5407 -31.5407
   -12.2687  -5.6283  -4.6048  -2.9646  -2.5048  -2.5048  -2.0734  -1.4743
    -1.4743  -1.3966  -1.2210  -1.0538  -1.0538  -0.5374  -0.4208  -0.4208
    -0.2097  -0.1988  -0.1988   0.9690   0.9690   1.0996   1.8508   2.0748
     2.0748   2.1491   2.4056   2.4688   2.6079   2.6080   2.6997   2.9684
     2.9684   3.0849   3.2525   3.2525   3.3338   3.3338   3.3526   3.4075
     3.4075   3.6398   3.6398

          k = 0.0000 0.0322 0.0000 ( 19481 PWs)   bands (ev):

   -65.7775 -65.7217 -65.6717 -65.6686 -65.6648 -65.6290 -65.6026 -65.5863
   -65.5835 -65.5711 -65.5692 -65.5336 -32.4383 -32.4220 -32.4095 -32.3860
   -32.3811 -32.3533 -32.3457 -32.3334 -32.3240 -32.3046 -32.1653 -32.0771
   -32.0517 -32.0432 -31.9763 -31.9560 -31.9557 -31.8768 -31.8694 -31.8454
   -31.8426 -31.8243 -31.7803 -31.7622 -31.7545 -31.7481 -31.7321 -31.7159
   -31.7109 -31.6852 -31.6791 -31.6550 -31.6350 -31.6143 -31.5885 -31.5495
   -12.2620  -5.5469  -4.4141  -2.8363  -2.4438  -2.4437  -1.8301  -1.5549
    -1.3220  -1.2567  -1.1038  -0.9314  -0.8903  -0.3929  -0.2730  -0.2407
    -0.1512  -0.0493  -0.0414   0.9625   0.9899   1.1270   1.7556   2.0790
     2.1600   2.1707   2.3098   2.4190   2.4238   2.4699   2.5112   2.5998
     3.0153   3.1240   3.1268   3.1722   3.1806   3.2635   3.3092   3.3585
     3.4026   3.4796   3.6231

          k = 0.0000 0.0645 0.0000 ( 19517 PWs)   bands (ev):

   -65.7760 -65.7111 -65.6820 -65.6686 -65.6652 -65.6220 -65.5998 -65.5909
   -65.5835 -65.5766 -65.5691 -65.5348 -32.3854 -32.3590 -32.3396 -32.3279
   -32.3033 -32.2968 -32.2770 -32.2710 -32.2529 -32.1871 -32.1621 -32.1042
   -32.0823 -32.0771 -31.9697 -31.9443 -31.9335 -31.9220 -31.9185 -31.9144
   -31.8947 -31.8491 -31.8078 -31.8044 -31.7906 -31.7877 -31.7502 -31.7432
   -31.7301 -31.7209 -31.7126 -31.6915 -31.6718 -31.6600 -31.6381 -31.5739
   -12.2486  -5.3918  -3.8677  -2.7467  -2.3258  -2.1366  -1.8559  -1.1820
    -1.0286  -0.9555  -0.7971  -0.5965  -0.5308  -0.1865   0.1494   0.2100
     0.2120   0.3983   0.4470   0.9781   1.0523   1.1772   1.4085   1.6545
     1.7854   1.8010   1.9228   2.0671   2.3072   2.4319   2.4528   2.5032
     2.5607   2.5658   2.6588   2.7611   2.8496   2.9411   2.9680   3.2324
     3.3128   3.3169   3.6306

          k = 0.0000-0.0967 0.0000 ( 19532 PWs)   bands (ev):

   -65.7752 -65.6978 -65.6953 -65.6687 -65.6653 -65.6159 -65.6040 -65.5868
   -65.5835 -65.5829 -65.5691 -65.5354 -32.3451 -32.3137 -32.3059 -32.2920
   -32.2808 -32.2765 -32.2217 -32.2107 -32.2047 -32.1431 -32.1314 -32.1121
   -32.0717 -32.0233 -32.0089 -31.9898 -31.9677 -31.9618 -31.9457 -31.9266
   -31.8923 -31.8871 -31.8649 -31.8547 -31.8468 -31.8290 -31.7636 -31.7402
   -31.7389 -31.7327 -31.7140 -31.7027 -31.6911 -31.6719 -31.6265 -31.5968
   -12.2420  -5.3182  -3.2693  -2.9402  -2.3855  -2.2691  -1.4302  -1.2001
    -0.7148  -0.6949  -0.4648  -0.3678  -0.3371  -0.1907   0.4864   0.5905
     0.7277   0.7550   0.7916   0.8290   1.1778   1.2724   1.3074   1.3523
     1.4599   1.4720   1.7297   1.7790   1.9629   1.9679   2.0445   2.0479
     2.1988   2.2566   2.3381   2.6905   2.7723   2.8524   2.8564   3.1144
     3.1485   3.4586   3.8196

          k = 0.0279-0.0161 0.0000 ( 19481 PWs)   bands (ev):

   -65.7775 -65.7217 -65.6718 -65.6686 -65.6648 -65.6290 -65.6026 -65.5863
   -65.5835 -65.5711 -65.5692 -65.5336 -32.4383 -32.4220 -32.4095 -32.3860
   -32.3811 -32.3533 -32.3457 -32.3334 -32.3240 -32.3046 -32.1653 -32.0771
   -32.0517 -32.0431 -31.9763 -31.9560 -31.9557 -31.8768 -31.8694 -31.8454
   -31.8426 -31.8243 -31.7803 -31.7622 -31.7545 -31.7481 -31.7321 -31.7159
   -31.7109 -31.6852 -31.6791 -31.6550 -31.6350 -31.6144 -31.5885 -31.5495
   -12.2620  -5.5469  -4.4141  -2.8363  -2.4438  -2.4437  -1.8301  -1.5549
    -1.3220  -1.2567  -1.1038  -0.9314  -0.8903  -0.3929  -0.2730  -0.2407
    -0.1512  -0.0493  -0.0414   0.9625   0.9899   1.1270   1.7556   2.0790
     2.1600   2.1707   2.3098   2.4190   2.4237   2.4699   2.5112   2.5998
     3.0153   3.1240   3.1268   3.1722   3.1806   3.2635   3.3092   3.3585
     3.4026   3.4796   3.6231

          k = 0.0279 0.0161 0.0000 ( 19481 PWs)   bands (ev):

   -65.7775 -65.7217 -65.6717 -65.6686 -65.6648 -65.6290 -65.6026 -65.5863
   -65.5835 -65.5711 -65.5692 -65.5336 -32.4383 -32.4220 -32.4095 -32.3860
   -32.3811 -32.3533 -32.3457 -32.3334 -32.3240 -32.3046 -32.1653 -32.0771
   -32.0517 -32.0431 -31.9763 -31.9560 -31.9557 -31.8768 -31.8694 -31.8454
   -31.8426 -31.8243 -31.7803 -31.7622 -31.7546 -31.7481 -31.7321 -31.7159
   -31.7109 -31.6852 -31.6791 -31.6550 -31.6350 -31.6144 -31.5885 -31.5495
   -12.2620  -5.5469  -4.4141  -2.8363  -2.4438  -2.4437  -1.8301  -1.5549
    -1.3220  -1.2567  -1.1038  -0.9314  -0.8903  -0.3929  -0.2730  -0.2407
    -0.1512  -0.0493  -0.0414   0.9625   0.9899   1.1270   1.7556   2.0790
     2.1600   2.1707   2.3098   2.4190   2.4237   2.4699   2.5112   2.5998
     3.0153   3.1240   3.1268   3.1722   3.1806   3.2635   3.3092   3.3585
     3.4026   3.4796   3.6231

          k = 0.0279 0.0483 0.0000 ( 19485 PWs)   bands (ev):

   -65.7763 -65.7144 -65.6759 -65.6734 -65.6632 -65.6241 -65.5995 -65.5911
   -65.5834 -65.5739 -65.5698 -65.5345 -32.4024 -32.3760 -32.3448 -32.3442
   -32.3302 -32.3105 -32.3005 -32.2933 -32.2485 -32.2432 -32.1660 -32.1000
   -32.0806 -32.0609 -31.9640 -31.9593 -31.9541 -31.9287 -31.9235 -31.8482
   -31.8375 -31.8246 -31.8167 -31.7993 -31.7921 -31.7608 -31.7497 -31.7338
   -31.7313 -31.7015 -31.6920 -31.6877 -31.6755 -31.6567 -31.6263 -31.5732
   -12.2519  -5.4299  -4.0409  -2.7170  -2.4064  -2.1578  -1.6135  -1.5521
    -1.2919  -0.9382  -0.8447  -0.7050  -0.5727  -0.1295  -0.0823   0.0752
     0.0904   0.2148   0.3119   0.9648   1.0237   1.1507   1.5548   1.8151
     1.8887   1.9857   2.0305   2.1411   2.3702   2.3877   2.5126   2.5180
     2.6630   2.6878   2.8138   2.8610   2.9762   3.0257   3.1157   3.1888
     3.4347   3.4909   3.5815

          k = 0.0279-0.1128 0.0000 ( 19521 PWs)   bands (ev):

   -65.7752 -65.7020 -65.6873 -65.6764 -65.6614 -65.6162 -65.6019 -65.5922
   -65.5830 -65.5782 -65.5707 -65.5353 -32.3491 -32.3125 -32.2979 -32.2844
   -32.2708 -32.2584 -32.2308 -32.2168 -32.1842 -32.1584 -32.1305 -32.1190
   -32.1006 -32.0787 -32.0323 -32.0147 -31.9623 -31.9383 -31.9254 -31.9161
   -31.8999 -31.8721 -31.8599 -31.8271 -31.8159 -31.7875 -31.7708 -31.7574
   -31.7486 -31.7313 -31.7132 -31.7025 -31.6844 -31.6709 -31.6540 -31.6088
   -12.2420  -5.3193  -3.3852  -2.7149  -2.3861  -2.1453  -1.5650  -1.3826
    -0.9387  -0.5970  -0.5133  -0.2609  -0.1368   0.0214   0.4001   0.5387
     0.5835   0.6077   0.7111   1.0193   1.1004   1.1457   1.1921   1.3814
     1.4966   1.5344   1.6428   1.7333   1.8967   1.9380   2.0857   2.1327
     2.2511   2.2888   2.4866   2.5993   2.6934   2.8091   3.0099   3.0997
     3.3638   3.4145   3.7503

          k = 0.0279-0.0806 0.0000 ( 19521 PWs)   bands (ev):

   -65.7752 -65.7020 -65.6873 -65.6764 -65.6614 -65.6162 -65.6019 -65.5922
   -65.5829 -65.5783 -65.5707 -65.5353 -32.3491 -32.3125 -32.2979 -32.2844
   -32.2707 -32.2584 -32.2308 -32.2168 -32.1842 -32.1584 -32.1305 -32.1190
   -32.1006 -32.0787 -32.0323 -32.0147 -31.9623 -31.9383 -31.9254 -31.9161
   -31.8998 -31.8721 -31.8599 -31.8271 -31.8159 -31.7875 -31.7708 -31.7574
   -31.7486 -31.7312 -31.7132 -31.7025 -31.6844 -31.6709 -31.6540 -31.6088
   -12.2420  -5.3193  -3.3852  -2.7149  -2.3861  -2.1453  -1.5650  -1.3826
    -0.9387  -0.5970  -0.5133  -0.2609  -0.1368   0.0214   0.4001   0.5387
     0.5835   0.6077   0.7111   1.0193   1.1004   1.1457   1.1921   1.3814
     1.4966   1.5344   1.6428   1.7333   1.8967   1.9380   2.0857   2.1327
     2.2511   2.2888   2.4866   2.5993   2.6934   2.8091   3.0099   3.0997
     3.3638   3.4145   3.7503

          k = 0.0279-0.0483 0.0000 ( 19485 PWs)   bands (ev):

   -65.7763 -65.7144 -65.6759 -65.6734 -65.6632 -65.6241 -65.5995 -65.5911
   -65.5834 -65.5739 -65.5698 -65.5345 -32.4024 -32.3760 -32.3448 -32.3442
   -32.3302 -32.3105 -32.3005 -32.2933 -32.2485 -32.2432 -32.1660 -32.1000
   -32.0806 -32.0609 -31.9640 -31.9593 -31.9541 -31.9287 -31.9235 -31.8482
   -31.8375 -31.8246 -31.8167 -31.7993 -31.7921 -31.7608 -31.7497 -31.7338
   -31.7313 -31.7015 -31.6920 -31.6877 -31.6755 -31.6567 -31.6263 -31.5732
   -12.2519  -5.4299  -4.0409  -2.7170  -2.4064  -2.1578  -1.6135  -1.5521
    -1.2919  -0.9382  -0.8447  -0.7050  -0.5727  -0.1295  -0.0823   0.0752
     0.0904   0.2148   0.3119   0.9648   1.0236   1.1507   1.5548   1.8151
     1.8887   1.9857   2.0305   2.1412   2.3702   2.3877   2.5126   2.5180
     2.6630   2.6878   2.8138   2.8610   2.9762   3.0257   3.1157   3.1888
     3.4347   3.4909   3.5813

          k = 0.0558-0.0322 0.0000 ( 19517 PWs)   bands (ev):

   -65.7760 -65.7111 -65.6820 -65.6686 -65.6653 -65.6220 -65.5998 -65.5908
   -65.5835 -65.5766 -65.5691 -65.5348 -32.3854 -32.3590 -32.3396 -32.3279
   -32.3033 -32.2969 -32.2770 -32.2710 -32.2529 -32.1871 -32.1621 -32.1042
   -32.0823 -32.0771 -31.9697 -31.9443 -31.9335 -31.9220 -31.9185 -31.9145
   -31.8947 -31.8491 -31.8078 -31.8044 -31.7907 -31.7877 -31.7502 -31.7432
   -31.7301 -31.7209 -31.7126 -31.6915 -31.6718 -31.6600 -31.6382 -31.5739
   -12.2486  -5.3918  -3.8677  -2.7467  -2.3258  -2.1366  -1.8559  -1.1820
    -1.0286  -0.9555  -0.7971  -0.5965  -0.5308  -0.1866   0.1494   0.2100
     0.2120   0.3983   0.4470   0.9781   1.0523   1.1772   1.4085   1.6545
     1.7854   1.8010   1.9228   2.0671   2.3072   2.4319   2.4528   2.5032
     2.5607   2.5658   2.6589   2.7611   2.8496   2.9411   2.9680   3.2324
     3.3128   3.3169   3.6306

          k = 0.0558 0.0000 0.0000 ( 19485 PWs)   bands (ev):

   -65.7763 -65.7144 -65.6759 -65.6733 -65.6632 -65.6241 -65.5995 -65.5911
   -65.5834 -65.5739 -65.5698 -65.5345 -32.4024 -32.3760 -32.3448 -32.3442
   -32.3302 -32.3104 -32.3005 -32.2933 -32.2485 -32.2432 -32.1660 -32.1000
   -32.0807 -32.0609 -31.9640 -31.9593 -31.9541 -31.9287 -31.9235 -31.8482
   -31.8375 -31.8246 -31.8167 -31.7992 -31.7921 -31.7608 -31.7497 -31.7338
   -31.7313 -31.7015 -31.6920 -31.6877 -31.6755 -31.6567 -31.6263 -31.5732
   -12.2519  -5.4299  -4.0409  -2.7170  -2.4064  -2.1578  -1.6135  -1.5521
    -1.2919  -0.9382  -0.8447  -0.7050  -0.5727  -0.1295  -0.0823   0.0752
     0.0904   0.2148   0.3119   0.9648   1.0237   1.1507   1.5548   1.8151
     1.8887   1.9857   2.0305   2.1412   2.3702   2.3877   2.5126   2.5181
     2.6630   2.6878   2.8138   2.8610   2.9762   3.0257   3.1157   3.1888
     3.4347   3.4909   3.5821

          k = 0.0558 0.0322 0.0000 ( 19517 PWs)   bands (ev):

   -65.7760 -65.7111 -65.6820 -65.6686 -65.6652 -65.6220 -65.5998 -65.5909
   -65.5835 -65.5766 -65.5691 -65.5348 -32.3854 -32.3590 -32.3396 -32.3279
   -32.3033 -32.2968 -32.2770 -32.2710 -32.2529 -32.1871 -32.1621 -32.1042
   -32.0823 -32.0771 -31.9697 -31.9443 -31.9335 -31.9220 -31.9185 -31.9145
   -31.8947 -31.8491 -31.8078 -31.8044 -31.7907 -31.7877 -31.7502 -31.7432
   -31.7301 -31.7209 -31.7126 -31.6915 -31.6718 -31.6600 -31.6381 -31.5739
   -12.2486  -5.3918  -3.8677  -2.7467  -2.3258  -2.1366  -1.8559  -1.1820
    -1.0286  -0.9555  -0.7971  -0.5965  -0.5308  -0.1866   0.1494   0.2100
     0.2120   0.3983   0.4470   0.9781   1.0523   1.1772   1.4085   1.6545
     1.7854   1.8010   1.9228   2.0671   2.3072   2.4319   2.4528   2.5032
     2.5607   2.5658   2.6589   2.7611   2.8496   2.9411   2.9680   3.2324
     3.3128   3.3169   3.6306

          k = 0.0558-0.1289 0.0000 ( 19521 PWs)   bands (ev):

   -65.7752 -65.7020 -65.6873 -65.6764 -65.6614 -65.6162 -65.6019 -65.5922
   -65.5830 -65.5782 -65.5707 -65.5353 -32.3491 -32.3125 -32.2979 -32.2844
   -32.2708 -32.2584 -32.2308 -32.2168 -32.1842 -32.1585 -32.1305 -32.1190
   -32.1006 -32.0787 -32.0323 -32.0147 -31.9623 -31.9383 -31.9254 -31.9161
   -31.8999 -31.8721 -31.8599 -31.8271 -31.8159 -31.7875 -31.7708 -31.7574
   -31.7486 -31.7313 -31.7132 -31.7025 -31.6844 -31.6709 -31.6540 -31.6088
   -12.2420  -5.3193  -3.3852  -2.7149  -2.3861  -2.1453  -1.5650  -1.3826
    -0.9387  -0.5970  -0.5133  -0.2609  -0.1368   0.0214   0.4001   0.5387
     0.5835   0.6077   0.7111   1.0193   1.1004   1.1457   1.1921   1.3814
     1.4966   1.5344   1.6428   1.7333   1.8967   1.9380   2.0857   2.1327
     2.2511   2.2888   2.4866   2.5993   2.6934   2.8091   3.0099   3.0997
     3.3639   3.4145   3.7503

          k = 0.0558-0.0967 0.0000 ( 19521 PWs)   bands (ev):

   -65.7748 -65.6907 -65.6902 -65.6866 -65.6595 -65.6082 -65.6082 -65.5937
   -65.5820 -65.5767 -65.5737 -65.5355 -32.3206 -32.2820 -32.2768 -32.2426
   -32.2381 -32.2318 -32.2018 -32.1861 -32.1804 -32.1471 -32.1309 -32.1019
   -32.0844 -32.0680 -32.0628 -32.0436 -32.0349 -32.0213 -31.9358 -31.9141
   -31.9005 -31.8969 -31.8762 -31.7973 -31.7939 -31.7909 -31.7726 -31.7561
   -31.7454 -31.7410 -31.7184 -31.7103 -31.7075 -31.6701 -31.6680 -31.6506
   -12.2387  -5.2849  -2.9444  -2.6829  -2.3845  -2.1806  -1.9783  -0.9800
    -0.8688  -0.7537   0.1620   0.1922   0.1993   0.2725   0.2972   0.3326
     0.8094   0.8599   0.8864   0.9311   0.9916   1.0557   1.0821   1.0999
     1.1149   1.3123   1.4777   1.6408   1.7456   1.8264   1.8704   1.9462
     1.9824   2.0548   2.3557   2.4229   2.6775   2.6936   3.2754   3.3612
     3.4613   3.5955   3.6137

          k = 0.0558-0.0645 0.0000 ( 19521 PWs)   bands (ev):

   -65.7752 -65.7020 -65.6873 -65.6763 -65.6614 -65.6162 -65.6019 -65.5922
   -65.5830 -65.5782 -65.5708 -65.5353 -32.3491 -32.3125 -32.2979 -32.2844
   -32.2708 -32.2584 -32.2308 -32.2168 -32.1842 -32.1585 -32.1305 -32.1190
   -32.1006 -32.0787 -32.0323 -32.0147 -31.9623 -31.9383 -31.9254 -31.9161
   -31.8999 -31.8721 -31.8599 -31.8271 -31.8159 -31.7875 -31.7709 -31.7574
   -31.7486 -31.7312 -31.7132 -31.7025 -31.6844 -31.6709 -31.6540 -31.6088
   -12.2420  -5.3193  -3.3852  -2.7149  -2.3861  -2.1453  -1.5650  -1.3826
    -0.9387  -0.5970  -0.5133  -0.2609  -0.1368   0.0214   0.4001   0.5387
     0.5835   0.6077   0.7111   1.0193   1.1004   1.1457   1.1921   1.3814
     1.4966   1.5344   1.6428   1.7333   1.8967   1.9380   2.0857   2.1327
     2.2511   2.2888   2.4866   2.5993   2.6934   2.8091   3.0099   3.0997
     3.3639   3.4145   3.7503

          k =-0.0837 0.0483 0.0000 ( 19532 PWs)   bands (ev):

   -65.7752 -65.6977 -65.6954 -65.6686 -65.6654 -65.6159 -65.6039 -65.5868
   -65.5836 -65.5829 -65.5691 -65.5354 -32.3451 -32.3137 -32.3059 -32.2920
   -32.2808 -32.2765 -32.2217 -32.2107 -32.2046 -32.1431 -32.1314 -32.1121
   -32.0717 -32.0233 -32.0089 -31.9898 -31.9678 -31.9618 -31.9457 -31.9266
   -31.8923 -31.8870 -31.8649 -31.8547 -31.8468 -31.8290 -31.7636 -31.7402
   -31.7389 -31.7327 -31.7140 -31.7027 -31.6911 -31.6720 -31.6265 -31.5968
   -12.2420  -5.3182  -3.2693  -2.9402  -2.3855  -2.2691  -1.4302  -1.2001
    -0.7148  -0.6949  -0.4648  -0.3678  -0.3371  -0.1907   0.4864   0.5905
     0.7277   0.7550   0.7915   0.8290   1.1778   1.2724   1.3074   1.3523
     1.4599   1.4720   1.7297   1.7790   1.9629   1.9679   2.0445   2.0479
     2.1988   2.2566   2.3381   2.6905   2.7723   2.8524   2.8564   3.1144
     3.1485   3.4586   3.8195

          k =-0.0837 0.0806 0.0000 ( 19521 PWs)   bands (ev):

   -65.7752 -65.7020 -65.6873 -65.6763 -65.6614 -65.6162 -65.6019 -65.5922
   -65.5829 -65.5782 -65.5708 -65.5353 -32.3491 -32.3125 -32.2979 -32.2844
   -32.2707 -32.2584 -32.2308 -32.2168 -32.1842 -32.1585 -32.1305 -32.1190
   -32.1006 -32.0787 -32.0323 -32.0147 -31.9623 -31.9383 -31.9254 -31.9161
   -31.8999 -31.8721 -31.8599 -31.8271 -31.8159 -31.7875 -31.7709 -31.7574
   -31.7486 -31.7312 -31.7132 -31.7025 -31.6844 -31.6709 -31.6540 -31.6088
   -12.2420  -5.3193  -3.3852  -2.7149  -2.3862  -2.1453  -1.5650  -1.3826
    -0.9387  -0.5970  -0.5133  -0.2609  -0.1368   0.0214   0.4001   0.5387
     0.5835   0.6077   0.7111   1.0193   1.1004   1.1457   1.1921   1.3814
     1.4966   1.5344   1.6428   1.7333   1.8967   1.9380   2.0857   2.1327
     2.2511   2.2888   2.4866   2.5993   2.6934   2.8091   3.0099   3.0997
     3.3639   3.4145   3.7503

          k =-0.0837 0.1128 0.0000 ( 19521 PWs)   bands (ev):

   -65.7752 -65.7020 -65.6873 -65.6763 -65.6614 -65.6162 -65.6019 -65.5922
   -65.5829 -65.5783 -65.5707 -65.5353 -32.3491 -32.3125 -32.2979 -32.2844
   -32.2707 -32.2584 -32.2308 -32.2168 -32.1842 -32.1584 -32.1305 -32.1190
   -32.1006 -32.0787 -32.0323 -32.0147 -31.9623 -31.9383 -31.9254 -31.9161
   -31.8998 -31.8721 -31.8599 -31.8271 -31.8159 -31.7875 -31.7708 -31.7574
   -31.7486 -31.7312 -31.7132 -31.7025 -31.6844 -31.6709 -31.6540 -31.6088
   -12.2420  -5.3193  -3.3852  -2.7149  -2.3861  -2.1453  -1.5650  -1.3826
    -0.9387  -0.5970  -0.5133  -0.2609  -0.1368   0.0214   0.4001   0.5387
     0.5835   0.6077   0.7111   1.0193   1.1004   1.1457   1.1921   1.3814
     1.4966   1.5344   1.6428   1.7333   1.8967   1.9380   2.0857   2.1327
     2.2511   2.2888   2.4866   2.5993   2.6934   2.8091   3.0099   3.0997
     3.3639   3.4145   3.7503

          k =-0.0837-0.0483 0.0000 ( 19532 PWs)   bands (ev):

   -65.7752 -65.6977 -65.6954 -65.6686 -65.6653 -65.6159 -65.6040 -65.5868
   -65.5835 -65.5829 -65.5691 -65.5354 -32.3451 -32.3137 -32.3059 -32.2920
   -32.2808 -32.2765 -32.2217 -32.2107 -32.2047 -32.1431 -32.1314 -32.1121
   -32.0717 -32.0233 -32.0089 -31.9898 -31.9677 -31.9618 -31.9457 -31.9266
   -31.8923 -31.8870 -31.8649 -31.8547 -31.8468 -31.8290 -31.7636 -31.7402
   -31.7389 -31.7327 -31.7140 -31.7027 -31.6911 -31.6719 -31.6265 -31.5968
   -12.2420  -5.3182  -3.2693  -2.9402  -2.3855  -2.2691  -1.4302  -1.2001
    -0.7148  -0.6949  -0.4648  -0.3678  -0.3371  -0.1907   0.4864   0.5905
     0.7277   0.7550   0.7915   0.8290   1.1778   1.2724   1.3074   1.3523
     1.4599   1.4720   1.7297   1.7790   1.9629   1.9679   2.0445   2.0479
     2.1988   2.2566   2.3381   2.6905   2.7723   2.8524   2.8564   3.1144
     3.1485   3.4586   3.8195

     the Fermi energy is     2.5953 ev

!    total energy              =   -1744.03459921 Ry
     Harris-Foulkes estimate   =   -1744.03460052 Ry
     estimated scf accuracy    <       0.00000287 Ry

     The total energy is the sum of the following terms:

     one-electron contribution =  -11749.23289170 Ry
     hartree contribution      =    5862.01778242 Ry
     xc contribution           =    -532.48141935 Ry
     ewald contribution        =    4675.76683717 Ry
     electric field correction =       0.00023408 Ry
     smearing contrib. (-TS)   =      -0.10514182 Ry

     convergence has been achieved in  10 iterations
 
 BEEF-vdW xc energy contributions
           1 :   -468.538765001950     
           2 :    432.261487538713     
           3 :   -368.940105456243     
           4 :    293.218172702603     
           5 :   -219.797959610202     
           6 :    158.956452702956     
           7 :   -114.467037266131     
           8 :    84.3545345589764     
           9 :   -63.6342917135329     
          10 :    47.4344106361024     
          11 :   -33.0239046894947     
          12 :    20.1022136273997     
          13 :   -9.71545556122737     
          14 :    2.77581753575544     
          15 :   0.880450281110484     
          16 :   -2.48906923213576     
          17 :    3.62243906009007     
          18 :   -5.31019211994516     
          19 :    7.57996656676045     
          20 :   -9.64718973690128     
          21 :    10.5697043765310     
          22 :   -9.92882651131686     
          23 :    8.12564741704580     
          24 :   -6.14787568758481     
          25 :    4.99044460422181     
          26 :   -5.10277630979698     
          27 :    6.18745464064807     
          28 :   -7.43950943152083     
          29 :    8.04902169999434     
          30 :   -7.65251692615743     
          31 :   -42.0844680109126     
          32 :   -31.2085868424495     

     Forces acting on atoms (Ry/au):


     negative rho (up, down):  1.180E+00 0.000E+00
     atom    1 type  1   force =     0.00000145   -0.00000067    0.00177950
     atom    2 type  1   force =    -0.00000238    0.00183557    0.00249765
     atom    3 type  1   force =     0.00159027   -0.00091704    0.00250445
     atom    4 type  1   force =    -0.00159075   -0.00091502    0.00250026
     atom    5 type  1   force =     0.00441327   -0.00254233   -0.00310197
     atom    6 type  1   force =    -0.00441486   -0.00253823   -0.00310831
     atom    7 type  1   force =     0.00000439   -0.00000988   -0.00713263
     atom    8 type  1   force =    -0.00000406    0.00509036   -0.00311536
     atom    9 type  1   force =    -0.03420868   -0.01975692    0.00975425
     atom   10 type  1   force =     0.03420969   -0.01975437    0.00975335
     atom   11 type  1   force =     0.00000306    0.03950559    0.00975575
     atom   12 type  1   force =    -0.00000334    0.00000554   -0.03640204
     atom   13 type  2   force =     0.00000204   -0.00000235    0.02621863
     atom   14 type  3   force =    -0.00000010   -0.00000025   -0.01190352

     Total force =     0.084389     Total SCF correction =     0.003002


     entering subroutine stress ...


     negative rho (up, down):  1.180E+00 0.000E+00
          total   stress  (Ry/bohr**3)                   (kbar)     P=  -25.15
  -0.00023251   0.00000000  -0.00000000        -34.20      0.00     -0.00
   0.00000000  -0.00023251  -0.00000000          0.00    -34.20     -0.00
  -0.00000000  -0.00000000  -0.00004785         -0.00     -0.00     -7.04


     number of scf cycles    =   2
     number of bfgs steps    =   1

     energy   old            =   -1744.0127796196 Ry
     energy   new            =   -1744.0345992110 Ry

     CASE: energy  _new < energy  _old

     new trust radius        =       0.0494899626 bohr
     new conv_thr            =       0.0000001000 Ry


ATOMIC_POSITIONS (crystal)
Ta1      0.166666667   0.166666667   0.401991699    0   0   0
Ta1      0.666666667   0.166666667   0.401991699    0   0   0
Ta1      0.166666667   0.666666667   0.401991699    0   0   0
Ta1      0.666666667   0.666666667   0.401991699    0   0   0
Ta1      0.833333333   0.333333333   0.500000000    0   0   0
Ta1      0.333333333   0.333333333   0.500000000    0   0   0
Ta1      0.833333333   0.833333333   0.500000000    0   0   0
Ta1      0.333333333   0.833333333   0.500000000    0   0   0
Ta1     -0.004677355  -0.004677808   0.598680426
Ta1      0.509355386  -0.004677431   0.598680378
Ta1     -0.004676952   0.509354731   0.598680340
Ta1      0.499999667   0.500000036   0.596293810
S1       0.166666964   0.166666466   0.666896567
H1       0.166666752   0.166666581   0.723275741



     Writing output data file calc.save
     Check: negative starting charge=   -1.123578
     NEW-OLD atomic charge density approx. for the potential
     Check: negative starting charge=   -1.123361

     negative rho (up, down):  1.179E+00 0.000E+00
 
     Adding external electric field

     Computed dipole along edir(3) : 
        Dipole                0.3108 Ry au,          0.7899 Debye
        Dipole field          0.0008 Ry au
 
        Potential amp.       -0.0690 Ry
        Total length         45.8339 bohr
 

     total cpu time spent up to now is      583.6 secs

     Self-consistent Calculation

     iteration #  1     ecut=    36.75 Ry     beta=0.30
     Davidson diagonalization with overlap
     ethr =  1.00E-06,  avg # of iterations =  7.5

     negative rho (up, down):  1.179E+00 0.000E+00
 
     Adding external electric field

     Computed dipole along edir(3) : 
        Dipole                0.3168 Ry au,          0.8053 Debye
        Dipole field          0.0008 Ry au
 
        Potential amp.       -0.0704 Ry
        Total length         45.8339 bohr
 

     total cpu time spent up to now is      606.4 secs

     total energy              =   -1744.04075081 Ry
     Harris-Foulkes estimate   =   -1744.04171643 Ry
     estimated scf accuracy    <       0.00250631 Ry

     iteration #  2     ecut=    36.75 Ry     beta=0.30
     Davidson diagonalization with overlap
     ethr =  1.54E-06,  avg # of iterations =  3.7

     negative rho (up, down):  1.180E+00 0.000E+00
 
     Adding external electric field

     Computed dipole along edir(3) : 
        Dipole                0.3002 Ry au,          0.7630 Debye
[...]
   -31.7117 -31.6799 -31.6684 -31.6438 -31.6289 -31.5889 -31.5654 -31.5376
   -12.2449  -5.4165  -4.0434  -2.6337  -2.2750  -2.1141  -1.6183  -1.5320
    -1.2790  -0.8759  -0.8375  -0.7686  -0.5876  -0.1313  -0.0267   0.0743
     0.1201   0.2321   0.3106   0.9723   1.0129   1.1597   1.5974   1.6988
     1.8132   1.9927   2.0551   2.1163   2.2404   2.4629   2.4842   2.5356
     2.5856   2.7105   2.7395   2.9284   2.9911   3.0829   3.1701   3.2359
     3.4284   3.4688   3.5789

          k = 0.0558-0.0322 0.0000 ( 19517 PWs)   bands (ev):

   -65.7136 -65.6845 -65.6714 -65.6672 -65.6460 -65.6046 -65.5970 -65.5951
   -65.5738 -65.5531 -65.5444 -65.4941 -32.4047 -32.3554 -32.3465 -32.3276
   -32.2947 -32.2863 -32.2726 -32.2584 -32.2331 -32.1732 -32.1122 -32.0993
   -32.0789 -32.0638 -31.9640 -31.9524 -31.9246 -31.9199 -31.9031 -31.9017
   -31.8745 -31.8271 -31.8051 -31.8005 -31.7786 -31.7439 -31.7429 -31.7334
   -31.7098 -31.6984 -31.6891 -31.6304 -31.6249 -31.6106 -31.5666 -31.5371
   -12.2415  -5.3775  -3.8664  -2.6657  -2.1828  -2.1161  -1.8431  -1.1668
    -0.9735  -0.9426  -0.8398  -0.5991  -0.5530  -0.1490   0.0972   0.2475
     0.2510   0.4035   0.4378   0.9859   1.0206   1.1621   1.4495   1.5602
     1.7354   1.8443   1.9008   2.0724   2.1983   2.3503   2.3884   2.4785
     2.5577   2.5675   2.6419   2.8234   2.9451   2.9502   3.0032   3.3120
     3.3625   3.4037   3.5256

          k = 0.0558 0.0000 0.0000 ( 19485 PWs)   bands (ev):

   -65.7169 -65.6788 -65.6756 -65.6654 -65.6481 -65.6026 -65.5988 -65.5954
   -65.5728 -65.5523 -65.5439 -65.4941 -32.4225 -32.3683 -32.3650 -32.3371
   -32.3173 -32.3042 -32.2898 -32.2798 -32.2368 -32.2207 -32.1095 -32.0924
   -32.0749 -32.0543 -31.9725 -31.9603 -31.9413 -31.9113 -31.8924 -31.8485
   -31.8370 -31.8310 -31.7969 -31.7904 -31.7664 -31.7416 -31.7240 -31.7175
   -31.7117 -31.6799 -31.6684 -31.6438 -31.6289 -31.5889 -31.5654 -31.5376
   -12.2449  -5.4165  -4.0434  -2.6337  -2.2750  -2.1141  -1.6183  -1.5320
    -1.2790  -0.8759  -0.8375  -0.7686  -0.5876  -0.1313  -0.0267   0.0743
     0.1201   0.2321   0.3106   0.9723   1.0129   1.1597   1.5974   1.6988
     1.8132   1.9927   2.0551   2.1163   2.2404   2.4629   2.4842   2.5356
     2.5856   2.7105   2.7395   2.9284   2.9911   3.0829   3.1701   3.2359
     3.4284   3.4688   3.5789

          k = 0.0558 0.0322 0.0000 ( 19517 PWs)   bands (ev):

   -65.7136 -65.6845 -65.6714 -65.6672 -65.6460 -65.6046 -65.5970 -65.5951
   -65.5738 -65.5531 -65.5444 -65.4941 -32.4047 -32.3554 -32.3465 -32.3276
   -32.2947 -32.2863 -32.2726 -32.2584 -32.2331 -32.1732 -32.1122 -32.0993
   -32.0789 -32.0638 -31.9640 -31.9524 -31.9246 -31.9199 -31.9031 -31.9017
   -31.8745 -31.8271 -31.8051 -31.8005 -31.7786 -31.7439 -31.7429 -31.7334
   -31.7098 -31.6984 -31.6891 -31.6304 -31.6249 -31.6106 -31.5666 -31.5371
   -12.2415  -5.3775  -3.8664  -2.6657  -2.1828  -2.1161  -1.8431  -1.1668
    -0.9735  -0.9426  -0.8398  -0.5991  -0.5530  -0.1490   0.0972   0.2475
     0.2510   0.4035   0.4378   0.9859   1.0206   1.1621   1.4495   1.5602
     1.7354   1.8443   1.9008   2.0724   2.1983   2.3503   2.3884   2.4785
     2.5577   2.5675   2.6419   2.8234   2.9451   2.9502   3.0032   3.3120
     3.3625   3.4037   3.5256

          k = 0.0558-0.1289 0.0000 ( 19521 PWs)   bands (ev):

   -65.7045 -65.6898 -65.6787 -65.6637 -65.6414 -65.6071 -65.5969 -65.5929
   -65.5745 -65.5582 -65.5432 -65.4941 -32.3604 -32.3266 -32.2968 -32.2796
   -32.2611 -32.2548 -32.2265 -32.2099 -32.1685 -32.1353 -32.1203 -32.0993
   -32.0901 -32.0720 -32.0276 -31.9904 -31.9483 -31.9365 -31.9269 -31.9070
   -31.8841 -31.8594 -31.8515 -31.8098 -31.7908 -31.7744 -31.7580 -31.7293
   -31.7239 -31.7141 -31.6965 -31.6568 -31.6405 -31.6208 -31.5700 -31.5578
   -12.2348  -5.3025  -3.3702  -2.6650  -2.2697  -2.0944  -1.5541  -1.3645
    -0.9142  -0.5941  -0.4953  -0.2890  -0.1569   0.0550   0.3357   0.4866
     0.5743   0.6336   0.7205   0.9348   1.0602   1.1472   1.2206   1.3597
     1.4610   1.5238   1.6142   1.8214   1.8558   1.9274   2.0404   2.1078
     2.1876   2.3629   2.4734   2.5579   2.7071   2.7827   3.0465   3.3062
     3.4247   3.5109   3.7187

          k = 0.0558-0.0967 0.0000 ( 19521 PWs)   bands (ev):

   -65.6936 -65.6932 -65.6880 -65.6619 -65.6389 -65.6075 -65.5987 -65.5908
   -65.5735 -65.5625 -65.5422 -65.4941 -32.3159 -32.3102 -32.2878 -32.2345
   -32.2309 -32.2301 -32.1957 -32.1895 -32.1538 -32.1374 -32.1035 -32.0962
   -32.0710 -32.0555 -32.0552 -32.0547 -32.0234 -31.9680 -31.9155 -31.9146
   -31.8996 -31.8991 -31.8432 -31.7953 -31.7852 -31.7779 -31.7590 -31.7484
   -31.7029 -31.7014 -31.6995 -31.6911 -31.6606 -31.6199 -31.6104 -31.5531
   -12.2314  -5.2665  -2.8988  -2.6334  -2.3573  -2.0890  -1.9508  -1.0000
    -0.7950  -0.7385   0.0522   0.1431   0.1642   0.2351   0.2908   0.4491
     0.6861   0.8433   0.8550   0.8736   0.9295   1.0324   1.0499   1.0970
     1.2309   1.3924   1.4287   1.6170   1.7914   1.8086   1.8757   1.9461
     2.0403   2.0538   2.3536   2.4031   2.4800   2.8457   3.3065   3.4336
     3.5294   3.6196   3.7305

          k = 0.0558-0.0645 0.0000 ( 19521 PWs)   bands (ev):

   -65.7045 -65.6898 -65.6787 -65.6637 -65.6414 -65.6071 -65.5969 -65.5929
   -65.5745 -65.5582 -65.5432 -65.4941 -32.3604 -32.3266 -32.2968 -32.2796
   -32.2611 -32.2548 -32.2265 -32.2099 -32.1685 -32.1353 -32.1203 -32.0993
   -32.0901 -32.0720 -32.0276 -31.9904 -31.9483 -31.9365 -31.9269 -31.9070
   -31.8841 -31.8594 -31.8515 -31.8098 -31.7908 -31.7744 -31.7580 -31.7293
   -31.7239 -31.7141 -31.6965 -31.6568 -31.6405 -31.6208 -31.5700 -31.5578
   -12.2348  -5.3025  -3.3702  -2.6650  -2.2697  -2.0944  -1.5541  -1.3645
    -0.9142  -0.5941  -0.4953  -0.2890  -0.1569   0.0550   0.3357   0.4866
     0.5743   0.6336   0.7205   0.9348   1.0602   1.1472   1.2206   1.3597
     1.4610   1.5238   1.6142   1.8214   1.8558   1.9274   2.0404   2.1078
     2.1876   2.3629   2.4734   2.5579   2.7071   2.7827   3.0465   3.3062
     3.4247   3.5109   3.7187

          k =-0.0837 0.0483 0.0000 ( 19532 PWs)   bands (ev):

   -65.7008 -65.6973 -65.6715 -65.6673 -65.6412 -65.6087 -65.5951 -65.5926
   -65.5762 -65.5560 -65.5444 -65.4941 -32.3529 -32.3402 -32.2897 -32.2853
   -32.2837 -32.2615 -32.2311 -32.1834 -32.1797 -32.1450 -32.1257 -32.0907
   -32.0617 -32.0132 -32.0061 -31.9735 -31.9663 -31.9439 -31.9367 -31.9142
   -31.9011 -31.8654 -31.8589 -31.8366 -31.8241 -31.7598 -31.7532 -31.7376
   -31.7322 -31.7315 -31.6709 -31.6517 -31.6512 -31.5979 -31.5647 -31.5548
   -12.2348  -5.3014  -3.2398  -2.9288  -2.3313  -2.1242  -1.4220  -1.1605
    -0.7113  -0.6841  -0.4405  -0.3985  -0.3670  -0.1414   0.3787   0.5705
     0.6602   0.7188   0.7773   0.9245   1.0960   1.2358   1.3174   1.3427
     1.4610   1.5157   1.6725   1.8296   1.8783   1.9400   2.0274   2.0598
     2.1413   2.1819   2.3968   2.6701   2.7959   2.8391   2.8626   3.2868
     3.3741   3.5467   3.7103

          k =-0.0837 0.0806 0.0000 ( 19521 PWs)   bands (ev):

   -65.7045 -65.6898 -65.6787 -65.6637 -65.6414 -65.6071 -65.5969 -65.5929
   -65.5745 -65.5582 -65.5432 -65.4941 -32.3604 -32.3266 -32.2968 -32.2796
   -32.2611 -32.2548 -32.2265 -32.2099 -32.1685 -32.1353 -32.1203 -32.0993
   -32.0901 -32.0720 -32.0276 -31.9904 -31.9483 -31.9365 -31.9269 -31.9070
   -31.8841 -31.8594 -31.8515 -31.8098 -31.7908 -31.7744 -31.7580 -31.7293
   -31.7239 -31.7141 -31.6965 -31.6568 -31.6405 -31.6208 -31.5700 -31.5578
   -12.2348  -5.3025  -3.3702  -2.6650  -2.2697  -2.0944  -1.5541  -1.3645
    -0.9142  -0.5941  -0.4953  -0.2890  -0.1569   0.0550   0.3357   0.4866
     0.5743   0.6336   0.7205   0.9348   1.0602   1.1472   1.2206   1.3597
     1.4610   1.5238   1.6142   1.8214   1.8558   1.9274   2.0404   2.1078
     2.1876   2.3629   2.4734   2.5579   2.7071   2.7827   3.0465   3.3062
     3.4247   3.5109   3.7187

          k =-0.0837 0.1128 0.0000 ( 19521 PWs)   bands (ev):

   -65.7045 -65.6898 -65.6787 -65.6637 -65.6414 -65.6071 -65.5969 -65.5929
   -65.5745 -65.5582 -65.5432 -65.4941 -32.3604 -32.3266 -32.2968 -32.2796
   -32.2611 -32.2548 -32.2265 -32.2099 -32.1685 -32.1353 -32.1203 -32.0993
   -32.0901 -32.0720 -32.0276 -31.9904 -31.9483 -31.9365 -31.9269 -31.9070
   -31.8841 -31.8594 -31.8515 -31.8098 -31.7908 -31.7744 -31.7580 -31.7293
   -31.7239 -31.7141 -31.6965 -31.6568 -31.6405 -31.6208 -31.5700 -31.5578
   -12.2348  -5.3025  -3.3702  -2.6650  -2.2697  -2.0944  -1.5541  -1.3645
    -0.9142  -0.5941  -0.4953  -0.2890  -0.1569   0.0550   0.3357   0.4866
     0.5743   0.6336   0.7205   0.9348   1.0602   1.1472   1.2206   1.3597
     1.4610   1.5238   1.6142   1.8214   1.8558   1.9274   2.0404   2.1078
     2.1876   2.3629   2.4734   2.5579   2.7071   2.7827   3.0465   3.3062
     3.4247   3.5109   3.7187

          k =-0.0837-0.0483 0.0000 ( 19532 PWs)   bands (ev):

   -65.7008 -65.6973 -65.6715 -65.6673 -65.6412 -65.6087 -65.5951 -65.5926
   -65.5762 -65.5560 -65.5444 -65.4941 -32.3529 -32.3402 -32.2897 -32.2853
   -32.2837 -32.2615 -32.2311 -32.1834 -32.1797 -32.1450 -32.1257 -32.0907
   -32.0617 -32.0132 -32.0061 -31.9735 -31.9663 -31.9439 -31.9367 -31.9142
   -31.9011 -31.8654 -31.8589 -31.8366 -31.8241 -31.7598 -31.7532 -31.7376
   -31.7322 -31.7315 -31.6709 -31.6517 -31.6512 -31.5979 -31.5647 -31.5548
   -12.2348  -5.3014  -3.2398  -2.9288  -2.3313  -2.1242  -1.4220  -1.1605
    -0.7113  -0.6841  -0.4405  -0.3985  -0.3670  -0.1414   0.3787   0.5705
     0.6602   0.7188   0.7773   0.9245   1.0960   1.2358   1.3174   1.3427
     1.4610   1.5157   1.6725   1.8296   1.8783   1.9400   2.0274   2.0598
     2.1413   2.1819   2.3968   2.6701   2.7959   2.8391   2.8626   3.2868
     3.3741   3.5467   3.7103

     the Fermi energy is     2.5895 ev

!    total energy              =   -1744.05565281 Ry
     Harris-Foulkes estimate   =   -1744.05565268 Ry
     estimated scf accuracy    <       0.00000006 Ry

     The total energy is the sum of the following terms:

     one-electron contribution =  -11741.58795374 Ry
     hartree contribution      =    5858.27870234 Ry
     xc contribution           =    -532.51314269 Ry
     ewald contribution        =    4671.86637984 Ry
     electric field correction =       0.00024263 Ry
     smearing contrib. (-TS)   =      -0.09988118 Ry

     convergence has been achieved in   8 iterations
 
 BEEF-vdW xc energy contributions
           1 :   -468.570791675018     
           2 :    432.283789420021     
           3 :   -368.939572594081     
           4 :    293.176470242315     
           5 :   -219.697440338677     
           6 :    158.790584153347     
           7 :   -114.248242356017     
           8 :    84.1143633539721     
           9 :   -63.4137026928311     
          10 :    47.2679862201908     
          11 :   -32.9252591254790     
          12 :    20.0574511295724     
          13 :   -9.68840342407310     
          14 :    2.72370648386755     
          15 :   0.987198048756625     
          16 :   -2.65241441760116     
          17 :    3.81625066637093     
          18 :   -5.49559970342665     
          19 :    7.72845222703012     
          20 :   -9.75774851143939     
          21 :    10.6689973946542     
          22 :   -10.0530092797961     
          23 :    8.29466279369495     
          24 :   -6.34891696159997     
          25 :    5.18207522646975     
          26 :   -5.23800944731784     
          27 :    6.24167858905378     
          28 :   -7.42566795336865     
          29 :    8.01063200796108     
          30 :   -7.63916674504236     
          31 :   -42.0860965331328     
          32 :   -31.2040901532635     

     Forces acting on atoms (Ry/au):


     negative rho (up, down):  1.180E+00 0.000E+00
     atom    1 type  1   force =    -0.00000002    0.00000002    0.00251069
     atom    2 type  1   force =    -0.00000003    0.00042743    0.00337249
     atom    3 type  1   force =     0.00037010   -0.00021369    0.00337257
     atom    4 type  1   force =    -0.00037013   -0.00021367    0.00337253
     atom    5 type  1   force =     0.02451165   -0.01415175   -0.00962891
     atom    6 type  1   force =    -0.02451165   -0.01415173   -0.00962874
     atom    7 type  1   force =    -0.00000011    0.00000000    0.00887794
     atom    8 type  1   force =    -0.00000002    0.02830355   -0.00962866
     atom    9 type  1   force =    -0.00022576   -0.00013069    0.00148807
     atom   10 type  1   force =     0.00022585   -0.00013061    0.00148804
     atom   11 type  1   force =     0.00000012    0.00026103    0.00148809
     atom   12 type  1   force =    -0.00000003    0.00000014    0.00158827
     atom   13 type  2   force =     0.00000001   -0.00000004    0.00138046
     atom   14 type  3   force =     0.00000002    0.00000001   -0.00005283

     Total force =     0.003358     Total SCF correction =     0.000233


     entering subroutine stress ...


     negative rho (up, down):  1.180E+00 0.000E+00
          total   stress  (Ry/bohr**3)                   (kbar)     P=  -24.69
  -0.00022575  -0.00000000   0.00000000        -33.21     -0.00      0.00
  -0.00000000  -0.00022576  -0.00000000         -0.00    -33.21     -0.00
   0.00000000  -0.00000000  -0.00005200          0.00     -0.00     -7.65


     bfgs converged in  15 scf cycles and  13 bfgs steps
     (criteria: energy <  1.0E+00, force <  1.9E-03)

     End of BFGS Geometry Optimization

     Final energy   =   -1744.0556528059 Ry
Begin final coordinates

ATOMIC_POSITIONS (crystal)
Ta1      0.166666667   0.166666667   0.401991699    0   0   0
Ta1      0.666666667   0.166666667   0.401991699    0   0   0
Ta1      0.166666667   0.666666667   0.401991699    0   0   0
Ta1      0.666666667   0.666666667   0.401991699    0   0   0
Ta1      0.833333333   0.333333333   0.500000000    0   0   0
Ta1      0.333333333   0.333333333   0.500000000    0   0   0
Ta1      0.833333333   0.833333333   0.500000000    0   0   0
Ta1      0.333333333   0.833333333   0.500000000    0   0   0
Ta1     -0.008895301  -0.008895919   0.601085671
Ta1      0.517792077  -0.008896014   0.601085693
Ta1     -0.008895202   0.517791069   0.601085666
Ta1      0.500000491   0.499999694   0.587961797
S1       0.166667137   0.166666371   0.669090661
H1       0.166666929   0.166666431   0.724357641
End final coordinates



     Writing output data file calc.save
 
     init_run     :      7.45s CPU      8.91s WALL (       1 calls)
     electrons    :   2527.55s CPU   3314.66s WALL (      15 calls)
     update_pot   :     33.44s CPU     40.06s WALL (      14 calls)
     forces       :    168.23s CPU    172.65s WALL (      15 calls)
     stress       :    479.60s CPU    505.53s WALL (      15 calls)

     Called by init_run:
     wfcinit      :      2.87s CPU      3.58s WALL (       1 calls)
     potinit      :      1.21s CPU      1.61s WALL (       1 calls)

     Called by electrons:
     c_bands      :   1184.90s CPU   1591.54s WALL (     161 calls)
     sum_band     :    485.23s CPU    576.07s WALL (     161 calls)
     v_of_rho     :    235.88s CPU    402.95s WALL (     172 calls)
     newd         :    384.02s CPU    426.76s WALL (     172 calls)
     mix_rho      :      3.62s CPU      4.54s WALL (     161 calls)
     vdW_energy   :     81.40s CPU     89.13s WALL (     712 calls)
     vdW_ffts     :    118.29s CPU    167.79s WALL (    1454 calls)
     vdW_v        :     53.96s CPU     63.96s WALL (     712 calls)

     Called by c_bands:
     init_us_2    :      9.75s CPU     10.75s WALL (    2471 calls)
     cegterg      :    870.36s CPU   1051.84s WALL (    1127 calls)

     Called by *egterg:
     h_psi        :    503.96s CPU    658.57s WALL (    5916 calls)
     s_psi        :     68.52s CPU     70.46s WALL (    5916 calls)
     g_psi        :      4.64s CPU      4.75s WALL (    4782 calls)
     cdiaghg      :    139.27s CPU    141.80s WALL (    5783 calls)

     Called by h_psi:
     add_vuspsi   :     70.99s CPU     72.87s WALL (    5916 calls)

     General routines
     calbec       :    101.89s CPU    106.76s WALL (    7253 calls)
     fft          :    190.20s CPU    280.34s WALL (   42927 calls)
     ffts         :      0.26s CPU      0.41s WALL (     333 calls)
     fftw         :    318.96s CPU    498.17s WALL (  633705 calls)
     interpolate  :      1.80s CPU      2.90s WALL (     333 calls)
     davcio       :      0.00s CPU      0.15s WALL (       7 calls)
 
     Parallel routines
     fft_scatter  :    243.50s CPU    431.72s WALL (  676965 calls)
 
     PWSCF        :     0h54m CPU        1h 8m WALL

 
   This run was terminated on:  10: 8:36  23Apr2018            

=------------------------------------------------------------------------------=
   JOB DONE.
=------------------------------------------------------------------------------=
Job  /afs/slac/g/suncat/bin/suncat-tsmpirun -x LD_LIBRARY_PATH -wdir /scratch/qe137_BpuQb pw.x -npool 3 -in pw.inp

TID   HOST_NAME   COMMAND_LINE            STATUS            TERMINATION_TIME
===== ========== ================  =======================  ===================
00000 suncat2062 pw.x -npool 3 -i  Done                     04/23/2018 10:08:36
00001 suncat2062 pw.x -npool 3 -i  Done                     04/23/2018 10:08:36
00002 suncat2062 pw.x -npool 3 -i  Done                     04/23/2018 10:08:36
00003 suncat2062 pw.x -npool 3 -i  Done                     04/23/2018 10:08:36
00004 suncat2051 pw.x -npool 3 -i  Done                     04/23/2018 10:08:36
00005 suncat2051 pw.x -npool 3 -i  Done                     04/23/2018 10:08:36
00006 suncat2051 pw.x -npool 3 -i  Done                     04/23/2018 10:08:36
00007 suncat2051 pw.x -npool 3 -i  Done                     04/23/2018 10:08:36
00008 suncat2051 pw.x -npool 3 -i  Done                     04/23/2018 10:08:36
00009 suncat2051 pw.x -npool 3 -i  Done                     04/23/2018 10:08:36
00010 suncat2051 pw.x -npool 3 -i  Done                     04/23/2018 10:08:36
00011 suncat2051 pw.x -npool 3 -i  Done                     04/23/2018 10:08:36
00012 suncat2051 pw.x -npool 3 -i  Done                     04/23/2018 10:08:36
00013 suncat2051 pw.x -npool 3 -i  Done                     04/23/2018 10:08:36
00014 suncat2051 pw.x -npool 3 -i  Done                     04/23/2018 10:08:36
00015 suncat2051 pw.x -npool 3 -i  Done                     04/23/2018 10:08:36
00016 suncat2051 pw.x -npool 3 -i  Done                     04/23/2018 10:08:36
00017 suncat2051 pw.x -npool 3 -i  Done                     04/23/2018 10:08:36
00018 suncat2051 pw.x -npool 3 -i  Done                     04/23/2018 10:08:36
00019 suncat2051 pw.x -npool 3 -i  Done                     04/23/2018 10:08:36
00020 suncat2001 pw.x -npool 3 -i  Done                     04/23/2018 10:08:36
00021 suncat2001 pw.x -npool 3 -i  Done                     04/23/2018 10:08:36
00022 suncat2001 pw.x -npool 3 -i  Done                     04/23/2018 10:08:36
00023 suncat2001 pw.x -npool 3 -i  Done                     04/23/2018 10:08:36
00024 suncat2001 pw.x -npool 3 -i  Done                     04/23/2018 10:08:36
00025 suncat2001 pw.x -npool 3 -i  Done                     04/23/2018 10:08:36
00026 suncat2001 pw.x -npool 3 -i  Done                     04/23/2018 10:08:36
00027 suncat2001 pw.x -npool 3 -i  Done                     04/23/2018 10:08:36
00028 suncat2001 pw.x -npool 3 -i  Done                     04/23/2018 10:08:36
00029 suncat2001 pw.x -npool 3 -i  Done                     04/23/2018 10:08:36
00030 suncat2001 pw.x -npool 3 -i  Done                     04/23/2018 10:08:36
00031 suncat2001 pw.x -npool 3 -i  Done                     04/23/2018 10:08:36
00032 suncat2001 pw.x -npool 3 -i  Done                     04/23/2018 10:08:36
00033 suncat2001 pw.x -npool 3 -i  Done                     04/23/2018 10:08:36
00034 suncat2001 pw.x -npool 3 -i  Done                     04/23/2018 10:08:36
00035 suncat2001 pw.x -npool 3 -i  Done                     04/23/2018 10:08:36
