  python dir          : /nfs/slac/g/suncatfs/sw/espv20/lib/python2.7/site-packages/espresso
  espresso dir        : /nfs/slac/g/suncatfs/sw/espv18/espresso-dynpy-beef/bin
  pseudo dir          : /afs/slac.stanford.edu/u/if/mamunm/psp/gbrv1.5pbe
  ase-espresso py git : ffa2778-git



     Program PWSCF v.5.1rc2 (svn rev. 11289) starts on 15Jan2018 at 13:48:31 

     This program is part of the open-source Quantum ESPRESSO suite
     for quantum simulation of materials; please cite
         "P. Giannozzi et al., J. Phys.:Condens. Matter 21 395502 (2009);
          URL http://www.quantum-espresso.org", 
     in publications or presentations arising from this work. More details at
     http://www.quantum-espresso.org/quote

     Parallel version (MPI), running on    32 processors
     R & G space division:  proc/nbgrp/npool/nimage =      32
     Reading input from pw.inp
     Message from routine read_cards :
     DEPRECATED: no units specified in CELL_PARAMETERS card

     Current dimensions of program PWSCF are:
     Max number of different atomic species (ntypx) = 10
     Max number of k-points (npk) =  40000
     Max angular momentum in pseudopotentials (lmaxx) =  3
     Presently stress not available with electric field


     **************************************************************************
     Initializing libbeef V0.1.1 with the BEEF-vdW functional.
     Citation: Wellendorff et al., PRB 85, 235149 (2012).
     **************************************************************************


     IMPORTANT: XC functional enforced from input :
     Exchange-correlation      = BEEF-VDW ( 1  4 27 13 2)
     Any further DFT definition will be discarded
     Please, verify this is what you really want


     Subspace diagonalization in iterative solution of the eigenvalue problem:
     a serial algorithm will be used

 
     Parallelization info
     --------------------
     sticks:   dense  smooth     PW     G-vecs:    dense   smooth      PW
     Min          84      33      9                16000     4018     623
     Max          85      34     10                16029     4064     652
     Sum        2713    1075    313               512659   129281   20533
 


     bravais-lattice index     =            0
     lattice parameter (alat)  =       1.8897  a.u.
     unit-cell volume          =    4306.9643 (a.u.)^3
     number of atoms/cell      =           13
     number of atomic types    =            2
     number of electrons       =       185.00
     number of Kohn-Sham states=          102
     kinetic-energy cutoff     =      36.7493  Ry
     charge density cutoff     =     367.4932  Ry
     convergence threshold     =      1.0E-05
     mixing beta               =       0.3000
     number of iterations used =           10  plain     mixing
     Exchange-correlation      = BEEF-VDW ( 1  4 27 13 2)
     nstep                     =           50


     celldm(1)=   1.889726  celldm(2)=   0.000000  celldm(3)=   0.000000
     celldm(4)=   0.000000  celldm(5)=   0.000000  celldm(6)=   0.000000

     crystal axes: (cart. coord. in units of alat)
               a(1) = (   5.486772   0.000000   0.000000 )  
               a(2) = (   2.743386   4.751684   0.000000 )  
               a(3) = (   0.000000   0.000000  24.479931 )  

     reciprocal axes: (cart. coord. in units 2 pi/alat)
               b(1) = (  0.182257 -0.105226  0.000000 )  
               b(2) = (  0.000000  0.210452  0.000000 )  
               b(3) = (  0.000000  0.000000  0.040850 )  


     PseudoPot. # 1 for Re read from file:
     /afs/slac.stanford.edu/u/if/mamunm/psp/gbrv1.5pbe/Re.UPF
     MD5 check sum: 85f993410f3e006da9d71c142b4ad953
     Pseudo is Ultrasoft + core correction, Zval = 15.0
     Generated by new atomic code, or converted to UPF format
     Using radial grid of  981 points,  8 beta functions with: 
                l(1) =   0
                l(2) =   0
                l(3) =   1
                l(4) =   1
                l(5) =   2
                l(6) =   2
                l(7) =   3
                l(8) =   3
     Q(r) pseudized with  8 coefficients,  rinner =    1.150   1.150   1.150
                                                       1.150   1.150   1.150
                                                       1.150

     PseudoPot. # 2 for N  read from file:
     /afs/slac.stanford.edu/u/if/mamunm/psp/gbrv1.5pbe/N.UPF
     MD5 check sum: 95339753478d7afb44899504a8723017
     Pseudo is Ultrasoft + core correction, Zval =  5.0
     Generated by new atomic code, or converted to UPF format
     Using radial grid of  729 points,  4 beta functions with: 
                l(1) =   0
                l(2) =   0
                l(3) =   1
                l(4) =   1
     Q(r) pseudized with  8 coefficients,  rinner =    0.900   0.900   0.900


     vdW kernel table read from file vdW_kernel_table
     MD5 check sum: 095c7af220d748ca6e76c0b4c6cfb241

     atomic species   valence    mass     pseudopotential
        Re1           15.00   186.20700     Re( 1.00)
        N1             5.00    14.00700     N ( 1.00)

     No symmetry found



   Cartesian axes

     site n.     atom                  positions (alat units)
         1           Re1 tau(   1) = (   1.3716930   0.7919474  10.0000000  )
         2           Re1 tau(   2) = (   4.1150791   0.7919474  10.0000000  )
         3           Re1 tau(   3) = (   2.7433861   3.1677894  10.0000000  )
         4           Re1 tau(   4) = (   5.4867722   3.1677894  10.0000000  )
         5           Re1 tau(   5) = (   5.4867722   1.5838947  12.2399654  )
         6           Re1 tau(   6) = (   2.7433861   1.5838947  12.2399654  )
         7           Re1 tau(   7) = (   6.8584652   3.9597368  12.2399654  )
         8           Re1 tau(   8) = (   4.1150791   3.9597368  12.2399654  )
         9           Re1 tau(   9) = (   0.0000000   0.0000000  14.4799307  )
        10           Re1 tau(  10) = (   2.7433861   0.0000000  14.4799307  )
        11           Re1 tau(  11) = (   1.3716930   2.3758421  14.4799307  )
        12           Re1 tau(  12) = (   4.1150791   2.3758421  14.4799307  )
        13           N1  tau(  13) = (   1.3716930   0.0000000  16.6999307  )

     number of k points=    20  Fermi-Dirac smearing, width (Ry)=  0.0110
                       cart. coord. in units 2pi/alat
        k(    1) = (   0.0000000   0.0000000   0.0000000), wk =   0.0555556
        k(    2) = (   0.0000000   0.0350753   0.0000000), wk =   0.1111111
        k(    3) = (   0.0000000   0.0701506   0.0000000), wk =   0.1111111
        k(    4) = (   0.0000000  -0.1052259   0.0000000), wk =   0.0555556
        k(    5) = (   0.0303761  -0.0175376   0.0000000), wk =   0.1111111
        k(    6) = (   0.0303761   0.0175376   0.0000000), wk =   0.1111111
        k(    7) = (   0.0303761   0.0526129   0.0000000), wk =   0.1111111
        k(    8) = (   0.0303761  -0.1227635   0.0000000), wk =   0.1111111
        k(    9) = (   0.0303761  -0.0876882   0.0000000), wk =   0.1111111
        k(   10) = (   0.0303761  -0.0526129   0.0000000), wk =   0.1111111
        k(   11) = (   0.0607522  -0.0350753   0.0000000), wk =   0.1111111
        k(   12) = (   0.0607522   0.0000000   0.0000000), wk =   0.1111111
        k(   13) = (   0.0607522   0.0350753   0.0000000), wk =   0.1111111
        k(   14) = (   0.0607522  -0.1403011   0.0000000), wk =   0.1111111
        k(   15) = (   0.0607522  -0.1052259   0.0000000), wk =   0.1111111
        k(   16) = (   0.0607522  -0.0701506   0.0000000), wk =   0.1111111
        k(   17) = (  -0.0911283   0.0526129   0.0000000), wk =   0.0555556
        k(   18) = (  -0.0911283   0.0876882   0.0000000), wk =   0.1111111
        k(   19) = (  -0.0911283   0.1227635   0.0000000), wk =   0.1111111
        k(   20) = (  -0.0911283  -0.0526129   0.0000000), wk =   0.0555556

     Dense  grid:   512659 G-vectors     FFT dimensions: (  64,  64, 288)

     Smooth grid:   129281 G-vectors     FFT dimensions: (  45,  45, 180)

     Largest allocated arrays     est. size (Mb)     dimensions
        Kohn-Sham Wavefunctions         0.80 Mb     (     516,  102)
        NL pseudopotentials             3.09 Mb     (     516,  392)
        Each V/rho on FFT grid          0.56 Mb     (   36864)
        Each G-vector array             0.12 Mb     (   16029)
        G-vector shells                 0.06 Mb     (    7603)
     Largest temporary arrays     est. size (Mb)     dimensions
        Auxiliary wavefunctions         3.21 Mb     (     516,  408)
        Each subspace H/S matrix        2.54 Mb     (     408,  408)
        Each <psi_i|beta_j> matrix      0.61 Mb     (     392,  102)
        Arrays for rho mixing           5.62 Mb     (   36864,   10)

     Initial potential from superposition of free atoms
     Check: negative starting charge=   -1.539607

     starting charge  178.99945, renormalised to  185.00000

     negative rho (up, down):  1.591E+00 0.000E+00


     ************************************************************************
     *
     * You are using vdW-DF for exchange-correlation in this calculation.
     * Please cite the following three references that made this development
     * possible:
     *
     *   M. Dion, H. Rydberg, E. Schroder, D. C. Langreth, and
     *   B. I. Lundqvist, Phys. Rev. Lett. 92, 246401 (2004).
     *
     *   T. Thonhauser, V. R. Cooper, S. Li, A. Puzder, P. Hyldgaard, and
     *   D. C. Langreth, Phys. Rev. B 76, 125112 (2007).
     *
     *   G. Roman-Perez and J. M. Soler, Phys. Rev. Lett. 103, 096102 (2009).
     *
     *
     * If you are using vdW-DF2, please also cite:
     *
     *   K. Lee, E. D. Murray, L. Kong, B. I. Lundqvist, and
     *   D. C. Langreth, Phys. Rev. B 82, 081101(R) (2010).
     *
     *
     * If you are calculating the stress with vdW-DF, please also cite:
     *
     *   R. Sabatini, E. Kucukbenli, B. Kolb, T. Thonhauser, and
     *   S. de Gironcoli, J. Phys.: Condens. Matter 24, 424209 (2012).
     *
     ************************************************************************

     Carrying out vdW-DF run using the following parameters:

     Nqs =      20    Nr_points =    1024   r_max =   100.000
     q_mesh =
               0.00001000     0.04494208     0.09755937     0.15916263
               0.23128650     0.31572767     0.41458969     0.53033537
               0.66584808     0.82450364     1.01025438     1.22772762
               1.48234092     1.78043706     2.12944203     2.53805004
               3.01644009     3.57652955     4.23227104     5.00000000

     Gradients computed in reciprocal space

     ************************************************************************


 
     Adding external electric field

     Computed dipole along edir(3) : 
        Dipole               -1.4126 Ry au,         -3.5904 Debye
        Dipole field         -0.0041 Ry au
 
        Potential amp.        0.3718 Ry
        Total length         45.1039 bohr
 
     Starting wfc are  160 randomized atomic wfcs

     total cpu time spent up to now is       20.3 secs

     per-process dynamical memory:    49.7 Mb

     Self-consistent Calculation

     iteration #  1     ecut=    36.75 Ry     beta=0.30
     Davidson diagonalization with overlap
     ethr =  1.00E-02,  avg # of iterations =  2.0

     negative rho (up, down):  1.602E+00 0.000E+00
 
     Adding external electric field

     Computed dipole along edir(3) : 
        Dipole               20.0336 Ry au,         50.9202 Debye
        Dipole field          0.0585 Ry au
 
        Potential amp.       -5.2728 Ry
        Total length         45.1039 bohr
 

     total cpu time spent up to now is       57.1 secs

     total energy              =   -2298.23221309 Ry
     Harris-Foulkes estimate   =   -2326.20779101 Ry
     estimated scf accuracy    <      57.99167920 Ry

     iteration #  2     ecut=    36.75 Ry     beta=0.30
     Davidson diagonalization with overlap
     ethr =  1.00E-02,  avg # of iterations = 11.7

     negative rho (up, down):  1.598E+00 0.000E+00
 
     Adding external electric field

     Computed dipole along edir(3) : 
        Dipole               -3.5591 Ry au,         -9.0463 Debye
        Dipole field         -0.0104 Ry au
 
        Potential amp.        0.9367 Ry
        Total length         45.1039 bohr
 

     total cpu time spent up to now is      156.5 secs

     total energy              =   -2174.95009511 Ry
     Harris-Foulkes estimate   =   -2527.04770358 Ry
     estimated scf accuracy    <    9705.95236976 Ry

     iteration #  3     ecut=    36.75 Ry     beta=0.30
     Davidson diagonalization with overlap
     ethr =  1.00E-02,  avg # of iterations =  8.2

     negative rho (up, down):  1.598E+00 0.000E+00
 
     Adding external electric field

     Computed dipole along edir(3) : 
        Dipole               -2.2309 Ry au,         -5.6705 Debye
        Dipole field         -0.0065 Ry au
 
        Potential amp.        0.5872 Ry
        Total length         45.1039 bohr
 

     total cpu time spent up to now is      232.0 secs

     total energy              =   -2316.07904495 Ry
     Harris-Foulkes estimate   =   -2349.99594561 Ry
     estimated scf accuracy    <     772.99141144 Ry

     iteration #  4     ecut=    36.75 Ry     beta=0.30
     Davidson diagonalization with overlap
     ethr =  1.00E-02,  avg # of iterations =  7.1

     negative rho (up, down):  1.605E+00 0.000E+00
 
     Adding external electric field

     Computed dipole along edir(3) : 
        Dipole               -1.4639 Ry au,         -3.7208 Debye
        Dipole field         -0.0043 Ry au
 
        Potential amp.        0.3853 Ry
        Total length         45.1039 bohr
 

     total cpu time spent up to now is      292.7 secs

     total energy              =   -2325.39588865 Ry
     Harris-Foulkes estimate   =   -2327.04041457 Ry
     estimated scf accuracy    <      28.52656902 Ry

     iteration #  5     ecut=    36.75 Ry     beta=0.30
     Davidson diagonalization with overlap
     ethr =  1.00E-02,  avg # of iterations =  1.2

     negative rho (up, down):  1.613E+00 0.000E+00
 
     Adding external electric field

     Computed dipole along edir(3) : 
        Dipole               -1.5184 Ry au,         -3.8593 Debye
        Dipole field         -0.0044 Ry au
 
        Potential amp.        0.3996 Ry
        Total length         45.1039 bohr
 

     total cpu time spent up to now is      324.7 secs

     total energy              =   -2325.62848128 Ry
     Harris-Foulkes estimate   =   -2325.97073668 Ry
     estimated scf accuracy    <       6.09189192 Ry

     iteration #  6     ecut=    36.75 Ry     beta=0.30
     Davidson diagonalization with overlap
     ethr =  3.29E-03,  avg # of iterations =  3.5

     negative rho (up, down):  1.622E+00 0.000E+00
 
     Adding external electric field

     Computed dipole along edir(3) : 
        Dipole               -1.4541 Ry au,         -3.6960 Debye
        Dipole field         -0.0042 Ry au
 
        Potential amp.        0.3827 Ry
        Total length         45.1039 bohr
 

     total cpu time spent up to now is      359.6 secs

     total energy              =   -2325.68756267 Ry
     Harris-Foulkes estimate   =   -2325.90761026 Ry
     estimated scf accuracy    <       1.62939855 Ry

     iteration #  7     ecut=    36.75 Ry     beta=0.30
     Davidson diagonalization with overlap
     ethr =  8.81E-04,  avg # of iterations =  6.2

     negative rho (up, down):  1.624E+00 0.000E+00
 
     Adding external electric field

     Computed dipole along edir(3) : 
        Dipole               -1.3890 Ry au,         -3.5305 Debye
        Dipole field         -0.0041 Ry au
 
        Potential amp.        0.3656 Ry
        Total length         45.1039 bohr
 

     total cpu time spent up to now is      406.1 secs

     total energy              =   -2325.83809932 Ry
     Harris-Foulkes estimate   =   -2326.04212847 Ry
     estimated scf accuracy    <       3.63049975 Ry

     iteration #  8     ecut=    36.75 Ry     beta=0.30
     Davidson diagonalization with overlap
     ethr =  8.81E-04,  avg # of iterations =  1.8

     negative rho (up, down):  1.622E+00 0.000E+00
 
     Adding external electric field

     Computed dipole along edir(3) : 
        Dipole               -1.3289 Ry au,         -3.3777 Debye
        Dipole field         -0.0039 Ry au
 
        Potential amp.        0.3498 Ry
        Total length         45.1039 bohr
 

     total cpu time spent up to now is      438.4 secs

     total energy              =   -2325.84237128 Ry
     Harris-Foulkes estimate   =   -2325.89999191 Ry
     estimated scf accuracy    <       0.78530193 Ry

     iteration #  9     ecut=    36.75 Ry     beta=0.30
     Davidson diagonalization with overlap
     ethr =  4.24E-04,  avg # of iterations =  4.7

     negative rho (up, down):  1.621E+00 0.000E+00
 
     Adding external electric field

     Computed dipole along edir(3) : 
        Dipole               -1.2733 Ry au,         -3.2363 Debye
        Dipole field         -0.0037 Ry au
 
        Potential amp.        0.3351 Ry
        Total length         45.1039 bohr
 

     total cpu time spent up to now is      476.8 secs

     total energy              =   -2325.90218111 Ry
     Harris-Foulkes estimate   =   -2325.90808081 Ry
     estimated scf accuracy    <       0.19236884 Ry

     iteration # 10     ecut=    36.75 Ry     beta=0.30
     Davidson diagonalization with overlap
     ethr =  1.04E-04,  avg # of iterations =  4.1

     negative rho (up, down):  1.620E+00 0.000E+00
 
     Adding external electric field

     Computed dipole along edir(3) : 
        Dipole               -1.2007 Ry au,         -3.0518 Debye
        Dipole field         -0.0035 Ry au
 
        Potential amp.        0.3160 Ry
        Total length         45.1039 bohr
 

     total cpu time spent up to now is      514.3 secs

     total energy              =   -2325.90008770 Ry
     Harris-Foulkes estimate   =   -2325.91331557 Ry
     estimated scf accuracy    <       0.20674256 Ry

     iteration # 11     ecut=    36.75 Ry     beta=0.30
     Davidson diagonalization with overlap
     ethr =  1.04E-04,  avg # of iterations =  1.1

     negative rho (up, down):  1.619E+00 0.000E+00
 
     Adding external electric field

     Computed dipole along edir(3) : 
        Dipole               -1.1340 Ry au,         -2.8822 Debye
        Dipole field         -0.0033 Ry au
 
        Potential amp.        0.2985 Ry
        Total length         45.1039 bohr
 

     total cpu time spent up to now is      545.9 secs

     total energy              =   -2325.90175506 Ry
     Harris-Foulkes estimate   =   -2325.90462442 Ry
     estimated scf accuracy    <       0.02828470 Ry

     iteration # 12     ecut=    36.75 Ry     beta=0.30
     Davidson diagonalization with overlap
     c_bands:  1 eigenvalues not converged
     c_bands:  1 eigenvalues not converged
     ethr =  1.53E-05,  avg # of iterations =  7.3

     negative rho (up, down):  1.619E+00 0.000E+00
 
     Adding external electric field

     Computed dipole along edir(3) : 
        Dipole               -1.0690 Ry au,         -2.7171 Debye
        Dipole field         -0.0031 Ry au
 
        Potential amp.        0.2814 Ry
        Total length         45.1039 bohr
 

     total cpu time spent up to now is      589.5 secs

     total energy              =   -2325.90234457 Ry
     Harris-Foulkes estimate   =   -2325.90460677 Ry
     estimated scf accuracy    <       0.02080920 Ry

     iteration # 13     ecut=    36.75 Ry     beta=0.30
     Davidson diagonalization with overlap
     c_bands:  1 eigenvalues not converged
     ethr =  1.12E-05,  avg # of iterations =  3.1

     negative rho (up, down):  1.618E+00 0.000E+00
 
     Adding external electric field

     Computed dipole along edir(3) : 
        Dipole               -0.6913 Ry au,         -1.7572 Debye
        Dipole field         -0.0020 Ry au
 
        Potential amp.        0.1820 Ry
        Total length         45.1039 bohr
 

     total cpu time spent up to now is      623.7 secs

     total energy              =   -2325.89843831 Ry
     Harris-Foulkes estimate   =   -2325.90466154 Ry
     estimated scf accuracy    <       0.00785296 Ry

     iteration # 14     ecut=    36.75 Ry     beta=0.30
     Davidson diagonalization with overlap
     c_bands:  1 eigenvalues not converged
     ethr =  4.24E-06,  avg # of iterations =  6.9

     negative rho (up, down):  1.618E+00 0.000E+00
 
     Adding external electric field

     Computed dipole along edir(3) : 
        Dipole               -0.5435 Ry au,         -1.3814 Debye
        Dipole field         -0.0016 Ry au
 
        Potential amp.        0.1430 Ry
        Total length         45.1039 bohr
 

     total cpu time spent up to now is      670.4 secs

     total energy              =   -2325.89861605 Ry
     Harris-Foulkes estimate   =   -2325.90032036 Ry
     estimated scf accuracy    <       0.01965807 Ry

     iteration # 15     ecut=    36.75 Ry     beta=0.30
     Davidson diagonalization with overlap
     ethr =  4.24E-06,  avg # of iterations =  4.8

     negative rho (up, down):  1.619E+00 0.000E+00
 
     Adding external electric field

     Computed dipole along edir(3) : 
        Dipole               -0.4894 Ry au,         -1.2439 Debye
        Dipole field         -0.0014 Ry au
 
        Potential amp.        0.1288 Ry
        Total length         45.1039 bohr
 

     total cpu time spent up to now is      708.2 secs

     total energy              =   -2325.89911617 Ry
     Harris-Foulkes estimate   =   -2325.89958413 Ry
     estimated scf accuracy    <       0.00421232 Ry

     iteration # 16     ecut=    36.75 Ry     beta=0.30
     Davidson diagonalization with overlap
     ethr =  2.28E-06,  avg # of iterations =  2.1

     negative rho (up, down):  1.619E+00 0.000E+00
 
     Adding external electric field

     Computed dipole along edir(3) : 
        Dipole               -0.4682 Ry au,         -1.1901 Debye
        Dipole field         -0.0014 Ry au
 
        Potential amp.        0.1232 Ry
        Total length         45.1039 bohr
 

     total cpu time spent up to now is      741.2 secs

     total energy              =   -2325.89930200 Ry
     Harris-Foulkes estimate   =   -2325.89938071 Ry
     estimated scf accuracy    <       0.00106269 Ry

     iteration # 17     ecut=    36.75 Ry     beta=0.30
     Davidson diagonalization with overlap
     ethr =  5.74E-07,  avg # of iterations =  4.1

     negative rho (up, down):  1.619E+00 0.000E+00
 
     Adding external electric field

     Computed dipole along edir(3) : 
        Dipole               -0.4526 Ry au,         -1.1505 Debye
        Dipole field         -0.0013 Ry au
 
        Potential amp.        0.1191 Ry
        Total length         45.1039 bohr
 

     total cpu time spent up to now is      777.8 secs

     total energy              =   -2325.89936028 Ry
     Harris-Foulkes estimate   =   -2325.89939486 Ry
     estimated scf accuracy    <       0.00013605 Ry

     iteration # 18     ecut=    36.75 Ry     beta=0.30
     Davidson diagonalization with overlap
     ethr =  7.35E-08,  avg # of iterations =  5.2

     negative rho (up, down):  1.620E+00 0.000E+00
 
     Adding external electric field

     Computed dipole along edir(3) : 
        Dipole               -0.4407 Ry au,         -1.1203 Debye
        Dipole field         -0.0013 Ry au
 
        Potential amp.        0.1160 Ry
        Total length         45.1039 bohr
 

     total cpu time spent up to now is      823.6 secs

     total energy              =   -2325.89938759 Ry
     Harris-Foulkes estimate   =   -2325.89942445 Ry
     estimated scf accuracy    <       0.00007592 Ry

     iteration # 19     ecut=    36.75 Ry     beta=0.30
     Davidson diagonalization with overlap
     ethr =  4.10E-08,  avg # of iterations =  2.8

     negative rho (up, down):  1.620E+00 0.000E+00
 
     Adding external electric field

     Computed dipole along edir(3) : 
        Dipole               -0.4390 Ry au,         -1.1157 Debye
        Dipole field         -0.0013 Ry au
 
        Potential amp.        0.1155 Ry
        Total length         45.1039 bohr
 

     total cpu time spent up to now is      857.6 secs

     total energy              =   -2325.89939238 Ry
     Harris-Foulkes estimate   =   -2325.89939815 Ry
     estimated scf accuracy    <       0.00001847 Ry

     iteration # 20     ecut=    36.75 Ry     beta=0.30
     Davidson diagonalization with overlap
     ethr =  9.99E-09,  avg # of iterations =  4.6

     negative rho (up, down):  1.620E+00 0.000E+00

     negative rho (up, down):  1.620E+00 0.000E+00

     negative rho (up, down):  1.620E+00 0.000E+00

     negative rho (up, down):  1.620E+00 0.000E+00

     negative rho (up, down):  1.620E+00 0.000E+00

     negative rho (up, down):  1.620E+00 0.000E+00

     negative rho (up, down):  1.620E+00 0.000E+00

     negative rho (up, down):  1.620E+00 0.000E+00

     negative rho (up, down):  1.620E+00 0.000E+00

     negative rho (up, down):  1.620E+00 0.000E+00

     negative rho (up, down):  1.620E+00 0.000E+00

     negative rho (up, down):  1.620E+00 0.000E+00

     negative rho (up, down):  1.620E+00 0.000E+00

     negative rho (up, down):  1.620E+00 0.000E+00

     negative rho (up, down):  1.620E+00 0.000E+00

     negative rho (up, down):  1.620E+00 0.000E+00

     negative rho (up, down):  1.620E+00 0.000E+00

     negative rho (up, down):  1.620E+00 0.000E+00

     negative rho (up, down):  1.620E+00 0.000E+00

     negative rho (up, down):  1.620E+00 0.000E+00

     negative rho (up, down):  1.620E+00 0.000E+00

     negative rho (up, down):  1.620E+00 0.000E+00

     negative rho (up, down):  1.620E+00 0.000E+00

     negative rho (up, down):  1.620E+00 0.000E+00

     negative rho (up, down):  1.620E+00 0.000E+00

     negative rho (up, down):  1.620E+00 0.000E+00

     negative rho (up, down):  1.620E+00 0.000E+00

     negative rho (up, down):  1.620E+00 0.000E+00

     negative rho (up, down):  1.620E+00 0.000E+00

     negative rho (up, down):  1.620E+00 0.000E+00

     negative rho (up, down):  1.620E+00 0.000E+00

     negative rho (up, down):  1.620E+00 0.000E+00

     negative rho (up, down):  1.620E+00 0.000E+00

     negative rho (up, down):  1.620E+00 0.000E+00

     negative rho (up, down):  1.620E+00 0.000E+00
 
     Adding external electric field

     Computed dipole along edir(3) : 
        Dipole               -0.4283 Ry au,         -1.0885 Debye
        Dipole field         -0.0012 Ry au
 
        Potential amp.        0.1127 Ry
        Total length         45.1039 bohr
 

     total cpu time spent up to now is      945.4 secs

     End of self-consistent calculation

          k = 0.0000 0.0000 0.0000 ( 16091 PWs)   bands (ev):

   -78.2038 -78.1428 -78.1184 -78.1061 -78.0949 -78.0894 -78.0638 -78.0511
   -78.0284 -77.9992 -77.9954 -77.9878 -40.4580 -40.4478 -40.4377 -40.3482
   -40.2956 -40.2884 -40.2698 -40.1628 -40.1557 -40.1465 -39.9263 -39.8149
   -39.8088 -39.7992 -39.7818 -39.7802 -39.7734 -39.6981 -39.6918 -39.6880
   -39.5800 -39.5790 -39.5675 -39.5068 -39.4946 -39.4911 -39.4852 -39.4455
   -39.4425 -39.4140 -39.4099 -39.4063 -39.2911 -39.2749 -39.2124 -39.2082
    -9.4485  -6.7651  -4.8053  -4.2666  -3.8748  -3.8726  -3.8674  -3.5817
    -3.5681  -3.5648  -2.9005  -2.8870  -2.8820  -2.7200  -2.7030  -2.7007
    -1.1795  -1.1773  -1.1386  -0.1379  -0.0929  -0.0861   0.0780   0.2365
     0.5824   0.5831   0.8178   0.9406   1.0153   1.0291   1.0729   1.0735
     1.0805   1.1151   1.2971   1.3211   1.4384   1.8160   2.0919   2.1105
     2.7028   2.8735   3.0429   3.0833   3.0863   3.1258   3.6442   3.6575
     3.6818   4.2052   4.2070   4.2285   4.3338   4.4843

          k = 0.0000 0.0351 0.0000 ( 16151 PWs)   bands (ev):

   -78.1978 -78.1406 -78.1184 -78.1105 -78.0949 -78.0902 -78.0598 -78.0535
   -78.0285 -78.0023 -77.9954 -77.9894 -40.4255 -40.4045 -40.3918 -40.3285
   -40.2681 -40.2479 -40.2411 -40.1306 -40.1144 -40.1026 -39.9269 -39.8613
   -39.8419 -39.8370 -39.7729 -39.7603 -39.7464 -39.7047 -39.7010 -39.6767
   -39.6019 -39.5930 -39.5606 -39.5211 -39.5122 -39.5014 -39.4945 -39.4884
   -39.4551 -39.4457 -39.4425 -39.3948 -39.3460 -39.2879 -39.2717 -39.2220
    -9.4423  -6.4879  -4.5227  -3.9749  -3.8465  -3.6406  -3.6347  -3.4800
    -3.3744  -3.3629  -2.8004  -2.7360  -2.7204  -2.5514  -2.4197  -2.4012
    -1.1431  -1.1043  -1.0821  -0.1935  -0.0440   0.0128   0.0238   0.2112
     0.3355   0.4303   0.5132   0.7737   0.8246   0.9507   1.0783   1.1068
     1.1846   1.1876   1.2004   1.3428   1.5732   1.6790   1.8524   1.9366
     2.2879   2.4238   2.6245   2.9523   2.9718   3.1151   3.1504   3.3897
     3.4274   3.4680   3.6318   4.0293   4.2729   4.5294

          k = 0.0000 0.0702 0.0000 ( 16185 PWs)   bands (ev):

   -78.1818 -78.1411 -78.1186 -78.1180 -78.0948 -78.0911 -78.0615 -78.0464
   -78.0287 -78.0131 -77.9954 -77.9911 -40.3453 -40.3216 -40.2761 -40.2433
   -40.2049 -40.1774 -40.1751 -40.0587 -40.0361 -39.9588 -39.9456 -39.9150
   -39.9141 -39.8722 -39.7589 -39.7384 -39.7294 -39.7155 -39.7113 -39.6742
   -39.6572 -39.6448 -39.6336 -39.5754 -39.5707 -39.5578 -39.5176 -39.5116
   -39.5003 -39.4937 -39.4826 -39.4446 -39.3999 -39.3599 -39.3208 -39.2591
    -9.4309  -5.7298  -4.0292  -3.7999  -3.2384  -3.2156  -3.0691  -3.0634
    -2.8810  -2.8722  -2.5638  -2.2523  -2.2356  -2.1196  -1.6542  -1.6337
    -1.0770  -1.0431  -0.8610  -0.7810  -0.3778  -0.3154  -0.2798  -0.0024
     0.0790   0.3335   0.4149   0.5680   0.6325   0.7043   0.8418   0.8596
     1.0462   1.1964   1.3271   1.4009   1.4410   1.4911   1.6096   1.6125
     1.6978   1.7354   1.8915   1.9597   2.3079   2.3666   2.6634   2.8109
     2.9850   3.0961   3.2569   3.5493   3.7669   3.8155

          k = 0.0000-0.1052 0.0000 ( 16164 PWs)   bands (ev):

   -78.1649 -78.1537 -78.1188 -78.1179 -78.0948 -78.0913 -78.0656 -78.0302
   -78.0297 -78.0282 -77.9954 -77.9915 -40.2898 -40.2625 -40.2124 -40.2071
   -40.1659 -40.1362 -40.0553 -40.0488 -40.0091 -39.9848 -39.9718 -39.9670
   -39.8088 -39.7802 -39.7417 -39.7387 -39.7321 -39.7297 -39.7123 -39.7084
   -39.7057 -39.6973 -39.6680 -39.6606 -39.6332 -39.6206 -39.5832 -39.5613
   -39.5125 -39.5042 -39.4760 -39.4672 -39.4194 -39.3498 -39.3095 -39.3079
    -9.4257  -4.7601  -4.7410  -3.1887  -3.1803  -2.6367  -2.6283  -2.6179
    -2.6103  -2.5247  -2.5133  -1.7842  -1.7765  -1.4846  -1.4604  -1.3069
    -1.2867  -0.9208  -0.9015  -0.8342  -0.8146  -0.5011  -0.4505   0.0060
     0.0319   0.2015   0.3484   0.3749   0.4747   0.4862   0.5083   0.5207
     0.6401   0.8441   0.9085   0.9666   1.0398   1.0453   1.0836   1.5189
     1.6165   1.7746   2.0530   2.1461   2.4963   2.5020   2.5208   2.7077
     2.8261   2.8534   3.0054   3.0961   3.4174   3.4482

          k = 0.0304-0.0175 0.0000 ( 16151 PWs)   bands (ev):

   -78.1977 -78.1391 -78.1221 -78.1072 -78.0986 -78.0891 -78.0595 -78.0505
   -78.0305 -78.0013 -77.9970 -77.9887 -40.4186 -40.4149 -40.3883 -40.3283
   -40.2625 -40.2591 -40.2363 -40.1292 -40.1231 -40.0963 -39.9268 -39.8612
   -39.8412 -39.8397 -39.7658 -39.7648 -39.7465 -39.7073 -39.6996 -39.6760
   -39.5988 -39.5975 -39.5581 -39.5249 -39.5119 -39.5038 -39.4913 -39.4786
   -39.4618 -39.4449 -39.4394 -39.3983 -39.3351 -39.2999 -39.2687 -39.2252
    -9.4409  -6.4885  -4.5228  -3.9747  -3.8455  -3.6415  -3.6376  -3.4886
    -3.3692  -3.3596  -2.8027  -2.7312  -2.7246  -2.5545  -2.4123  -2.4048
    -1.1418  -1.1252  -1.0596  -0.1957  -0.0541   0.0170   0.0295   0.2094
     0.3359   0.4625   0.5175   0.7153   0.8241   0.9550   1.0606   1.1557
     1.1655   1.1907   1.2087   1.3139   1.5749   1.6629   1.8362   1.9946
     2.2844   2.4381   2.6172   2.9306   2.9864   3.0753   3.1488   3.3725
     3.4462   3.4685   3.6035   4.1464   4.2644   4.5603

          k = 0.0304 0.0175 0.0000 ( 16151 PWs)   bands (ev):

   -78.1977 -78.1391 -78.1221 -78.1072 -78.0987 -78.0891 -78.0595 -78.0505
   -78.0305 -78.0011 -77.9972 -77.9887 -40.4186 -40.4148 -40.3883 -40.3283
   -40.2624 -40.2592 -40.2363 -40.1293 -40.1229 -40.0963 -39.9268 -39.8613
   -39.8413 -39.8394 -39.7656 -39.7650 -39.7465 -39.7075 -39.6993 -39.6760
   -39.5989 -39.5974 -39.5580 -39.5249 -39.5121 -39.5038 -39.4914 -39.4784
   -39.4618 -39.4449 -39.4393 -39.3983 -39.3351 -39.2999 -39.2687 -39.2252
    -9.4409  -6.4885  -4.5228  -3.9747  -3.8455  -3.6415  -3.6376  -3.4886
    -3.3692  -3.3595  -2.8027  -2.7311  -2.7247  -2.5545  -2.4124  -2.4047
    -1.1418  -1.1253  -1.0596  -0.1957  -0.0541   0.0169   0.0295   0.2094
     0.3359   0.4624   0.5176   0.7153   0.8241   0.9550   1.0605   1.1558
     1.1655   1.1907   1.2087   1.3138   1.5749   1.6629   1.8362   1.9946
     2.2844   2.4382   2.6172   2.9305   2.9863   3.0753   3.1489   3.3724
     3.4462   3.4685   3.6034   4.1464   4.2644   4.5606

          k = 0.0304 0.0526 0.0000 ( 16230 PWs)   bands (ev):

   -78.1867 -78.1365 -78.1252 -78.1126 -78.0988 -78.0895 -78.0566 -78.0499
   -78.0303 -78.0069 -78.0003 -77.9884 -40.3738 -40.3154 -40.3128 -40.2917
   -40.2177 -40.1982 -40.1881 -40.0876 -40.0306 -40.0226 -39.9355 -39.9052
   -39.8912 -39.8837 -39.7683 -39.7368 -39.7302 -39.7198 -39.6863 -39.6805
   -39.6738 -39.5925 -39.5807 -39.5682 -39.5618 -39.5589 -39.5189 -39.4984
   -39.4847 -39.4738 -39.4341 -39.4156 -39.4116 -39.3623 -39.3197 -39.2535
    -9.4323  -5.9666  -4.0073  -3.6640  -3.6595  -3.4353  -3.1994  -3.1904
    -3.1220  -2.8816  -2.5428  -2.5385  -2.3222  -2.1427  -2.1282  -1.7660
    -1.1258  -1.0014  -0.9770  -0.5932  -0.1446  -0.1078  -0.0553  -0.0053
     0.0244   0.2003   0.4361   0.4596   0.7639   0.8373   0.9371   0.9801
     1.0763   1.1582   1.3017   1.3611   1.4445   1.5769   1.6742   1.8107
     1.9065   1.9673   2.0995   2.1498   2.4272   2.5193   2.8203   2.8545
     2.9599   3.0679   3.4191   3.7080   3.8918   3.9934

          k = 0.0304-0.1228 0.0000 ( 16218 PWs)   bands (ev):

   -78.1684 -78.1448 -78.1274 -78.1157 -78.0982 -78.0889 -78.0622 -78.0359
   -78.0301 -78.0193 -78.0041 -77.9869 -40.2883 -40.2310 -40.2288 -40.1820
   -40.1574 -40.1410 -40.1362 -40.0531 -39.9974 -39.9829 -39.9457 -39.9053
   -39.8820 -39.8240 -39.8145 -39.7528 -39.7280 -39.7202 -39.7159 -39.7113
   -39.6832 -39.6762 -39.6685 -39.6206 -39.6049 -39.5976 -39.5519 -39.5410
   -39.5197 -39.5079 -39.4527 -39.4487 -39.4413 -39.3660 -39.3583 -39.3048
    -9.4244  -5.0636  -4.1327  -3.3195  -3.2416  -2.9567  -2.7200  -2.5871
    -2.5845  -2.2753  -2.2623  -1.9811  -1.7260  -1.6406  -1.5418  -1.3756
    -1.1172  -0.9540  -0.9225  -0.8158  -0.8048  -0.5824  -0.3915  -0.2398
    -0.1910   0.0722   0.2287   0.3144   0.3897   0.4438   0.4863   0.5718
     0.6150   0.8045   0.8450   0.9869   1.2535   1.3162   1.3995   1.5556
     1.6438   1.7370   1.8723   2.1830   2.3191   2.5048   2.6418   2.6902
     2.7651   3.0023   3.0996   3.1461   3.3674   3.5007

          k = 0.0304-0.0877 0.0000 ( 16218 PWs)   bands (ev):

   -78.1684 -78.1448 -78.1274 -78.1157 -78.0981 -78.0890 -78.0622 -78.0359
   -78.0300 -78.0193 -78.0041 -77.9869 -40.2883 -40.2309 -40.2288 -40.1820
   -40.1573 -40.1409 -40.1362 -40.0531 -39.9975 -39.9829 -39.9457 -39.9053
   -39.8820 -39.8240 -39.8146 -39.7528 -39.7279 -39.7201 -39.7161 -39.7112
   -39.6831 -39.6762 -39.6685 -39.6206 -39.6049 -39.5977 -39.5519 -39.5410
   -39.5198 -39.5079 -39.4527 -39.4487 -39.4413 -39.3660 -39.3583 -39.3048
    -9.4244  -5.0636  -4.1327  -3.3195  -3.2416  -2.9567  -2.7200  -2.5871
    -2.5845  -2.2753  -2.2623  -1.9811  -1.7259  -1.6406  -1.5418  -1.3756
    -1.1172  -0.9539  -0.9225  -0.8158  -0.8048  -0.5824  -0.3916  -0.2398
    -0.1910   0.0722   0.2287   0.3144   0.3897   0.4438   0.4863   0.5719
     0.6150   0.8045   0.8449   0.9870   1.2535   1.3162   1.3995   1.5556
     1.6438   1.7370   1.8723   2.1829   2.3192   2.5050   2.6417   2.6901
     2.7652   3.0023   3.0997   3.1461   3.3675   3.5006

          k = 0.0304-0.0526 0.0000 ( 16230 PWs)   bands (ev):

   -78.1867 -78.1365 -78.1253 -78.1125 -78.0987 -78.0895 -78.0566 -78.0499
   -78.0303 -78.0071 -78.0001 -77.9885 -40.3739 -40.3154 -40.3128 -40.2917
   -40.2177 -40.1981 -40.1882 -40.0876 -40.0307 -40.0225 -39.9355 -39.9052
   -39.8911 -39.8838 -39.7683 -39.7366 -39.7304 -39.7198 -39.6862 -39.6806
   -39.6738 -39.5925 -39.5807 -39.5682 -39.5617 -39.5588 -39.5188 -39.4983
   -39.4849 -39.4738 -39.4341 -39.4156 -39.4116 -39.3623 -39.3197 -39.2535
    -9.4323  -5.9666  -4.0073  -3.6640  -3.6595  -3.4353  -3.1995  -3.1903
    -3.1220  -2.8816  -2.5428  -2.5385  -2.3222  -2.1427  -2.1282  -1.7660
    -1.1259  -1.0013  -0.9770  -0.5932  -0.1446  -0.1078  -0.0553  -0.0053
     0.0243   0.2003   0.4361   0.4596   0.7639   0.8373   0.9372   0.9802
     1.0762   1.1582   1.3017   1.3611   1.4445   1.5769   1.6742   1.8108
     1.9065   1.9673   2.0995   2.1499   2.4273   2.5193   2.8203   2.8546
     2.9598   3.0680   3.4190   3.7080   3.8918   3.9933

          k = 0.0608-0.0351 0.0000 ( 16185 PWs)   bands (ev):

   -78.1813 -78.1362 -78.1295 -78.1108 -78.1026 -78.0905 -78.0505 -78.0460
   -78.0350 -78.0121 -77.9978 -77.9895 -40.3350 -40.3326 -40.2750 -40.2426
   -40.1954 -40.1911 -40.1738 -40.0546 -40.0501 -39.9573 -39.9417 -39.9191
   -39.9137 -39.8708 -39.7486 -39.7455 -39.7305 -39.7177 -39.7104 -39.6713
   -39.6589 -39.6423 -39.6315 -39.5812 -39.5629 -39.5534 -39.5180 -39.5087
   -39.5002 -39.4911 -39.4736 -39.4424 -39.3971 -39.3622 -39.3390 -39.2623
    -9.4269  -5.7321  -4.0332  -3.8011  -3.2451  -3.2150  -3.0697  -3.0664
    -2.8778  -2.8696  -2.5681  -2.2440  -2.2408  -2.1191  -1.6510  -1.6378
    -1.0775  -1.0459  -0.8506  -0.7879  -0.3709  -0.2971  -0.2755  -0.0104
     0.0800   0.3163   0.4012   0.5588   0.6563   0.7205   0.7734   0.8837
     1.0623   1.1856   1.2778   1.3766   1.4225   1.4745   1.6045   1.6165
     1.7105   1.7753   1.8409   2.0773   2.3041   2.4058   2.4965   2.8187
     3.0350   3.1502   3.2606   3.6024   3.6873   3.8315

          k = 0.0608 0.0000 0.0000 ( 16230 PWs)   bands (ev):

   -78.1864 -78.1314 -78.1299 -78.1149 -78.1001 -78.0896 -78.0515 -78.0471
   -78.0353 -78.0040 -78.0037 -77.9879 -40.3719 -40.3227 -40.3070 -40.2916
   -40.2174 -40.1990 -40.1890 -40.0908 -40.0346 -40.0183 -39.9353 -39.9052
   -39.8905 -39.8856 -39.7673 -39.7369 -39.7318 -39.7202 -39.6889 -39.6772
   -39.6727 -39.6001 -39.5788 -39.5652 -39.5583 -39.5500 -39.5160 -39.4896
   -39.4870 -39.4799 -39.4277 -39.4156 -39.4136 -39.3596 -39.3326 -39.2566
    -9.4297  -5.9680  -4.0074  -3.6670  -3.6575  -3.4350  -3.2058  -3.1911
    -3.1253  -2.8770  -2.5491  -2.5337  -2.3210  -2.1502  -2.1247  -1.7649
    -1.1336  -0.9886  -0.9748  -0.5977  -0.1437  -0.0966  -0.0549  -0.0020
     0.0269   0.1951   0.4335   0.4417   0.8097   0.8298   0.9324   0.9652
     1.0937   1.1382   1.2693   1.3313   1.4281   1.6169   1.6515   1.7674
     1.9083   2.0426   2.1004   2.2137   2.2315   2.5412   2.7484   2.9447
     3.0408   3.0843   3.4866   3.7848   3.8704   3.9173

          k = 0.0608 0.0351 0.0000 ( 16185 PWs)   bands (ev):

   -78.1813 -78.1362 -78.1294 -78.1108 -78.1028 -78.0904 -78.0504 -78.0460
   -78.0350 -78.0120 -77.9980 -77.9894 -40.3351 -40.3324 -40.2750 -40.2426
   -40.1953 -40.1913 -40.1738 -40.0549 -40.0499 -39.9574 -39.9416 -39.9194
   -39.9133 -39.8708 -39.7483 -39.7458 -39.7307 -39.7178 -39.7101 -39.6709
   -39.6594 -39.6423 -39.6315 -39.5812 -39.5629 -39.5534 -39.5180 -39.5086
   -39.5004 -39.4909 -39.4736 -39.4424 -39.3971 -39.3622 -39.3390 -39.2623
    -9.4269  -5.7321  -4.0332  -3.8011  -3.2451  -3.2150  -3.0698  -3.0663
    -2.8778  -2.8696  -2.5681  -2.2440  -2.2409  -2.1191  -1.6512  -1.6377
    -1.0774  -1.0461  -0.8506  -0.7879  -0.3709  -0.2971  -0.2755  -0.0103
     0.0800   0.3164   0.4012   0.5589   0.6563   0.7205   0.7733   0.8837
     1.0622   1.1856   1.2778   1.3767   1.4225   1.4745   1.6046   1.6164
     1.7106   1.7754   1.8409   2.0773   2.3041   2.4058   2.4965   2.8186
     3.0351   3.1503   3.2606   3.6024   3.6873   3.8315

          k = 0.0608-0.1403 0.0000 ( 16218 PWs)   bands (ev):

   -78.1675 -78.1437 -78.1307 -78.1100 -78.1067 -78.0887 -78.0543 -78.0364
   -78.0338 -78.0182 -78.0052 -77.9865 -40.2862 -40.2340 -40.2275 -40.1789
   -40.1534 -40.1452 -40.1406 -40.0538 -39.9966 -39.9807 -39.9626 -39.9073
   -39.8807 -39.8212 -39.8031 -39.7515 -39.7266 -39.7216 -39.7130 -39.7128
   -39.6888 -39.6754 -39.6664 -39.6161 -39.6121 -39.5891 -39.5505 -39.5406
   -39.5144 -39.5086 -39.4502 -39.4461 -39.4360 -39.3772 -39.3663 -39.3063
    -9.4218  -5.0654  -4.1370  -3.3176  -3.2442  -2.9607  -2.7167  -2.5880
    -2.5843  -2.2750  -2.2648  -1.9783  -1.7240  -1.6380  -1.5426  -1.3764
    -1.1189  -0.9555  -0.9237  -0.8164  -0.8003  -0.5772  -0.3880  -0.2403
    -0.1853   0.0538   0.2458   0.3199   0.3725   0.4294   0.4797   0.5683
     0.6251   0.7870   0.8452   0.9723   1.2517   1.3043   1.3720   1.5514
     1.6546   1.7985   1.8830   2.1674   2.3256   2.5327   2.6022   2.6286
     2.8047   3.0288   3.1086   3.1436   3.3658   3.5178

          k = 0.0608-0.1052 0.0000 ( 16272 PWs)   bands (ev):

   -78.1535 -78.1480 -78.1395 -78.1102 -78.1069 -78.0870 -78.0571 -78.0337
   -78.0253 -78.0209 -78.0152 -77.9846 -40.1848 -40.1816 -40.1789 -40.1761
   -40.1643 -40.1083 -40.1006 -40.0959 -40.0891 -39.9218 -39.9014 -39.8594
   -39.8528 -39.8471 -39.8293 -39.7842 -39.7802 -39.7716 -39.7228 -39.7169
   -39.7112 -39.7047 -39.6759 -39.6124 -39.6040 -39.5923 -39.5757 -39.5216
   -39.5138 -39.5022 -39.4661 -39.4500 -39.4281 -39.3825 -39.3792 -39.3760
    -9.4193  -4.1396  -4.1319  -4.1203  -2.7113  -2.7020  -2.6861  -2.0759
    -2.0627  -1.9731  -1.7630  -1.7524  -1.7488  -1.4968  -1.4930  -1.4863
    -1.1443  -1.1372  -0.9154  -0.8609  -0.8567  -0.7002  -0.6316  -0.6078
    -0.2617  -0.2145  -0.2079  -0.0914  -0.0193  -0.0037   0.1959   0.5180
     0.5865   0.7645   0.7749   1.0935   1.2297   1.2518   1.4229   1.5195
     1.5364   1.6929   1.9467   1.9807   2.3152   2.3724   2.6582   2.8604
     2.8872   3.0100   3.1022   3.2200   3.4906   3.5621

          k = 0.0608-0.0702 0.0000 ( 16218 PWs)   bands (ev):

   -78.1675 -78.1438 -78.1307 -78.1104 -78.1063 -78.0888 -78.0544 -78.0364
   -78.0338 -78.0183 -78.0051 -77.9866 -40.2862 -40.2340 -40.2275 -40.1789
   -40.1534 -40.1451 -40.1406 -40.0538 -39.9966 -39.9805 -39.9627 -39.9073
   -39.8808 -39.8212 -39.8031 -39.7515 -39.7266 -39.7217 -39.7131 -39.7126
   -39.6888 -39.6753 -39.6664 -39.6160 -39.6121 -39.5890 -39.5505 -39.5406
   -39.5145 -39.5085 -39.4503 -39.4461 -39.4360 -39.3772 -39.3663 -39.3063
    -9.4218  -5.0654  -4.1370  -3.3176  -3.2442  -2.9607  -2.7167  -2.5880
    -2.5843  -2.2750  -2.2648  -1.9783  -1.7240  -1.6380  -1.5426  -1.3764
    -1.1189  -0.9555  -0.9238  -0.8164  -0.8003  -0.5773  -0.3880  -0.2403
    -0.1853   0.0539   0.2457   0.3200   0.3725   0.4294   0.4797   0.5683
     0.6251   0.7869   0.8452   0.9723   1.2517   1.3043   1.3720   1.5514
     1.6546   1.7985   1.8830   2.1674   2.3256   2.5327   2.6022   2.6286
     2.8047   3.0288   3.1088   3.1436   3.3659   3.5177

          k =-0.0911 0.0526 0.0000 ( 16164 PWs)   bands (ev):

   -78.1609 -78.1561 -78.1190 -78.1179 -78.1039 -78.0915 -78.0486 -78.0383
   -78.0323 -78.0257 -77.9979 -77.9897 -40.2782 -40.2742 -40.2127 -40.2030
   -40.1547 -40.1528 -40.0586 -40.0480 -40.0029 -40.0002 -39.9767 -39.9707
   -39.8079 -39.7811 -39.7467 -39.7373 -39.7264 -39.7228 -39.7134 -39.7046
   -39.7025 -39.6927 -39.6670 -39.6561 -39.6235 -39.6206 -39.5730 -39.5688
   -39.5119 -39.5023 -39.4760 -39.4647 -39.3915 -39.3905 -39.3156 -39.3094
    -9.4204  -4.7639  -4.7459  -3.2018  -3.1759  -2.6373  -2.6305  -2.6164
    -2.6090  -2.5235  -2.5162  -1.7820  -1.7723  -1.4796  -1.4668  -1.2993
    -1.2927  -0.9238  -0.8901  -0.8286  -0.8141  -0.4900  -0.4599  -0.0201
     0.0631   0.1913   0.2645   0.4427   0.4784   0.4805   0.5093   0.5614
     0.5976   0.7941   0.9091   0.9699   0.9943   1.0394   1.0675   1.5843
     1.6206   1.6623   2.1131   2.2620   2.4884   2.4932   2.5766   2.6023
     2.6949   2.9732   2.9980   3.1520   3.4362   3.4385

          k =-0.0911 0.0877 0.0000 ( 16218 PWs)   bands (ev):

   -78.1668 -78.1455 -78.1250 -78.1188 -78.1038 -78.0891 -78.0496 -78.0386
   -78.0349 -78.0178 -78.0056 -77.9864 -40.2856 -40.2321 -40.2294 -40.1786
   -40.1537 -40.1463 -40.1411 -40.0554 -39.9974 -39.9812 -39.9593 -39.9067
   -39.8793 -39.8242 -39.8148 -39.7531 -39.7248 -39.7197 -39.7147 -39.7098
   -39.6831 -39.6767 -39.6602 -39.6143 -39.6036 -39.5926 -39.5510 -39.5386
   -39.5168 -39.5079 -39.4499 -39.4470 -39.4352 -39.3839 -39.3649 -39.3084
    -9.4205  -5.0669  -4.1363  -3.3191  -3.2430  -2.9616  -2.7191  -2.5882
    -2.5840  -2.2775  -2.2634  -1.9791  -1.7223  -1.6410  -1.5417  -1.3767
    -1.1217  -0.9514  -0.9246  -0.8129  -0.7993  -0.5793  -0.3872  -0.2401
    -0.1832   0.0428   0.2374   0.3126   0.4051   0.4408   0.4778   0.5741
     0.6092   0.8188   0.8558   0.9816   1.1306   1.2702   1.4052   1.5279
     1.6493   1.8039   1.9282   2.2166   2.3020   2.4552   2.6093   2.6820
     2.8163   3.0330   3.1035   3.1725   3.4287   3.5026

          k =-0.0911 0.1228 0.0000 ( 16218 PWs)   bands (ev):

   -78.1668 -78.1454 -78.1250 -78.1187 -78.1039 -78.0890 -78.0495 -78.0387
   -78.0349 -78.0177 -78.0058 -77.9864 -40.2856 -40.2320 -40.2295 -40.1785
   -40.1536 -40.1464 -40.1411 -40.0554 -39.9974 -39.9814 -39.9591 -39.9067
   -39.8791 -39.8242 -39.8149 -39.7532 -39.7249 -39.7198 -39.7146 -39.7097
   -39.6830 -39.6768 -39.6601 -39.6144 -39.6036 -39.5926 -39.5511 -39.5386
   -39.5168 -39.5079 -39.4499 -39.4470 -39.4352 -39.3839 -39.3649 -39.3084
    -9.4205  -5.0669  -4.1363  -3.3191  -3.2430  -2.9616  -2.7191  -2.5882
    -2.5840  -2.2775  -2.2634  -1.9791  -1.7223  -1.6410  -1.5418  -1.3767
    -1.1217  -0.9514  -0.9246  -0.8129  -0.7993  -0.5792  -0.3872  -0.2401
    -0.1832   0.0428   0.2375   0.3125   0.4051   0.4408   0.4777   0.5742
     0.6092   0.8188   0.8557   0.9817   1.1307   1.2702   1.4051   1.5279
     1.6493   1.8039   1.9281   2.2166   2.3021   2.4552   2.6093   2.6819
     2.8164   3.0330   3.1035   3.1725   3.4287   3.5026

          k =-0.0911-0.0526 0.0000 ( 16164 PWs)   bands (ev):

   -78.1610 -78.1559 -78.1193 -78.1174 -78.1042 -78.0914 -78.0485 -78.0384
   -78.0324 -78.0256 -77.9981 -77.9896 -40.2784 -40.2739 -40.2127 -40.2030
   -40.1544 -40.1531 -40.0590 -40.0477 -40.0029 -40.0005 -39.9767 -39.9704
   -39.8068 -39.7821 -39.7473 -39.7370 -39.7266 -39.7221 -39.7135 -39.7046
   -39.7024 -39.6931 -39.6671 -39.6560 -39.6233 -39.6208 -39.5732 -39.5686
   -39.5122 -39.5020 -39.4761 -39.4646 -39.3919 -39.3901 -39.3157 -39.3092
    -9.4204  -4.7640  -4.7459  -3.2018  -3.1759  -2.6373  -2.6305  -2.6164
    -2.6089  -2.5234  -2.5163  -1.7820  -1.7723  -1.4798  -1.4666  -1.2994
    -1.2926  -0.9239  -0.8900  -0.8285  -0.8141  -0.4898  -0.4601  -0.0202
     0.0631   0.1913   0.2644   0.4427   0.4785   0.4804   0.5092   0.5614
     0.5976   0.7941   0.9091   0.9699   0.9943   1.0395   1.0675   1.5843
     1.6206   1.6623   2.1130   2.2620   2.4882   2.4934   2.5766   2.6025
     2.6949   2.9730   2.9980   3.1521   3.4362   3.4383

     the Fermi energy is     2.4325 ev

!    total energy              =   -2325.89938878 Ry
     Harris-Foulkes estimate   =   -2325.89942149 Ry
     estimated scf accuracy    <       0.00000630 Ry

     The total energy is the sum of the following terms:

     one-electron contribution =  -18699.54069993 Ry
     hartree contribution      =    9334.05491584 Ry
     xc contribution           =    -654.40575045 Ry
     ewald contribution        =    7694.06110448 Ry
     electric field correction =       0.00053514 Ry
     smearing contrib. (-TS)   =      -0.06949387 Ry

     convergence has been achieved in  20 iterations
 
 BEEF-vdW xc energy contributions
           1 :   -581.695835495479     
           2 :    540.611763375604     
           3 :   -466.958783166423     
           4 :    374.804424671140     
           5 :   -279.570673817047     
           6 :    194.139194057454     
           7 :   -126.274968040699     
           8 :    77.9316340312942     
           9 :   -46.3749355159889     
          10 :    26.4356093698094     
          11 :   -12.9124017707328     
          12 :    2.25598458222578     
          13 :    6.88255189357051     
          14 :   -14.1310841640720     
          15 :    18.4408185202896     
          16 :   -19.1490967413538     
          17 :    16.6175197065772     
          18 :   -12.2454977271152     
          19 :    7.94309282326367     
          20 :   -5.36700798702691     
          21 :    5.28694966327021     
          22 :   -7.35669127609333     
          23 :    10.3607183172271     
          24 :   -12.8015526327185     
          25 :    13.5565929220642     
          26 :   -12.3172430764319     
          27 :    9.63546385458835     
          28 :   -6.59546732362423     
          29 :    4.28893054785499     
          30 :   -3.34442720624793     
          31 :   -48.4899442307104     
          32 :   -35.9525268528369     

     Forces acting on atoms (Ry/au):


     negative rho (up, down):  1.620E+00 0.000E+00
     atom    1 type  1   force =     0.00003069    0.00112729    0.02086243
     atom    2 type  1   force =    -0.00002444   -0.00249483    0.02259695
     atom    3 type  1   force =    -0.00338433    0.00056520    0.02463260
     atom    4 type  1   force =     0.00335107    0.00060540    0.02462074
     atom    5 type  1   force =     0.00243709    0.00197512   -0.00275985
     atom    6 type  1   force =    -0.00243127    0.00203419   -0.00280576
     atom    7 type  1   force =     0.00007688   -0.00618171   -0.02848222
     atom    8 type  1   force =    -0.00006621   -0.00053002    0.00554550
     atom    9 type  1   force =     0.01461449    0.00899903    0.07803905
     atom   10 type  1   force =    -0.01463406    0.00904366    0.07810818
     atom   11 type  1   force =     0.00004336   -0.00508956   -0.00843848
     atom   12 type  1   force =    -0.00002831   -0.00933849   -0.01890683
     atom   13 type  2   force =     0.00001505   -0.00071529   -0.19301233

     Total force =     0.231696     Total SCF correction =     0.015590


     entering subroutine stress ...


     negative rho (up, down):  1.620E+00 0.000E+00
          total   stress  (Ry/bohr**3)                   (kbar)     P=  -37.20
  -0.00018858  -0.00000003  -0.00000001        -27.74     -0.01     -0.00
  -0.00000003  -0.00018847   0.00000231         -0.01    -27.73      0.34
  -0.00000001   0.00000231  -0.00038156         -0.00      0.34    -56.13

 !ASE

     Writing output data file calc.save
 
     init_run     :     14.44s CPU     19.91s WALL (       1 calls)
     electrons    :    688.91s CPU    925.19s WALL (       1 calls)
     forces       :      5.74s CPU      6.36s WALL (       1 calls)
     stress       :     19.21s CPU     20.50s WALL (       1 calls)

     Called by init_run:
     wfcinit      :     11.37s CPU     16.21s WALL (       1 calls)
     potinit      :      1.23s CPU      1.66s WALL (       1 calls)

     Called by electrons:
     c_bands      :    525.43s CPU    704.00s WALL (      20 calls)
     sum_band     :     86.98s CPU    119.04s WALL (      20 calls)
     v_of_rho     :     21.19s CPU     30.56s WALL (      21 calls)
     newd         :     23.67s CPU     24.22s WALL (      21 calls)
     mix_rho      :      0.81s CPU      1.19s WALL (      20 calls)
     vdW_energy   :      2.58s CPU      2.80s WALL (      57 calls)
     vdW_ffts     :     34.20s CPU     52.05s WALL (     116 calls)
     vdW_v        :      6.53s CPU      9.19s WALL (      57 calls)

     Called by c_bands:
     init_us_2    :      1.60s CPU      1.66s WALL (     860 calls)
     cegterg      :    506.69s CPU    684.37s WALL (     400 calls)

     Called by *egterg:
     h_psi        :    325.39s CPU    489.95s WALL (    2270 calls)
     s_psi        :     21.18s CPU     21.20s WALL (    2270 calls)
     g_psi        :      0.72s CPU      0.72s WALL (    1850 calls)
     cdiaghg      :    105.03s CPU    108.25s WALL (    2250 calls)

     Called by h_psi:
     add_vuspsi   :     21.77s CPU     21.85s WALL (    2270 calls)

     General routines
     calbec       :     42.66s CPU     50.66s WALL (    2710 calls)
     fft          :     52.85s CPU     80.44s WALL (    3489 calls)
     ffts         :      0.16s CPU      0.26s WALL (      41 calls)
     fftw         :    310.23s CPU    496.56s WALL (  263220 calls)
     interpolate  :      0.73s CPU      1.15s WALL (      41 calls)
     davcio       :      0.01s CPU      0.03s WALL (      20 calls)
 
     Parallel routines
     fft_scatter  :    320.34s CPU    532.20s WALL (  266750 calls)
 
     PWSCF        : 12m 9.02s CPU    16m13.26s WALL

 
   This run was terminated on:  14: 4:44  15Jan2018            

=------------------------------------------------------------------------------=
   JOB DONE.
=------------------------------------------------------------------------------=
Job  /afs/slac/g/suncat/bin/suncat-tsmpirun -x LD_LIBRARY_PATH -wdir /scratch/qe842473_9Wyuw pw.x -in pw.inp

TID   HOST_NAME   COMMAND_LINE            STATUS            TERMINATION_TIME
===== ========== ================  =======================  ===================
00000 suncat0050 pw.x -in pw.inp   Done                     01/15/2018 14:04:44
00001 suncat0050 pw.x -in pw.inp   Done                     01/15/2018 14:04:44
00002 suncat0050 pw.x -in pw.inp   Done                     01/15/2018 14:04:44
00003 suncat0050 pw.x -in pw.inp   Done                     01/15/2018 14:04:44
00004 suncat0050 pw.x -in pw.inp   Done                     01/15/2018 14:04:44
00005 suncat0050 pw.x -in pw.inp   Done                     01/15/2018 14:04:44
00006 suncat0050 pw.x -in pw.inp   Done                     01/15/2018 14:04:44
00007 suncat0050 pw.x -in pw.inp   Done                     01/15/2018 14:04:44
00008 suncat0242 pw.x -in pw.inp   Done                     01/15/2018 14:04:44
00009 suncat0242 pw.x -in pw.inp   Done                     01/15/2018 14:04:44
00010 suncat0242 pw.x -in pw.inp   Done                     01/15/2018 14:04:44
00011 suncat0242 pw.x -in pw.inp   Done                     01/15/2018 14:04:44
00012 suncat0242 pw.x -in pw.inp   Done                     01/15/2018 14:04:44
00013 suncat0242 pw.x -in pw.inp   Done                     01/15/2018 14:04:44
00014 suncat0242 pw.x -in pw.inp   Done                     01/15/2018 14:04:44
00015 suncat0242 pw.x -in pw.inp   Done                     01/15/2018 14:04:44
00016 suncat0241 pw.x -in pw.inp   Done                     01/15/2018 14:04:44
00017 suncat0241 pw.x -in pw.inp   Done                     01/15/2018 14:04:44
00018 suncat0241 pw.x -in pw.inp   Done                     01/15/2018 14:04:44
00019 suncat0241 pw.x -in pw.inp   Done                     01/15/2018 14:04:44
00020 suncat0241 pw.x -in pw.inp   Done                     01/15/2018 14:04:44
00021 suncat0241 pw.x -in pw.inp   Done                     01/15/2018 14:04:44
00022 suncat0241 pw.x -in pw.inp   Done                     01/15/2018 14:04:44
00023 suncat0241 pw.x -in pw.inp   Done                     01/15/2018 14:04:44
00024 suncat0240 pw.x -in pw.inp   Done                     01/15/2018 14:04:44
00025 suncat0240 pw.x -in pw.inp   Done                     01/15/2018 14:04:44
00026 suncat0240 pw.x -in pw.inp   Done                     01/15/2018 14:04:44
00027 suncat0240 pw.x -in pw.inp   Done                     01/15/2018 14:04:44
00028 suncat0240 pw.x -in pw.inp   Done                     01/15/2018 14:04:44
00029 suncat0240 pw.x -in pw.inp   Done                     01/15/2018 14:04:44
00030 suncat0240 pw.x -in pw.inp   Done                     01/15/2018 14:04:44
00031 suncat0240 pw.x -in pw.inp   Done                     01/15/2018 14:04:44

     Program PWSCF v.5.1rc2 (svn rev. 11289) starts on 15Jan2018 at 14: 4:50 

     This program is part of the open-source Quantum ESPRESSO suite
     for quantum simulation of materials; please cite
         "P. Giannozzi et al., J. Phys.:Condens. Matter 21 395502 (2009);
          URL http://www.quantum-espresso.org", 
     in publications or presentations arising from this work. More details at
     http://www.quantum-espresso.org/quote

     Parallel version (MPI), running on    32 processors
     R & G space division:  proc/nbgrp/npool/nimage =      32
     Reading input from pw.inp
     Message from routine read_cards :
     DEPRECATED: no units specified in CELL_PARAMETERS card

     Current dimensions of program PWSCF are:
     Max number of different atomic species (ntypx) = 10
     Max number of k-points (npk) =  40000
     Max angular momentum in pseudopotentials (lmaxx) =  3
     Presently stress not available with electric field


     **************************************************************************
     Initializing libbeef V0.1.1 with the BEEF-vdW functional.
     Citation: Wellendorff et al., PRB 85, 235149 (2012).
     **************************************************************************


     IMPORTANT: XC functional enforced from input :
     Exchange-correlation      = BEEF-VDW ( 1  4 27 13 2)
     Any further DFT definition will be discarded
     Please, verify this is what you really want


     Subspace diagonalization in iterative solution of the eigenvalue problem:
     a serial algorithm will be used

 
     Parallelization info
     --------------------
     sticks:   dense  smooth     PW     G-vecs:    dense   smooth      PW
     Min          84      33      9                16000     4018     623
     Max          85      34     10                16029     4064     652
     Sum        2713    1075    313               512659   129281   20533
 


     bravais-lattice index     =            0
     lattice parameter (alat)  =       1.8897  a.u.
     unit-cell volume          =    4306.9643 (a.u.)^3
     number of atoms/cell      =           13
     number of atomic types    =            2
     number of electrons       =       185.00
     number of Kohn-Sham states=          102
     kinetic-energy cutoff     =      36.7493  Ry
     charge density cutoff     =     367.4932  Ry
     convergence threshold     =      1.0E-05
     mixing beta               =       0.3000
     number of iterations used =           10  plain     mixing
     Exchange-correlation      = BEEF-VDW ( 1  4 27 13 2)
     nstep                     =           50


     celldm(1)=   1.889726  celldm(2)=   0.000000  celldm(3)=   0.000000
     celldm(4)=   0.000000  celldm(5)=   0.000000  celldm(6)=   0.000000

     crystal axes: (cart. coord. in units of alat)
               a(1) = (   5.486772   0.000000   0.000000 )  
               a(2) = (   2.743386   4.751684   0.000000 )  
               a(3) = (   0.000000   0.000000  24.479931 )  

     reciprocal axes: (cart. coord. in units 2 pi/alat)
               b(1) = (  0.182257 -0.105226  0.000000 )  
               b(2) = (  0.000000  0.210452  0.000000 )  
               b(3) = (  0.000000  0.000000  0.040850 )  


     PseudoPot. # 1 for Re read from file:
     /afs/slac.stanford.edu/u/if/mamunm/psp/gbrv1.5pbe/Re.UPF
     MD5 check sum: 85f993410f3e006da9d71c142b4ad953
     Pseudo is Ultrasoft + core correction, Zval = 15.0
     Generated by new atomic code, or converted to UPF format
     Using radial grid of  981 points,  8 beta functions with: 
                l(1) =   0
                l(2) =   0
                l(3) =   1
                l(4) =   1
                l(5) =   2
                l(6) =   2
                l(7) =   3
                l(8) =   3
     Q(r) pseudized with  8 coefficients,  rinner =    1.150   1.150   1.150
                                                       1.150   1.150   1.150
                                                       1.150

     PseudoPot. # 2 for N  read from file:
     /afs/slac.stanford.edu/u/if/mamunm/psp/gbrv1.5pbe/N.UPF
     MD5 check sum: 95339753478d7afb44899504a8723017
     Pseudo is Ultrasoft + core correction, Zval =  5.0
     Generated by new atomic code, or converted to UPF format
     Using radial grid of  729 points,  4 beta functions with: 
                l(1) =   0
                l(2) =   0
                l(3) =   1
                l(4) =   1
     Q(r) pseudized with  8 coefficients,  rinner =    0.900   0.900   0.900


     vdW kernel table read from file vdW_kernel_table
     MD5 check sum: 095c7af220d748ca6e76c0b4c6cfb241

     atomic species   valence    mass     pseudopotential
        Re1           15.00   186.20700     Re( 1.00)
        N1             5.00    14.00700     N ( 1.00)

     No symmetry found



   Cartesian axes

     site n.     atom                  positions (alat units)
         1           Re1 tau(   1) = (   1.3716930   0.7919474  10.0000000  )
         2           Re1 tau(   2) = (   4.1150791   0.7919474  10.0000000  )
         3           Re1 tau(   3) = (   2.7433861   3.1677894  10.0000000  )
         4           Re1 tau(   4) = (   5.4867722   3.1677894  10.0000000  )
         5           Re1 tau(   5) = (   5.4867722   1.5838947  12.2399654  )
         6           Re1 tau(   6) = (   2.7433861   1.5838947  12.2399654  )
         7           Re1 tau(   7) = (   6.8584652   3.9597368  12.2399654  )
         8           Re1 tau(   8) = (   4.1150791   3.9597368  12.2399654  )
         9           Re1 tau(   9) = (   0.0374212   0.0230425  14.6797537  )
        10           Re1 tau(  10) = (   2.7059148   0.0231568  14.6799307  )
        11           Re1 tau(  11) = (   1.3718041   2.3628100  14.4583236  )
        12           Re1 tau(  12) = (   4.1150067   2.3519304  14.4315188  )
        13           N1  tau(  13) = (   4.1151177   4.7498526  16.2057128  )

     number of k points=    20  Fermi-Dirac smearing, width (Ry)=  0.0110
                       cart. coord. in units 2pi/alat
        k(    1) = (   0.0000000   0.0000000   0.0000000), wk =   0.0555556
        k(    2) = (   0.0000000   0.0350753   0.0000000), wk =   0.1111111
        k(    3) = (   0.0000000   0.0701506   0.0000000), wk =   0.1111111
        k(    4) = (   0.0000000  -0.1052259   0.0000000), wk =   0.0555556
        k(    5) = (   0.0303761  -0.0175376   0.0000000), wk =   0.1111111
        k(    6) = (   0.0303761   0.0175376   0.0000000), wk =   0.1111111
        k(    7) = (   0.0303761   0.0526129   0.0000000), wk =   0.1111111
        k(    8) = (   0.0303761  -0.1227635   0.0000000), wk =   0.1111111
        k(    9) = (   0.0303761  -0.0876882   0.0000000), wk =   0.1111111
        k(   10) = (   0.0303761  -0.0526129   0.0000000), wk =   0.1111111
        k(   11) = (   0.0607522  -0.0350753   0.0000000), wk =   0.1111111
        k(   12) = (   0.0607522   0.0000000   0.0000000), wk =   0.1111111
        k(   13) = (   0.0607522   0.0350753   0.0000000), wk =   0.1111111
        k(   14) = (   0.0607522  -0.1403011   0.0000000), wk =   0.1111111
        k(   15) = (   0.0607522  -0.1052259   0.0000000), wk =   0.1111111
        k(   16) = (   0.0607522  -0.0701506   0.0000000), wk =   0.1111111
        k(   17) = (  -0.0911283   0.0526129   0.0000000), wk =   0.0555556
        k(   18) = (  -0.0911283   0.0876882   0.0000000), wk =   0.1111111
        k(   19) = (  -0.0911283   0.1227635   0.0000000), wk =   0.1111111
        k(   20) = (  -0.0911283  -0.0526129   0.0000000), wk =   0.0555556

     Dense  grid:   512659 G-vectors     FFT dimensions: (  64,  64, 288)

     Smooth grid:   129281 G-vectors     FFT dimensions: (  45,  45, 180)

     Largest allocated arrays     est. size (Mb)     dimensions
        Kohn-Sham Wavefunctions         0.80 Mb     (     516,  102)
        NL pseudopotentials             3.09 Mb     (     516,  392)
        Each V/rho on FFT grid          0.56 Mb     (   36864)
        Each G-vector array             0.12 Mb     (   16029)
        G-vector shells                 0.06 Mb     (    7603)
     Largest temporary arrays     est. size (Mb)     dimensions
        Auxiliary wavefunctions         3.21 Mb     (     516,  408)
        Each subspace H/S matrix        2.54 Mb     (     408,  408)
        Each <psi_i|beta_j> matrix      0.61 Mb     (     392,  102)
        Arrays for rho mixing           5.62 Mb     (   36864,   10)

     Initial potential from superposition of free atoms
     Check: negative starting charge=   -1.540782

     starting charge  178.99945, renormalised to  185.00000

     negative rho (up, down):  1.592E+00 0.000E+00


     ************************************************************************
     *
     * You are using vdW-DF for exchange-correlation in this calculation.
     * Please cite the following three references that made this development
     * possible:
     *
     *   M. Dion, H. Rydberg, E. Schroder, D. C. Langreth, and
     *   B. I. Lundqvist, Phys. Rev. Lett. 92, 246401 (2004).
     *
     *   T. Thonhauser, V. R. Cooper, S. Li, A. Puzder, P. Hyldgaard, and
     *   D. C. Langreth, Phys. Rev. B 76, 125112 (2007).
     *
     *   G. Roman-Perez and J. M. Soler, Phys. Rev. Lett. 103, 096102 (2009).
     *
     *
     * If you are using vdW-DF2, please also cite:
     *
     *   K. Lee, E. D. Murray, L. Kong, B. I. Lundqvist, and
     *   D. C. Langreth, Phys. Rev. B 82, 081101(R) (2010).
     *
     *
     * If you are calculating the stress with vdW-DF, please also cite:
     *
     *   R. Sabatini, E. Kucukbenli, B. Kolb, T. Thonhauser, and
     *   S. de Gironcoli, J. Phys.: Condens. Matter 24, 424209 (2012).
     *
     ************************************************************************

     Carrying out vdW-DF run using the following parameters:

     Nqs =      20    Nr_points =    1024   r_max =   100.000
     q_mesh =
               0.00001000     0.04494208     0.09755937     0.15916263
               0.23128650     0.31572767     0.41458969     0.53033537
               0.66584808     0.82450364     1.01025438     1.22772762
               1.48234092     1.78043706     2.12944203     2.53805004
               3.01644009     3.57652955     4.23227104     5.00000000

     Gradients computed in reciprocal space

     ************************************************************************


 
     Adding external electric field

     Computed dipole along edir(3) : 
        Dipole               -1.2474 Ry au,         -3.1705 Debye
        Dipole field         -0.0036 Ry au
 
        Potential amp.        0.3283 Ry
        Total length         45.1039 bohr
 
     Starting wfc are  160 randomized atomic wfcs

     total cpu time spent up to now is       20.7 secs

     per-process dynamical memory:    49.3 Mb

     Self-consistent Calculation

     iteration #  1     ecut=    36.75 Ry     beta=0.30
     Davidson diagonalization with overlap
     ethr =  1.00E-02,  avg # of iterations =  2.0

     negative rho (up, down):  1.613E+00 0.000E+00
 
     Adding external electric field

     Computed dipole along edir(3) : 
        Dipole               15.8897 Ry au,         40.3877 Debye
        Dipole field          0.0464 Ry au
 
        Potential amp.       -4.1821 Ry
        Total length         45.1039 bohr
 

     total cpu time spent up to now is       57.2 secs

     total energy              =   -2306.49394149 Ry
     Harris-Foulkes estimate   =   -2326.88401229 Ry
     estimated scf accuracy    <      42.20426066 Ry

     iteration #  2     ecut=    36.75 Ry     beta=0.30
     Davidson diagonalization with overlap
     ethr =  1.00E-02,  avg # of iterations = 11.3

     negative rho (up, down):  1.615E+00 0.000E+00
 
     Adding external electric field

     Computed dipole along edir(3) : 
        Dipole               -2.8320 Ry au,         -7.1982 Debye
        Dipole field         -0.0083 Ry au
 
        Potential amp.        0.7454 Ry
        Total length         45.1039 bohr
 

     total cpu time spent up to now is      144.3 secs

     total energy              =   -2280.50712211 Ry
     Harris-Foulkes estimate   =   -2458.09034979 Ry
     estimated scf accuracy    <    3529.66974007 Ry

     iteration #  3     ecut=    36.75 Ry     beta=0.30
     Davidson diagonalization with overlap
     ethr =  1.00E-02,  avg # of iterations =  7.5

     negative rho (up, down):  1.606E+00 0.000E+00
 
     Adding external electric field

     Computed dipole along edir(3) : 
        Dipole               -2.4227 Ry au,         -6.1579 Debye
        Dipole field         -0.0071 Ry au
 
        Potential amp.        0.6377 Ry
        Total length         45.1039 bohr
 

     total cpu time spent up to now is      213.3 secs

     total energy              =   -2318.17106554 Ry
     Harris-Foulkes estimate   =   -2343.57173390 Ry
     estimated scf accuracy    <     545.13186083 Ry

     iteration #  4     ecut=    36.75 Ry     beta=0.30
     Davidson diagonalization with overlap
     ethr =  1.00E-02,  avg # of iterations =  5.8

     negative rho (up, down):  1.609E+00 0.000E+00
 
     Adding external electric field

     Computed dipole along edir(3) : 
        Dipole               -1.4724 Ry au,         -3.7424 Debye
        Dipole field         -0.0043 Ry au
 
        Potential amp.        0.3875 Ry
        Total length         45.1039 bohr
 

     total cpu time spent up to now is      267.1 secs

     total energy              =   -2325.67825332 Ry
     Harris-Foulkes estimate   =   -2326.94532557 Ry
     estimated scf accuracy    <      15.88037556 Ry

     iteration #  5     ecut=    36.75 Ry     beta=0.30
     Davidson diagonalization with overlap
     ethr =  8.58E-03,  avg # of iterations =  1.0

     negative rho (up, down):  1.622E+00 0.000E+00
 
     Adding external electric field

     Computed dipole along edir(3) : 
        Dipole               -1.5350 Ry au,         -3.9017 Debye
        Dipole field         -0.0045 Ry au
 
        Potential amp.        0.4040 Ry
        Total length         45.1039 bohr
 

     total cpu time spent up to now is      298.7 secs

     total energy              =   -2325.97324974 Ry
     Harris-Foulkes estimate   =   -2326.20362324 Ry
     estimated scf accuracy    <       0.73189253 Ry

     iteration #  6     ecut=    36.75 Ry     beta=0.30
     Davidson diagonalization with overlap
     ethr =  3.96E-04,  avg # of iterations =  6.0

     negative rho (up, down):  1.627E+00 0.000E+00
 
     Adding external electric field

     Computed dipole along edir(3) : 
        Dipole               -1.4781 Ry au,         -3.7570 Debye
        Dipole field         -0.0043 Ry au
 
        Potential amp.        0.3890 Ry
        Total length         45.1039 bohr
 

     total cpu time spent up to now is      352.9 secs

     total energy              =   -2326.10857759 Ry
     Harris-Foulkes estimate   =   -2326.25084356 Ry
     estimated scf accuracy    <       1.24653415 Ry

     iteration #  7     ecut=    36.75 Ry     beta=0.30
     Davidson diagonalization with overlap
     ethr =  3.96E-04,  avg # of iterations =  3.3

     negative rho (up, down):  1.625E+00 0.000E+00
 
     Adding external electric field

     Computed dipole along edir(3) : 
        Dipole               -1.3842 Ry au,         -3.5184 Debye
        Dipole field         -0.0040 Ry au
 
        Potential amp.        0.3643 Ry
        Total length         45.1039 bohr
 

     total cpu time spent up to now is      387.6 secs

     total energy              =   -2326.13731862 Ry
     Harris-Foulkes estimate   =   -2326.16964779 Ry
     estimated scf accuracy    <       0.52063221 Ry

     iteration #  8     ecut=    36.75 Ry     beta=0.30
     Davidson diagonalization with overlap
     ethr =  2.81E-04,  avg # of iterations =  1.9

     negative rho (up, down):  1.623E+00 0.000E+00
 
     Adding external electric field

     Computed dipole along edir(3) : 
        Dipole               -1.2494 Ry au,         -3.1756 Debye
        Dipole field         -0.0036 Ry au
 
        Potential amp.        0.3288 Ry
        Total length         45.1039 bohr
 

     total cpu time spent up to now is      420.3 secs

     total energy              =   -2326.15262271 Ry
     Harris-Foulkes estimate   =   -2326.15927856 Ry
     estimated scf accuracy    <       0.06319961 Ry

     iteration #  9     ecut=    36.75 Ry     beta=0.30
     Davidson diagonalization with overlap
     ethr =  3.42E-05,  avg # of iterations =  6.2

     negative rho (up, down):  1.623E+00 0.000E+00
 
     Adding external electric field

     Computed dipole along edir(3) : 
        Dipole               -1.1548 Ry au,         -2.9352 Debye
        Dipole field         -0.0034 Ry au
 
        Potential amp.        0.3039 Ry
        Total length         45.1039 bohr
 

     total cpu time spent up to now is      469.9 secs

     total energy              =   -2326.15808208 Ry
     Harris-Foulkes estimate   =   -2326.16769260 Ry
     estimated scf accuracy    <       0.26540487 Ry

     iteration # 10     ecut=    36.75 Ry     beta=0.30
     Davidson diagonalization with overlap
     ethr =  3.42E-05,  avg # of iterations =  1.0

     negative rho (up, down):  1.622E+00 0.000E+00
 
     Adding external electric field

     Computed dipole along edir(3) : 
        Dipole               -1.0185 Ry au,         -2.5888 Debye
        Dipole field         -0.0030 Ry au
 
        Potential amp.        0.2681 Ry
        Total length         45.1039 bohr
 

     total cpu time spent up to now is      501.0 secs

     total energy              =   -2326.15318651 Ry
     Harris-Foulkes estimate   =   -2326.16035293 Ry
     estimated scf accuracy    <       0.09641749 Ry

     iteration # 11     ecut=    36.75 Ry     beta=0.30
     Davidson diagonalization with overlap
     ethr =  3.42E-05,  avg # of iterations =  1.0

     negative rho (up, down):  1.622E+00 0.000E+00
 
     Adding external electric field

     Computed dipole along edir(3) : 
        Dipole               -0.9332 Ry au,         -2.3718 Debye
        Dipole field         -0.0027 Ry au
 
        Potential amp.        0.2456 Ry
        Total length         45.1039 bohr
 

     total cpu time spent up to now is      532.3 secs

     total energy              =   -2326.15240048 Ry
     Harris-Foulkes estimate   =   -2326.15476419 Ry
     estimated scf accuracy    <       0.02612057 Ry

     iteration # 12     ecut=    36.75 Ry     beta=0.30
     Davidson diagonalization with overlap
     ethr =  1.41E-05,  avg # of iterations =  4.4

     negative rho (up, down):  1.622E+00 0.000E+00
 
     Adding external electric field

     Computed dipole along edir(3) : 
        Dipole               -0.7190 Ry au,         -1.8274 Debye
        Dipole field         -0.0021 Ry au
 
        Potential amp.        0.1892 Ry
        Total length         45.1039 bohr
 

     total cpu time spent up to now is      567.8 secs

     total energy              =   -2326.14956478 Ry
     Harris-Foulkes estimate   =   -2326.15379016 Ry
     estimated scf accuracy    <       0.01673801 Ry

     iteration # 13     ecut=    36.75 Ry     beta=0.30
     Davidson diagonalization with overlap
     ethr =  9.05E-06,  avg # of iterations =  3.1

     negative rho (up, down):  1.621E+00 0.000E+00
 
     Adding external electric field

     Computed dipole along edir(3) : 
        Dipole               -0.2989 Ry au,         -0.7597 Debye
        Dipole field         -0.0009 Ry au
 
        Potential amp.        0.0787 Ry
        Total length         45.1039 bohr
 

     total cpu time spent up to now is      601.8 secs

     total energy              =   -2326.14718000 Ry
     Harris-Foulkes estimate   =   -2326.15114109 Ry
     estimated scf accuracy    <       0.01399644 Ry

     iteration # 14     ecut=    36.75 Ry     beta=0.30
     Davidson diagonalization with overlap
     ethr =  7.57E-06,  avg # of iterations =  4.5

     negative rho (up, down):  1.621E+00 0.000E+00
 
     Adding external electric field

     Computed dipole along edir(3) : 
        Dipole               -0.3021 Ry au,         -0.7679 Debye
        Dipole field         -0.0009 Ry au
 
        Potential amp.        0.0795 Ry
        Total length         45.1039 bohr
 

     total cpu time spent up to now is      639.8 secs

     total energy              =   -2326.14800395 Ry
     Harris-Foulkes estimate   =   -2326.14828720 Ry
     estimated scf accuracy    <       0.00169577 Ry

     iteration # 15     ecut=    36.75 Ry     beta=0.30
     Davidson diagonalization with overlap
     ethr =  9.17E-07,  avg # of iterations =  6.9

     negative rho (up, down):  1.622E+00 0.000E+00
 
     Adding external electric field

     Computed dipole along edir(3) : 
        Dipole               -0.2724 Ry au,         -0.6924 Debye
        Dipole field         -0.0008 Ry au
 
        Potential amp.        0.0717 Ry
        Total length         45.1039 bohr
 

     total cpu time spent up to now is      685.7 secs

     total energy              =   -2326.14821396 Ry
     Harris-Foulkes estimate   =   -2326.14830493 Ry
     estimated scf accuracy    <       0.00051258 Ry

     iteration # 16     ecut=    36.75 Ry     beta=0.30
     Davidson diagonalization with overlap
     ethr =  2.77E-07,  avg # of iterations =  4.2

     negative rho (up, down):  1.622E+00 0.000E+00
 
     Adding external electric field

     Computed dipole along edir(3) : 
        Dipole               -0.2504 Ry au,         -0.6363 Debye
        Dipole field         -0.0007 Ry au
 
        Potential amp.        0.0659 Ry
        Total length         45.1039 bohr
 

     total cpu time spent up to now is      727.0 secs

     total energy              =   -2326.14825962 Ry
     Harris-Foulkes estimate   =   -2326.14835024 Ry
     estimated scf accuracy    <       0.00054528 Ry

     iteration # 17     ecut=    36.75 Ry     beta=0.30
     Davidson diagonalization with overlap
     ethr =  2.77E-07,  avg # of iterations =  3.8

     negative rho (up, down):  1.622E+00 0.000E+00
 
     Adding external electric field

     Computed dipole along edir(3) : 
        Dipole               -0.2347 Ry au,         -0.5966 Debye
        Dipole field         -0.0007 Ry au
 
        Potential amp.        0.0618 Ry
        Total length         45.1039 bohr
 

     total cpu time spent up to now is      763.5 secs

     total energy              =   -2326.14831732 Ry
     Harris-Foulkes estimate   =   -2326.14834180 Ry
     estimated scf accuracy    <       0.00018478 Ry

     iteration # 18     ecut=    36.75 Ry     beta=0.30
     Davidson diagonalization with overlap
     ethr =  9.99E-08,  avg # of iterations =  1.8

     negative rho (up, down):  1.622E+00 0.000E+00
 
     Adding external electric field

     Computed dipole along edir(3) : 
        Dipole               -0.2328 Ry au,         -0.5917 Debye
        Dipole field         -0.0007 Ry au
 
        Potential amp.        0.0613 Ry
        Total length         45.1039 bohr
 

     total cpu time spent up to now is      796.0 secs

     total energy              =   -2326.14831575 Ry
     Harris-Foulkes estimate   =   -2326.14832729 Ry
     estimated scf accuracy    <       0.00008674 Ry

     iteration # 19     ecut=    36.75 Ry     beta=0.30
     Davidson diagonalization with overlap
     ethr =  4.69E-08,  avg # of iterations =  1.8

     negative rho (up, down):  1.622E+00 0.000E+00

     negative rho (up, down):  1.622E+00 0.000E+00

     negative rho (up, down):  1.622E+00 0.000E+00

     negative rho (up, down):  1.622E+00 0.000E+00

     negative rho (up, down):  1.622E+00 0.000E+00

     negative rho (up, down):  1.622E+00 0.000E+00

     negative rho (up, down):  1.622E+00 0.000E+00

     negative rho (up, down):  1.622E+00 0.000E+00

     negative rho (up, down):  1.622E+00 0.000E+00

     negative rho (up, down):  1.622E+00 0.000E+00

[...]

   -77.6462 -77.5969 -77.5867 -77.5792 -77.5518 -77.5276 -77.5160 -77.4949
   -77.4528 -77.4431 -77.4327 -77.3940 -39.8776 -39.8157 -39.7768 -39.7660
   -39.7303 -39.6855 -39.6795 -39.5553 -39.5046 -39.4859 -39.4066 -39.3785
   -39.3686 -39.3478 -39.2449 -39.2102 -39.1884 -39.1801 -39.1576 -39.1285
   -39.1194 -39.0681 -39.0368 -39.0317 -39.0242 -38.9903 -38.9666 -38.9516
   -38.9452 -38.9080 -38.8671 -38.8594 -38.8516 -38.7988 -38.7756 -38.6998
   -12.1863  -5.4126  -3.6394  -3.3512  -3.2757  -2.9957  -2.9455  -2.8290
    -2.6865  -2.5937  -2.3316  -2.1342  -2.0628  -1.8794  -1.7706  -1.5163
    -1.2830  -1.1618  -0.4443  -0.3311  -0.2468  -0.0769   0.1838   0.4700
     0.5020   0.5823   0.6245   0.6794   0.9718   1.0777   1.3491   1.3817
     1.4699   1.5629   1.6562   1.7959   1.8778   2.0820   2.1517   2.3065
     2.4310   2.5701   2.6350   2.7307   2.8426   3.0232   3.3099   3.4503
     3.5948   4.0857   4.2120   4.3824   4.5003   4.8501

          k = 0.0608-0.0351 0.0000 ( 16185 PWs)   bands (ev):

   -77.6419 -77.5996 -77.5855 -77.5785 -77.5536 -77.5284 -77.5168 -77.4912
   -77.4573 -77.4409 -77.4341 -77.3942 -39.8500 -39.7842 -39.7835 -39.7267
   -39.6966 -39.6662 -39.6605 -39.5354 -39.4970 -39.4549 -39.4100 -39.3920
   -39.3797 -39.3402 -39.2359 -39.2244 -39.1856 -39.1794 -39.1757 -39.1324
   -39.1248 -39.0888 -39.0807 -39.0435 -39.0219 -39.0016 -38.9753 -38.9546
   -38.9457 -38.9183 -38.9132 -38.9005 -38.8259 -38.8123 -38.7765 -38.7063
   -12.1661  -5.1948  -3.7674  -3.3210  -2.9880  -2.8561  -2.8170  -2.6822
    -2.5417  -2.4222  -2.2407  -1.9733  -1.9607  -1.7646  -1.6690  -1.3790
    -1.2154  -1.0228  -0.4408  -0.2907  -0.2714  -0.2285   0.0608   0.3424
     0.3767   0.3861   0.6118   0.7556   1.0381   1.0486   1.2076   1.3151
     1.3391   1.5171   1.6586   1.8160   1.9587   1.9768   2.0810   2.1521
     2.2356   2.2424   2.4227   2.5311   2.8520   2.8787   3.2209   3.2783
     3.6179   4.0350   4.0826   4.1531   4.3898   4.5203

          k = 0.0608 0.0000 0.0000 ( 16230 PWs)   bands (ev):

   -77.6463 -77.5966 -77.5864 -77.5797 -77.5517 -77.5277 -77.5159 -77.4950
   -77.4526 -77.4434 -77.4326 -77.3940 -39.8777 -39.8157 -39.7768 -39.7660
   -39.7303 -39.6854 -39.6796 -39.5553 -39.5044 -39.4860 -39.4066 -39.3785
   -39.3688 -39.3478 -39.2447 -39.2101 -39.1883 -39.1801 -39.1576 -39.1285
   -39.1194 -39.0681 -39.0368 -39.0319 -39.0244 -38.9904 -38.9665 -38.9515
   -38.9453 -38.9080 -38.8670 -38.8594 -38.8516 -38.7988 -38.7755 -38.6998
   -12.1863  -5.4126  -3.6394  -3.3513  -3.2751  -2.9958  -2.9460  -2.8285
    -2.6867  -2.5937  -2.3316  -2.1343  -2.0622  -1.8795  -1.7710  -1.5163
    -1.2825  -1.1623  -0.4441  -0.3314  -0.2468  -0.0774   0.1839   0.4698
     0.5020   0.5828   0.6248   0.6790   0.9718   1.0765   1.3486   1.3817
     1.4697   1.5627   1.6564   1.7961   1.8780   2.0826   2.1516   2.3071
     2.4312   2.5697   2.6360   2.7300   2.8432   3.0230   3.3100   3.4507
     3.5947   4.0855   4.2125   4.3822   4.5003   4.8494

          k = 0.0608 0.0351 0.0000 ( 16185 PWs)   bands (ev):

   -77.6420 -77.5991 -77.5851 -77.5794 -77.5534 -77.5287 -77.5166 -77.4912
   -77.4574 -77.4407 -77.4343 -77.3942 -39.8502 -39.7843 -39.7835 -39.7265
   -39.6967 -39.6666 -39.6600 -39.5355 -39.4968 -39.4545 -39.4101 -39.3924
   -39.3794 -39.3401 -39.2355 -39.2246 -39.1860 -39.1792 -39.1757 -39.1321
   -39.1246 -39.0889 -39.0808 -39.0433 -39.0221 -39.0017 -38.9757 -38.9546
   -38.9457 -38.9186 -38.9133 -38.9005 -38.8260 -38.8123 -38.7762 -38.7063
   -12.1659  -5.1949  -3.7674  -3.3211  -2.9888  -2.8562  -2.8167  -2.6827
    -2.5407  -2.4223  -2.2408  -1.9736  -1.9595  -1.7647  -1.6695  -1.3797
    -1.2158  -1.0225  -0.4403  -0.2906  -0.2723  -0.2285   0.0612   0.3431
     0.3760   0.3854   0.6112   0.7574   1.0365   1.0499   1.2063   1.3144
     1.3391   1.5187   1.6591   1.8158   1.9592   1.9764   2.0805   2.1524
     2.2350   2.2427   2.4219   2.5329   2.8525   2.8783   3.2223   3.2780
     3.6171   4.0337   4.0829   4.1536   4.3893   4.5201

          k = 0.0608-0.1403 0.0000 ( 16218 PWs)   bands (ev):

   -77.6309 -77.6062 -77.5821 -77.5793 -77.5541 -77.5366 -77.5148 -77.4814
   -77.4626 -77.4486 -77.4310 -77.3946 -39.7801 -39.7353 -39.6940 -39.6820
   -39.6555 -39.6222 -39.5951 -39.5218 -39.4895 -39.4505 -39.4291 -39.4112
   -39.3621 -39.3147 -39.2745 -39.2398 -39.2133 -39.1815 -39.1678 -39.1557
   -39.1358 -39.1137 -39.0945 -39.0816 -39.0664 -39.0416 -39.0067 -38.9914
   -38.9658 -38.9453 -38.9128 -38.8818 -38.8574 -38.8167 -38.8026 -38.7512
   -12.1250  -4.5923  -3.7928  -3.1935  -2.8507  -2.6220  -2.4211  -2.3040
    -2.2064  -2.0872  -1.9043  -1.7588  -1.5651  -1.4230  -1.2908  -1.1926
    -0.9889  -0.8615  -0.6140  -0.4787  -0.3722  -0.2756  -0.1574   0.0418
     0.1809   0.2416   0.4059   0.5512   0.6980   0.8365   0.9075   0.9898
     1.0813   1.1276   1.2166   1.3842   1.5607   1.7137   1.8389   2.0052
     2.1108   2.3230   2.4488   2.5431   2.9311   3.0530   3.1568   3.2174
     3.5183   3.6562   3.7302   3.8537   4.2176   4.3292

          k = 0.0608-0.1052 0.0000 ( 16272 PWs)   bands (ev):

   -77.6194 -77.6151 -77.5839 -77.5765 -77.5497 -77.5459 -77.5133 -77.4736
   -77.4609 -77.4601 -77.4290 -77.3948 -39.7141 -39.6663 -39.6491 -39.6400
   -39.6380 -39.6279 -39.5587 -39.5492 -39.5472 -39.4754 -39.4260 -39.3458
   -39.3264 -39.3098 -39.2976 -39.2437 -39.2367 -39.2291 -39.1955 -39.1802
   -39.1702 -39.1178 -39.1019 -39.0752 -39.0618 -39.0419 -39.0169 -39.0101
   -38.9807 -38.9417 -38.8932 -38.8782 -38.8586 -38.8246 -38.8169 -38.8166
   -12.1044  -3.9847  -3.6529  -3.5762  -2.8573  -2.4972  -2.1737  -2.0091
    -2.0037  -1.7912  -1.5052  -1.4735  -1.2795  -1.2715  -1.0443  -1.0155
    -0.9558  -0.8676  -0.7432  -0.6148  -0.6084  -0.4137  -0.3311  -0.0444
     0.0163   0.1514   0.2350   0.2514   0.2967   0.4598   0.5164   0.5696
     0.8903   0.9122   1.3211   1.3360   1.4769   1.7634   1.8180   1.9253
     2.0872   2.3129   2.4252   2.6743   2.6894   2.8308   3.3015   3.4690
     3.5898   3.6207   3.9512   4.0553   4.0605   4.5755

          k = 0.0608-0.0702 0.0000 ( 16218 PWs)   bands (ev):

   -77.6305 -77.6072 -77.5811 -77.5796 -77.5544 -77.5362 -77.5149 -77.4814
   -77.4625 -77.4488 -77.4309 -77.3946 -39.7798 -39.7350 -39.6939 -39.6824
   -39.6556 -39.6217 -39.5951 -39.5219 -39.4898 -39.4505 -39.4294 -39.4115
   -39.3621 -39.3155 -39.2746 -39.2396 -39.2128 -39.1817 -39.1677 -39.1559
   -39.1357 -39.1137 -39.0944 -39.0814 -39.0664 -39.0413 -39.0067 -38.9914
   -38.9658 -38.9453 -38.9126 -38.8816 -38.8574 -38.8169 -38.8028 -38.7512
   -12.1251  -4.5921  -3.7929  -3.1926  -2.8509  -2.6225  -2.4219  -2.3036
    -2.2055  -2.0883  -1.9040  -1.7592  -1.5642  -1.4230  -1.2907  -1.1917
    -0.9886  -0.8618  -0.6142  -0.4790  -0.3720  -0.2764  -0.1575   0.0423
     0.1814   0.2411   0.4068   0.5506   0.6998   0.8363   0.9071   0.9889
     1.0815   1.1271   1.2168   1.3847   1.5606   1.7139   1.8384   2.0049
     2.1110   2.3227   2.4485   2.5418   2.9314   3.0528   3.1566   3.2172
     3.5180   3.6577   3.7310   3.8535   4.2181   4.3308

          k =-0.0911 0.0526 0.0000 ( 16164 PWs)   bands (ev):

   -77.6288 -77.6106 -77.5793 -77.5783 -77.5579 -77.5321 -77.5168 -77.4788
   -77.4690 -77.4417 -77.4341 -77.3946 -39.7805 -39.7341 -39.7276 -39.6872
   -39.6652 -39.6198 -39.5262 -39.5043 -39.4906 -39.4615 -39.4282 -39.4246
   -39.3997 -39.2949 -39.2406 -39.2072 -39.1978 -39.1915 -39.1623 -39.1461
   -39.1382 -39.1359 -39.1068 -39.0837 -39.0760 -39.0576 -39.0431 -39.0133
   -38.9520 -38.9517 -38.9200 -38.8925 -38.8660 -38.8020 -38.7579 -38.7520
   -12.1253  -4.4264  -4.1962  -3.2201  -2.6507  -2.5184  -2.4227  -2.2331
    -2.1424  -2.0533  -2.0279  -2.0126  -1.4552  -1.3597  -1.2120  -1.1798
    -0.9260  -0.8453  -0.8383  -0.4510  -0.3285  -0.1921  -0.1861  -0.0149
     0.1631   0.3670   0.5545   0.7062   0.8901   0.9209   0.9856   1.0400
     1.0952   1.1855   1.2383   1.4066   1.5046   1.5421   1.6422   1.8809
     2.0117   2.2538   2.3526   2.8269   2.9836   3.0213   3.1061   3.2687
     3.4055   3.4949   3.7399   3.8186   3.9991   4.1202

          k =-0.0911 0.0877 0.0000 ( 16218 PWs)   bands (ev):

   -77.6306 -77.6069 -77.5818 -77.5791 -77.5544 -77.5363 -77.5149 -77.4815
   -77.4624 -77.4489 -77.4309 -77.3946 -39.7799 -39.7351 -39.6939 -39.6823
   -39.6556 -39.6217 -39.5951 -39.5219 -39.4896 -39.4506 -39.4296 -39.4116
   -39.3620 -39.3147 -39.2745 -39.2398 -39.2133 -39.1816 -39.1678 -39.1560
   -39.1356 -39.1137 -39.0943 -39.0817 -39.0665 -39.0411 -39.0068 -38.9915
   -38.9658 -38.9452 -38.9126 -38.8815 -38.8574 -38.8169 -38.8027 -38.7512
   -12.1251  -4.5920  -3.7931  -3.1924  -2.8505  -2.6224  -2.4222  -2.3040
    -2.2054  -2.0881  -1.9039  -1.7596  -1.5641  -1.4231  -1.2901  -1.1923
    -0.9883  -0.8618  -0.6143  -0.4790  -0.3720  -0.2757  -0.1577   0.0418
     0.1810   0.2413   0.4070   0.5502   0.6999   0.8360   0.9069   0.9890
     1.0812   1.1270   1.2168   1.3845   1.5602   1.7144   1.8389   2.0048
     2.1109   2.3229   2.4485   2.5419   2.9315   3.0532   3.1566   3.2173
     3.5185   3.6569   3.7308   3.8538   4.2185   4.3302

          k =-0.0911 0.1228 0.0000 ( 16218 PWs)   bands (ev):

   -77.6309 -77.6063 -77.5820 -77.5794 -77.5541 -77.5365 -77.5148 -77.4814
   -77.4625 -77.4487 -77.4309 -77.3946 -39.7801 -39.7352 -39.6941 -39.6820
   -39.6555 -39.6222 -39.5950 -39.5218 -39.4896 -39.4505 -39.4291 -39.4111
   -39.3621 -39.3150 -39.2746 -39.2398 -39.2131 -39.1816 -39.1676 -39.1557
   -39.1357 -39.1139 -39.0943 -39.0817 -39.0664 -39.0414 -39.0068 -38.9913
   -38.9658 -38.9456 -38.9125 -38.8815 -38.8575 -38.8168 -38.8026 -38.7512
   -12.1250  -4.5922  -3.7929  -3.1931  -2.8508  -2.6220  -2.4213  -2.3045
    -2.2063  -2.0870  -1.9042  -1.7584  -1.5649  -1.4234  -1.2908  -1.1924
    -0.9889  -0.8610  -0.6140  -0.4788  -0.3719  -0.2762  -0.1574   0.0415
     0.1808   0.2418   0.4058   0.5518   0.6976   0.8364   0.9071   0.9894
     1.0814   1.1276   1.2164   1.3835   1.5613   1.7135   1.8390   2.0057
     2.1111   2.3231   2.4488   2.5422   2.9315   3.0533   3.1571   3.2177
     3.5179   3.6565   3.7307   3.8528   4.2177   4.3304

          k =-0.0911-0.0526 0.0000 ( 16164 PWs)   bands (ev):

   -77.6295 -77.6093 -77.5794 -77.5790 -77.5575 -77.5326 -77.5166 -77.4787
   -77.4692 -77.4415 -77.4342 -77.3946 -39.7810 -39.7341 -39.7277 -39.6869
   -39.6651 -39.6203 -39.5262 -39.5042 -39.4907 -39.4614 -39.4282 -39.4244
   -39.3981 -39.2952 -39.2410 -39.2073 -39.1983 -39.1911 -39.1622 -39.1463
   -39.1378 -39.1357 -39.1068 -39.0838 -39.0762 -39.0575 -39.0436 -39.0132
   -38.9520 -38.9518 -38.9205 -38.8926 -38.8659 -38.8017 -38.7579 -38.7520
   -12.1251  -4.4271  -4.1955  -3.2211  -2.6506  -2.5189  -2.4218  -2.2339
    -2.1432  -2.0527  -2.0283  -2.0104  -1.4558  -1.3609  -1.2114  -1.1813
    -0.9237  -0.8465  -0.8381  -0.4510  -0.3289  -0.1914  -0.1859  -0.0141
     0.1606   0.3684   0.5534   0.7066   0.8866   0.9196   0.9885   1.0391
     1.0955   1.1850   1.2404   1.4059   1.5042   1.5424   1.6421   1.8851
     2.0095   2.2558   2.3523   2.8265   2.9841   3.0203   3.1072   3.2690
     3.4071   3.4955   3.7390   3.8116   4.0010   4.1197

     the Fermi energy is     2.9860 ev

!    total energy              =   -2326.25954772 Ry
     Harris-Foulkes estimate   =   -2326.25954913 Ry
     estimated scf accuracy    <       0.00000106 Ry

     The total energy is the sum of the following terms:

     one-electron contribution =  -19118.60394763 Ry
     hartree contribution      =    9546.39132376 Ry
     xc contribution           =    -655.20531640 Ry
     ewald contribution        =    7901.22091399 Ry
     electric field correction =       0.00000192 Ry
     smearing contrib. (-TS)   =      -0.06252335 Ry

     convergence has been achieved in  20 iterations
 
 BEEF-vdW xc energy contributions
           1 :   -582.504479776976     
           2 :    541.666380910353     
           3 :   -468.297568473817     
           4 :    376.241311659770     
           5 :   -280.817259276727     
           6 :    194.944781728985     
           7 :   -126.528617083338     
           8 :    77.6973728384728     
           9 :   -45.8544884067503     
          10 :    25.8790430827992     
          11 :   -12.5163616253851     
          12 :    2.09748605129971     
          13 :    6.84804132380577     
          14 :   -14.0202485147031     
          15 :    18.3751135390239     
          16 :   -19.1966437090859     
          17 :    16.7665229471199     
          18 :   -12.4204782048735     
          19 :    8.05197161729234     
          20 :   -5.35223705274802     
          21 :    5.15508479303230     
          22 :   -7.17406423779721     
          23 :    10.2210288585458     
          24 :   -12.7824655744785     
          25 :    13.6833223346280     
          26 :   -12.5509448629982     
          27 :    9.89343863644035     
          28 :   -6.78982473602730     
          29 :    4.36352660728289     
          30 :   -3.29481815080089     
          31 :   -48.5419174205554     
          32 :   -36.0586982894526     

     Forces acting on atoms (Ry/au):


     negative rho (up, down):  1.625E+00 0.000E+00
     atom    1 type  1   force =    -0.00005072    0.00253637    0.01796712
     atom    2 type  1   force =     0.00005273   -0.00003142    0.02304330
     atom    3 type  1   force =    -0.00219807   -0.00127792    0.01795253
     atom    4 type  1   force =     0.00221338   -0.00133921    0.01800161
     atom    5 type  1   force =     0.00236442    0.00139566   -0.02822680
     atom    6 type  1   force =    -0.00245356    0.00144304   -0.02851713
     atom    7 type  1   force =    -0.00001205   -0.00290418   -0.02840115
     atom    8 type  1   force =    -0.00008163   -0.00016446    0.00819695
     atom    9 type  1   force =    -0.00004687    0.00070890   -0.00020202
     atom   10 type  1   force =    -0.00027589   -0.00068312    0.00017063
     atom   11 type  1   force =    -0.00075653    0.00012005    0.00087884
     atom   12 type  1   force =     0.00104617   -0.00008195   -0.00029421
     atom   13 type  2   force =     0.00019861    0.00027826   -0.00056966

     Total force =     0.063496     Total SCF correction =     0.006708
     SCF correction compared to forces is large: reduce conv_thr to get better values


     entering subroutine stress ...


     negative rho (up, down):  1.625E+00 0.000E+00
          total   stress  (Ry/bohr**3)                   (kbar)     P=  -11.64
  -0.00006326   0.00000004   0.00000021         -9.31      0.01      0.03
   0.00000004  -0.00006310   0.00000055          0.01     -9.28      0.08
   0.00000021   0.00000055  -0.00011105          0.03      0.08    -16.34

 !ASE

     Writing output data file calc.save
 
     init_run     :     14.46s CPU     20.54s WALL (       1 calls)
     electrons    :    650.50s CPU    883.46s WALL (       1 calls)
     forces       :      5.61s CPU      6.41s WALL (       1 calls)
     stress       :     18.82s CPU     19.91s WALL (       1 calls)

     Called by init_run:
     wfcinit      :     11.24s CPU     16.34s WALL (       1 calls)
     potinit      :      1.12s CPU      1.67s WALL (       1 calls)

     Called by electrons:
     c_bands      :    491.04s CPU    665.21s WALL (      20 calls)
     sum_band     :     84.70s CPU    116.74s WALL (      20 calls)
     v_of_rho     :     20.41s CPU     30.41s WALL (      21 calls)
     newd         :     23.58s CPU     24.19s WALL (      21 calls)
     mix_rho      :      0.76s CPU      1.19s WALL (      20 calls)
     vdW_energy   :      2.36s CPU      2.37s WALL (      57 calls)
     vdW_ffts     :     33.07s CPU     51.96s WALL (     116 calls)
     vdW_v        :      6.19s CPU      9.14s WALL (      57 calls)

     Called by c_bands:
     init_us_2    :      1.88s CPU      1.93s WALL (     860 calls)
     cegterg      :    472.45s CPU    645.75s WALL (     400 calls)

     Called by *egterg:
     h_psi        :    307.58s CPU    468.49s WALL (    2014 calls)
     s_psi        :     20.09s CPU     20.19s WALL (    2014 calls)
     g_psi        :      0.64s CPU      0.67s WALL (    1594 calls)
     cdiaghg      :     96.39s CPU     99.76s WALL (    1994 calls)

     Called by h_psi:
     add_vuspsi   :     20.91s CPU     21.06s WALL (    2014 calls)

     General routines
     calbec       :     40.29s CPU     48.13s WALL (    2454 calls)
     fft          :     50.02s CPU     78.89s WALL (    3489 calls)
     ffts         :      0.17s CPU      0.26s WALL (      41 calls)
     fftw         :    294.48s CPU    477.60s WALL (  253550 calls)
     interpolate  :      0.72s CPU      1.14s WALL (      41 calls)
     davcio       :      0.00s CPU      0.02s WALL (      20 calls)
 
     Parallel routines
     fft_scatter  :    302.82s CPU    512.93s WALL (  257080 calls)
 
     PWSCF        : 11m30.09s CPU    15m31.61s WALL

 
   This run was terminated on:  20:37: 0  15Jan2018            

=------------------------------------------------------------------------------=
   JOB DONE.
=------------------------------------------------------------------------------=
Job  /afs/slac/g/suncat/bin/suncat-tsmpirun -x LD_LIBRARY_PATH -wdir /scratch/qe842473_9Wyuw pw.x -in pw.inp

TID   HOST_NAME   COMMAND_LINE            STATUS            TERMINATION_TIME
===== ========== ================  =======================  ===================
00000 suncat0050 pw.x -in pw.inp   Done                     01/15/2018 20:37:00
00001 suncat0050 pw.x -in pw.inp   Done                     01/15/2018 20:37:00
00002 suncat0050 pw.x -in pw.inp   Done                     01/15/2018 20:37:00
00003 suncat0050 pw.x -in pw.inp   Done                     01/15/2018 20:37:00
00004 suncat0050 pw.x -in pw.inp   Done                     01/15/2018 20:37:00
00005 suncat0050 pw.x -in pw.inp   Done                     01/15/2018 20:37:00
00006 suncat0050 pw.x -in pw.inp   Done                     01/15/2018 20:37:00
00007 suncat0050 pw.x -in pw.inp   Done                     01/15/2018 20:37:00
00008 suncat0242 pw.x -in pw.inp   Done                     01/15/2018 20:37:00
00009 suncat0242 pw.x -in pw.inp   Done                     01/15/2018 20:37:00
00010 suncat0242 pw.x -in pw.inp   Done                     01/15/2018 20:37:00
00011 suncat0242 pw.x -in pw.inp   Done                     01/15/2018 20:37:00
00012 suncat0242 pw.x -in pw.inp   Done                     01/15/2018 20:37:00
00013 suncat0242 pw.x -in pw.inp   Done                     01/15/2018 20:37:00
00014 suncat0242 pw.x -in pw.inp   Done                     01/15/2018 20:37:00
00015 suncat0242 pw.x -in pw.inp   Done                     01/15/2018 20:37:00
00016 suncat0241 pw.x -in pw.inp   Done                     01/15/2018 20:37:00
00017 suncat0241 pw.x -in pw.inp   Done                     01/15/2018 20:37:00
00018 suncat0241 pw.x -in pw.inp   Done                     01/15/2018 20:37:00
00019 suncat0241 pw.x -in pw.inp   Done                     01/15/2018 20:37:00
00020 suncat0241 pw.x -in pw.inp   Done                     01/15/2018 20:37:00
00021 suncat0241 pw.x -in pw.inp   Done                     01/15/2018 20:37:00
00022 suncat0241 pw.x -in pw.inp   Done                     01/15/2018 20:37:00
00023 suncat0241 pw.x -in pw.inp   Done                     01/15/2018 20:37:00
00024 suncat0240 pw.x -in pw.inp   Done                     01/15/2018 20:37:00
00025 suncat0240 pw.x -in pw.inp   Done                     01/15/2018 20:37:00
00026 suncat0240 pw.x -in pw.inp   Done                     01/15/2018 20:37:00
00027 suncat0240 pw.x -in pw.inp   Done                     01/15/2018 20:37:00
00028 suncat0240 pw.x -in pw.inp   Done                     01/15/2018 20:37:00
00029 suncat0240 pw.x -in pw.inp   Done                     01/15/2018 20:37:00
00030 suncat0240 pw.x -in pw.inp   Done                     01/15/2018 20:37:00
00031 suncat0240 pw.x -in pw.inp   Done                     01/15/2018 20:37:00
