  python dir          : /u/if/mamunm/src/espresso
  espresso dir        : /nfs/slac/g/suncatfs/sw/espv18/espresso-dynpy-beef/bin
  pseudo dir          : /u/if/mamunm/psp/gbrv1.5pbe
  ase-espresso py git : GITVERSION



     Program PWSCF v.5.1rc2 (svn rev. 11289) starts on  2May2018 at 20: 7: 8 

     This program is part of the open-source Quantum ESPRESSO suite
     for quantum simulation of materials; please cite
         "P. Giannozzi et al., J. Phys.:Condens. Matter 21 395502 (2009);
          URL http://www.quantum-espresso.org", 
     in publications or presentations arising from this work. More details at
     http://www.quantum-espresso.org/quote

     Parallel version (MPI), running on    32 processors
     K-points division:     npool     =       4
     R & G space division:  proc/nbgrp/npool/nimage =       8
     Reading input from pw.inp
     Message from routine read_cards :
     DEPRECATED: no units specified in CELL_PARAMETERS card

     Current dimensions of program PWSCF are:
     Max number of different atomic species (ntypx) = 10
     Max number of k-points (npk) =  40000
     Max angular momentum in pseudopotentials (lmaxx) =  3
     Presently stress not available with electric field


     **************************************************************************
     Initializing libbeef V0.1.1 with the BEEF-vdW functional.
     Citation: Wellendorff et al., PRB 85, 235149 (2012).
     **************************************************************************


     IMPORTANT: XC functional enforced from input :
     Exchange-correlation      = BEEF-VDW ( 1  4 27 13 2)
     Any further DFT definition will be discarded
     Please, verify this is what you really want


     Subspace diagonalization in iterative solution of the eigenvalue problem:
     a serial algorithm will be used

 
     Parallelization info
     --------------------
     sticks:   dense  smooth     PW     G-vecs:    dense   smooth      PW
     Min         465     186     53                90387    22883    3523
     Max         466     187     55                90396    22907    3532
     Sum        3721    1495    433               723123   183131   28227
 


     bravais-lattice index     =            0
     lattice parameter (alat)  =       1.8897  a.u.
     unit-cell volume          =    6082.7792 (a.u.)^3
     number of atoms/cell      =           13
     number of atomic types    =            2
     number of electrons       =       150.00
     number of Kohn-Sham states=           85
     kinetic-energy cutoff     =      36.7493  Ry
     charge density cutoff     =     367.4932  Ry
     convergence threshold     =      1.0E-05
     mixing beta               =       0.3000
     number of iterations used =           10  plain     mixing
     Exchange-correlation      = BEEF-VDW ( 1  4 27 13 2)
     nstep                     =           50


     celldm(1)=   1.889726  celldm(2)=   0.000000  celldm(3)=   0.000000
     celldm(4)=   0.000000  celldm(5)=   0.000000  celldm(6)=   0.000000

     crystal axes: (cart. coord. in units of alat)
               a(1) = (   6.421223   0.000000   0.000000 )  
               a(2) = (   3.210611   5.560942   0.000000 )  
               a(3) = (   0.000000   0.000000  25.242906 )  

     reciprocal axes: (cart. coord. in units 2 pi/alat)
               b(1) = (  0.155734 -0.089913  0.000000 )  
               b(2) = (  0.000000  0.179826  0.000000 )  
               b(3) = (  0.000000  0.000000  0.039615 )  


     PseudoPot. # 1 for Zr read from file:
     /u/if/mamunm/psp/gbrv1.5pbe/Zr.UPF
     MD5 check sum: 5db81b1e868ab7776c4564c113de050b
     Pseudo is Ultrasoft + core correction, Zval = 12.0
     Generated by new atomic code, or converted to UPF format
     Using radial grid of  887 points,  6 beta functions with: 
                l(1) =   0
                l(2) =   0
                l(3) =   1
                l(4) =   1
                l(5) =   2
                l(6) =   2
     Q(r) pseudized with  6 coefficients,  rinner =    1.200   1.200   1.200
                                                       1.200   1.200

     PseudoPot. # 2 for O  read from file:
     /u/if/mamunm/psp/gbrv1.5pbe/O.UPF
     MD5 check sum: 734c27235a0248c51dbae37a1fbe46ec
     Pseudo is Ultrasoft + core correction, Zval =  6.0
     Generated by new atomic code, or converted to UPF format
     Using radial grid of  737 points,  5 beta functions with: 
                l(1) =   0
                l(2) =   0
                l(3) =   1
                l(4) =   1
                l(5) =   2
     Q(r) pseudized with  8 coefficients,  rinner =    0.900   0.900   0.900
                                                       0.900   0.900

     vdW kernel table read from file vdW_kernel_table
     MD5 check sum: 095c7af220d748ca6e76c0b4c6cfb241

     atomic species   valence    mass     pseudopotential
        Zr1           12.00    91.22400     Zr( 1.00)
        O1             6.00    15.99900     O ( 1.00)

     No symmetry found



   Cartesian axes

     site n.     atom                  positions (alat units)
         1           Zr1 tau(   1) = (   1.6053057   0.9268237  10.0000000  )
         2           Zr1 tau(   2) = (   4.8159170   0.9268237  10.0000000  )
         3           Zr1 tau(   3) = (   3.2106113   3.7072946  10.0000000  )
         4           Zr1 tau(   4) = (   6.4212227   3.7072946  10.0000000  )
         5           Zr1 tau(   5) = (   6.4212227   1.8536473  12.6214532  )
         6           Zr1 tau(   6) = (   3.2106113   1.8536473  12.6214532  )
         7           Zr1 tau(   7) = (   8.0265283   4.6341183  12.6214532  )
         8           Zr1 tau(   8) = (   4.8159170   4.6341183  12.6214532  )
         9           Zr1 tau(   9) = (   0.0000000   0.0000000  15.2429064  )
        10           Zr1 tau(  10) = (   3.2106113   0.0000000  15.2429064  )
        11           Zr1 tau(  11) = (   1.6053057   2.7804710  15.2429064  )
        12           Zr1 tau(  12) = (   4.8159170   2.7804710  15.2429064  )
        13           O1  tau(  13) = (   1.6053057   0.9268237  16.8094064  )

     number of k points=    20  Fermi-Dirac smearing, width (Ry)=  0.0110
                       cart. coord. in units 2pi/alat
        k(    1) = (   0.0000000   0.0000000   0.0000000), wk =   0.0555556
        k(    2) = (   0.0000000   0.0299709   0.0000000), wk =   0.1111111
        k(    3) = (   0.0000000   0.0599419   0.0000000), wk =   0.1111111
        k(    4) = (   0.0000000  -0.0899128   0.0000000), wk =   0.0555556
        k(    5) = (   0.0259556  -0.0149855   0.0000000), wk =   0.1111111
        k(    6) = (   0.0259556   0.0149855   0.0000000), wk =   0.1111111
        k(    7) = (   0.0259556   0.0449564   0.0000000), wk =   0.1111111
        k(    8) = (   0.0259556  -0.1048983   0.0000000), wk =   0.1111111
        k(    9) = (   0.0259556  -0.0749274   0.0000000), wk =   0.1111111
        k(   10) = (   0.0259556  -0.0449564   0.0000000), wk =   0.1111111
        k(   11) = (   0.0519112  -0.0299709   0.0000000), wk =   0.1111111
        k(   12) = (   0.0519112   0.0000000   0.0000000), wk =   0.1111111
        k(   13) = (   0.0519112   0.0299709   0.0000000), wk =   0.1111111
        k(   14) = (   0.0519112  -0.1198838   0.0000000), wk =   0.1111111
        k(   15) = (   0.0519112  -0.0899128   0.0000000), wk =   0.1111111
        k(   16) = (   0.0519112  -0.0599419   0.0000000), wk =   0.1111111
        k(   17) = (  -0.0778668   0.0449564   0.0000000), wk =   0.0555556
        k(   18) = (  -0.0778668   0.0749274   0.0000000), wk =   0.1111111
        k(   19) = (  -0.0778668   0.1048983   0.0000000), wk =   0.1111111
        k(   20) = (  -0.0778668  -0.0449564   0.0000000), wk =   0.0555556

     Dense  grid:   723123 G-vectors     FFT dimensions: (  75,  75, 300)

     Smooth grid:   183131 G-vectors     FFT dimensions: (  48,  48, 192)

     Largest allocated arrays     est. size (Mb)     dimensions
        Kohn-Sham Wavefunctions         3.76 Mb     (    2896,   85)
        NL pseudopotentials            10.12 Mb     (    2896,  229)
        Each V/rho on FFT grid          3.26 Mb     (  213750)
        Each G-vector array             0.69 Mb     (   90391)
        G-vector shells                 0.18 Mb     (   23541)
     Largest temporary arrays     est. size (Mb)     dimensions
        Auxiliary wavefunctions        15.02 Mb     (    2896,  340)
        Each subspace H/S matrix        1.76 Mb     (     340,  340)
        Each <psi_i|beta_j> matrix      0.30 Mb     (     229,   85)
        Arrays for rho mixing          32.62 Mb     (  213750,   10)

     Initial potential from superposition of free atoms
     Check: negative starting charge=   -0.729319

     starting charge  149.97421, renormalised to  150.00000

     negative rho (up, down):  7.294E-01 0.000E+00


     ************************************************************************
     *
     * You are using vdW-DF for exchange-correlation in this calculation.
     * Please cite the following three references that made this development
     * possible:
     *
     *   M. Dion, H. Rydberg, E. Schroder, D. C. Langreth, and
     *   B. I. Lundqvist, Phys. Rev. Lett. 92, 246401 (2004).
     *
     *   T. Thonhauser, V. R. Cooper, S. Li, A. Puzder, P. Hyldgaard, and
     *   D. C. Langreth, Phys. Rev. B 76, 125112 (2007).
     *
     *   G. Roman-Perez and J. M. Soler, Phys. Rev. Lett. 103, 096102 (2009).
     *
     *
     * If you are using vdW-DF2, please also cite:
     *
     *   K. Lee, E. D. Murray, L. Kong, B. I. Lundqvist, and
     *   D. C. Langreth, Phys. Rev. B 82, 081101(R) (2010).
     *
     *
     * If you are calculating the stress with vdW-DF, please also cite:
     *
     *   R. Sabatini, E. Kucukbenli, B. Kolb, T. Thonhauser, and
     *   S. de Gironcoli, J. Phys.: Condens. Matter 24, 424209 (2012).
     *
     ************************************************************************

     Carrying out vdW-DF run using the following parameters:

     Nqs =      20    Nr_points =    1024   r_max =   100.000
     q_mesh =
               0.00001000     0.04494208     0.09755937     0.15916263
               0.23128650     0.31572767     0.41458969     0.53033537
               0.66584808     0.82450364     1.01025438     1.22772762
               1.48234092     1.78043706     2.12944203     2.53805004
               3.01644009     3.57652955     4.23227104     5.00000000

     Gradients computed in reciprocal space

     ************************************************************************


 
     Adding external electric field

     Computed dipole along edir(3) : 
        Dipole               -0.0082 Ry au,         -0.0207 Debye
        Dipole field         -0.0000 Ry au
 
        Potential amp.        0.0016 Ry
        Total length         46.5096 bohr
 
     Starting wfc are  160 randomized atomic wfcs

     total cpu time spent up to now is       15.6 secs

     per-process dynamical memory:    98.2 Mb

     Self-consistent Calculation

     iteration #  1     ecut=    36.75 Ry     beta=0.30
     Davidson diagonalization with overlap
     ethr =  1.00E-02,  avg # of iterations =  2.0

     negative rho (up, down):  7.335E-01 0.000E+00
 
     Adding external electric field

     Computed dipole along edir(3) : 
        Dipole               -3.5378 Ry au,         -8.9923 Debye
        Dipole field         -0.0073 Ry au
 
        Potential amp.        0.6799 Ry
        Total length         46.5096 bohr
 

     total cpu time spent up to now is       36.2 secs

     total energy              =   -1226.71779758 Ry
     Harris-Foulkes estimate   =   -1230.24395052 Ry
     estimated scf accuracy    <       7.47531470 Ry

     iteration #  2     ecut=    36.75 Ry     beta=0.30
     Davidson diagonalization with overlap
     ethr =  4.98E-03,  avg # of iterations =  9.8

     negative rho (up, down):  7.335E-01 0.000E+00
 
     Adding external electric field

     Computed dipole along edir(3) : 
        Dipole                2.7442 Ry au,          6.9751 Debye
        Dipole field          0.0057 Ry au
 
        Potential amp.       -0.5274 Ry
        Total length         46.5096 bohr
 

     total cpu time spent up to now is       66.9 secs

     total energy              =   -1216.25763186 Ry
     Harris-Foulkes estimate   =   -1240.29746933 Ry
     estimated scf accuracy    <     568.32950177 Ry

     iteration #  3     ecut=    36.75 Ry     beta=0.30
     Davidson diagonalization with overlap
     ethr =  4.98E-03,  avg # of iterations =  9.1

     negative rho (up, down):  7.326E-01 0.000E+00
 
     Adding external electric field

     Computed dipole along edir(3) : 
        Dipole                0.6427 Ry au,          1.6335 Debye
        Dipole field          0.0013 Ry au
 
        Potential amp.       -0.1235 Ry
        Total length         46.5096 bohr
 

     total cpu time spent up to now is       98.2 secs

     total energy              =   -1223.35086313 Ry
     Harris-Foulkes estimate   =   -1236.73007352 Ry
     estimated scf accuracy    <     404.14550474 Ry

     iteration #  4     ecut=    36.75 Ry     beta=0.30
     Davidson diagonalization with overlap
     ethr =  4.98E-03,  avg # of iterations =  5.0

     negative rho (up, down):  7.348E-01 0.000E+00
 
     Adding external electric field

     Computed dipole along edir(3) : 
        Dipole                0.5754 Ry au,          1.4625 Debye
        Dipole field          0.0012 Ry au
 
        Potential amp.       -0.1106 Ry
        Total length         46.5096 bohr
 

     total cpu time spent up to now is      125.5 secs

     total energy              =   -1229.56893610 Ry
     Harris-Foulkes estimate   =   -1229.67864286 Ry
     estimated scf accuracy    <       0.91514657 Ry

     iteration #  5     ecut=    36.75 Ry     beta=0.30
     Davidson diagonalization with overlap
     ethr =  6.10E-04,  avg # of iterations =  6.0

     negative rho (up, down):  7.378E-01 0.000E+00
 
     Adding external electric field

     Computed dipole along edir(3) : 
        Dipole                0.2675 Ry au,          0.6798 Debye
        Dipole field          0.0006 Ry au
 
        Potential amp.       -0.0514 Ry
        Total length         46.5096 bohr
 

     total cpu time spent up to now is      149.7 secs

     total energy              =   -1229.58200511 Ry
     Harris-Foulkes estimate   =   -1229.62749887 Ry
     estimated scf accuracy    <       0.22643282 Ry

     iteration #  6     ecut=    36.75 Ry     beta=0.30
     Davidson diagonalization with overlap
     ethr =  1.51E-04,  avg # of iterations =  5.2

     negative rho (up, down):  7.401E-01 0.000E+00
 
     Adding external electric field

     Computed dipole along edir(3) : 
        Dipole                0.2864 Ry au,          0.7280 Debye
        Dipole field          0.0006 Ry au
 
        Potential amp.       -0.0550 Ry
        Total length         46.5096 bohr
 

     total cpu time spent up to now is      174.0 secs

     total energy              =   -1229.58656264 Ry
     Harris-Foulkes estimate   =   -1229.60917589 Ry
     estimated scf accuracy    <       0.35498514 Ry

     iteration #  7     ecut=    36.75 Ry     beta=0.30
     Davidson diagonalization with overlap
     ethr =  1.51E-04,  avg # of iterations =  3.0

     negative rho (up, down):  7.448E-01 0.000E+00
 
     Adding external electric field

     Computed dipole along edir(3) : 
        Dipole                0.0211 Ry au,          0.0535 Debye
        Dipole field          0.0000 Ry au
 
        Potential amp.       -0.0040 Ry
        Total length         46.5096 bohr
 

     total cpu time spent up to now is      195.4 secs

     total energy              =   -1229.59212159 Ry
     Harris-Foulkes estimate   =   -1229.59799139 Ry
     estimated scf accuracy    <       0.03804121 Ry

     iteration #  8     ecut=    36.75 Ry     beta=0.30
     Davidson diagonalization with overlap
     ethr =  2.54E-05,  avg # of iterations =  7.4

     negative rho (up, down):  7.466E-01 0.000E+00
 
     Adding external electric field

     Computed dipole along edir(3) : 
        Dipole               -0.0991 Ry au,         -0.2520 Debye
        Dipole field         -0.0002 Ry au
 
        Potential amp.        0.0190 Ry
        Total length         46.5096 bohr
 

     total cpu time spent up to now is      222.4 secs

     total energy              =   -1229.59246390 Ry
     Harris-Foulkes estimate   =   -1229.59896402 Ry
     estimated scf accuracy    <       0.04765840 Ry

     iteration #  9     ecut=    36.75 Ry     beta=0.30
     Davidson diagonalization with overlap
     ethr =  2.54E-05,  avg # of iterations =  2.0

     negative rho (up, down):  7.479E-01 0.000E+00
 
     Adding external electric field

     Computed dipole along edir(3) : 
        Dipole               -0.1686 Ry au,         -0.4284 Debye
        Dipole field         -0.0003 Ry au
 
        Potential amp.        0.0324 Ry
        Total length         46.5096 bohr
 

     total cpu time spent up to now is      243.3 secs

     total energy              =   -1229.59124924 Ry
     Harris-Foulkes estimate   =   -1229.59412574 Ry
     estimated scf accuracy    <       0.01501465 Ry

     iteration # 10     ecut=    36.75 Ry     beta=0.30
     Davidson diagonalization with overlap
     ethr =  1.00E-05,  avg # of iterations =  4.8

     negative rho (up, down):  7.488E-01 0.000E+00
 
     Adding external electric field

     Computed dipole along edir(3) : 
        Dipole               -0.1863 Ry au,         -0.4736 Debye
        Dipole field         -0.0004 Ry au
 
        Potential amp.        0.0358 Ry
        Total length         46.5096 bohr
 

     total cpu time spent up to now is      268.1 secs

     total energy              =   -1229.59335446 Ry
     Harris-Foulkes estimate   =   -1229.59354201 Ry
     estimated scf accuracy    <       0.00242709 Ry

     iteration # 11     ecut=    36.75 Ry     beta=0.30
     Davidson diagonalization with overlap
     ethr =  1.62E-06,  avg # of iterations =  4.2

     negative rho (up, down):  7.494E-01 0.000E+00
 
     Adding external electric field

     Computed dipole along edir(3) : 
        Dipole               -0.2032 Ry au,         -0.5165 Debye
        Dipole field         -0.0004 Ry au
 
        Potential amp.        0.0391 Ry
        Total length         46.5096 bohr
 

     total cpu time spent up to now is      291.6 secs

     total energy              =   -1229.59357804 Ry
     Harris-Foulkes estimate   =   -1229.59352947 Ry
     estimated scf accuracy    <       0.00073076 Ry

     iteration # 12     ecut=    36.75 Ry     beta=0.30
     Davidson diagonalization with overlap
     ethr =  4.87E-07,  avg # of iterations =  4.3

     negative rho (up, down):  7.498E-01 0.000E+00
 
     Adding external electric field

     Computed dipole along edir(3) : 
        Dipole               -0.2211 Ry au,         -0.5619 Debye
        Dipole field         -0.0005 Ry au
 
        Potential amp.        0.0425 Ry
        Total length         46.5096 bohr
 

     total cpu time spent up to now is      316.4 secs

     total energy              =   -1229.59370530 Ry
     Harris-Foulkes estimate   =   -1229.59367492 Ry
     estimated scf accuracy    <       0.00025396 Ry

     iteration # 13     ecut=    36.75 Ry     beta=0.30
     Davidson diagonalization with overlap
     ethr =  1.69E-07,  avg # of iterations =  3.8

     negative rho (up, down):  7.500E-01 0.000E+00
 
     Adding external electric field

     Computed dipole along edir(3) : 
        Dipole               -0.2334 Ry au,         -0.5933 Debye
        Dipole field         -0.0005 Ry au
 
        Potential amp.        0.0449 Ry
        Total length         46.5096 bohr
 

     total cpu time spent up to now is      339.9 secs

     total energy              =   -1229.59374923 Ry
     Harris-Foulkes estimate   =   -1229.59372037 Ry
     estimated scf accuracy    <       0.00006088 Ry

     iteration # 14     ecut=    36.75 Ry     beta=0.30
     Davidson diagonalization with overlap
     ethr =  4.06E-08,  avg # of iterations =  3.9

     negative rho (up, down):  7.500E-01 0.000E+00
 
     Adding external electric field

     Computed dipole along edir(3) : 
        Dipole               -0.2343 Ry au,         -0.5954 Debye
        Dipole field         -0.0005 Ry au
 
        Potential amp.        0.0450 Ry
        Total length         46.5096 bohr
 

     total cpu time spent up to now is      364.6 secs

     total energy              =   -1229.59376393 Ry
     Harris-Foulkes estimate   =   -1229.59375916 Ry
     estimated scf accuracy    <       0.00003321 Ry

     iteration # 15     ecut=    36.75 Ry     beta=0.30
     Davidson diagonalization with overlap
     ethr =  2.21E-08,  avg # of iterations =  2.7

     negative rho (up, down):  7.501E-01 0.000E+00
 
     Adding external electric field

     Computed dipole along edir(3) : 
        Dipole               -0.2351 Ry au,         -0.5974 Debye
        Dipole field         -0.0005 Ry au
 
        Potential amp.        0.0452 Ry
        Total length         46.5096 bohr
 

     total cpu time spent up to now is      387.2 secs

     total energy              =   -1229.59376618 Ry
     Harris-Foulkes estimate   =   -1229.59376575 Ry
     estimated scf accuracy    <       0.00002586 Ry

     iteration # 16     ecut=    36.75 Ry     beta=0.30
     Davidson diagonalization with overlap
     ethr =  1.72E-08,  avg # of iterations =  3.4

     negative rho (up, down):  7.500E-01 0.000E+00

     negative rho (up, down):  7.500E-01 0.000E+00

     negative rho (up, down):  7.500E-01 0.000E+00

     negative rho (up, down):  7.500E-01 0.000E+00

     negative rho (up, down):  7.500E-01 0.000E+00

     negative rho (up, down):  7.500E-01 0.000E+00

     negative rho (up, down):  7.500E-01 0.000E+00

     negative rho (up, down):  7.500E-01 0.000E+00

     negative rho (up, down):  7.500E-01 0.000E+00

     negative rho (up, down):  7.500E-01 0.000E+00

     negative rho (up, down):  7.500E-01 0.000E+00

     negative rho (up, down):  7.500E-01 0.000E+00

     negative rho (up, down):  7.500E-01 0.000E+00

     negative rho (up, down):  7.500E-01 0.000E+00

     negative rho (up, down):  7.500E-01 0.000E+00

     negative rho (up, down):  7.500E-01 0.000E+00

     negative rho (up, down):  7.500E-01 0.000E+00

     negative rho (up, down):  7.500E-01 0.000E+00

     negative rho (up, down):  7.500E-01 0.000E+00

     negative rho (up, down):  7.500E-01 0.000E+00

     negative rho (up, down):  7.500E-01 0.000E+00

     negative rho (up, down):  7.500E-01 0.000E+00

     negative rho (up, down):  7.500E-01 0.000E+00

     negative rho (up, down):  7.500E-01 0.000E+00

     negative rho (up, down):  7.500E-01 0.000E+00

     negative rho (up, down):  7.500E-01 0.000E+00

     negative rho (up, down):  7.500E-01 0.000E+00

     negative rho (up, down):  7.500E-01 0.000E+00

     negative rho (up, down):  7.500E-01 0.000E+00

     negative rho (up, down):  7.500E-01 0.000E+00

     negative rho (up, down):  7.500E-01 0.000E+00

     negative rho (up, down):  7.500E-01 0.000E+00

     negative rho (up, down):  7.500E-01 0.000E+00

     negative rho (up, down):  7.500E-01 0.000E+00

     negative rho (up, down):  7.500E-01 0.000E+00
 
     Adding external electric field

     Computed dipole along edir(3) : 
        Dipole               -0.2168 Ry au,         -0.5509 Debye
        Dipole field         -0.0004 Ry au
 
        Potential amp.        0.0417 Ry
        Total length         46.5096 bohr
 

     total cpu time spent up to now is      469.9 secs

     End of self-consistent calculation

          k = 0.0000 0.0000 0.0000 ( 22923 PWs)   bands (ev):

   -48.0836 -48.0037 -48.0018 -47.9892 -47.9890 -47.9160 -47.9159 -47.9095
   -47.6771 -47.6053 -47.6052 -47.5390 -26.3564 -26.3563 -26.3343 -26.2693
   -26.2692 -26.2677 -26.2446 -26.1548 -26.1295 -26.1294 -26.0565 -25.9689
   -25.9499 -25.9498 -25.8162 -25.7957 -25.7956 -25.7922 -25.7785 -25.7784
   -25.7396 -25.7349 -25.7348 -25.6324 -25.6323 -25.5726 -25.5726 -25.5245
   -25.5245 -25.5160 -25.4394 -25.4215 -25.4043 -25.4043 -25.2538 -25.2538
   -15.6453  -3.6617  -2.6068  -1.9792  -1.9657  -1.9657  -1.6328  -1.2675
    -1.2193  -1.2193  -1.0696  -1.0696  -1.0048  -0.6294  -0.6294  -0.6007
    -0.4546  -0.4545  -0.0825   0.4209   0.4209   0.8938   1.2192   1.4896
     1.5216   1.5216   1.6623   1.8822   1.9762   1.9798   1.9798   2.1887
     2.1888   2.3569   2.4267   2.4267   2.4494

          k = 0.0000 0.0300 0.0000 ( 22902 PWs)   bands (ev):

   -48.0777 -48.0045 -47.9977 -47.9923 -47.9892 -47.9209 -47.9159 -47.9107
   -47.6721 -47.6091 -47.6053 -47.5403 -26.3318 -26.3229 -26.2992 -26.2447
   -26.2438 -26.2310 -26.2256 -26.1400 -26.1142 -26.1132 -26.0517 -25.9772
   -25.9608 -25.9556 -25.8384 -25.8235 -25.7898 -25.7832 -25.7706 -25.7673
   -25.7634 -25.7577 -25.7256 -25.6845 -25.6432 -25.6267 -25.5838 -25.5203
   -25.5198 -25.5069 -25.4427 -25.4342 -25.4286 -25.3989 -25.2987 -25.2639
   -15.6435  -3.4778  -2.4517  -1.9525  -1.9153  -1.8603  -1.4667  -1.2629
    -1.1365  -1.1018  -0.9967  -0.9295  -0.8669  -0.5244  -0.4718  -0.4692
    -0.3652  -0.3356  -0.0283   0.4292   0.4518   0.8614   1.1854   1.4291
     1.5136   1.5785   1.5861   1.7582   1.7913   1.8032   1.8644   2.0125
     2.1626   2.2657   2.3018   2.3244   2.3370

          k = 0.0000 0.0599 0.0000 ( 22852 PWs)   bands (ev):

   -48.0619 -48.0173 -47.9956 -47.9893 -47.9815 -47.9368 -47.9159 -47.9113
   -47.6589 -47.6200 -47.6053 -47.5428 -26.2719 -26.2548 -26.2015 -26.1860
   -26.1843 -26.1799 -26.1216 -26.1037 -26.0820 -26.0799 -26.0405 -26.0004
   -25.9762 -25.9741 -25.8975 -25.8922 -25.8371 -25.8354 -25.8173 -25.7627
   -25.7584 -25.7463 -25.7304 -25.6998 -25.6962 -25.6716 -25.6143 -25.5200
   -25.5126 -25.5008 -25.4982 -25.4877 -25.4255 -25.4143 -25.3741 -25.2907
   -15.6398  -2.9759  -2.1338  -1.9306  -1.8210  -1.5925  -1.4525  -1.0228
    -0.9069  -0.8096  -0.7450  -0.6083  -0.5657  -0.3050  -0.1269  -0.0783
    -0.0389   0.0768   0.1441   0.4509   0.5495   0.7724   0.9192   1.1369
     1.2204   1.2480   1.2513   1.3866   1.6157   1.6166   1.6956   1.7279
     1.8117   1.8138   1.9056   2.0335   2.0669

          k = 0.0000-0.0899 0.0000 ( 22880 PWs)   bands (ev):

   -48.0447 -48.0339 -47.9963 -47.9893 -47.9609 -47.9574 -47.9159 -47.9115
   -47.6466 -47.6312 -47.6053 -47.5439 -26.2317 -26.2104 -26.1643 -26.1437
   -26.1435 -26.1325 -26.0847 -26.0565 -26.0436 -26.0389 -25.9984 -25.9982
   -25.9884 -25.9763 -25.9315 -25.9293 -25.9277 -25.9208 -25.8811 -25.8782
   -25.7364 -25.7224 -25.7061 -25.6922 -25.6562 -25.6544 -25.5860 -25.5771
   -25.5543 -25.5178 -25.5060 -25.4985 -25.4939 -25.4220 -25.3501 -25.3152
   -15.6379  -2.4045  -2.2669  -1.8337  -1.7773  -1.7732  -1.1793  -1.0181
    -0.5965  -0.5614  -0.5003  -0.4428  -0.4213  -0.2588   0.2487   0.2851
     0.3169   0.3344   0.3517   0.4044   0.7590   0.7640   0.8011   0.8152
     0.8344   0.9495   1.0921   1.1523   1.2318   1.2716   1.3382   1.3742
     1.4555   1.5835   1.6338   1.9642   1.9878

          k = 0.0260-0.0150 0.0000 ( 22902 PWs)   bands (ev):

   -48.0777 -48.0045 -47.9977 -47.9925 -47.9891 -47.9208 -47.9160 -47.9106
   -47.6721 -47.6091 -47.6052 -47.5403 -26.3319 -26.3228 -26.2993 -26.2447
   -26.2438 -26.2310 -26.2256 -26.1400 -26.1141 -26.1132 -26.0517 -25.9772
   -25.9608 -25.9555 -25.8383 -25.8235 -25.7898 -25.7832 -25.7706 -25.7673
   -25.7634 -25.7576 -25.7256 -25.6845 -25.6432 -25.6267 -25.5839 -25.5203
   -25.5198 -25.5069 -25.4427 -25.4342 -25.4286 -25.3989 -25.2987 -25.2640
   -15.6435  -3.4778  -2.4517  -1.9525  -1.9153  -1.8603  -1.4667  -1.2629
    -1.1365  -1.1018  -0.9967  -0.9295  -0.8669  -0.5244  -0.4718  -0.4693
    -0.3653  -0.3356  -0.0283   0.4292   0.4518   0.8614   1.1854   1.4291
     1.5136   1.5785   1.5861   1.7582   1.7913   1.8032   1.8644   2.0125
     2.1626   2.2657   2.3018   2.3244   2.3370

          k = 0.0260 0.0150 0.0000 ( 22902 PWs)   bands (ev):

   -48.0777 -48.0045 -47.9977 -47.9925 -47.9891 -47.9209 -47.9159 -47.9107
   -47.6721 -47.6090 -47.6053 -47.5403 -26.3319 -26.3228 -26.2993 -26.2447
   -26.2438 -26.2310 -26.2256 -26.1400 -26.1141 -26.1132 -26.0517 -25.9772
   -25.9608 -25.9555 -25.8383 -25.8235 -25.7898 -25.7832 -25.7706 -25.7673
   -25.7634 -25.7577 -25.7256 -25.6845 -25.6432 -25.6267 -25.5839 -25.5203
   -25.5198 -25.5069 -25.4427 -25.4342 -25.4286 -25.3990 -25.2987 -25.2639
   -15.6435  -3.4778  -2.4517  -1.9525  -1.9153  -1.8603  -1.4667  -1.2629
    -1.1364  -1.1018  -0.9967  -0.9295  -0.8669  -0.5244  -0.4718  -0.4693
    -0.3653  -0.3356  -0.0283   0.4291   0.4518   0.8614   1.1854   1.4291
     1.5136   1.5785   1.5861   1.7582   1.7913   1.8032   1.8644   2.0125
     2.1626   2.2657   2.3018   2.3244   2.3370

          k = 0.0260 0.0450 0.0000 ( 22896 PWs)   bands (ev):

   -48.0669 -48.0102 -48.0003 -47.9867 -47.9865 -47.9273 -47.9235 -47.9080
   -47.6629 -47.6156 -47.6062 -47.5421 -26.2936 -26.2551 -26.2383 -26.2130
   -26.2040 -26.1686 -26.1665 -26.1181 -26.0908 -26.0894 -26.0435 -25.9910
   -25.9837 -25.9611 -25.9128 -25.8538 -25.8165 -25.7990 -25.7730 -25.7622
   -25.7507 -25.7431 -25.7291 -25.7218 -25.7148 -25.6659 -25.6081 -25.5161
   -25.5126 -25.5118 -25.5008 -25.4281 -25.4197 -25.4096 -25.3739 -25.2856
   -15.6407  -3.1325  -2.2024  -1.9126  -1.8679  -1.6501  -1.2507  -1.2150
    -1.0950  -0.8707  -0.8461  -0.7357  -0.5573  -0.3052  -0.2614  -0.1969
    -0.1890  -0.0505   0.0797   0.4516   0.4937   0.8091   1.0630   1.1934
     1.2896   1.3365   1.4242   1.4704   1.6412   1.6992   1.7533   1.8392
     1.8919   1.9685   1.9848   2.0632   2.1750

          k = 0.0260-0.1049 0.0000 ( 22856 PWs)   bands (ev):

   -48.0488 -48.0246 -48.0068 -47.9841 -47.9675 -47.9449 -47.9281 -47.9052
   -47.6484 -47.6273 -47.6077 -47.5437 -26.2284 -26.1876 -26.1688 -26.1505
   -26.1306 -26.1085 -26.0931 -26.0753 -26.0591 -26.0369 -26.0323 -26.0181
   -25.9998 -25.9974 -25.9586 -25.9477 -25.9211 -25.8588 -25.8441 -25.7886
   -25.7675 -25.7237 -25.7078 -25.7030 -25.6818 -25.6524 -25.6420 -25.5930
   -25.5153 -25.5091 -25.5058 -25.4975 -25.4440 -25.4209 -25.3767 -25.3226
   -15.6379  -2.5470  -2.0415  -1.8503  -1.8139  -1.6087  -1.2368  -1.0695
    -0.8442  -0.5965  -0.5041  -0.4029  -0.2154  -0.1124   0.1468   0.1621
     0.2198   0.2519   0.3272   0.5553   0.6399   0.6626   0.7817   0.8713
     0.9262   0.9851   1.0147   1.0762   1.2044   1.3156   1.3730   1.4520
     1.5256   1.5593   1.5914   1.7976   2.1091

          k = 0.0260-0.0749 0.0000 ( 22856 PWs)   bands (ev):

   -48.0488 -48.0246 -48.0068 -47.9841 -47.9675 -47.9449 -47.9281 -47.9052
   -47.6484 -47.6273 -47.6077 -47.5437 -26.2284 -26.1876 -26.1688 -26.1505
   -26.1306 -26.1085 -26.0931 -26.0753 -26.0591 -26.0369 -26.0323 -26.0181
   -25.9998 -25.9974 -25.9586 -25.9476 -25.9211 -25.8588 -25.8441 -25.7886
   -25.7675 -25.7237 -25.7078 -25.7030 -25.6818 -25.6524 -25.6420 -25.5930
   -25.5153 -25.5091 -25.5059 -25.4974 -25.4440 -25.4209 -25.3767 -25.3226
   -15.6379  -2.5470  -2.0415  -1.8503  -1.8139  -1.6087  -1.2368  -1.0695
    -0.8442  -0.5965  -0.5041  -0.4029  -0.2154  -0.1124   0.1468   0.1621
     0.2198   0.2519   0.3272   0.5553   0.6399   0.6626   0.7817   0.8713
     0.9262   0.9851   1.0147   1.0762   1.2044   1.3156   1.3730   1.4520
     1.5256   1.5593   1.5914   1.7976   2.1091

          k = 0.0260-0.0450 0.0000 ( 22896 PWs)   bands (ev):

   -48.0669 -48.0102 -48.0003 -47.9867 -47.9865 -47.9272 -47.9236 -47.9080
   -47.6629 -47.6157 -47.6062 -47.5421 -26.2936 -26.2551 -26.2383 -26.2130
   -26.2040 -26.1686 -26.1665 -26.1181 -26.0908 -26.0894 -26.0435 -25.9910
   -25.9836 -25.9611 -25.9128 -25.8538 -25.8165 -25.7990 -25.7730 -25.7622
   -25.7507 -25.7431 -25.7291 -25.7218 -25.7148 -25.6659 -25.6081 -25.5161
   -25.5126 -25.5118 -25.5008 -25.4281 -25.4197 -25.4095 -25.3740 -25.2856
   -15.6407  -3.1325  -2.2024  -1.9126  -1.8679  -1.6501  -1.2507  -1.2150
    -1.0950  -0.8707  -0.8461  -0.7357  -0.5573  -0.3052  -0.2614  -0.1969
    -0.1890  -0.0505   0.0797   0.4516   0.4937   0.8091   1.0630   1.1934
     1.2896   1.3365   1.4242   1.4704   1.6412   1.6992   1.7532   1.8392
     1.8919   1.9685   1.9848   2.0632   2.1750

          k = 0.0519-0.0300 0.0000 ( 22852 PWs)   bands (ev):

   -48.0619 -48.0172 -47.9958 -47.9891 -47.9815 -47.9367 -47.9160 -47.9113
   -47.6589 -47.6200 -47.6053 -47.5428 -26.2720 -26.2547 -26.2015 -26.1861
   -26.1842 -26.1799 -26.1216 -26.1037 -26.0820 -26.0799 -26.0405 -26.0004
   -25.9762 -25.9742 -25.8974 -25.8922 -25.8372 -25.8354 -25.8174 -25.7628
   -25.7584 -25.7463 -25.7305 -25.6998 -25.6962 -25.6715 -25.6143 -25.5200
   -25.5126 -25.5008 -25.4982 -25.4877 -25.4255 -25.4143 -25.3741 -25.2907
   -15.6398  -2.9759  -2.1338  -1.9307  -1.8210  -1.5925  -1.4525  -1.0228
    -0.9069  -0.8096  -0.7450  -0.6083  -0.5657  -0.3050  -0.1268  -0.0784
    -0.0389   0.0768   0.1441   0.4509   0.5495   0.7724   0.9192   1.1369
     1.2204   1.2480   1.2513   1.3866   1.6157   1.6166   1.6956   1.7279
     1.8117   1.8138   1.9056   2.0335   2.0670

          k = 0.0519 0.0000 0.0000 ( 22896 PWs)   bands (ev):

   -48.0669 -48.0101 -48.0005 -47.9867 -47.9865 -47.9272 -47.9237 -47.9079
   -47.6629 -47.6157 -47.6062 -47.5421 -26.2937 -26.2551 -26.2383 -26.2130
   -26.2040 -26.1686 -26.1665 -26.1181 -26.0909 -26.0894 -26.0435 -25.9910
   -25.9836 -25.9611 -25.9127 -25.8538 -25.8165 -25.7990 -25.7730 -25.7622
   -25.7506 -25.7432 -25.7291 -25.7218 -25.7148 -25.6659 -25.6081 -25.5161
   -25.5126 -25.5118 -25.5008 -25.4281 -25.4197 -25.4095 -25.3740 -25.2856
   -15.6407  -3.1325  -2.2024  -1.9126  -1.8679  -1.6501  -1.2507  -1.2150
    -1.0950  -0.8707  -0.8461  -0.7357  -0.5573  -0.3052  -0.2614  -0.1969
    -0.1890  -0.0505   0.0797   0.4516   0.4937   0.8091   1.0630   1.1934
     1.2896   1.3365   1.4243   1.4704   1.6412   1.6992   1.7532   1.8392
     1.8919   1.9685   1.9848   2.0633   2.1749

          k = 0.0519 0.0300 0.0000 ( 22852 PWs)   bands (ev):

   -48.0619 -48.0172 -47.9958 -47.9891 -47.9815 -47.9368 -47.9160 -47.9113
   -47.6589 -47.6200 -47.6053 -47.5428 -26.2720 -26.2547 -26.2015 -26.1860
   -26.1843 -26.1799 -26.1216 -26.1037 -26.0820 -26.0799 -26.0405 -26.0004
   -25.9763 -25.9741 -25.8974 -25.8922 -25.8372 -25.8354 -25.8174 -25.7628
   -25.7584 -25.7464 -25.7304 -25.6998 -25.6962 -25.6715 -25.6143 -25.5200
   -25.5125 -25.5008 -25.4982 -25.4877 -25.4255 -25.4143 -25.3741 -25.2907
   -15.6398  -2.9759  -2.1338  -1.9307  -1.8210  -1.5925  -1.4525  -1.0228
    -0.9069  -0.8096  -0.7450  -0.6083  -0.5657  -0.3050  -0.1268  -0.0784
    -0.0389   0.0768   0.1441   0.4509   0.5495   0.7724   0.9192   1.1369
     1.2204   1.2480   1.2513   1.3866   1.6157   1.6166   1.6956   1.7279
     1.8117   1.8138   1.9056   2.0335   2.0669

          k = 0.0519-0.1199 0.0000 ( 22856 PWs)   bands (ev):

   -48.0488 -48.0245 -48.0068 -47.9841 -47.9675 -47.9449 -47.9281 -47.9052
   -47.6484 -47.6273 -47.6077 -47.5437 -26.2285 -26.1876 -26.1688 -26.1505
   -26.1306 -26.1085 -26.0931 -26.0753 -26.0591 -26.0369 -26.0323 -26.0181
   -25.9998 -25.9974 -25.9586 -25.9477 -25.9210 -25.8588 -25.8441 -25.7886
   -25.7676 -25.7237 -25.7077 -25.7030 -25.6818 -25.6524 -25.6420 -25.5930
   -25.5153 -25.5091 -25.5058 -25.4975 -25.4440 -25.4209 -25.3767 -25.3226
   -15.6379  -2.5470  -2.0415  -1.8503  -1.8139  -1.6087  -1.2368  -1.0695
    -0.8442  -0.5965  -0.5041  -0.4029  -0.2154  -0.1124   0.1468   0.1621
     0.2198   0.2519   0.3272   0.5553   0.6399   0.6626   0.7817   0.8713
     0.9262   0.9851   1.0147   1.0762   1.2044   1.3156   1.3730   1.4520
     1.5256   1.5593   1.5914   1.7976   2.1091

          k = 0.0519-0.0899 0.0000 ( 22914 PWs)   bands (ev):

   -48.0375 -48.0232 -48.0223 -47.9813 -47.9499 -47.9497 -47.9440 -47.9022
   -47.6364 -47.6362 -47.6106 -47.5439 -26.1586 -26.1543 -26.1361 -26.1336
   -26.0958 -26.0789 -26.0689 -26.0652 -26.0544 -26.0477 -26.0231 -26.0162
   -26.0122 -26.0079 -25.9762 -25.9757 -25.9714 -25.9673 -25.7928 -25.7904
   -25.7485 -25.7208 -25.7199 -25.7193 -25.6822 -25.6676 -25.6142 -25.5989
   -25.5960 -25.5143 -25.5004 -25.4983 -25.4245 -25.4012 -25.3750 -25.3747
   -15.6370  -2.1480  -1.9474  -1.9421  -1.6846  -1.6299  -1.5109  -0.8433
    -0.7195  -0.7137  -0.0515  -0.0475  -0.0016   0.0463   0.0902   0.0904
     0.4891   0.5002   0.5264   0.5722   0.5906   0.5986   0.6020   0.6066
     0.6147   0.7141   0.8351   1.0671   1.0941   1.1849   1.2133   1.2546
     1.2598   1.3342   1.4407   1.5255   2.0972

          k = 0.0519-0.0599 0.0000 ( 22856 PWs)   bands (ev):

   -48.0488 -48.0245 -48.0068 -47.9841 -47.9675 -47.9449 -47.9281 -47.9052
   -47.6484 -47.6274 -47.6076 -47.5437 -26.2285 -26.1876 -26.1688 -26.1505
   -26.1306 -26.1085 -26.0931 -26.0753 -26.0591 -26.0369 -26.0322 -26.0181
   -25.9998 -25.9974 -25.9586 -25.9477 -25.9211 -25.8588 -25.8441 -25.7886
   -25.7676 -25.7237 -25.7077 -25.7030 -25.6818 -25.6524 -25.6420 -25.5930
   -25.5153 -25.5091 -25.5059 -25.4974 -25.4440 -25.4209 -25.3767 -25.3226
   -15.6379  -2.5470  -2.0415  -1.8503  -1.8139  -1.6087  -1.2368  -1.0695
    -0.8441  -0.5965  -0.5041  -0.4029  -0.2154  -0.1124   0.1468   0.1621
     0.2198   0.2519   0.3272   0.5553   0.6399   0.6626   0.7817   0.8713
     0.9262   0.9851   1.0147   1.0762   1.2044   1.3156   1.3730   1.4520
     1.5256   1.5593   1.5914   1.7976   2.1091

          k =-0.0779 0.0450 0.0000 ( 22880 PWs)   bands (ev):

   -48.0448 -48.0338 -47.9965 -47.9891 -47.9610 -47.9572 -47.9160 -47.9114
   -47.6466 -47.6313 -47.6053 -47.5439 -26.2318 -26.2103 -26.1643 -26.1438
   -26.1435 -26.1324 -26.0848 -26.0564 -26.0436 -26.0388 -25.9983 -25.9982
   -25.9884 -25.9764 -25.9316 -25.9293 -25.9276 -25.9210 -25.8812 -25.8781
   -25.7365 -25.7223 -25.7061 -25.6921 -25.6563 -25.6543 -25.5860 -25.5772
   -25.5543 -25.5178 -25.5060 -25.4985 -25.4939 -25.4220 -25.3500 -25.3152
   -15.6379  -2.4045  -2.2669  -1.8337  -1.7773  -1.7733  -1.1793  -1.0181
    -0.5965  -0.5614  -0.5003  -0.4428  -0.4213  -0.2587   0.2487   0.2851
     0.3169   0.3343   0.3516   0.4044   0.7589   0.7640   0.8011   0.8151
     0.8345   0.9494   1.0921   1.1523   1.2318   1.2716   1.3382   1.3742
     1.4555   1.5835   1.6339   1.9643   1.9878

          k =-0.0779 0.0749 0.0000 ( 22856 PWs)   bands (ev):

   -48.0488 -48.0245 -48.0069 -47.9840 -47.9675 -47.9449 -47.9281 -47.9052
   -47.6484 -47.6274 -47.6076 -47.5437 -26.2285 -26.1876 -26.1688 -26.1505
   -26.1306 -26.1085 -26.0931 -26.0754 -26.0590 -26.0369 -26.0323 -26.0181
   -25.9998 -25.9974 -25.9586 -25.9476 -25.9211 -25.8588 -25.8441 -25.7886
   -25.7676 -25.7237 -25.7077 -25.7030 -25.6818 -25.6524 -25.6420 -25.5930
   -25.5153 -25.5091 -25.5059 -25.4974 -25.4440 -25.4209 -25.3767 -25.3226
   -15.6379  -2.5470  -2.0415  -1.8503  -1.8139  -1.6087  -1.2368  -1.0695
    -0.8441  -0.5965  -0.5041  -0.4029  -0.2154  -0.1124   0.1468   0.1621
     0.2198   0.2519   0.3272   0.5553   0.6399   0.6626   0.7817   0.8713
     0.9262   0.9851   1.0147   1.0762   1.2044   1.3156   1.3730   1.4521
     1.5256   1.5593   1.5914   1.7976   2.1091

          k =-0.0779 0.1049 0.0000 ( 22856 PWs)   bands (ev):

   -48.0488 -48.0245 -48.0069 -47.9841 -47.9675 -47.9449 -47.9281 -47.9052
   -47.6484 -47.6273 -47.6077 -47.5437 -26.2285 -26.1876 -26.1688 -26.1505
   -26.1306 -26.1085 -26.0931 -26.0754 -26.0590 -26.0369 -26.0323 -26.0181
   -25.9998 -25.9974 -25.9586 -25.9476 -25.9211 -25.8588 -25.8441 -25.7886
   -25.7676 -25.7237 -25.7077 -25.7030 -25.6818 -25.6524 -25.6420 -25.5930
   -25.5153 -25.5091 -25.5058 -25.4975 -25.4440 -25.4209 -25.3767 -25.3226
   -15.6379  -2.5470  -2.0415  -1.8503  -1.8139  -1.6087  -1.2368  -1.0695
    -0.8442  -0.5965  -0.5041  -0.4029  -0.2154  -0.1124   0.1468   0.1621
     0.2198   0.2519   0.3272   0.5553   0.6399   0.6626   0.7817   0.8713
     0.9262   0.9851   1.0147   1.0762   1.2044   1.3156   1.3730   1.4521
     1.5256   1.5593   1.5914   1.7976   2.1091

          k =-0.0779-0.0450 0.0000 ( 22880 PWs)   bands (ev):

   -48.0448 -48.0338 -47.9965 -47.9891 -47.9609 -47.9573 -47.9160 -47.9114
   -47.6466 -47.6312 -47.6053 -47.5439 -26.2318 -26.2103 -26.1643 -26.1438
   -26.1435 -26.1324 -26.0848 -26.0564 -26.0436 -26.0389 -25.9984 -25.9982
   -25.9883 -25.9764 -25.9316 -25.9293 -25.9276 -25.9209 -25.8811 -25.8782
   -25.7365 -25.7224 -25.7061 -25.6921 -25.6562 -25.6543 -25.5860 -25.5771
   -25.5543 -25.5178 -25.5060 -25.4985 -25.4938 -25.4220 -25.3501 -25.3152
   -15.6379  -2.4045  -2.2669  -1.8337  -1.7773  -1.7733  -1.1793  -1.0181
    -0.5965  -0.5614  -0.5003  -0.4428  -0.4213  -0.2587   0.2487   0.2851
     0.3169   0.3344   0.3516   0.4044   0.7590   0.7640   0.8011   0.8152
     0.8344   0.9494   1.0921   1.1523   1.2318   1.2716   1.3382   1.3742
     1.4555   1.5835   1.6339   1.9642   1.9878

     the Fermi energy is     1.2742 ev

!    total energy              =   -1229.59376575 Ry
     Harris-Foulkes estimate   =   -1229.59378491 Ry
     estimated scf accuracy    <       0.00000330 Ry

     The total energy is the sum of the following terms:

     one-electron contribution =   -8520.06966574 Ry
     hartree contribution      =    4252.93137921 Ry
     xc contribution           =    -227.98666519 Ry
     ewald contribution        =    3265.64637170 Ry
     electric field correction =       0.00009706 Ry
     smearing contrib. (-TS)   =      -0.11528280 Ry

     convergence has been achieved in  16 iterations
 
 BEEF-vdW xc energy contributions
           1 :   -195.238594638885     
           2 :    176.464729246663     
           3 :   -144.909058367036     
           4 :    109.540716910722     
           5 :   -78.3690317453131     
           6 :    55.6662181086175     
           7 :   -41.3727674588009     
           8 :    32.5001817221885     
           9 :   -25.4463810732923     
          10 :    17.9272903615040     
          11 :   -9.70558782671003     
          12 :    2.05626506314982     
          13 :    3.45737647994196     
          14 :   -6.09111123496726     
          15 :    6.31897967156669     
          16 :   -5.43424600373896     
          17 :    4.72513019256809     
          18 :   -4.78114995486425     
          19 :    5.32825686010599     
          20 :   -5.61988603488211     
          21 :    5.06024333973551     
          22 :   -3.63283596720146     
          23 :    1.88735433103292     
          24 :  -0.553005325518939     
          25 :   7.368647990080035E-002
          26 :  -0.370586409051697     
          27 :   0.952951544742120     
          28 :   -1.26962907161982     
          29 :    1.05816190829262     
          30 :  -0.471989910140223     
          31 :   -22.5922527216298     
          32 :   -16.7730241043529     

     Forces acting on atoms (Ry/au):


     negative rho (up, down):  7.500E-01 0.000E+00
     atom    1 type  1   force =     0.00000663   -0.00001422    0.01454287
     atom    2 type  1   force =    -0.00000485    0.00123849    0.01468915
     atom    3 type  1   force =     0.00108215   -0.00061573    0.01467432
     atom    4 type  1   force =    -0.00108234   -0.00060868    0.01468276
     atom    5 type  1   force =    -0.00105307    0.00058835   -0.00011228
     atom    6 type  1   force =     0.00105466    0.00057251   -0.00010711
     atom    7 type  1   force =    -0.00001284    0.00003141   -0.00547921
     atom    8 type  1   force =     0.00001468   -0.00119210   -0.00009836
     atom    9 type  1   force =     0.03490080    0.02014900    0.04548613
     atom   10 type  1   force =    -0.03490446    0.02015057    0.04548839
     atom   11 type  1   force =    -0.00000133   -0.04029788    0.04549921
     atom   12 type  1   force =     0.00000125   -0.00000105   -0.02915957
     atom   13 type  2   force =    -0.00000128   -0.00000066   -0.16010629

     Total force =     0.193817     Total SCF correction =     0.003249


     entering subroutine stress ...


     negative rho (up, down):  7.500E-01 0.000E+00
          total   stress  (Ry/bohr**3)                   (kbar)     P=  -16.84
  -0.00008642  -0.00000000  -0.00000000        -12.71     -0.00     -0.00
  -0.00000000  -0.00008642  -0.00000000         -0.00    -12.71     -0.00
  -0.00000000  -0.00000000  -0.00017055         -0.00     -0.00    -25.09


     BFGS Geometry Optimization

     number of scf cycles    =   1
     number of bfgs steps    =   0

     energy   new            =   -1229.5937657536 Ry

     new trust radius        =       0.1601062948 bohr
     new conv_thr            =       0.0000099958 Ry


ATOMIC_POSITIONS (crystal)
Zr1      0.166666667   0.166666667   0.396150897    0   0   0
Zr1      0.666666667   0.166666667   0.396150897    0   0   0
Zr1      0.166666667   0.666666667   0.396150897    0   0   0
Zr1      0.666666667   0.666666667   0.396150897    0   0   0
Zr1      0.833333333   0.333333333   0.500000000    0   0   0
Zr1      0.333333333   0.333333333   0.500000000    0   0   0
Zr1      0.833333333   0.833333333   0.500000000    0   0   0
Zr1      0.333333333   0.833333333   0.500000000    0   0   0
Zr1      0.001917513   0.001917371   0.604802647
Zr1      0.496164740   0.001917521   0.604802694
Zr1      0.001917256   0.496165269   0.604802921
Zr1      0.500000152   0.499999900   0.603237819
O1       0.166666593   0.166666604   0.662549768



     Writing output data file calc.save
     Check: negative starting charge=   -0.729319
     NEW-OLD atomic charge density approx. for the potential
     Check: negative starting charge=   -0.728323

     negative rho (up, down):  7.494E-01 0.000E+00
 
     Adding external electric field

     Computed dipole along edir(3) : 
        Dipole               -0.2165 Ry au,         -0.5504 Debye
        Dipole field         -0.0004 Ry au
 
        Potential amp.        0.0416 Ry
        Total length         46.5096 bohr
 

     total cpu time spent up to now is      552.2 secs

     per-process dynamical memory:    90.7 Mb

     Self-consistent Calculation

     iteration #  1     ecut=    36.75 Ry     beta=0.30
     Davidson diagonalization with overlap
     ethr =  1.00E-06,  avg # of iterations = 11.8

     negative rho (up, down):  7.491E-01 0.000E+00
 
     Adding external electric field

     Computed dipole along edir(3) : 
        Dipole               -0.5750 Ry au,         -1.4615 Debye
        Dipole field         -0.0012 Ry au
 
        Potential amp.        0.1105 Ry
        Total length         46.5096 bohr
 

     total cpu time spent up to now is      589.3 secs

     total energy              =   -1229.62126768 Ry
     Harris-Foulkes estimate   =   -1229.63047782 Ry
     estimated scf accuracy    <       0.02103550 Ry

     iteration #  2     ecut=    36.75 Ry     beta=0.30
     Davidson diagonalization with overlap
     ethr =  1.40E-05,  avg # of iterations =  7.1

     negative rho (up, down):  7.490E-01 0.000E+00
 
     Adding external electric field

     Computed dipole along edir(3) : 
        Dipole               -0.1763 Ry au,         -0.4480 Debye
        Dipole field         -0.0004 Ry au
 
        Potential amp.        0.0339 Ry
        Total length         46.5096 bohr
 

     total cpu time spent up to now is      617.1 secs

     total energy              =   -1229.51999666 Ry
     Harris-Foulkes estimate   =   -1229.74458029 Ry
     estimated scf accuracy    <      10.89524004 Ry

     iteration #  3     ecut=    36.75 Ry     beta=0.30
     Davidson diagonalization with overlap
     ethr =  1.40E-05,  avg # of iterations =  6.4

     negative rho (up, down):  7.490E-01 0.000E+00
 
     Adding external electric field

     Computed dipole along edir(3) : 
        Dipole               -0.1730 Ry au,         -0.4397 Debye
        Dipole field         -0.0004 Ry au
 
        Potential amp.        0.0332 Ry
        Total length         46.5096 bohr
 

     total cpu time spent up to now is      644.3 secs

     total energy              =   -1229.62757938 Ry
     Harris-Foulkes estimate   =   -1229.63035167 Ry
     estimated scf accuracy    <       0.01776465 Ry

     iteration #  4     ecut=    36.75 Ry     beta=0.30
     Davidson diagonalization with overlap
     ethr =  1.18E-05,  avg # of iterations =  3.1

     negative rho (up, down):  7.490E-01 0.000E+00
 
     Adding external electric field

     Computed dipole along edir(3) : 
        Dipole               -0.1702 Ry au,         -0.4326 Debye
        Dipole field         -0.0004 Ry au
 
        Potential amp.        0.0327 Ry
        Total length         46.5096 bohr
 

     total cpu time spent up to now is      667.1 secs

     total energy              =   -1229.62836151 Ry
     Harris-Foulkes estimate   =   -1229.62976433 Ry
     estimated scf accuracy    <       0.01104639 Ry

     iteration #  5     ecut=    36.75 Ry     beta=0.30
     Davidson diagonalization with overlap
     ethr =  7.36E-06,  avg # of iterations =  3.3

     negative rho (up, down):  7.490E-01 0.000E+00
 
     Adding external electric field

     Computed dipole along edir(3) : 
        Dipole               -0.1595 Ry au,         -0.4055 Debye
        Dipole field         -0.0003 Ry au
 
        Potential amp.        0.0307 Ry
        Total length         46.5096 bohr
 

     total cpu time spent up to now is      689.6 secs

     total energy              =   -1229.62892927 Ry
     Harris-Foulkes estimate   =   -1229.62940734 Ry
     estimated scf accuracy    <       0.00304077 Ry

     iteration #  6     ecut=    36.75 Ry     beta=0.30
     Davidson diagonalization with overlap
     ethr =  2.03E-06,  avg # of iterations =  3.1

     negative rho (up, down):  7.490E-01 0.000E+00
 
     Adding external electric field

     Computed dipole along edir(3) : 
        Dipole               -0.1552 Ry au,         -0.3945 Debye
        Dipole field         -0.0003 Ry au
 
        Potential amp.        0.0298 Ry
        Total length         46.5096 bohr
 

     total cpu time spent up to now is      711.6 secs

     total energy              =   -1229.62911562 Ry
     Harris-Foulkes estimate   =   -1229.62914954 Ry
     estimated scf accuracy    <       0.00020296 Ry

     iteration #  7     ecut=    36.75 Ry     beta=0.30
     Davidson diagonalization with overlap
     ethr =  1.35E-07,  avg # of iterations =  5.2

     negative rho (up, down):  7.490E-01 0.000E+00
 
     Adding external electric field

     Computed dipole along edir(3) : 
        Dipole               -0.1554 Ry au,         -0.3949 Debye
        Dipole field         -0.0003 Ry au
 
        Potential amp.        0.0299 Ry
        Total length         46.5096 bohr
 

     total cpu time spent up to now is      738.0 secs

     total energy              =   -1229.62915916 Ry
     Harris-Foulkes estimate   =   -1229.62917974 Ry
     estimated scf accuracy    <       0.00020358 Ry

     iteration #  8     ecut=    36.75 Ry     beta=0.30
     Davidson diagonalization with overlap
     ethr =  1.35E-07,  avg # of iterations =  3.0

     negative rho (up, down):  7.491E-01 0.000E+00
 
     Adding external electric field

     Computed dipole along edir(3) : 
        Dipole               -0.1562 Ry au,         -0.3971 Debye
        Dipole field         -0.0003 Ry au
 
        Potential amp.        0.0300 Ry
        Total length         46.5096 bohr
 

     total cpu time spent up to now is      761.1 secs

     total energy              =   -1229.62916585 Ry
     Harris-Foulkes estimate   =   -1229.62917217 Ry
     estimated scf accuracy    <       0.00006624 Ry

     iteration #  9     ecut=    36.75 Ry     beta=0.30
     Davidson diagonalization with overlap
     ethr =  4.42E-08,  avg # of iterations =  3.6

     negative rho (up, down):  7.491E-01 0.000E+00
 
     Adding external electric field

     Computed dipole along edir(3) : 
        Dipole               -0.1571 Ry au,         -0.3993 Debye
        Dipole field         -0.0003 Ry au
 
        Potential amp.        0.0302 Ry
        Total length         46.5096 bohr
 

     total cpu time spent up to now is      785.0 secs

     total energy              =   -1229.62917505 Ry
     Harris-Foulkes estimate   =   -1229.62917293 Ry
     estimated scf accuracy    <       0.00001112 Ry

     iteration # 10     ecut=    36.75 Ry     beta=0.30
     Davidson diagonalization with overlap
     ethr =  7.42E-09,  avg # of iterations =  4.5

     negative rho (up, down):  7.491E-01 0.000E+00

     negative rho (up, down):  7.491E-01 0.000E+00

     negative rho (up, down):  7.491E-01 0.000E+00

     negative rho (up, down):  7.491E-01 0.000E+00

     negative rho (up, down):  7.491E-01 0.000E+00

     negative rho (up, down):  7.491E-01 0.000E+00

     negative rho (up, down):  7.491E-01 0.000E+00

     negative rho (up, down):  7.491E-01 0.000E+00

     negative rho (up, down):  7.491E-01 0.000E+00

     negative rho (up, down):  7.491E-01 0.000E+00

     negative rho (up, down):  7.491E-01 0.000E+00

     negative rho (up, down):  7.491E-01 0.000E+00

     negative rho (up, down):  7.491E-01 0.000E+00

     negative rho (up, down):  7.491E-01 0.000E+00

     negative rho (up, down):  7.491E-01 0.000E+00

     negative rho (up, down):  7.491E-01 0.000E+00

     negative rho (up, down):  7.491E-01 0.000E+00

     negative rho (up, down):  7.491E-01 0.000E+00

     negative rho (up, down):  7.491E-01 0.000E+00

     negative rho (up, down):  7.491E-01 0.000E+00

     negative rho (up, down):  7.491E-01 0.000E+00

     negative rho (up, down):  7.491E-01 0.000E+00

     negative rho (up, down):  7.491E-01 0.000E+00

     negative rho (up, down):  7.491E-01 0.000E+00

     negative rho (up, down):  7.491E-01 0.000E+00

     negative rho (up, down):  7.491E-01 0.000E+00

     negative rho (up, down):  7.491E-01 0.000E+00

     negative rho (up, down):  7.491E-01 0.000E+00

     negative rho (up, down):  7.491E-01 0.000E+00

     negative rho (up, down):  7.491E-01 0.000E+00

     negative rho (up, down):  7.491E-01 0.000E+00

     negative rho (up, down):  7.491E-01 0.000E+00

     negative rho (up, down):  7.491E-01 0.000E+00

     negative rho (up, down):  7.491E-01 0.000E+00

     negative rho (up, down):  7.491E-01 0.000E+00
 
     Adding external electric field

     Computed dipole along edir(3) : 
        Dipole               -0.1541 Ry au,         -0.3916 Debye
        Dipole field         -0.0003 Ry au
 
        Potential amp.        0.0296 Ry
        Total length         46.5096 bohr
 

     total cpu time spent up to now is      872.5 secs

     End of self-consistent calculation

          k = 0.0000 0.0000 0.0000 ( 22923 PWs)   bands (ev):

   -48.0106 -47.9284 -47.9270 -47.9269 -47.9006 -47.8406 -47.8405 -47.8343
   -47.6052 -47.5321 -47.5320 -47.4822 -26.2954 -26.2741 -26.2741 -26.1969
   -26.1931 -26.1930 -26.1699 -26.0738 -26.0570 -26.0570 -25.9860 -25.8851
   -25.8850 -25.8815 -25.7456 -25.7165 -25.7165 -25.7147 -25.7135 -25.7134
   -25.6636 -25.6599 -25.6599 -25.5605 -25.5605 -25.4971 -25.4971 -25.4510
   -25.4509 -25.4402 -25.3863 -25.3484 -25.3361 -25.3361 -25.1860 -25.1860
   -16.0014  -3.5858  -2.6204  -2.3027  -2.3027  -2.1137  -1.5889  -1.1842
    -1.1382  -1.1382  -1.0158  -1.0158  -0.9415  -0.5537  -0.5537  -0.5230
    -0.3927  -0.3927   0.0045   0.4993   0.4993   0.9858   1.3030   1.5650
     1.5819   1.5819   1.7429   1.9415   2.0341   2.0502   2.0503   2.2687
     2.2689   2.4507   2.4979   2.4981   2.5249

          k = 0.0000 0.0300 0.0000 ( 22902 PWs)   bands (ev):

   -48.0048 -47.9312 -47.9270 -47.9225 -47.9022 -47.8456 -47.8406 -47.8355
   -47.6001 -47.5359 -47.5320 -47.4836 -26.2661 -26.2491 -26.2348 -26.1714
   -26.1684 -26.1567 -26.1508 -26.0577 -26.0423 -26.0412 -25.9812 -25.8995
   -25.8896 -25.8869 -25.7673 -25.7447 -25.7120 -25.7066 -25.7031 -25.6974
   -25.6902 -25.6859 -25.6503 -25.6130 -25.5716 -25.5514 -25.5083 -25.4468
   -25.4462 -25.4312 -25.3804 -25.3706 -25.3608 -25.3296 -25.2312 -25.1963
   -15.9988  -3.4056  -2.5102  -2.2796  -2.2671  -1.9838  -1.4095  -1.1841
    -1.0542  -1.0202  -0.9400  -0.8709  -0.8079  -0.4504  -0.3924  -0.3885
    -0.2977  -0.2712   0.0608   0.5085   0.5309   0.9540   1.2686   1.4972
     1.5887   1.6418   1.6565   1.8056   1.8637   1.8806   1.9423   2.0943
     2.2467   2.3375   2.3617   2.3886   2.4062

          k = 0.0000 0.0599 0.0000 ( 22852 PWs)   bands (ev):

   -47.9894 -47.9446 -47.9271 -47.9064 -47.9043 -47.8614 -47.8406 -47.8361
   -47.5865 -47.5472 -47.5320 -47.4861 -26.2018 -26.1879 -26.1241 -26.1194
   -26.1096 -26.1077 -26.0454 -26.0229 -26.0103 -26.0097 -25.9697 -25.9268
   -25.9046 -25.9003 -25.8281 -25.8105 -25.7624 -25.7601 -25.7462 -25.6847
   -25.6833 -25.6709 -25.6656 -25.6311 -25.6208 -25.6013 -25.5388 -25.4462
   -25.4399 -25.4266 -25.4261 -25.4172 -25.3715 -25.3491 -25.3036 -25.2236
   -15.9937  -2.9287  -2.3481  -2.1989  -2.1804  -1.6117  -1.4246  -0.9579
    -0.8385  -0.7273  -0.6734  -0.5362  -0.5013  -0.2366  -0.0490   0.0029
     0.0380   0.1503   0.2350   0.5294   0.6292   0.8651   0.9983   1.2148
     1.2955   1.3150   1.3305   1.4703   1.6773   1.6860   1.7705   1.8141
     1.8810   1.8942   1.9657   2.1172   2.1314

          k = 0.0000-0.0899 0.0000 ( 22880 PWs)   bands (ev):

   -47.9740 -47.9594 -47.9271 -47.9053 -47.8856 -47.8821 -47.8406 -47.8362
   -47.5732 -47.5594 -47.5320 -47.4873 -26.1598 -26.1460 -26.0842 -26.0721
   -26.0666 -26.0633 -26.0026 -25.9881 -25.9772 -25.9670 -25.9389 -25.9256
   -25.9146 -25.8894 -25.8621 -25.8555 -25.8516 -25.8409 -25.8069 -25.8027
   -25.6519 -25.6471 -25.6403 -25.6308 -25.5811 -25.5788 -25.5140 -25.5048
   -25.4802 -25.4542 -25.4336 -25.4262 -25.4228 -25.3679 -25.2766 -25.2510
   -15.9912  -2.5495  -2.2551  -2.1663  -2.0009  -1.9198  -1.1456  -0.9820
    -0.5173  -0.4793  -0.4253  -0.3573  -0.3532  -0.1974   0.3261   0.3638
     0.3900   0.4108   0.4323   0.4969   0.8418   0.8504   0.8782   0.8882
     0.9076   1.0455   1.1525   1.2400   1.2932   1.3475   1.4117   1.4367
     1.5439   1.6543   1.7410   2.0398   2.0614

          k = 0.0260-0.0150 0.0000 ( 22902 PWs)   bands (ev):

   -48.0048 -47.9313 -47.9269 -47.9225 -47.9022 -47.8455 -47.8406 -47.8354
   -47.6001 -47.5358 -47.5321 -47.4836 -26.2660 -26.2492 -26.2347 -26.1714
   -26.1684 -26.1568 -26.1508 -26.0578 -26.0422 -26.0413 -25.9812 -25.8996
   -25.8896 -25.8869 -25.7673 -25.7448 -25.7119 -25.7066 -25.7031 -25.6974
   -25.6902 -25.6859 -25.6503 -25.6130 -25.5715 -25.5514 -25.5083 -25.4469
   -25.4461 -25.4312 -25.3804 -25.3706 -25.3607 -25.3296 -25.2312 -25.1962
   -15.9988  -3.4056  -2.5102  -2.2796  -2.2671  -1.9838  -1.4095  -1.1841
    -1.0542  -1.0202  -0.9400  -0.8709  -0.8079  -0.4504  -0.3924  -0.3885
    -0.2978  -0.2712   0.0608   0.5085   0.5309   0.9540   1.2686   1.4972
     1.5887   1.6418   1.6565   1.8056   1.8638   1.8806   1.9423   2.0943
     2.2467   2.3375   2.3617   2.3886   2.4062

          k = 0.0260 0.0150 0.0000 ( 22902 PWs)   bands (ev):

   -48.0048 -47.9313 -47.9269 -47.9225 -47.9022 -47.8455 -47.8406 -47.8354
   -47.6001 -47.5358 -47.5320 -47.4836 -26.2660 -26.2492 -26.2348 -26.1714
   -26.1684 -26.1568 -26.1508 -26.0577 -26.0422 -26.0413 -25.9812 -25.8995
   -25.8896 -25.8869 -25.7673 -25.7447 -25.7119 -25.7066 -25.7031 -25.6974
   -25.6902 -25.6859 -25.6503 -25.6130 -25.5716 -25.5514 -25.5083 -25.4469
   -25.4461 -25.4312 -25.3804 -25.3706 -25.3607 -25.3296 -25.2312 -25.1963
   -15.9988  -3.4056  -2.5102  -2.2796  -2.2671  -1.9838  -1.4095  -1.1841
    -1.0542  -1.0202  -0.9400  -0.8709  -0.8079  -0.4504  -0.3924  -0.3885
    -0.2977  -0.2712   0.0608   0.5085   0.5309   0.9540   1.2686   1.4972
     1.5887   1.6418   1.6565   1.8056   1.8638   1.8806   1.9423   2.0943
     2.2467   2.3375   2.3617   2.3886   2.4062

          k = 0.0260 0.0450 0.0000 ( 22896 PWs)   bands (ev):

   -47.9942 -47.9381 -47.9297 -47.9114 -47.9033 -47.8519 -47.8483 -47.8327
   -47.5907 -47.5424 -47.5332 -47.4854 -26.2250 -26.1837 -26.1725 -26.1385
   -26.1314 -26.0941 -26.0924 -26.0340 -26.0199 -26.0186 -25.9730 -25.9147
   -25.9132 -25.8893 -25.8386 -25.7786 -25.7387 -25.7236 -25.7017 -25.6869
   -25.6785 -25.6743 -25.6564 -25.6516 -25.6395 -25.5948 -25.5326 -25.4429
   -25.4418 -25.4385 -25.4255 -25.3740 -25.3474 -25.3411 -25.3085 -25.2181
   -15.9950  -3.0734  -2.3675  -2.2409  -2.2022  -1.7159  -1.1765  -1.1391
    -1.0338  -0.8021  -0.7802  -0.6688  -0.4888  -0.2315  -0.1846  -0.1235
    -0.1067   0.0209   0.1709   0.5324   0.5722   0.9041   1.1441   1.2606
     1.3733   1.4005   1.4992   1.5506   1.7147   1.7572   1.8231   1.9303
     1.9729   2.0404   2.0503   2.1382   2.2371

          k = 0.0260-0.1049 0.0000 ( 22856 PWs)   bands (ev):

   -47.9769 -47.9521 -47.9334 -47.9032 -47.8921 -47.8696 -47.8528 -47.8299
   -47.5755 -47.5545 -47.5351 -47.4868 -26.1591 -26.1185 -26.0914 -26.0764
   -26.0642 -26.0339 -26.0169 -26.0031 -25.9893 -25.9655 -25.9598 -25.9428
   -25.9257 -25.9234 -25.8848 -25.8728 -25.8474 -25.7834 -25.7679 -25.7137
   -25.6882 -25.6522 -25.6373 -25.6291 -25.6148 -25.5771 -25.5713 -25.5234
   -25.4433 -25.4388 -25.4313 -25.4231 -25.3790 -25.3650 -25.3063 -25.2562
   -15.9912  -2.5859  -2.2416  -2.1867  -2.0709  -1.6016  -1.2087  -1.0111
    -0.7901  -0.5265  -0.4332  -0.3216  -0.1400  -0.0402   0.2215   0.2417
     0.2990   0.3353   0.4111   0.6324   0.7214   0.7369   0.8669   0.9501
     1.0030   1.0509   1.1023   1.1602   1.2748   1.3864   1.4533   1.5333
     1.6073   1.6382   1.6790   1.8686   2.1971

          k = 0.0260-0.0749 0.0000 ( 22856 PWs)   bands (ev):

   -47.9769 -47.9521 -47.9334 -47.9033 -47.8921 -47.8696 -47.8528 -47.8299
   -47.5755 -47.5545 -47.5351 -47.4867 -26.1591 -26.1185 -26.0914 -26.0764
   -26.0642 -26.0339 -26.0169 -26.0031 -25.9893 -25.9656 -25.9598 -25.9428
   -25.9257 -25.9234 -25.8848 -25.8728 -25.8474 -25.7834 -25.7679 -25.7137
   -25.6882 -25.6522 -25.6372 -25.6291 -25.6148 -25.5771 -25.5713 -25.5234
   -25.4433 -25.4388 -25.4313 -25.4231 -25.3790 -25.3650 -25.3063 -25.2562
   -15.9912  -2.5859  -2.2416  -2.1867  -2.0709  -1.6016  -1.2087  -1.0111
    -0.7901  -0.5265  -0.4332  -0.3216  -0.1400  -0.0402   0.2215   0.2417
     0.2990   0.3353   0.4111   0.6324   0.7214   0.7369   0.8669   0.9501
     1.0030   1.0509   1.1023   1.1602   1.2748   1.3864   1.4533   1.5333
     1.6073   1.6382   1.6790   1.8686   2.1971

          k = 0.0260-0.0450 0.0000 ( 22896 PWs)   bands (ev):

   -47.9942 -47.9382 -47.9297 -47.9114 -47.9034 -47.8519 -47.8483 -47.8327
   -47.5907 -47.5424 -47.5332 -47.4854 -26.2250 -26.1837 -26.1725 -26.1385
   -26.1314 -26.0941 -26.0924 -26.0340 -26.0200 -26.0186 -25.9730 -25.9147
   -25.9132 -25.8893 -25.8386 -25.7786 -25.7387 -25.7236 -25.7017 -25.6869
   -25.6785 -25.6743 -25.6564 -25.6516 -25.6395 -25.5948 -25.5326 -25.4429
   -25.4418 -25.4385 -25.4255 -25.3740 -25.3474 -25.3411 -25.3085 -25.2181
   -15.9950  -3.0734  -2.3675  -2.2409  -2.2022  -1.7159  -1.1765  -1.1391
    -1.0338  -0.8021  -0.7802  -0.6688  -0.4888  -0.2315  -0.1846  -0.1235
    -0.1067   0.0209   0.1709   0.5324   0.5722   0.9041   1.1441   1.2606
     1.3733   1.4005   1.4992   1.5506   1.7147   1.7572   1.8231   1.9303
     1.9729   2.0404   2.0503   2.1382   2.2371

          k = 0.0519-0.0300 0.0000 ( 22852 PWs)   bands (ev):

   -47.9894 -47.9447 -47.9269 -47.9064 -47.9043 -47.8614 -47.8406 -47.8360
   -47.5865 -47.5471 -47.5321 -47.4861 -26.2017 -26.1880 -26.1241 -26.1194
   -26.1096 -26.1077 -26.0454 -26.0230 -26.0104 -26.0096 -25.9697 -25.9268
   -25.9046 -25.9003 -25.8280 -25.8106 -25.7624 -25.7601 -25.7462 -25.6847
   -25.6833 -25.6710 -25.6655 -25.6311 -25.6208 -25.6013 -25.5388 -25.4463
   -25.4398 -25.4267 -25.4262 -25.4171 -25.3715 -25.3491 -25.3036 -25.2235
   -15.9937  -2.9287  -2.3481  -2.1989  -2.1804  -1.6117  -1.4246  -0.9579
    -0.8385  -0.7273  -0.6734  -0.5362  -0.5013  -0.2366  -0.0490   0.0029
     0.0380   0.1503   0.2350   0.5294   0.6292   0.8650   0.9983   1.2148
     1.2955   1.3150   1.3305   1.4703   1.6773   1.6860   1.7705   1.8141
     1.8810   1.8942   1.9658   2.1172   2.1314

          k = 0.0519 0.0000 0.0000 ( 22896 PWs)   bands (ev):

   -47.9942 -47.9383 -47.9295 -47.9114 -47.9034 -47.8519 -47.8484 -47.8327
   -47.5907 -47.5423 -47.5333 -47.4854 -26.2250 -26.1837 -26.1725 -26.1385
   -26.1314 -26.0941 -26.0924 -26.0340 -26.0200 -26.0185 -25.9730 -25.9147
   -25.9132 -25.8893 -25.8386 -25.7786 -25.7387 -25.7235 -25.7017 -25.6869
   -25.6785 -25.6743 -25.6564 -25.6516 -25.6395 -25.5948 -25.5326 -25.4429
   -25.4418 -25.4384 -25.4256 -25.3740 -25.3474 -25.3411 -25.3085 -25.2181
   -15.9950  -3.0734  -2.3675  -2.2409  -2.2022  -1.7159  -1.1765  -1.1391
    -1.0338  -0.8021  -0.7802  -0.6688  -0.4889  -0.2315  -0.1846  -0.1235
    -0.1067   0.0209   0.1709   0.5324   0.5722   0.9041   1.1441   1.2606
     1.3733   1.4005   1.4992   1.5506   1.7147   1.7572   1.8231   1.9303
     1.9729   2.0404   2.0503   2.1382   2.2371

          k = 0.0519 0.0300 0.0000 ( 22852 PWs)   bands (ev):

   -47.9894 -47.9447 -47.9270 -47.9064 -47.9043 -47.8614 -47.8406 -47.8360
   -47.5865 -47.5471 -47.5320 -47.4861 -26.2017 -26.1880 -26.1241 -26.1194
   -26.1096 -26.1077 -26.0454 -26.0230 -26.0104 -26.0096 -25.9697 -25.9268
   -25.9046 -25.9003 -25.8281 -25.8106 -25.7624 -25.7601 -25.7462 -25.6847
   -25.6833 -25.6710 -25.6656 -25.6311 -25.6208 -25.6013 -25.5388 -25.4463
   -25.4398 -25.4267 -25.4262 -25.4172 -25.3715 -25.3491 -25.3036 -25.2236
   -15.9937  -2.9287  -2.3481  -2.1989  -2.1804  -1.6117  -1.4246  -0.9579
    -0.8385  -0.7273  -0.6734  -0.5362  -0.5013  -0.2366  -0.0490   0.0029
     0.0380   0.1503   0.2350   0.5294   0.6292   0.8650   0.9983   1.2148
     1.2955   1.3150   1.3305   1.4703   1.6773   1.6860   1.7705   1.8141
     1.8810   1.8942   1.9658   2.1172   2.1314

          k = 0.0519-0.1199 0.0000 ( 22856 PWs)   bands (ev):

   -47.9769 -47.9521 -47.9334 -47.9033 -47.8921 -47.8696 -47.8528 -47.8299
   -47.5755 -47.5545 -47.5352 -47.4867 -26.1591 -26.1185 -26.0914 -26.0765
   -26.0642 -26.0339 -26.0169 -26.0031 -25.9893 -25.9655 -25.9598 -25.9428
   -25.9257 -25.9234 -25.8848 -25.8728 -25.8474 -25.7834 -25.7679 -25.7137
   -25.6882 -25.6522 -25.6372 -25.6291 -25.6147 -25.5771 -25.5713 -25.5234
   -25.4433 -25.4388 -25.4312 -25.4231 -25.3790 -25.3650 -25.3063 -25.2562
   -15.9912  -2.5859  -2.2416  -2.1867  -2.0709  -1.6016  -1.2087  -1.0111
    -0.7901  -0.5265  -0.4332  -0.3216  -0.1400  -0.0402   0.2215   0.2417
     0.2990   0.3353   0.4111   0.6324   0.7214   0.7369   0.8669   0.9501
     1.0030   1.0509   1.1023   1.1602   1.2748   1.3864   1.4533   1.5333
     1.6073   1.6382   1.6790   1.8686   2.1971

          k = 0.0519-0.0899 0.0000 ( 22914 PWs)   bands (ev):

   -47.9663 -47.9558 -47.9420 -47.9017 -47.8745 -47.8744 -47.8687 -47.8269
   -47.5631 -47.5629 -47.5392 -47.4867 -26.0842 -26.0834 -26.0679 -26.0610
   -26.0230 -26.0009 -25.9985 -25.9938 -25.9909 -25.9736 -25.9471 -25.9468
   -25.9430 -25.9261 -25.9007 -25.8999 -25.8966 -25.8931 -25.7104 -25.7046
   -25.6908 -25.6460 -25.6446 -25.6443 -25.6124 -25.5956 -25.5424 -25.5330
   -25.5289 -25.4405 -25.4254 -25.4247 -25.3684 -25.3296 -25.3097 -25.3088
   -15.9899  -2.4159  -2.2212  -2.1358  -1.6994  -1.6600  -1.5276  -0.7852
    -0.6661  -0.6656   0.0242   0.0454   0.0793   0.1203   0.1590   0.1676
     0.5516   0.5809   0.6086   0.6335   0.6588   0.6783   0.6821   0.6887
     0.7219   0.7951   0.9004   1.1411   1.1837   1.2929   1.2974   1.3348
     1.3394   1.4126   1.5179   1.5999   2.1991

          k = 0.0519-0.0599 0.0000 ( 22856 PWs)   bands (ev):

   -47.9769 -47.9522 -47.9333 -47.9033 -47.8921 -47.8696 -47.8528 -47.8299
   -47.5755 -47.5544 -47.5352 -47.4867 -26.1591 -26.1185 -26.0915 -26.0765
   -26.0642 -26.0339 -26.0169 -26.0032 -25.9892 -25.9655 -25.9598 -25.9428
   -25.9257 -25.9234 -25.8848 -25.8728 -25.8474 -25.7834 -25.7679 -25.7137
   -25.6882 -25.6522 -25.6372 -25.6291 -25.6147 -25.5771 -25.5713 -25.5234
   -25.4433 -25.4388 -25.4312 -25.4231 -25.3790 -25.3650 -25.3063 -25.2562
   -15.9912  -2.5859  -2.2416  -2.1867  -2.0709  -1.6016  -1.2087  -1.0111
    -0.7901  -0.5265  -0.4332  -0.3216  -0.1400  -0.0402   0.2215   0.2417
     0.2990   0.3353   0.4111   0.6324   0.7214   0.7369   0.8669   0.9501
     1.0030   1.0509   1.1023   1.1602   1.2748   1.3864   1.4533   1.5333
     1.6073   1.6382   1.6790   1.8686   2.1971

          k =-0.0779 0.0450 0.0000 ( 22880 PWs)   bands (ev):

   -47.9739 -47.9596 -47.9269 -47.9053 -47.8857 -47.8820 -47.8407 -47.8361
   -47.5733 -47.5592 -47.5321 -47.4872 -26.1597 -26.1462 -26.0843 -26.0721
   -26.0665 -26.0632 -26.0027 -25.9880 -25.9773 -25.9670 -25.9389 -25.9256
   -25.9145 -25.8895 -25.8620 -25.8555 -25.8515 -25.8410 -25.8069 -25.8026
   -25.6519 -25.6472 -25.6402 -25.6307 -25.5812 -25.5787 -25.5141 -25.5046
   -25.4803 -25.4542 -25.4337 -25.4261 -25.4228 -25.3679 -25.2766 -25.2509
   -15.9912  -2.5495  -2.2552  -2.1663  -2.0009  -1.9197  -1.1456  -0.9820
    -0.5174  -0.4793  -0.4253  -0.3573  -0.3532  -0.1974   0.3261   0.3638
     0.3900   0.4108   0.4323   0.4970   0.8418   0.8504   0.8782   0.8882
     0.9076   1.0455   1.1525   1.2400   1.2932   1.3475   1.4117   1.4367
     1.5439   1.6543   1.7410   2.0398   2.0614

          k =-0.0779 0.0749 0.0000 ( 22856 PWs)   bands (ev):

   -47.9769 -47.9522 -47.9333 -47.9033 -47.8922 -47.8696 -47.8528 -47.8299
   -47.5755 -47.5544 -47.5352 -47.4867 -26.1591 -26.1186 -26.0915 -26.0764
   -26.0642 -26.0339 -26.0169 -26.0032 -25.9892 -25.9655 -25.9598 -25.9428
   -25.9257 -25.9234 -25.8848 -25.8728 -25.8474 -25.7834 -25.7679 -25.7137
   -25.6882 -25.6522 -25.6372 -25.6291 -25.6147 -25.5771 -25.5713 -25.5234
   -25.4433 -25.4388 -25.4312 -25.4231 -25.3790 -25.3650 -25.3063 -25.2561
   -15.9912  -2.5859  -2.2416  -2.1867  -2.0709  -1.6016  -1.2087  -1.0111
    -0.7901  -0.5265  -0.4332  -0.3216  -0.1400  -0.0402   0.2215   0.2417
     0.2990   0.3353   0.4111   0.6324   0.7213   0.7369   0.8669   0.9501
     1.0030   1.0509   1.1022   1.1602   1.2748   1.3864   1.4533   1.5333
     1.6073   1.6383   1.6790   1.8686   2.1971

          k =-0.0779 0.1049 0.0000 ( 22856 PWs)   bands (ev):

   -47.9769 -47.9522 -47.9333 -47.9033 -47.8922 -47.8696 -47.8528 -47.8299
   -47.5755 -47.5544 -47.5352 -47.4867 -26.1591 -26.1185 -26.0914 -26.0764
   -26.0642 -26.0339 -26.0169 -26.0031 -25.9892 -25.9656 -25.9598 -25.9428
   -25.9257 -25.9234 -25.8848 -25.8728 -25.8474 -25.7834 -25.7679 -25.7137
   -25.6882 -25.6522 -25.6372 -25.6291 -25.6147 -25.5771 -25.5713 -25.5234
   -25.4433 -25.4388 -25.4312 -25.4231 -25.3790 -25.3650 -25.3063 -25.2562
   -15.9912  -2.5859  -2.2416  -2.1867  -2.0709  -1.6016  -1.2087  -1.0111
    -0.7901  -0.5265  -0.4332  -0.3216  -0.1400  -0.0402   0.2215   0.2417
     0.2990   0.3353   0.4111   0.6324   0.7213   0.7369   0.8669   0.9501
     1.0030   1.0509   1.1022   1.1602   1.2748   1.3864   1.4533   1.5333
     1.6073   1.6383   1.6790   1.8686   2.1971

          k =-0.0779-0.0450 0.0000 ( 22880 PWs)   bands (ev):

   -47.9739 -47.9595 -47.9270 -47.9053 -47.8856 -47.8820 -47.8407 -47.8361
   -47.5733 -47.5593 -47.5320 -47.4872 -26.1597 -26.1461 -26.0842 -26.0721
   -26.0665 -26.0633 -26.0027 -25.9881 -25.9773 -25.9670 -25.9389 -25.9256
   -25.9145 -25.8894 -25.8620 -25.8555 -25.8515 -25.8410 -25.8069 -25.8026
   -25.6519 -25.6471 -25.6402 -25.6307 -25.5812 -25.5787 -25.5141 -25.5047
   -25.4803 -25.4542 -25.4336 -25.4262 -25.4228 -25.3679 -25.2766 -25.2510
   -15.9912  -2.5495  -2.2552  -2.1663  -2.0009  -1.9198  -1.1456  -0.9820
    -0.5174  -0.4793  -0.4253  -0.3573  -0.3532  -0.1974   0.3261   0.3638
     0.3900   0.4108   0.4323   0.4969   0.8418   0.8504   0.8782   0.8882
     0.9076   1.0455   1.1525   1.2400   1.2932   1.3475   1.4117   1.4367
     1.5439   1.6543   1.7410   2.0398   2.0614

     the Fermi energy is     1.3509 ev

!    total energy              =   -1229.62917344 Ry
     Harris-Foulkes estimate   =   -1229.62917785 Ry
     estimated scf accuracy    <       0.00000475 Ry

     The total energy is the sum of the following terms:

     one-electron contribution =   -8524.13696388 Ry
     hartree contribution      =    4255.26836509 Ry
     xc contribution           =    -228.01971742 Ry
     ewald contribution        =    3267.37499926 Ry
     electric field correction =       0.00004905 Ry
     smearing contrib. (-TS)   =      -0.11590554 Ry

     convergence has been achieved in  10 iterations
 
 BEEF-vdW xc energy contributions
           1 :   -195.274096442136     
           2 :    176.514911075565     
           3 :   -144.971842667242     
           4 :    109.599706404106     
           5 :   -78.4072164169984     
           6 :    55.6764454735168     
           7 :   -41.3593563495302     
           8 :    32.4736610824980     
           9 :   -25.4175480468214     
          10 :    17.9048281237135     
          11 :   -9.69645632665686     
          12 :    2.06576198004123     
          13 :    3.42773163847860     
          14 :   -6.04653804971971     
          15 :    6.27200867000130     
          16 :   -5.40034437864080     
          17 :    4.71462118990397     
          18 :   -4.79273573998708     
          19 :    5.34908289050003     
          20 :   -5.63276362110958     
          21 :    5.05378733371020     
          22 :   -3.60803972724256     
          23 :    1.85640586734047     
          24 :  -0.531161005097857     
          25 :   6.949967347387087E-002
          26 :  -0.380894785745824     
          27 :   0.965829556825554     
          28 :   -1.27286730124314     
          29 :    1.04706523924216     
          30 :  -0.451691812780780     
          31 :   -22.5941535077142     
          32 :   -16.7780839751078     

     Forces acting on atoms (Ry/au):


     negative rho (up, down):  7.491E-01 0.000E+00
     atom    1 type  1   force =     0.00000487   -0.00001041    0.01504488
     atom    2 type  1   force =    -0.00000280    0.00123886    0.01552897
     atom    3 type  1   force =     0.00108298   -0.00061639    0.01553005
     atom    4 type  1   force =    -0.00108158   -0.00061241    0.01552829
     atom    5 type  1   force =    -0.00016268    0.00007143   -0.00025458
     atom    6 type  1   force =     0.00016415    0.00006364   -0.00024852
     atom    7 type  1   force =    -0.00000690    0.00002975   -0.00201286
     atom    8 type  1   force =     0.00000762   -0.00015903   -0.00022914
     atom    9 type  1   force =     0.02665589    0.01538175    0.03842791
     atom   10 type  1   force =    -0.02665939    0.01538566    0.03842248
     atom   11 type  1   force =     0.00000176   -0.03078076    0.03845462
     atom   12 type  1   force =     0.00000014    0.00000570   -0.03012572
     atom   13 type  2   force =    -0.00000406    0.00000223   -0.14406638

     Total force =     0.170107     Total SCF correction =     0.004016


     entering subroutine stress ...


     negative rho (up, down):  7.491E-01 0.000E+00
          total   stress  (Ry/bohr**3)                   (kbar)     P=  -15.96
  -0.00008161   0.00000000   0.00000000        -12.00      0.00      0.00
   0.00000000  -0.00008160  -0.00000000          0.00    -12.00     -0.00
   0.00000000  -0.00000000  -0.00016228          0.00     -0.00    -23.87


     number of scf cycles    =   2
     number of bfgs steps    =   1

     energy   old            =   -1229.5937657536 Ry
     energy   new            =   -1229.6291734389 Ry

     CASE: energy  _new < energy  _old


     WARNING: bfgs curvature condition failed, Theta= 0.913
     new trust radius        =       0.2401594422 bohr
     new conv_thr            =       0.0000001000 Ry


ATOMIC_POSITIONS (crystal)
Zr1      0.166666667   0.166666667   0.396150897    0   0   0
Zr1      0.666666667   0.166666667   0.396150897    0   0   0
Zr1      0.166666667   0.666666667   0.396150897    0   0   0
Zr1      0.666666667   0.666666667   0.396150897    0   0   0
Zr1      0.833333333   0.333333333   0.500000000    0   0   0
Zr1      0.333333333   0.333333333   0.500000000    0   0   0
Zr1      0.833333333   0.833333333   0.500000000    0   0   0
Zr1      0.333333333   0.833333333   0.500000000    0   0   0
Zr1      0.004416738   0.004414909   0.606157081
Zr1      0.491167216   0.004415626   0.606156973
Zr1      0.004416170   0.491167818   0.606158220
Zr1      0.499999806   0.500000666   0.602202959
O1       0.166665941   0.166666899   0.657515209



     Writing output data file calc.save
     Check: negative starting charge=   -0.728323
     NEW-OLD atomic charge density approx. for the potential
     Check: negative starting charge=   -0.729549

     negative rho (up, down):  7.507E-01 0.000E+00
 
     Adding external electric field

     Computed dipole along edir(3) : 
        Dipole               -0.1538 Ry au,         -0.3908 Debye
        Dipole field         -0.0003 Ry au
 
        Potential amp.        0.0295 Ry
        Total length         46.5096 bohr
 

     total cpu time spent up to now is      955.9 secs

     per-process dynamical memory:    90.7 Mb

     Self-consistent Calculation

     iteration #  1     ecut=    36.75 Ry     beta=0.30
     Davidson diagonalization with overlap
     ethr =  1.00E-06,  avg # of iterations = 13.5

     negative rho (up, down):  7.505E-01 0.000E+00
 
     Adding external electric field

     Computed dipole along edir(3) : 
        Dipole               -0.0664 Ry au,         -0.1687 Debye
        Dipole field         -0.0001 Ry au
 
        Potential amp.        0.0128 Ry
        Total length         46.5096 bohr
 

     total cpu time spent up to now is      997.0 secs

     total energy              =   -1229.66739485 Ry
     Harris-Foulkes estimate   =   -1229.67435555 Ry
     estimated scf accuracy    <       0.01741906 Ry

     iteration #  2     ecut=    36.75 Ry     beta=0.30
     Davidson diagonalization with overlap
     ethr =  1.16E-05,  avg # of iterations =  4.8

     negative rho (up, down):  7.504E-01 0.000E+00
 
     Adding external electric field

     Computed dipole along edir(3) : 
        Dipole               -0.1860 Ry au,         -0.4728 Debye
        Dipole field         -0.0004 Ry au
 
        Potential amp.        0.0357 Ry
        Total length         46.5096 bohr
 

     total cpu time spent up to now is     1023.1 secs

     total energy              =   -1229.66181240 Ry
     Harris-Foulkes estimate   =   -1229.67556989 Ry
     estimated scf accuracy    <       0.12804955 Ry

     iteration #  3     ecut=    36.75 Ry     beta=0.30
     Davidson diagonalization with overlap
     ethr =  1.16E-05,  avg # of iterations =  5.8

     negative rho (up, down):  7.504E-01 0.000E+00
 
     Adding external electric field

     Computed dipole along edir(3) : 
        Dipole               -0.0469 Ry au,         -0.1193 Debye
        Dipole field         -0.0001 Ry au
 
        Potential amp.        0.0090 Ry
        Total length         46.5096 bohr
 

     total cpu time spent up to now is     1049.7 secs

     total energy              =   -1229.65801790 Ry
     Harris-Foulkes estimate   =   -1229.67976661 Ry
     estimated scf accuracy    <       0.92481144 Ry

     iteration #  4     ecut=    36.75 Ry     beta=0.30
     Davidson diagonalization with overlap
     ethr =  1.16E-05,  avg # of iterations =  5.8

     negative rho (up, down):  7.504E-01 0.000E+00
 
     Adding external electric field

     Computed dipole along edir(3) : 
        Dipole               -0.0688 Ry au,         -0.1748 Debye
        Dipole field         -0.0001 Ry au
 
        Potential amp.        0.0132 Ry
        Total length         46.5096 bohr
 

     total cpu time spent up to now is     1075.5 secs

     total energy              =   -1229.66803855 Ry
[...]
   -25.7235 -25.7177 -25.6839 -25.6693 -25.6241 -25.5909 -25.5281 -25.5169
   -25.4714 -25.4358 -25.4064 -25.3870 -25.3786 -25.3576 -25.3169 -25.2712
   -25.1972 -25.1758 -25.1630 -25.1441 -25.1348 -25.1120 -25.0564 -25.0127
   -17.2080  -3.9538  -3.7541  -3.4077  -2.1454  -1.4489  -1.0475  -0.8378
    -0.6152  -0.3564  -0.2381  -0.1712   0.0045   0.1549   0.3522   0.4084
     0.4537   0.5037   0.6093   0.7838   0.8700   0.9317   1.0334   1.0921
     1.1845   1.2197   1.2651   1.3683   1.4438   1.5741   1.6248   1.7612
     1.8021   1.8527   1.8863   2.0696   2.4237

          k = 0.0260-0.0450 0.0000 ( 22896 PWs)   bands (ev):

   -47.7596 -47.7225 -47.7051 -47.6936 -47.6639 -47.6593 -47.6435 -47.5292
   -47.3337 -47.2858 -47.2783 -47.2508 -26.2912 -25.9716 -25.9516 -25.9358
   -25.9291 -25.8991 -25.8898 -25.8309 -25.8229 -25.8194 -25.7705 -25.7212
   -25.7055 -25.6651 -25.6250 -25.5862 -25.5310 -25.5198 -25.4794 -25.4774
   -25.4556 -25.4479 -25.4427 -25.4045 -25.3808 -25.3464 -25.3411 -25.1967
   -25.1783 -25.1692 -25.1457 -25.1340 -25.0938 -25.0913 -25.0632 -24.9740
   -17.2228  -3.9330  -3.7891  -3.4835  -2.7640  -1.6073  -1.0127  -0.9568
    -0.8619  -0.6416  -0.5697  -0.5388  -0.3336  -0.0314  -0.0215   0.0353
     0.0777   0.1868   0.4721   0.7141   0.7315   1.0787   1.3271   1.4122
     1.5248   1.5756   1.6360   1.7703   1.8814   1.9735   2.0154   2.1303
     2.1633   2.2744   2.3233   2.4033   2.4394

          k = 0.0519-0.0300 0.0000 ( 22852 PWs)   bands (ev):

   -47.7556 -47.7174 -47.7091 -47.6931 -47.6729 -47.6527 -47.6464 -47.5296
   -47.3295 -47.2913 -47.2761 -47.2518 -26.2690 -25.9522 -25.9382 -25.9183
   -25.9024 -25.8969 -25.8546 -25.8191 -25.8152 -25.8076 -25.7672 -25.7293
   -25.7047 -25.6747 -25.6178 -25.6117 -25.5703 -25.5643 -25.4968 -25.4788
   -25.4773 -25.4329 -25.4312 -25.4001 -25.3653 -25.3537 -25.3443 -25.1910
   -25.1787 -25.1755 -25.1588 -25.1421 -25.1315 -25.0984 -25.0539 -24.9797
   -17.2179  -3.9463  -3.7732  -3.4552  -2.6031  -1.4750  -1.2704  -0.7907
    -0.6326  -0.5684  -0.5099  -0.3889  -0.3313  -0.0420   0.1216   0.1695
     0.2098   0.3064   0.5060   0.7101   0.7920   1.0380   1.1786   1.3514
     1.4469   1.4594   1.4940   1.7033   1.8266   1.8584   1.9671   2.0140
     2.0862   2.1132   2.1925   2.3336   2.3811

          k = 0.0519 0.0000 0.0000 ( 22896 PWs)   bands (ev):

   -47.7596 -47.7225 -47.7051 -47.6936 -47.6639 -47.6593 -47.6435 -47.5292
   -47.3337 -47.2858 -47.2783 -47.2508 -26.2912 -25.9716 -25.9516 -25.9358
   -25.9291 -25.8991 -25.8898 -25.8309 -25.8229 -25.8194 -25.7705 -25.7212
   -25.7055 -25.6651 -25.6250 -25.5862 -25.5310 -25.5198 -25.4794 -25.4774
   -25.4556 -25.4479 -25.4427 -25.4045 -25.3808 -25.3464 -25.3411 -25.1967
   -25.1783 -25.1692 -25.1457 -25.1340 -25.0938 -25.0913 -25.0632 -24.9740
   -17.2228  -3.9330  -3.7891  -3.4835  -2.7640  -1.6073  -1.0127  -0.9568
    -0.8619  -0.6416  -0.5697  -0.5388  -0.3336  -0.0314  -0.0215   0.0353
     0.0777   0.1868   0.4721   0.7141   0.7315   1.0787   1.3271   1.4122
     1.5248   1.5756   1.6360   1.7703   1.8814   1.9735   2.0154   2.1303
     2.1633   2.2744   2.3233   2.4033   2.4394

          k = 0.0519 0.0300 0.0000 ( 22852 PWs)   bands (ev):

   -47.7556 -47.7174 -47.7091 -47.6931 -47.6729 -47.6527 -47.6464 -47.5296
   -47.3295 -47.2913 -47.2761 -47.2518 -26.2690 -25.9522 -25.9382 -25.9183
   -25.9024 -25.8969 -25.8546 -25.8191 -25.8152 -25.8076 -25.7672 -25.7293
   -25.7047 -25.6747 -25.6178 -25.6117 -25.5703 -25.5643 -25.4968 -25.4788
   -25.4773 -25.4329 -25.4312 -25.4001 -25.3653 -25.3537 -25.3443 -25.1910
   -25.1787 -25.1755 -25.1588 -25.1421 -25.1315 -25.0984 -25.0539 -24.9797
   -17.2179  -3.9463  -3.7732  -3.4552  -2.6031  -1.4750  -1.2704  -0.7907
    -0.6326  -0.5684  -0.5099  -0.3889  -0.3313  -0.0420   0.1216   0.1695
     0.2098   0.3064   0.5060   0.7101   0.7920   1.0380   1.1786   1.3514
     1.4469   1.4594   1.4940   1.7033   1.8266   1.8584   1.9671   2.0140
     2.0862   2.1132   2.1925   2.3336   2.3811

          k = 0.0519-0.1199 0.0000 ( 22856 PWs)   bands (ev):

   -47.7457 -47.7172 -47.7035 -47.6943 -47.6810 -47.6640 -47.6410 -47.5304
   -47.3182 -47.2981 -47.2814 -47.2512 -26.2146 -25.9065 -25.8948 -25.8752
   -25.8619 -25.8504 -25.8222 -25.7978 -25.7826 -25.7698 -25.7524 -25.7319
   -25.7235 -25.7177 -25.6839 -25.6693 -25.6241 -25.5909 -25.5281 -25.5169
   -25.4714 -25.4358 -25.4064 -25.3870 -25.3786 -25.3576 -25.3169 -25.2712
   -25.1972 -25.1758 -25.1630 -25.1441 -25.1348 -25.1120 -25.0564 -25.0127
   -17.2080  -3.9538  -3.7541  -3.4077  -2.1454  -1.4489  -1.0475  -0.8378
    -0.6152  -0.3564  -0.2381  -0.1712   0.0045   0.1549   0.3522   0.4084
     0.4537   0.5037   0.6093   0.7838   0.8700   0.9317   1.0334   1.0921
     1.1845   1.2197   1.2651   1.3683   1.4438   1.5741   1.6248   1.7612
     1.8021   1.8527   1.8863   2.0696   2.4237

          k = 0.0519-0.0899 0.0000 ( 22914 PWs)   bands (ev):

   -47.7378 -47.7235 -47.6956 -47.6864 -47.6863 -47.6788 -47.6381 -47.5307
   -47.3073 -47.3027 -47.2888 -47.2502 -26.1784 -25.8811 -25.8698 -25.8563
   -25.8388 -25.8069 -25.7996 -25.7733 -25.7710 -25.7655 -25.7411 -25.7334
   -25.7264 -25.7096 -25.7089 -25.6967 -25.6943 -25.6805 -25.5283 -25.4560
   -25.4500 -25.4490 -25.4461 -25.4309 -25.3534 -25.3485 -25.2939 -25.2860
   -25.2713 -25.1765 -25.1578 -25.1376 -25.1293 -25.0713 -25.0711 -25.0631
   -17.2031  -3.9517  -3.7475  -3.3881  -1.5438  -1.4971  -1.4076  -0.6141
    -0.5154  -0.4440   0.1111   0.2101   0.2173   0.2588   0.3507   0.3520
     0.6587   0.6982   0.7470   0.7890   0.8374   0.8657   0.8663   0.8915
     0.9130   0.9957   1.0633   1.3691   1.3694   1.4579   1.5192   1.5317
     1.5368   1.6867   1.7022   1.7912   2.4657

          k = 0.0519-0.0599 0.0000 ( 22856 PWs)   bands (ev):

   -47.7457 -47.7172 -47.7035 -47.6943 -47.6810 -47.6640 -47.6410 -47.5304
   -47.3182 -47.2981 -47.2814 -47.2512 -26.2146 -25.9065 -25.8948 -25.8752
   -25.8619 -25.8504 -25.8222 -25.7978 -25.7826 -25.7698 -25.7524 -25.7319
   -25.7235 -25.7177 -25.6839 -25.6693 -25.6241 -25.5909 -25.5281 -25.5169
   -25.4714 -25.4358 -25.4064 -25.3870 -25.3786 -25.3576 -25.3169 -25.2712
   -25.1972 -25.1758 -25.1630 -25.1441 -25.1348 -25.1120 -25.0564 -25.0127
   -17.2080  -3.9538  -3.7541  -3.4077  -2.1454  -1.4489  -1.0475  -0.8378
    -0.6152  -0.3564  -0.2381  -0.1712   0.0045   0.1549   0.3522   0.4084
     0.4537   0.5037   0.6093   0.7838   0.8700   0.9317   1.0334   1.0921
     1.1845   1.2197   1.2651   1.3683   1.4438   1.5741   1.6248   1.7612
     1.8021   1.8527   1.8863   2.0696   2.4237

          k =-0.0779 0.0450 0.0000 ( 22880 PWs)   bands (ev):

   -47.7449 -47.7191 -47.6975 -47.6932 -47.6928 -47.6527 -47.6466 -47.5304
   -47.3149 -47.3051 -47.2761 -47.2527 -26.2177 -25.9067 -25.8989 -25.8782
   -25.8622 -25.8523 -25.8355 -25.7955 -25.7788 -25.7660 -25.7352 -25.7199
   -25.7000 -25.6848 -25.6650 -25.6596 -25.6570 -25.6141 -25.6012 -25.5474
   -25.4578 -25.4052 -25.3940 -25.3895 -25.3693 -25.3666 -25.2632 -25.2477
   -25.2230 -25.2179 -25.1730 -25.1607 -25.1380 -25.1195 -25.0205 -25.0137
   -17.2081  -3.9630  -3.7477  -3.4038  -1.9559  -1.8526  -0.9913  -0.7938
    -0.3416  -0.3114  -0.2286  -0.2178  -0.1789  -0.0018   0.4260   0.5195
     0.5339   0.5819   0.6259   0.6850   0.9591   0.9980   1.0526   1.0791
     1.1003   1.2112   1.2963   1.3993   1.4701   1.5552   1.5947   1.6685
     1.7891   1.8518   1.9197   2.2436   2.2699

          k =-0.0779 0.0749 0.0000 ( 22856 PWs)   bands (ev):

   -47.7457 -47.7172 -47.7035 -47.6943 -47.6810 -47.6640 -47.6410 -47.5304
   -47.3182 -47.2981 -47.2814 -47.2512 -26.2146 -25.9065 -25.8948 -25.8752
   -25.8619 -25.8504 -25.8222 -25.7978 -25.7826 -25.7698 -25.7524 -25.7319
   -25.7235 -25.7177 -25.6839 -25.6693 -25.6241 -25.5909 -25.5281 -25.5169
   -25.4714 -25.4358 -25.4064 -25.3870 -25.3786 -25.3576 -25.3169 -25.2712
   -25.1972 -25.1758 -25.1630 -25.1441 -25.1348 -25.1120 -25.0564 -25.0127
   -17.2080  -3.9538  -3.7541  -3.4077  -2.1454  -1.4489  -1.0475  -0.8378
    -0.6152  -0.3564  -0.2381  -0.1712   0.0045   0.1549   0.3522   0.4084
     0.4537   0.5037   0.6093   0.7838   0.8700   0.9317   1.0334   1.0921
     1.1845   1.2197   1.2651   1.3683   1.4438   1.5741   1.6248   1.7612
     1.8021   1.8527   1.8863   2.0696   2.4237

          k =-0.0779 0.1049 0.0000 ( 22856 PWs)   bands (ev):

   -47.7457 -47.7172 -47.7035 -47.6943 -47.6810 -47.6640 -47.6410 -47.5304
   -47.3182 -47.2981 -47.2814 -47.2512 -26.2146 -25.9065 -25.8948 -25.8752
   -25.8619 -25.8504 -25.8222 -25.7978 -25.7826 -25.7698 -25.7524 -25.7319
   -25.7235 -25.7177 -25.6839 -25.6693 -25.6241 -25.5909 -25.5281 -25.5169
   -25.4714 -25.4358 -25.4064 -25.3870 -25.3786 -25.3576 -25.3169 -25.2712
   -25.1972 -25.1758 -25.1630 -25.1441 -25.1348 -25.1120 -25.0564 -25.0127
   -17.2080  -3.9538  -3.7541  -3.4077  -2.1454  -1.4489  -1.0475  -0.8378
    -0.6152  -0.3564  -0.2381  -0.1712   0.0045   0.1549   0.3522   0.4084
     0.4537   0.5037   0.6093   0.7838   0.8700   0.9317   1.0334   1.0921
     1.1845   1.2197   1.2651   1.3683   1.4438   1.5741   1.6248   1.7612
     1.8021   1.8527   1.8863   2.0696   2.4237

          k =-0.0779-0.0450 0.0000 ( 22880 PWs)   bands (ev):

   -47.7449 -47.7191 -47.6975 -47.6932 -47.6928 -47.6527 -47.6466 -47.5304
   -47.3149 -47.3051 -47.2761 -47.2527 -26.2177 -25.9067 -25.8989 -25.8782
   -25.8622 -25.8523 -25.8355 -25.7955 -25.7788 -25.7660 -25.7352 -25.7199
   -25.7000 -25.6848 -25.6650 -25.6596 -25.6570 -25.6141 -25.6012 -25.5474
   -25.4578 -25.4052 -25.3940 -25.3895 -25.3693 -25.3666 -25.2632 -25.2477
   -25.2230 -25.2179 -25.1730 -25.1607 -25.1380 -25.1195 -25.0205 -25.0137
   -17.2081  -3.9630  -3.7477  -3.4038  -1.9559  -1.8526  -0.9913  -0.7938
    -0.3416  -0.3114  -0.2286  -0.2178  -0.1789  -0.0018   0.4260   0.5195
     0.5339   0.5819   0.6259   0.6850   0.9591   0.9980   1.0526   1.0791
     1.1003   1.2111   1.2963   1.3993   1.4701   1.5552   1.5947   1.6685
     1.7891   1.8518   1.9197   2.2436   2.2699

     the Fermi energy is     1.5351 ev

!    total energy              =   -1229.70991225 Ry
     Harris-Foulkes estimate   =   -1229.70991228 Ry
     estimated scf accuracy    <       0.00000009 Ry

     The total energy is the sum of the following terms:

     one-electron contribution =   -8729.64457350 Ry
     hartree contribution      =    4358.79349175 Ry
     xc contribution           =    -228.36423551 Ry
     ewald contribution        =    3369.61654734 Ry
     electric field correction =       0.00000446 Ry
     smearing contrib. (-TS)   =      -0.11114680 Ry

     convergence has been achieved in  10 iterations
 
 BEEF-vdW xc energy contributions
           1 :   -195.629910159753     
           2 :    176.992842040421     
           3 :   -145.561480099173     
           4 :    110.159590908457     
           5 :   -78.7703001608706     
           6 :    55.7583202107215     
           7 :   -41.2026597751995     
           8 :    32.2147531975295     
           9 :   -25.2086140708203     
          10 :    17.8410407375418     
          11 :   -9.78186453571772     
          12 :    2.22707937568367     
          13 :    3.29090892467997     
          14 :   -6.00345412439424     
          15 :    6.32721618833190     
          16 :   -5.50175832334781     
          17 :    4.79482880525003     
          18 :   -4.81645759705694     
          19 :    5.33531572940325     
          20 :   -5.63632986310108     
          21 :    5.12069938057374     
          22 :   -3.73888566070627     
          23 :    2.00423674710379     
          24 :  -0.633275206284196     
          25 :   8.845232641812117E-002
          26 :  -0.326831842894535     
          27 :   0.888590688666142     
          28 :   -1.23103431924716     
          29 :    1.07305910213773     
          30 :  -0.534491536049018     
          31 :   -22.6171478786326     
          32 :   -16.8247724827204     

     Forces acting on atoms (Ry/au):


     negative rho (up, down):  7.511E-01 0.000E+00
     atom    1 type  1   force =     0.00000061    0.00000038    0.01152004
     atom    2 type  1   force =     0.00000015    0.00197581    0.01397883
     atom    3 type  1   force =     0.00171114   -0.00098779    0.01397887
     atom    4 type  1   force =    -0.00171121   -0.00098800    0.01397796
     atom    5 type  1   force =     0.00630459   -0.00363972   -0.01356179
     atom    6 type  1   force =    -0.00630528   -0.00364041   -0.01356117
     atom    7 type  1   force =    -0.00000052   -0.00000022   -0.01198453
     atom    8 type  1   force =     0.00000026    0.00727985   -0.01356188
     atom    9 type  1   force =    -0.00049792   -0.00028693    0.00011364
     atom   10 type  1   force =     0.00049799   -0.00028743    0.00011314
     atom   11 type  1   force =    -0.00000039    0.00057505    0.00011337
     atom   12 type  1   force =    -0.00000031   -0.00000050   -0.00033178
     atom   13 type  2   force =     0.00000090   -0.00000011   -0.00079471

     Total force =     0.001331     Total SCF correction =     0.000858
     SCF correction compared to forces is large: reduce conv_thr to get better values


     entering subroutine stress ...


     negative rho (up, down):  7.511E-01 0.000E+00
          total   stress  (Ry/bohr**3)                   (kbar)     P=   -4.32
  -0.00002162   0.00000000   0.00000000         -3.18      0.00      0.00
   0.00000000  -0.00002162   0.00000000          0.00     -3.18      0.00
   0.00000000   0.00000000  -0.00004496          0.00      0.00     -6.61


     bfgs converged in  17 scf cycles and  16 bfgs steps
     (criteria: energy <  1.0E+00, force <  1.9E-03)

     End of BFGS Geometry Optimization

     Final energy   =   -1229.7099122532 Ry
Begin final coordinates

ATOMIC_POSITIONS (crystal)
Zr1      0.166666667   0.166666667   0.396150897    0   0   0
Zr1      0.666666667   0.166666667   0.396150897    0   0   0
Zr1      0.166666667   0.666666667   0.396150897    0   0   0
Zr1      0.666666667   0.666666667   0.396150897    0   0   0
Zr1      0.833333333   0.333333333   0.500000000    0   0   0
Zr1      0.333333333   0.333333333   0.500000000    0   0   0
Zr1      0.833333333   0.833333333   0.500000000    0   0   0
Zr1      0.333333333   0.833333333   0.500000000    0   0   0
Zr1      0.001333898   0.001333517   0.602935833
Zr1      0.497328887   0.001333786   0.602936090
Zr1      0.001333893   0.497329024   0.602935985
Zr1      0.499999016   0.499999409   0.595073406
O1       0.166664985   0.166665754   0.641754967
End final coordinates



     Writing output data file calc.save
 
     init_run     :     14.74s CPU     15.18s WALL (       1 calls)
     electrons    :   6017.05s CPU   6422.89s WALL (      17 calls)
     update_pot   :     53.61s CPU     56.27s WALL (      16 calls)
     forces       :    325.85s CPU    351.10s WALL (      17 calls)
     stress       :    997.74s CPU   1045.85s WALL (      17 calls)

     Called by init_run:
     wfcinit      :      5.98s CPU      6.08s WALL (       1 calls)
     potinit      :      2.32s CPU      2.53s WALL (       1 calls)

     Called by electrons:
     c_bands      :   2243.67s CPU   2357.37s WALL (     197 calls)
     sum_band     :   1237.31s CPU   1323.35s WALL (     197 calls)
     v_of_rho     :    417.08s CPU    464.25s WALL (     210 calls)
     newd         :   1125.42s CPU   1147.00s WALL (     210 calls)
     mix_rho      :     14.47s CPU     14.87s WALL (     197 calls)
     vdW_energy   :    216.11s CPU    238.32s WALL (     822 calls)
     vdW_ffts     :    537.44s CPU    554.93s WALL (    1678 calls)
     vdW_v        :    223.80s CPU    229.88s WALL (     822 calls)

     Called by c_bands:
     init_us_2    :     16.17s CPU     16.23s WALL (    2145 calls)
     cegterg      :   2053.38s CPU   2103.24s WALL (     985 calls)

     Called by *egterg:
     h_psi        :   1397.17s CPU   1423.94s WALL (    5402 calls)
     s_psi        :    128.10s CPU    128.38s WALL (    5402 calls)
     g_psi        :      8.21s CPU      8.20s WALL (    4412 calls)
     cdiaghg      :    156.76s CPU    158.01s WALL (    5297 calls)

     Called by h_psi:
     add_vuspsi   :    132.06s CPU    132.39s WALL (    5402 calls)

     General routines
     calbec       :    197.27s CPU    200.58s WALL (    6557 calls)
     fft          :    879.08s CPU    954.14s WALL (   49643 calls)
     ffts         :      0.91s CPU      0.95s WALL (     407 calls)
     fftw         :    830.06s CPU    856.79s WALL (  525439 calls)
     interpolate  :      9.29s CPU      9.69s WALL (     407 calls)
     davcio       :      0.00s CPU      0.04s WALL (       5 calls)
 
     Parallel routines
     fft_scatter  :   1033.51s CPU   1132.63s WALL (  575489 calls)
 
     PWSCF        :     2h 5m CPU        2h13m WALL

 
   This run was terminated on:  22:20:25   2May2018            

=------------------------------------------------------------------------------=
   JOB DONE.
=------------------------------------------------------------------------------=
Job  /afs/slac/g/suncat/bin/suncat-tsmpirun -x LD_LIBRARY_PATH -wdir /scratch/qe929079_Ou4Tu pw.x -npool 4 -in pw.inp

TID   HOST_NAME   COMMAND_LINE            STATUS            TERMINATION_TIME
===== ========== ================  =======================  ===================
00000 suncat0071 pw.x -npool 4 -i  Done                     05/02/2018 22:20:25
00001 suncat0071 pw.x -npool 4 -i  Done                     05/02/2018 22:20:25
00002 suncat0071 pw.x -npool 4 -i  Done                     05/02/2018 22:20:25
00003 suncat0071 pw.x -npool 4 -i  Done                     05/02/2018 22:20:25
00004 suncat0071 pw.x -npool 4 -i  Done                     05/02/2018 22:20:25
00005 suncat0071 pw.x -npool 4 -i  Done                     05/02/2018 22:20:25
00006 suncat0071 pw.x -npool 4 -i  Done                     05/02/2018 22:20:25
00007 suncat0071 pw.x -npool 4 -i  Done                     05/02/2018 22:20:25
00008 suncat0068 pw.x -npool 4 -i  Done                     05/02/2018 22:20:25
00009 suncat0068 pw.x -npool 4 -i  Done                     05/02/2018 22:20:25
00010 suncat0068 pw.x -npool 4 -i  Done                     05/02/2018 22:20:25
00011 suncat0068 pw.x -npool 4 -i  Done                     05/02/2018 22:20:25
00012 suncat0068 pw.x -npool 4 -i  Done                     05/02/2018 22:20:25
00013 suncat0068 pw.x -npool 4 -i  Done                     05/02/2018 22:20:25
00014 suncat0068 pw.x -npool 4 -i  Done                     05/02/2018 22:20:25
00015 suncat0068 pw.x -npool 4 -i  Done                     05/02/2018 22:20:25
00016 suncat0062 pw.x -npool 4 -i  Done                     05/02/2018 22:20:25
00017 suncat0062 pw.x -npool 4 -i  Done                     05/02/2018 22:20:25
00018 suncat0062 pw.x -npool 4 -i  Done                     05/02/2018 22:20:25
00019 suncat0062 pw.x -npool 4 -i  Done                     05/02/2018 22:20:25
00020 suncat0062 pw.x -npool 4 -i  Done                     05/02/2018 22:20:25
00021 suncat0062 pw.x -npool 4 -i  Done                     05/02/2018 22:20:25
00022 suncat0062 pw.x -npool 4 -i  Done                     05/02/2018 22:20:25
00023 suncat0062 pw.x -npool 4 -i  Done                     05/02/2018 22:20:25
00024 suncat0055 pw.x -npool 4 -i  Done                     05/02/2018 22:20:25
00025 suncat0055 pw.x -npool 4 -i  Done                     05/02/2018 22:20:25
00026 suncat0055 pw.x -npool 4 -i  Done                     05/02/2018 22:20:25
00027 suncat0055 pw.x -npool 4 -i  Done                     05/02/2018 22:20:25
00028 suncat0055 pw.x -npool 4 -i  Done                     05/02/2018 22:20:25
00029 suncat0055 pw.x -npool 4 -i  Done                     05/02/2018 22:20:25
00030 suncat0055 pw.x -npool 4 -i  Done                     05/02/2018 22:20:25
00031 suncat0055 pw.x -npool 4 -i  Done                     05/02/2018 22:20:25
