  python dir    : /home/users/mamunm/src/decaf-espresso/decaf
espresso dir  : /home/users/jrboes/code/q-e/bin/pw.x
executable    : srun -D /tmp/qe_35371678s9qvfv42_scratch pw.x -in pw.pwi

     Program PWSCF v.6.1 starts on 11Jan2019 at 16:17:23 

     This program is part of the open-source Quantum ESPRESSO suite
     for quantum simulation of materials; please cite
         "P. Giannozzi et al., J. Phys.:Condens. Matter 21 395502 (2009);
          URL http://www.quantum-espresso.org", 
     in publications or presentations arising from this work. More details at
     http://www.quantum-espresso.org/quote

     Parallel version (MPI), running on    20 processors
     R & G space division:  proc/nbgrp/npool/nimage =      20
     Reading input from pw.pwi
Warning: card &CELL ignored
Warning: card / ignored

     Current dimensions of program PWSCF are:
     Max number of different atomic species (ntypx) = 10
     Max number of k-points (npk) =  40000
     Max angular momentum in pseudopotentials (lmaxx) =  3

     **************************************************************************
     Initializing libbeef V0.1.1 with the BEEF-vdW functional.
     Citation: Wellendorff et al., PRB 85, 235149 (2012).
     **************************************************************************


     IMPORTANT: XC functional enforced from input :
     Exchange-correlation      = BEEF-VDW ( 1  4 29 14 2 0)
     Any further DFT definition will be discarded
     Please, verify this is what you really want


     Subspace diagonalization in iterative solution of the eigenvalue problem:
     one sub-group per band group will be used
     scalapack distributed-memory algorithm (size of sub-group:  3*  3 procs)


     Parallelization info
     --------------------
     sticks:   dense  smooth     PW     G-vecs:    dense   smooth      PW
     Min         113      45     13                21031     5323     849
     Max         114      46     14                21042     5344     867
     Sum        2263     913    265               420703   106687   17243



     bravais-lattice index     =            0
     lattice parameter (alat)  =       9.4723  a.u.
     unit-cell volume          =    3537.7769 (a.u.)^3
     number of atoms/cell      =           13
     number of atomic types    =            2
     number of electrons       =       205.00
     number of Kohn-Sham states=          112
     kinetic-energy cutoff     =      36.7493  Ry
     charge density cutoff     =     367.4933  Ry
     convergence threshold     =      1.0E-04
     mixing beta               =       0.1000
     number of iterations used =            8  plain     mixing
     Exchange-correlation      = BEEF-VDW ( 1  4 29 14 2 0)
     nstep                     =           50


     celldm(1)=   9.472344  celldm(2)=   0.000000  celldm(3)=   0.000000
     celldm(4)=   0.000000  celldm(5)=   0.000000  celldm(6)=   0.000000

     crystal axes: (cart. coord. in units of alat)
               a(1) = (   1.000000   0.000000   0.000000 )  
               a(2) = (   0.500000   0.866025   0.000000 )  
               a(3) = (   0.000000   0.000000   4.806483 )  

     reciprocal axes: (cart. coord. in units 2 pi/alat)
               b(1) = (  1.000000 -0.577350  0.000000 )  
               b(2) = (  0.000000  1.154701  0.000000 )  
               b(3) = (  0.000000  0.000000  0.208052 )  


     PseudoPot. # 1 for Co read from file:
     /home/users/mamunm/src/decaf-espresso/gbrv15pbe/Co.UPF
     MD5 check sum: 5f91765df6ddd3222702df6e7b74a16d
     Pseudo is Ultrasoft + core correction, Zval = 17.0
     Generated by new atomic code, or converted to UPF format
     Using radial grid of  863 points,  6 beta functions with: 
                l(1) =   0
                l(2) =   0
                l(3) =   1
                l(4) =   1
                l(5) =   2
                l(6) =   2
     Q(r) pseudized with  8 coefficients,  rinner =    1.200   1.200   1.200
                                                       1.200   1.200

     PseudoPot. # 2 for H  read from file:
     /home/users/mamunm/src/decaf-espresso/gbrv15pbe/H.UPF
     MD5 check sum: 761ae9a214b05c3daf00ab9f6b793d6f
     Pseudo is Ultrasoft, Zval =  1.0
     Generated by new atomic code, or converted to UPF format
     Using radial grid of  615 points,  2 beta functions with: 
                l(1) =   0
                l(2) =   0
     Q(r) pseudized with  8 coefficients,  rinner =    0.700

     vdW kernel table read from file vdW_kernel_table
     MD5 check sum: 095c7af220d748ca6e76c0b4c6cfb241

     atomic species   valence    mass     pseudopotential
        Co            17.00    58.93319     Co( 1.00)
        H              1.00     1.00800     H ( 1.00)

     Starting magnetic structure 
     atomic species   magnetization
        Co           0.118
        H            0.000

     No symmetry found



   Cartesian axes

     site n.     atom                  positions (alat units)
         1           Co  tau(   1) = (   0.2500000   0.1443376   1.9949931  )
         2           Co  tau(   2) = (   0.7500000   0.1443376   1.9949931  )
         3           Co  tau(   3) = (   0.5000000   0.5773503   1.9949931  )
         4           Co  tau(   4) = (   1.0000000   0.5773503   1.9949931  )
         5           Co  tau(   5) = (   1.0000000   0.2886751   2.4032414  )
         6           Co  tau(   6) = (   0.5000000   0.2886751   2.4032414  )
         7           Co  tau(   7) = (   1.2500000   0.7216878   2.4032414  )
         8           Co  tau(   8) = (   0.7500000   0.7216878   2.4032414  )
         9           Co  tau(   9) = (  -0.0022258  -0.0012796   2.8058318  )
        10           Co  tau(  10) = (   0.5022194  -0.0012817   2.8058237  )
        11           Co  tau(  11) = (   0.2499952   0.4355743   2.8058312  )
        12           Co  tau(  12) = (   0.7500044   0.4330101   2.7980514  )
        13           H   tau(  13) = (   0.2500000   0.1443348   2.9943072  )

     number of k points=    20  Fermi-Dirac smearing, width (Ry)=  0.0110
                       cart. coord. in units 2pi/alat
        k(    1) = (   0.0000000   0.0000000   0.0000000), wk =   0.0277778
        k(    2) = (   0.0000000   0.1924501   0.0000000), wk =   0.0555556
        k(    3) = (   0.0000000   0.3849002   0.0000000), wk =   0.0555556
        k(    4) = (   0.0000000  -0.5773503   0.0000000), wk =   0.0277778
        k(    5) = (   0.1666667  -0.0962250   0.0000000), wk =   0.0555556
        k(    6) = (   0.1666667   0.0962250   0.0000000), wk =   0.0555556
        k(    7) = (   0.1666667   0.2886751   0.0000000), wk =   0.0555556
        k(    8) = (   0.1666667  -0.6735753   0.0000000), wk =   0.0555556
        k(    9) = (   0.1666667  -0.4811252   0.0000000), wk =   0.0555556
        k(   10) = (   0.1666667  -0.2886751   0.0000000), wk =   0.0555556
        k(   11) = (   0.3333333  -0.1924501   0.0000000), wk =   0.0555556
        k(   12) = (   0.3333333  -0.0000000   0.0000000), wk =   0.0555556
        k(   13) = (   0.3333333   0.1924501   0.0000000), wk =   0.0555556
        k(   14) = (   0.3333333  -0.7698004   0.0000000), wk =   0.0555556
        k(   15) = (   0.3333333  -0.5773503   0.0000000), wk =   0.0555556
        k(   16) = (   0.3333333  -0.3849002   0.0000000), wk =   0.0555556
        k(   17) = (  -0.5000000   0.2886751   0.0000000), wk =   0.0277778
        k(   18) = (  -0.5000000   0.4811252   0.0000000), wk =   0.0555556
        k(   19) = (  -0.5000000   0.6735753   0.0000000), wk =   0.0555556
        k(   20) = (  -0.5000000  -0.2886751   0.0000000), wk =   0.0277778

     Dense  grid:   420703 G-vectors     FFT dimensions: (  60,  60, 288)

     Smooth grid:   106687 G-vectors     FFT dimensions: (  40,  40, 180)

     Estimated max dynamical RAM per process >      79.76MB

     Estimated total allocated dynamical RAM >    1595.24MB
     Generating pointlists ...
     new r_m :   0.1431 (alat units)  1.3555 (a.u.) for type    1
     new r_m :   0.1431 (alat units)  1.3555 (a.u.) for type    2

     Check: negative/imaginary core charge=   -0.000007    0.000000

     Initial potential from superposition of free atoms
     Check: negative starting charge=(component1):   -0.000205
     Check: negative starting charge=(component2):   -0.000161

     starting charge  192.99991, renormalised to  205.00000

     negative rho (up, down):  2.178E-04 1.709E-04


     %%%%%%%%%%%%%%%%%%%%%%%%%%%%%%%%%%%%%%%%%%%%%%%%%%%%%%%%%%%%%%%%%%%%%%%%
     %                                                                      %
     % You are using vdW-DF, which was implemented by the Thonhauser group. %
     % Please cite the following two papers that made this development      %
     % possible and the two reviews that describe the various versions:     %
     %                                                                      %
     %   T. Thonhauser et al., PRL 115, 136402 (2015).                      %
     %   T. Thonhauser et al., PRB 76, 125112 (2007).                       %
     %   K. Berland et al., Rep. Prog. Phys. 78, 066501 (2015).             %
     %   D.C. Langreth et al., J. Phys.: Condens. Matter 21, 084203 (2009). %
     %                                                                      %
     %                                                                      %
     % If you are calculating the stress with vdW-DF, please also cite:     %
     %                                                                      %
     %   R. Sabatini et al., J. Phys.: Condens. Matter 24, 424209 (2012).   %
     %                                                                      %
     %%%%%%%%%%%%%%%%%%%%%%%%%%%%%%%%%%%%%%%%%%%%%%%%%%%%%%%%%%%%%%%%%%%%%%%%



     Adding external electric field

     Computed dipole along edir(3) : 
        Dipole               -0.3496 Ry au,         -0.8885 Debye
        Dipole field         -0.0012 Ry au, 

        Potential amp.        0.1018 Ry
        Total length         40.9758 bohr


     Adding external electric field

     Computed dipole along edir(3) : 
        Dipole               -0.3496 Ry au,         -0.8885 Debye
        Dipole field         -0.0012 Ry au, 

        Potential amp.        0.1018 Ry
        Total length         40.9758 bohr

     Starting wfc are  157 randomized atomic wfcs

     total cpu time spent up to now is        9.3 secs

     per-process dynamical memory:   117.3 Mb

     Self-consistent Calculation

     iteration #  1     ecut=    36.75 Ry     beta=0.10
     Davidson diagonalization with overlap
     ethr =  1.00E-02,  avg # of iterations =  8.1

     Adding external electric field

     Computed dipole along edir(3) : 
        Dipole               -1.5540 Ry au,         -3.9500 Debye
        Dipole field         -0.0055 Ry au, 

        Potential amp.        0.4524 Ry
        Total length         40.9758 bohr


     Adding external electric field

     Computed dipole along edir(3) : 
        Dipole               -1.5540 Ry au,         -3.9500 Debye
        Dipole field         -0.0055 Ry au, 

        Potential amp.        0.4524 Ry
        Total length         40.9758 bohr


     total cpu time spent up to now is       58.1 secs

     total energy              =   -3531.11359535 Ry
     Harris-Foulkes estimate   =   -3621.33469128 Ry
     estimated scf accuracy    <     507.78704457 Ry

     total magnetization       =     9.36 Bohr mag/cell
     absolute magnetization    =    11.14 Bohr mag/cell

     iteration #  2     ecut=    36.75 Ry     beta=0.10
     Davidson diagonalization with overlap
     ethr =  1.00E-02,  avg # of iterations =  7.3

     Adding external electric field

     Computed dipole along edir(3) : 
        Dipole               -8.1423 Ry au,        -20.6956 Debye
        Dipole field         -0.0289 Ry au, 

        Potential amp.        2.3702 Ry
        Total length         40.9758 bohr


     Adding external electric field

     Computed dipole along edir(3) : 
        Dipole               -8.1423 Ry au,        -20.6956 Debye
        Dipole field         -0.0289 Ry au, 

        Potential amp.        2.3702 Ry
        Total length         40.9758 bohr


     total cpu time spent up to now is      108.2 secs

     total energy              =   -3569.30009898 Ry
     Harris-Foulkes estimate   =   -3612.46661930 Ry
     estimated scf accuracy    <     422.15236306 Ry

     total magnetization       =     3.97 Bohr mag/cell
     absolute magnetization    =     4.88 Bohr mag/cell

     iteration #  3     ecut=    36.75 Ry     beta=0.10
     Davidson diagonalization with overlap
     ethr =  1.00E-02,  avg # of iterations =  5.1

     Adding external electric field

     Computed dipole along edir(3) : 
        Dipole               -2.8979 Ry au,         -7.3657 Debye
        Dipole field         -0.0103 Ry au, 

        Potential amp.        0.8436 Ry
        Total length         40.9758 bohr


     Adding external electric field

     Computed dipole along edir(3) : 
        Dipole               -2.8979 Ry au,         -7.3657 Debye
        Dipole field         -0.0103 Ry au, 

        Potential amp.        0.8436 Ry
        Total length         40.9758 bohr


     total cpu time spent up to now is      148.5 secs

     total energy              =   -3584.26781038 Ry
     Harris-Foulkes estimate   =   -3632.74230414 Ry
     estimated scf accuracy    <    1132.73057197 Ry

     total magnetization       =     1.78 Bohr mag/cell
     absolute magnetization    =     2.39 Bohr mag/cell

     iteration #  4     ecut=    36.75 Ry     beta=0.10
     Davidson diagonalization with overlap
     ethr =  1.00E-02,  avg # of iterations =  6.2

     Adding external electric field

     Computed dipole along edir(3) : 
        Dipole               -2.7404 Ry au,         -6.9655 Debye
        Dipole field         -0.0097 Ry au, 

        Potential amp.        0.7977 Ry
        Total length         40.9758 bohr


     Adding external electric field

     Computed dipole along edir(3) : 
        Dipole               -2.7404 Ry au,         -6.9655 Debye
        Dipole field         -0.0097 Ry au, 

        Potential amp.        0.7977 Ry
        Total length         40.9758 bohr


     total cpu time spent up to now is      193.3 secs

     total energy              =   -3596.29134597 Ry
     Harris-Foulkes estimate   =   -3602.28257443 Ry
     estimated scf accuracy    <      81.14891370 Ry

     total magnetization       =     8.91 Bohr mag/cell
     absolute magnetization    =     9.55 Bohr mag/cell

     iteration #  5     ecut=    36.75 Ry     beta=0.10
     Davidson diagonalization with overlap
     ethr =  1.00E-02,  avg # of iterations =  1.7

     Adding external electric field

     Computed dipole along edir(3) : 
        Dipole               -1.1493 Ry au,         -2.9212 Debye
        Dipole field         -0.0041 Ry au, 

        Potential amp.        0.3346 Ry
        Total length         40.9758 bohr


     Adding external electric field

     Computed dipole along edir(3) : 
        Dipole               -1.1493 Ry au,         -2.9212 Debye
        Dipole field         -0.0041 Ry au, 

        Potential amp.        0.3346 Ry
        Total length         40.9758 bohr


     total cpu time spent up to now is      209.0 secs

     total energy              =   -3592.83717653 Ry
     Harris-Foulkes estimate   =   -3598.48678053 Ry
     estimated scf accuracy    <      51.94091338 Ry

     total magnetization       =    13.95 Bohr mag/cell
     absolute magnetization    =    14.81 Bohr mag/cell

     iteration #  6     ecut=    36.75 Ry     beta=0.10
     Davidson diagonalization with overlap
     ethr =  1.00E-02,  avg # of iterations =  4.3

     Adding external electric field

     Computed dipole along edir(3) : 
        Dipole               -1.8517 Ry au,         -4.7064 Debye
        Dipole field         -0.0066 Ry au, 

        Potential amp.        0.5390 Ry
        Total length         40.9758 bohr


     Adding external electric field

     Computed dipole along edir(3) : 
        Dipole               -1.8517 Ry au,         -4.7064 Debye
        Dipole field         -0.0066 Ry au, 

        Potential amp.        0.5390 Ry
        Total length         40.9758 bohr


     total cpu time spent up to now is      233.6 secs

     total energy              =   -3592.77127280 Ry
     Harris-Foulkes estimate   =   -3602.07988838 Ry
     estimated scf accuracy    <     318.18997177 Ry

     total magnetization       =     6.39 Bohr mag/cell
     absolute magnetization    =     7.17 Bohr mag/cell

     iteration #  7     ecut=    36.75 Ry     beta=0.10
     Davidson diagonalization with overlap
     ethr =  1.00E-02,  avg # of iterations =  2.5

     Adding external electric field

     Computed dipole along edir(3) : 
        Dipole               -1.6544 Ry au,         -4.2050 Debye
        Dipole field         -0.0059 Ry au, 

        Potential amp.        0.4816 Ry
        Total length         40.9758 bohr


     Adding external electric field

     Computed dipole along edir(3) : 
        Dipole               -1.6544 Ry au,         -4.2050 Debye
        Dipole field         -0.0059 Ry au, 

        Potential amp.        0.4816 Ry
        Total length         40.9758 bohr


     total cpu time spent up to now is      250.1 secs

     total energy              =   -3595.54307210 Ry
     Harris-Foulkes estimate   =   -3595.72873880 Ry
     estimated scf accuracy    <      14.53461378 Ry

     total magnetization       =    13.65 Bohr mag/cell
     absolute magnetization    =    15.13 Bohr mag/cell

     iteration #  8     ecut=    36.75 Ry     beta=0.10
     Davidson diagonalization with overlap
     ethr =  7.09E-03,  avg # of iterations =  1.4

     Adding external electric field

     Computed dipole along edir(3) : 
        Dipole               -1.5899 Ry au,         -4.0410 Debye
        Dipole field         -0.0056 Ry au, 

        Potential amp.        0.4628 Ry
        Total length         40.9758 bohr


     Adding external electric field

     Computed dipole along edir(3) : 
        Dipole               -1.5899 Ry au,         -4.0410 Debye
        Dipole field         -0.0056 Ry au, 

        Potential amp.        0.4628 Ry
        Total length         40.9758 bohr


     total cpu time spent up to now is      264.7 secs

     total energy              =   -3595.64679558 Ry
     Harris-Foulkes estimate   =   -3595.70277760 Ry
     estimated scf accuracy    <       8.94422081 Ry

     total magnetization       =    14.25 Bohr mag/cell
     absolute magnetization    =    15.78 Bohr mag/cell

     iteration #  9     ecut=    36.75 Ry     beta=0.10
     Davidson diagonalization with overlap
     ethr =  4.36E-03,  avg # of iterations =  1.1

     Adding external electric field

     Computed dipole along edir(3) : 
        Dipole               -1.4385 Ry au,         -3.6562 Debye
        Dipole field         -0.0051 Ry au, 

        Potential amp.        0.4187 Ry
        Total length         40.9758 bohr


     Adding external electric field

     Computed dipole along edir(3) : 
        Dipole               -1.4385 Ry au,         -3.6562 Debye
        Dipole field         -0.0051 Ry au, 

        Potential amp.        0.4187 Ry
        Total length         40.9758 bohr


     total cpu time spent up to now is      280.8 secs

     total energy              =   -3595.59968258 Ry
     Harris-Foulkes estimate   =   -3595.69171832 Ry
     estimated scf accuracy    <       6.81761758 Ry

     total magnetization       =    14.25 Bohr mag/cell
     absolute magnetization    =    15.65 Bohr mag/cell

     iteration # 10     ecut=    36.75 Ry     beta=0.10
     Davidson diagonalization with overlap
     ethr =  3.33E-03,  avg # of iterations =  1.2

     Adding external electric field

     Computed dipole along edir(3) : 
        Dipole               -0.5995 Ry au,         -1.5237 Debye
        Dipole field         -0.0021 Ry au, 

        Potential amp.        0.1745 Ry
        Total length         40.9758 bohr


     Adding external electric field

     Computed dipole along edir(3) : 
        Dipole               -0.5995 Ry au,         -1.5237 Debye
        Dipole field         -0.0021 Ry au, 

        Potential amp.        0.1745 Ry
        Total length         40.9758 bohr


     total cpu time spent up to now is      295.4 secs

     total energy              =   -3594.97064429 Ry
     Harris-Foulkes estimate   =   -3595.63429320 Ry
     estimated scf accuracy    <       4.87449272 Ry

     total magnetization       =    14.25 Bohr mag/cell
     absolute magnetization    =    15.65 Bohr mag/cell

     iteration # 11     ecut=    36.75 Ry     beta=0.10
     Davidson diagonalization with overlap
     ethr =  2.38E-03,  avg # of iterations =  5.6

     Adding external electric field

     Computed dipole along edir(3) : 
        Dipole               -0.3074 Ry au,         -0.7814 Debye
        Dipole field         -0.0011 Ry au, 

        Potential amp.        0.0895 Ry
        Total length         40.9758 bohr


     Adding external electric field

     Computed dipole along edir(3) : 
        Dipole               -0.3074 Ry au,         -0.7814 Debye
        Dipole field         -0.0011 Ry au, 

        Potential amp.        0.0895 Ry
        Total length         40.9758 bohr


     total cpu time spent up to now is      323.7 secs

     total energy              =   -3595.32871118 Ry
     Harris-Foulkes estimate   =   -3595.94995486 Ry
     estimated scf accuracy    <      20.51660541 Ry

     total magnetization       =    15.93 Bohr mag/cell
     absolute magnetization    =    17.22 Bohr mag/cell

     iteration # 12     ecut=    36.75 Ry     beta=0.10
     Davidson diagonalization with overlap
     ethr =  2.38E-03,  avg # of iterations =  1.0

     Adding external electric field

     Computed dipole along edir(3) : 
        Dipole               -0.2675 Ry au,         -0.6799 Debye
        Dipole field         -0.0010 Ry au, 

        Potential amp.        0.0779 Ry
        Total length         40.9758 bohr


     Adding external electric field

     Computed dipole along edir(3) : 
        Dipole               -0.2675 Ry au,         -0.6799 Debye
        Dipole field         -0.0010 Ry au, 

        Potential amp.        0.0779 Ry
        Total length         40.9758 bohr


     total cpu time spent up to now is      339.3 secs

     total energy              =   -3595.35352189 Ry
     Harris-Foulkes estimate   =   -3595.48194360 Ry
     estimated scf accuracy    <       5.58690096 Ry

     total magnetization       =    17.24 Bohr mag/cell
     absolute magnetization    =    18.63 Bohr mag/cell

     iteration # 13     ecut=    36.75 Ry     beta=0.10
     Davidson diagonalization with overlap
     ethr =  2.38E-03,  avg # of iterations =  1.8

     Adding external electric field

     Computed dipole along edir(3) : 
        Dipole               -0.2677 Ry au,         -0.6804 Debye
        Dipole field         -0.0010 Ry au, 

        Potential amp.        0.0779 Ry
        Total length         40.9758 bohr


     Adding external electric field

     Computed dipole along edir(3) : 
        Dipole               -0.2677 Ry au,         -0.6804 Debye
        Dipole field         -0.0010 Ry au, 

        Potential amp.        0.0779 Ry
        Total length         40.9758 bohr


     total cpu time spent up to now is      356.9 secs

     total energy              =   -3595.43208153 Ry
     Harris-Foulkes estimate   =   -3595.42812253 Ry
     estimated scf accuracy    <       0.69095475 Ry

     total magnetization       =    17.27 Bohr mag/cell
     absolute magnetization    =    18.84 Bohr mag/cell

     iteration # 14     ecut=    36.75 Ry     beta=0.10
     Davidson diagonalization with overlap
     ethr =  3.37E-04,  avg # of iterations =  3.7

     Adding external electric field

     Computed dipole along edir(3) : 
        Dipole               -0.2619 Ry au,         -0.6656 Debye
        Dipole field         -0.0009 Ry au, 

        Potential amp.        0.0762 Ry
        Total length         40.9758 bohr


     Adding external electric field

     Computed dipole along edir(3) : 
        Dipole               -0.2619 Ry au,         -0.6656 Debye
        Dipole field         -0.0009 Ry au, 

        Potential amp.        0.0762 Ry
        Total length         40.9758 bohr


     total cpu time spent up to now is      375.2 secs

     total energy              =   -3595.45574469 Ry
     Harris-Foulkes estimate   =   -3595.46433444 Ry
     estimated scf accuracy    <       0.43709500 Ry

     total magnetization       =    17.74 Bohr mag/cell
     absolute magnetization    =    19.30 Bohr mag/cell

     iteration # 15     ecut=    36.75 Ry     beta=0.10
     Davidson diagonalization with overlap
     ethr =  2.13E-04,  avg # of iterations =  3.1

     Adding external electric field

     Computed dipole along edir(3) : 
        Dipole               -0.2705 Ry au,         -0.6876 Debye
        Dipole field         -0.0010 Ry au, 

        Potential amp.        0.0787 Ry
        Total length         40.9758 bohr


     Adding external electric field

     Computed dipole along edir(3) : 
        Dipole               -0.2705 Ry au,         -0.6876 Debye
        Dipole field         -0.0010 Ry au, 

        Potential amp.        0.0787 Ry
        Total length         40.9758 bohr


     total cpu time spent up to now is      393.8 secs

     total energy              =   -3595.47132579 Ry
     Harris-Foulkes estimate   =   -3595.47111514 Ry
     estimated scf accuracy    <       0.16039603 Ry

     total magnetization       =    17.70 Bohr mag/cell
     absolute magnetization    =    19.30 Bohr mag/cell

     iteration # 16     ecut=    36.75 Ry     beta=0.10
     Davidson diagonalization with overlap
     ethr =  7.82E-05,  avg # of iterations =  2.6

     Adding external electric field

     Computed dipole along edir(3) : 
        Dipole               -0.2982 Ry au,         -0.7579 Debye
        Dipole field         -0.0011 Ry au, 

        Potential amp.        0.0868 Ry
        Total length         40.9758 bohr


     Adding external electric field

     Computed dipole along edir(3) : 
        Dipole               -0.2982 Ry au,         -0.7579 Debye
        Dipole field         -0.0011 Ry au, 

        Potential amp.        0.0868 Ry
        Total length         40.9758 bohr


     total cpu time spent up to now is      412.1 secs

     total energy              =   -3595.47704295 Ry
     Harris-Foulkes estimate   =   -3595.48115555 Ry
     estimated scf accuracy    <       0.07075358 Ry

     total magnetization       =    18.11 Bohr mag/cell
     absolute magnetization    =    19.71 Bohr mag/cell

     iteration # 17     ecut=    36.75 Ry     beta=0.10
     Davidson diagonalization with overlap
     ethr =  3.45E-05,  avg # of iterations =  1.0

     Adding external electric field

     Computed dipole along edir(3) : 
        Dipole               -0.2733 Ry au,         -0.6948 Debye
        Dipole field         -0.0010 Ry au, 

        Potential amp.        0.0796 Ry
        Total length         40.9758 bohr


     Adding external electric field

     Computed dipole along edir(3) : 
        Dipole               -0.2733 Ry au,         -0.6948 Debye
        Dipole field         -0.0010 Ry au, 

        Potential amp.        0.0796 Ry
        Total length         40.9758 bohr


     total cpu time spent up to now is      426.4 secs

     total energy              =   -3595.48120476 Ry
     Harris-Foulkes estimate   =   -3595.47810273 Ry
     estimated scf accuracy    <       0.09718097 Ry

     total magnetization       =    18.02 Bohr mag/cell
     absolute magnetization    =    19.57 Bohr mag/cell

     iteration # 18     ecut=    36.75 Ry     beta=0.10
     Davidson diagonalization with overlap
     ethr =  3.45E-05,  avg # of iterations =  1.0

     Adding external electric field

     Computed dipole along edir(3) : 
        Dipole               -0.1767 Ry au,         -0.4492 Debye
        Dipole field         -0.0006 Ry au, 

        Potential amp.        0.0515 Ry
        Total length         40.9758 bohr


     Adding external electric field

     Computed dipole along edir(3) : 
        Dipole               -0.1767 Ry au,         -0.4492 Debye
        Dipole field         -0.0006 Ry au, 

        Potential amp.        0.0515 Ry
        Total length         40.9758 bohr


     total cpu time spent up to now is      440.8 secs

     total energy              =   -3595.48780794 Ry
     Harris-Foulkes estimate   =   -3595.48207084 Ry
     estimated scf accuracy    <       0.12180916 Ry

     total magnetization       =    18.18 Bohr mag/cell
     absolute magnetization    =    19.78 Bohr mag/cell

     iteration # 19     ecut=    36.75 Ry     beta=0.10
     Davidson diagonalization with overlap
     ethr =  3.45E-05,  avg # of iterations =  3.0

     Adding external electric field

     Computed dipole along edir(3) : 
        Dipole               -0.1134 Ry au,         -0.2882 Debye
        Dipole field         -0.0004 Ry au, 

        Potential amp.        0.0330 Ry
        Total length         40.9758 bohr


     Adding external electric field

     Computed dipole along edir(3) : 
        Dipole               -0.1134 Ry au,         -0.2882 Debye
        Dipole field         -0.0004 Ry au, 

        Potential amp.        0.0330 Ry
        Total length         40.9758 bohr


     total cpu time spent up to now is      463.4 secs

     total energy              =   -3595.49504270 Ry
     Harris-Foulkes estimate   =   -3595.49256140 Ry
     estimated scf accuracy    <       0.30809626 Ry

     total magnetization       =    18.43 Bohr mag/cell
     absolute magnetization    =    20.29 Bohr mag/cell

     iteration # 20     ecut=    36.75 Ry     beta=0.10
     Davidson diagonalization with overlap
     ethr =  3.45E-05,  avg # of iterations =  1.2

     negative rho (up, down):  9.918E-08 0.000E+00

     Adding external electric field

     Computed dipole along edir(3) : 
        Dipole               -0.0667 Ry au,         -0.1696 Debye
        Dipole field         -0.0002 Ry au, 

        Potential amp.        0.0194 Ry
        Total length         40.9758 bohr


     Adding external electric field

     Computed dipole along edir(3) : 
        Dipole               -0.0667 Ry au,         -0.1696 Debye
        Dipole field         -0.0002 Ry au, 

        Potential amp.        0.0194 Ry
        Total length         40.9758 bohr


     total cpu time spent up to now is      480.0 secs

     total energy              =   -3595.49907474 Ry
     Harris-Foulkes estimate   =   -3595.49722058 Ry
     estimated scf accuracy    <       0.10244119 Ry

     total magnetization       =    18.54 Bohr mag/cell
     absolute magnetization    =    20.58 Bohr mag/cell

     iteration # 21     ecut=    36.75 Ry     beta=0.10
     Davidson diagonalization with overlap
     ethr =  3.45E-05,  avg # of iterations =  1.1

     negative rho (up, down):  1.461E-03 1.401E-03

     Adding external electric field

     Computed dipole along edir(3) : 
        Dipole               -0.0208 Ry au,         -0.0528 Debye
        Dipole field         -0.0001 Ry au, 

        Potential amp.        0.0060 Ry
        Total length         40.9758 bohr


     Adding external electric field

     Computed dipole along edir(3) : 
        Dipole               -0.0208 Ry au,         -0.0528 Debye
        Dipole field         -0.0001 Ry au, 

        Potential amp.        0.0060 Ry
        Total length         40.9758 bohr


     total cpu time spent up to now is      498.7 secs

     total energy              =   -3595.50179360 Ry
     Harris-Foulkes estimate   =   -3595.50051985 Ry
     estimated scf accuracy    <       0.02186437 Ry

     total magnetization       =    18.59 Bohr mag/cell
     absolute magnetization    =    20.81 Bohr mag/cell

     iteration # 22     ecut=    36.75 Ry     beta=0.10
     Davidson diagonalization with overlap
     ethr =  1.07E-05,  avg # of iterations =  3.6

     negative rho (up, down):  3.027E-03 3.180E-03

     Adding external electric field

     Computed dipole along edir(3) : 
        Dipole               -0.0068 Ry au,         -0.0173 Debye
        Dipole field         -0.0000 Ry au, 

        Potential amp.        0.0020 Ry
        Total length         40.9758 bohr


     Adding external electric field

     Computed dipole along edir(3) : 
        Dipole               -0.0068 Ry au,         -0.0173 Debye
        Dipole field         -0.0000 Ry au, 

        Potential amp.        0.0020 Ry
        Total length         40.9758 bohr


     total cpu time spent up to now is      517.8 secs

     total energy              =   -3595.51053511 Ry
     Harris-Foulkes estimate   =   -3595.51060626 Ry
     estimated scf accuracy    <       0.03472957 Ry

     total magnetization       =    18.88 Bohr mag/cell
     absolute magnetization    =    21.31 Bohr mag/cell

     iteration # 23     ecut=    36.75 Ry     beta=0.10
     Davidson diagonalization with overlap
     ethr =  1.07E-05,  avg # of iterations =  1.0

     negative rho (up, down):  7.170E-03 7.656E-03

     Adding external electric field

     Computed dipole along edir(3) : 
        Dipole                0.0112 Ry au,          0.0286 Debye
        Dipole field          0.0000 Ry au, 

        Potential amp.       -0.0033 Ry
        Total length         40.9758 bohr


     Adding external electric field

     Computed dipole along edir(3) : 
        Dipole                0.0112 Ry au,          0.0286 Debye
        Dipole field          0.0000 Ry au, 

        Potential amp.       -0.0033 Ry
        Total length         40.9758 bohr


     total cpu time spent up to now is      531.8 secs

     total energy              =   -3595.51221417 Ry
     Harris-Foulkes estimate   =   -3595.51090776 Ry
     estimated scf accuracy    <       0.01729005 Ry

     total magnetization       =    18.89 Bohr mag/cell
     absolute magnetization    =    21.37 Bohr mag/cell

     iteration # 24     ecut=    36.75 Ry     beta=0.10
     Davidson diagonalization with overlap
     ethr =  8.43E-06,  avg # of iterations =  1.8

     negative rho (up, down):  4.969E-03 5.284E-03

     Adding external electric field

     Computed dipole along edir(3) : 
        Dipole                0.0065 Ry au,          0.0164 Debye
        Dipole field          0.0000 Ry au, 

        Potential amp.       -0.0019 Ry
        Total length         40.9758 bohr


     Adding external electric field

     Computed dipole along edir(3) : 
        Dipole                0.0065 Ry au,          0.0164 Debye
        Dipole field          0.0000 Ry au, 

        Potential amp.       -0.0019 Ry
        Total length         40.9758 bohr


     total cpu time spent up to now is      547.4 secs

     total energy              =   -3595.51241666 Ry
     Harris-Foulkes estimate   =   -3595.51268788 Ry
     estimated scf accuracy    <       0.00670848 Ry

     total magnetization       =    18.91 Bohr mag/cell
     absolute magnetization    =    21.49 Bohr mag/cell

     iteration # 25     ecut=    36.75 Ry     beta=0.10
     Davidson diagonalization with overlap
     ethr =  3.27E-06,  avg # of iterations =  3.9

     negative rho (up, down):  2.472E-03 2.540E-03

     Adding external electric field

     Computed dipole along edir(3) : 
        Dipole               -0.0012 Ry au,         -0.0031 Debye
        Dipole field         -0.0000 Ry au, 

        Potential amp.        0.0004 Ry
        Total length         40.9758 bohr


     Adding external electric field

     Computed dipole along edir(3) : 
        Dipole               -0.0012 Ry au,         -0.0031 Debye
        Dipole field         -0.0000 Ry au, 

        Potential amp.        0.0004 Ry
        Total length         40.9758 bohr


     total cpu time spent up to now is      567.0 secs

     total energy              =   -3595.51273292 Ry
     Harris-Foulkes estimate   =   -3595.51278773 Ry
     estimated scf accuracy    <       0.00642749 Ry

     total magnetization       =    18.91 Bohr mag/cell
     absolute magnetization    =    21.56 Bohr mag/cell

     iteration # 26     ecut=    36.75 Ry     beta=0.10
     Davidson diagonalization with overlap
     ethr =  3.14E-06,  avg # of iterations =  1.9

     negative rho (up, down):  3.362E-03 3.527E-03

     Adding external electric field

     Computed dipole along edir(3) : 
        Dipole                0.0044 Ry au,          0.0111 Debye
        Dipole field          0.0000 Ry au, 

        Potential amp.       -0.0013 Ry
        Total length         40.9758 bohr


     Adding external electric field

     Computed dipole along edir(3) : 
        Dipole                0.0044 Ry au,          0.0111 Debye
        Dipole field          0.0000 Ry au, 

        Potential amp.       -0.0013 Ry
        Total length         40.9758 bohr


     total cpu time spent up to now is      585.6 secs

     total energy              =   -3595.51352835 Ry
     Harris-Foulkes estimate   =   -3595.51300545 Ry
     estimated scf accuracy    <       0.00329014 Ry

     total magnetization       =    18.91 Bohr mag/cell
     absolute magnetization    =    21.59 Bohr mag/cell

     iteration # 27     ecut=    36.75 Ry     beta=0.10
     Davidson diagonalization with overlap
     ethr =  1.60E-06,  avg # of iterations =  3.4

     negative rho (up, down):  1.065E-03 8.631E-04

     Adding external electric field

     Computed dipole along edir(3) : 
        Dipole               -0.0062 Ry au,         -0.0157 Debye
        Dipole field         -0.0000 Ry au, 

        Potential amp.        0.0018 Ry
        Total length         40.9758 bohr


     Adding external electric field

     Computed dipole along edir(3) : 
        Dipole               -0.0062 Ry au,         -0.0157 Debye
        Dipole field         -0.0000 Ry au, 

        Potential amp.        0.0018 Ry
        Total length         40.9758 bohr


     total cpu time spent up to now is      607.7 secs

     total energy              =   -3595.51394679 Ry
     Harris-Foulkes estimate   =   -3595.51373233 Ry
     estimated scf accuracy    <       0.00207742 Ry

     total magnetization       =    18.92 Bohr mag/cell
     absolute magnetization    =    21.68 Bohr mag/cell

     iteration # 28     ecut=    36.75 Ry     beta=0.10
     Davidson diagonalization with overlap
     ethr =  1.01E-06,  avg # of iterations =  3.0

     negative rho (up, down):  5.761E-04 3.069E-04

     Adding external electric field

     Computed dipole along edir(3) : 
        Dipole               -0.0071 Ry au,         -0.0181 Debye
        Dipole field         -0.0000 Ry au, 

        Potential amp.        0.0021 Ry
        Total length         40.9758 bohr


     Adding external electric field

     Computed dipole along edir(3) : 
        Dipole               -0.0071 Ry au,         -0.0181 Debye
        Dipole field         -0.0000 Ry au, 

        Potential amp.        0.0021 Ry
        Total length         40.9758 bohr


     total cpu time spent up to now is      626.8 secs

     total energy              =   -3595.51436488 Ry
     Harris-Foulkes estimate   =   -3595.51410471 Ry
     estimated scf accuracy    <       0.00203011 Ry

     total magnetization       =    18.92 Bohr mag/cell
     absolute magnetization    =    21.71 Bohr mag/cell

     iteration # 29     ecut=    36.75 Ry     beta=0.10
     Davidson diagonalization with overlap
     ethr =  9.90E-07,  avg # of iterations =  2.3

     negative rho (up, down):  1.663E-04 2.220E-05

     Adding external electric field

     Computed dipole along edir(3) : 
        Dipole               -0.0133 Ry au,         -0.0338 Debye
        Dipole field         -0.0000 Ry au, 

        Potential amp.        0.0039 Ry
        Total length         40.9758 bohr


     Adding external electric field

     Computed dipole along edir(3) : 
        Dipole               -0.0133 Ry au,         -0.0338 Debye
        Dipole field         -0.0000 Ry au, 

        Potential amp.        0.0039 Ry
        Total length         40.9758 bohr


     total cpu time spent up to now is      643.0 secs

     total energy              =   -3595.51451523 Ry
     Harris-Foulkes estimate   =   -3595.51447418 Ry
     estimated scf accuracy    <       0.00106080 Ry

     total magnetization       =    18.92 Bohr mag/cell
     absolute magnetization    =    21.75 Bohr mag/cell

     iteration # 30     ecut=    36.75 Ry     beta=0.10
     Davidson diagonalization with overlap
     ethr =  5.17E-07,  avg # of iterations =  1.9

     negative rho (up, down):  2.464E-04 5.002E-05

     Adding external electric field

     Computed dipole along edir(3) : 
        Dipole               -0.0094 Ry au,         -0.0240 Debye
        Dipole field         -0.0000 Ry au, 

        Potential amp.        0.0027 Ry
        Total length         40.9758 bohr


     Adding external electric field

     Computed dipole along edir(3) : 
        Dipole               -0.0094 Ry au,         -0.0240 Debye
        Dipole field         -0.0000 Ry au, 

        Potential amp.        0.0027 Ry
        Total length         40.9758 bohr


     total cpu time spent up to now is      662.2 secs

     total energy              =   -3595.51476189 Ry
     Harris-Foulkes estimate   =   -3595.51455062 Ry
     estimated scf accuracy    <       0.00086878 Ry

     total magnetization       =    18.92 Bohr mag/cell
     absolute magnetization    =    21.75 Bohr mag/cell

     iteration # 31     ecut=    36.75 Ry     beta=0.10
     Davidson diagonalization with overlap
     ethr =  4.24E-07,  avg # of iterations =  2.7

     negative rho (up, down):  1.912E-04 2.726E-05

     Adding external electric field

     Computed dipole along edir(3) : 
        Dipole               -0.0075 Ry au,         -0.0192 Debye
        Dipole field         -0.0000 Ry au, 

        Potential amp.        0.0022 Ry
        Total length         40.9758 bohr


     Adding external electric field

     Computed dipole along edir(3) : 
        Dipole               -0.0075 Ry au,         -0.0192 Debye
        Dipole field         -0.0000 Ry au, 

        Potential amp.        0.0022 Ry
        Total length         40.9758 bohr


     total cpu time spent up to now is      679.1 secs

     total energy              =   -3595.51499451 Ry
     Harris-Foulkes estimate   =   -3595.51479440 Ry
     estimated scf accuracy    <       0.00045439 Ry

     total magnetization       =    18.93 Bohr mag/cell
     absolute magnetization    =    21.79 Bohr mag/cell

     iteration # 32     ecut=    36.75 Ry     beta=0.10
     Davidson diagonalization with overlap
     ethr =  2.22E-07,  avg # of iterations =  3.6

     negative rho (up, down):  2.388E-04 4.349E-05

     Adding external electric field

     Computed dipole along edir(3) : 
        Dipole               -0.0049 Ry au,         -0.0125 Debye
        Dipole field         -0.0000 Ry au, 

        Potential amp.        0.0014 Ry
        Total length         40.9758 bohr


     Adding external electric field

     Computed dipole along edir(3) : 
        Dipole               -0.0049 Ry au,         -0.0125 Debye
        Dipole field         -0.0000 Ry au, 

        Potential amp.        0.0014 Ry
        Total length         40.9758 bohr


     total cpu time spent up to now is      699.6 secs

     total energy              =   -3595.51517710 Ry
     Harris-Foulkes estimate   =   -3595.51504660 Ry
     estimated scf accuracy    <       0.00046313 Ry

     total magnetization       =    18.93 Bohr mag/cell
     absolute magnetization    =    21.84 Bohr mag/cell

     iteration # 33     ecut=    36.75 Ry     beta=0.10
     Davidson diagonalization with overlap
     ethr =  2.22E-07,  avg # of iterations =  3.0

     negative rho (up, down):  4.401E-04 1.619E-04

     Adding external electric field

     Computed dipole along edir(3) : 
        Dipole                0.0032 Ry au,          0.0081 Debye
        Dipole field          0.0000 Ry au, 

        Potential amp.       -0.0009 Ry
        Total length         40.9758 bohr


     Adding external electric field

     Computed dipole along edir(3) : 
        Dipole                0.0032 Ry au,          0.0081 Debye
        Dipole field          0.0000 Ry au, 

        Potential amp.       -0.0009 Ry
        Total length         40.9758 bohr


     total cpu time spent up to now is      720.1 secs

     total energy              =   -3595.51528425 Ry
     Harris-Foulkes estimate   =   -3595.51520691 Ry
     estimated scf accuracy    <       0.00045490 Ry

     total magnetization       =    18.93 Bohr mag/cell
     absolute magnetization    =    21.87 Bohr mag/cell

     iteration # 34     ecut=    36.75 Ry     beta=0.10
     Davidson diagonalization with overlap
     ethr =  2.22E-07,  avg # of iterations =  3.4

     negative rho (up, down):  7.724E-04 4.776E-04

     Adding external electric field

     Computed dipole along edir(3) : 
        Dipole                0.0069 Ry au,          0.0176 Debye
        Dipole field          0.0000 Ry au, 

        Potential amp.       -0.0020 Ry
        Total length         40.9758 bohr


     Adding external electric field

     Computed dipole along edir(3) : 
        Dipole                0.0069 Ry au,          0.0176 Debye
        Dipole field          0.0000 Ry au, 

        Potential amp.       -0.0020 Ry
        Total length         40.9758 bohr


     total cpu time spent up to now is      743.3 secs

     total energy              =   -3595.51537871 Ry
     Harris-Foulkes estimate   =   -3595.51535237 Ry
     estimated scf accuracy    <       0.00064448 Ry

     total magnetization       =    18.93 Bohr mag/cell
     absolute magnetization    =    21.93 Bohr mag/cell

     iteration # 35     ecut=    36.75 Ry     beta=0.10
     Davidson diagonalization with overlap
     ethr =  2.22E-07,  avg # of iterations =  2.5

     negative rho (up, down):  6.398E-04 3.301E-04

     Adding external electric field

     Computed dipole along edir(3) : 
        Dipole                0.0055 Ry au,          0.0139 Debye
        Dipole field          0.0000 Ry au, 

        Potential amp.       -0.0016 Ry
        Total length         40.9758 bohr


     Adding external electric field

     Computed dipole along edir(3) : 
        Dipole                0.0055 Ry au,          0.0139 Debye
        Dipole field          0.0000 Ry au, 

        Potential amp.       -0.0016 Ry
        Total length         40.9758 bohr


     total cpu time spent up to now is      760.0 secs

     total energy              =   -3595.51540282 Ry
     Harris-Foulkes estimate   =   -3595.51540014 Ry
     estimated scf accuracy    <       0.00016702 Ry

     total magnetization       =    18.93 Bohr mag/cell
     absolute magnetization    =    21.95 Bohr mag/cell

     iteration # 36     ecut=    36.75 Ry     beta=0.10
     Davidson diagonalization with overlap
     ethr =  8.15E-08,  avg # of iterations =  1.6

     negative rho (up, down):  6.684E-04 3.193E-04

     Adding external electric field

     Computed dipole along edir(3) : 
        Dipole               -0.0038 Ry au,         -0.0097 Debye
        Dipole field         -0.0000 Ry au, 

        Potential amp.        0.0011 Ry
        Total length         40.9758 bohr


     Adding external electric field

     Computed dipole along edir(3) : 
        Dipole               -0.0038 Ry au,         -0.0097 Debye
        Dipole field         -0.0000 Ry au, 

        Potential amp.        0.0011 Ry
        Total length         40.9758 bohr


     Magnetic moment per site:
     atom:    1    charge:   13.6295    magn:    1.6022    constr:    0.0000
     atom:    2    charge:   13.6264    magn:    1.6105    constr:    0.0000
     atom:    3    charge:   13.6295    magn:    1.6078    constr:    0.0000
     atom:    4    charge:   13.6265    magn:    1.6103    constr:    0.0000
     atom:    5    charge:   13.6250    magn:    1.6303    constr:    0.0000
     atom:    6    charge:   13.6245    magn:    1.6306    constr:    0.0000
     atom:    7    charge:   13.6231    magn:    1.5534    constr:    0.0000
     atom:    8    charge:   13.6253    magn:    1.6301    constr:    0.0000
     atom:    9    charge:   13.6333    magn:    1.4657    constr:    0.0000
     atom:   10    charge:   13.6308    magn:    1.4676    constr:    0.0000
     atom:   11    charge:   13.6308    magn:    1.4677    constr:    0.0000
     atom:   12    charge:   13.6312    magn:    1.6370    constr:    0.0000
     atom:   13    charge:    0.9642    magn:   -0.0284    constr:    0.0000

     total cpu time spent up to now is      774.8 secs

     End of self-consistent calculation

 ------ SPIN UP ------------


          k = 0.0000 0.0000 0.0000 ( 13257 PWs)   bands (ev):

   -95.6620 -95.6347 -95.6342 -95.5855 -95.4664 -95.4259 -95.3978 -95.3950
   -95.3905 -95.3503 -95.3290 -95.3270 -59.0217 -59.0021 -59.0017 -58.9644
   -58.9183 -58.9178 -58.8875 -58.8468 -58.8297 -58.8293 -58.7704 -58.7702
   -58.7655 -58.7537 -58.7449 -58.7446 -58.7267 -58.7253 -58.7252 -58.7196
   -58.7149 -58.7133 -58.7037 -58.6256 -58.6238 -58.5977 -58.5755 -58.5753
   -58.5738 -58.5658 -58.5647 -58.5223 -58.5222 -58.4950 -58.4937 -58.4926
    -7.4056  -6.0276  -4.6483  -4.0948  -4.0844  -4.0843  -4.0394  -3.8870
    -3.8869  -3.7893  -3.5126  -3.5124  -3.4115  -3.3526  -3.3522  -2.9142
    -2.6676  -2.6672  -2.2125  -2.1744  -2.1743  -2.1284  -2.0228  -1.9828
    -1.9828  -1.8122  -1.8121  -1.8091  -1.7867  -1.7650  -1.7650  -1.5962
    -1.5962  -1.4664  -1.4656  -1.4338  -0.9712  -0.9706  -0.9191  -0.9188
    -0.9142  -0.8463  -0.8460  -0.6630  -0.6119  -0.6118  -0.3530  -0.3396
    -0.3394  -0.3296  -0.3090  -0.3084  -0.2418  -0.2418  -0.1142  -0.0999
    -0.0997   0.1247   0.1254   0.1459   0.1601   0.1610   0.1909   0.5348

          k = 0.0000 0.1925 0.0000 ( 13286 PWs)   bands (ev):

   -95.6601 -95.6362 -95.6342 -95.5859 -95.4661 -95.4239 -95.3985 -95.3960
   -95.3909 -95.3493 -95.3296 -95.3278 -59.0119 -58.9933 -58.9899 -58.9608
   -58.9197 -58.9169 -58.8862 -58.8533 -58.8399 -58.8292 -58.7877 -58.7736
   -58.7600 -58.7457 -58.7386 -58.7345 -58.7232 -58.7212 -58.7200 -58.7157
   -58.7121 -58.7081 -58.7029 -58.6288 -58.6249 -58.5967 -58.5836 -58.5820
   -58.5715 -58.5691 -58.5641 -58.5365 -58.5257 -58.5062 -58.4976 -58.4959
    -7.1809  -5.8677  -4.4974  -4.1154  -3.9871  -3.9841  -3.9429  -3.8377
    -3.7879  -3.7017  -3.4700  -3.4375  -3.3490  -3.2311  -3.2158  -2.8918
    -2.6499  -2.6319  -2.2719  -2.1506  -2.1288  -2.1209  -2.0767  -2.0260
    -1.9846  -1.9091  -1.8877  -1.8808  -1.7699  -1.7377  -1.6983  -1.6407
    -1.5748  -1.5406  -1.5384  -1.4876  -1.0831  -1.0583  -1.0154  -0.9573
    -0.9436  -0.9431  -0.9145  -0.8984  -0.6994  -0.6125  -0.5073  -0.4465
    -0.4424  -0.4165  -0.4128  -0.3730  -0.3149  -0.3036  -0.2383  -0.1967
    -0.1868  -0.1325  -0.0422   0.0078   0.0298   0.0315   0.0563   0.5008

          k = 0.0000 0.3849 0.0000 ( 13322 PWs)   bands (ev):

   -95.6552 -95.6403 -95.6342 -95.5866 -95.4656 -95.4185 -95.4027 -95.3969
   -95.3913 -95.3466 -95.3324 -95.3283 -58.9909 -58.9712 -58.9564 -58.9500
   -58.9251 -58.9149 -58.8840 -58.8748 -58.8661 -58.8235 -58.8227 -58.7816
   -58.7550 -58.7289 -58.7264 -58.7183 -58.7172 -58.7153 -58.7108 -58.7032
   -58.6996 -58.6989 -58.6780 -58.6413 -58.6254 -58.6032 -58.6009 -58.5946
   -58.5765 -58.5744 -58.5623 -58.5614 -58.5353 -58.5352 -58.5064 -58.5008
    -6.5567  -5.5000  -4.4794  -4.1053  -3.7716  -3.7218  -3.7173  -3.5879
    -3.5505  -3.4714  -3.3439  -3.2313  -3.1977  -2.9544  -2.9052  -2.8131
    -2.5904  -2.5486  -2.4993  -2.3763  -2.2825  -2.2252  -2.2057  -2.0814
    -2.0080  -1.9535  -1.9420  -1.8209  -1.7692  -1.7627  -1.7307  -1.6795
    -1.6436  -1.6266  -1.5472  -1.3887  -1.3434  -1.3345  -1.2177  -1.2068
    -1.1628  -1.1407  -1.0940  -1.0754  -1.0167  -0.9770  -0.9507  -0.7226
    -0.6941  -0.6900  -0.6252  -0.6062  -0.5853  -0.5675  -0.5373  -0.3911
    -0.3295  -0.3107  -0.2983  -0.2218  -0.1440  -0.0393  -0.0286   0.1164

          k = 0.0000-0.5774 0.0000 ( 13378 PWs)   bands (ev):

   -95.6507 -95.6444 -95.6342 -95.5870 -95.4653 -95.4130 -95.4080 -95.3970
   -95.3914 -95.3446 -95.3345 -95.3283 -58.9786 -58.9545 -58.9441 -58.9318
   -58.9141 -58.9098 -58.9033 -58.8917 -58.8826 -58.8447 -58.8188 -58.7868
   -58.7529 -58.7235 -58.7202 -58.7161 -58.7145 -58.7101 -58.7056 -58.6917
   -58.6883 -58.6881 -58.6522 -58.6310 -58.6266 -58.6261 -58.6160 -58.6124
   -58.5919 -58.5770 -58.5605 -58.5555 -58.5513 -58.5460 -58.5107 -58.5036
    -5.9371  -5.3569  -4.9442  -3.9141  -3.6134  -3.4885  -3.4842  -3.4492
    -3.4471  -3.3117  -3.2121  -3.0711  -3.0411  -2.8297  -2.8050  -2.7498
    -2.6897  -2.5406  -2.5209  -2.4926  -2.4622  -2.3317  -2.2907  -2.0645
    -2.0261  -1.8809  -1.8717  -1.8387  -1.8150  -1.7794  -1.7590  -1.6939
    -1.6789  -1.6422  -1.6224  -1.5968  -1.5869  -1.5778  -1.5641  -1.5468
    -1.2334  -1.2090  -1.1594  -1.1313  -1.1012  -1.0846  -0.9388  -0.9256
    -0.8059  -0.7913  -0.7652  -0.7580  -0.7203  -0.6332  -0.6140  -0.5929
    -0.4978  -0.3646  -0.3108  -0.3072  -0.2123  -0.1951  -0.0297  -0.0286

          k = 0.1667-0.0962 0.0000 ( 13286 PWs)   bands (ev):

   -95.6601 -95.6359 -95.6344 -95.5859 -95.4661 -95.4239 -95.3991 -95.3950
   -95.3912 -95.3493 -95.3294 -95.3279 -59.0119 -58.9931 -58.9901 -58.9608
   -58.9194 -58.9171 -58.8862 -58.8533 -58.8397 -58.8294 -58.7879 -58.7735
   -58.7600 -58.7456 -58.7389 -58.7343 -58.7234 -58.7208 -58.7205 -58.7157
   -58.7114 -58.7087 -58.7028 -58.6286 -58.6250 -58.5968 -58.5833 -58.5825
   -58.5712 -58.5690 -58.5642 -58.5364 -58.5258 -58.5063 -58.4975 -58.4960
    -7.1809  -5.8677  -4.4974  -4.1154  -3.9871  -3.9842  -3.9429  -3.8378
    -3.7878  -3.7017  -3.4700  -3.4376  -3.3488  -3.2310  -3.2161  -2.8917
    -2.6502  -2.6316  -2.2719  -2.1506  -2.1287  -2.1209  -2.0766  -2.0260
    -1.9845  -1.9089  -1.8881  -1.8808  -1.7699  -1.7377  -1.6983  -1.6407
    -1.5749  -1.5410  -1.5379  -1.4876  -1.0830  -1.0579  -1.0159  -0.9570
    -0.9437  -0.9431  -0.9147  -0.8982  -0.6997  -0.6125  -0.5070  -0.4467
    -0.4424  -0.4167  -0.4126  -0.3730  -0.3152  -0.3032  -0.2383  -0.1967
    -0.1871  -0.1322  -0.0422   0.0080   0.0295   0.0315   0.0565   0.5007

          k = 0.1667 0.0962 0.0000 ( 13286 PWs)   bands (ev):

   -95.6601 -95.6357 -95.6346 -95.5859 -95.4661 -95.4239 -95.3986 -95.3959
   -95.3909 -95.3492 -95.3305 -95.3270 -59.0120 -58.9930 -58.9901 -58.9608
   -58.9193 -58.9173 -58.8862 -58.8534 -58.8396 -58.8295 -58.7879 -58.7734
   -58.7600 -58.7455 -58.7389 -58.7344 -58.7232 -58.7213 -58.7199 -58.7157
   -58.7120 -58.7081 -58.7029 -58.6300 -58.6237 -58.5967 -58.5834 -58.5822
   -58.5714 -58.5700 -58.5633 -58.5365 -58.5257 -58.5056 -58.4992 -58.4950
    -7.1809  -5.8677  -4.4974  -4.1154  -3.9872  -3.9841  -3.9429  -3.8377
    -3.7878  -3.7018  -3.4699  -3.4376  -3.3490  -3.2310  -3.2160  -2.8917
    -2.6501  -2.6317  -2.2719  -2.1506  -2.1288  -2.1210  -2.0766  -2.0259
    -1.9847  -1.9090  -1.8877  -1.8808  -1.7699  -1.7377  -1.6983  -1.6407
    -1.5748  -1.5410  -1.5381  -1.4875  -1.0830  -1.0581  -1.0157  -0.9575
    -0.9436  -0.9428  -0.9145  -0.8983  -0.6995  -0.6125  -0.5071  -0.4465
    -0.4424  -0.4167  -0.4127  -0.3730  -0.3153  -0.3033  -0.2383  -0.1967
    -0.1869  -0.1323  -0.0424   0.0081   0.0296   0.0316   0.0562   0.5008

          k = 0.1667 0.2887 0.0000 ( 13291 PWs)   bands (ev):

   -95.6567 -95.6386 -95.6346 -95.5864 -95.4657 -95.4202 -95.3994 -95.3989
   -95.3908 -95.3471 -95.3327 -95.3273 -58.9963 -58.9729 -58.9711 -58.9541
   -58.9225 -58.9161 -58.8844 -58.8751 -58.8451 -58.8334 -58.8100 -58.7808
   -58.7561 -58.7333 -58.7278 -58.7206 -58.7184 -58.7158 -58.7144 -58.7091
   -58.7054 -58.6943 -58.6934 -58.6395 -58.6237 -58.6076 -58.5948 -58.5775
   -58.5750 -58.5741 -58.5620 -58.5605 -58.5330 -58.5264 -58.5038 -58.5009
    -6.7538  -5.5978  -4.2530  -4.1059  -4.0681  -3.7728  -3.7570  -3.7295
    -3.5842  -3.5127  -3.3561  -3.3287  -3.2176  -3.0415  -2.9790  -2.8495
    -2.6098  -2.5858  -2.4310  -2.3123  -2.2057  -2.1629  -2.0978  -2.0896
    -2.0339  -1.9936  -1.9011  -1.8736  -1.7705  -1.7348  -1.6937  -1.6866
    -1.6709  -1.6652  -1.5748  -1.3067  -1.2772  -1.2335  -1.2102  -1.1312
    -1.0618  -1.0251  -1.0203  -0.9840  -0.9118  -0.9014  -0.8837  -0.8525
    -0.6367  -0.6299  -0.5560  -0.5250  -0.4806  -0.4609  -0.4009  -0.3629
    -0.2864  -0.2773  -0.2501  -0.1288  -0.1072  -0.0762   0.2921   0.4787

          k = 0.1667-0.6736 0.0000 ( 13313 PWs)   bands (ev):

   -95.6513 -95.6433 -95.6348 -95.5870 -95.4653 -95.4141 -95.4049 -95.4000
   -95.3904 -95.3442 -95.3356 -95.3278 -58.9750 -58.9497 -58.9450 -58.9314
   -58.9293 -58.9157 -58.9065 -58.8827 -58.8754 -58.8374 -58.8209 -58.7917
   -58.7528 -58.7226 -58.7188 -58.7161 -58.7145 -58.7097 -58.7020 -58.6955
   -58.6912 -58.6776 -58.6591 -58.6532 -58.6362 -58.6229 -58.6078 -58.5906
   -58.5866 -58.5794 -58.5621 -58.5587 -58.5504 -58.5460 -58.5107 -58.5067
    -6.0467  -5.2743  -4.6627  -4.0121  -3.8599  -3.6201  -3.5096  -3.4397
    -3.2838  -3.2214  -3.1873  -3.0999  -3.0439  -2.9043  -2.7768  -2.7311
    -2.6515  -2.5977  -2.5135  -2.4842  -2.4415  -2.3282  -2.2829  -2.1565
    -2.0776  -1.9550  -1.9234  -1.8860  -1.8451  -1.8260  -1.7998  -1.7808
    -1.7634  -1.6867  -1.6203  -1.5542  -1.5093  -1.4731  -1.4428  -1.4170
    -1.3876  -1.1813  -1.1284  -1.1074  -1.0515  -1.0020  -0.9767  -0.9109
    -0.8517  -0.8273  -0.7091  -0.6731  -0.6546  -0.5317  -0.4743  -0.4417
    -0.3965  -0.3257  -0.3115  -0.2681  -0.2055  -0.1269  -0.1199   0.0741

          k = 0.1667-0.4811 0.0000 ( 13313 PWs)   bands (ev):

   -95.6513 -95.6433 -95.6347 -95.5870 -95.4653 -95.4140 -95.4054 -95.3995
   -95.3905 -95.3445 -95.3348 -95.3282 -58.9750 -58.9497 -58.9450 -58.9314
   -58.9293 -58.9157 -58.9067 -58.8828 -58.8753 -58.8374 -58.8209 -58.7917
   -58.7528 -58.7227 -58.7185 -58.7161 -58.7149 -58.7097 -58.7019 -58.6955
   -58.6912 -58.6776 -58.6587 -58.6529 -58.6365 -58.6232 -58.6075 -58.5908
   -58.5866 -58.5793 -58.5621 -58.5586 -58.5506 -58.5460 -58.5111 -58.5063
    -6.0468  -5.2743  -4.6627  -4.0122  -3.8598  -3.6201  -3.5097  -3.4398
    -3.2838  -3.2213  -3.1873  -3.0999  -3.0439  -2.9043  -2.7769  -2.7310
    -2.6515  -2.5976  -2.5135  -2.4843  -2.4412  -2.3282  -2.2829  -2.1564
    -2.0776  -1.9550  -1.9234  -1.8863  -1.8451  -1.8257  -1.7998  -1.7811
    -1.7636  -1.6869  -1.6198  -1.5541  -1.5096  -1.4731  -1.4428  -1.4170
    -1.3877  -1.1812  -1.1283  -1.1075  -1.0515  -1.0021  -0.9766  -0.9110
    -0.8517  -0.8274  -0.7091  -0.6731  -0.6545  -0.5317  -0.4743  -0.4417
    -0.3965  -0.3257  -0.3113  -0.2682  -0.2055  -0.1269  -0.1198   0.0741

          k = 0.1667-0.2887 0.0000 ( 13291 PWs)   bands (ev):

   -95.6567 -95.6388 -95.6344 -95.5864 -95.4657 -95.4201 -95.4011 -95.3969
   -95.3912 -95.3475 -95.3309 -95.3287 -58.9963 -58.9730 -58.9711 -58.9540
   -58.9226 -58.9160 -58.8844 -58.8752 -58.8451 -58.8333 -58.8100 -58.7808
   -58.7561 -58.7336 -58.7274 -58.7211 -58.7186 -58.7154 -58.7140 -58.7093
   -58.7057 -58.6940 -58.6937 -58.6382 -58.6248 -58.6078 -58.5951 -58.5769
   -58.5752 -58.5736 -58.5621 -58.5611 -58.5331 -58.5266 -58.5036 -58.5008
    -6.7538  -5.5978  -4.2530  -4.1059  -4.0681  -3.7728  -3.7571  -3.7295
    -3.5843  -3.5126  -3.3562  -3.3286  -3.2174  -3.0417  -2.9790  -2.8493
    -2.6098  -2.5858  -2.4309  -2.3121  -2.2057  -2.1629  -2.0980  -2.0894
    -2.0340  -1.9938  -1.9010  -1.8733  -1.7707  -1.7349  -1.6936  -1.6864
    -1.6707  -1.6653  -1.5751  -1.3067  -1.2771  -1.2337  -1.2104  -1.1313
    -1.0615  -1.0254  -1.0201  -0.9839  -0.9113  -0.9018  -0.8838  -0.8528
    -0.6369  -0.6297  -0.5560  -0.5249  -0.4809  -0.4606  -0.4009  -0.3629
    -0.2864  -0.2771  -0.2503  -0.1288  -0.1072  -0.0762   0.2923   0.4788

          k = 0.3333-0.1925 0.0000 ( 13322 PWs)   bands (ev):

   -95.6552 -95.6400 -95.6345 -95.5866 -95.4656 -95.4183 -95.4036 -95.3950
   -95.3923 -95.3467 -95.3321 -95.3285 -58.9911 -58.9709 -58.9566 -58.9500
   -58.9248 -58.9152 -58.8840 -58.8750 -58.8658 -58.8238 -58.8229 -58.7814
   -58.7550 -58.7286 -58.7265 -58.7197 -58.7163 -58.7146 -58.7109 -58.7030
   -58.7007 -58.6983 -58.6780 -58.6410 -58.6255 -58.6027 -58.6016 -58.5946
   -58.5763 -58.5743 -58.5621 -58.5613 -58.5354 -58.5353 -58.5061 -58.5010
    -6.5567  -5.5000  -4.4795  -4.1052  -3.7717  -3.7218  -3.7172  -3.5879
    -3.5504  -3.4714  -3.3439  -3.2313  -3.1976  -2.9544  -2.9056  -2.8127
    -2.5908  -2.5485  -2.4992  -2.3761  -2.2825  -2.2250  -2.2059  -2.0816
    -2.0078  -1.9536  -1.9420  -1.8206  -1.7694  -1.7628  -1.7311  -1.6795
    -1.6434  -1.6265  -1.5471  -1.3888  -1.3433  -1.3346  -1.2178  -1.2068
    -1.1631  -1.1403  -1.0942  -1.0749  -1.0170  -0.9767  -0.9510  -0.7226
    -0.6939  -0.6902  -0.6250  -0.6061  -0.5854  -0.5677  -0.5372  -0.3911
    -0.3295  -0.3113  -0.2977  -0.2217  -0.1441  -0.0395  -0.0285   0.1164

          k = 0.3333-0.0000 0.0000 ( 13291 PWs)   bands (ev):

   -95.6567 -95.6383 -95.6348 -95.5864 -95.4657 -95.4201 -95.4012 -95.3967
   -95.3912 -95.3471 -95.3325 -95.3274 -58.9964 -58.9727 -58.9713 -58.9541
   -58.9222 -58.9164 -58.8844 -58.8750 -58.8452 -58.8336 -58.8100 -58.7807
   -58.7561 -58.7333 -58.7277 -58.7210 -58.7187 -58.7153 -58.7140 -58.7093
   -58.7057 -58.6940 -58.6937 -58.6393 -58.6238 -58.6078 -58.5949 -58.5773
   -58.5753 -58.5738 -58.5620 -58.5606 -58.5331 -58.5264 -58.5039 -58.5008
    -6.7538  -5.5978  -4.2530  -4.1059  -4.0681  -3.7728  -3.7571  -3.7295
    -3.5842  -3.5127  -3.3562  -3.3286  -3.2175  -3.0417  -2.9790  -2.8493
    -2.6100  -2.5858  -2.4309  -2.3122  -2.2057  -2.1629  -2.0980  -2.0894
    -2.0338  -1.9939  -1.9011  -1.8734  -1.7707  -1.7348  -1.6937  -1.6865
    -1.6707  -1.6654  -1.5750  -1.3064  -1.2771  -1.2340  -1.2100  -1.1312
    -1.0618  -1.0255  -1.0199  -0.9838  -0.9116  -0.9017  -0.8837  -0.8526
    -0.6365  -0.6301  -0.5560  -0.5248  -0.4809  -0.4606  -0.4009  -0.3629
    -0.2865  -0.2770  -0.2503  -0.1287  -0.1073  -0.0762   0.2922   0.4788

          k = 0.3333 0.1925 0.0000 ( 13322 PWs)   bands (ev):

   -95.6553 -95.6398 -95.6346 -95.5866 -95.4656 -95.4184 -95.4028 -95.3966
   -95.3914 -95.3460 -95.3342 -95.3270 -58.9912 -58.9707 -58.9566 -58.9500
   -58.9247 -58.9153 -58.8840 -58.8751 -58.8657 -58.8239 -58.8229 -58.7813
   -58.7549 -58.7285 -58.7267 -58.7182 -58.7174 -58.7151 -58.7108 -58.7032
   -58.6997 -58.6988 -58.6780 -58.6430 -58.6240 -58.6030 -58.6011 -58.5940
   -58.5777 -58.5745 -58.5621 -58.5604 -58.5353 -58.5345 -58.5083 -58.4997
    -6.5567  -5.4999  -4.4794  -4.1053  -3.7716  -3.7218  -3.7172  -3.5879
    -3.5504  -3.4715  -3.3439  -3.2313  -3.1977  -2.9543  -2.9055  -2.8130
    -2.5906  -2.5485  -2.4993  -2.3763  -2.2824  -2.2251  -2.2059  -2.0814
    -2.0078  -1.9536  -1.9420  -1.8208  -1.7694  -1.7626  -1.7307  -1.6796
    -1.6437  -1.6266  -1.5471  -1.3888  -1.3433  -1.3344  -1.2176  -1.2068
    -1.1629  -1.1405  -1.0944  -1.0750  -1.0167  -0.9771  -0.9506  -0.7227
    -0.6940  -0.6901  -0.6252  -0.6061  -0.5853  -0.5674  -0.5374  -0.3910
    -0.3293  -0.3113  -0.2977  -0.2217  -0.1441  -0.0392  -0.0286   0.1162

          k = 0.3333-0.7698 0.0000 ( 13313 PWs)   bands (ev):

   -95.6515 -95.6428 -95.6350 -95.5870 -95.4653 -95.4140 -95.4051 -95.3998
   -95.3904 -95.3434 -95.3370 -95.3272 -58.9753 -58.9492 -58.9452 -58.9313
   -58.9290 -58.9159 -58.9068 -58.8827 -58.8752 -58.8375 -58.8211 -58.7915
   -58.7527 -58.7225 -58.7190 -58.7163 -58.7144 -58.7097 -58.7015 -58.6954
   -58.6912 -58.6776 -58.6597 -58.6537 -58.6361 -58.6223 -58.6078 -58.5899
   -58.5867 -58.5806 -58.5620 -58.5579 -58.5501 -58.5460 -58.5125 -58.5054
    -6.0467  -5.2743  -4.6627  -4.0121  -3.8600  -3.6201  -3.5096  -3.4398
    -3.2837  -3.2214  -3.1874  -3.1000  -3.0439  -2.9044  -2.7767  -2.7311
    -2.6515  -2.5976  -2.5137  -2.4842  -2.4414  -2.3283  -2.2829  -2.1565
    -2.0776  -1.9550  -1.9233  -1.8860  -1.8451  -1.8260  -1.7997  -1.7809
    -1.7633  -1.6868  -1.6201  -1.5542  -1.5093  -1.4729  -1.4429  -1.4171
    -1.3876  -1.1813  -1.1283  -1.1074  -1.0513  -1.0022  -0.9767  -0.9109
    -0.8517  -0.8273  -0.7090  -0.6732  -0.6547  -0.5318  -0.4742  -0.4416
    -0.3965  -0.3255  -0.3114  -0.2682  -0.2056  -0.1268  -0.1198   0.0741

          k = 0.3333-0.5774 0.0000 ( 13323 PWs)   bands (ev):

   -95.6471 -95.6465 -95.6355 -95.5871 -95.4652 -95.4098 -95.4066 -95.4030
   -95.3898 -95.3417 -95.3384 -95.3276 -58.9505 -58.9459 -58.9373 -58.9323
   -58.9262 -58.9175 -58.9072 -58.9051 -58.8816 -58.8376 -58.8102 -58.8095
   -58.7517 -58.7203 -58.7169 -58.7154 -58.7121 -58.7016 -58.6990 -58.6806
   -58.6790 -58.6732 -58.6636 -58.6452 -58.6440 -58.6424 -58.6214 -58.5891
   -58.5828 -58.5672 -58.5653 -58.5646 -58.5633 -58.5479 -58.5151 -58.5107
    -5.7083  -4.8247  -4.8239  -4.5541  -3.6337  -3.6189  -3.3839  -3.1905
    -3.1272  -3.0587  -3.0057  -2.9828  -2.9503  -2.8641  -2.8427  -2.8394
    -2.7777  -2.7568  -2.4535  -2.4234  -2.3935  -2.2555  -2.2220  -2.1932
    -2.1859  -2.1774  -2.1350  -2.0932  -2.0396  -2.0299  -1.8667  -1.8179
    -1.7894  -1.7536  -1.6129  -1.6013  -1.5818  -1.5534  -1.5431  -1.5325
    -1.2480  -1.2238  -1.2066  -1.0513  -1.0151  -0.9693  -0.9607  -0.9393
    -0.8656  -0.8007  -0.7800  -0.5005  -0.4792  -0.4654  -0.4646  -0.4452
    -0.3441  -0.3157  -0.3098  -0.2201  -0.2155  -0.2105  -0.1919  -0.0347

          k = 0.3333-0.3849 0.0000 ( 13313 PWs)   bands (ev):

   -95.6514 -95.6431 -95.6349 -95.5870 -95.4653 -95.4137 -95.4064 -95.3985
   -95.3908 -95.3446 -95.3346 -95.3283 -58.9752 -58.9494 -58.9452 -58.9313
   -58.9291 -58.9158 -58.9069 -58.8827 -58.8751 -58.8375 -58.8211 -58.7916
   -58.7528 -58.7223 -58.7183 -58.7175 -58.7140 -58.7099 -58.7016 -58.6955
   -58.6914 -58.6778 -58.6588 -58.6527 -58.6363 -58.6233 -58.6078 -58.5908
   -58.5866 -58.5792 -58.5617 -58.5586 -58.5507 -58.5463 -58.5109 -58.5064
    -6.0468  -5.2742  -4.6628  -4.0122  -3.8597  -3.6202  -3.5097  -3.4398
    -3.2837  -3.2213  -3.1873  -3.0999  -3.0438  -2.9043  -2.7768  -2.7310
    -2.6515  -2.5975  -2.5138  -2.4842  -2.4413  -2.3284  -2.2827  -2.1564
    -2.0776  -1.9551  -1.9235  -1.8862  -1.8454  -1.8255  -1.7998  -1.7811
    -1.7634  -1.6867  -1.6201  -1.5541  -1.5098  -1.4728  -1.4428  -1.4172
    -1.3875  -1.1813  -1.1284  -1.1074  -1.0513  -1.0021  -0.9766  -0.9110
    -0.8518  -0.8274  -0.7091  -0.6731  -0.6548  -0.5317  -0.4742  -0.4415
    -0.3965  -0.3257  -0.3113  -0.2681  -0.2055  -0.1269  -0.1198   0.0741

          k =-0.5000 0.2887 0.0000 ( 13378 PWs)   bands (ev):

   -95.6510 -95.6438 -95.6345 -95.5870 -95.4653 -95.4112 -95.4105 -95.3950
   -95.3926 -95.3448 -95.3342 -95.3286 -58.9789 -58.9541 -58.9443 -58.9314
   -58.9143 -58.9099 -58.9029 -58.8919 -58.8825 -58.8448 -58.8191 -58.7866
   -58.7529 -58.7228 -58.7201 -58.7180 -58.7132 -58.7106 -58.7050 -58.6914
   -58.6900 -58.6873 -58.6520 -58.6296 -58.6287 -58.6262 -58.6142 -58.6136
   -58.5920 -58.5767 -58.5606 -58.5557 -58.5492 -58.5480 -58.5104 -58.5038
    -5.9371  -5.3569  -4.9443  -3.9139  -3.6136  -3.4885  -3.4842  -3.4494
    -3.4470  -3.3114  -3.2122  -3.0713  -3.0408  -2.8300  -2.8047  -2.7500
    -2.6893  -2.5404  -2.5211  -2.4926  -2.4623  -2.3324  -2.2900  -2.0645
    -2.0260  -1.8812  -1.8716  -1.8395  -1.8149  -1.7789  -1.7588  -1.6938
    -1.6789  -1.6418  -1.6231  -1.5973  -1.5873  -1.5774  -1.5641  -1.5463
    -1.2332  -1.2091  -1.1596  -1.1316  -1.1012  -1.0840  -0.9384  -0.9260
    -0.8055  -0.7911  -0.7661  -0.7577  -0.7206  -0.6331  -0.6134  -0.5935
    -0.4975  -0.3646  -0.3115  -0.3065  -0.2118  -0.1956  -0.0298  -0.0284

          k =-0.5000 0.4811 0.0000 ( 13313 PWs)   bands (ev):

   -95.6515 -95.6429 -95.6350 -95.5870 -95.4653 -95.4136 -95.4064 -95.3984
   -95.3908 -95.3443 -95.3353 -95.3279 -58.9752 -58.9495 -58.9452 -58.9313
   -58.9290 -58.9160 -58.9064 -58.8827 -58.8755 -58.8376 -58.8210 -58.7916
   -58.7528 -58.7223 -58.7183 -58.7175 -58.7140 -58.7099 -58.7015 -58.6955
   -58.6914 -58.6778 -58.6590 -58.6530 -58.6363 -58.6230 -58.6077 -58.5907
   -58.5866 -58.5793 -58.5617 -58.5588 -58.5505 -58.5463 -58.5106 -58.5068
    -6.0467  -5.2743  -4.6627  -4.0121  -3.8598  -3.6202  -3.5097  -3.4398
    -3.2837  -3.2215  -3.1872  -3.0999  -3.0439  -2.9044  -2.7768  -2.7311
    -2.6513  -2.5976  -2.5138  -2.4841  -2.4414  -2.3284  -2.2828  -2.1564
    -2.0776  -1.9551  -1.9234  -1.8861  -1.8454  -1.8256  -1.7998  -1.7809
    -1.7636  -1.6865  -1.6203  -1.5541  -1.5096  -1.4729  -1.4428  -1.4171
    -1.3875  -1.1814  -1.1284  -1.1073  -1.0513  -1.0022  -0.9765  -0.9110
    -0.8517  -0.8275  -0.7093  -0.6730  -0.6546  -0.5317  -0.4743  -0.4415
    -0.3965  -0.3257  -0.3113  -0.2680  -0.2056  -0.1270  -0.1199   0.0741

          k =-0.5000 0.6736 0.0000 ( 13313 PWs)   bands (ev):

   -95.6515 -95.6427 -95.6351 -95.5870 -95.4653 -95.4139 -95.4056 -95.3992
   -95.3906 -95.3434 -95.3369 -95.3272 -58.9753 -58.9493 -58.9452 -58.9313
   -58.9289 -58.9160 -58.9065 -58.8827 -58.8755 -58.8376 -58.8211 -58.7915
   -58.7528 -58.7225 -58.7187 -58.7162 -58.7148 -58.7097 -58.7014 -58.6954
   -58.6912 -58.6777 -58.6596 -58.6536 -58.6365 -58.6224 -58.6074 -58.5900
   -58.5866 -58.5806 -58.5620 -58.5579 -58.5501 -58.5461 -58.5126 -58.5054
    -6.0467  -5.2743  -4.6627  -4.0121  -3.8600  -3.6201  -3.5096  -3.4398
    -3.2838  -3.2214  -3.1874  -3.1000  -3.0439  -2.9044  -2.7768  -2.7311
    -2.6514  -2.5977  -2.5137  -2.4843  -2.4412  -2.3283  -2.2829  -2.1564
    -2.0776  -1.9550  -1.9233  -1.8861  -1.8451  -1.8259  -1.7998  -1.7810
    -1.7636  -1.6867  -1.6199  -1.5541  -1.5095  -1.4730  -1.4428  -1.4170
    -1.3876  -1.1813  -1.1282  -1.1075  -1.0514  -1.0023  -0.9765  -0.9110
    -0.8516  -0.8274  -0.7092  -0.6731  -0.6544  -0.5318  -0.4743  -0.4416
    -0.3965  -0.3256  -0.3113  -0.2681  -0.2056  -0.1269  -0.1198   0.0741

          k =-0.5000-0.2887 0.0000 ( 13378 PWs)   bands (ev):

   -95.6512 -95.6435 -95.6346 -95.5870 -95.4653 -95.4128 -95.4082 -95.3967
   -95.3915 -95.3431 -95.3374 -95.3270 -58.9790 -58.9539 -58.9444 -58.9312
   -58.9145 -58.9101 -58.9027 -58.8921 -58.8825 -58.8448 -58.8193 -58.7865
   -58.7528 -58.7233 -58.7205 -58.7164 -58.7144 -58.7101 -58.7049 -58.6916
   -58.6883 -58.6882 -58.6547 -58.6308 -58.6270 -58.6248 -58.6156 -58.6125
   -58.5907 -58.5793 -58.5590 -58.5545 -58.5511 -58.5462 -58.5130 -58.5023
    -5.9370  -5.3570  -4.9442  -3.9143  -3.6133  -3.4886  -3.4841  -3.4492
    -3.4472  -3.3116  -3.2123  -3.0714  -3.0408  -2.8300  -2.8048  -2.7499
    -2.6895  -2.5404  -2.5209  -2.4927  -2.4623  -2.3322  -2.2905  -2.0644
    -2.0260  -1.8810  -1.8715  -1.8388  -1.8150  -1.7792  -1.7586  -1.6938
    -1.6790  -1.6423  -1.6225  -1.5968  -1.5874  -1.5774  -1.5642  -1.5464
    -1.2336  -1.2088  -1.1599  -1.1313  -1.1013  -1.0841  -0.9386  -0.9258
    -0.8065  -0.7905  -0.7652  -0.7580  -0.7205  -0.6332  -0.6143  -0.5925
    -0.4974  -0.3648  -0.3114  -0.3066  -0.2118  -0.1957  -0.0297  -0.0285

 ------ SPIN DOWN ----------


          k = 0.0000 0.0000 0.0000 ( 13257 PWs)   bands (ev):

   -93.2593 -93.2071 -93.1845 -93.1840 -93.1551 -93.1298 -93.1281 -93.0274
   -93.0186 -92.9953 -92.9931 -92.9914 -56.7293 -56.7147 -56.7145 -56.6945
   -56.6342 -56.6171 -56.6165 -56.5832 -56.5529 -56.5525 -56.5186 -56.5185
   -56.5011 -56.4921 -56.4913 -56.4784 -56.4579 -56.4576 -56.4432 -56.4432
   -56.4141 -56.4114 -56.3757 -56.3743 -56.3490 -56.3187 -56.3183 -56.3150
   -56.3142 -56.3124 -56.3091 -56.3037 -56.3019 -56.3003 -56.2566 -56.2565
    -7.5255  -5.9946  -4.2690  -3.2126  -3.0118  -3.0117  -2.9598  -2.7722
    -2.7722  -2.5821  -2.2198  -2.2196  -2.1598  -2.1375  -2.1374  -1.7728
    -1.3578  -1.3575  -1.0058  -0.4864  -0.4419  -0.4372  -0.4371  -0.3134
    -0.1664  -0.1664  -0.0415  -0.0413  -0.0119  -0.0116   0.0187   0.0601
     0.0601   0.1013   0.1785   0.1786   0.3781   0.6472   0.6475   0.8580
     0.9612   0.9617   0.9966   1.1454   1.1455   1.3919   1.3920   1.5796
     1.6961   1.6966   1.7861   1.7866   1.7886   1.7908   1.8535   1.8537
     1.9378   1.9379   1.9943   2.0026   2.0027   2.1049   2.1321   2.1327

          k = 0.0000 0.1925 0.0000 ( 13286 PWs)   bands (ev):

   -93.2583 -93.2064 -93.1861 -93.1840 -93.1535 -93.1305 -93.1289 -93.0252
   -93.0188 -92.9967 -92.9932 -92.9922 -56.7204 -56.7063 -56.7009 -56.6829
   -56.6294 -56.6098 -56.6089 -56.5824 -56.5526 -56.5490 -56.5266 -56.5213
   -56.5045 -56.4908 -56.4884 -56.4709 -56.4664 -56.4576 -56.4514 -56.4462
   -56.4181 -56.4066 -56.3769 -56.3743 -56.3468 -56.3313 -56.3232 -56.3228
   -56.3203 -56.3101 -56.3085 -56.3040 -56.3018 -56.3005 -56.2721 -56.2604
    -7.2968  -5.8228  -4.1441  -3.3337  -3.0805  -2.9669  -2.9262  -2.7521
    -2.6713  -2.5159  -2.1633  -2.1098  -2.0712  -2.0141  -1.9999  -1.7084
    -1.3304  -1.3228  -1.0480  -0.6114  -0.4367  -0.4090  -0.4034  -0.3562
    -0.2880  -0.2492  -0.2236  -0.1076  -0.0536  -0.0431   0.0436   0.0829
     0.0933   0.1292   0.1295   0.2401   0.2897   0.4278   0.4321   0.5708
     0.9129   0.9171   0.9615   0.9809   1.0569   1.0923   1.1017   1.1607
     1.4062   1.6022   1.6227   1.6736   1.7035   1.7046   1.7433   1.7506
     1.8254   1.8340   1.8581   1.8911   1.9966   2.0303   2.0354   2.0838

          k = 0.0000 0.3849 0.0000 ( 13322 PWs)   bands (ev):

   -93.2562 -93.2046 -93.1901 -93.1841 -93.1493 -93.1338 -93.1293 -93.0196
   -93.0187 -93.0022 -92.9933 -92.9928 -56.7005 -56.6865 -56.6698 -56.6489
   -56.6182 -56.5978 -56.5919 -56.5809 -56.5591 -56.5442 -56.5435 -56.5356
   -56.5142 -56.4975 -56.4896 -56.4854 -56.4611 -56.4512 -56.4470 -56.4297
   -56.4247 -56.4008 -56.3809 -56.3724 -56.3594 -56.3475 -56.3427 -56.3392
   -56.3265 -56.3183 -56.3065 -56.3038 -56.3016 -56.3006 -56.2996 -56.2710
    -6.6490  -5.4208  -4.2606  -3.7683  -2.9600  -2.8604  -2.8521  -2.5819
    -2.4291  -2.3384  -2.0218  -1.8689  -1.8638  -1.6836  -1.6776  -1.5324
    -1.2414  -1.2175  -1.1146  -0.9073  -0.7149  -0.7057  -0.6824  -0.5281
    -0.4328  -0.2675  -0.2312  -0.2286  -0.1933  -0.1559  -0.0915  -0.0345
     0.0171   0.0657   0.1620   0.1934   0.1970   0.2169   0.2460   0.2695
     0.3090   0.4112   0.6057   0.8056   0.8078   0.9583   1.0103   1.0866
     1.2129   1.2990   1.3184   1.3964   1.4219   1.4292   1.4851   1.5942
     1.6208   1.6816   1.7284   1.7905   1.8695   1.9315   1.9809   2.0069

          k = 0.0000-0.5774 0.0000 ( 13378 PWs)   bands (ev):

   -93.2551 -93.2030 -93.1927 -93.1841 -93.1461 -93.1367 -93.1293 -93.0195
   -93.0109 -93.0102 -92.9933 -92.9929 -56.6888 -56.6741 -56.6472 -56.6293
   -56.6016 -56.5930 -56.5831 -56.5757 -56.5712 -56.5557 -56.5524 -56.5515
   -56.5301 -56.4989 -56.4889 -56.4832 -56.4683 -56.4411 -56.4397 -56.4258
   -56.4008 -56.3898 -56.3790 -56.3738 -56.3727 -56.3674 -56.3588 -56.3546
   -56.3383 -56.3298 -56.3077 -56.3054 -56.3015 -56.3006 -56.2855 -56.2852
    -5.9338  -5.4025  -4.8194  -3.6224  -3.0847  -2.7782  -2.7723  -2.2752
    -2.2575  -2.2439  -2.0096  -1.6852  -1.6852  -1.5339  -1.5286  -1.3080
    -1.2453  -1.0397  -1.0295  -0.9836  -0.9826  -0.9469  -0.9436  -0.6150
    -0.5434  -0.5196  -0.4316  -0.4181  -0.4137  -0.3435  -0.2636  -0.1987
    -0.1111  -0.0411   0.0348   0.0452   0.0618   0.1180   0.2798   0.3082
     0.6439   0.6999   0.6999   0.7144   0.8395   0.8424   0.9900   1.0246
     1.0417   1.0729   1.1571   1.1640   1.1772   1.3278   1.3730   1.3886
     1.4352   1.4577   1.7260   1.7901   1.8721   1.9175   2.0001   2.0178

          k = 0.1667-0.0962 0.0000 ( 13286 PWs)   bands (ev):

   -93.2583 -93.2064 -93.1859 -93.1842 -93.1535 -93.1304 -93.1289 -93.0252
   -93.0188 -92.9958 -92.9949 -92.9914 -56.7204 -56.7062 -56.7010 -56.6829
   -56.6294 -56.6099 -56.6089 -56.5823 -56.5525 -56.5492 -56.5265 -56.5214
   -56.5044 -56.4906 -56.4887 -56.4707 -56.4664 -56.4579 -56.4511 -56.4463
   -56.4181 -56.4066 -56.3769 -56.3743 -56.3468 -56.3313 -56.3239 -56.3221
   -56.3201 -56.3102 -56.3085 -56.3039 -56.3025 -56.3001 -56.2721 -56.2604
    -7.2968  -5.8228  -4.1441  -3.3337  -3.0805  -2.9670  -2.9262  -2.7521
    -2.6713  -2.5159  -2.1633  -2.1098  -2.0711  -2.0142  -1.9999  -1.7083
    -1.3307  -1.3226  -1.0480  -0.6114  -0.4367  -0.4090  -0.4034  -0.3562
    -0.2881  -0.2490  -0.2239  -0.1073  -0.0536  -0.0433   0.0437   0.0828
     0.0933   0.1292   0.1295   0.2401   0.2896   0.4280   0.4320   0.5708
     0.9126   0.9176   0.9613   0.9808   1.0569   1.0924   1.1018   1.1608
     1.4061   1.6022   1.6226   1.6738   1.7038   1.7045   1.7434   1.7503
     1.8256   1.8338   1.8582   1.8910   1.9966   2.0301   2.0355   2.0838

          k = 0.1667 0.0962 0.0000 ( 13286 PWs)   bands (ev):

   -93.2583 -93.2065 -93.1857 -93.1844 -93.1534 -93.1313 -93.1281 -93.0252
   -93.0188 -92.9967 -92.9932 -92.9922 -56.7204 -56.7061 -56.7011 -56.6829
   -56.6293 -56.6095 -56.6094 -56.5824 -56.5530 -56.5487 -56.5265 -56.5216
   -56.5042 -56.4909 -56.4882 -56.4708 -56.4664 -56.4578 -56.4512 -56.4463
   -56.4179 -56.4066 -56.3778 -56.3733 -56.3468 -56.3310 -56.3232 -56.3229
   -56.3205 -56.3101 -56.3085 -56.3040 -56.3019 -56.3005 -56.2721 -56.2604
    -7.2968  -5.8228  -4.1441  -3.3337  -3.0805  -2.9669  -2.9262  -2.7520
    -2.6713  -2.5160  -2.1633  -2.1098  -2.0713  -2.0141  -1.9999  -1.7084
    -1.3306  -1.3227  -1.0480  -0.6114  -0.4367  -0.4090  -0.4034  -0.3562
    -0.2881  -0.2491  -0.2236  -0.1076  -0.0536  -0.0432   0.0437   0.0828
     0.0934   0.1291   0.1295   0.2401   0.2896   0.4280   0.4320   0.5708
     0.9126   0.9174   0.9614   0.9809   1.0570   1.0923   1.1018   1.1607
     1.4062   1.6021   1.6224   1.6737   1.7037   1.7047   1.7434   1.7504
     1.8254   1.8339   1.8582   1.8911   1.9965   2.0302   2.0355   2.0837

          k = 0.1667 0.2887 0.0000 ( 13291 PWs)   bands (ev):

   -93.2567 -93.2051 -93.1890 -93.1840 -93.1504 -93.1335 -93.1286 -93.0210
   -93.0191 -92.9995 -92.9957 -92.9912 -56.7058 -56.6915 -56.6766 -56.6615
   -56.6210 -56.6010 -56.5962 -56.5815 -56.5606 -56.5457 -56.5411 -56.5179
   -56.5105 -56.4994 -56.4865 -56.4846 -56.4615 -56.4538 -56.4463 -56.4426
   -56.4241 -56.4019 -56.3795 -56.3734 -56.3509 -56.3490 -56.3426 -56.3272
   -56.3153 -56.3135 -56.3104 -56.3054 -56.3013 -56.3011 -56.2976 -56.2684
    -6.8568  -5.5282  -3.9765  -3.5853  -3.5032  -2.8653  -2.7471  -2.5913
    -2.5367  -2.3124  -2.0159  -1.9839  -1.8892  -1.8199  -1.7625  -1.5821
    -1.2712  -1.2651  -1.1075  -0.8101  -0.6397  -0.5687  -0.5501  -0.5191
    -0.4074  -0.3306  -0.2107  -0.1734  -0.1295  -0.0753  -0.0481  -0.0258
     0.0356   0.1348   0.1539   0.1823   0.2253   0.2803   0.3524   0.3999
     0.4189   0.4823   0.5234   0.8068   0.8942   0.9288   0.9655   1.1313
     1.2857   1.3302   1.4553   1.4979   1.5169   1.5645   1.6361   1.6781
     1.7136   1.7516   1.7611   1.8871   1.9040   1.9258   2.0347   2.1643

          k = 0.1667-0.6736 0.0000 ( 13313 PWs)   bands (ev):

   -93.2551 -93.2025 -93.1936 -93.1837 -93.1460 -93.1369 -93.1292 -93.0196
   -93.0136 -93.0055 -92.9982 -92.9900 -56.6880 -56.6706 -56.6450 -56.6306
   -56.6074 -56.5950 -56.5899 -56.5822 -56.5738 -56.5580 -56.5506 -56.5294
   -56.5236 -56.5019 -56.4905 -56.4808 -56.4716 -56.4473 -56.4345 -56.4254
   -56.4077 -56.3975 -56.3835 -56.3809 -56.3716 -56.3643 -56.3501 -56.3397
   -56.3352 -56.3261 -56.3073 -56.3057 -56.3020 -56.3005 -56.2991 -56.2829
    -6.0885  -5.2162  -4.5512  -3.7382  -3.5219  -2.9495  -2.5771  -2.2497
    -2.2411  -2.0468  -1.8907  -1.7130  -1.6948  -1.6456  -1.4481  -1.3770
    -1.1979  -1.1765  -1.1001  -1.0668  -0.9587  -0.9274  -0.7741  -0.6913
    -0.6356  -0.5238  -0.4802  -0.4179  -0.3417  -0.3274  -0.2809  -0.2515
    -0.1230  -0.0418  -0.0017   0.0219   0.1969   0.2221   0.3199   0.3610
     0.4247   0.6306   0.7588   0.8137   0.8392   0.8737   0.9295   0.9531
     0.9871   1.1676   1.2176   1.2861   1.3346   1.4701   1.5044   1.5426
     1.6037   1.6676   1.7030   1.7421   1.7679   1.8544   1.8862   1.9032

          k = 0.1667-0.4811 0.0000 ( 13313 PWs)   bands (ev):

   -93.2551 -93.2025 -93.1937 -93.1836 -93.1463 -93.1363 -93.1296 -93.0195
   -93.0137 -93.0052 -92.9985 -92.9900 -56.6882 -56.6705 -56.6450 -56.6306
   -56.6075 -56.5949 -56.5899 -56.5820 -56.5738 -56.5578 -56.5508 -56.5292
   -56.5237 -56.5017 -56.4906 -56.4807 -56.4716 -56.4477 -56.4347 -56.4254
   -56.4077 -56.3976 -56.3835 -56.3803 -56.3719 -56.3643 -56.3504 -56.3396
   -56.3352 -56.3261 -56.3073 -56.3056 -56.3023 -56.3002 -56.2992 -56.2829
    -6.0885  -5.2162  -4.5512  -3.7383  -3.5218  -2.9495  -2.5771  -2.2496
    -2.2411  -2.0468  -1.8908  -1.7130  -1.6948  -1.6456  -1.4481  -1.3769
    -1.1979  -1.1765  -1.1002  -1.0668  -0.9587  -0.9274  -0.7742  -0.6911
    -0.6357  -0.5237  -0.4804  -0.4178  -0.3420  -0.3272  -0.2811  -0.2513
    -0.1230  -0.0419  -0.0016   0.0219   0.1967   0.2220   0.3199   0.3610
     0.4247   0.6306   0.7589   0.8135   0.8393   0.8738   0.9296   0.9531
     0.9871   1.1676   1.2175   1.2860   1.3347   1.4701   1.5042   1.5428
     1.6036   1.6677   1.7030   1.7421   1.7679   1.8544   1.8862   1.9032

          k = 0.1667-0.2887 0.0000 ( 13291 PWs)   bands (ev):

   -93.2567 -93.2051 -93.1892 -93.1839 -93.1506 -93.1322 -93.1297 -93.0210
   -93.0191 -92.9983 -92.9973 -92.9908 -56.7060 -56.6915 -56.6765 -56.6615
   -56.6211 -56.6011 -56.5958 -56.5814 -56.5604 -56.5454 -56.5413 -56.5179
   -56.5106 -56.4993 -56.4864 -56.4848 -56.4615 -56.4536 -56.4466 -56.4425
   -56.4247 -56.4019 -56.3784 -56.3745 -56.3509 -56.3489 -56.3426 -56.3270
   -56.3149 -56.3140 -56.3103 -56.3050 -56.3028 -56.3001 -56.2976 -56.2684
    -6.8568  -5.5282  -3.9765  -3.5853  -3.5032  -2.8652  -2.7471  -2.5914
    -2.5368  -2.3124  -2.0159  -1.9839  -1.8891  -1.8199  -1.7626  -1.5820
    -1.2712  -1.2652  -1.1074  -0.8101  -0.6397  -0.5688  -0.5502  -0.5189
    -0.4074  -0.3306  -0.2108  -0.1734  -0.1295  -0.0753  -0.0480  -0.0255
     0.0353   0.1348   0.1538   0.1824   0.2249   0.2805   0.3523   0.4000
     0.4188   0.4822   0.5235   0.8068   0.8943   0.9288   0.9654   1.1312
     1.2860   1.3301   1.4551   1.4977   1.5170   1.5646   1.6360   1.6785
     1.7134   1.7517   1.7610   1.8873   1.9038   1.9259   2.0347   2.1643

          k = 0.3333-0.1925 0.0000 ( 13322 PWs)   bands (ev):

   -93.2562 -93.2047 -93.1898 -93.1842 -93.1493 -93.1338 -93.1293 -93.0196
   -93.0187 -93.0017 -92.9952 -92.9914 -56.7005 -56.6864 -56.6700 -56.6489
   -56.6182 -56.5979 -56.5920 -56.5808 -56.5590 -56.5441 -56.5437 -56.5357
   -56.5141 -56.4975 -56.4898 -56.4853 -56.4613 -56.4503 -56.4475 -56.4297
   -56.4249 -56.4008 -56.3809 -56.3723 -56.3594 -56.3482 -56.3415 -56.3396
   -56.3265 -56.3184 -56.3058 -56.3045 -56.3020 -56.3003 -56.2995 -56.2709
    -6.6490  -5.4207  -4.2607  -3.7682  -2.9600  -2.8603  -2.8522  -2.5819
    -2.4291  -2.3384  -2.0218  -1.8688  -1.8638  -1.6838  -1.6776  -1.5322
    -1.2417  -1.2174  -1.1145  -0.9073  -0.7149  -0.7056  -0.6824  -0.5281
    -0.4327  -0.2675  -0.2313  -0.2287  -0.1933  -0.1559  -0.0915  -0.0346
     0.0173   0.0656   0.1620   0.1935   0.1969   0.2168   0.2460   0.2697
     0.3091   0.4112   0.6057   0.8060   0.8073   0.9584   1.0102   1.0866
     1.2130   1.2992   1.3182   1.3966   1.4217   1.4289   1.4852   1.5942
     1.6208   1.6817   1.7288   1.7900   1.8698   1.9312   1.9807   2.0071

          k = 0.3333-0.0000 0.0000 ( 13291 PWs)   bands (ev):

   -93.2567 -93.2052 -93.1888 -93.1842 -93.1504 -93.1335 -93.1286 -93.0210
   -93.0191 -92.9982 -92.9973 -92.9908 -56.7058 -56.6914 -56.6767 -56.6615
   -56.6209 -56.6010 -56.5963 -56.5814 -56.5606 -56.5457 -56.5411 -56.5178
   -56.5103 -56.4994 -56.4865 -56.4847 -56.4616 -56.4536 -56.4467 -56.4424
   -56.4242 -56.4019 -56.3795 -56.3734 -56.3508 -56.3490 -56.3426 -56.3272
   -56.3149 -56.3141 -56.3103 -56.3050 -56.3028 -56.3001 -56.2976 -56.2684
    -6.8568  -5.5282  -3.9765  -3.5853  -3.5032  -2.8653  -2.7471  -2.5913
    -2.5367  -2.3124  -2.0158  -1.9839  -1.8892  -1.8199  -1.7626  -1.5820
    -1.2712  -1.2653  -1.1074  -0.8101  -0.6397  -0.5688  -0.5500  -0.5191
    -0.4074  -0.3306  -0.2107  -0.1733  -0.1296  -0.0753  -0.0480  -0.0257
     0.0354   0.1349   0.1538   0.1823   0.2251   0.2805   0.3522   0.4000
     0.4188   0.4823   0.5234   0.8068   0.8944   0.9287   0.9654   1.1312
     1.2856   1.3304   1.4552   1.4977   1.5169   1.5647   1.6361   1.6785
     1.7134   1.7515   1.7610   1.8872   1.9039   1.9258   2.0347   2.1643

          k = 0.3333 0.1925 0.0000 ( 13322 PWs)   bands (ev):

   -93.2562 -93.2048 -93.1895 -93.1844 -93.1489 -93.1353 -93.1281 -93.0196
   -93.0187 -93.0022 -92.9934 -92.9927 -56.7002 -56.6862 -56.6702 -56.6490
   -56.6179 -56.5981 -56.5925 -56.5808 -56.5594 -56.5446 -56.5434 -56.5354
   -56.5140 -56.4973 -56.4900 -56.4850 -56.4613 -56.4511 -56.4470 -56.4297
   -56.4242 -56.4009 -56.3819 -56.3713 -56.3592 -56.3476 -56.3426 -56.3392
   -56.3270 -56.3183 -56.3064 -56.3038 -56.3016 -56.3005 -56.2996 -56.2710
    -6.6490  -5.4207  -4.2606  -3.7683  -2.9600  -2.8603  -2.8522  -2.5819
    -2.4290  -2.3385  -2.0217  -1.8688  -1.8639  -1.6838  -1.6775  -1.5324
    -1.2416  -1.2174  -1.1146  -0.9073  -0.7149  -0.7057  -0.6824  -0.5280
    -0.4329  -0.2675  -0.2311  -0.2286  -0.1934  -0.1557  -0.0915  -0.0347
     0.0172   0.0657   0.1619   0.1937   0.1972   0.2167   0.2459   0.2696
     0.3091   0.4112   0.6058   0.8059   0.8075   0.9584   1.0103   1.0866
     1.2127   1.2992   1.3183   1.3964   1.4218   1.4291   1.4851   1.5942
     1.6208   1.6816   1.7288   1.7901   1.8698   1.9312   1.9808   2.0069

          k = 0.3333-0.7698 0.0000 ( 13313 PWs)   bands (ev):

   -93.2551 -93.2028 -93.1932 -93.1838 -93.1455 -93.1380 -93.1286 -93.0196
   -93.0136 -93.0055 -92.9982 -92.9900 -56.6878 -56.6704 -56.6453 -56.6308
   -56.6071 -56.5951 -56.5900 -56.5824 -56.5738 -56.5583 -56.5509 -56.5291
   -56.5236 -56.5014 -56.4915 -56.4801 -56.4717 -56.4470 -56.4343 -56.4255
   -56.4076 -56.3978 -56.3839 -56.3809 -56.3712 -56.3641 -56.3501 -56.3397
   -56.3356 -56.3261 -56.3073 -56.3057 -56.3020 -56.3005 -56.2991 -56.2829
    -6.0885  -5.2162  -4.5512  -3.7382  -3.5219  -2.9495  -2.5771  -2.2497
    -2.2410  -2.0468  -1.8908  -1.7131  -1.6947  -1.6456  -1.4481  -1.3769
    -1.1979  -1.1765  -1.1001  -1.0668  -0.9587  -0.9274  -0.7742  -0.6911
    -0.6356  -0.5238  -0.4803  -0.4177  -0.3416  -0.3274  -0.2809  -0.2515
    -0.1230  -0.0419  -0.0016   0.0220   0.1967   0.2221   0.3202   0.3607
     0.4247   0.6306   0.7589   0.8138   0.8391   0.8736   0.9296   0.9532
     0.9871   1.1676   1.2176   1.2861   1.3346   1.4702   1.5042   1.5428
     1.6036   1.6678   1.7030   1.7417   1.7681   1.8542   1.8863   1.9032

          k = 0.3333-0.5774 0.0000 ( 13323 PWs)   bands (ev):

   -93.2546 -93.1989 -93.1981 -93.1833 -93.1432 -93.1395 -93.1294 -93.0197
   -93.0081 -93.0062 -93.0042 -92.9888 -56.6798 -56.6494 -56.6433 -56.6078
   -56.6042 -56.5934 -56.5899 -56.5856 -56.5850 -56.5841 -56.5556 -56.5193
   -56.5105 -56.5085 -56.4917 -56.4798 -56.4729 -56.4618 -56.4238 -56.4091
   -56.3994 -56.3982 -56.3927 -56.3880 -56.3756 -56.3729 -56.3531 -56.3511
   -56.3389 -56.3079 -56.3073 -56.3059 -56.3029 -56.3024 -56.3006 -56.2994
    -5.6638  -4.8207  -4.8143  -4.3937  -3.1715  -3.1706  -2.6860  -1.9010
    -1.8618  -1.8199  -1.8136  -1.7897  -1.6775  -1.4731  -1.4089  -1.3155
    -1.3091  -1.2924  -1.1015  -1.0974  -1.0473  -0.9935  -0.9240  -0.7392
    -0.7387  -0.6566  -0.6284  -0.5710  -0.5567  -0.5326  -0.4625  -0.2771
    -0.2682  -0.1132   0.1535   0.1774   0.2269   0.2875   0.2955   0.2985
     0.5729   0.6063   0.6232   0.7973   0.9122   0.9275   0.9833   0.9850
     1.0598   1.1169   1.1358   1.5043   1.5214   1.5396   1.5828   1.5954
     1.6538   1.6761   1.7082   1.7097   1.7290   1.7385   1.7397   1.7663

          k = 0.3333-0.3849 0.0000 ( 13313 PWs)   bands (ev):

   -93.2551 -93.2026 -93.1935 -93.1837 -93.1463 -93.1362 -93.1296 -93.0195
   -93.0138 -93.0046 -92.9991 -92.9898 -56.6882 -56.6704 -56.6451 -56.6306
   -56.6074 -56.5949 -56.5900 -56.5820 -56.5737 -56.5578 -56.5508 -56.5292
   -56.5236 -56.5016 -56.4907 -56.4807 -56.4717 -56.4478 -56.4341 -56.4258
   -56.4077 -56.3976 -56.3835 -56.3803 -56.3720 -56.3643 -56.3501 -56.3396
   -56.3352 -56.3260 -56.3071 -56.3054 -56.3029 -56.3000 -56.2992 -56.2829
    -6.0885  -5.2162  -4.5513  -3.7382  -3.5218  -2.9496  -2.5771  -2.2496
    -2.2410  -2.0468  -1.8908  -1.7131  -1.6947  -1.6456  -1.4481  -1.3769
    -1.1979  -1.1765  -1.1001  -1.0667  -0.9587  -0.9274  -0.7743  -0.6911
    -0.6356  -0.5238  -0.4805  -0.4177  -0.3418  -0.3274  -0.2811  -0.2513
    -0.1230  -0.0419  -0.0016   0.0220   0.1966   0.2221   0.3201   0.3609
     0.4247   0.6306   0.7589   0.8138   0.8392   0.8737   0.9295   0.9532
     0.9871   1.1676   1.2175   1.2862   1.3345   1.4702   1.5041   1.5428
     1.6036   1.6680   1.7030   1.7416   1.7682   1.8542   1.8861   1.9033

          k =-0.5000 0.2887 0.0000 ( 13378 PWs)   bands (ev):

   -93.2551 -93.2032 -93.1924 -93.1842 -93.1461 -93.1367 -93.1293 -93.0195
   -93.0122 -93.0084 -92.9952 -92.9914 -56.6888 -56.6739 -56.6474 -56.6294
   -56.6015 -56.5932 -56.5833 -56.5755 -56.5713 -56.5554 -56.5525 -56.5515
   -56.5301 -56.4991 -56.4887 -56.4831 -56.4686 -56.4419 -56.4384 -56.4262
   -56.4006 -56.3901 -56.3788 -56.3744 -56.3724 -56.3666 -56.3605 -56.3534
   -56.3382 -56.3298 -56.3076 -56.3050 -56.3028 -56.2998 -56.2868 -56.2841
    -5.9338  -5.4024  -4.8196  -3.6223  -3.0848  -2.7782  -2.7723  -2.2752
    -2.2575  -2.2437  -2.0097  -1.6854  -1.6851  -1.5341  -1.5284  -1.3081
    -1.2451  -1.0396  -1.0295  -0.9833  -0.9830  -0.9471  -0.9435  -0.6149
    -0.5433  -0.5197  -0.4317  -0.4183  -0.4137  -0.3434  -0.2634  -0.1988
    -0.1113  -0.0410   0.0348   0.0454   0.0619   0.1178   0.2801   0.3080
     0.6440   0.6997   0.6999   0.7144   0.8392   0.8428   0.9902   1.0248
     1.0414   1.0727   1.1574   1.1637   1.1771   1.3278   1.3731   1.3886
     1.4350   1.4577   1.7265   1.7896   1.8725   1.9172   1.9999   2.0179

          k =-0.5000 0.4811 0.0000 ( 13313 PWs)   bands (ev):

   -93.2551 -93.2027 -93.1933 -93.1838 -93.1460 -93.1369 -93.1292 -93.0195
   -93.0138 -93.0046 -92.9991 -92.9898 -56.6880 -56.6705 -56.6451 -56.6306
   -56.6074 -56.5951 -56.5899 -56.5823 -56.5737 -56.5580 -56.5505 -56.5294
   -56.5235 -56.5018 -56.4906 -56.4808 -56.4718 -56.4475 -56.4339 -56.4258
   -56.4077 -56.3975 -56.3836 -56.3808 -56.3717 -56.3644 -56.3501 -56.3396
   -56.3352 -56.3260 -56.3071 -56.3054 -56.3030 -56.2999 -56.2992 -56.2829
    -6.0885  -5.2162  -4.5513  -3.7382  -3.5218  -2.9496  -2.5771  -2.2496
    -2.2410  -2.0468  -1.8908  -1.7131  -1.6947  -1.6457  -1.4481  -1.3770
    -1.1979  -1.1765  -1.1002  -1.0666  -0.9587  -0.9274  -0.7742  -0.6912
    -0.6356  -0.5238  -0.4804  -0.4178  -0.3418  -0.3274  -0.2810  -0.2515
    -0.1229  -0.0418  -0.0017   0.0221   0.1967   0.2220   0.3201   0.3608
     0.4247   0.6305   0.7588   0.8138   0.8392   0.8736   0.9294   0.9533
     0.9870   1.1676   1.2175   1.2862   1.3346   1.4702   1.5042   1.5428
     1.6036   1.6681   1.7030   1.7417   1.7680   1.8542   1.8861   1.9034

          k =-0.5000 0.6736 0.0000 ( 13313 PWs)   bands (ev):

   -93.2551 -93.2028 -93.1931 -93.1839 -93.1455 -93.1380 -93.1286 -93.0196
   -93.0137 -93.0052 -92.9985 -92.9900 -56.6878 -56.6703 -56.6453 -56.6308
   -56.6071 -56.5952 -56.5900 -56.5825 -56.5738 -56.5583 -56.5507 -56.5291
   -56.5236 -56.5014 -56.4915 -56.4802 -56.4718 -56.4471 -56.4343 -56.4254
   -56.4076 -56.3978 -56.3840 -56.3807 -56.3712 -56.3641 -56.3504 -56.3396
   -56.3356 -56.3260 -56.3073 -56.3056 -56.3023 -56.3002 -56.2992 -56.2829
    -6.0885  -5.2162  -4.5513  -3.7383  -3.5218  -2.9495  -2.5771  -2.2497
    -2.2410  -2.0468  -1.8908  -1.7131  -1.6947  -1.6456  -1.4481  -1.3769
    -1.1979  -1.1765  -1.1002  -1.0667  -0.9588  -0.9274  -0.7742  -0.6911
    -0.6356  -0.5238  -0.4803  -0.4177  -0.3418  -0.3272  -0.2810  -0.2515
    -0.1230  -0.0419  -0.0016   0.0221   0.1967   0.2221   0.3202   0.3607
     0.4247   0.6306   0.7589   0.8136   0.8392   0.8737   0.9295   0.9532
     0.9871   1.1676   1.2175   1.2860   1.3347   1.4702   1.5041   1.5429
     1.6036   1.6679   1.7030   1.7418   1.7680   1.8542   1.8863   1.9032

          k =-0.5000-0.2887 0.0000 ( 13378 PWs)   bands (ev):

   -93.2551 -93.2034 -93.1920 -93.1844 -93.1449 -93.1391 -93.1281 -93.0196
   -93.0109 -93.0101 -92.9934 -92.9928 -56.6883 -56.6738 -56.6476 -56.6297
   -56.6012 -56.5934 -56.5838 -56.5753 -56.5716 -56.5555 -56.5527 -56.5524
   -56.5289 -56.5001 -56.4884 -56.4821 -56.4687 -56.4407 -56.4396 -56.4253
   -56.4004 -56.3911 -56.3790 -56.3741 -56.3716 -56.3673 -56.3589 -56.3544
   -56.3382 -56.3304 -56.3077 -56.3054 -56.3015 -56.3006 -56.2855 -56.2853
    -5.9337  -5.4025  -4.8194  -3.6225  -3.0847  -2.7783  -2.7722  -2.2751
    -2.2576  -2.2439  -2.0097  -1.6854  -1.6850  -1.5341  -1.5284  -1.3080
    -1.2452  -1.0396  -1.0296  -0.9835  -0.9829  -0.9472  -0.9436  -0.6149
    -0.5433  -0.5195  -0.4313  -0.4181  -0.4137  -0.3434  -0.2635  -0.1989
    -0.1112  -0.0410   0.0348   0.0453   0.0620   0.1177   0.2802   0.3078
     0.6438   0.6999   0.7000   0.7144   0.8393   0.8428   0.9904   1.0250
     1.0417   1.0723   1.1572   1.1638   1.1771   1.3276   1.3729   1.3888
     1.4353   1.4575   1.7264   1.7897   1.8725   1.9171   2.0001   2.0177

     the Fermi energy is     0.9051 ev

!    total energy              =   -3595.51543407 Ry
     Harris-Foulkes estimate   =   -3595.51540861 Ry
     estimated scf accuracy    <       0.00004851 Ry

     The total energy is the sum of the following terms:

     one-electron contribution =  -31435.34722831 Ry
     hartree contribution      =   15724.04302521 Ry
     xc contribution           =    -406.02920989 Ry
     ewald contribution        =   12521.89225347 Ry
     electric field correction =       0.00000005 Ry
     smearing contrib. (-TS)   =      -0.07427460 Ry

     total magnetization       =    18.93 Bohr mag/cell
     absolute magnetization    =    21.95 Bohr mag/cell

     convergence has been achieved in  36 iterations

     negative rho (up, down):  6.684E-04 3.193E-04

     Forces acting on atoms (cartesian axes, Ry/au):

     atom    1 type  1   force =     0.00008400    0.00011952    0.00938219
     atom    2 type  1   force =    -0.00006281   -0.00069975    0.01029391
     atom    3 type  1   force =    -0.00070973    0.00025623    0.01028721
     atom    4 type  1   force =     0.00073248    0.00034545    0.01016523
     atom    5 type  1   force =    -0.00024419    0.00058334   -0.01106265
     atom    6 type  1   force =     0.00026285   -0.00041940   -0.01019736
     atom    7 type  1   force =    -0.00087226    0.00007593   -0.00638684
     atom    8 type  1   force =     0.00087346   -0.00021621   -0.01053255
     atom    9 type  1   force =    -0.00009248    0.00002689   -0.00112058
     atom   10 type  1   force =     0.00004290    0.00005414   -0.00110721
     atom   11 type  1   force =    -0.00000623   -0.00003139   -0.00110393
     atom   12 type  1   force =    -0.00000780   -0.00009500    0.00123322
     atom   13 type  2   force =    -0.00000020    0.00000024    0.00014935

     Total force =     0.002295     Total SCF correction =     0.002816
     SCF correction compared to forces is large: reduce conv_thr to get better values

     BFGS Geometry Optimization

     bfgs converged in   1 scf cycles and   0 bfgs steps
     (criteria: energy <  1.0E+12 Ry, force <  1.9E-03 Ry/Bohr)

     End of BFGS Geometry Optimization

     Final energy   =   -3595.5154340740 Ry
Begin final coordinates

ATOMIC_POSITIONS (angstrom)
Co       1.253137179   0.723499088  10.000000000    0   0   0
Co       3.759411536   0.723499088  10.000000000    0   0   0
Co       2.506274358   2.893996350  10.000000000    0   0   0
Co       5.012548715   2.893996350  10.000000000    0   0   0
Co       5.012548715   1.446998175  12.046364444    0   0   0
Co       2.506274357   1.446998175  12.046364444    0   0   0
Co       6.265685894   3.617495438  12.046364444    0   0   0
Co       3.759411536   3.617495438  12.046364444    0   0   0
Co      -0.011157044  -0.006413971  14.064368572
Co       2.517399196  -0.006424641  14.064328000
Co       1.253113236   2.183337494  14.064365730
Co       3.759433504   2.170484235  14.025369046
H        1.253137073   0.723485245  15.009110462
End final coordinates



     Writing output data file calc.save

     init_run     :      8.10s CPU      8.80s WALL (       1 calls)
     electrons    :    652.25s CPU    765.65s WALL (       1 calls)
     forces       :      2.63s CPU      2.83s WALL (       1 calls)

     Called by init_run:
     wfcinit      :      6.47s CPU      6.97s WALL (       1 calls)
     potinit      :      0.77s CPU      0.89s WALL (       1 calls)

     Called by electrons:
     c_bands      :    543.73s CPU    647.20s WALL (      36 calls)
     sum_band     :     86.10s CPU     91.09s WALL (      36 calls)
     v_of_rho     :     17.16s CPU     20.12s WALL (      37 calls)
     newd         :      4.91s CPU      6.76s WALL (      37 calls)
     mix_rho      :      0.58s CPU      0.67s WALL (      36 calls)

     Called by c_bands:
     init_us_2    :      2.78s CPU      2.90s WALL (    2960 calls)
     cegterg      :    531.87s CPU    633.98s WALL (    1440 calls)

     Called by sum_band:
     sum_band:bec :      0.42s CPU      0.44s WALL (    1440 calls)
     addusdens    :      7.90s CPU      9.72s WALL (      36 calls)

     Called by *egterg:
     h_psi        :    290.38s CPU    314.24s WALL (    5624 calls)
     s_psi        :     18.45s CPU     18.64s WALL (    5624 calls)
     g_psi        :      0.84s CPU      0.89s WALL (    4144 calls)
     cdiaghg      :    132.39s CPU    196.71s WALL (    5584 calls)

     Called by h_psi:
     h_psi:pot    :    288.32s CPU    312.07s WALL (    5624 calls)
     h_psi:calbec :     22.09s CPU     24.22s WALL (    5624 calls)
     vloc_psi     :    247.97s CPU    269.38s WALL (    5624 calls)
     add_vuspsi   :     18.20s CPU     18.43s WALL (    5624 calls)

     General routines
     calbec       :     31.59s CPU     34.23s WALL (    7224 calls)
     fft          :      7.84s CPU     10.30s WALL (    3588 calls)
     ffts         :      0.09s CPU      0.10s WALL (     146 calls)
     fftw         :    274.73s CPU    296.94s WALL (  905864 calls)
     interpolate  :      0.38s CPU      0.45s WALL (     146 calls)
     davcio       :      0.01s CPU      0.02s WALL (      40 calls)

     Parallel routines
     fft_scatter  :     67.39s CPU     85.52s WALL (  909598 calls)

     PWSCF        : 11m 3.51s CPU    12m58.09s WALL


   This run was terminated on:  16:30:21  11Jan2019            

=------------------------------------------------------------------------------=
   JOB DONE.
=------------------------------------------------------------------------------=
