  python dir          : /nfs/slac/g/suncatfs/sw/espv20/lib/python2.7/site-packages/espresso
  espresso dir        : /nfs/slac/g/suncatfs/sw/espv18/espresso-dynpy-beef/bin
  pseudo dir          : /afs/slac.stanford.edu/u/if/mamunm/psp/gbrv1.5pbe
  ase-espresso py git : ffa2778-git



     Program PWSCF v.5.1rc2 (svn rev. 11289) starts on 16Jan2018 at 15:11:19 

     This program is part of the open-source Quantum ESPRESSO suite
     for quantum simulation of materials; please cite
         "P. Giannozzi et al., J. Phys.:Condens. Matter 21 395502 (2009);
          URL http://www.quantum-espresso.org", 
     in publications or presentations arising from this work. More details at
     http://www.quantum-espresso.org/quote

     Parallel version (MPI), running on    32 processors
     R & G space division:  proc/nbgrp/npool/nimage =      32
     Reading input from pw.inp
     Message from routine read_cards :
     DEPRECATED: no units specified in CELL_PARAMETERS card

     Current dimensions of program PWSCF are:
     Max number of different atomic species (ntypx) = 10
     Max number of k-points (npk) =  40000
     Max angular momentum in pseudopotentials (lmaxx) =  3
     Presently stress not available with electric field


     **************************************************************************
     Initializing libbeef V0.1.1 with the BEEF-vdW functional.
     Citation: Wellendorff et al., PRB 85, 235149 (2012).
     **************************************************************************


     IMPORTANT: XC functional enforced from input :
     Exchange-correlation      = BEEF-VDW ( 1  4 27 13 2)
     Any further DFT definition will be discarded
     Please, verify this is what you really want


     Subspace diagonalization in iterative solution of the eigenvalue problem:
     a serial algorithm will be used

 
     Parallelization info
     --------------------
     sticks:   dense  smooth     PW     G-vecs:    dense   smooth      PW
     Min          83      33      9                15610     3925     617
     Max          85      34     10                15618     3977     642
     Sum        2677    1069    313               499637   126395   20221
 


     bravais-lattice index     =            0
     lattice parameter (alat)  =       1.8897  a.u.
     unit-cell volume          =    4198.3539 (a.u.)^3
     number of atoms/cell      =           13
     number of atomic types    =            2
     number of electrons       =       193.00
     number of Kohn-Sham states=          106
     kinetic-energy cutoff     =      36.7493  Ry
     charge density cutoff     =     367.4932  Ry
     convergence threshold     =      1.0E-05
     mixing beta               =       0.3000
     number of iterations used =           10  plain     mixing
     Exchange-correlation      = BEEF-VDW ( 1  4 27 13 2)
     nstep                     =           50


     celldm(1)=   1.889726  celldm(2)=   0.000000  celldm(3)=   0.000000
     celldm(4)=   0.000000  celldm(5)=   0.000000  celldm(6)=   0.000000

     crystal axes: (cart. coord. in units of alat)
               a(1) = (   5.422927   0.000000   0.000000 )  
               a(2) = (   2.711463   4.696392   0.000000 )  
               a(3) = (   0.000000   0.000000  24.427801 )  

     reciprocal axes: (cart. coord. in units 2 pi/alat)
               b(1) = (  0.184402 -0.106465  0.000000 )  
               b(2) = (  0.000000  0.212929  0.000000 )  
               b(3) = (  0.000000  0.000000  0.040937 )  


     PseudoPot. # 1 for Ru read from file:
     /afs/slac.stanford.edu/u/if/mamunm/psp/gbrv1.5pbe/Ru.UPF
     MD5 check sum: 7158a806dd851261a58e6920c40ebe78
     Pseudo is Ultrasoft + core correction, Zval = 16.0
     Generated by new atomic code, or converted to UPF format
     Using radial grid of  967 points,  6 beta functions with: 
                l(1) =   0
                l(2) =   0
                l(3) =   1
                l(4) =   1
                l(5) =   2
                l(6) =   2
     Q(r) pseudized with  8 coefficients,  rinner =    1.300   1.300   1.300
                                                       1.300   1.300

     PseudoPot. # 2 for H  read from file:
     /afs/slac.stanford.edu/u/if/mamunm/psp/gbrv1.5pbe/H.UPF
     MD5 check sum: 761ae9a214b05c3daf00ab9f6b793d6f
     Pseudo is Ultrasoft, Zval =  1.0
     Generated by new atomic code, or converted to UPF format
     Using radial grid of  615 points,  2 beta functions with: 
                l(1) =   0
                l(2) =   0
     Q(r) pseudized with  8 coefficients,  rinner =    0.700

     vdW kernel table read from file vdW_kernel_table
     MD5 check sum: 095c7af220d748ca6e76c0b4c6cfb241

     atomic species   valence    mass     pseudopotential
        Ru1           16.00   101.07000     Ru( 1.00)
        H1             1.00     1.00800     H ( 1.00)

     No symmetry found



   Cartesian axes

     site n.     atom                  positions (alat units)
         1           Ru1 tau(   1) = (   1.3557316   0.7827320  10.0000000  )
         2           Ru1 tau(   2) = (   4.0671949   0.7827320  10.0000000  )
         3           Ru1 tau(   3) = (   2.7114633   3.1309281  10.0000000  )
         4           Ru1 tau(   4) = (   5.4229265   3.1309281  10.0000000  )
         5           Ru1 tau(   5) = (   5.4229265   1.5654640  12.2139005  )
         6           Ru1 tau(   6) = (   2.7114633   1.5654640  12.2139005  )
         7           Ru1 tau(   7) = (   6.7786581   3.9136601  12.2139005  )
         8           Ru1 tau(   8) = (   4.0671949   3.9136601  12.2139005  )
         9           Ru1 tau(   9) = (   0.0000000   0.0000000  14.4278010  )
        10           Ru1 tau(  10) = (   2.7114633   0.0000000  14.4278010  )
        11           Ru1 tau(  11) = (   1.3557316   2.3481961  14.4278010  )
        12           Ru1 tau(  12) = (   4.0671949   2.3481961  14.4278010  )
        13           H1  tau(  13) = (   1.3557316   0.7827320  16.1978010  )

     number of k points=    20  Fermi-Dirac smearing, width (Ry)=  0.0110
                       cart. coord. in units 2pi/alat
        k(    1) = (   0.0000000   0.0000000   0.0000000), wk =   0.0555556
        k(    2) = (   0.0000000   0.0354882   0.0000000), wk =   0.1111111
        k(    3) = (   0.0000000   0.0709765   0.0000000), wk =   0.1111111
        k(    4) = (   0.0000000  -0.1064647   0.0000000), wk =   0.0555556
        k(    5) = (   0.0307337  -0.0177441   0.0000000), wk =   0.1111111
        k(    6) = (   0.0307337   0.0177441   0.0000000), wk =   0.1111111
        k(    7) = (   0.0307337   0.0532324   0.0000000), wk =   0.1111111
        k(    8) = (   0.0307337  -0.1242088   0.0000000), wk =   0.1111111
        k(    9) = (   0.0307337  -0.0887206   0.0000000), wk =   0.1111111
        k(   10) = (   0.0307337  -0.0532324   0.0000000), wk =   0.1111111
        k(   11) = (   0.0614674  -0.0354882   0.0000000), wk =   0.1111111
        k(   12) = (   0.0614674   0.0000000   0.0000000), wk =   0.1111111
        k(   13) = (   0.0614674   0.0354882   0.0000000), wk =   0.1111111
        k(   14) = (   0.0614674  -0.1419529   0.0000000), wk =   0.1111111
        k(   15) = (   0.0614674  -0.1064647   0.0000000), wk =   0.1111111
        k(   16) = (   0.0614674  -0.0709765   0.0000000), wk =   0.1111111
        k(   17) = (  -0.0922011   0.0532324   0.0000000), wk =   0.0555556
        k(   18) = (  -0.0922011   0.0887206   0.0000000), wk =   0.1111111
        k(   19) = (  -0.0922011   0.1242088   0.0000000), wk =   0.1111111
        k(   20) = (  -0.0922011  -0.0532324   0.0000000), wk =   0.0555556

     Dense  grid:   499637 G-vectors     FFT dimensions: (  64,  64, 288)

     Smooth grid:   126395 G-vectors     FFT dimensions: (  40,  40, 180)

     Largest allocated arrays     est. size (Mb)     dimensions
        Kohn-Sham Wavefunctions         0.83 Mb     (     516,  106)
        NL pseudopotentials             1.72 Mb     (     516,  218)
        Each V/rho on FFT grid          0.56 Mb     (   36864)
        Each G-vector array             0.12 Mb     (   15614)
        G-vector shells                 0.05 Mb     (    6919)
     Largest temporary arrays     est. size (Mb)     dimensions
        Auxiliary wavefunctions         3.34 Mb     (     516,  424)
        Each subspace H/S matrix        2.74 Mb     (     424,  424)
        Each <psi_i|beta_j> matrix      0.35 Mb     (     218,  106)
        Arrays for rho mixing           5.62 Mb     (   36864,   10)

     Initial potential from superposition of free atoms
     Check: negative starting charge=   -0.873644

     starting charge  180.99980, renormalised to  193.00000

     negative rho (up, down):  9.316E-01 0.000E+00


     ************************************************************************
     *
     * You are using vdW-DF for exchange-correlation in this calculation.
     * Please cite the following three references that made this development
     * possible:
     *
     *   M. Dion, H. Rydberg, E. Schroder, D. C. Langreth, and
     *   B. I. Lundqvist, Phys. Rev. Lett. 92, 246401 (2004).
     *
     *   T. Thonhauser, V. R. Cooper, S. Li, A. Puzder, P. Hyldgaard, and
     *   D. C. Langreth, Phys. Rev. B 76, 125112 (2007).
     *
     *   G. Roman-Perez and J. M. Soler, Phys. Rev. Lett. 103, 096102 (2009).
     *
     *
     * If you are using vdW-DF2, please also cite:
     *
     *   K. Lee, E. D. Murray, L. Kong, B. I. Lundqvist, and
     *   D. C. Langreth, Phys. Rev. B 82, 081101(R) (2010).
     *
     *
     * If you are calculating the stress with vdW-DF, please also cite:
     *
     *   R. Sabatini, E. Kucukbenli, B. Kolb, T. Thonhauser, and
     *   S. de Gironcoli, J. Phys.: Condens. Matter 24, 424209 (2012).
     *
     ************************************************************************

     Carrying out vdW-DF run using the following parameters:

     Nqs =      20    Nr_points =    1024   r_max =   100.000
     q_mesh =
               0.00001000     0.04494208     0.09755937     0.15916263
               0.23128650     0.31572767     0.41458969     0.53033537
               0.66584808     0.82450364     1.01025438     1.22772762
               1.48234092     1.78043706     2.12944203     2.53805004
               3.01644009     3.57652955     4.23227104     5.00000000

     Gradients computed in reciprocal space

     ************************************************************************


 
     Adding external electric field

     Computed dipole along edir(3) : 
        Dipole               -0.4991 Ry au,         -1.2685 Debye
        Dipole field         -0.0015 Ry au
 
        Potential amp.        0.1345 Ry
        Total length         45.0078 bohr
 
     Starting wfc are  157 randomized atomic wfcs

     total cpu time spent up to now is       17.7 secs

     per-process dynamical memory:    46.1 Mb

     Self-consistent Calculation

     iteration #  1     ecut=    36.75 Ry     beta=0.30
     Davidson diagonalization with overlap
     ethr =  1.00E-02,  avg # of iterations =  2.2

     negative rho (up, down):  9.240E-01 0.000E+00
 
     Adding external electric field

     Computed dipole along edir(3) : 
        Dipole                7.9470 Ry au,         20.1993 Debye
        Dipole field          0.0238 Ry au
 
        Potential amp.       -2.1412 Ry
        Total length         45.0078 bohr
 

     total cpu time spent up to now is       53.7 secs

     total energy              =   -2334.78952169 Ry
     Harris-Foulkes estimate   =   -2347.65601170 Ry
     estimated scf accuracy    <      28.83629004 Ry

     iteration #  2     ecut=    36.75 Ry     beta=0.30
     Davidson diagonalization with overlap
     ethr =  1.00E-02,  avg # of iterations =  9.7

     negative rho (up, down):  9.236E-01 0.000E+00
 
     Adding external electric field

     Computed dipole along edir(3) : 
        Dipole               -0.9697 Ry au,         -2.4648 Debye
        Dipole field         -0.0029 Ry au
 
        Potential amp.        0.2613 Ry
        Total length         45.0078 bohr
 

     total cpu time spent up to now is      121.7 secs

     total energy              =   -2322.89530173 Ry
     Harris-Foulkes estimate   =   -2382.69428310 Ry
     estimated scf accuracy    <    1102.62873352 Ry

     iteration #  3     ecut=    36.75 Ry     beta=0.30
     Davidson diagonalization with overlap
     ethr =  1.00E-02,  avg # of iterations =  6.0

     negative rho (up, down):  9.212E-01 0.000E+00
 
     Adding external electric field

     Computed dipole along edir(3) : 
        Dipole               -0.6573 Ry au,         -1.6708 Debye
        Dipole field         -0.0020 Ry au
 
        Potential amp.        0.1771 Ry
        Total length         45.0078 bohr
 

     total cpu time spent up to now is      179.1 secs

     total energy              =   -2338.82889821 Ry
     Harris-Foulkes estimate   =   -2344.36145851 Ry
     estimated scf accuracy    <      29.63430790 Ry

     iteration #  4     ecut=    36.75 Ry     beta=0.30
     Davidson diagonalization with overlap
     ethr =  1.00E-02,  avg # of iterations =  4.9

     negative rho (up, down):  9.181E-01 0.000E+00
 
     Adding external electric field

     Computed dipole along edir(3) : 
        Dipole               -0.7989 Ry au,         -2.0306 Debye
        Dipole field         -0.0024 Ry au
 
        Potential amp.        0.2153 Ry
        Total length         45.0078 bohr
 

     total cpu time spent up to now is      220.7 secs

     total energy              =   -2339.45775050 Ry
     Harris-Foulkes estimate   =   -2345.85788232 Ry
     estimated scf accuracy    <      64.09941661 Ry

     iteration #  5     ecut=    36.75 Ry     beta=0.30
     Davidson diagonalization with overlap
     ethr =  1.00E-02,  avg # of iterations =  3.5

     negative rho (up, down):  9.162E-01 0.000E+00
 
     Adding external electric field

     Computed dipole along edir(3) : 
        Dipole               -0.7161 Ry au,         -1.8200 Debye
        Dipole field         -0.0021 Ry au
 
        Potential amp.        0.1929 Ry
        Total length         45.0078 bohr
 

     total cpu time spent up to now is      253.8 secs

     total energy              =   -2342.07764874 Ry
     Harris-Foulkes estimate   =   -2342.40879328 Ry
     estimated scf accuracy    <       0.95302471 Ry

     iteration #  6     ecut=    36.75 Ry     beta=0.30
     Davidson diagonalization with overlap
     ethr =  4.94E-04,  avg # of iterations =  6.1

     negative rho (up, down):  9.142E-01 0.000E+00
 
     Adding external electric field

     Computed dipole along edir(3) : 
        Dipole               -0.6583 Ry au,         -1.6734 Debye
        Dipole field         -0.0020 Ry au
 
        Potential amp.        0.1774 Ry
        Total length         45.0078 bohr
 

     total cpu time spent up to now is      301.9 secs

     total energy              =   -2342.15280883 Ry
     Harris-Foulkes estimate   =   -2342.67815065 Ry
     estimated scf accuracy    <       7.79896423 Ry

     iteration #  7     ecut=    36.75 Ry     beta=0.30
     Davidson diagonalization with overlap
     ethr =  4.94E-04,  avg # of iterations =  4.4

     negative rho (up, down):  9.136E-01 0.000E+00
 
     Adding external electric field

     Computed dipole along edir(3) : 
        Dipole               -0.5666 Ry au,         -1.4402 Debye
        Dipole field         -0.0017 Ry au
 
        Potential amp.        0.1527 Ry
        Total length         45.0078 bohr
 

     total cpu time spent up to now is      343.4 secs

     total energy              =   -2342.31596021 Ry
     Harris-Foulkes estimate   =   -2342.42379213 Ry
     estimated scf accuracy    <       1.37301843 Ry

     iteration #  8     ecut=    36.75 Ry     beta=0.30
     Davidson diagonalization with overlap
     ethr =  4.94E-04,  avg # of iterations =  4.5

     negative rho (up, down):  9.129E-01 0.000E+00
 
     Adding external electric field

     Computed dipole along edir(3) : 
        Dipole               -0.4454 Ry au,         -1.1320 Debye
        Dipole field         -0.0013 Ry au
 
        Potential amp.        0.1200 Ry
        Total length         45.0078 bohr
 

     total cpu time spent up to now is      378.6 secs

     total energy              =   -2342.40153620 Ry
     Harris-Foulkes estimate   =   -2342.45387502 Ry
     estimated scf accuracy    <       4.75710741 Ry

     iteration #  9     ecut=    36.75 Ry     beta=0.30
     Davidson diagonalization with overlap
     ethr =  4.94E-04,  avg # of iterations =  1.0

     negative rho (up, down):  9.106E-01 0.000E+00
 
     Adding external electric field

     Computed dipole along edir(3) : 
        Dipole               -0.2426 Ry au,         -0.6167 Debye
        Dipole field         -0.0007 Ry au
 
        Potential amp.        0.0654 Ry
        Total length         45.0078 bohr
 

     total cpu time spent up to now is      407.1 secs

     total energy              =   -2342.34980018 Ry
     Harris-Foulkes estimate   =   -2342.41401141 Ry
     estimated scf accuracy    <       1.94961292 Ry

     iteration # 10     ecut=    36.75 Ry     beta=0.30
     Davidson diagonalization with overlap
     ethr =  4.94E-04,  avg # of iterations =  1.2

     negative rho (up, down):  9.103E-01 0.000E+00
 
     Adding external electric field

     Computed dipole along edir(3) : 
        Dipole               -0.2186 Ry au,         -0.5555 Debye
        Dipole field         -0.0007 Ry au
 
        Potential amp.        0.0589 Ry
        Total length         45.0078 bohr
 

     total cpu time spent up to now is      435.9 secs

     total energy              =   -2342.37255005 Ry
     Harris-Foulkes estimate   =   -2342.37509852 Ry
     estimated scf accuracy    <       0.05645923 Ry

     iteration # 11     ecut=    36.75 Ry     beta=0.30
     Davidson diagonalization with overlap
     ethr =  2.93E-05,  avg # of iterations =  6.0

     negative rho (up, down):  9.102E-01 0.000E+00
 
     Adding external electric field

     Computed dipole along edir(3) : 
        Dipole               -0.1981 Ry au,         -0.5036 Debye
        Dipole field         -0.0006 Ry au
 
        Potential amp.        0.0534 Ry
        Total length         45.0078 bohr
 

     total cpu time spent up to now is      476.5 secs

     total energy              =   -2342.37809174 Ry
     Harris-Foulkes estimate   =   -2342.38185950 Ry
     estimated scf accuracy    <       0.08673285 Ry

     iteration # 12     ecut=    36.75 Ry     beta=0.30
     Davidson diagonalization with overlap
     ethr =  2.93E-05,  avg # of iterations =  1.0

     negative rho (up, down):  9.098E-01 0.000E+00
 
     Adding external electric field

     Computed dipole along edir(3) : 
        Dipole               -0.1471 Ry au,         -0.3739 Debye
        Dipole field         -0.0004 Ry au
 
        Potential amp.        0.0396 Ry
        Total length         45.0078 bohr
 

     total cpu time spent up to now is      504.6 secs

     total energy              =   -2342.37981093 Ry
     Harris-Foulkes estimate   =   -2342.38003457 Ry
     estimated scf accuracy    <       0.00083593 Ry

     iteration # 13     ecut=    36.75 Ry     beta=0.30
     Davidson diagonalization with overlap
     ethr =  4.33E-07,  avg # of iterations =  6.0

     negative rho (up, down):  9.094E-01 0.000E+00
 
     Adding external electric field

     Computed dipole along edir(3) : 
        Dipole               -0.0914 Ry au,         -0.2324 Debye
        Dipole field         -0.0003 Ry au
 
        Potential amp.        0.0246 Ry
        Total length         45.0078 bohr
 

     total cpu time spent up to now is      557.3 secs

     total energy              =   -2342.38014065 Ry
     Harris-Foulkes estimate   =   -2342.38041395 Ry
     estimated scf accuracy    <       0.01873213 Ry

     iteration # 14     ecut=    36.75 Ry     beta=0.30
     Davidson diagonalization with overlap
     ethr =  4.33E-07,  avg # of iterations =  4.4

     negative rho (up, down):  9.094E-01 0.000E+00
 
     Adding external electric field

     Computed dipole along edir(3) : 
        Dipole               -0.0876 Ry au,         -0.2228 Debye
        Dipole field         -0.0003 Ry au
 
        Potential amp.        0.0236 Ry
        Total length         45.0078 bohr
 

     total cpu time spent up to now is      594.2 secs

     total energy              =   -2342.38013081 Ry
     Harris-Foulkes estimate   =   -2342.38029629 Ry
     estimated scf accuracy    <       0.00986814 Ry

     iteration # 15     ecut=    36.75 Ry     beta=0.30
     Davidson diagonalization with overlap
     ethr =  4.33E-07,  avg # of iterations =  4.5

     negative rho (up, down):  9.094E-01 0.000E+00
 
     Adding external electric field

     Computed dipole along edir(3) : 
        Dipole               -0.0880 Ry au,         -0.2236 Debye
        Dipole field         -0.0003 Ry au
 
        Potential amp.        0.0237 Ry
        Total length         45.0078 bohr
 

     total cpu time spent up to now is      627.3 secs

     total energy              =   -2342.38016166 Ry
     Harris-Foulkes estimate   =   -2342.38021458 Ry
     estimated scf accuracy    <       0.00203007 Ry

     iteration # 16     ecut=    36.75 Ry     beta=0.30
     Davidson diagonalization with overlap
     ethr =  4.33E-07,  avg # of iterations =  3.7

     negative rho (up, down):  9.093E-01 0.000E+00
 
     Adding external electric field

     Computed dipole along edir(3) : 
        Dipole               -0.0796 Ry au,         -0.2024 Debye
        Dipole field         -0.0002 Ry au
 
        Potential amp.        0.0215 Ry
        Total length         45.0078 bohr
 

     total cpu time spent up to now is      659.4 secs

     total energy              =   -2342.38019776 Ry
     Harris-Foulkes estimate   =   -2342.38021373 Ry
     estimated scf accuracy    <       0.00019589 Ry

     iteration # 17     ecut=    36.75 Ry     beta=0.30
     Davidson diagonalization with overlap
     ethr =  1.01E-07,  avg # of iterations =  4.2

     negative rho (up, down):  9.094E-01 0.000E+00
 
     Adding external electric field

     Computed dipole along edir(3) : 
        Dipole               -0.0759 Ry au,         -0.1929 Debye
        Dipole field         -0.0002 Ry au
 
        Potential amp.        0.0204 Ry
        Total length         45.0078 bohr
 

     total cpu time spent up to now is      693.1 secs

     total energy              =   -2342.38021541 Ry
     Harris-Foulkes estimate   =   -2342.38021800 Ry
     estimated scf accuracy    <       0.00004784 Ry

     iteration # 18     ecut=    36.75 Ry     beta=0.30
     Davidson diagonalization with overlap
     ethr =  2.48E-08,  avg # of iterations =  4.3

     negative rho (up, down):  9.094E-01 0.000E+00
 
     Adding external electric field

     Computed dipole along edir(3) : 
        Dipole               -0.0742 Ry au,         -0.1886 Debye
        Dipole field         -0.0002 Ry au
 
        Potential amp.        0.0200 Ry
        Total length         45.0078 bohr
 

     total cpu time spent up to now is      726.9 secs

     total energy              =   -2342.38021947 Ry
     Harris-Foulkes estimate   =   -2342.38021967 Ry
     estimated scf accuracy    <       0.00001335 Ry

     iteration # 19     ecut=    36.75 Ry     beta=0.30
     Davidson diagonalization with overlap
     ethr =  6.92E-09,  avg # of iterations =  3.6

     negative rho (up, down):  9.095E-01 0.000E+00

     negative rho (up, down):  9.095E-01 0.000E+00

     negative rho (up, down):  9.095E-01 0.000E+00

     negative rho (up, down):  9.095E-01 0.000E+00

     negative rho (up, down):  9.095E-01 0.000E+00

     negative rho (up, down):  9.095E-01 0.000E+00

     negative rho (up, down):  9.095E-01 0.000E+00

     negative rho (up, down):  9.095E-01 0.000E+00

     negative rho (up, down):  9.095E-01 0.000E+00

     negative rho (up, down):  9.095E-01 0.000E+00

     negative rho (up, down):  9.095E-01 0.000E+00

     negative rho (up, down):  9.095E-01 0.000E+00

     negative rho (up, down):  9.095E-01 0.000E+00

     negative rho (up, down):  9.095E-01 0.000E+00

     negative rho (up, down):  9.095E-01 0.000E+00

     negative rho (up, down):  9.095E-01 0.000E+00

     negative rho (up, down):  9.095E-01 0.000E+00

     negative rho (up, down):  9.095E-01 0.000E+00

     negative rho (up, down):  9.095E-01 0.000E+00

     negative rho (up, down):  9.095E-01 0.000E+00

     negative rho (up, down):  9.095E-01 0.000E+00

     negative rho (up, down):  9.095E-01 0.000E+00

     negative rho (up, down):  9.095E-01 0.000E+00

     negative rho (up, down):  9.095E-01 0.000E+00

     negative rho (up, down):  9.095E-01 0.000E+00

     negative rho (up, down):  9.095E-01 0.000E+00

     negative rho (up, down):  9.095E-01 0.000E+00

     negative rho (up, down):  9.095E-01 0.000E+00

     negative rho (up, down):  9.095E-01 0.000E+00

     negative rho (up, down):  9.095E-01 0.000E+00

     negative rho (up, down):  9.095E-01 0.000E+00

     negative rho (up, down):  9.095E-01 0.000E+00

     negative rho (up, down):  9.095E-01 0.000E+00

     negative rho (up, down):  9.095E-01 0.000E+00

     negative rho (up, down):  9.095E-01 0.000E+00
 
     Adding external electric field

     Computed dipole along edir(3) : 
        Dipole               -0.0643 Ry au,         -0.1635 Debye
        Dipole field         -0.0002 Ry au
 
        Potential amp.        0.0173 Ry
        Total length         45.0078 bohr
 

     total cpu time spent up to now is      806.8 secs

     End of self-consistent calculation

          k = 0.0000 0.0000 0.0000 ( 15761 PWs)   bands (ev):

   -71.0774 -70.9864 -70.9855 -70.9004 -70.6388 -70.5803 -70.5538 -70.5522
   -70.4912 -70.4866 -70.4852 -70.4769 -41.3538 -41.3349 -41.3343 -41.1784
   -41.0833 -41.0825 -41.0515 -40.8836 -40.8539 -40.8533 -40.8054 -40.7719
   -40.7715 -40.7161 -40.7155 -40.6906 -40.6029 -40.6027 -40.5500 -40.4718
   -40.4705 -40.4283 -40.3851 -40.3840 -40.3714 -40.3604 -40.3527 -40.3517
   -40.3503 -40.3026 -40.3019 -40.2986 -40.1822 -40.1819 -40.1382 -40.1381
    -4.5447  -3.3079  -3.2865  -3.2864  -3.2524  -3.1133  -2.9255  -2.9151
    -2.9147  -2.7530  -2.6565  -2.6561  -2.3319  -2.2951  -2.2948  -1.4611
    -1.1478  -1.1473  -0.6431  -0.5504  -0.5503  -0.4012  -0.2670  -0.1730
    -0.1730   0.2329   0.2329   0.2630   0.2786   0.2787   0.4975   0.4975
     0.5456   0.9839   0.9848   1.0919   1.8821   1.8826   1.8914   2.0128
     2.0132   2.0241   2.0373   2.0373   2.6249   2.6250   2.7499   3.1690
     3.1697   3.2078   3.2604   3.2720   3.2721   3.4367   3.4367   3.7653
     3.7903   3.7905

          k = 0.0000 0.0355 0.0000 ( 15763 PWs)   bands (ev):

   -71.0710 -70.9907 -70.9861 -70.9020 -70.6328 -70.5738 -70.5574 -70.5532
   -70.4928 -70.4914 -70.4853 -70.4785 -41.3248 -41.3077 -41.2934 -41.1662
   -41.0740 -41.0717 -41.0338 -40.8590 -40.8421 -40.8159 -40.8154 -40.7977
   -40.7673 -40.7042 -40.7016 -40.6843 -40.6664 -40.6145 -40.5264 -40.4681
   -40.4668 -40.4243 -40.3918 -40.3914 -40.3773 -40.3702 -40.3681 -40.3631
   -40.3419 -40.3274 -40.3254 -40.2902 -40.2265 -40.1927 -40.1841 -40.1492
    -4.3015  -3.1811  -3.1005  -3.0837  -3.0374  -2.8905  -2.8045  -2.7686
    -2.7626  -2.6155  -2.5435  -2.5100  -2.1965  -2.0867  -2.0613  -1.4252
    -1.1237  -1.0774  -0.6483  -0.4619  -0.4504  -0.4476  -0.3170  -0.2576
     0.0126   0.0351   0.0856   0.1234   0.3340   0.3717   0.3807   0.4783
     0.6907   0.8085   0.8640   0.9149   1.5545   1.6006   1.7193   1.8688
     1.8933   1.9117   1.9400   1.9580   2.0758   2.6329   2.7272   2.8238
     2.8799   2.9702   3.0353   3.0725   3.1866   3.1997   3.2224   3.4479
     3.4806   3.5010

          k = 0.0000 0.0710 0.0000 ( 15793 PWs)   bands (ev):

   -71.0543 -71.0046 -70.9861 -70.9052 -70.6169 -70.5705 -70.5563 -70.5533
   -70.5081 -70.4957 -70.4854 -70.4796 -41.2624 -41.2403 -41.1712 -41.1345
   -41.0677 -41.0496 -41.0007 -40.9071 -40.8819 -40.8108 -40.7847 -40.7613
   -40.7401 -40.7012 -40.6673 -40.6617 -40.6453 -40.6277 -40.5002 -40.4748
   -40.4728 -40.4364 -40.4347 -40.4212 -40.3925 -40.3921 -40.3890 -40.3772
   -40.3760 -40.3662 -40.3393 -40.3156 -40.2993 -40.2610 -40.2202 -40.1791
    -3.6626  -2.9275  -2.6512  -2.6105  -2.5970  -2.5060  -2.3535  -2.3191
    -2.3157  -2.2897  -2.1591  -2.1412  -1.8871  -1.5130  -1.4809  -1.3902
    -1.0828  -1.0115  -0.8787  -0.7289  -0.4796  -0.3522  -0.3289  -0.2873
    -0.1813  -0.1219  -0.0875   0.2034   0.3611   0.3850   0.3886   0.4718
     0.4948   0.5102   0.6883   1.0065   1.1051   1.1310   1.2464   1.2647
     1.4539   1.4746   1.5710   1.5729   1.7498   1.8378   1.8605   1.9983
     2.3656   2.3728   2.4093   2.5906   2.6053   2.6528   2.6930   3.0121
     3.0424   3.1344

          k = 0.0000-0.1065 0.0000 ( 15808 PWs)   bands (ev):

   -71.0388 -71.0187 -70.9862 -70.9066 -70.6019 -70.5842 -70.5533 -70.5341
   -70.5302 -70.4970 -70.4854 -70.4798 -41.2222 -41.1919 -41.1047 -41.0828
   -41.0387 -41.0140 -40.9881 -40.9856 -40.9587 -40.9028 -40.7563 -40.7189
   -40.7123 -40.6743 -40.6393 -40.6347 -40.5586 -40.5449 -40.5050 -40.5016
   -40.4969 -40.4668 -40.4585 -40.4570 -40.4510 -40.4395 -40.4181 -40.4031
   -40.3822 -40.3738 -40.3631 -40.3602 -40.2931 -40.2436 -40.2250 -40.2152
    -3.0158  -2.9861  -2.4095  -2.3375  -2.3293  -2.3096  -2.1182  -2.0226
    -1.9467  -1.8950  -1.7845  -1.7612  -1.5759  -1.4352  -1.3358  -1.3326
    -1.2039  -0.9226  -0.8726  -0.7937  -0.7441  -0.6491  -0.4929  -0.2775
    -0.2138   0.1210   0.1326   0.1746   0.2357   0.3335   0.3510   0.5289
     0.5388   0.5555   0.5957   0.6227   0.6614   0.6721   0.6889   0.6993
     1.2208   1.3097   1.3327   1.4290   1.5095   1.5360   1.8224   1.8518
     2.0290   2.0625   2.0843   2.1860   2.1964   2.4545   2.5108   2.6190
     2.6345   2.6372

          k = 0.0307-0.0177 0.0000 ( 15763 PWs)   bands (ev):

   -71.0710 -70.9912 -70.9855 -70.9021 -70.6328 -70.5739 -70.5571 -70.5535
   -70.4928 -70.4906 -70.4866 -70.4780 -41.3246 -41.3080 -41.2932 -41.1662
   -41.0745 -41.0713 -41.0338 -40.8592 -40.8419 -40.8158 -40.8154 -40.7980
   -40.7671 -40.7037 -40.7020 -40.6843 -40.6663 -40.6146 -40.5264 -40.4680
   -40.4669 -40.4242 -40.3922 -40.3907 -40.3778 -40.3705 -40.3677 -40.3629
   -40.3420 -40.3267 -40.3260 -40.2903 -40.2265 -40.1926 -40.1842 -40.1491
    -4.3015  -3.1811  -3.1005  -3.0837  -3.0374  -2.8905  -2.8045  -2.7683
    -2.7628  -2.6154  -2.5438  -2.5097  -2.1965  -2.0869  -2.0612  -1.4252
    -1.1235  -1.0776  -0.6483  -0.4620  -0.4503  -0.4477  -0.3170  -0.2576
     0.0126   0.0350   0.0856   0.1236   0.3340   0.3717   0.3807   0.4784
     0.6907   0.8087   0.8637   0.9150   1.5544   1.6005   1.7195   1.8689
     1.8932   1.9117   1.9401   1.9579   2.0759   2.6329   2.7272   2.8239
     2.8799   2.9703   3.0352   3.0725   3.1865   3.1994   3.2227   3.4479
     3.4806   3.5009

          k = 0.0307 0.0177 0.0000 ( 15763 PWs)   bands (ev):

   -71.0711 -70.9905 -70.9862 -70.9020 -70.6328 -70.5738 -70.5583 -70.5523
   -70.4929 -70.4913 -70.4856 -70.4784 -41.3249 -41.3076 -41.2934 -41.1663
   -41.0738 -41.0719 -41.0338 -40.8589 -40.8423 -40.8159 -40.8155 -40.7975
   -40.7674 -40.7042 -40.7015 -40.6843 -40.6664 -40.6145 -40.5264 -40.4684
   -40.4665 -40.4243 -40.3920 -40.3914 -40.3775 -40.3699 -40.3683 -40.3632
   -40.3416 -40.3273 -40.3255 -40.2902 -40.2263 -40.1929 -40.1841 -40.1492
    -4.3015  -3.1811  -3.1005  -3.0837  -3.0375  -2.8905  -2.8045  -2.7687
    -2.7625  -2.6155  -2.5433  -2.5101  -2.1965  -2.0866  -2.0614  -1.4252
    -1.1239  -1.0773  -0.6483  -0.4620  -0.4504  -0.4476  -0.3170  -0.2576
     0.0126   0.0350   0.0856   0.1235   0.3340   0.3717   0.3807   0.4783
     0.6907   0.8083   0.8642   0.9148   1.5545   1.6006   1.7193   1.8688
     1.8933   1.9118   1.9400   1.9580   2.0757   2.6329   2.7272   2.8238
     2.8799   2.9701   3.0353   3.0724   3.1866   3.1998   3.2223   3.4479
     3.4805   3.5010

          k = 0.0307 0.0532 0.0000 ( 15768 PWs)   bands (ev):

   -71.0594 -70.9987 -70.9876 -70.9043 -70.6217 -70.5658 -70.5619 -70.5539
   -70.4989 -70.4949 -70.4924 -70.4762 -41.2844 -41.2336 -41.2311 -41.1442
   -41.0657 -41.0561 -41.0081 -40.9139 -40.8151 -40.7999 -40.7854 -40.7657
   -40.7535 -40.7475 -40.6826 -40.6627 -40.6578 -40.6396 -40.5061 -40.4789
   -40.4634 -40.4435 -40.4225 -40.4049 -40.3900 -40.3833 -40.3829 -40.3695
   -40.3530 -40.3511 -40.3050 -40.3026 -40.2994 -40.2633 -40.2150 -40.1723
    -3.8526  -2.8813  -2.8681  -2.7393  -2.6704  -2.5687  -2.5596  -2.4831
    -2.4066  -2.3702  -2.3678  -2.1944  -1.8818  -1.8339  -1.5897  -1.4040
    -1.0835  -0.9863  -0.8794  -0.5427  -0.4563  -0.3562  -0.3213  -0.2712
    -0.2564  -0.1408   0.1188   0.1768   0.2364   0.2943   0.3897   0.5462
     0.5529   0.5772   0.6484   1.1018   1.1457   1.2471   1.3365   1.4381
     1.6567   1.7275   1.7410   1.7571   1.8986   1.9043   1.9141   2.0627
     2.4480   2.4750   2.6358   2.7164   2.8309   2.8843   3.0065   3.1016
     3.1109   3.2517

          k = 0.0307-0.1242 0.0000 ( 15803 PWs)   bands (ev):

   -71.0410 -71.0137 -70.9892 -70.9063 -70.6041 -70.5793 -70.5565 -70.5411
   -70.5170 -70.4980 -70.4965 -70.4734 -41.2178 -41.1640 -41.1098 -41.0938
   -41.0712 -41.0428 -41.0139 -40.9818 -40.9187 -40.8334 -40.7531 -40.7439
   -40.6928 -40.6856 -40.6548 -40.6255 -40.6111 -40.5672 -40.5509 -40.4995
   -40.4842 -40.4754 -40.4530 -40.4494 -40.4223 -40.4159 -40.3986 -40.3828
   -40.3731 -40.3688 -40.3510 -40.3345 -40.3145 -40.2622 -40.2517 -40.2136
    -3.1359  -2.6872  -2.3676  -2.3273  -2.3168  -2.2175  -2.1644  -2.0514
    -1.9981  -1.9459  -1.8656  -1.7301  -1.5911  -1.5005  -1.3501  -1.2862
    -1.1802  -0.9578  -0.9250  -0.8128  -0.6913  -0.5959  -0.5198  -0.3931
    -0.2616  -0.0618   0.0409   0.0616   0.1411   0.2023   0.2065   0.2441
     0.3873   0.4971   0.6276   0.6733   0.7956   0.8693   0.9142   0.9479
     0.9705   1.2600   1.4556   1.4864   1.5948   1.6689   1.7703   1.8468
     1.9574   2.0698   2.2564   2.4033   2.4489   2.6590   2.7683   2.8490
     3.0396   3.0632

          k = 0.0307-0.0887 0.0000 ( 15803 PWs)   bands (ev):

   -71.0409 -71.0141 -70.9890 -70.9063 -70.6043 -70.5787 -70.5570 -70.5412
   -70.5169 -70.4982 -70.4964 -70.4733 -41.2178 -41.1640 -41.1097 -41.0938
   -41.0716 -41.0425 -41.0142 -40.9819 -40.9183 -40.8335 -40.7531 -40.7439
   -40.6927 -40.6857 -40.6550 -40.6252 -40.6111 -40.5673 -40.5499 -40.4991
   -40.4847 -40.4764 -40.4532 -40.4492 -40.4225 -40.4156 -40.3986 -40.3829
   -40.3728 -40.3689 -40.3512 -40.3344 -40.3144 -40.2622 -40.2516 -40.2135
    -3.1359  -2.6872  -2.3676  -2.3273  -2.3168  -2.2175  -2.1644  -2.0513
    -1.9981  -1.9461  -1.8656  -1.7301  -1.5911  -1.5004  -1.3501  -1.2863
    -1.1801  -0.9578  -0.9249  -0.8128  -0.6913  -0.5959  -0.5197  -0.3932
    -0.2616  -0.0619   0.0409   0.0615   0.1410   0.2023   0.2064   0.2441
     0.3875   0.4970   0.6275   0.6733   0.7955   0.8692   0.9142   0.9480
     0.9705   1.2601   1.4555   1.4864   1.5950   1.6688   1.7701   1.8469
     1.9574   2.0699   2.2565   2.4032   2.4487   2.6591   2.7683   2.8490
     3.0395   3.0633

          k = 0.0307-0.0532 0.0000 ( 15768 PWs)   bands (ev):

   -71.0594 -70.9995 -70.9868 -70.9044 -70.6219 -70.5644 -70.5619 -70.5552
   -70.4980 -70.4948 -70.4935 -70.4760 -41.2843 -41.2341 -41.2308 -41.1442
   -41.0663 -41.0554 -41.0082 -40.9140 -40.8154 -40.8000 -40.7852 -40.7651
   -40.7534 -40.7477 -40.6825 -40.6629 -40.6578 -40.6397 -40.5062 -40.4781
   -40.4644 -40.4430 -40.4224 -40.4047 -40.3898 -40.3842 -40.3825 -40.3694
   -40.3535 -40.3513 -40.3054 -40.3026 -40.2992 -40.2633 -40.2147 -40.1722
    -3.8526  -2.8813  -2.8681  -2.7393  -2.6704  -2.5686  -2.5596  -2.4831
    -2.4066  -2.3702  -2.3678  -2.1944  -1.8817  -1.8340  -1.5897  -1.4041
    -1.0832  -0.9865  -0.8794  -0.5427  -0.4562  -0.3564  -0.3214  -0.2712
    -0.2564  -0.1408   0.1189   0.1769   0.2365   0.2943   0.3898   0.5463
     0.5528   0.5772   0.6483   1.1018   1.1453   1.2475   1.3361   1.4381
     1.6567   1.7275   1.7413   1.7570   1.8987   1.9043   1.9140   2.0626
     2.4483   2.4746   2.6358   2.7164   2.8312   2.8841   3.0064   3.1019
     3.1107   3.2517

          k = 0.0615-0.0355 0.0000 ( 15793 PWs)   bands (ev):

   -71.0542 -71.0052 -70.9855 -70.9052 -70.6170 -70.5702 -70.5563 -70.5536
   -70.5077 -70.4956 -70.4866 -70.4787 -41.2619 -41.2408 -41.1711 -41.1344
   -41.0682 -41.0491 -41.0008 -40.9068 -40.8823 -40.8108 -40.7850 -40.7609
   -40.7399 -40.7012 -40.6668 -40.6623 -40.6455 -40.6276 -40.5002 -40.4746
   -40.4731 -40.4361 -40.4350 -40.4210 -40.3930 -40.3917 -40.3888 -40.3772
   -40.3768 -40.3656 -40.3394 -40.3157 -40.2994 -40.2612 -40.2201 -40.1790
    -3.6626  -2.9275  -2.6512  -2.6105  -2.5970  -2.5058  -2.3534  -2.3194
    -2.3157  -2.2898  -2.1593  -2.1408  -1.8870  -1.5132  -1.4806  -1.3904
    -1.0825  -1.0117  -0.8787  -0.7289  -0.4797  -0.3523  -0.3289  -0.2874
    -0.1811  -0.1219  -0.0875   0.2034   0.3612   0.3851   0.3886   0.4717
     0.4948   0.5102   0.6883   1.0065   1.1051   1.1310   1.2464   1.2647
     1.4540   1.4744   1.5708   1.5731   1.7498   1.8377   1.8606   1.9983
     2.3655   2.3728   2.4093   2.5905   2.6053   2.6530   2.6931   3.0121
     3.0426   3.1344

          k = 0.0615 0.0000 0.0000 ( 15768 PWs)   bands (ev):

   -71.0594 -70.9993 -70.9870 -70.9044 -70.6218 -70.5655 -70.5619 -70.5541
   -70.4977 -70.4948 -70.4938 -70.4760 -41.2843 -41.2340 -41.2308 -41.1442
   -41.0662 -41.0556 -41.0081 -40.9139 -40.8153 -40.8000 -40.7853 -40.7654
   -40.7534 -40.7476 -40.6825 -40.6629 -40.6577 -40.6397 -40.5061 -40.4788
   -40.4636 -40.4435 -40.4223 -40.4047 -40.3896 -40.3845 -40.3823 -40.3694
   -40.3531 -40.3512 -40.3054 -40.3026 -40.2992 -40.2633 -40.2149 -40.1722
    -3.8526  -2.8813  -2.8680  -2.7393  -2.6704  -2.5687  -2.5596  -2.4831
    -2.4066  -2.3702  -2.3678  -2.1944  -1.8818  -1.8339  -1.5897  -1.4041
    -1.0833  -0.9864  -0.8794  -0.5427  -0.4562  -0.3563  -0.3214  -0.2712
    -0.2564  -0.1407   0.1189   0.1768   0.2365   0.2943   0.3898   0.5462
     0.5529   0.5772   0.6484   1.1018   1.1455   1.2474   1.3363   1.4381
     1.6567   1.7274   1.7413   1.7571   1.8986   1.9042   1.9142   2.0627
     2.4481   2.4748   2.6359   2.7164   2.8312   2.8841   3.0064   3.1018
     3.1107   3.2517

          k = 0.0615 0.0355 0.0000 ( 15793 PWs)   bands (ev):

   -71.0543 -71.0044 -70.9863 -70.9052 -70.6167 -70.5715 -70.5563 -70.5523
   -70.5080 -70.4958 -70.4856 -70.4794 -41.2625 -41.2402 -41.1712 -41.1345
   -41.0675 -41.0498 -41.0006 -40.9072 -40.8817 -40.8108 -40.7845 -40.7618
   -40.7402 -40.7012 -40.6674 -40.6617 -40.6453 -40.6277 -40.5001 -40.4755
   -40.4722 -40.4369 -40.4342 -40.4214 -40.3925 -40.3922 -40.3889 -40.3773
   -40.3760 -40.3662 -40.3391 -40.3150 -40.2993 -40.2611 -40.2207 -40.1791
    -3.6626  -2.9275  -2.6511  -2.6105  -2.5969  -2.5061  -2.3536  -2.3190
    -2.3157  -2.2898  -2.1589  -2.1413  -1.8871  -1.5129  -1.4810  -1.3902
    -1.0830  -1.0115  -0.8786  -0.7289  -0.4796  -0.3522  -0.3289  -0.2872
    -0.1812  -0.1219  -0.0876   0.2034   0.3610   0.3851   0.3886   0.4717
     0.4948   0.5102   0.6883   1.0064   1.1052   1.1311   1.2464   1.2647
     1.4538   1.4747   1.5712   1.5727   1.7498   1.8379   1.8604   1.9982
     2.3656   2.3726   2.4093   2.5906   2.6054   2.6529   2.6930   3.0121
     3.0423   3.1344

          k = 0.0615-0.1420 0.0000 ( 15803 PWs)   bands (ev):

   -71.0411 -71.0136 -70.9893 -70.9063 -70.6037 -70.5802 -70.5558 -70.5411
   -70.5170 -70.4981 -70.4966 -70.4733 -41.2179 -41.1640 -41.1098 -41.0938
   -41.0711 -41.0429 -41.0139 -40.9818 -40.9187 -40.8335 -40.7530 -40.7437
   -40.6930 -40.6856 -40.6551 -40.6255 -40.6111 -40.5672 -40.5505 -40.4994
   -40.4841 -40.4761 -40.4523 -40.4497 -40.4223 -40.4160 -40.3987 -40.3827
   -40.3731 -40.3687 -40.3510 -40.3345 -40.3139 -40.2622 -40.2521 -40.2136
    -3.1359  -2.6872  -2.3675  -2.3273  -2.3168  -2.2175  -2.1645  -2.0513
    -1.9981  -1.9460  -1.8656  -1.7301  -1.5911  -1.5005  -1.3501  -1.2862
    -1.1802  -0.9578  -0.9249  -0.8128  -0.6912  -0.5960  -0.5198  -0.3931
    -0.2616  -0.0618   0.0409   0.0616   0.1411   0.2023   0.2064   0.2441
     0.3874   0.4971   0.6276   0.6734   0.7956   0.8693   0.9142   0.9479
     0.9705   1.2600   1.4556   1.4864   1.5948   1.6689   1.7703   1.8468
     1.9574   2.0698   2.2564   2.4032   2.4489   2.6591   2.7684   2.8489
     3.0395   3.0633

          k = 0.0615-0.1065 0.0000 ( 15828 PWs)   bands (ev):

   -71.0260 -71.0251 -70.9927 -70.9067 -70.5904 -70.5886 -70.5609 -70.5232
   -70.5218 -70.5144 -70.4965 -70.4702 -41.1324 -41.1318 -41.0846 -41.0837
   -41.0689 -41.0446 -41.0339 -41.0336 -40.9701 -40.7774 -40.7578 -40.7515
   -40.6804 -40.6679 -40.6213 -40.5825 -40.5815 -40.5811 -40.5459 -40.5285
   -40.5269 -40.5252 -40.4643 -40.4580 -40.4570 -40.4222 -40.3845 -40.3775
   -40.3767 -40.3724 -40.3431 -40.3035 -40.3019 -40.2811 -40.2695 -40.2688
    -2.4958  -2.4756  -2.4746  -2.0863  -1.9655  -1.9572  -1.9483  -1.9343
    -1.7195  -1.7169  -1.6351  -1.6292  -1.6273  -1.6146  -1.6101  -1.4049
    -1.1119  -1.1080  -0.6642  -0.6611  -0.6446  -0.5442  -0.5392  -0.5296
    -0.3873  -0.3869  -0.2941  -0.2442  -0.2408  -0.0795   0.1302   0.2596
     0.3137   0.3366   0.4773   0.5662   0.5783   0.6593   0.6618   0.6675
     1.0039   1.2857   1.2966   1.5493   1.7227   1.7319   1.8111   1.8136
     2.0369   2.1601   2.1667   2.7319   2.8753   2.8797   2.9036   2.9181
     2.9709   3.1771

          k = 0.0615-0.0710 0.0000 ( 15803 PWs)   bands (ev):

   -71.0407 -71.0146 -70.9886 -70.9064 -70.6044 -70.5784 -70.5571 -70.5413
   -70.5164 -70.4986 -70.4964 -70.4732 -41.2176 -41.1643 -41.1096 -41.0938
   -41.0719 -41.0422 -41.0140 -40.9820 -40.9185 -40.8334 -40.7532 -40.7439
   -40.6924 -40.6859 -40.6550 -40.6252 -40.6111 -40.5670 -40.5502 -40.4992
   -40.4847 -40.4762 -40.4533 -40.4491 -40.4224 -40.4157 -40.3987 -40.3829
   -40.3730 -40.3687 -40.3512 -40.3345 -40.3146 -40.2624 -40.2514 -40.2134
    -3.1359  -2.6872  -2.3676  -2.3273  -2.3168  -2.2174  -2.1643  -2.0515
    -1.9982  -1.9458  -1.8656  -1.7301  -1.5911  -1.5004  -1.3501  -1.2862
    -1.1802  -0.9578  -0.9249  -0.8127  -0.6913  -0.5958  -0.5198  -0.3931
    -0.2617  -0.0618   0.0409   0.0615   0.1412   0.2023   0.2063   0.2441
     0.3875   0.4969   0.6275   0.6734   0.7955   0.8692   0.9141   0.9481
     0.9703   1.2602   1.4554   1.4864   1.5949   1.6689   1.7701   1.8469
     1.9575   2.0699   2.2565   2.4032   2.4487   2.6591   2.7681   2.8491
     3.0395   3.0632

          k =-0.0922 0.0532 0.0000 ( 15808 PWs)   bands (ev):

   -71.0382 -71.0198 -70.9856 -70.9067 -70.6021 -70.5838 -70.5536 -70.5353
   -70.5287 -70.4969 -70.4866 -70.4789 -41.2217 -41.1926 -41.1042 -41.0837
   -41.0382 -41.0134 -40.9890 -40.9858 -40.9582 -40.9028 -40.7568 -40.7183
   -40.7118 -40.6748 -40.6401 -40.6339 -40.5583 -40.5450 -40.5053 -40.5024
   -40.4957 -40.4671 -40.4585 -40.4575 -40.4508 -40.4389 -40.4189 -40.4024
   -40.3832 -40.3731 -40.3633 -40.3601 -40.2933 -40.2434 -40.2261 -40.2140
    -3.0157  -2.9862  -2.4098  -2.3371  -2.3291  -2.3099  -2.1186  -2.0221
    -1.9468  -1.8950  -1.7842  -1.7616  -1.5760  -1.4350  -1.3355  -1.3329
    -1.2042  -0.9226  -0.8727  -0.7937  -0.7442  -0.6486  -0.4931  -0.2774
    -0.2140   0.1212   0.1325   0.1746   0.2356   0.3338   0.3508   0.5288
     0.5388   0.5555   0.5958   0.6227   0.6619   0.6716   0.6891   0.6990
     1.2209   1.3100   1.3324   1.4291   1.5097   1.5356   1.8223   1.8519
     2.0292   2.0626   2.0841   2.1863   2.1962   2.4546   2.5104   2.6189
     2.6345   2.6374

          k =-0.0922 0.0887 0.0000 ( 15803 PWs)   bands (ev):

   -71.0407 -71.0146 -70.9887 -70.9064 -70.6042 -70.5789 -70.5568 -70.5413
   -70.5164 -70.4987 -70.4964 -70.4732 -41.2176 -41.1643 -41.1096 -41.0938
   -41.0719 -41.0422 -41.0140 -40.9819 -40.9186 -40.8334 -40.7531 -40.7439
   -40.6924 -40.6859 -40.6548 -40.6253 -40.6111 -40.5671 -40.5509 -40.4993
   -40.4844 -40.4756 -40.4532 -40.4492 -40.4225 -40.4157 -40.3988 -40.3830
   -40.3730 -40.3686 -40.3512 -40.3345 -40.3146 -40.2624 -40.2515 -40.2134
    -3.1359  -2.6872  -2.3676  -2.3273  -2.3168  -2.2174  -2.1643  -2.0515
    -1.9982  -1.9458  -1.8656  -1.7301  -1.5911  -1.5005  -1.3501  -1.2862
    -1.1801  -0.9578  -0.9249  -0.8128  -0.6913  -0.5958  -0.5199  -0.3931
    -0.2617  -0.0618   0.0409   0.0616   0.1412   0.2023   0.2065   0.2441
     0.3875   0.4969   0.6275   0.6733   0.7956   0.8693   0.9142   0.9481
     0.9703   1.2602   1.4555   1.4863   1.5948   1.6689   1.7701   1.8468
     1.9575   2.0699   2.2565   2.4032   2.4488   2.6590   2.7682   2.8491
     3.0396   3.0632

          k =-0.0922 0.1242 0.0000 ( 15803 PWs)   bands (ev):

   -71.0410 -71.0139 -70.9891 -70.9063 -70.6038 -70.5801 -70.5559 -70.5412
   -70.5168 -70.4983 -70.4965 -70.4733 -41.2179 -41.1639 -41.1098 -41.0938
   -41.0714 -41.0427 -41.0142 -40.9818 -40.9183 -40.8335 -40.7530 -40.7438
   -40.6930 -40.6856 -40.6552 -40.6254 -40.6111 -40.5673 -40.5502 -40.4991
   -40.4842 -40.4764 -40.4524 -40.4497 -40.4226 -40.4157 -40.3989 -40.3829
   -40.3727 -40.3688 -40.3511 -40.3344 -40.3139 -40.2622 -40.2521 -40.2135
    -3.1359  -2.6872  -2.3675  -2.3273  -2.3167  -2.2175  -2.1645  -2.0513
    -1.9981  -1.9462  -1.8656  -1.7301  -1.5912  -1.5005  -1.3501  -1.2863
    -1.1801  -0.9578  -0.9249  -0.8128  -0.6912  -0.5960  -0.5197  -0.3932
    -0.2616  -0.0619   0.0409   0.0616   0.1410   0.2023   0.2064   0.2442
     0.3876   0.4969   0.6276   0.6733   0.7956   0.8692   0.9142   0.9479
     0.9705   1.2600   1.4555   1.4865   1.5949   1.6688   1.7702   1.8469
     1.9574   2.0699   2.2566   2.4032   2.4488   2.6592   2.7683   2.8489
     3.0395   3.0633

          k =-0.0922-0.0532 0.0000 ( 15808 PWs)   bands (ev):

   -71.0389 -71.0184 -70.9863 -70.9066 -70.6008 -70.5862 -70.5523 -70.5344
   -70.5299 -70.4972 -70.4857 -70.4796 -41.2224 -41.1917 -41.1049 -41.0825
   -41.0389 -41.0141 -40.9879 -40.9854 -40.9588 -40.9028 -40.7557 -40.7195
   -40.7125 -40.6741 -40.6394 -40.6348 -40.5599 -40.5443 -40.5041 -40.5013
   -40.4972 -40.4669 -40.4584 -40.4566 -40.4515 -40.4394 -40.4179 -40.4034
   -40.3824 -40.3737 -40.3630 -40.3603 -40.2920 -40.2445 -40.2252 -40.2150
    -3.0157  -2.9861  -2.4093  -2.3377  -2.3294  -2.3096  -2.1180  -2.0227
    -1.9467  -1.8951  -1.7846  -1.7612  -1.5758  -1.4355  -1.3359  -1.3325
    -1.2038  -0.9225  -0.8725  -0.7937  -0.7442  -0.6493  -0.4929  -0.2775
    -0.2138   0.1209   0.1327   0.1746   0.2358   0.3336   0.3510   0.5290
     0.5387   0.5554   0.5957   0.6227   0.6612   0.6723   0.6889   0.6994
     1.2207   1.3097   1.3327   1.4291   1.5094   1.5362   1.8226   1.8517
     2.0289   2.0631   2.0838   2.1860   2.1964   2.4545   2.5109   2.6192
     2.6343   2.6371

     the Fermi energy is     2.2247 ev

!    total energy              =   -2342.38021652 Ry
     Harris-Foulkes estimate   =   -2342.38022460 Ry
     estimated scf accuracy    <       0.00000532 Ry

     The total energy is the sum of the following terms:

     one-electron contribution =  -21880.87653886 Ry
     hartree contribution      =   10939.35428041 Ry
     xc contribution           =    -322.36359645 Ry
     ewald contribution        =    8921.59175830 Ry
     electric field correction =       0.00001239 Ry
     smearing contrib. (-TS)   =      -0.08613231 Ry

     convergence has been achieved in  19 iterations
 
 BEEF-vdW xc energy contributions
           1 :   -279.584015955466     
           2 :    256.649446742568     
           3 :   -216.931216318244     
           4 :    170.270443046719     
           5 :   -126.699292762643     
           6 :    93.3691839727921     
           7 :   -72.8937798956431     
           8 :    63.4968353967868     
           9 :   -60.6388109151487     
          10 :    59.2896078697767     
          11 :   -55.8875705755720     
          12 :    49.3000897814194     
          13 :   -40.6144033928350     
          14 :    32.0802067732653     
          15 :   -25.7992300181047     
          16 :    22.7429051697235     
          17 :   -22.4460476926143     
          18 :    23.3968551316343     
          19 :   -23.8515950325998     
          20 :    22.6552430073202     
          21 :   -19.6936383674957     
          22 :    15.8091124363466     
          23 :   -12.2770166690131     
          24 :    10.1349391543508     
          25 :   -9.69635228600140     
          26 :    10.4624747737247     
          27 :   -11.4372288232096     
          28 :    11.6560029966594     
          29 :   -10.6513187269361     
          30 :    8.63324777442142     
          31 :   -29.0143450809072     
          32 :   -21.9953751600596     

     Forces acting on atoms (Ry/au):


     negative rho (up, down):  9.095E-01 0.000E+00
     atom    1 type  1   force =    -0.00004031    0.00001653    0.03490323
     atom    2 type  1   force =     0.00004269    0.00396814    0.03167356
     atom    3 type  1   force =     0.00341971   -0.00197133    0.03166207
     atom    4 type  1   force =    -0.00342477   -0.00201041    0.03166164
     atom    5 type  1   force =    -0.00115528    0.00057270    0.00236775
     atom    6 type  1   force =     0.00116036    0.00060473    0.00240599
     atom    7 type  1   force =    -0.00001102    0.00007507    0.00726332
     atom    8 type  1   force =    -0.00000557   -0.00126467    0.00248367
     atom    9 type  1   force =     0.00557292    0.00326227   -0.01092476
     atom   10 type  1   force =    -0.00554993    0.00319266   -0.01092795
     atom   11 type  1   force =    -0.00004670   -0.00643143   -0.01100464
     atom   12 type  1   force =     0.00003473   -0.00001179   -0.03933165
     atom   13 type  2   force =     0.00000319   -0.00000248   -0.07223222

     Total force =     0.107690     Total SCF correction =     0.010102


     entering subroutine stress ...


     negative rho (up, down):  9.095E-01 0.000E+00
          total   stress  (Ry/bohr**3)                   (kbar)     P=  -39.09
  -0.00022985  -0.00000005  -0.00000003        -33.81     -0.01     -0.00
  -0.00000005  -0.00022989  -0.00000001         -0.01    -33.82     -0.00
  -0.00000003  -0.00000001  -0.00033739         -0.00     -0.00    -49.63

 !ASE

     Writing output data file calc.save
 
     init_run     :     11.72s CPU     17.28s WALL (       1 calls)
     electrons    :    565.98s CPU    789.30s WALL (       1 calls)
     forces       :      3.13s CPU      3.68s WALL (       1 calls)
     stress       :      7.67s CPU      8.80s WALL (       1 calls)

     Called by init_run:
     wfcinit      :      9.72s CPU     14.55s WALL (       1 calls)
     potinit      :      1.06s CPU      1.63s WALL (       1 calls)

     Called by electrons:
     c_bands      :    443.77s CPU    611.26s WALL (      19 calls)
     sum_band     :     61.53s CPU     92.67s WALL (      19 calls)
     v_of_rho     :     19.37s CPU     29.06s WALL (      20 calls)
     newd         :      7.74s CPU      8.33s WALL (      20 calls)
     mix_rho      :      0.78s CPU      1.19s WALL (      19 calls)
     vdW_energy   :      2.24s CPU      2.25s WALL (      56 calls)
     vdW_ffts     :     33.75s CPU     51.14s WALL (     114 calls)
     vdW_v        :      6.48s CPU      9.04s WALL (      56 calls)

     Called by c_bands:
     init_us_2    :      0.87s CPU      0.91s WALL (     820 calls)
     cegterg      :    436.80s CPU    603.43s WALL (     380 calls)

     Called by *egterg:
     h_psi        :    266.20s CPU    419.68s WALL (    2027 calls)
     s_psi        :     10.40s CPU     10.49s WALL (    2027 calls)
     g_psi        :      0.61s CPU      0.62s WALL (    1627 calls)
     cdiaghg      :    110.97s CPU    114.89s WALL (    2007 calls)

     Called by h_psi:
     add_vuspsi   :     10.79s CPU     10.81s WALL (    2027 calls)

     General routines
     calbec       :     22.12s CPU     26.63s WALL (    2447 calls)
     fft          :     51.17s CPU     77.63s WALL (    3423 calls)
     ffts         :      0.15s CPU      0.24s WALL (      39 calls)
     fftw         :    275.59s CPU    454.15s WALL (  247608 calls)
     interpolate  :      0.69s CPU      1.08s WALL (      39 calls)
     davcio       :      0.00s CPU      0.03s WALL (      20 calls)
 
     Parallel routines
     fft_scatter  :    296.30s CPU    499.34s WALL (  251070 calls)
 
     PWSCF        :  9m49.34s CPU    13m40.34s WALL

 
   This run was terminated on:  15:25: 0  16Jan2018            

=------------------------------------------------------------------------------=
   JOB DONE.
=------------------------------------------------------------------------------=
Job  /afs/slac/g/suncat/bin/suncat-tsmpirun -x LD_LIBRARY_PATH -wdir /scratch/qe842477_xLRhk pw.x -in pw.inp

TID   HOST_NAME   COMMAND_LINE            STATUS            TERMINATION_TIME
===== ========== ================  =======================  ===================
00000 suncat0153 pw.x -in pw.inp   Done                     01/16/2018 15:25:00
00001 suncat0153 pw.x -in pw.inp   Done                     01/16/2018 15:25:00
00002 suncat0153 pw.x -in pw.inp   Done                     01/16/2018 15:25:00
00003 suncat0153 pw.x -in pw.inp   Done                     01/16/2018 15:25:00
00004 suncat0153 pw.x -in pw.inp   Done                     01/16/2018 15:25:00
00005 suncat0153 pw.x -in pw.inp   Done                     01/16/2018 15:25:00
00006 suncat0153 pw.x -in pw.inp   Done                     01/16/2018 15:25:00
00007 suncat0153 pw.x -in pw.inp   Done                     01/16/2018 15:25:00
00008 suncat0146 pw.x -in pw.inp   Done                     01/16/2018 15:25:00
00009 suncat0146 pw.x -in pw.inp   Done                     01/16/2018 15:25:00
00010 suncat0146 pw.x -in pw.inp   Done                     01/16/2018 15:25:00
00011 suncat0146 pw.x -in pw.inp   Done                     01/16/2018 15:25:00
00012 suncat0146 pw.x -in pw.inp   Done                     01/16/2018 15:25:00
00013 suncat0146 pw.x -in pw.inp   Done                     01/16/2018 15:25:00
00014 suncat0146 pw.x -in pw.inp   Done                     01/16/2018 15:25:00
00015 suncat0146 pw.x -in pw.inp   Done                     01/16/2018 15:25:00
00016 suncat0115 pw.x -in pw.inp   Done                     01/16/2018 15:25:00
00017 suncat0115 pw.x -in pw.inp   Done                     01/16/2018 15:25:00
00018 suncat0115 pw.x -in pw.inp   Done                     01/16/2018 15:25:00
00019 suncat0115 pw.x -in pw.inp   Done                     01/16/2018 15:25:00
00020 suncat0115 pw.x -in pw.inp   Done                     01/16/2018 15:25:00
00021 suncat0115 pw.x -in pw.inp   Done                     01/16/2018 15:25:00
00022 suncat0115 pw.x -in pw.inp   Done                     01/16/2018 15:25:00
00023 suncat0115 pw.x -in pw.inp   Done                     01/16/2018 15:25:00
00024 suncat0114 pw.x -in pw.inp   Done                     01/16/2018 15:25:00
00025 suncat0114 pw.x -in pw.inp   Done                     01/16/2018 15:25:00
00026 suncat0114 pw.x -in pw.inp   Done                     01/16/2018 15:25:00
00027 suncat0114 pw.x -in pw.inp   Done                     01/16/2018 15:25:00
00028 suncat0114 pw.x -in pw.inp   Done                     01/16/2018 15:25:00
00029 suncat0114 pw.x -in pw.inp   Done                     01/16/2018 15:25:00
00030 suncat0114 pw.x -in pw.inp   Done                     01/16/2018 15:25:00
00031 suncat0114 pw.x -in pw.inp   Done                     01/16/2018 15:25:00

     Program PWSCF v.5.1rc2 (svn rev. 11289) starts on 16Jan2018 at 15:25: 6 

     This program is part of the open-source Quantum ESPRESSO suite
     for quantum simulation of materials; please cite
         "P. Giannozzi et al., J. Phys.:Condens. Matter 21 395502 (2009);
          URL http://www.quantum-espresso.org", 
     in publications or presentations arising from this work. More details at
     http://www.quantum-espresso.org/quote

     Parallel version (MPI), running on    32 processors
     R & G space division:  proc/nbgrp/npool/nimage =      32
     Reading input from pw.inp
     Message from routine read_cards :
     DEPRECATED: no units specified in CELL_PARAMETERS card

     Current dimensions of program PWSCF are:
     Max number of different atomic species (ntypx) = 10
     Max number of k-points (npk) =  40000
     Max angular momentum in pseudopotentials (lmaxx) =  3
     Presently stress not available with electric field


     **************************************************************************
     Initializing libbeef V0.1.1 with the BEEF-vdW functional.
     Citation: Wellendorff et al., PRB 85, 235149 (2012).
     **************************************************************************


     IMPORTANT: XC functional enforced from input :
     Exchange-correlation      = BEEF-VDW ( 1  4 27 13 2)
     Any further DFT definition will be discarded
     Please, verify this is what you really want


     Subspace diagonalization in iterative solution of the eigenvalue problem:
     a serial algorithm will be used

 
     Parallelization info
     --------------------
     sticks:   dense  smooth     PW     G-vecs:    dense   smooth      PW
     Min          83      33      9                15610     3925     617
     Max          85      34     10                15618     3977     642
     Sum        2677    1069    313               499637   126395   20221
 


     bravais-lattice index     =            0
     lattice parameter (alat)  =       1.8897  a.u.
     unit-cell volume          =    4198.3539 (a.u.)^3
     number of atoms/cell      =           13
     number of atomic types    =            2
     number of electrons       =       193.00
     number of Kohn-Sham states=          106
     kinetic-energy cutoff     =      36.7493  Ry
     charge density cutoff     =     367.4932  Ry
     convergence threshold     =      1.0E-05
     mixing beta               =       0.3000
     number of iterations used =           10  plain     mixing
     Exchange-correlation      = BEEF-VDW ( 1  4 27 13 2)
     nstep                     =           50


     celldm(1)=   1.889726  celldm(2)=   0.000000  celldm(3)=   0.000000
     celldm(4)=   0.000000  celldm(5)=   0.000000  celldm(6)=   0.000000

     crystal axes: (cart. coord. in units of alat)
               a(1) = (   5.422927   0.000000   0.000000 )  
               a(2) = (   2.711463   4.696392   0.000000 )  
               a(3) = (   0.000000   0.000000  24.427801 )  

     reciprocal axes: (cart. coord. in units 2 pi/alat)
               b(1) = (  0.184402 -0.106465  0.000000 )  
               b(2) = (  0.000000  0.212929  0.000000 )  
               b(3) = (  0.000000  0.000000  0.040937 )  


     PseudoPot. # 1 for Ru read from file:
     /afs/slac.stanford.edu/u/if/mamunm/psp/gbrv1.5pbe/Ru.UPF
     MD5 check sum: 7158a806dd851261a58e6920c40ebe78
     Pseudo is Ultrasoft + core correction, Zval = 16.0
     Generated by new atomic code, or converted to UPF format
     Using radial grid of  967 points,  6 beta functions with: 
                l(1) =   0
                l(2) =   0
                l(3) =   1
                l(4) =   1
                l(5) =   2
                l(6) =   2
     Q(r) pseudized with  8 coefficients,  rinner =    1.300   1.300   1.300
                                                       1.300   1.300

     PseudoPot. # 2 for H  read from file:
     /afs/slac.stanford.edu/u/if/mamunm/psp/gbrv1.5pbe/H.UPF
     MD5 check sum: 761ae9a214b05c3daf00ab9f6b793d6f
     Pseudo is Ultrasoft, Zval =  1.0
     Generated by new atomic code, or converted to UPF format
     Using radial grid of  615 points,  2 beta functions with: 
                l(1) =   0
                l(2) =   0
     Q(r) pseudized with  8 coefficients,  rinner =    0.700

     vdW kernel table read from file vdW_kernel_table
     MD5 check sum: 095c7af220d748ca6e76c0b4c6cfb241

     atomic species   valence    mass     pseudopotential
        Ru1           16.00   101.07000     Ru( 1.00)
        H1             1.00     1.00800     H ( 1.00)

     No symmetry found



   Cartesian axes

     site n.     atom                  positions (alat units)
         1           Ru1 tau(   1) = (   1.3557316   0.7827320  10.0000000  )
         2           Ru1 tau(   2) = (   4.0671949   0.7827320  10.0000000  )
         3           Ru1 tau(   3) = (   2.7114633   3.1309281  10.0000000  )
         4           Ru1 tau(   4) = (   5.4229265   3.1309281  10.0000000  )
         5           Ru1 tau(   5) = (   5.4229265   1.5654640  12.2139005  )
         6           Ru1 tau(   6) = (   2.7114633   1.5654640  12.2139005  )
         7           Ru1 tau(   7) = (   6.7786581   3.9136601  12.2139005  )
         8           Ru1 tau(   8) = (   4.0671949   3.9136601  12.2139005  )
         9           Ru1 tau(   9) = (   0.0143286   0.0083876  14.3997123  )
        10           Ru1 tau(  10) = (   2.6971938   0.0082087  14.3997041  )
        11           Ru1 tau(  11) = (   1.3556116   2.3316602  14.3995069  )
        12           Ru1 tau(  12) = (   4.0672842   2.3481657  14.3266752  )
        13           H1  tau(  13) = (   1.3557398   0.7827256  16.0120845  )

     number of k points=    20  Fermi-Dirac smearing, width (Ry)=  0.0110
                       cart. coord. in units 2pi/alat
        k(    1) = (   0.0000000   0.0000000   0.0000000), wk =   0.0555556
        k(    2) = (   0.0000000   0.0354882   0.0000000), wk =   0.1111111
        k(    3) = (   0.0000000   0.0709765   0.0000000), wk =   0.1111111
        k(    4) = (   0.0000000  -0.1064647   0.0000000), wk =   0.0555556
        k(    5) = (   0.0307337  -0.0177441   0.0000000), wk =   0.1111111
        k(    6) = (   0.0307337   0.0177441   0.0000000), wk =   0.1111111
        k(    7) = (   0.0307337   0.0532324   0.0000000), wk =   0.1111111
        k(    8) = (   0.0307337  -0.1242088   0.0000000), wk =   0.1111111
        k(    9) = (   0.0307337  -0.0887206   0.0000000), wk =   0.1111111
        k(   10) = (   0.0307337  -0.0532324   0.0000000), wk =   0.1111111
        k(   11) = (   0.0614674  -0.0354882   0.0000000), wk =   0.1111111
        k(   12) = (   0.0614674   0.0000000   0.0000000), wk =   0.1111111
        k(   13) = (   0.0614674   0.0354882   0.0000000), wk =   0.1111111
        k(   14) = (   0.0614674  -0.1419529   0.0000000), wk =   0.1111111
        k(   15) = (   0.0614674  -0.1064647   0.0000000), wk =   0.1111111
        k(   16) = (   0.0614674  -0.0709765   0.0000000), wk =   0.1111111
        k(   17) = (  -0.0922011   0.0532324   0.0000000), wk =   0.0555556
        k(   18) = (  -0.0922011   0.0887206   0.0000000), wk =   0.1111111
        k(   19) = (  -0.0922011   0.1242088   0.0000000), wk =   0.1111111
        k(   20) = (  -0.0922011  -0.0532324   0.0000000), wk =   0.0555556

     Dense  grid:   499637 G-vectors     FFT dimensions: (  64,  64, 288)

     Smooth grid:   126395 G-vectors     FFT dimensions: (  40,  40, 180)

     Largest allocated arrays     est. size (Mb)     dimensions
        Kohn-Sham Wavefunctions         0.83 Mb     (     516,  106)
        NL pseudopotentials             1.72 Mb     (     516,  218)
        Each V/rho on FFT grid          0.56 Mb     (   36864)
        Each G-vector array             0.12 Mb     (   15614)
        G-vector shells                 0.05 Mb     (    6919)
     Largest temporary arrays     est. size (Mb)     dimensions
        Auxiliary wavefunctions         3.34 Mb     (     516,  424)
        Each subspace H/S matrix        2.74 Mb     (     424,  424)
        Each <psi_i|beta_j> matrix      0.35 Mb     (     218,  106)
        Arrays for rho mixing           5.62 Mb     (   36864,   10)

     Initial potential from superposition of free atoms
     Check: negative starting charge=   -0.877948

     starting charge  180.99980, renormalised to  193.00000

     negative rho (up, down):  9.362E-01 0.000E+00


     ************************************************************************
     *
     * You are using vdW-DF for exchange-correlation in this calculation.
     * Please cite the following three references that made this development
     * possible:
     *
     *   M. Dion, H. Rydberg, E. Schroder, D. C. Langreth, and
     *   B. I. Lundqvist, Phys. Rev. Lett. 92, 246401 (2004).
     *
     *   T. Thonhauser, V. R. Cooper, S. Li, A. Puzder, P. Hyldgaard, and
     *   D. C. Langreth, Phys. Rev. B 76, 125112 (2007).
     *
     *   G. Roman-Perez and J. M. Soler, Phys. Rev. Lett. 103, 096102 (2009).
     *
     *
     * If you are using vdW-DF2, please also cite:
     *
     *   K. Lee, E. D. Murray, L. Kong, B. I. Lundqvist, and
     *   D. C. Langreth, Phys. Rev. B 82, 081101(R) (2010).
     *
     *
     * If you are calculating the stress with vdW-DF, please also cite:
     *
     *   R. Sabatini, E. Kucukbenli, B. Kolb, T. Thonhauser, and
     *   S. de Gironcoli, J. Phys.: Condens. Matter 24, 424209 (2012).
     *
     ************************************************************************

     Carrying out vdW-DF run using the following parameters:

     Nqs =      20    Nr_points =    1024   r_max =   100.000
     q_mesh =
               0.00001000     0.04494208     0.09755937     0.15916263
               0.23128650     0.31572767     0.41458969     0.53033537
               0.66584808     0.82450364     1.01025438     1.22772762
               1.48234092     1.78043706     2.12944203     2.53805004
               3.01644009     3.57652955     4.23227104     5.00000000

     Gradients computed in reciprocal space

     ************************************************************************


 
     Adding external electric field

     Computed dipole along edir(3) : 
        Dipole               -0.4777 Ry au,         -1.2143 Debye
        Dipole field         -0.0014 Ry au
 
        Potential amp.        0.1287 Ry
        Total length         45.0078 bohr
 
     Starting wfc are  157 randomized atomic wfcs

     total cpu time spent up to now is       18.1 secs

     per-process dynamical memory:    45.8 Mb

     Self-consistent Calculation

     iteration #  1     ecut=    36.75 Ry     beta=0.30
     Davidson diagonalization with overlap
     ethr =  1.00E-02,  avg # of iterations =  2.3

     negative rho (up, down):  9.285E-01 0.000E+00
 
     Adding external electric field

     Computed dipole along edir(3) : 
        Dipole                7.9277 Ry au,         20.1502 Debye
        Dipole field          0.0237 Ry au
 
        Potential amp.       -2.1360 Ry
        Total length         45.0078 bohr
 

     total cpu time spent up to now is       53.8 secs

     total energy              =   -2334.99432730 Ry
     Harris-Foulkes estimate   =   -2347.64348616 Ry
     estimated scf accuracy    <      28.37521094 Ry

     iteration #  2     ecut=    36.75 Ry     beta=0.30
     Davidson diagonalization with overlap
     ethr =  1.00E-02,  avg # of iterations =  9.2

     negative rho (up, down):  9.282E-01 0.000E+00
 
     Adding external electric field

     Computed dipole along edir(3) : 
        Dipole               -0.8941 Ry au,         -2.2726 Debye
        Dipole field         -0.0027 Ry au
 
        Potential amp.        0.2409 Ry
        Total length         45.0078 bohr
 

     total cpu time spent up to now is      119.9 secs

     total energy              =   -2323.17302909 Ry
     Harris-Foulkes estimate   =   -2381.98196540 Ry
     estimated scf accuracy    <    1082.77587397 Ry

     iteration #  3     ecut=    36.75 Ry     beta=0.30
     Davidson diagonalization with overlap
     ethr =  1.00E-02,  avg # of iterations =  6.0

     negative rho (up, down):  9.256E-01 0.000E+00
 
     Adding external electric field

     Computed dipole along edir(3) : 
        Dipole               -0.6443 Ry au,         -1.6376 Debye
        Dipole field         -0.0019 Ry au
 
        Potential amp.        0.1736 Ry
        Total length         45.0078 bohr
 

     total cpu time spent up to now is      177.1 secs

     total energy              =   -2339.05907176 Ry
     Harris-Foulkes estimate   =   -2344.25620462 Ry
     estimated scf accuracy    <      26.67129984 Ry

     iteration #  4     ecut=    36.75 Ry     beta=0.30
     Davidson diagonalization with overlap
     ethr =  1.00E-02,  avg # of iterations =  4.8

     negative rho (up, down):  9.227E-01 0.000E+00
 
     Adding external electric field

     Computed dipole along edir(3) : 
        Dipole               -0.8332 Ry au,         -2.1179 Debye
        Dipole field         -0.0025 Ry au
 
        Potential amp.        0.2245 Ry
        Total length         45.0078 bohr
 

     total cpu time spent up to now is      218.4 secs

     total energy              =   -2339.57814400 Ry
     Harris-Foulkes estimate   =   -2345.72952152 Ry
     estimated scf accuracy    <      60.27187388 Ry

     iteration #  5     ecut=    36.75 Ry     beta=0.30
     Davidson diagonalization with overlap
     ethr =  1.00E-02,  avg # of iterations =  3.3

     negative rho (up, down):  9.203E-01 0.000E+00
 
     Adding external electric field

     Computed dipole along edir(3) : 
        Dipole               -0.6763 Ry au,         -1.7191 Debye
        Dipole field         -0.0020 Ry au
 
        Potential amp.        0.1822 Ry
        Total length         45.0078 bohr
 

     total cpu time spent up to now is      251.5 secs

     total energy              =   -2342.15294018 Ry
     Harris-Foulkes estimate   =   -2342.41558931 Ry
     estimated scf accuracy    <       0.60529998 Ry

     iteration #  6     ecut=    36.75 Ry     beta=0.30
     Davidson diagonalization with overlap
     ethr =  3.14E-04,  avg # of iterations =  6.3

     negative rho (up, down):  9.190E-01 0.000E+00
 
     Adding external electric field

     Computed dipole along edir(3) : 
        Dipole               -0.6403 Ry au,         -1.6275 Debye
        Dipole field         -0.0019 Ry au
 
        Potential amp.        0.1725 Ry
        Total length         45.0078 bohr
 

     total cpu time spent up to now is      303.6 secs

     total energy              =   -2342.20194694 Ry
     Harris-Foulkes estimate   =   -2342.69459098 Ry
     estimated scf accuracy    <       8.77464615 Ry

     iteration #  7     ecut=    36.75 Ry     beta=0.30
     Davidson diagonalization with overlap
     ethr =  3.14E-04,  avg # of iterations =  4.8

     negative rho (up, down):  9.183E-01 0.000E+00
 
     Adding external electric field

     Computed dipole along edir(3) : 
        Dipole               -0.5504 Ry au,         -1.3991 Debye
        Dipole field         -0.0016 Ry au
 
        Potential amp.        0.1483 Ry
        Total length         45.0078 bohr
 

     total cpu time spent up to now is      348.5 secs

     total energy              =   -2342.35273260 Ry
     Harris-Foulkes estimate   =   -2342.45750782 Ry
     estimated scf accuracy    <       1.15950443 Ry

     iteration #  8     ecut=    36.75 Ry     beta=0.30
     Davidson diagonalization with overlap
     ethr =  3.14E-04,  avg # of iterations =  4.8

     negative rho (up, down):  9.174E-01 0.000E+00
 
     Adding external electric field

     Computed dipole along edir(3) : 
        Dipole               -0.4112 Ry au,         -1.0451 Debye
        Dipole field         -0.0012 Ry au
 
        Potential amp.        0.1108 Ry
        Total length         45.0078 bohr
 

     total cpu time spent up to now is      384.7 secs

     total energy              =   -2342.42775992 Ry
     Harris-Foulkes estimate   =   -2342.47508461 Ry
     estimated scf accuracy    <       3.71474267 Ry

     iteration #  9     ecut=    36.75 Ry     beta=0.30
     Davidson diagonalization with overlap
     ethr =  3.14E-04,  avg # of iterations =  1.0

     negative rho (up, down):  9.153E-01 0.000E+00
 
     Adding external electric field

     Computed dipole along edir(3) : 
        Dipole               -0.2216 Ry au,         -0.5633 Debye
        Dipole field         -0.0007 Ry au
 
        Potential amp.        0.0597 Ry
        Total length         45.0078 bohr
 

     total cpu time spent up to now is      413.3 secs

     total energy              =   -2342.38886215 Ry
     Harris-Foulkes estimate   =   -2342.44117198 Ry
     estimated scf accuracy    <       1.33326775 Ry

     iteration # 10     ecut=    36.75 Ry     beta=0.30
     Davidson diagonalization with overlap
     ethr =  3.14E-04,  avg # of iterations =  1.8

     negative rho (up, down):  9.151E-01 0.000E+00
 
     Adding external electric field

     Computed dipole along edir(3) : 
        Dipole               -0.2075 Ry au,         -0.5274 Debye
        Dipole field         -0.0006 Ry au
 
        Potential amp.        0.0559 Ry
        Total length         45.0078 bohr
 

     total cpu time spent up to now is      442.8 secs

     total energy              =   -2342.40485998 Ry
     Harris-Foulkes estimate   =   -2342.40823211 Ry
     estimated scf accuracy    <       0.06308959 Ry

     iteration # 11     ecut=    36.75 Ry     beta=0.30
     Davidson diagonalization with overlap
     ethr =  3.27E-05,  avg # of iterations =  5.5

     negative rho (up, down):  9.149E-01 0.000E+00
 
     Adding external electric field

     Computed dipole along edir(3) : 
        Dipole               -0.1665 Ry au,         -0.4233 Debye
        Dipole field         -0.0005 Ry au
 
        Potential amp.        0.0449 Ry
        Total length         45.0078 bohr
 

     total cpu time spent up to now is      481.0 secs

     total energy              =   -2342.40953882 Ry
     Harris-Foulkes estimate   =   -2342.41187291 Ry
     estimated scf accuracy    <       0.02456995 Ry

     iteration # 12     ecut=    36.75 Ry     beta=0.30
     Davidson diagonalization with overlap
     ethr =  1.27E-05,  avg # of iterations =  2.0

     negative rho (up, down):  9.147E-01 0.000E+00
 
     Adding external electric field

     Computed dipole along edir(3) : 
        Dipole               -0.1411 Ry au,         -0.3586 Debye
        Dipole field         -0.0004 Ry au
 
        Potential amp.        0.0380 Ry
        Total length         45.0078 bohr
 

     total cpu time spent up to now is      510.8 secs

     total energy              =   -2342.41066851 Ry
     Harris-Foulkes estimate   =   -2342.41093520 Ry
     estimated scf accuracy    <       0.00560937 Ry

     iteration # 13     ecut=    36.75 Ry     beta=0.30
     Davidson diagonalization with overlap
     ethr =  2.91E-06,  avg # of iterations =  4.8

     negative rho (up, down):  9.142E-01 0.000E+00
 
     Adding external electric field

     Computed dipole along edir(3) : 
        Dipole               -0.0613 Ry au,         -0.1559 Debye
        Dipole field         -0.0002 Ry au
 
        Potential amp.        0.0165 Ry
        Total length         45.0078 bohr
 

     total cpu time spent up to now is      544.9 secs

     total energy              =   -2342.41076427 Ry
     Harris-Foulkes estimate   =   -2342.41096270 Ry
     estimated scf accuracy    <       0.00347115 Ry

     iteration # 14     ecut=    36.75 Ry     beta=0.30
     Davidson diagonalization with overlap
     ethr =  1.80E-06,  avg # of iterations =  2.2

     negative rho (up, down):  9.143E-01 0.000E+00
 
     Adding external electric field

     Computed dipole along edir(3) : 
        Dipole               -0.0572 Ry au,         -0.1455 Debye
        Dipole field         -0.0002 Ry au
 
        Potential amp.        0.0154 Ry
        Total length         45.0078 bohr
 

     total cpu time spent up to now is      575.4 secs

     total energy              =   -2342.41088355 Ry
     Harris-Foulkes estimate   =   -2342.41092411 Ry
     estimated scf accuracy    <       0.00285763 Ry

     iteration # 15     ecut=    36.75 Ry     beta=0.30
     Davidson diagonalization with overlap
     ethr =  1.48E-06,  avg # of iterations =  1.0

     negative rho (up, down):  9.142E-01 0.000E+00
 
     Adding external electric field

     Computed dipole along edir(3) : 
        Dipole               -0.0542 Ry au,         -0.1377 Debye
        Dipole field         -0.0002 Ry au
 
        Potential amp.        0.0146 Ry
        Total length         45.0078 bohr
 

     total cpu time spent up to now is      603.6 secs

     total energy              =   -2342.41090349 Ry
     Harris-Foulkes estimate   =   -2342.41091699 Ry
     estimated scf accuracy    <       0.00055826 Ry

     iteration # 16     ecut=    36.75 Ry     beta=0.30
     Davidson diagonalization with overlap
     ethr =  2.89E-07,  avg # of iterations =  5.5

     negative rho (up, down):  9.143E-01 0.000E+00
 
     Adding external electric field

     Computed dipole along edir(3) : 
        Dipole               -0.0487 Ry au,         -0.1237 Debye
        Dipole field         -0.0001 Ry au
 
        Potential amp.        0.0131 Ry
        Total length         45.0078 bohr
 

     total cpu time spent up to now is      639.3 secs

     total energy              =   -2342.41092337 Ry
     Harris-Foulkes estimate   =   -2342.41093141 Ry
     estimated scf accuracy    <       0.00013317 Ry

     iteration # 17     ecut=    36.75 Ry     beta=0.30
     Davidson diagonalization with overlap
     ethr =  6.90E-08,  avg # of iterations =  4.0

     negative rho (up, down):  9.143E-01 0.000E+00
 
     Adding external electric field

     Computed dipole along edir(3) : 
        Dipole               -0.0470 Ry au,         -0.1195 Debye
        Dipole field         -0.0001 Ry au
 
        Potential amp.        0.0127 Ry
        Total length         45.0078 bohr
 

     total cpu time spent up to now is      673.1 secs

     total energy              =   -2342.41093495 Ry
     Harris-Foulkes estimate   =   -2342.41093619 Ry
     estimated scf accuracy    <       0.00007187 Ry

     iteration # 18     ecut=    36.75 Ry     beta=0.30
     Davidson diagonalization with overlap
     ethr =  3.72E-08,  avg # of iterations =  1.2

     negative rho (up, down):  9.143E-01 0.000E+00
 
     Adding external electric field

     Computed dipole along edir(3) : 
        Dipole               -0.0460 Ry au,         -0.1170 Debye
        Dipole field         -0.0001 Ry au
 
        Potential amp.        0.0124 Ry
        Total length         45.0078 bohr
 

     total cpu time spent up to now is      701.5 secs

     total energy              =   -2342.41093620 Ry
     Harris-Foulkes estimate   =   -2342.41093658 Ry
     estimated scf accuracy    <       0.00001093 Ry

     iteration # 19     ecut=    36.75 Ry     beta=0.30
     Davidson diagonalization with overlap
     ethr =  5.66E-09,  avg # of iterations =  5.2

     negative rho (up, down):  9.144E-01 0.000E+00

     negative rho (up, down):  9.144E-01 0.000E+00

     negative rho (up, down):  9.144E-01 0.000E+00

     negative rho (up, down):  9.144E-01 0.000E+00

     negative rho (up, down):  9.144E-01 0.000E+00

     negative rho (up, down):  9.144E-01 0.000E+00

     negative rho (up, down):  9.144E-01 0.000E+00

     negative rho (up, down):  9.144E-01 0.000E+00

     negative rho (up, down):  9.144E-01 0.000E+00

     negative rho (up, down):  9.144E-01 0.000E+00

     negative rho (up, down):  9.144E-01 0.000E+00

     negative rho (up, down):  9.144E-01 0.000E+00

     negative rho (up, down):  9.144E-01 0.000E+00

     negative rho (up, down):  9.144E-01 0.000E+00

     negative rho (up, down):  9.144E-01 0.000E+00

     negative rho (up, down):  9.144E-01 0.000E+00

     negative rho (up, down):  9.144E-01 0.000E+00

     negative rho (up, down):  9.144E-01 0.000E+00

     negative rho (up, down):  9.144E-01 0.000E+00

     negative rho (up, down):  9.144E-01 0.000E+00

[...]
   -40.2457 -40.2414 -40.2219 -40.1673 -40.1638 -40.1625 -40.1267 -40.0342
    -4.3325  -3.5559  -2.9315  -2.9267  -2.8017  -2.6015  -2.5778  -2.5250
    -2.4331  -2.3940  -2.3588  -2.2369  -1.9087  -1.7637  -1.5666  -1.4794
    -1.0449  -0.9362  -0.8796  -0.5887  -0.4191  -0.3126  -0.2336  -0.2207
    -0.1381  -0.0406   0.0920   0.1577   0.2786   0.3476   0.4052   0.5489
     0.5750   0.6139   0.6213   1.1456   1.2338   1.2884   1.4082   1.5847
     1.7042   1.7918   1.8174   1.8462   1.9586   1.9955   1.9960   2.1736
     2.5978   2.6129   2.8253   2.8618   2.9304   3.0153   3.1680   3.2725
     3.3140   3.3893

          k = 0.0615-0.0355 0.0000 ( 15793 PWs)   bands (ev):

   -70.9844 -70.9319 -70.9120 -70.8646 -70.5593 -70.5129 -70.4948 -70.4509
   -70.4159 -70.3672 -70.3444 -70.3400 -41.2111 -41.1940 -41.1234 -41.1112
   -41.0388 -41.0258 -41.0164 -40.8453 -40.8351 -40.7583 -40.7144 -40.6817
   -40.6702 -40.6324 -40.5884 -40.5542 -40.5500 -40.5069 -40.4271 -40.4171
   -40.4025 -40.3600 -40.3542 -40.3457 -40.3092 -40.2677 -40.2547 -40.2545
   -40.2487 -40.2415 -40.2410 -40.2339 -40.1674 -40.1648 -40.1232 -40.0412
    -4.2009  -3.4164  -2.9648  -2.6903  -2.6801  -2.5440  -2.4320  -2.3520
    -2.3452  -2.3205  -2.1692  -2.1669  -1.8814  -1.6003  -1.4521  -1.4093
    -1.0387  -1.0254  -0.8342  -0.7281  -0.5098  -0.3711  -0.3522  -0.1967
    -0.0752   0.0062   0.0095   0.2936   0.3692   0.4194   0.4217   0.4442
     0.4682   0.5864   0.6265   1.0338   1.1500   1.2017   1.3236   1.4162
     1.5346   1.5583   1.6657   1.6728   1.8334   1.8605   1.9324   2.2296
     2.5031   2.5108   2.5558   2.6844   2.7362   2.7431   2.8338   3.0941
     3.2512   3.3382

          k = 0.0615 0.0000 0.0000 ( 15768 PWs)   bands (ev):

   -70.9900 -70.9253 -70.9139 -70.8636 -70.5642 -70.5071 -70.4965 -70.4501
   -70.4215 -70.3566 -70.3532 -70.3361 -41.2351 -41.1867 -41.1816 -41.1225
   -41.0398 -41.0334 -41.0225 -40.8575 -40.7512 -40.7366 -40.7241 -40.7054
   -40.6777 -40.6627 -40.5840 -40.5717 -40.5479 -40.5433 -40.4283 -40.4083
   -40.3961 -40.3614 -40.3486 -40.3172 -40.3030 -40.2747 -40.2689 -40.2488
   -40.2458 -40.2413 -40.2219 -40.1673 -40.1638 -40.1625 -40.1267 -40.0342
    -4.3325  -3.5559  -2.9314  -2.9267  -2.8017  -2.6015  -2.5778  -2.5250
    -2.4331  -2.3940  -2.3588  -2.2369  -1.9087  -1.7637  -1.5666  -1.4794
    -1.0449  -0.9362  -0.8796  -0.5887  -0.4191  -0.3126  -0.2337  -0.2207
    -0.1382  -0.0406   0.0920   0.1578   0.2787   0.3476   0.4052   0.5489
     0.5750   0.6139   0.6213   1.1455   1.2338   1.2884   1.4082   1.5847
     1.7042   1.7918   1.8174   1.8463   1.9586   1.9955   1.9960   2.1736
     2.5978   2.6129   2.8253   2.8618   2.9305   3.0153   3.1680   3.2725
     3.3140   3.3893

          k = 0.0615 0.0355 0.0000 ( 15793 PWs)   bands (ev):

   -70.9843 -70.9322 -70.9117 -70.8647 -70.5593 -70.5125 -70.4952 -70.4509
   -70.4159 -70.3672 -70.3445 -70.3399 -41.2109 -41.1942 -41.1234 -41.1112
   -41.0388 -41.0262 -41.0160 -40.8452 -40.8353 -40.7583 -40.7145 -40.6817
   -40.6701 -40.6324 -40.5885 -40.5542 -40.5500 -40.5069 -40.4269 -40.4173
   -40.4025 -40.3597 -40.3544 -40.3457 -40.3093 -40.2679 -40.2546 -40.2546
   -40.2488 -40.2414 -40.2411 -40.2339 -40.1672 -40.1648 -40.1232 -40.0412
    -4.2008  -3.4164  -2.9648  -2.6905  -2.6798  -2.5439  -2.4322  -2.3519
    -2.3454  -2.3206  -2.1688  -2.1670  -1.8814  -1.6005  -1.4520  -1.4093
    -1.0387  -1.0254  -0.8343  -0.7281  -0.5102  -0.3710  -0.3523  -0.1968
    -0.0752   0.0063   0.0094   0.2936   0.3691   0.4193   0.4218   0.4443
     0.4681   0.5865   0.6265   1.0340   1.1498   1.2017   1.3236   1.4161
     1.5346   1.5583   1.6656   1.6729   1.8334   1.8605   1.9324   2.2297
     2.5031   2.5109   2.5557   2.6843   2.7364   2.7433   2.8336   3.0941
     3.2512   3.3383

          k = 0.0615-0.1420 0.0000 ( 15803 PWs)   bands (ev):

   -70.9694 -70.9419 -70.9168 -70.8650 -70.5470 -70.5204 -70.4994 -70.4513
   -70.4006 -70.3760 -70.3579 -70.3331 -41.1670 -41.1166 -41.0839 -41.0583
   -41.0268 -41.0189 -40.9964 -40.9595 -40.8649 -40.7885 -40.6957 -40.6777
   -40.6316 -40.6133 -40.5785 -40.5408 -40.4932 -40.4828 -40.4426 -40.4203
   -40.3999 -40.3840 -40.3624 -40.3528 -40.3346 -40.3289 -40.2872 -40.2720
   -40.2485 -40.2444 -40.2396 -40.2260 -40.1991 -40.1949 -40.1242 -40.0757
    -3.8982  -3.0028  -2.6890  -2.4126  -2.3793  -2.2849  -2.2053  -2.1271
    -2.0633  -2.0120  -1.9220  -1.7816  -1.6859  -1.5379  -1.3371  -1.3126
    -1.2226  -0.9525  -0.9343  -0.8046  -0.6962  -0.6155  -0.4813  -0.3446
    -0.1694   0.0038   0.0695   0.1192   0.1746   0.2455   0.2966   0.3505
     0.4702   0.5889   0.6968   0.7243   0.8639   0.9274   0.9734   0.9902
     1.0733   1.3694   1.5652   1.6280   1.6917   1.7816   1.8826   1.9137
     2.0639   2.2240   2.3781   2.5226   2.5628   2.8522   2.9323   2.9639
     3.1862   3.2280

          k = 0.0615-0.1065 0.0000 ( 15828 PWs)   bands (ev):

   -70.9527 -70.9523 -70.9237 -70.8644 -70.5365 -70.5260 -70.5046 -70.4509
   -70.3813 -70.3810 -70.3755 -70.3299 -41.0869 -41.0741 -41.0573 -41.0527
   -41.0449 -40.9967 -40.9848 -40.9845 -40.9780 -40.7207 -40.7155 -40.7014
   -40.6342 -40.6105 -40.5203 -40.5133 -40.5059 -40.4866 -40.4252 -40.4112
   -40.4094 -40.4046 -40.3856 -40.3587 -40.3480 -40.3352 -40.3177 -40.2671
   -40.2606 -40.2446 -40.2395 -40.2327 -40.2265 -40.1417 -40.1326 -40.1323
    -3.7165  -2.5022  -2.4625  -2.4373  -2.1344  -1.9843  -1.9734  -1.9064
    -1.8479  -1.8072  -1.7503  -1.7402  -1.7211  -1.6108  -1.6014  -1.5850
    -1.1797  -1.0757  -0.6690  -0.6231  -0.5367  -0.4764  -0.4754  -0.4739
    -0.4354  -0.3870  -0.1916  -0.1438  -0.1291  -0.0055   0.1138   0.2228
     0.4459   0.4658   0.6562   0.6720   0.6860   0.7504   0.7556   0.7703
     1.2804   1.3127   1.3355   1.6353   1.8423   1.8957   1.9054   1.9515
     2.0629   2.2157   2.2285   2.9741   2.9880   3.0025   3.0486   3.0720
     3.1529   3.3178

          k = 0.0615-0.0710 0.0000 ( 15803 PWs)   bands (ev):

   -70.9695 -70.9415 -70.9171 -70.8649 -70.5468 -70.5208 -70.4990 -70.4513
   -70.4006 -70.3761 -70.3579 -70.3331 -41.1671 -41.1165 -41.0839 -41.0582
   -41.0266 -41.0190 -40.9965 -40.9595 -40.8649 -40.7885 -40.6958 -40.6777
   -40.6316 -40.6135 -40.5786 -40.5408 -40.4933 -40.4830 -40.4426 -40.4201
   -40.3998 -40.3838 -40.3624 -40.3530 -40.3345 -40.3288 -40.2872 -40.2718
   -40.2485 -40.2445 -40.2396 -40.2260 -40.1991 -40.1951 -40.1242 -40.0757
    -3.8983  -3.0028  -2.6890  -2.4125  -2.3794  -2.2849  -2.2055  -2.1268
    -2.0633  -2.0120  -1.9222  -1.7816  -1.6859  -1.5379  -1.3370  -1.3125
    -1.2226  -0.9524  -0.9342  -0.8046  -0.6961  -0.6155  -0.4813  -0.3445
    -0.1695   0.0039   0.0698   0.1191   0.1742   0.2457   0.2965   0.3506
     0.4702   0.5890   0.6966   0.7244   0.8639   0.9274   0.9735   0.9902
     1.0733   1.3695   1.5652   1.6280   1.6916   1.7815   1.8825   1.9138
     2.0639   2.2240   2.3780   2.5225   2.5629   2.8522   2.9323   2.9639
     3.1862   3.2281

          k =-0.0922 0.0532 0.0000 ( 15808 PWs)   bands (ev):

   -70.9662 -70.9489 -70.9120 -70.8660 -70.5443 -70.5267 -70.4948 -70.4521
   -70.3933 -70.3898 -70.3444 -70.3401 -41.1688 -41.1469 -41.0752 -41.0643
   -41.0079 -41.0032 -40.9498 -40.9369 -40.8979 -40.8747 -40.6871 -40.6469
   -40.6316 -40.6226 -40.5417 -40.5180 -40.5175 -40.4815 -40.4519 -40.4070
   -40.3962 -40.3837 -40.3650 -40.3530 -40.3334 -40.3314 -40.2887 -40.2857
   -40.2490 -40.2453 -40.2432 -40.2392 -40.2347 -40.1868 -40.0863 -40.0783
    -3.9006  -2.9819  -2.8926  -2.3862  -2.3833  -2.3539  -2.2661  -2.0551
    -2.0482  -1.8940  -1.8135  -1.8013  -1.7509  -1.4042  -1.3632  -1.3529
    -1.2706  -0.9617  -0.9541  -0.8139  -0.7816  -0.5613  -0.4967  -0.1343
    -0.0655   0.1542   0.1784   0.2279   0.3046   0.4353   0.4511   0.5198
     0.5554   0.5905   0.6173   0.6377   0.7256   0.7416   0.7690   0.7984
     1.3077   1.3159   1.5045   1.5747   1.6592   1.6719   1.9447   1.9816
     2.0660   2.1470   2.2804   2.2909   2.3371   2.6269   2.6874   2.7405
     2.7674   2.7700

          k =-0.0922 0.0887 0.0000 ( 15803 PWs)   bands (ev):

   -70.9695 -70.9415 -70.9171 -70.8649 -70.5468 -70.5209 -70.4990 -70.4513
   -70.4006 -70.3761 -70.3579 -70.3331 -41.1671 -41.1165 -41.0839 -41.0582
   -41.0266 -41.0191 -40.9964 -40.9595 -40.8650 -40.7885 -40.6958 -40.6777
   -40.6316 -40.6135 -40.5786 -40.5408 -40.4933 -40.4830 -40.4426 -40.4201
   -40.3998 -40.3838 -40.3624 -40.3530 -40.3345 -40.3288 -40.2872 -40.2719
   -40.2484 -40.2445 -40.2395 -40.2260 -40.1991 -40.1951 -40.1242 -40.0757
    -3.8983  -3.0028  -2.6890  -2.4125  -2.3794  -2.2849  -2.2055  -2.1268
    -2.0633  -2.0121  -1.9222  -1.7816  -1.6859  -1.5380  -1.3370  -1.3125
    -1.2226  -0.9524  -0.9342  -0.8046  -0.6961  -0.6155  -0.4814  -0.3445
    -0.1694   0.0039   0.0698   0.1191   0.1741   0.2457   0.2965   0.3507
     0.4702   0.5890   0.6965   0.7243   0.8640   0.9274   0.9735   0.9902
     1.0733   1.3695   1.5652   1.6280   1.6916   1.7815   1.8825   1.9138
     2.0639   2.2240   2.3780   2.5225   2.5629   2.8522   2.9324   2.9639
     3.1862   3.2281

          k =-0.0922 0.1242 0.0000 ( 15803 PWs)   bands (ev):

   -70.9694 -70.9418 -70.9169 -70.8650 -70.5469 -70.5205 -70.4992 -70.4513
   -70.4006 -70.3760 -70.3579 -70.3331 -41.1670 -41.1166 -41.0839 -41.0583
   -41.0267 -41.0190 -40.9964 -40.9594 -40.8650 -40.7885 -40.6957 -40.6777
   -40.6316 -40.6134 -40.5784 -40.5410 -40.4933 -40.4830 -40.4426 -40.4200
   -40.3999 -40.3838 -40.3624 -40.3530 -40.3345 -40.3289 -40.2872 -40.2720
   -40.2485 -40.2444 -40.2396 -40.2260 -40.1991 -40.1949 -40.1242 -40.0757
    -3.8982  -3.0028  -2.6890  -2.4126  -2.3793  -2.2848  -2.2055  -2.1271
    -2.0633  -2.0119  -1.9222  -1.7816  -1.6859  -1.5380  -1.3370  -1.3124
    -1.2227  -0.9524  -0.9343  -0.8047  -0.6962  -0.6156  -0.4813  -0.3447
    -0.1692   0.0038   0.0694   0.1192   0.1745   0.2456   0.2966   0.3506
     0.4701   0.5890   0.6967   0.7242   0.8639   0.9275   0.9734   0.9903
     1.0733   1.3695   1.5652   1.6280   1.6916   1.7818   1.8825   1.9136
     2.0639   2.2240   2.3778   2.5225   2.5631   2.8522   2.9324   2.9639
     3.1862   3.2280

          k =-0.0922-0.0532 0.0000 ( 15808 PWs)   bands (ev):

   -70.9659 -70.9494 -70.9117 -70.8661 -70.5446 -70.5261 -70.4952 -70.4521
   -70.3934 -70.3896 -70.3445 -70.3400 -41.1685 -41.1472 -41.0749 -41.0647
   -41.0082 -41.0028 -40.9497 -40.9372 -40.8977 -40.8747 -40.6873 -40.6466
   -40.6314 -40.6228 -40.5414 -40.5181 -40.5174 -40.4816 -40.4521 -40.4070
   -40.3963 -40.3835 -40.3653 -40.3529 -40.3335 -40.3314 -40.2889 -40.2856
   -40.2493 -40.2455 -40.2431 -40.2393 -40.2346 -40.1865 -40.0864 -40.0782
    -3.9005  -2.9819  -2.8925  -2.3866  -2.3828  -2.3535  -2.2667  -2.0547
    -2.0483  -1.8938  -1.8132  -1.8016  -1.7510  -1.4040  -1.3629  -1.3534
    -1.2710  -0.9618  -0.9542  -0.8139  -0.7816  -0.5612  -0.4968  -0.1344
    -0.0656   0.1539   0.1787   0.2278   0.3049   0.4352   0.4513   0.5192
     0.5560   0.5908   0.6175   0.6373   0.7256   0.7416   0.7692   0.7982
     1.3078   1.3159   1.5045   1.5745   1.6595   1.6716   1.9447   1.9817
     2.0651   2.1480   2.2803   2.2910   2.3374   2.6267   2.6876   2.7405
     2.7674   2.7699

     the Fermi energy is     2.3446 ev

!    total energy              =   -2342.45657912 Ry
     Harris-Foulkes estimate   =   -2342.45657893 Ry
     estimated scf accuracy    <       0.00000127 Ry

     The total energy is the sum of the following terms:

     one-electron contribution =  -22235.56957354 Ry
     hartree contribution      =   11117.17549845 Ry
     xc contribution           =    -322.73007132 Ry
     ewald contribution        =    9098.74861468 Ry
     electric field correction =       0.00000058 Ry
     smearing contrib. (-TS)   =      -0.08104797 Ry

     convergence has been achieved in  20 iterations
 
 BEEF-vdW xc energy contributions
           1 :   -279.962803221767     
           2 :    257.168851275608     
           3 :   -217.624196399557     
           4 :    171.032763741523     
           5 :   -127.341963818844     
           6 :    93.7172905322296     
           7 :   -72.8815477438540     
           8 :    63.2076879244676     
           9 :   -60.2683590005396     
          10 :    59.0511608922479     
          11 :   -55.9103081085747     
          12 :    49.5723127097775     
          13 :   -40.9985995664224     
          14 :    32.3886164856003     
          15 :   -25.8890091869170     
          16 :    22.5841102292269     
          17 :   -22.1317624948537     
          18 :    23.0930599430070     
          19 :   -23.7138177638186     
          20 :    22.7539896048156     
          21 :   -19.9834242322957     
          22 :    16.1537655376875     
          23 :   -12.5178941983064     
          24 :    10.1687760117040     
          25 :   -9.52501233032638     
          26 :    10.1905677128681     
          27 :   -11.2193716829512     
          28 :    11.6205630325763     
          29 :   -10.8384670160212     
          30 :    8.97725080482417     
          31 :   -29.0411735858320     
          32 :   -22.0538371272249     

     Forces acting on atoms (Ry/au):


     negative rho (up, down):  9.119E-01 0.000E+00
     atom    1 type  1   force =     0.00000100    0.00000935    0.02714380
     atom    2 type  1   force =     0.00000241    0.00132154    0.02697248
     atom    3 type  1   force =     0.00113245   -0.00066421    0.02689500
     atom    4 type  1   force =    -0.00112872   -0.00067842    0.02694578
     atom    5 type  1   force =    -0.00005935    0.00003608   -0.02181371
     atom    6 type  1   force =     0.00005637    0.00005426   -0.02185057
     atom    7 type  1   force =     0.00000997   -0.00000095   -0.04036992
     atom    8 type  1   force =    -0.00001560   -0.00007114   -0.02184248
     atom    9 type  1   force =    -0.00023419   -0.00007407   -0.00035757
     atom   10 type  1   force =     0.00021947   -0.00011501   -0.00028893
     atom   11 type  1   force =    -0.00004643    0.00023071   -0.00038787
     atom   12 type  1   force =     0.00006294   -0.00005150   -0.00079284
     atom   13 type  2   force =    -0.00000032    0.00000336   -0.00025318

     Total force =     0.077332     Total SCF correction =     0.006639


     entering subroutine stress ...


     negative rho (up, down):  9.119E-01 0.000E+00
          total   stress  (Ry/bohr**3)                   (kbar)     P=  -21.95
  -0.00016804   0.00000001   0.00000000        -24.72      0.00      0.00
   0.00000001  -0.00016799  -0.00000002          0.00    -24.71     -0.00
   0.00000000  -0.00000002  -0.00011167          0.00     -0.00    -16.43

 !ASE

     Writing output data file calc.save
 
     init_run     :     12.96s CPU     18.83s WALL (       1 calls)
     electrons    :    558.24s CPU    782.26s WALL (       1 calls)
     forces       :      3.23s CPU      3.87s WALL (       1 calls)
     stress       :      7.71s CPU      8.72s WALL (       1 calls)

     Called by init_run:
     wfcinit      :     10.25s CPU     15.14s WALL (       1 calls)
     potinit      :      1.17s CPU      1.65s WALL (       1 calls)

     Called by electrons:
     c_bands      :    432.69s CPU    598.51s WALL (      20 calls)
     sum_band     :     64.99s CPU     97.20s WALL (      20 calls)
     v_of_rho     :     19.96s CPU     30.50s WALL (      21 calls)
     newd         :      7.31s CPU      7.61s WALL (      21 calls)
     mix_rho      :      0.80s CPU      1.22s WALL (      20 calls)
     vdW_energy   :      2.47s CPU      2.66s WALL (      57 calls)
     vdW_ffts     :     34.54s CPU     52.70s WALL (     116 calls)
     vdW_v        :      6.45s CPU      9.20s WALL (      57 calls)

     Called by c_bands:
     init_us_2    :      1.11s CPU      1.14s WALL (     860 calls)
     cegterg      :    425.39s CPU    590.22s WALL (     400 calls)

     Called by *egterg:
     h_psi        :    269.92s CPU    422.33s WALL (    1953 calls)
     s_psi        :     10.45s CPU     10.57s WALL (    1953 calls)
     g_psi        :      0.58s CPU      0.60s WALL (    1533 calls)
     cdiaghg      :     98.58s CPU    102.31s WALL (    1933 calls)

     Called by h_psi:
     add_vuspsi   :     10.85s CPU     10.90s WALL (    1953 calls)

     General routines
     calbec       :     22.60s CPU     27.02s WALL (    2393 calls)
     fft          :     52.13s CPU     80.04s WALL (    3489 calls)
     ffts         :      0.17s CPU      0.25s WALL (      41 calls)
     fftw         :    281.38s CPU    459.59s WALL (  249370 calls)
     interpolate  :      0.73s CPU      1.13s WALL (      41 calls)
     davcio       :      0.00s CPU      0.02s WALL (      20 calls)
 
     Parallel routines
     fft_scatter  :    303.00s CPU    507.28s WALL (  252900 calls)
 
     PWSCF        :  9m42.95s CPU    13m34.92s WALL

 
   This run was terminated on:  16:46:57  16Jan2018            

=------------------------------------------------------------------------------=
   JOB DONE.
=------------------------------------------------------------------------------=
Job  /afs/slac/g/suncat/bin/suncat-tsmpirun -x LD_LIBRARY_PATH -wdir /scratch/qe842477_xLRhk pw.x -in pw.inp

TID   HOST_NAME   COMMAND_LINE            STATUS            TERMINATION_TIME
===== ========== ================  =======================  ===================
00000 suncat0153 pw.x -in pw.inp   Done                     01/16/2018 16:46:57
00001 suncat0153 pw.x -in pw.inp   Done                     01/16/2018 16:46:57
00002 suncat0153 pw.x -in pw.inp   Done                     01/16/2018 16:46:57
00003 suncat0153 pw.x -in pw.inp   Done                     01/16/2018 16:46:57
00004 suncat0153 pw.x -in pw.inp   Done                     01/16/2018 16:46:57
00005 suncat0153 pw.x -in pw.inp   Done                     01/16/2018 16:46:57
00006 suncat0153 pw.x -in pw.inp   Done                     01/16/2018 16:46:57
00007 suncat0153 pw.x -in pw.inp   Done                     01/16/2018 16:46:57
00008 suncat0146 pw.x -in pw.inp   Done                     01/16/2018 16:46:57
00009 suncat0146 pw.x -in pw.inp   Done                     01/16/2018 16:46:57
00010 suncat0146 pw.x -in pw.inp   Done                     01/16/2018 16:46:57
00011 suncat0146 pw.x -in pw.inp   Done                     01/16/2018 16:46:57
00012 suncat0146 pw.x -in pw.inp   Done                     01/16/2018 16:46:57
00013 suncat0146 pw.x -in pw.inp   Done                     01/16/2018 16:46:57
00014 suncat0146 pw.x -in pw.inp   Done                     01/16/2018 16:46:57
00015 suncat0146 pw.x -in pw.inp   Done                     01/16/2018 16:46:57
00016 suncat0115 pw.x -in pw.inp   Done                     01/16/2018 16:46:57
00017 suncat0115 pw.x -in pw.inp   Done                     01/16/2018 16:46:57
00018 suncat0115 pw.x -in pw.inp   Done                     01/16/2018 16:46:57
00019 suncat0115 pw.x -in pw.inp   Done                     01/16/2018 16:46:57
00020 suncat0115 pw.x -in pw.inp   Done                     01/16/2018 16:46:57
00021 suncat0115 pw.x -in pw.inp   Done                     01/16/2018 16:46:57
00022 suncat0115 pw.x -in pw.inp   Done                     01/16/2018 16:46:57
00023 suncat0115 pw.x -in pw.inp   Done                     01/16/2018 16:46:57
00024 suncat0114 pw.x -in pw.inp   Done                     01/16/2018 16:46:57
00025 suncat0114 pw.x -in pw.inp   Done                     01/16/2018 16:46:57
00026 suncat0114 pw.x -in pw.inp   Done                     01/16/2018 16:46:57
00027 suncat0114 pw.x -in pw.inp   Done                     01/16/2018 16:46:57
00028 suncat0114 pw.x -in pw.inp   Done                     01/16/2018 16:46:57
00029 suncat0114 pw.x -in pw.inp   Done                     01/16/2018 16:46:57
00030 suncat0114 pw.x -in pw.inp   Done                     01/16/2018 16:46:57
00031 suncat0114 pw.x -in pw.inp   Done                     01/16/2018 16:46:57
