  python dir          : /home/users/winther/.local/lib/python2.7/site-packages/espresso
  espresso dir        : /home/users/vossj/suncat/s2/qe5/bin
  pseudo dir          : /home/users/winther/src/pseudo
  ase-espresso py git : d16fa15-git



     Program PWSCF v.5.1rc2 starts on  9May2018 at  8: 1: 3 

     This program is part of the open-source Quantum ESPRESSO suite
     for quantum simulation of materials; please cite
         "P. Giannozzi et al., J. Phys.:Condens. Matter 21 395502 (2009);
          URL http://www.quantum-espresso.org", 
     in publications or presentations arising from this work. More details at
     http://www.quantum-espresso.org/quote

     Parallel version (MPI), running on    20 processors
     R & G space division:  proc/nbgrp/npool/nimage =      20
     Reading input from pw.inp
     Message from routine read_cards :
     DEPRECATED: no units specified in CELL_PARAMETERS card

     Current dimensions of program PWSCF are:
     Max number of different atomic species (ntypx) = 10
     Max number of k-points (npk) =  40000
     Max angular momentum in pseudopotentials (lmaxx) =  3
     Presently stress not available with electric field


     **************************************************************************
     Initializing libbeef V0.1.2 with the BEEF-vdW functional.
     Citation: Wellendorff et al., PRB 85, 235149 (2012).
     **************************************************************************


     IMPORTANT: XC functional enforced from input :
     Exchange-correlation      = BEEF-VDW ( 1  4 27 13 2)
     Any further DFT definition will be discarded
     Please, verify this is what you really want


     Subspace diagonalization in iterative solution of the eigenvalue problem:
     scalapack distributed-memory algorithm (size of sub-group:  3*  3 procs)

 
     Parallelization info
     --------------------
     sticks:   dense  smooth     PW     G-vecs:    dense   smooth      PW
     Min         119      47     14                22279     5617     906
     Max         120      48     15                22306     5658     921
     Sum        2395     955    283               445881   112839   18187
 
     Generating pointlists ...
     new r_m :   0.4125 (alat units)  0.7795 (a.u.) for type    1
     new r_m :   0.4125 (alat units)  0.7795 (a.u.) for type    2
     new r_m :   0.4125 (alat units)  0.7795 (a.u.) for type    3


     bravais-lattice index     =            0
     lattice parameter (alat)  =       1.8897  a.u.
     unit-cell volume          =    3747.1846 (a.u.)^3
     number of atoms/cell      =           15
     number of atomic types    =            3
     number of electrons       =       186.00
     number of Kohn-Sham states=          103
     kinetic-energy cutoff     =      36.7493  Ry
     charge density cutoff     =     367.4932  Ry
     convergence threshold     =      1.0E-05
     mixing beta               =       0.3000
     number of iterations used =           10  plain     mixing
     Exchange-correlation      = BEEF-VDW ( 1  4 27 13 2)
     nstep                     =           50


     celldm(1)=   1.889726  celldm(2)=   0.000000  celldm(3)=   0.000000
     celldm(4)=   0.000000  celldm(5)=   0.000000  celldm(6)=   0.000000

     crystal axes: (cart. coord. in units of alat)
               a(1) = (   5.147050   0.000000   0.000000 )  
               a(2) = (   2.573525   4.457476   0.000000 )  
               a(3) = (   0.000000   0.000000  24.202549 )  

     reciprocal axes: (cart. coord. in units 2 pi/alat)
               b(1) = (  0.194286 -0.112171 -0.000000 )  
               b(2) = (  0.000000  0.224342  0.000000 )  
               b(3) = (  0.000000  0.000000  0.041318 )  


     PseudoPot. # 1 for Mn read from file:
     /home/users/winther/src/pseudo/Mn.UPF
     MD5 check sum: 82ef2b46521d7a7d9e736dc3972e4928
     Pseudo is Ultrasoft + core correction, Zval = 15.0
     Generated by new atomic code, or converted to UPF format
     Using radial grid of  859 points,  6 beta functions with: 
                l(1) =   0
                l(2) =   0
                l(3) =   1
                l(4) =   1
                l(5) =   2
                l(6) =   2
     Q(r) pseudized with  8 coefficients,  rinner =    0.950   0.950   0.950
                                                       0.950   0.950

     PseudoPot. # 2 for C  read from file:
     /home/users/winther/src/pseudo/C.UPF
     MD5 check sum: d1aef80898a10debaa0f26306b886e00
     Pseudo is Ultrasoft + core correction, Zval =  4.0
     Generated by new atomic code, or converted to UPF format
     Using radial grid of  721 points,  4 beta functions with: 
                l(1) =   0
                l(2) =   0
                l(3) =   1
                l(4) =   1
     Q(r) pseudized with  8 coefficients,  rinner =    1.100   1.100   1.100


     PseudoPot. # 3 for H  read from file:
     /home/users/winther/src/pseudo/H.UPF
     MD5 check sum: 761ae9a214b05c3daf00ab9f6b793d6f
     Pseudo is Ultrasoft, Zval =  1.0
     Generated by new atomic code, or converted to UPF format
     Using radial grid of  615 points,  2 beta functions with: 
                l(1) =   0
                l(2) =   0
     Q(r) pseudized with  8 coefficients,  rinner =    0.700

     vdW kernel table read from file vdW_kernel_table
     MD5 check sum: 095c7af220d748ca6e76c0b4c6cfb241

     atomic species   valence    mass     pseudopotential
        Mn1           15.00    54.93804     Mn( 1.00)
        C1             4.00    12.01100     C ( 1.00)
        H1             1.00     1.00800     H ( 1.00)

     Starting magnetic structure 
     atomic species   magnetization
        Mn1          0.193
        C1           0.000
        H1           0.000

     No symmetry found



   Cartesian axes

     site n.     atom                  positions (alat units)
         1           Mn1 tau(   1) = (   0.0000000   0.0000000  10.0000000  )
         2           Mn1 tau(   2) = (   1.2867625   2.2287380  10.0000000  )
         3           Mn1 tau(   3) = (   2.5735249   0.0000000  10.0000000  )
         4           Mn1 tau(   4) = (   3.8602874   2.2287380  10.0000000  )
         5           Mn1 tau(   5) = (   5.1470499   2.9716506  12.1012743  )
         6           Mn1 tau(   6) = (   3.8602874   0.7429127  12.1012743  )
         7           Mn1 tau(   7) = (   2.5735249   2.9716506  12.1012743  )
         8           Mn1 tau(   8) = (   1.2867625   0.7429127  12.1012743  )
         9           Mn1 tau(   9) = (   2.5729805   1.4859362  14.2013976  )
        10           Mn1 tau(  10) = (   3.8606631   3.7139626  14.2022569  )
        11           Mn1 tau(  11) = (   5.1464482   1.4876776  14.2025351  )
        12           Mn1 tau(  12) = (   6.4327546   3.7153858  14.2013278  )
        13           C1  tau(  13) = (   3.8604963   2.2267783  15.6026944  )
        14           H1  tau(  14) = (   3.8604843   2.2294764  16.6741940  )
        15           H1  tau(  15) = (   5.1469342   2.9713495  14.8339588  )

     number of k points=    40  Fermi-Dirac smearing, width (Ry)=  0.0110
                       cart. coord. in units 2pi/alat
        k(    1) = (   0.0000000   0.0000000   0.0000000), wk =   0.0277778
        k(    2) = (   0.0000000   0.0373904   0.0000000), wk =   0.0555556
        k(    3) = (   0.0000000   0.0747807   0.0000000), wk =   0.0555556
        k(    4) = (   0.0000000  -0.1121711   0.0000000), wk =   0.0277778
        k(    5) = (   0.0323810  -0.0186952  -0.0000000), wk =   0.0555556
        k(    6) = (   0.0323810   0.0186952  -0.0000000), wk =   0.0555556
        k(    7) = (   0.0323810   0.0560856  -0.0000000), wk =   0.0555556
        k(    8) = (   0.0323810  -0.1308663  -0.0000000), wk =   0.0555556
        k(    9) = (   0.0323810  -0.0934759  -0.0000000), wk =   0.0555556
        k(   10) = (   0.0323810  -0.0560856  -0.0000000), wk =   0.0555556
        k(   11) = (   0.0647620  -0.0373904  -0.0000000), wk =   0.0555556
        k(   12) = (   0.0647620  -0.0000000  -0.0000000), wk =   0.0555556
        k(   13) = (   0.0647620   0.0373904  -0.0000000), wk =   0.0555556
        k(   14) = (   0.0647620  -0.1495615  -0.0000000), wk =   0.0555556
        k(   15) = (   0.0647620  -0.1121711  -0.0000000), wk =   0.0555556
        k(   16) = (   0.0647620  -0.0747807  -0.0000000), wk =   0.0555556
        k(   17) = (  -0.0971430   0.0560856   0.0000000), wk =   0.0277778
        k(   18) = (  -0.0971430   0.0934759   0.0000000), wk =   0.0555556
        k(   19) = (  -0.0971430   0.1308663   0.0000000), wk =   0.0555556
        k(   20) = (  -0.0971430  -0.0560856   0.0000000), wk =   0.0277778
        k(   21) = (   0.0000000   0.0000000   0.0000000), wk =   0.0277778
        k(   22) = (   0.0000000   0.0373904   0.0000000), wk =   0.0555556
        k(   23) = (   0.0000000   0.0747807   0.0000000), wk =   0.0555556
        k(   24) = (   0.0000000  -0.1121711   0.0000000), wk =   0.0277778
        k(   25) = (   0.0323810  -0.0186952  -0.0000000), wk =   0.0555556
        k(   26) = (   0.0323810   0.0186952  -0.0000000), wk =   0.0555556
        k(   27) = (   0.0323810   0.0560856  -0.0000000), wk =   0.0555556
        k(   28) = (   0.0323810  -0.1308663  -0.0000000), wk =   0.0555556
        k(   29) = (   0.0323810  -0.0934759  -0.0000000), wk =   0.0555556
        k(   30) = (   0.0323810  -0.0560856  -0.0000000), wk =   0.0555556
        k(   31) = (   0.0647620  -0.0373904  -0.0000000), wk =   0.0555556
        k(   32) = (   0.0647620  -0.0000000  -0.0000000), wk =   0.0555556
        k(   33) = (   0.0647620   0.0373904  -0.0000000), wk =   0.0555556
        k(   34) = (   0.0647620  -0.1495615  -0.0000000), wk =   0.0555556
        k(   35) = (   0.0647620  -0.1121711  -0.0000000), wk =   0.0555556
        k(   36) = (   0.0647620  -0.0747807  -0.0000000), wk =   0.0555556
        k(   37) = (  -0.0971430   0.0560856   0.0000000), wk =   0.0277778
        k(   38) = (  -0.0971430   0.0934759   0.0000000), wk =   0.0555556
        k(   39) = (  -0.0971430   0.1308663   0.0000000), wk =   0.0555556
        k(   40) = (  -0.0971430  -0.0560856   0.0000000), wk =   0.0277778

     Dense  grid:   445881 G-vectors     FFT dimensions: (  60,  60, 288)

     Smooth grid:   112839 G-vectors     FFT dimensions: (  40,  40, 180)

     Largest allocated arrays     est. size (Mb)     dimensions
        Kohn-Sham Wavefunctions         1.13 Mb     (     718,  103)
        NL pseudopotentials             2.50 Mb     (     718,  228)
        Each V/rho on FFT grid          1.65 Mb     (   54000,   2)
        Each G-vector array             0.17 Mb     (   22300)
        G-vector shells                 0.07 Mb     (    9306)
     Largest temporary arrays     est. size (Mb)     dimensions
        Auxiliary wavefunctions         4.51 Mb     (     718,  412)
        Each subspace H/S matrix        0.29 Mb     (     137,  137)
        Each <psi_i|beta_j> matrix      0.36 Mb     (     228,  103)
        Arrays for rho mixing           8.24 Mb     (   54000,   10)

     Check: negative/imaginary core charge=   -0.000010    0.000000

     Initial potential from superposition of free atoms
     Check: negative starting charge=(component1):   -0.001541
     Check: negative starting charge=(component2):   -0.001024

     starting charge  179.99892, renormalised to  186.00000

     negative rho (up, down):  1.593E-03 1.059E-03


     ************************************************************************
     *
     * You are using vdW-DF for exchange-correlation in this calculation.
     * Please cite the following three references that made this development
     * possible:
     *
     *   M. Dion, H. Rydberg, E. Schroder, D. C. Langreth, and
     *   B. I. Lundqvist, Phys. Rev. Lett. 92, 246401 (2004).
     *
     *   T. Thonhauser, V. R. Cooper, S. Li, A. Puzder, P. Hyldgaard, and
     *   D. C. Langreth, Phys. Rev. B 76, 125112 (2007).
     *
     *   G. Roman-Perez and J. M. Soler, Phys. Rev. Lett. 103, 096102 (2009).
     *
     *
     * If you are using vdW-DF2, please also cite:
     *
     *   K. Lee, E. D. Murray, L. Kong, B. I. Lundqvist, and
     *   D. C. Langreth, Phys. Rev. B 82, 081101(R) (2010).
     *
     *
     * If you are calculating the stress with vdW-DF, please also cite:
     *
     *   R. Sabatini, E. Kucukbenli, B. Kolb, T. Thonhauser, and
     *   S. de Gironcoli, J. Phys.: Condens. Matter 24, 424209 (2012).
     *
     ************************************************************************

     Carrying out vdW-DF run using the following parameters:

     Nqs =      20    Nr_points =    1024   r_max =   100.000
     q_mesh =
               0.00001000     0.04494208     0.09755937     0.15916263
               0.23128650     0.31572767     0.41458969     0.53033537
               0.66584808     0.82450364     1.01025438     1.22772762
               1.48234092     1.78043706     2.12944203     2.53805004
               3.01644009     3.57652955     4.23227104     5.00000000

     Gradients computed in reciprocal space

     ************************************************************************


 
     Adding external electric field

     Computed dipole along edir(3) : 
        Dipole               -1.3423 Ry au,         -3.4119 Debye
        Dipole field         -0.0045 Ry au
 
        Potential amp.        0.4015 Ry
        Total length         44.5928 bohr
 
 
     Adding external electric field

     Computed dipole along edir(3) : 
        Dipole               -1.3423 Ry au,         -3.4119 Debye
        Dipole field         -0.0045 Ry au
 
        Potential amp.        0.4015 Ry
        Total length         44.5928 bohr
 
     Starting wfc are  162 randomized atomic wfcs

     total cpu time spent up to now is        7.0 secs

     per-process dynamical memory:    49.2 Mb

     Self-consistent Calculation

     iteration #  1     ecut=    36.75 Ry     beta=0.30
     Davidson diagonalization with overlap
     ethr =  1.00E-02,  avg # of iterations =  2.0

     negative rho (up, down):  1.444E-03 1.031E-03
 
     Adding external electric field

     Computed dipole along edir(3) : 
        Dipole               23.9240 Ry au,         60.8088 Debye
        Dipole field          0.0802 Ry au
 
        Potential amp.       -7.1554 Ry
        Total length         44.5928 bohr
 
 
     Adding external electric field

     Computed dipole along edir(3) : 
        Dipole               23.9240 Ry au,         60.8088 Debye
        Dipole field          0.0802 Ry au
 
        Potential amp.       -7.1554 Ry
        Total length         44.5928 bohr
 
 
     Magnetic moment per site:
     atom:    1    charge:    6.1450    magn:    1.0752    constr:    0.0000
     atom:    2    charge:    6.1453    magn:    1.0749    constr:    0.0000
     atom:    3    charge:    6.1454    magn:    1.0749    constr:    0.0000
     atom:    4    charge:    6.1451    magn:    1.0749    constr:    0.0000
     atom:    5    charge:    6.0153    magn:    1.0281    constr:    0.0000
     atom:    6    charge:    6.0118    magn:    1.0312    constr:    0.0000
     atom:    7    charge:    6.0117    magn:    1.0312    constr:    0.0000
     atom:    8    charge:    6.0132    magn:    1.0302    constr:    0.0000
     atom:    9    charge:    5.7146    magn:    0.9311    constr:    0.0000
     atom:   10    charge:    5.7298    magn:    0.9365    constr:    0.0000
     atom:   11    charge:    5.7301    magn:    0.9365    constr:    0.0000
     atom:   12    charge:    5.7251    magn:    0.9390    constr:    0.0000
     atom:   13    charge:    0.6812    magn:   -0.0067    constr:    0.0000
     atom:   14    charge:    0.3473    magn:    0.0002    constr:    0.0000
     atom:   15    charge:    0.3533    magn:    0.0043    constr:    0.0000

     total cpu time spent up to now is       19.8 secs

     total energy              =   -2498.89915814 Ry
     Harris-Foulkes estimate   =   -2561.26564041 Ry
     estimated scf accuracy    <     130.01869996 Ry

     total magnetization       =    18.47 Bohr mag/cell
     absolute magnetization    =    18.99 Bohr mag/cell

     iteration #  2     ecut=    36.75 Ry     beta=0.30
     Davidson diagonalization with overlap
     ethr =  1.00E-02,  avg # of iterations = 12.3

     negative rho (up, down):  5.687E-04 4.011E-04
 
     Adding external electric field

     Computed dipole along edir(3) : 
        Dipole               -4.7122 Ry au,        -11.9773 Debye
        Dipole field         -0.0158 Ry au
 
        Potential amp.        1.4094 Ry
        Total length         44.5928 bohr
 
 
     Adding external electric field

     Computed dipole along edir(3) : 
        Dipole               -4.7122 Ry au,        -11.9773 Debye
        Dipole field         -0.0158 Ry au
 
        Potential amp.        1.4094 Ry
        Total length         44.5928 bohr
 
 
     Magnetic moment per site:
     atom:    1    charge:    6.0099    magn:    1.0466    constr:    0.0000
     atom:    2    charge:    6.0102    magn:    1.0463    constr:    0.0000
     atom:    3    charge:    6.0102    magn:    1.0464    constr:    0.0000
     atom:    4    charge:    6.0100    magn:    1.0463    constr:    0.0000
     atom:    5    charge:    5.9620    magn:    1.0013    constr:    0.0000
     atom:    6    charge:    5.9586    magn:    1.0044    constr:    0.0000
     atom:    7    charge:    5.9585    magn:    1.0043    constr:    0.0000
     atom:    8    charge:    5.9599    magn:    1.0034    constr:    0.0000
     atom:    9    charge:    5.8005    magn:    0.9089    constr:    0.0000
     atom:   10    charge:    5.8141    magn:    0.9141    constr:    0.0000
     atom:   11    charge:    5.8144    magn:    0.9141    constr:    0.0000
     atom:   12    charge:    5.8105    magn:    0.9165    constr:    0.0000
     atom:   13    charge:    0.7002    magn:   -0.0066    constr:    0.0000
     atom:   14    charge:    0.3571    magn:    0.0002    constr:    0.0000
     atom:   15    charge:    0.3643    magn:    0.0042    constr:    0.0000

     total cpu time spent up to now is       68.6 secs

     total energy              =   -2413.82126753 Ry
     Harris-Foulkes estimate   =   -2878.52048280 Ry
     estimated scf accuracy    <    8944.98995219 Ry

     total magnetization       =     1.29 Bohr mag/cell
     absolute magnetization    =     1.64 Bohr mag/cell

     iteration #  3     ecut=    36.75 Ry     beta=0.30
     Davidson diagonalization with overlap
     ethr =  1.00E-02,  avg # of iterations =  9.2

     negative rho (up, down):  6.668E-04 5.010E-04
 
     Adding external electric field

     Computed dipole along edir(3) : 
        Dipole               -1.5710 Ry au,         -3.9931 Debye
        Dipole field         -0.0053 Ry au
 
        Potential amp.        0.4699 Ry
        Total length         44.5928 bohr
 
 
     Adding external electric field

     Computed dipole along edir(3) : 
        Dipole               -1.5710 Ry au,         -3.9931 Debye
        Dipole field         -0.0053 Ry au
 
        Potential amp.        0.4699 Ry
        Total length         44.5928 bohr
 
 
     Magnetic moment per site:
     atom:    1    charge:    5.9503    magn:    0.9883    constr:    0.0000
     atom:    2    charge:    5.9506    magn:    0.9880    constr:    0.0000
     atom:    3    charge:    5.9507    magn:    0.9881    constr:    0.0000
     atom:    4    charge:    5.9504    magn:    0.9880    constr:    0.0000
     atom:    5    charge:    6.0224    magn:    1.0023    constr:    0.0000
     atom:    6    charge:    6.0302    magn:    1.0025    constr:    0.0000
     atom:    7    charge:    6.0309    magn:    1.0024    constr:    0.0000
     atom:    8    charge:    6.0295    magn:    1.0044    constr:    0.0000
     atom:    9    charge:    5.9604    magn:    0.8624    constr:    0.0000
     atom:   10    charge:    5.9708    magn:    0.8673    constr:    0.0000
     atom:   11    charge:    5.9710    magn:    0.8674    constr:    0.0000
     atom:   12    charge:    5.9687    magn:    0.8694    constr:    0.0000
     atom:   13    charge:    0.6665    magn:   -0.0065    constr:    0.0000
     atom:   14    charge:    0.3366    magn:   -0.0001    constr:    0.0000
     atom:   15    charge:    0.3700    magn:    0.0036    constr:    0.0000

     total cpu time spent up to now is      102.0 secs

     total energy              =   -2553.07100172 Ry
     Harris-Foulkes estimate   =   -2612.95130481 Ry
     estimated scf accuracy    <     899.00258120 Ry

     total magnetization       =     7.49 Bohr mag/cell
     absolute magnetization    =     8.16 Bohr mag/cell

     iteration #  4     ecut=    36.75 Ry     beta=0.30
     Davidson diagonalization with overlap
     ethr =  1.00E-02,  avg # of iterations =  6.3

     negative rho (up, down):  9.384E-04 6.065E-04
 
     Adding external electric field

     Computed dipole along edir(3) : 
        Dipole               -0.4830 Ry au,         -1.2276 Debye
        Dipole field         -0.0016 Ry au
 
        Potential amp.        0.1445 Ry
        Total length         44.5928 bohr
 
 
     Adding external electric field

     Computed dipole along edir(3) : 
        Dipole               -0.4830 Ry au,         -1.2276 Debye
        Dipole field         -0.0016 Ry au
 
        Potential amp.        0.1445 Ry
        Total length         44.5928 bohr
 
 
     Magnetic moment per site:
     atom:    1    charge:    5.9856    magn:    1.0024    constr:    0.0000
     atom:    2    charge:    5.9857    magn:    1.0018    constr:    0.0000
     atom:    3    charge:    5.9857    magn:    1.0020    constr:    0.0000
     atom:    4    charge:    5.9858    magn:    1.0023    constr:    0.0000
     atom:    5    charge:    5.9563    magn:    0.9745    constr:    0.0000
     atom:    6    charge:    5.9561    magn:    0.9715    constr:    0.0000
     atom:    7    charge:    5.9560    magn:    0.9711    constr:    0.0000
     atom:    8    charge:    5.9583    magn:    0.9738    constr:    0.0000
     atom:    9    charge:    6.0238    magn:    0.8333    constr:    0.0000
     atom:   10    charge:    6.0262    magn:    0.8398    constr:    0.0000
     atom:   11    charge:    6.0262    magn:    0.8399    constr:    0.0000
     atom:   12    charge:    6.0319    magn:    0.8386    constr:    0.0000
     atom:   13    charge:    0.6639    magn:   -0.0062    constr:    0.0000
     atom:   14    charge:    0.3419    magn:    0.0001    constr:    0.0000
     atom:   15    charge:    0.3698    magn:    0.0030    constr:    0.0000

     total cpu time spent up to now is      126.6 secs

     total energy              =   -2556.45324448 Ry
     Harris-Foulkes estimate   =   -2563.40579646 Ry
     estimated scf accuracy    <     169.63219998 Ry

     total magnetization       =    16.18 Bohr mag/cell
     absolute magnetization    =    16.40 Bohr mag/cell

     iteration #  5     ecut=    36.75 Ry     beta=0.30
     Davidson diagonalization with overlap
     ethr =  1.00E-02,  avg # of iterations =  3.9

     negative rho (up, down):  2.323E-02 2.282E-02
 
     Adding external electric field

     Computed dipole along edir(3) : 
        Dipole               -0.3575 Ry au,         -0.9086 Debye
        Dipole field         -0.0012 Ry au
 
        Potential amp.        0.1069 Ry
        Total length         44.5928 bohr
 
 
     Adding external electric field

     Computed dipole along edir(3) : 
        Dipole               -0.3575 Ry au,         -0.9086 Debye
        Dipole field         -0.0012 Ry au
 
        Potential amp.        0.1069 Ry
        Total length         44.5928 bohr
 
 
     Magnetic moment per site:
     atom:    1    charge:    5.9807    magn:    1.0059    constr:    0.0000
     atom:    2    charge:    5.9790    magn:    1.0035    constr:    0.0000
     atom:    3    charge:    5.9804    magn:    1.0059    constr:    0.0000
     atom:    4    charge:    5.9797    magn:    1.0043    constr:    0.0000
     atom:    5    charge:    5.9607    magn:    0.8325    constr:    0.0000
     atom:    6    charge:    5.9330    magn:    0.8264    constr:    0.0000
     atom:    7    charge:    5.9341    magn:    0.8304    constr:    0.0000
     atom:    8    charge:    5.9378    magn:    0.8394    constr:    0.0000
     atom:    9    charge:    6.0347    magn:    0.8381    constr:    0.0000
     atom:   10    charge:    6.0054    magn:    0.8470    constr:    0.0000
     atom:   11    charge:    6.0048    magn:    0.8475    constr:    0.0000
     atom:   12    charge:    6.0560    magn:    0.8553    constr:    0.0000
     atom:   13    charge:    0.6417    magn:   -0.0099    constr:    0.0000
     atom:   14    charge:    0.3689    magn:    0.0011    constr:    0.0000
     atom:   15    charge:    0.3713    magn:   -0.0005    constr:    0.0000

     total cpu time spent up to now is      139.5 secs

     total energy              =   -2554.94082958 Ry
     Harris-Foulkes estimate   =   -2558.97083455 Ry
     estimated scf accuracy    <      61.23249268 Ry

     total magnetization       =    18.17 Bohr mag/cell
     absolute magnetization    =    18.83 Bohr mag/cell

     iteration #  6     ecut=    36.75 Ry     beta=0.30
     Davidson diagonalization with overlap
     ethr =  1.00E-02,  avg # of iterations =  5.5

     negative rho (up, down):  6.871E-04 5.805E-04
 
     Adding external electric field

     Computed dipole along edir(3) : 
        Dipole               -1.1450 Ry au,         -2.9104 Debye
        Dipole field         -0.0038 Ry au
 
        Potential amp.        0.3425 Ry
        Total length         44.5928 bohr
 
 
     Adding external electric field

     Computed dipole along edir(3) : 
        Dipole               -1.1450 Ry au,         -2.9104 Debye
        Dipole field         -0.0038 Ry au
 
        Potential amp.        0.3425 Ry
        Total length         44.5928 bohr
 
 
     Magnetic moment per site:
     atom:    1    charge:    6.0003    magn:    0.9503    constr:    0.0000
     atom:    2    charge:    6.0028    magn:    0.9454    constr:    0.0000
     atom:    3    charge:    6.0008    magn:    0.9489    constr:    0.0000
     atom:    4    charge:    6.0019    magn:    0.9477    constr:    0.0000
     atom:    5    charge:    5.9580    magn:    0.8434    constr:    0.0000
     atom:    6    charge:    5.9934    magn:    0.8083    constr:    0.0000
     atom:    7    charge:    5.9922    magn:    0.8115    constr:    0.0000
     atom:    8    charge:    5.9892    magn:    0.8230    constr:    0.0000
     atom:    9    charge:    6.0207    magn:    0.7241    constr:    0.0000
     atom:   10    charge:    6.0219    magn:    0.7467    constr:    0.0000
     atom:   11    charge:    6.0222    magn:    0.7476    constr:    0.0000
     atom:   12    charge:    6.0280    magn:    0.7320    constr:    0.0000
     atom:   13    charge:    0.6344    magn:   -0.0081    constr:    0.0000
     atom:   14    charge:    0.3667    magn:    0.0006    constr:    0.0000
     atom:   15    charge:    0.3788    magn:   -0.0007    constr:    0.0000

     total cpu time spent up to now is      158.7 secs

     total energy              =   -2555.49547584 Ry
     Harris-Foulkes estimate   =   -2563.09598128 Ry
     estimated scf accuracy    <     315.93798635 Ry

     total magnetization       =    12.96 Bohr mag/cell
     absolute magnetization    =    13.83 Bohr mag/cell

     iteration #  7     ecut=    36.75 Ry     beta=0.30
     Davidson diagonalization with overlap
     ethr =  1.00E-02,  avg # of iterations =  3.5

     negative rho (up, down):  7.707E-04 6.973E-04
 
     Adding external electric field

     Computed dipole along edir(3) : 
        Dipole               -1.2304 Ry au,         -3.1274 Debye
        Dipole field         -0.0041 Ry au
 
        Potential amp.        0.3680 Ry
        Total length         44.5928 bohr
 
 
     Adding external electric field

     Computed dipole along edir(3) : 
        Dipole               -1.2304 Ry au,         -3.1274 Debye
        Dipole field         -0.0041 Ry au
 
        Potential amp.        0.3680 Ry
        Total length         44.5928 bohr
 
 
     Magnetic moment per site:
     atom:    1    charge:    6.0008    magn:    0.9532    constr:    0.0000
     atom:    2    charge:    6.0022    magn:    0.9488    constr:    0.0000
     atom:    3    charge:    6.0015    magn:    0.9522    constr:    0.0000
     atom:    4    charge:    6.0017    magn:    0.9512    constr:    0.0000
     atom:    5    charge:    5.9746    magn:    0.8335    constr:    0.0000
     atom:    6    charge:    5.9920    magn:    0.8063    constr:    0.0000
     atom:    7    charge:    5.9914    magn:    0.8087    constr:    0.0000
     atom:    8    charge:    5.9891    magn:    0.8209    constr:    0.0000
     atom:    9    charge:    6.0108    magn:    0.6989    constr:    0.0000
     atom:   10    charge:    6.0260    magn:    0.7231    constr:    0.0000
     atom:   11    charge:    6.0265    magn:    0.7239    constr:    0.0000
     atom:   12    charge:    6.0126    magn:    0.7065    constr:    0.0000
     atom:   13    charge:    0.6363    magn:   -0.0093    constr:    0.0000
     atom:   14    charge:    0.3683    magn:    0.0004    constr:    0.0000
     atom:   15    charge:    0.3799    magn:   -0.0012    constr:    0.0000

     total cpu time spent up to now is      171.0 secs

     total energy              =   -2557.75555025 Ry
     Harris-Foulkes estimate   =   -2558.11051635 Ry
     estimated scf accuracy    <      40.93263656 Ry

     total magnetization       =    15.99 Bohr mag/cell
     absolute magnetization    =    17.62 Bohr mag/cell

     iteration #  8     ecut=    36.75 Ry     beta=0.30
     Davidson diagonalization with overlap
     ethr =  1.00E-02,  avg # of iterations =  1.4

     negative rho (up, down):  7.998E-04 8.184E-04
 
     Adding external electric field

     Computed dipole along edir(3) : 
        Dipole               -1.5740 Ry au,         -4.0006 Debye
        Dipole field         -0.0053 Ry au
 
        Potential amp.        0.4708 Ry
        Total length         44.5928 bohr
 
 
     Adding external electric field

     Computed dipole along edir(3) : 
        Dipole               -1.5740 Ry au,         -4.0006 Debye
        Dipole field         -0.0053 Ry au
 
        Potential amp.        0.4708 Ry
        Total length         44.5928 bohr
 
 
     Magnetic moment per site:
     atom:    1    charge:    6.0068    magn:    0.9639    constr:    0.0000
     atom:    2    charge:    6.0066    magn:    0.9595    constr:    0.0000
     atom:    3    charge:    6.0025    magn:    0.9631    constr:    0.0000
     atom:    4    charge:    6.0055    magn:    0.9615    constr:    0.0000
     atom:    5    charge:    5.9847    magn:    0.8260    constr:    0.0000
     atom:    6    charge:    6.0149    magn:    0.7916    constr:    0.0000
     atom:    7    charge:    6.0144    magn:    0.7925    constr:    0.0000
     atom:    8    charge:    6.0050    magn:    0.8167    constr:    0.0000
     atom:    9    charge:    5.9870    magn:    0.5815    constr:    0.0000
     atom:   10    charge:    5.9981    magn:    0.6035    constr:    0.0000
     atom:   11    charge:    6.0003    magn:    0.6045    constr:    0.0000
     atom:   12    charge:    5.9809    magn:    0.5977    constr:    0.0000
     atom:   13    charge:    0.6391    magn:   -0.0148    constr:    0.0000
     atom:   14    charge:    0.3737    magn:   -0.0009    constr:    0.0000
     atom:   15    charge:    0.3853    magn:   -0.0031    constr:    0.0000

     total cpu time spent up to now is      181.4 secs

     total energy              =   -2557.21083990 Ry
     Harris-Foulkes estimate   =   -2558.07222934 Ry
     estimated scf accuracy    <      29.04681984 Ry

     total magnetization       =    16.40 Bohr mag/cell
     absolute magnetization    =    18.01 Bohr mag/cell

     iteration #  9     ecut=    36.75 Ry     beta=0.30
     Davidson diagonalization with overlap
     ethr =  1.00E-02,  avg # of iterations =  2.6

     negative rho (up, down):  8.255E-04 7.940E-04
 
     Adding external electric field

     Computed dipole along edir(3) : 
        Dipole               -1.6101 Ry au,         -4.0924 Debye
        Dipole field         -0.0054 Ry au
 
        Potential amp.        0.4816 Ry
        Total length         44.5928 bohr
 
 
     Adding external electric field

     Computed dipole along edir(3) : 
        Dipole               -1.6101 Ry au,         -4.0924 Debye
        Dipole field         -0.0054 Ry au
 
        Potential amp.        0.4816 Ry
        Total length         44.5928 bohr
 
 
     Magnetic moment per site:
     atom:    1    charge:    5.9957    magn:    0.9488    constr:    0.0000
     atom:    2    charge:    5.9985    magn:    0.9434    constr:    0.0000
     atom:    3    charge:    6.0118    magn:    0.9448    constr:    0.0000
     atom:    4    charge:    6.0011    magn:    0.9428    constr:    0.0000
     atom:    5    charge:    5.9845    magn:    0.8030    constr:    0.0000
     atom:    6    charge:    5.9853    magn:    0.7580    constr:    0.0000
     atom:    7    charge:    5.9853    magn:    0.7595    constr:    0.0000
     atom:    8    charge:    6.0078    magn:    0.7906    constr:    0.0000
     atom:    9    charge:    5.9660    magn:    0.4639    constr:    0.0000
     atom:   10    charge:    5.9798    magn:    0.4914    constr:    0.0000
     atom:   11    charge:    5.9784    magn:    0.4935    constr:    0.0000
     atom:   12    charge:    5.9855    magn:    0.4868    constr:    0.0000
     atom:   13    charge:    0.6340    magn:   -0.0215    constr:    0.0000
     atom:   14    charge:    0.3816    magn:   -0.0020    constr:    0.0000
     atom:   15    charge:    0.3910    magn:   -0.0055    constr:    0.0000

     total cpu time spent up to now is      193.0 secs

     total energy              =   -2557.71776098 Ry
     Harris-Foulkes estimate   =   -2557.86776551 Ry
     estimated scf accuracy    <       8.90589594 Ry

     total magnetization       =    15.47 Bohr mag/cell
     absolute magnetization    =    17.46 Bohr mag/cell

     iteration # 10     ecut=    36.75 Ry     beta=0.30
     Davidson diagonalization with overlap
     ethr =  4.79E-03,  avg # of iterations =  5.5

     negative rho (up, down):  7.724E-04 7.199E-04
 
     Adding external electric field

     Computed dipole along edir(3) : 
        Dipole               -1.2625 Ry au,         -3.2089 Debye
        Dipole field         -0.0042 Ry au
 
        Potential amp.        0.3776 Ry
        Total length         44.5928 bohr
 
 
     Adding external electric field

     Computed dipole along edir(3) : 
        Dipole               -1.2625 Ry au,         -3.2089 Debye
        Dipole field         -0.0042 Ry au
 
        Potential amp.        0.3776 Ry
        Total length         44.5928 bohr
 
 
     Magnetic moment per site:
     atom:    1    charge:    5.9912    magn:    0.9331    constr:    0.0000
     atom:    2    charge:    5.9877    magn:    0.9226    constr:    0.0000
     atom:    3    charge:    5.9855    magn:    0.9056    constr:    0.0000
     atom:    4    charge:    5.9891    magn:    0.9181    constr:    0.0000
     atom:    5    charge:    5.9785    magn:    0.7503    constr:    0.0000
     atom:    6    charge:    5.9804    magn:    0.7121    constr:    0.0000
     atom:    7    charge:    5.9828    magn:    0.7147    constr:    0.0000
     atom:    8    charge:    5.9750    magn:    0.7328    constr:    0.0000
     atom:    9    charge:    5.9732    magn:    0.3437    constr:    0.0000
     atom:   10    charge:    5.9807    magn:    0.3854    constr:    0.0000
     atom:   11    charge:    5.9773    magn:    0.3882    constr:    0.0000
     atom:   12    charge:    6.0036    magn:    0.3686    constr:    0.0000
     atom:   13    charge:    0.6309    magn:   -0.0274    constr:    0.0000
     atom:   14    charge:    0.3968    magn:   -0.0025    constr:    0.0000
     atom:   15    charge:    0.3941    magn:   -0.0082    constr:    0.0000

     total cpu time spent up to now is      213.2 secs

     total energy              =   -2559.05131295 Ry
     Harris-Foulkes estimate   =   -2560.62751556 Ry
     estimated scf accuracy    <     140.80805214 Ry

     total magnetization       =    16.45 Bohr mag/cell
     absolute magnetization    =    16.90 Bohr mag/cell

     iteration # 11     ecut=    36.75 Ry     beta=0.30
     Davidson diagonalization with overlap
     ethr =  4.79E-03,  avg # of iterations =  1.0

     negative rho (up, down):  1.004E-03 8.486E-04
 
     Adding external electric field

     Computed dipole along edir(3) : 
        Dipole               -1.0347 Ry au,         -2.6299 Debye
        Dipole field         -0.0035 Ry au
 
        Potential amp.        0.3095 Ry
        Total length         44.5928 bohr
 
 
     Adding external electric field

     Computed dipole along edir(3) : 
        Dipole               -1.0347 Ry au,         -2.6299 Debye
        Dipole field         -0.0035 Ry au
 
        Potential amp.        0.3095 Ry
        Total length         44.5928 bohr
 
 
     Magnetic moment per site:
     atom:    1    charge:    5.9884    magn:    0.9122    constr:    0.0000
     atom:    2    charge:    5.9878    magn:    0.8994    constr:    0.0000
     atom:    3    charge:    5.9753    magn:    0.8758    constr:    0.0000
     atom:    4    charge:    5.9854    magn:    0.8948    constr:    0.0000
     atom:    5    charge:    5.9790    magn:    0.7252    constr:    0.0000
     atom:    6    charge:    5.9770    magn:    0.7004    constr:    0.0000
     atom:    7    charge:    5.9748    magn:    0.7040    constr:    0.0000
     atom:    8    charge:    5.9791    magn:    0.7100    constr:    0.0000
     atom:    9    charge:    5.9897    magn:    0.3411    constr:    0.0000
     atom:   10    charge:    5.9778    magn:    0.3889    constr:    0.0000
     atom:   11    charge:    5.9789    magn:    0.3906    constr:    0.0000
     atom:   12    charge:    5.9942    magn:    0.3749    constr:    0.0000
     atom:   13    charge:    0.6293    magn:   -0.0273    constr:    0.0000
     atom:   14    charge:    0.3998    magn:   -0.0021    constr:    0.0000
     atom:   15    charge:    0.3941    magn:   -0.0084    constr:    0.0000

     total cpu time spent up to now is      223.3 secs

     total energy              =   -2558.84524767 Ry
     Harris-Foulkes estimate   =   -2559.31165915 Ry
     estimated scf accuracy    <      60.46913783 Ry

     total magnetization       =    14.68 Bohr mag/cell
     absolute magnetization    =    15.06 Bohr mag/cell

     iteration # 12     ecut=    36.75 Ry     beta=0.30
     Davidson diagonalization with overlap
     ethr =  4.79E-03,  avg # of iterations =  1.8

     negative rho (up, down):  1.012E-03 7.538E-04
 
     Adding external electric field

     Computed dipole along edir(3) : 
        Dipole               -0.7784 Ry au,         -1.9784 Debye
        Dipole field         -0.0026 Ry au
 
        Potential amp.        0.2328 Ry
        Total length         44.5928 bohr
 
 
     Adding external electric field

     Computed dipole along edir(3) : 
        Dipole               -0.7784 Ry au,         -1.9784 Debye
        Dipole field         -0.0026 Ry au
 
        Potential amp.        0.2328 Ry
        Total length         44.5928 bohr
 
 
     Magnetic moment per site:
     atom:    1    charge:    5.9856    magn:    0.8883    constr:    0.0000
     atom:    2    charge:    5.9860    magn:    0.8758    constr:    0.0000
     atom:    3    charge:    5.9757    magn:    0.8495    constr:    0.0000
     atom:    4    charge:    5.9815    magn:    0.8697    constr:    0.0000
     atom:    5    charge:    5.9757    magn:    0.7174    constr:    0.0000
     atom:    6    charge:    5.9868    magn:    0.7161    constr:    0.0000
     atom:    7    charge:    5.9850    magn:    0.7190    constr:    0.0000
     atom:    8    charge:    5.9775    magn:    0.7100    constr:    0.0000
     atom:    9    charge:    5.9876    magn:    0.4343    constr:    0.0000
     atom:   10    charge:    5.9913    magn:    0.4778    constr:    0.0000
     atom:   11    charge:    5.9881    magn:    0.4791    constr:    0.0000
     atom:   12    charge:    5.9985    magn:    0.4685    constr:    0.0000
     atom:   13    charge:    0.6317    magn:   -0.0223    constr:    0.0000
     atom:   14    charge:    0.3952    magn:   -0.0009    constr:    0.0000
     atom:   15    charge:    0.3903    magn:   -0.0067    constr:    0.0000

     total cpu time spent up to now is      234.0 secs

     total energy              =   -2558.73276687 Ry
     Harris-Foulkes estimate   =   -2559.01127381 Ry
     estimated scf accuracy    <      25.42336184 Ry

     total magnetization       =    13.93 Bohr mag/cell
     absolute magnetization    =    14.38 Bohr mag/cell

     iteration # 13     ecut=    36.75 Ry     beta=0.30
     Davidson diagonalization with overlap
     ethr =  4.79E-03,  avg # of iterations =  1.1

     negative rho (up, down):  1.086E-03 7.005E-04
 
     Adding external electric field

     Computed dipole along edir(3) : 
        Dipole               -0.5124 Ry au,         -1.3024 Debye
        Dipole field         -0.0017 Ry au
 
        Potential amp.        0.1533 Ry
        Total length         44.5928 bohr
 
 
     Adding external electric field

     Computed dipole along edir(3) : 
        Dipole               -0.5124 Ry au,         -1.3024 Debye
        Dipole field         -0.0017 Ry au
 
        Potential amp.        0.1533 Ry
        Total length         44.5928 bohr
 
 
     Magnetic moment per site:
     atom:    1    charge:    5.9840    magn:    0.8698    constr:    0.0000
     atom:    2    charge:    5.9828    magn:    0.8568    constr:    0.0000
     atom:    3    charge:    5.9757    magn:    0.8246    constr:    0.0000
     atom:    4    charge:    5.9802    magn:    0.8480    constr:    0.0000
     atom:    5    charge:    5.9793    magn:    0.6888    constr:    0.0000
     atom:    6    charge:    5.9857    magn:    0.7022    constr:    0.0000
     atom:    7    charge:    5.9857    magn:    0.7050    constr:    0.0000
     atom:    8    charge:    5.9718    magn:    0.6860    constr:    0.0000
     atom:    9    charge:    5.9929    magn:    0.4343    constr:    0.0000
     atom:   10    charge:    5.9895    magn:    0.4801    constr:    0.0000
     atom:   11    charge:    5.9894    magn:    0.4808    constr:    0.0000
     atom:   12    charge:    6.0018    magn:    0.4723    constr:    0.0000
     atom:   13    charge:    0.6315    magn:   -0.0219    constr:    0.0000
     atom:   14    charge:    0.3980    magn:   -0.0005    constr:    0.0000
     atom:   15    charge:    0.3903    magn:   -0.0069    constr:    0.0000

     total cpu time spent up to now is      244.3 secs

     total energy              =   -2558.74718706 Ry
     Harris-Foulkes estimate   =   -2558.85712941 Ry
     estimated scf accuracy    <       9.28713734 Ry

     total magnetization       =    13.97 Bohr mag/cell
     absolute magnetization    =    14.43 Bohr mag/cell

     iteration # 14     ecut=    36.75 Ry     beta=0.30
     Davidson diagonalization with overlap
     ethr =  4.79E-03,  avg # of iterations =  1.6

     negative rho (up, down):  1.062E-03 7.357E-04
 
     Adding external electric field

     Computed dipole along edir(3) : 
        Dipole               -0.4891 Ry au,         -1.2433 Debye
        Dipole field         -0.0016 Ry au
 
        Potential amp.        0.1463 Ry
        Total length         44.5928 bohr
 
 
     Adding external electric field

     Computed dipole along edir(3) : 
        Dipole               -0.4891 Ry au,         -1.2433 Debye
        Dipole field         -0.0016 Ry au
 
        Potential amp.        0.1463 Ry
        Total length         44.5928 bohr
 
 
     Magnetic moment per site:
     atom:    1    charge:    5.9854    magn:    0.8288    constr:    0.0000
     atom:    2    charge:    5.9827    magn:    0.8168    constr:    0.0000
     atom:    3    charge:    5.9789    magn:    0.7786    constr:    0.0000
     atom:    4    charge:    5.9836    magn:    0.8031    constr:    0.0000
     atom:    5    charge:    5.9798    magn:    0.6500    constr:    0.0000
     atom:    6    charge:    5.9910    magn:    0.6800    constr:    0.0000
     atom:    7    charge:    5.9919    magn:    0.6829    constr:    0.0000
     atom:    8    charge:    5.9824    magn:    0.6503    constr:    0.0000
     atom:    9    charge:    5.9860    magn:    0.4364    constr:    0.0000
     atom:   10    charge:    5.9892    magn:    0.4819    constr:    0.0000
     atom:   11    charge:    5.9855    magn:    0.4806    constr:    0.0000
     atom:   12    charge:    5.9957    magn:    0.4802    constr:    0.0000
     atom:   13    charge:    0.6333    magn:   -0.0205    constr:    0.0000
     atom:   14    charge:    0.3998    magn:   -0.0000    constr:    0.0000
     atom:   15    charge:    0.3915    magn:   -0.0068    constr:    0.0000

     total cpu time spent up to now is      254.7 secs

     total energy              =   -2558.91748292 Ry
     Harris-Foulkes estimate   =   -2558.84713119 Ry
     estimated scf accuracy    <       1.37388232 Ry

     total magnetization       =    13.12 Bohr mag/cell
     absolute magnetization    =    13.81 Bohr mag/cell

     iteration # 15     ecut=    36.75 Ry     beta=0.30
     Davidson diagonalization with overlap
     ethr =  7.39E-04,  avg # of iterations =  6.7

     negative rho (up, down):  9.160E-04 8.030E-04
 
     Adding external electric field

     Computed dipole along edir(3) : 
        Dipole               -0.4275 Ry au,         -1.0865 Debye
        Dipole field         -0.0014 Ry au
 
        Potential amp.        0.1279 Ry
        Total length         44.5928 bohr
 
 
     Adding external electric field

     Computed dipole along edir(3) : 
        Dipole               -0.4275 Ry au,         -1.0865 Debye
        Dipole field         -0.0014 Ry au
 
        Potential amp.        0.1279 Ry
        Total length         44.5928 bohr
 
 
     Magnetic moment per site:
     atom:    1    charge:    5.9887    magn:    0.8156    constr:    0.0000
     atom:    2    charge:    5.9924    magn:    0.8064    constr:    0.0000
     atom:    3    charge:    5.9896    magn:    0.7641    constr:    0.0000
     atom:    4    charge:    5.9865    magn:    0.7900    constr:    0.0000
     atom:    5    charge:    5.9900    magn:    0.6244    constr:    0.0000
     atom:    6    charge:    5.9893    magn:    0.6387    constr:    0.0000
     atom:    7    charge:    5.9881    magn:    0.6403    constr:    0.0000
     atom:    8    charge:    5.9962    magn:    0.6333    constr:    0.0000
     atom:    9    charge:    5.9911    magn:    0.4179    constr:    0.0000
     atom:   10    charge:    5.9907    magn:    0.4627    constr:    0.0000
     atom:   11    charge:    5.9895    magn:    0.4621    constr:    0.0000
     atom:   12    charge:    6.0128    magn:    0.4615    constr:    0.0000
     atom:   13    charge:    0.6317    magn:   -0.0198    constr:    0.0000
     atom:   14    charge:    0.4054    magn:    0.0006    constr:    0.0000
     atom:   15    charge:    0.3921    magn:   -0.0071    constr:    0.0000

     total cpu time spent up to now is      271.7 secs

     total energy              =   -2559.00974267 Ry
     Harris-Foulkes estimate   =   -2559.11048600 Ry
     estimated scf accuracy    <       2.66034593 Ry

     total magnetization       =    16.14 Bohr mag/cell
     absolute magnetization    =    16.55 Bohr mag/cell

     iteration # 16     ecut=    36.75 Ry     beta=0.30
     Davidson diagonalization with overlap
     ethr =  7.39E-04,  avg # of iterations =  1.1

     negative rho (up, down):  9.378E-04 9.020E-04
 
     Adding external electric field

     Computed dipole along edir(3) : 
        Dipole               -0.3709 Ry au,         -0.9428 Debye
        Dipole field         -0.0012 Ry au
 
        Potential amp.        0.1109 Ry
        Total length         44.5928 bohr
 
 
     Adding external electric field

     Computed dipole along edir(3) : 
        Dipole               -0.3709 Ry au,         -0.9428 Debye
        Dipole field         -0.0012 Ry au
 
        Potential amp.        0.1109 Ry
        Total length         44.5928 bohr
 
 
     Magnetic moment per site:
     atom:    1    charge:    5.9921    magn:    0.8253    constr:    0.0000
     atom:    2    charge:    5.9943    magn:    0.8208    constr:    0.0000
     atom:    3    charge:    5.9951    magn:    0.7869    constr:    0.0000
     atom:    4    charge:    5.9910    magn:    0.8046    constr:    0.0000
     atom:    5    charge:    5.9844    magn:    0.6382    constr:    0.0000
     atom:    6    charge:    5.9875    magn:    0.6299    constr:    0.0000
     atom:    7    charge:    5.9866    magn:    0.6297    constr:    0.0000
     atom:    8    charge:    5.9871    magn:    0.6517    constr:    0.0000
     atom:    9    charge:    5.9916    magn:    0.4423    constr:    0.0000
     atom:   10    charge:    5.9976    magn:    0.4770    constr:    0.0000
     atom:   11    charge:    5.9921    magn:    0.4796    constr:    0.0000
     atom:   12    charge:    6.0011    magn:    0.4914    constr:    0.0000
     atom:   13    charge:    0.6293    magn:   -0.0193    constr:    0.0000
     atom:   14    charge:    0.4035    magn:    0.0006    constr:    0.0000
     atom:   15    charge:    0.3913    magn:   -0.0067    constr:    0.0000

     total cpu time spent up to now is      281.9 secs

     total energy              =   -2558.99079119 Ry
     Harris-Foulkes estimate   =   -2559.06119215 Ry
     estimated scf accuracy    <       2.20316382 Ry

     total magnetization       =    14.98 Bohr mag/cell
     absolute magnetization    =    15.54 Bohr mag/cell

     iteration # 17     ecut=    36.75 Ry     beta=0.30
     Davidson diagonalization with overlap
     ethr =  7.39E-04,  avg # of iterations =  3.2

     negative rho (up, down):  9.002E-04 9.125E-04
 
     Adding external electric field

     Computed dipole along edir(3) : 
        Dipole               -0.3156 Ry au,         -0.8022 Debye
        Dipole field         -0.0011 Ry au
 
        Potential amp.        0.0944 Ry
        Total length         44.5928 bohr
 
 
     Adding external electric field

     Computed dipole along edir(3) : 
        Dipole               -0.3156 Ry au,         -0.8022 Debye
        Dipole field         -0.0011 Ry au
 
        Potential amp.        0.0944 Ry
        Total length         44.5928 bohr
 
 
     Magnetic moment per site:
     atom:    1    charge:    5.9970    magn:    0.8112    constr:    0.0000
     atom:    2    charge:    5.9949    magn:    0.8085    constr:    0.0000
     atom:    3    charge:    5.9848    magn:    0.7725    constr:    0.0000
     atom:    4    charge:    5.9953    magn:    0.7917    constr:    0.0000
     atom:    5    charge:    5.9875    magn:    0.6072    constr:    0.0000
     atom:    6    charge:    5.9820    magn:    0.6006    constr:    0.0000
     atom:    7    charge:    5.9830    magn:    0.6010    constr:    0.0000
     atom:    8    charge:    5.9821    magn:    0.6348    constr:    0.0000
     atom:    9    charge:    5.9834    magn:    0.4148    constr:    0.0000
     atom:   10    charge:    5.9838    magn:    0.4470    constr:    0.0000
     atom:   11    charge:    5.9921    magn:    0.4536    constr:    0.0000
     atom:   12    charge:    6.0040    magn:    0.4727    constr:    0.0000
     atom:   13    charge:    0.6292    magn:   -0.0196    constr:    0.0000
     atom:   14    charge:    0.4084    magn:    0.0012    constr:    0.0000
     atom:   15    charge:    0.3926    magn:   -0.0072    constr:    0.0000

     total cpu time spent up to now is      294.2 secs

     total energy              =   -2559.05854628 Ry
     Harris-Foulkes estimate   =   -2559.06551371 Ry
     estimated scf accuracy    <       3.23174614 Ry

     total magnetization       =    15.83 Bohr mag/cell
     absolute magnetization    =    16.28 Bohr mag/cell

     iteration # 18     ecut=    36.75 Ry     beta=0.30
     Davidson diagonalization with overlap
     ethr =  7.39E-04,  avg # of iterations =  1.2

     negative rho (up, down):  9.307E-04 9.593E-04
 
     Adding external electric field

     Computed dipole along edir(3) : 
        Dipole               -0.2881 Ry au,         -0.7322 Debye
        Dipole field         -0.0010 Ry au
 
        Potential amp.        0.0862 Ry
        Total length         44.5928 bohr
 
 
     Adding external electric field

     Computed dipole along edir(3) : 
        Dipole               -0.2881 Ry au,         -0.7322 Debye
        Dipole field         -0.0010 Ry au
 
        Potential amp.        0.0862 Ry
        Total length         44.5928 bohr
 
 
     Magnetic moment per site:
     atom:    1    charge:    5.9963    magn:    0.8216    constr:    0.0000
     atom:    2    charge:    5.9988    magn:    0.8191    constr:    0.0000
     atom:    3    charge:    5.9933    magn:    0.7830    constr:    0.0000
     atom:    4    charge:    5.9935    magn:    0.8045    constr:    0.0000
     atom:    5    charge:    5.9799    magn:    0.6127    constr:    0.0000
     atom:    6    charge:    5.9874    magn:    0.5904    constr:    0.0000
     atom:    7    charge:    5.9863    magn:    0.5916    constr:    0.0000
     atom:    8    charge:    5.9872    magn:    0.6426    constr:    0.0000
     atom:    9    charge:    5.9874    magn:    0.3959    constr:    0.0000
     atom:   10    charge:    5.9878    magn:    0.4212    constr:    0.0000
     atom:   11    charge:    5.9845    magn:    0.4364    constr:    0.0000
     atom:   12    charge:    6.0000    magn:    0.4607    constr:    0.0000
     atom:   13    charge:    0.6286    magn:   -0.0197    constr:    0.0000
     atom:   14    charge:    0.4088    magn:    0.0012    constr:    0.0000
     atom:   15    charge:    0.3930    magn:   -0.0073    constr:    0.0000

     total cpu time spent up to now is      304.5 secs

     total energy              =   -2559.03222376 Ry
     Harris-Foulkes estimate   =   -2559.08645016 Ry
     estimated scf accuracy    <       3.95105721 Ry

     total magnetization       =    15.39 Bohr mag/cell
     absolute magnetization    =    15.86 Bohr mag/cell

     iteration # 19     ecut=    36.75 Ry     beta=0.30
     Davidson diagonalization with overlap
     ethr =  7.39E-04,  avg # of iterations =  1.0

     negative rho (up, down):  9.196E-04 9.656E-04
 
     Adding external electric field

     Computed dipole along edir(3) : 
        Dipole               -0.0728 Ry au,         -0.1850 Debye
        Dipole field         -0.0002 Ry au
 
        Potential amp.        0.0218 Ry
        Total length         44.5928 bohr
 
 
     Adding external electric field

     Computed dipole along edir(3) : 
        Dipole               -0.0728 Ry au,         -0.1850 Debye
        Dipole field         -0.0002 Ry au
 
        Potential amp.        0.0218 Ry
        Total length         44.5928 bohr
 
 
     Magnetic moment per site:
     atom:    1    charge:    5.9924    magn:    0.8016    constr:    0.0000
     atom:    2    charge:    5.9916    magn:    0.7972    constr:    0.0000
     atom:    3    charge:    5.9944    magn:    0.7552    constr:    0.0000
     atom:    4    charge:    5.9958    magn:    0.7860    constr:    0.0000
     atom:    5    charge:    5.9789    magn:    0.5578    constr:    0.0000
     atom:    6    charge:    5.9856    magn:    0.5311    constr:    0.0000
     atom:    7    charge:    5.9832    magn:    0.5363    constr:    0.0000
     atom:    8    charge:    5.9845    magn:    0.6088    constr:    0.0000
     atom:    9    charge:    5.9817    magn:    0.3446    constr:    0.0000
     atom:   10    charge:    5.9793    magn:    0.3483    constr:    0.0000
     atom:   11    charge:    5.9862    magn:    0.3775    constr:    0.0000
     atom:   12    charge:    5.9955    magn:    0.4377    constr:    0.0000
     atom:   13    charge:    0.6262    magn:   -0.0191    constr:    0.0000
     atom:   14    charge:    0.4165    magn:    0.0021    constr:    0.0000
     atom:   15    charge:    0.3943    magn:   -0.0077    constr:    0.0000

     total cpu time spent up to now is      314.5 secs

     total energy              =   -2559.07102620 Ry
     Harris-Foulkes estimate   =   -2559.05651249 Ry
     estimated scf accuracy    <       1.23946799 Ry

     total magnetization       =    15.45 Bohr mag/cell
     absolute magnetization    =    15.93 Bohr mag/cell

     iteration # 20     ecut=    36.75 Ry     beta=0.30
     Davidson diagonalization with overlap
     ethr =  6.66E-04,  avg # of iterations =  1.0

     negative rho (up, down):  9.304E-04 8.991E-04
 
     Adding external electric field

     Computed dipole along edir(3) : 
        Dipole               -0.1647 Ry au,         -0.4187 Debye
        Dipole field         -0.0006 Ry au
 
        Potential amp.        0.0493 Ry
        Total length         44.5928 bohr
 
 
     Adding external electric field

     Computed dipole along edir(3) : 
        Dipole               -0.1647 Ry au,         -0.4187 Debye
        Dipole field         -0.0006 Ry au
 
        Potential amp.        0.0493 Ry
        Total length         44.5928 bohr
 
 
     Magnetic moment per site:
     atom:    1    charge:    5.9932    magn:    0.8239    constr:    0.0000
     atom:    2    charge:    5.9949    magn:    0.8167    constr:    0.0000
     atom:    3    charge:    5.9899    magn:    0.7788    constr:    0.0000
     atom:    4    charge:    5.9892    magn:    0.8091    constr:    0.0000
     atom:    5    charge:    5.9848    magn:    0.5886    constr:    0.0000
     atom:    6    charge:    5.9834    magn:    0.5654    constr:    0.0000
     atom:    7    charge:    5.9842    magn:    0.5701    constr:    0.0000
     atom:    8    charge:    5.9818    magn:    0.6318    constr:    0.0000
     atom:    9    charge:    5.9819    magn:    0.3393    constr:    0.0000
     atom:   10    charge:    5.9827    magn:    0.3457    constr:    0.0000
     atom:   11    charge:    5.9829    magn:    0.3750    constr:    0.0000
     atom:   12    charge:    5.9943    magn:    0.4240    constr:    0.0000
     atom:   13    charge:    0.6270    magn:   -0.0204    constr:    0.0000
     atom:   14    charge:    0.4126    magn:    0.0013    constr:    0.0000
     atom:   15    charge:    0.3940    magn:   -0.0077    constr:    0.0000

     total cpu time spent up to now is      324.5 secs

     total energy              =   -2559.01569156 Ry
     Harris-Foulkes estimate   =   -2559.08568748 Ry
     estimated scf accuracy    <       2.60101347 Ry

     total magnetization       =    14.73 Bohr mag/cell
     absolute magnetization    =    15.23 Bohr mag/cell

     iteration # 21     ecut=    36.75 Ry     beta=0.30
     Davidson diagonalization with overlap
     ethr =  6.66E-04,  avg # of iterations =  1.0

     negative rho (up, down):  8.850E-04 8.269E-04
 
     Adding external electric field

     Computed dipole along edir(3) : 
        Dipole               -0.1538 Ry au,         -0.3910 Debye
        Dipole field         -0.0005 Ry au
 
        Potential amp.        0.0460 Ry
        Total length         44.5928 bohr
 
 
     Adding external electric field

     Computed dipole along edir(3) : 
        Dipole               -0.1538 Ry au,         -0.3910 Debye
        Dipole field         -0.0005 Ry au
 
        Potential amp.        0.0460 Ry
        Total length         44.5928 bohr
 
 
     Magnetic moment per site:
     atom:    1    charge:    5.9964    magn:    0.8233    constr:    0.0000
     atom:    2    charge:    5.9952    magn:    0.8158    constr:    0.0000
     atom:    3    charge:    5.9929    magn:    0.7784    constr:    0.0000
     atom:    4    charge:    5.9943    magn:    0.8094    constr:    0.0000
     atom:    5    charge:    5.9824    magn:    0.5682    constr:    0.0000
     atom:    6    charge:    5.9822    magn:    0.5428    constr:    0.0000
     atom:    7    charge:    5.9845    magn:    0.5488    constr:    0.0000
     atom:    8    charge:    5.9851    magn:    0.6237    constr:    0.0000
     atom:    9    charge:    5.9796    magn:    0.3121    constr:    0.0000
     atom:   10    charge:    5.9830    magn:    0.3073    constr:    0.0000
     atom:   11    charge:    5.9812    magn:    0.3462    constr:    0.0000
     atom:   12    charge:    5.9904    magn:    0.4120    constr:    0.0000
     atom:   13    charge:    0.6261    magn:   -0.0200    constr:    0.0000
     atom:   14    charge:    0.4148    magn:    0.0015    constr:    0.0000
     atom:   15    charge:    0.3939    magn:   -0.0078    constr:    0.0000

     total cpu time spent up to now is      334.7 secs

     total energy              =   -2559.05103091 Ry
     Harris-Foulkes estimate   =   -2559.05040056 Ry
     estimated scf accuracy    <       0.09516508 Ry

     total magnetization       =    15.22 Bohr mag/cell
     absolute magnetization    =    15.71 Bohr mag/cell

     iteration # 22     ecut=    36.75 Ry     beta=0.30
     Davidson diagonalization with overlap
     ethr =  5.12E-05,  avg # of iterations = 10.1

     negative rho (up, down):  8.781E-04 8.019E-04
 
     Adding external electric field

     Computed dipole along edir(3) : 
        Dipole               -0.1103 Ry au,         -0.2803 Debye
        Dipole field         -0.0004 Ry au
 
        Potential amp.        0.0330 Ry
        Total length         44.5928 bohr
 
 
     Adding external electric field

     Computed dipole along edir(3) : 
        Dipole               -0.1103 Ry au,         -0.2803 Debye
        Dipole field         -0.0004 Ry au
 
        Potential amp.        0.0330 Ry
        Total length         44.5928 bohr
 
 
     Magnetic moment per site:
     atom:    1    charge:    5.9947    magn:    0.8186    constr:    0.0000
     atom:    2    charge:    5.9984    magn:    0.8117    constr:    0.0000
     atom:    3    charge:    5.9937    magn:    0.7752    constr:    0.0000
     atom:    4    charge:    5.9935    magn:    0.8069    constr:    0.0000
     atom:    5    charge:    5.9816    magn:    0.5493    constr:    0.0000
     atom:    6    charge:    5.9855    magn:    0.5237    constr:    0.0000
     atom:    7    charge:    5.9812    magn:    0.5284    constr:    0.0000
     atom:    8    charge:    5.9855    magn:    0.6172    constr:    0.0000
     atom:    9    charge:    5.9793    magn:    0.2987    constr:    0.0000
     atom:   10    charge:    5.9821    magn:    0.2899    constr:    0.0000
     atom:   11    charge:    5.9840    magn:    0.3342    constr:    0.0000
     atom:   12    charge:    5.9892    magn:    0.4099    constr:    0.0000
     atom:   13    charge:    0.6253    magn:   -0.0193    constr:    0.0000
     atom:   14    charge:    0.4162    magn:    0.0017    constr:    0.0000
     atom:   15    charge:    0.3938    magn:   -0.0077    constr:    0.0000

     total cpu time spent up to now is      355.8 secs

     total energy              =   -2559.06062147 Ry
     Harris-Foulkes estimate   =   -2559.06250203 Ry
     estimated scf accuracy    <       0.15667203 Ry

     total magnetization       =    15.08 Bohr mag/cell
     absolute magnetization    =    15.51 Bohr mag/cell

     iteration # 23     ecut=    36.75 Ry     beta=0.30
     Davidson diagonalization with overlap
     ethr =  5.12E-05,  avg # of iterations =  1.0

     negative rho (up, down):  1.005E-03 9.075E-04
 
     Adding external electric field

     Computed dipole along edir(3) : 
        Dipole               -0.0034 Ry au,         -0.0087 Debye
        Dipole field         -0.0000 Ry au
 
        Potential amp.        0.0010 Ry
        Total length         44.5928 bohr
 
 
     Adding external electric field

     Computed dipole along edir(3) : 
        Dipole               -0.0034 Ry au,         -0.0087 Debye
        Dipole field         -0.0000 Ry au
 
        Potential amp.        0.0010 Ry
        Total length         44.5928 bohr
 
 
     Magnetic moment per site:
     atom:    1    charge:    5.9948    magn:    0.8077    constr:    0.0000
     atom:    2    charge:    5.9955    magn:    0.8052    constr:    0.0000
     atom:    3    charge:    5.9935    magn:    0.7704    constr:    0.0000
     atom:    4    charge:    5.9964    magn:    0.8028    constr:    0.0000
     atom:    5    charge:    5.9827    magn:    0.5043    constr:    0.0000
     atom:    6    charge:    5.9822    magn:    0.4785    constr:    0.0000
     atom:    7    charge:    5.9803    magn:    0.4755    constr:    0.0000
     atom:    8    charge:    5.9889    magn:    0.6040    constr:    0.0000
     atom:    9    charge:    5.9810    magn:    0.2638    constr:    0.0000
     atom:   10    charge:    5.9834    magn:    0.2467    constr:    0.0000
     atom:   11    charge:    5.9836    magn:    0.3078    constr:    0.0000
     atom:   12    charge:    5.9876    magn:    0.4028    constr:    0.0000
     atom:   13    charge:    0.6238    magn:   -0.0175    constr:    0.0000
     atom:   14    charge:    0.4194    magn:    0.0021    constr:    0.0000
     atom:   15    charge:    0.3934    magn:   -0.0075    constr:    0.0000

     total cpu time spent up to now is      365.9 secs

     total energy              =   -2559.06474590 Ry
     Harris-Foulkes estimate   =   -2559.06365815 Ry
     estimated scf accuracy    <       0.11050243 Ry

     total magnetization       =    14.89 Bohr mag/cell
     absolute magnetization    =    15.32 Bohr mag/cell

     iteration # 24     ecut=    36.75 Ry     beta=0.30
     Davidson diagonalization with overlap
     ethr =  5.12E-05,  avg # of iterations =  1.6

     negative rho (up, down):  1.135E-03 1.009E-03
 
     Adding external electric field

     Computed dipole along edir(3) : 
        Dipole                0.0091 Ry au,          0.0232 Debye
        Dipole field          0.0000 Ry au
 
        Potential amp.       -0.0027 Ry
        Total length         44.5928 bohr
 
 
     Adding external electric field

     Computed dipole along edir(3) : 
        Dipole                0.0091 Ry au,          0.0232 Debye
        Dipole field          0.0000 Ry au
 
        Potential amp.       -0.0027 Ry
        Total length         44.5928 bohr
 
 
     Magnetic moment per site:
     atom:    1    charge:    5.9954    magn:    0.8077    constr:    0.0000
     atom:    2    charge:    5.9964    magn:    0.8059    constr:    0.0000
     atom:    3    charge:    5.9958    magn:    0.7720    constr:    0.0000
     atom:    4    charge:    5.9954    magn:    0.8049    constr:    0.0000
     atom:    5    charge:    5.9821    magn:    0.4957    constr:    0.0000
     atom:    6    charge:    5.9823    magn:    0.4680    constr:    0.0000
     atom:    7    charge:    5.9816    magn:    0.4631    constr:    0.0000
     atom:    8    charge:    5.9870    magn:    0.6029    constr:    0.0000
     atom:    9    charge:    5.9791    magn:    0.2526    constr:    0.0000
     atom:   10    charge:    5.9835    magn:    0.2335    constr:    0.0000
     atom:   11    charge:    5.9834    magn:    0.2982    constr:    0.0000
     atom:   12    charge:    5.9886    magn:    0.3977    constr:    0.0000
     atom:   13    charge:    0.6237    magn:   -0.0173    constr:    0.0000
     atom:   14    charge:    0.4200    magn:    0.0021    constr:    0.0000
     atom:   15    charge:    0.3934    magn:   -0.0075    constr:    0.0000

     total cpu time spent up to now is      376.4 secs

     total energy              =   -2559.06783189 Ry
     Harris-Foulkes estimate   =   -2559.06872066 Ry
     estimated scf accuracy    <       0.06494970 Ry

     total magnetization       =    14.40 Bohr mag/cell
     absolute magnetization    =    14.84 Bohr mag/cell

     iteration # 25     ecut=    36.75 Ry     beta=0.30
     Davidson diagonalization with overlap
     ethr =  3.49E-05,  avg # of iterations =  1.1

     negative rho (up, down):  9.862E-04 8.735E-04
 
     Adding external electric field

     Computed dipole along edir(3) : 
        Dipole               -0.0422 Ry au,         -0.1074 Debye
        Dipole field         -0.0001 Ry au
 
        Potential amp.        0.0126 Ry
        Total length         44.5928 bohr
 
 
     Adding external electric field

     Computed dipole along edir(3) : 
        Dipole               -0.0422 Ry au,         -0.1074 Debye
        Dipole field         -0.0001 Ry au
 
        Potential amp.        0.0126 Ry
        Total length         44.5928 bohr
 
 
     Magnetic moment per site:
     atom:    1    charge:    5.9946    magn:    0.8059    constr:    0.0000
     atom:    2    charge:    5.9954    magn:    0.8023    constr:    0.0000
     atom:    3    charge:    5.9929    magn:    0.7682    constr:    0.0000
     atom:    4    charge:    5.9932    magn:    0.7997    constr:    0.0000
     atom:    5    charge:    5.9815    magn:    0.5079    constr:    0.0000
     atom:    6    charge:    5.9826    magn:    0.4859    constr:    0.0000
     atom:    7    charge:    5.9826    magn:    0.4831    constr:    0.0000
     atom:    8    charge:    5.9848    magn:    0.6031    constr:    0.0000
     atom:    9    charge:    5.9799    magn:    0.2738    constr:    0.0000
     atom:   10    charge:    5.9829    magn:    0.2618    constr:    0.0000
     atom:   11    charge:    5.9817    magn:    0.3179    constr:    0.0000
     atom:   12    charge:    5.9892    magn:    0.4102    constr:    0.0000
     atom:   13    charge:    0.6247    magn:   -0.0176    constr:    0.0000
     atom:   14    charge:    0.4182    magn:    0.0019    constr:    0.0000
     atom:   15    charge:    0.3933    magn:   -0.0075    constr:    0.0000

     total cpu time spent up to now is      386.4 secs

     total energy              =   -2559.06486241 Ry
     Harris-Foulkes estimate   =   -2559.06946515 Ry
     estimated scf accuracy    <       0.09310566 Ry

     total magnetization       =    14.36 Bohr mag/cell
     absolute magnetization    =    14.80 Bohr mag/cell

     iteration # 26     ecut=    36.75 Ry     beta=0.30
     Davidson diagonalization with overlap
     ethr =  3.49E-05,  avg # of iterations =  1.1

     negative rho (up, down):  1.533E-03 1.347E-03
 
     Adding external electric field

     Computed dipole along edir(3) : 
        Dipole                0.0480 Ry au,          0.1220 Debye
        Dipole field          0.0002 Ry au
 
        Potential amp.       -0.0144 Ry
        Total length         44.5928 bohr
 
 
     Adding external electric field

     Computed dipole along edir(3) : 
        Dipole                0.0480 Ry au,          0.1220 Debye
        Dipole field          0.0002 Ry au
 
        Potential amp.       -0.0144 Ry
        Total length         44.5928 bohr
 
 
     Magnetic moment per site:
     atom:    1    charge:    5.9950    magn:    0.7932    constr:    0.0000
     atom:    2    charge:    5.9936    magn:    0.7913    constr:    0.0000
     atom:    3    charge:    5.9920    magn:    0.7586    constr:    0.0000
     atom:    4    charge:    5.9943    magn:    0.7921    constr:    0.0000
     atom:    5    charge:    5.9794    magn:    0.4548    constr:    0.0000
     atom:    6    charge:    5.9822    magn:    0.4371    constr:    0.0000
     atom:    7    charge:    5.9833    magn:    0.4286    constr:    0.0000
     atom:    8    charge:    5.9854    magn:    0.5852    constr:    0.0000
     atom:    9    charge:    5.9797    magn:    0.2380    constr:    0.0000
     atom:   10    charge:    5.9839    magn:    0.2222    constr:    0.0000
     atom:   11    charge:    5.9846    magn:    0.2906    constr:    0.0000
     atom:   12    charge:    5.9890    magn:    0.4113    constr:    0.0000
     atom:   13    charge:    0.6236    magn:   -0.0148    constr:    0.0000
     atom:   14    charge:    0.4204    magn:    0.0023    constr:    0.0000
     atom:   15    charge:    0.3927    magn:   -0.0070    constr:    0.0000

     total cpu time spent up to now is      396.7 secs

     total energy              =   -2559.07004701 Ry
     Harris-Foulkes estimate   =   -2559.06698129 Ry
     estimated scf accuracy    <       0.01083569 Ry

     total magnetization       =    14.52 Bohr mag/cell
     absolute magnetization    =    14.92 Bohr mag/cell

     iteration # 27     ecut=    36.75 Ry     beta=0.30
     Davidson diagonalization with overlap
     ethr =  5.83E-06,  avg # of iterations =  6.1

     negative rho (up, down):  2.615E-03 2.365E-03
 
     Adding external electric field

     Computed dipole along edir(3) : 
        Dipole                0.0766 Ry au,          0.1946 Debye
        Dipole field          0.0003 Ry au
 
        Potential amp.       -0.0229 Ry
        Total length         44.5928 bohr
 
 
     Adding external electric field

     Computed dipole along edir(3) : 
        Dipole                0.0766 Ry au,          0.1946 Debye
        Dipole field          0.0003 Ry au
 
        Potential amp.       -0.0229 Ry
        Total length         44.5928 bohr
 
 
     Magnetic moment per site:
     atom:    1    charge:    5.9957    magn:    0.7893    constr:    0.0000
     atom:    2    charge:    5.9948    magn:    0.7885    constr:    0.0000
     atom:    3    charge:    5.9934    magn:    0.7583    constr:    0.0000
     atom:    4    charge:    5.9954    magn:    0.7923    constr:    0.0000
     atom:    5    charge:    5.9820    magn:    0.4149    constr:    0.0000
     atom:    6    charge:    5.9810    magn:    0.3955    constr:    0.0000
     atom:    7    charge:    5.9817    magn:    0.3832    constr:    0.0000
     atom:    8    charge:    5.9837    magn:    0.5751    constr:    0.0000
     atom:    9    charge:    5.9808    magn:    0.2015    constr:    0.0000
     atom:   10    charge:    5.9828    magn:    0.1825    constr:    0.0000
     atom:   11    charge:    5.9823    magn:    0.2601    constr:    0.0000
     atom:   12    charge:    5.9887    magn:    0.4079    constr:    0.0000
     atom:   13    charge:    0.6234    magn:   -0.0128    constr:    0.0000
     atom:   14    charge:    0.4220    magn:    0.0024    constr:    0.0000
     atom:   15    charge:    0.3925    magn:   -0.0068    constr:    0.0000

     total cpu time spent up to now is      418.9 secs

     total energy              =   -2559.07446040 Ry
     Harris-Foulkes estimate   =   -2559.07477270 Ry
     estimated scf accuracy    <       0.11247621 Ry

     total magnetization       =    14.07 Bohr mag/cell
     absolute magnetization    =    14.46 Bohr mag/cell

     iteration # 28     ecut=    36.75 Ry     beta=0.30
     Davidson diagonalization with overlap
     ethr =  5.83E-06,  avg # of iterations =  6.7

     negative rho (up, down):  1.678E-03 1.460E-03
 
     Adding external electric field

     Computed dipole along edir(3) : 
        Dipole                0.0417 Ry au,          0.1059 Debye
        Dipole field          0.0001 Ry au
 
        Potential amp.       -0.0125 Ry
        Total length         44.5928 bohr
 
 
     Adding external electric field

     Computed dipole along edir(3) : 
        Dipole                0.0417 Ry au,          0.1059 Debye
        Dipole field          0.0001 Ry au
 
        Potential amp.       -0.0125 Ry
        Total length         44.5928 bohr
 
 
     Magnetic moment per site:
     atom:    1    charge:    5.9957    magn:    0.7947    constr:    0.0000
     atom:    2    charge:    5.9955    magn:    0.7933    constr:    0.0000
     atom:    3    charge:    5.9924    magn:    0.7618    constr:    0.0000
     atom:    4    charge:    5.9948    magn:    0.7947    constr:    0.0000
     atom:    5    charge:    5.9808    magn:    0.4451    constr:    0.0000
     atom:    6    charge:    5.9811    magn:    0.4250    constr:    0.0000
     atom:    7    charge:    5.9815    magn:    0.4155    constr:    0.0000
     atom:    8    charge:    5.9851    magn:    0.5850    constr:    0.0000
     atom:    9    charge:    5.9801    magn:    0.2260    constr:    0.0000
     atom:   10    charge:    5.9824    magn:    0.2097    constr:    0.0000
     atom:   11    charge:    5.9824    magn:    0.2805    constr:    0.0000
     atom:   12    charge:    5.9899    magn:    0.4100    constr:    0.0000
     atom:   13    charge:    0.6238    magn:   -0.0144    constr:    0.0000
     atom:   14    charge:    0.4206    magn:    0.0023    constr:    0.0000
     atom:   15    charge:    0.3927    magn:   -0.0070    constr:    0.0000

     total cpu time spent up to now is      438.1 secs

     total energy              =   -2559.07268812 Ry
     Harris-Foulkes estimate   =   -2559.07790808 Ry
     estimated scf accuracy    <       0.05218341 Ry

     total magnetization       =    13.72 Bohr mag/cell
     absolute magnetization    =    14.11 Bohr mag/cell

     iteration # 29     ecut=    36.75 Ry     beta=0.30
     Davidson diagonalization with overlap
     ethr =  5.83E-06,  avg # of iterations =  2.0

     negative rho (up, down):  1.769E-03 1.526E-03
 
     Adding external electric field

     Computed dipole along edir(3) : 
        Dipole                0.0433 Ry au,          0.1100 Debye
        Dipole field          0.0001 Ry au
 
        Potential amp.       -0.0129 Ry
        Total length         44.5928 bohr
 
 
     Adding external electric field

     Computed dipole along edir(3) : 
        Dipole                0.0433 Ry au,          0.1100 Debye
        Dipole field          0.0001 Ry au
 
        Potential amp.       -0.0129 Ry
        Total length         44.5928 bohr
 
 
     Magnetic moment per site:
     atom:    1    charge:    5.9958    magn:    0.7946    constr:    0.0000
     atom:    2    charge:    5.9955    magn:    0.7932    constr:    0.0000
     atom:    3    charge:    5.9925    magn:    0.7618    constr:    0.0000
     atom:    4    charge:    5.9949    magn:    0.7949    constr:    0.0000
     atom:    5    charge:    5.9809    magn:    0.4420    constr:    0.0000
     atom:    6    charge:    5.9811    magn:    0.4221    constr:    0.0000
     atom:    7    charge:    5.9815    magn:    0.4124    constr:    0.0000
     atom:    8    charge:    5.9851    magn:    0.5844    constr:    0.0000
     atom:    9    charge:    5.9799    magn:    0.2233    constr:    0.0000
     atom:   10    charge:    5.9824    magn:    0.2068    constr:    0.0000
     atom:   11    charge:    5.9825    magn:    0.2785    constr:    0.0000
     atom:   12    charge:    5.9899    magn:    0.4101    constr:    0.0000
     atom:   13    charge:    0.6238    magn:   -0.0142    constr:    0.0000
     atom:   14    charge:    0.4207    magn:    0.0023    constr:    0.0000
     atom:   15    charge:    0.3927    magn:   -0.0070    constr:    0.0000

     total cpu time spent up to now is      449.0 secs

     total energy              =   -2559.07388235 Ry
     Harris-Foulkes estimate   =   -2559.07358111 Ry
     estimated scf accuracy    <       0.02644423 Ry

     total magnetization       =    13.99 Bohr mag/cell
     absolute magnetization    =    14.37 Bohr mag/cell

     iteration # 30     ecut=    36.75 Ry     beta=0.30
     Davidson diagonalization with overlap
     ethr =  5.83E-06,  avg # of iterations =  1.0

     negative rho (up, down):  1.639E-03 1.397E-03
 
     Adding external electric field

     Computed dipole along edir(3) : 
        Dipole                0.0394 Ry au,          0.1001 Debye
        Dipole field          0.0001 Ry au
 
[...]
     1.3729   1.4330   1.4848   1.6464   1.6896   1.9533   2.0063   2.0869
     2.1641   2.2688   2.4024   2.4703   2.6261   2.7945   2.8241

          k = 0.0324-0.0935-0.0000 ( 14076 PWs)   bands (ev):

   -79.3565 -79.1846 -79.0943 -79.0918 -76.5700 -76.5534 -76.3780 -76.3678
   -76.1809 -76.1432 -76.1320 -76.1105 -48.1311 -48.1168 -48.0074 -47.9564
   -47.9170 -47.9058 -47.8969 -47.8688 -47.8000 -47.7790 -47.6611 -47.6047
   -45.5257 -45.4494 -45.4275 -45.3624 -45.1881 -45.1850 -45.1805 -45.1650
   -45.1310 -45.1235 -45.1195 -45.1141 -45.0749 -45.0647 -45.0329 -44.9962
   -44.9441 -44.8994 -44.8655 -44.8586 -44.8173 -44.7940 -44.7802 -44.7708
    -9.9317  -4.9972  -4.4208  -4.0450  -3.2747  -2.7763  -2.4722  -2.2005
    -2.1566  -1.9301  -1.7751  -1.6720  -1.6440  -1.5220  -1.3919  -1.2621
    -1.1667  -1.0653  -0.9119  -0.8546  -0.7434  -0.6181  -0.5106  -0.3581
    -0.2131  -0.0823   0.0238   0.1735   0.2913   0.3854   0.5287   0.5544
     0.6741   0.7920   0.8401   0.9613   1.0443   1.1840   1.2320   1.3056
     1.3455   1.4076   1.4771   1.5948   1.7390   1.8748   1.9281   2.0528
     2.1541   2.2875   2.3797   2.5568   2.6399   2.7841   2.8476

          k = 0.0324-0.0561-0.0000 ( 14095 PWs)   bands (ev):

   -79.3566 -79.1862 -79.0978 -79.0866 -76.5748 -76.5491 -76.3774 -76.3678
   -76.1890 -76.1412 -76.1256 -76.1108 -48.1333 -48.1189 -48.0094 -47.9580
   -47.9204 -47.9201 -47.9057 -47.8895 -47.8146 -47.7705 -47.6098 -47.6028
   -45.5566 -45.4553 -45.4358 -45.3433 -45.2040 -45.1897 -45.1716 -45.1634
   -45.1556 -45.1413 -45.1288 -45.1158 -45.1019 -45.0660 -45.0578 -44.9427
   -44.8864 -44.8785 -44.8676 -44.8534 -44.7958 -44.7931 -44.7780 -44.7709
    -9.9732  -5.4469  -4.5316  -4.3179  -2.9771  -2.7131  -2.6206  -2.4525
    -2.3667  -2.1563  -2.0936  -1.8921  -1.7984  -1.6226  -1.4630  -1.3676
    -1.0078  -0.9054  -0.7113  -0.6106  -0.5286  -0.4140  -0.3112  -0.1935
    -0.0798  -0.0632   0.0011   0.1283   0.2608   0.3316   0.4329   0.5627
     0.6686   0.8265   0.8920   1.1069   1.1568   1.2328   1.4177   1.4939
     1.6196   1.6458   1.7362   1.7652   1.8196   2.0021   2.0117   2.0704
     2.3333   2.4351   2.5076   2.6180   2.7597   2.8528   2.9610

          k = 0.0648-0.0374-0.0000 ( 14106 PWs)   bands (ev):

   -79.3566 -79.1855 -79.0990 -79.0862 -76.5744 -76.5492 -76.3777 -76.3678
   -76.1864 -76.1434 -76.1250 -76.1118 -48.1330 -48.1178 -48.0085 -47.9575
   -47.9282 -47.9173 -47.8926 -47.8738 -47.8155 -47.7768 -47.6406 -47.5884
   -45.5560 -45.4538 -45.4286 -45.3366 -45.2009 -45.1889 -45.1777 -45.1639
   -45.1516 -45.1333 -45.1225 -45.1098 -45.1081 -45.0596 -45.0565 -44.9354
   -44.9314 -44.8791 -44.8668 -44.8565 -44.7993 -44.7937 -44.7779 -44.7714
    -9.9572  -5.3194  -4.4916  -4.2763  -3.0585  -2.7577  -2.4066  -2.3693
    -2.2114  -2.1441  -2.0516  -1.8767  -1.7530  -1.6165  -1.4219  -1.3372
    -1.0415  -0.8962  -0.7832  -0.6760  -0.6363  -0.5077  -0.4192  -0.3405
    -0.1409   0.0124   0.1325   0.1779   0.2130   0.3486   0.4053   0.6038
     0.6319   0.7256   0.8385   1.1207   1.1689   1.2367   1.3822   1.4554
     1.5676   1.6009   1.6561   1.7027   1.7469   1.8731   1.9673   2.1283
     2.3095   2.3524   2.4864   2.5620   2.6823   2.8013   2.9203

          k = 0.0648-0.0000-0.0000 ( 14095 PWs)   bands (ev):

   -79.3566 -79.1850 -79.1049 -79.0808 -76.5794 -76.5437 -76.3781 -76.3678
   -76.1887 -76.1433 -76.1219 -76.1126 -48.1350 -48.1176 -48.0083 -47.9574
   -47.9344 -47.9165 -47.8860 -47.8743 -47.8340 -47.7725 -47.6542 -47.5615
   -45.5965 -45.4461 -45.4148 -45.3062 -45.2123 -45.1932 -45.1787 -45.1686
   -45.1504 -45.1413 -45.1306 -45.1105 -45.1049 -45.0691 -45.0649 -44.9449
   -44.8851 -44.8775 -44.8677 -44.8519 -44.7976 -44.7938 -44.7763 -44.7719
    -9.9613  -5.4899  -4.5671  -4.2831  -2.8121  -2.7034  -2.6310  -2.4063
    -2.3756  -2.2268  -2.1428  -1.9565  -1.7459  -1.6267  -1.4479  -1.3289
    -1.0242  -0.9056  -0.7169  -0.6363  -0.5578  -0.5318  -0.3453  -0.2670
    -0.1674  -0.0245   0.0372   0.1127   0.2531   0.3701   0.4413   0.5212
     0.7137   0.7881   0.9281   1.0866   1.1583   1.3082   1.4688   1.5090
     1.5983   1.6502   1.6705   1.8177   1.9113   2.0211   2.0629   2.2140
     2.3524   2.4188   2.5027   2.5418   2.7046   2.9052   2.9822

          k = 0.0648 0.0374-0.0000 ( 14106 PWs)   bands (ev):

   -79.3566 -79.1836 -79.1082 -79.0789 -76.5809 -76.5416 -76.3787 -76.3678
   -76.1859 -76.1461 -76.1173 -76.1172 -48.1353 -48.1161 -48.0069 -47.9566
   -47.9413 -47.8967 -47.8816 -47.8608 -47.8359 -47.7783 -47.6871 -47.5519
   -45.6121 -45.4241 -45.4108 -45.2868 -45.2181 -45.2023 -45.1771 -45.1565
   -45.1562 -45.1379 -45.1163 -45.1120 -45.0996 -45.0819 -45.0581 -44.9352
   -44.9346 -44.8761 -44.8666 -44.8539 -44.8018 -44.7950 -44.7744 -44.7739
    -9.9393  -5.3825  -4.5350  -4.2132  -3.0914  -2.5688  -2.3750  -2.3197
    -2.2623  -2.1392  -2.1039  -1.9789  -1.6594  -1.6054  -1.4687  -1.3444
    -1.0668  -0.9119  -0.7369  -0.6570  -0.6487  -0.5724  -0.4620  -0.3256
    -0.3057  -0.1902   0.1035   0.2041   0.3420   0.3662   0.4150   0.4900
     0.6770   0.7185   1.0168   1.0641   1.1674   1.2430   1.4659   1.4781
     1.5198   1.6073   1.6841   1.6928   1.8172   1.9435   2.0534   2.1338
     2.3317   2.3754   2.5727   2.5783   2.6862   2.8330   2.8693

          k = 0.0648-0.1496-0.0000 ( 14076 PWs)   bands (ev):

   -79.3565 -79.1826 -79.1074 -79.0807 -76.5784 -76.5439 -76.3790 -76.3679
   -76.1803 -76.1474 -76.1266 -76.1124 -48.1336 -48.1149 -48.0058 -47.9557
   -47.9345 -47.8899 -47.8829 -47.8413 -47.8196 -47.7824 -47.7176 -47.5652
   -45.5959 -45.4171 -45.4019 -45.3053 -45.2158 -45.2008 -45.1756 -45.1541
   -45.1377 -45.1247 -45.1183 -45.1063 -45.0825 -45.0757 -45.0341 -44.9995
   -44.9427 -44.8977 -44.8653 -44.8550 -44.8210 -44.7949 -44.7781 -44.7719
    -9.9135  -5.1034  -4.4440  -3.9461  -3.2782  -2.6363  -2.3515  -2.2742
    -2.1088  -2.0186  -1.8290  -1.7684  -1.6293  -1.5002  -1.4133  -1.2204
    -1.1201  -1.0089  -0.9608  -0.8598  -0.7543  -0.6492  -0.5449  -0.4952
    -0.3158  -0.1760   0.0223   0.1034   0.3530   0.4234   0.5034   0.6569
     0.6935   0.7306   0.8792   0.9690   0.9915   1.2077   1.2455   1.3280
     1.3477   1.4665   1.4831   1.6343   1.8225   1.9551   2.0308   2.0819
     2.1911   2.2748   2.4549   2.5659   2.6530   2.7204   2.7991

          k = 0.0648-0.1122-0.0000 ( 14088 PWs)   bands (ev):

   -79.3565 -79.1832 -79.1021 -79.0854 -76.5732 -76.5496 -76.3787 -76.3679
   -76.1777 -76.1423 -76.1367 -76.1100 -48.1314 -48.1153 -48.0061 -47.9556
   -47.9205 -47.8939 -47.8875 -47.8512 -47.8207 -47.7606 -47.7083 -47.5904
   -45.5561 -45.4325 -45.3952 -45.3567 -45.1964 -45.1917 -45.1751 -45.1619
   -45.1277 -45.1229 -45.1172 -45.0767 -45.0732 -45.0688 -45.0253 -45.0141
   -44.9941 -44.8715 -44.8669 -44.8646 -44.8420 -44.7941 -44.7810 -44.7706
    -9.9100  -4.9103  -4.3770  -3.5173  -3.3215  -3.2627  -2.4837  -2.1395
    -2.0398  -1.8826  -1.5866  -1.5432  -1.4347  -1.3823  -1.3540  -1.3225
    -1.3022  -1.2667  -0.9969  -0.8871  -0.7697  -0.6300  -0.6226  -0.4080
    -0.3283  -0.1958  -0.0857   0.0588   0.3740   0.4261   0.5108   0.6063
     0.7023   0.7476   0.8151   0.9191   0.9734   1.0825   1.2197   1.2640
     1.3704   1.4094   1.4872   1.5509   1.6958   1.8423   1.9400   2.0000
     2.1423   2.3667   2.4279   2.5340   2.6174   2.7221   2.7375

          k = 0.0648-0.0748-0.0000 ( 14076 PWs)   bands (ev):

   -79.3565 -79.1846 -79.0945 -79.0916 -76.5701 -76.5533 -76.3780 -76.3678
   -76.1809 -76.1433 -76.1319 -76.1105 -48.1311 -48.1168 -48.0074 -47.9564
   -47.9168 -47.9060 -47.8968 -47.8688 -47.8000 -47.7789 -47.6613 -47.6045
   -45.5258 -45.4497 -45.4279 -45.3614 -45.1881 -45.1850 -45.1808 -45.1648
   -45.1307 -45.1236 -45.1195 -45.1142 -45.0749 -45.0648 -45.0329 -44.9961
   -44.9441 -44.8994 -44.8655 -44.8585 -44.8173 -44.7940 -44.7802 -44.7708
    -9.9317  -4.9971  -4.4203  -4.0451  -3.2750  -2.7763  -2.4725  -2.2004
    -2.1567  -1.9303  -1.7751  -1.6719  -1.6439  -1.5225  -1.3915  -1.2626
    -1.1666  -1.0653  -0.9121  -0.8547  -0.7433  -0.6185  -0.5104  -0.3581
    -0.2127  -0.0823   0.0233   0.1736   0.2917   0.3852   0.5287   0.5542
     0.6742   0.7923   0.8403   0.9614   1.0444   1.1843   1.2320   1.3053
     1.3455   1.4073   1.4771   1.5949   1.7392   1.8750   1.9276   2.0532
     2.1545   2.2876   2.3799   2.5567   2.6397   2.7841   2.8476

          k =-0.0971 0.0561 0.0000 ( 14098 PWs)   bands (ev):

   -79.3565 -79.1846 -79.0946 -79.0915 -76.5701 -76.5532 -76.3780 -76.3678
   -76.1805 -76.1466 -76.1277 -76.1119 -48.1314 -48.1165 -48.0074 -47.9566
   -47.9263 -47.9065 -47.8979 -47.8369 -47.8210 -47.7763 -47.6700 -47.5982
   -45.5259 -45.4528 -45.4321 -45.3480 -45.1941 -45.1875 -45.1823 -45.1645
   -45.1344 -45.1273 -45.1235 -45.1149 -45.0742 -45.0602 -44.9995 -44.9821
   -44.9548 -44.9464 -44.8654 -44.8429 -44.8129 -44.7944 -44.7791 -44.7714
    -9.9312  -4.9619  -4.5145  -3.8038  -3.7120  -2.5995  -2.2471  -2.1507
    -2.0821  -1.9365  -1.7729  -1.7613  -1.6946  -1.6512  -1.2912  -1.2476
    -1.1017  -0.9861  -0.9116  -0.8960  -0.8501  -0.7852  -0.6358  -0.3846
    -0.2383   0.0888   0.1858   0.2548   0.3047   0.4280   0.4695   0.5451
     0.5829   0.7017   0.9347   1.0322   1.1035   1.1114   1.1823   1.2967
     1.3140   1.3811   1.4105   1.5697   1.7718   1.8616   1.9202   2.1003
     2.2034   2.3075   2.3982   2.4273   2.5315   2.7877   2.8467

          k =-0.0971 0.0935 0.0000 ( 14076 PWs)   bands (ev):

   -79.3565 -79.1839 -79.1011 -79.0856 -76.5736 -76.5494 -76.3783 -76.3678
   -76.1807 -76.1450 -76.1299 -76.1111 -48.1321 -48.1160 -48.0069 -47.9562
   -47.9217 -47.9104 -47.8910 -47.8363 -47.8258 -47.7799 -47.6806 -47.5876
   -45.5558 -45.4402 -45.4155 -45.3367 -45.1996 -45.1924 -45.1784 -45.1611
   -45.1333 -45.1233 -45.1181 -45.1139 -45.0749 -45.0678 -45.0322 -45.0007
   -44.9403 -44.8999 -44.8654 -44.8579 -44.8183 -44.7943 -44.7795 -44.7712
    -9.9255  -5.0432  -4.4517  -3.9525  -3.3095  -2.6446  -2.4831  -2.2360
    -2.1163  -2.0204  -1.8201  -1.7332  -1.6008  -1.5225  -1.3244  -1.2808
    -1.0415  -1.0183  -0.9646  -0.8829  -0.7916  -0.7013  -0.5846  -0.3447
    -0.2245  -0.1132   0.0086   0.1898   0.3135   0.3612   0.5611   0.5813
     0.6750   0.7291   0.8747   0.9564   1.0407   1.1721   1.2367   1.2954
     1.3727   1.4329   1.4848   1.6466   1.6903   1.9536   2.0057   2.0869
     2.1643   2.2688   2.4026   2.4706   2.6264   2.7943   2.8244

          k =-0.0971 0.1309 0.0000 ( 14076 PWs)   bands (ev):

   -79.3565 -79.1826 -79.1074 -79.0806 -76.5784 -76.5438 -76.3790 -76.3679
   -76.1803 -76.1474 -76.1266 -76.1124 -48.1336 -48.1149 -48.0058 -47.9557
   -47.9345 -47.8899 -47.8829 -47.8413 -47.8196 -47.7825 -47.7176 -47.5651
   -45.5959 -45.4180 -45.4012 -45.3048 -45.2159 -45.2009 -45.1756 -45.1542
   -45.1375 -45.1248 -45.1184 -45.1061 -45.0826 -45.0757 -45.0341 -44.9996
   -44.9426 -44.8977 -44.8653 -44.8550 -44.8210 -44.7950 -44.7781 -44.7719
    -9.9135  -5.1033  -4.4438  -3.9461  -3.2781  -2.6365  -2.3517  -2.2743
    -2.1088  -2.0184  -1.8288  -1.7686  -1.6295  -1.5004  -1.4134  -1.2206
    -1.1198  -1.0090  -0.9607  -0.8598  -0.7545  -0.6493  -0.5448  -0.4952
    -0.3159  -0.1760   0.0224   0.1033   0.3529   0.4233   0.5036   0.6568
     0.6935   0.7307   0.8794   0.9691   0.9916   1.2074   1.2455   1.3280
     1.3482   1.4665   1.4826   1.6345   1.8231   1.9551   2.0307   2.0818
     2.1910   2.2748   2.4550   2.5659   2.6532   2.7204   2.7993

          k =-0.0971-0.0561 0.0000 ( 14098 PWs)   bands (ev):

   -79.3565 -79.1820 -79.1098 -79.0789 -76.5804 -76.5416 -76.3794 -76.3679
   -76.1795 -76.1506 -76.1193 -76.1172 -48.1344 -48.1144 -48.0051 -47.9556
   -47.9413 -47.8845 -47.8752 -47.8460 -47.7941 -47.7831 -47.7550 -47.5544
   -45.6119 -45.4088 -45.3956 -45.2783 -45.2356 -45.2052 -45.1755 -45.1483
   -45.1438 -45.1287 -45.1252 -45.1009 -45.0902 -45.0748 -45.0016 -44.9856
   -44.9600 -44.9369 -44.8653 -44.8366 -44.8191 -44.7956 -44.7748 -44.7745
    -9.9072  -5.1005  -4.4760  -3.8079  -3.6576  -2.3278  -2.3013  -2.1164
    -2.0531  -1.9545  -1.8890  -1.7722  -1.7310  -1.6693  -1.3029  -1.2038
    -1.1650  -1.0678  -0.9233  -0.8267  -0.8126  -0.6819  -0.6486  -0.5089
    -0.4446  -0.1444   0.1504   0.2135   0.3413   0.4008   0.5265   0.5794
     0.7667   0.8040   0.8724   0.9719   1.0488   1.1355   1.2216   1.2633
     1.3628   1.3957   1.4867   1.6001   1.8801   1.9421   2.0771   2.1269
     2.2254   2.2282   2.4363   2.6175   2.6479   2.6939   2.7294

     the Fermi energy is     1.4236 ev

!    total energy              =   -2559.27649442 Ry
     Harris-Foulkes estimate   =   -2559.27649451 Ry
     estimated scf accuracy    <       0.00000004 Ry

     The total energy is the sum of the following terms:

     one-electron contribution =  -23066.75288992 Ry
     hartree contribution      =   11532.89976007 Ry
     xc contribution           =    -335.95996704 Ry
     ewald contribution        =    9310.63741504 Ry
     electric field correction =       0.00000050 Ry
     smearing contrib. (-TS)   =      -0.10081307 Ry

     total magnetization       =    10.24 Bohr mag/cell
     absolute magnetization    =    29.51 Bohr mag/cell

     convergence has been achieved in  18 iterations
 
 BEEF-vdW xc energy contributions
           1 :   -292.912368555825     
           2 :    264.679327882172     
           3 :   -217.480231806939     
           4 :    165.184274934272     
           5 :   -120.084625947904     
           6 :    88.5427845027719     
           7 :   -70.1647915107177     
           8 :    60.1135177471229     
           9 :   -52.7233881445271     
          10 :    44.3702483090856     
          11 :   -34.4249733821205     
          12 :    24.3660648459503     
          13 :   -16.0782503000257     
          14 :    10.5199302629729     
          15 :   -7.39140759390284     
          16 :    5.64897861292178     
          17 :   -4.26376676086977     
          18 :    2.69299298477188     
          19 :  -0.918291129165937     
          20 :  -0.786714735220130     
          21 :    2.11395674476233     
          22 :   -2.87305644103537     
          23 :    3.04285788036975     
          24 :   -2.78040623753969     
          25 :    2.39296048848922     
          26 :   -2.23721701150225     
          27 :    2.54226573700578     
          28 :   -3.25282226977208     
          29 :    4.02521253794907     
          30 :   -4.42516134991894     
          31 :   -27.0314757265870     
          32 :   -19.2410257513183     

     Forces acting on atoms (Ry/au):


     negative rho (up, down):  1.993E-03 1.827E-03
     atom    1 type  1   force =    -0.00543541   -0.00313565    0.00152177
     atom    2 type  1   force =     0.00076516    0.00331583   -0.00107781
     atom    3 type  1   force =     0.00325583   -0.00099114   -0.00110012
     atom    4 type  1   force =     0.00133283    0.00077002    0.01261437
     atom    5 type  1   force =    -0.00299637   -0.00171895   -0.00187790
     atom    6 type  1   force =     0.00355780    0.00763003   -0.01168048
     atom    7 type  1   force =     0.00834922   -0.00071107   -0.01166375
     atom    8 type  1   force =    -0.00381934   -0.00223390    0.01757504
     atom    9 type  1   force =    -0.00049528   -0.00025332   -0.00011417
     atom   10 type  1   force =    -0.00154463   -0.00057997   -0.00121101
     atom   11 type  1   force =    -0.00127747   -0.00108555   -0.00117573
     atom   12 type  1   force =    -0.00030958   -0.00016726   -0.00111997
     atom   13 type  2   force =     0.00013390    0.00004050    0.00026568
     atom   14 type  3   force =    -0.00067523   -0.00038399   -0.00135034
     atom   15 type  3   force =    -0.00084142   -0.00049556    0.00039441

     Total force =     0.003702     Total SCF correction =     0.000785
     SCF correction compared to forces is large: reduce conv_thr to get better values


     entering subroutine stress ...


     negative rho (up, down):  1.993E-03 1.827E-03
          total   stress  (Ry/bohr**3)                   (kbar)     P=   -8.08
  -0.00004713   0.00002937  -0.00000642         -6.93      4.32     -0.94
   0.00002937  -0.00008117  -0.00000377          4.32    -11.94     -0.55
  -0.00000642  -0.00000377  -0.00003644         -0.94     -0.55     -5.36


     bfgs converged in  18 scf cycles and  17 bfgs steps
     (criteria: energy <  1.0E+00, force <  1.9E-03)

     End of BFGS Geometry Optimization

     Final energy   =   -2559.2764944183 Ry
Begin final coordinates

ATOMIC_POSITIONS (crystal)
Mn1     -0.000000000   0.000000000   0.413179627    0   0   0
Mn1     -0.000000000   0.500000000   0.413179627    0   0   0
Mn1      0.500000000   0.000000000   0.413179627    0   0   0
Mn1      0.500000000   0.500000000   0.413179627    0   0   0
Mn1      0.666666667   0.666666667   0.500000000    0   0   0
Mn1      0.666666667   0.166666667   0.500000000    0   0   0
Mn1      0.166666667   0.666666667   0.500000000    0   0   0
Mn1      0.166666667   0.166666667   0.500000000    0   0   0
Mn1      0.314957945   0.315130396   0.589246855
Mn1      0.338879842   0.820040347   0.589293943
Mn1      0.819942806   0.339071473   0.589271068
Mn1      0.837197270   0.837407935   0.582408528
C1       0.474058337   0.473731402   0.640446082
H1       0.488133745   0.487813281   0.685423264
H1       0.689184531   0.689273404   0.626608717
End final coordinates



     Writing output data file calc.save
 
     init_run     :      6.28s CPU      6.53s WALL (       1 calls)
     electrons    :  10461.66s CPU  10681.67s WALL (      18 calls)
     update_pot   :     10.64s CPU     11.10s WALL (      17 calls)
     forces       :     53.36s CPU     54.35s WALL (      18 calls)
     stress       :    168.84s CPU    169.76s WALL (      18 calls)

     Called by init_run:
     wfcinit      :      5.09s CPU      5.25s WALL (       1 calls)
     potinit      :      0.38s CPU      0.43s WALL (       1 calls)

     Called by electrons:
     c_bands      :   8796.00s CPU   8958.17s WALL (     658 calls)
     sum_band     :   1138.14s CPU   1164.44s WALL (     658 calls)
     v_of_rho     :    166.74s CPU    188.25s WALL (     676 calls)
     newd         :    218.44s CPU    219.44s WALL (     676 calls)
     mix_rho      :     10.12s CPU     10.82s WALL (     658 calls)
     vdW_energy   :     60.28s CPU     68.61s WALL (    1324 calls)
     vdW_ffts     :     74.00s CPU     82.69s WALL (    2684 calls)
     vdW_v        :     38.02s CPU     39.50s WALL (    1324 calls)

     Called by c_bands:
     init_us_2    :     53.01s CPU     54.11s WALL (   54120 calls)
     cegterg      :   8456.86s CPU   8615.95s WALL (   26320 calls)

     Called by *egterg:
     h_psi        :   3517.36s CPU   3610.10s WALL (  141338 calls)
     s_psi        :    410.70s CPU    411.79s WALL (  141338 calls)
     g_psi        :     16.55s CPU     16.68s WALL (  114978 calls)
     cdiaghg      :   2615.65s CPU   2663.86s WALL (  140618 calls)

     Called by h_psi:
     add_vuspsi   :    416.09s CPU    417.44s WALL (  141338 calls)

     General routines
     calbec       :    654.56s CPU    692.04s WALL (  169098 calls)
     fft          :    160.29s CPU    176.21s WALL (   97128 calls)
     ffts         :      1.21s CPU      1.30s WALL (    2668 calls)
     fftw         :   2647.02s CPU   2712.42s WALL (16033234 calls)
     interpolate  :      5.42s CPU      6.06s WALL (    2668 calls)
     davcio       :      0.01s CPU      0.03s WALL (      40 calls)
 
     Parallel routines
     fft_scatter  :   1246.86s CPU   1292.13s WALL (16133030 calls)
 
     PWSCF        :     2h58m CPU        3h 2m WALL

 
   This run was terminated on:  11: 3:43   9May2018            

=------------------------------------------------------------------------------=
   JOB DONE.
=------------------------------------------------------------------------------=
