  python dir          : /u/if/mamunm/src/espresso
  espresso dir        : /nfs/slac/g/suncatfs/sw/espv18/espresso-dynpy-beef/bin
  pseudo dir          : /u/if/mamunm/psp/gbrv1.5pbe
  ase-espresso py git : GITVERSION



     Program PWSCF v.5.1rc2 (svn rev. 11289) starts on 21Apr2018 at 23:23:25 

     This program is part of the open-source Quantum ESPRESSO suite
     for quantum simulation of materials; please cite
         "P. Giannozzi et al., J. Phys.:Condens. Matter 21 395502 (2009);
          URL http://www.quantum-espresso.org", 
     in publications or presentations arising from this work. More details at
     http://www.quantum-espresso.org/quote

     Parallel version (MPI), running on    32 processors
     K-points division:     npool     =       4
     R & G space division:  proc/nbgrp/npool/nimage =       8
     Reading input from pw.inp
     Message from routine read_cards :
     DEPRECATED: no units specified in CELL_PARAMETERS card

     Current dimensions of program PWSCF are:
     Max number of different atomic species (ntypx) = 10
     Max number of k-points (npk) =  40000
     Max angular momentum in pseudopotentials (lmaxx) =  3
     Presently stress not available with electric field


     **************************************************************************
     Initializing libbeef V0.1.1 with the BEEF-vdW functional.
     Citation: Wellendorff et al., PRB 85, 235149 (2012).
     **************************************************************************


     IMPORTANT: XC functional enforced from input :
     Exchange-correlation      = BEEF-VDW ( 1  4 27 13 2)
     Any further DFT definition will be discarded
     Please, verify this is what you really want


     Subspace diagonalization in iterative solution of the eigenvalue problem:
     a serial algorithm will be used

 
     Parallelization info
     --------------------
     sticks:   dense  smooth     PW     G-vecs:    dense   smooth      PW
     Min         358     144     41                67928    17211    2707
     Max         359     145     43                67951    17239    2717
     Sum        2869    1159    337               543535   137813   21685
 


     bravais-lattice index     =            0
     lattice parameter (alat)  =       1.8897  a.u.
     unit-cell volume          =    4569.9960 (a.u.)^3
     number of atoms/cell      =           15
     number of atomic types    =            3
     number of electrons       =       198.00
     number of Kohn-Sham states=          109
     kinetic-energy cutoff     =      36.7493  Ry
     charge density cutoff     =     367.4932  Ry
     convergence threshold     =      1.0E-05
     mixing beta               =       0.3000
     number of iterations used =           10  plain     mixing
     Exchange-correlation      = BEEF-VDW ( 1  4 27 13 2)
     nstep                     =           50


     celldm(1)=   1.889726  celldm(2)=   0.000000  celldm(3)=   0.000000
     celldm(4)=   0.000000  celldm(5)=   0.000000  celldm(6)=   0.000000

     crystal axes: (cart. coord. in units of alat)
               a(1) = (   5.637663   0.000000   0.000000 )  
               a(2) = (   2.818831   4.882359   0.000000 )  
               a(3) = (   0.000000   0.000000  24.603132 )  

     reciprocal axes: (cart. coord. in units 2 pi/alat)
               b(1) = (  0.177378 -0.102410  0.000000 )  
               b(2) = (  0.000000  0.204819  0.000000 )  
               b(3) = (  0.000000  0.000000  0.040645 )  


     PseudoPot. # 1 for Pd read from file:
     /u/if/mamunm/psp/gbrv1.5pbe/Pd.UPF
     MD5 check sum: 2d733d2bc2cbfd217af676df1668a4bc
     Pseudo is Ultrasoft + core correction, Zval = 16.0
     Generated by new atomic code, or converted to UPF format
     Using radial grid of  887 points,  6 beta functions with: 
                l(1) =   0
                l(2) =   0
                l(3) =   1
                l(4) =   1
                l(5) =   2
                l(6) =   2
     Q(r) pseudized with  8 coefficients,  rinner =    1.130   1.130   1.130
                                                       1.130   1.130

     PseudoPot. # 2 for C  read from file:
     /u/if/mamunm/psp/gbrv1.5pbe/C.UPF
     MD5 check sum: d1aef80898a10debaa0f26306b886e00
     Pseudo is Ultrasoft + core correction, Zval =  4.0
     Generated by new atomic code, or converted to UPF format
     Using radial grid of  721 points,  4 beta functions with: 
                l(1) =   0
                l(2) =   0
                l(3) =   1
                l(4) =   1
     Q(r) pseudized with  8 coefficients,  rinner =    1.100   1.100   1.100


     PseudoPot. # 3 for H  read from file:
     /u/if/mamunm/psp/gbrv1.5pbe/H.UPF
     MD5 check sum: 761ae9a214b05c3daf00ab9f6b793d6f
     Pseudo is Ultrasoft, Zval =  1.0
     Generated by new atomic code, or converted to UPF format
     Using radial grid of  615 points,  2 beta functions with: 
                l(1) =   0
                l(2) =   0
     Q(r) pseudized with  8 coefficients,  rinner =    0.700

     vdW kernel table read from file vdW_kernel_table
     MD5 check sum: 095c7af220d748ca6e76c0b4c6cfb241

     atomic species   valence    mass     pseudopotential
        Pd1           16.00   106.42000     Pd( 1.00)
        C1             4.00    12.01100     C ( 1.00)
        H1             1.00     1.00800     H ( 1.00)

     No symmetry found



   Cartesian axes

     site n.     atom                  positions (alat units)
         1           Pd1 tau(   1) = (   1.4094157   0.8137265  10.0000000  )
         2           Pd1 tau(   2) = (   4.2282471   0.8137265  10.0000000  )
         3           Pd1 tau(   3) = (   2.8188314   3.2549061  10.0000000  )
         4           Pd1 tau(   4) = (   5.6376627   3.2549061  10.0000000  )
         5           Pd1 tau(   5) = (   5.6376627   1.6274531  12.3015662  )
         6           Pd1 tau(   6) = (   2.8188314   1.6274531  12.3015662  )
         7           Pd1 tau(   7) = (   7.0470784   4.0686326  12.3015662  )
         8           Pd1 tau(   8) = (   4.2282471   4.0686326  12.3015662  )
         9           Pd1 tau(   9) = (   0.0000000   0.0000000  14.6031324  )
        10           Pd1 tau(  10) = (   2.8188314   0.0000000  14.6031324  )
        11           Pd1 tau(  11) = (   1.4094157   2.4411796  14.6031324  )
        12           Pd1 tau(  12) = (   4.2282471   2.4411796  14.6031324  )
        13           C1  tau(  13) = (   2.8188314   1.6274531  16.0006324  )
        14           H1  tau(  14) = (   3.4488314   2.2574531  16.6306324  )
        15           H1  tau(  15) = (   2.1888314   0.9974531  16.6306324  )

     number of k points=    20  Fermi-Dirac smearing, width (Ry)=  0.0110
                       cart. coord. in units 2pi/alat
        k(    1) = (   0.0000000   0.0000000   0.0000000), wk =   0.0555556
        k(    2) = (   0.0000000   0.0341365   0.0000000), wk =   0.1111111
        k(    3) = (   0.0000000   0.0682730   0.0000000), wk =   0.1111111
        k(    4) = (   0.0000000  -0.1024095   0.0000000), wk =   0.0555556
        k(    5) = (   0.0295631  -0.0170683   0.0000000), wk =   0.1111111
        k(    6) = (   0.0295631   0.0170683   0.0000000), wk =   0.1111111
        k(    7) = (   0.0295631   0.0512048   0.0000000), wk =   0.1111111
        k(    8) = (   0.0295631  -0.1194778   0.0000000), wk =   0.1111111
        k(    9) = (   0.0295631  -0.0853413   0.0000000), wk =   0.1111111
        k(   10) = (   0.0295631  -0.0512048   0.0000000), wk =   0.1111111
        k(   11) = (   0.0591262  -0.0341365   0.0000000), wk =   0.1111111
        k(   12) = (   0.0591262  -0.0000000   0.0000000), wk =   0.1111111
        k(   13) = (   0.0591262   0.0341365   0.0000000), wk =   0.1111111
        k(   14) = (   0.0591262  -0.1365460   0.0000000), wk =   0.1111111
        k(   15) = (   0.0591262  -0.1024095   0.0000000), wk =   0.1111111
        k(   16) = (   0.0591262  -0.0682730   0.0000000), wk =   0.1111111
        k(   17) = (  -0.0886892   0.0512048   0.0000000), wk =   0.0555556
        k(   18) = (  -0.0886892   0.0853413   0.0000000), wk =   0.1111111
        k(   19) = (  -0.0886892   0.1194778   0.0000000), wk =   0.1111111
        k(   20) = (  -0.0886892  -0.0512048   0.0000000), wk =   0.0555556

     Dense  grid:   543535 G-vectors     FFT dimensions: (  72,  72, 288)

     Smooth grid:   137813 G-vectors     FFT dimensions: (  45,  45, 180)

     Largest allocated arrays     est. size (Mb)     dimensions
        Kohn-Sham Wavefunctions         3.65 Mb     (    2194,  109)
        NL pseudopotentials             7.63 Mb     (    2194,  228)
        Each V/rho on FFT grid          2.85 Mb     (  186624)
        Each G-vector array             0.52 Mb     (   67930)
        G-vector shells                 0.13 Mb     (   17595)
     Largest temporary arrays     est. size (Mb)     dimensions
        Auxiliary wavefunctions        14.60 Mb     (    2194,  436)
        Each subspace H/S matrix        2.90 Mb     (     436,  436)
        Each <psi_i|beta_j> matrix      0.38 Mb     (     228,  109)
        Arrays for rho mixing          28.48 Mb     (  186624,   10)

     Initial potential from superposition of free atoms
     Check: negative starting charge=   -0.903953

     starting charge  191.99986, renormalised to  198.00000

     negative rho (up, down):  9.322E-01 0.000E+00


     ************************************************************************
     *
     * You are using vdW-DF for exchange-correlation in this calculation.
     * Please cite the following three references that made this development
     * possible:
     *
     *   M. Dion, H. Rydberg, E. Schroder, D. C. Langreth, and
     *   B. I. Lundqvist, Phys. Rev. Lett. 92, 246401 (2004).
     *
     *   T. Thonhauser, V. R. Cooper, S. Li, A. Puzder, P. Hyldgaard, and
     *   D. C. Langreth, Phys. Rev. B 76, 125112 (2007).
     *
     *   G. Roman-Perez and J. M. Soler, Phys. Rev. Lett. 103, 096102 (2009).
     *
     *
     * If you are using vdW-DF2, please also cite:
     *
     *   K. Lee, E. D. Murray, L. Kong, B. I. Lundqvist, and
     *   D. C. Langreth, Phys. Rev. B 82, 081101(R) (2010).
     *
     *
     * If you are calculating the stress with vdW-DF, please also cite:
     *
     *   R. Sabatini, E. Kucukbenli, B. Kolb, T. Thonhauser, and
     *   S. de Gironcoli, J. Phys.: Condens. Matter 24, 424209 (2012).
     *
     ************************************************************************

     Carrying out vdW-DF run using the following parameters:

     Nqs =      20    Nr_points =    1024   r_max =   100.000
     q_mesh =
               0.00001000     0.04494208     0.09755937     0.15916263
               0.23128650     0.31572767     0.41458969     0.53033537
               0.66584808     0.82450364     1.01025438     1.22772762
               1.48234092     1.78043706     2.12944203     2.53805004
               3.01644009     3.57652955     4.23227104     5.00000000

     Gradients computed in reciprocal space

     ************************************************************************


 
     Adding external electric field

     Computed dipole along edir(3) : 
        Dipole               -1.3847 Ry au,         -3.5195 Debye
        Dipole field         -0.0038 Ry au
 
        Potential amp.        0.3452 Ry
        Total length         45.3309 bohr
 
     Starting wfc are  150 randomized atomic wfcs

     total cpu time spent up to now is       11.8 secs

     per-process dynamical memory:    85.8 Mb

     Self-consistent Calculation

     iteration #  1     ecut=    36.75 Ry     beta=0.30
     Davidson diagonalization with overlap
     ethr =  1.00E-02,  avg # of iterations =  4.8

     negative rho (up, down):  9.259E-01 0.000E+00
 
     Adding external electric field

     Computed dipole along edir(3) : 
        Dipole               26.5775 Ry au,         67.5534 Debye
        Dipole field          0.0731 Ry au
 
        Potential amp.       -6.6257 Ry
        Total length         45.3309 bohr
 

     total cpu time spent up to now is       33.6 secs

     total energy              =   -2364.83502749 Ry
     Harris-Foulkes estimate   =   -2414.29310829 Ry
     estimated scf accuracy    <     104.65379831 Ry

     iteration #  2     ecut=    36.75 Ry     beta=0.30
     Davidson diagonalization with overlap
     ethr =  1.00E-02,  avg # of iterations = 15.4

     negative rho (up, down):  9.209E-01 0.000E+00
 
     Adding external electric field

     Computed dipole along edir(3) : 
        Dipole                1.7201 Ry au,          4.3719 Debye
        Dipole field          0.0047 Ry au
 
        Potential amp.       -0.4288 Ry
        Total length         45.3309 bohr
 

     total cpu time spent up to now is       79.9 secs

     total energy              =   -2220.42053103 Ry
     Harris-Foulkes estimate   =   -2656.86279432 Ry
     estimated scf accuracy    <   13481.27145941 Ry

     iteration #  3     ecut=    36.75 Ry     beta=0.30
     Davidson diagonalization with overlap
     ethr =  1.00E-02,  avg # of iterations =  7.7

     negative rho (up, down):  9.289E-01 0.000E+00
 
     Adding external electric field

     Computed dipole along edir(3) : 
        Dipole                3.7572 Ry au,          9.5499 Debye
        Dipole field          0.0103 Ry au
 
        Potential amp.       -0.9367 Ry
        Total length         45.3309 bohr
 

     total cpu time spent up to now is      114.4 secs

     total energy              =   -2383.68835282 Ry
     Harris-Foulkes estimate   =   -2458.82586077 Ry
     estimated scf accuracy    <    1270.94855645 Ry

     iteration #  4     ecut=    36.75 Ry     beta=0.30
     Davidson diagonalization with overlap
     ethr =  1.00E-02,  avg # of iterations =  5.5

     negative rho (up, down):  9.836E-01 0.000E+00
 
     Adding external electric field

     Computed dipole along edir(3) : 
        Dipole                4.0401 Ry au,         10.2688 Debye
        Dipole field          0.0111 Ry au
 
        Potential amp.       -1.0072 Ry
        Total length         45.3309 bohr
 

     total cpu time spent up to now is      142.4 secs

     total energy              =   -2409.33625957 Ry
     Harris-Foulkes estimate   =   -2414.29175061 Ry
     estimated scf accuracy    <      20.96683112 Ry

     iteration #  5     ecut=    36.75 Ry     beta=0.30
     Davidson diagonalization with overlap
     ethr =  1.00E-02,  avg # of iterations =  1.8

     negative rho (up, down):  9.336E-01 0.000E+00
 
     Adding external electric field

     Computed dipole along edir(3) : 
        Dipole                2.2650 Ry au,          5.7569 Debye
        Dipole field          0.0062 Ry au
 
        Potential amp.       -0.5646 Ry
        Total length         45.3309 bohr
 

     total cpu time spent up to now is      160.0 secs

     total energy              =   -2411.16165705 Ry
     Harris-Foulkes estimate   =   -2412.65966710 Ry
     estimated scf accuracy    <      11.74264509 Ry

     iteration #  6     ecut=    36.75 Ry     beta=0.30
     Davidson diagonalization with overlap
     ethr =  5.93E-03,  avg # of iterations =  1.4

     negative rho (up, down):  9.348E-01 0.000E+00
 
     Adding external electric field

     Computed dipole along edir(3) : 
        Dipole                1.1907 Ry au,          3.0264 Debye
        Dipole field          0.0033 Ry au
 
        Potential amp.       -0.2968 Ry
        Total length         45.3309 bohr
 

     total cpu time spent up to now is      177.3 secs

     total energy              =   -2411.20492034 Ry
     Harris-Foulkes estimate   =   -2411.61012383 Ry
     estimated scf accuracy    <       4.17716558 Ry

     iteration #  7     ecut=    36.75 Ry     beta=0.30
     Davidson diagonalization with overlap
     ethr =  2.11E-03,  avg # of iterations =  2.5

     negative rho (up, down):  9.354E-01 0.000E+00
 
     Adding external electric field

     Computed dipole along edir(3) : 
        Dipole                0.9599 Ry au,          2.4398 Debye
        Dipole field          0.0026 Ry au
 
        Potential amp.       -0.2393 Ry
        Total length         45.3309 bohr
 

     total cpu time spent up to now is      195.4 secs

     total energy              =   -2411.35933263 Ry
     Harris-Foulkes estimate   =   -2411.45392229 Ry
     estimated scf accuracy    <       1.03375734 Ry

     iteration #  8     ecut=    36.75 Ry     beta=0.30
     Davidson diagonalization with overlap
     ethr =  5.22E-04,  avg # of iterations =  1.9

     negative rho (up, down):  9.359E-01 0.000E+00
 
     Adding external electric field

     Computed dipole along edir(3) : 
        Dipole                0.8078 Ry au,          2.0532 Debye
        Dipole field          0.0022 Ry au
 
        Potential amp.       -0.2014 Ry
        Total length         45.3309 bohr
 

     total cpu time spent up to now is      213.0 secs

     total energy              =   -2411.36251707 Ry
     Harris-Foulkes estimate   =   -2411.40277534 Ry
     estimated scf accuracy    <       0.33233207 Ry

     iteration #  9     ecut=    36.75 Ry     beta=0.30
     Davidson diagonalization with overlap
     ethr =  1.68E-04,  avg # of iterations =  1.2

     negative rho (up, down):  9.371E-01 0.000E+00
 
     Adding external electric field

     Computed dipole along edir(3) : 
        Dipole                0.4678 Ry au,          1.1890 Debye
        Dipole field          0.0013 Ry au
 
        Potential amp.       -0.1166 Ry
        Total length         45.3309 bohr
 

     total cpu time spent up to now is      230.4 secs

     total energy              =   -2411.36228623 Ry
     Harris-Foulkes estimate   =   -2411.38529015 Ry
     estimated scf accuracy    <       0.09300939 Ry

     iteration # 10     ecut=    36.75 Ry     beta=0.30
     Davidson diagonalization with overlap
     ethr =  4.70E-05,  avg # of iterations =  5.1

     negative rho (up, down):  9.382E-01 0.000E+00
 
     Adding external electric field

     Computed dipole along edir(3) : 
        Dipole                0.1336 Ry au,          0.3396 Debye
        Dipole field          0.0004 Ry au
 
        Potential amp.       -0.0333 Ry
        Total length         45.3309 bohr
 

     total cpu time spent up to now is      249.5 secs

     total energy              =   -2411.34135195 Ry
     Harris-Foulkes estimate   =   -2411.37658976 Ry
     estimated scf accuracy    <       0.37346183 Ry

     iteration # 11     ecut=    36.75 Ry     beta=0.30
     Davidson diagonalization with overlap
     ethr =  4.70E-05,  avg # of iterations =  3.5

     negative rho (up, down):  9.389E-01 0.000E+00
 
     Adding external electric field

     Computed dipole along edir(3) : 
        Dipole               -0.0004 Ry au,         -0.0011 Debye
        Dipole field         -0.0000 Ry au
 
        Potential amp.        0.0001 Ry
        Total length         45.3309 bohr
 

     total cpu time spent up to now is      268.2 secs

     total energy              =   -2411.35224165 Ry
     Harris-Foulkes estimate   =   -2411.35860023 Ry
     estimated scf accuracy    <       0.04230736 Ry

     iteration # 12     ecut=    36.75 Ry     beta=0.30
     Davidson diagonalization with overlap
     ethr =  2.14E-05,  avg # of iterations =  3.0

     negative rho (up, down):  9.393E-01 0.000E+00
 
     Adding external electric field

     Computed dipole along edir(3) : 
        Dipole               -0.0433 Ry au,         -0.1101 Debye
        Dipole field         -0.0001 Ry au
 
        Potential amp.        0.0108 Ry
        Total length         45.3309 bohr
 

     total cpu time spent up to now is      286.4 secs

     total energy              =   -2411.35341211 Ry
     Harris-Foulkes estimate   =   -2411.35559983 Ry
     estimated scf accuracy    <       0.01970837 Ry

     iteration # 13     ecut=    36.75 Ry     beta=0.30
     Davidson diagonalization with overlap
     ethr =  9.95E-06,  avg # of iterations =  1.9

     negative rho (up, down):  9.397E-01 0.000E+00
 
     Adding external electric field

     Computed dipole along edir(3) : 
        Dipole                0.0504 Ry au,          0.1282 Debye
        Dipole field          0.0001 Ry au
 
        Potential amp.       -0.0126 Ry
        Total length         45.3309 bohr
 

     total cpu time spent up to now is      304.4 secs

     total energy              =   -2411.35386346 Ry
     Harris-Foulkes estimate   =   -2411.35488473 Ry
     estimated scf accuracy    <       0.00728996 Ry

     iteration # 14     ecut=    36.75 Ry     beta=0.30
     Davidson diagonalization with overlap
     ethr =  3.68E-06,  avg # of iterations =  5.2

     negative rho (up, down):  9.400E-01 0.000E+00
 
     Adding external electric field

     Computed dipole along edir(3) : 
        Dipole                0.1265 Ry au,          0.3215 Debye
        Dipole field          0.0003 Ry au
 
        Potential amp.       -0.0315 Ry
        Total length         45.3309 bohr
 

     total cpu time spent up to now is      324.0 secs

     total energy              =   -2411.35401108 Ry
     Harris-Foulkes estimate   =   -2411.35455213 Ry
     estimated scf accuracy    <       0.00340357 Ry

     iteration # 15     ecut=    36.75 Ry     beta=0.30
     Davidson diagonalization with overlap
     ethr =  1.72E-06,  avg # of iterations =  3.5

     negative rho (up, down):  9.404E-01 0.000E+00
 
     Adding external electric field

     Computed dipole along edir(3) : 
        Dipole                0.1371 Ry au,          0.3485 Debye
        Dipole field          0.0004 Ry au
 
        Potential amp.       -0.0342 Ry
        Total length         45.3309 bohr
 

     total cpu time spent up to now is      343.4 secs

     total energy              =   -2411.35429519 Ry
     Harris-Foulkes estimate   =   -2411.35457646 Ry
     estimated scf accuracy    <       0.00347779 Ry

     iteration # 16     ecut=    36.75 Ry     beta=0.30
     Davidson diagonalization with overlap
     ethr =  1.72E-06,  avg # of iterations =  1.9

     negative rho (up, down):  9.408E-01 0.000E+00
 
     Adding external electric field

     Computed dipole along edir(3) : 
        Dipole                0.1688 Ry au,          0.4291 Debye
        Dipole field          0.0005 Ry au
 
        Potential amp.       -0.0421 Ry
        Total length         45.3309 bohr
 

     total cpu time spent up to now is      360.9 secs

     total energy              =   -2411.35448748 Ry
     Harris-Foulkes estimate   =   -2411.35453295 Ry
     estimated scf accuracy    <       0.00074678 Ry

     iteration # 17     ecut=    36.75 Ry     beta=0.30
     Davidson diagonalization with overlap
     ethr =  3.77E-07,  avg # of iterations =  2.4

     negative rho (up, down):  9.412E-01 0.000E+00
 
     Adding external electric field

     Computed dipole along edir(3) : 
        Dipole                0.1864 Ry au,          0.4737 Debye
        Dipole field          0.0005 Ry au
 
        Potential amp.       -0.0465 Ry
        Total length         45.3309 bohr
 

     total cpu time spent up to now is      378.9 secs

     total energy              =   -2411.35455718 Ry
     Harris-Foulkes estimate   =   -2411.35455113 Ry
     estimated scf accuracy    <       0.00016514 Ry

     iteration # 18     ecut=    36.75 Ry     beta=0.30
     Davidson diagonalization with overlap
     ethr =  8.34E-08,  avg # of iterations =  3.2

     negative rho (up, down):  9.415E-01 0.000E+00
 
     Adding external electric field

     Computed dipole along edir(3) : 
        Dipole                0.2047 Ry au,          0.5202 Debye
        Dipole field          0.0006 Ry au
 
        Potential amp.       -0.0510 Ry
        Total length         45.3309 bohr
 

     total cpu time spent up to now is      398.2 secs

     total energy              =   -2411.35454503 Ry
     Harris-Foulkes estimate   =   -2411.35460773 Ry
     estimated scf accuracy    <       0.00182710 Ry

     iteration # 19     ecut=    36.75 Ry     beta=0.30
     Davidson diagonalization with overlap
     ethr =  8.34E-08,  avg # of iterations =  2.0

     negative rho (up, down):  9.418E-01 0.000E+00
 
     Adding external electric field

     Computed dipole along edir(3) : 
        Dipole                0.2088 Ry au,          0.5307 Debye
        Dipole field          0.0006 Ry au
 
        Potential amp.       -0.0521 Ry
        Total length         45.3309 bohr
 

     total cpu time spent up to now is      415.9 secs

     total energy              =   -2411.35458760 Ry
     Harris-Foulkes estimate   =   -2411.35458725 Ry
     estimated scf accuracy    <       0.00004206 Ry

     iteration # 20     ecut=    36.75 Ry     beta=0.30
     Davidson diagonalization with overlap
     ethr =  2.12E-08,  avg # of iterations =  1.1

     negative rho (up, down):  9.420E-01 0.000E+00
 
     Adding external electric field

     Computed dipole along edir(3) : 
        Dipole                0.2140 Ry au,          0.5438 Debye
        Dipole field          0.0006 Ry au
 
        Potential amp.       -0.0533 Ry
        Total length         45.3309 bohr
 

     total cpu time spent up to now is      433.1 secs

     total energy              =   -2411.35458828 Ry
     Harris-Foulkes estimate   =   -2411.35458559 Ry
     estimated scf accuracy    <       0.00001377 Ry

     iteration # 21     ecut=    36.75 Ry     beta=0.30
     Davidson diagonalization with overlap
     ethr =  6.95E-09,  avg # of iterations =  1.9

     negative rho (up, down):  9.422E-01 0.000E+00

     negative rho (up, down):  9.422E-01 0.000E+00

     negative rho (up, down):  9.422E-01 0.000E+00

     negative rho (up, down):  9.422E-01 0.000E+00

     negative rho (up, down):  9.422E-01 0.000E+00

     negative rho (up, down):  9.422E-01 0.000E+00

     negative rho (up, down):  9.422E-01 0.000E+00

     negative rho (up, down):  9.422E-01 0.000E+00

     negative rho (up, down):  9.422E-01 0.000E+00

     negative rho (up, down):  9.422E-01 0.000E+00

     negative rho (up, down):  9.422E-01 0.000E+00

     negative rho (up, down):  9.422E-01 0.000E+00

     negative rho (up, down):  9.422E-01 0.000E+00

     negative rho (up, down):  9.422E-01 0.000E+00

     negative rho (up, down):  9.422E-01 0.000E+00

     negative rho (up, down):  9.422E-01 0.000E+00

     negative rho (up, down):  9.422E-01 0.000E+00

     negative rho (up, down):  9.422E-01 0.000E+00

     negative rho (up, down):  9.422E-01 0.000E+00

     negative rho (up, down):  9.422E-01 0.000E+00

     negative rho (up, down):  9.422E-01 0.000E+00

     negative rho (up, down):  9.422E-01 0.000E+00

     negative rho (up, down):  9.422E-01 0.000E+00

     negative rho (up, down):  9.422E-01 0.000E+00

     negative rho (up, down):  9.422E-01 0.000E+00

     negative rho (up, down):  9.422E-01 0.000E+00

     negative rho (up, down):  9.422E-01 0.000E+00

     negative rho (up, down):  9.422E-01 0.000E+00

     negative rho (up, down):  9.422E-01 0.000E+00

     negative rho (up, down):  9.422E-01 0.000E+00

     negative rho (up, down):  9.422E-01 0.000E+00

     negative rho (up, down):  9.422E-01 0.000E+00

     negative rho (up, down):  9.422E-01 0.000E+00

     negative rho (up, down):  9.422E-01 0.000E+00

     negative rho (up, down):  9.422E-01 0.000E+00
 
     Adding external electric field

     Computed dipole along edir(3) : 
        Dipole                0.2155 Ry au,          0.5479 Debye
        Dipole field          0.0006 Ry au
 
        Potential amp.       -0.0537 Ry
        Total length         45.3309 bohr
 

     total cpu time spent up to now is      497.6 secs

     End of self-consistent calculation

          k = 0.0000 0.0000 0.0000 ( 17231 PWs)   bands (ev):

   -48.9360 -48.8169 -48.7604 -48.6246 -48.6069 -48.5517 -48.5365 -48.5350
   -48.5251 -48.5084 -48.4401 -48.4140 -48.4067 -48.3997 -48.3837 -48.3743
   -48.3592 -48.3582 -48.3404 -48.3011 -48.2946 -48.2871 -48.2860 -48.2813
   -48.1319 -48.1313 -48.1172 -48.1117 -48.1109 -48.0660 -48.0653 -48.0102
   -47.9607 -47.9551 -47.9460 -47.9405 -11.3536  -5.6356  -4.7593  -4.1803
    -3.2180  -3.2014  -3.0813  -3.0787  -3.0774  -2.9585  -2.8408  -2.8104
    -2.7875  -2.7567  -2.6863  -2.5644  -2.5508  -2.1184  -2.0575  -1.6240
    -1.4752  -1.3948  -1.3019  -1.2765  -1.2003  -1.1243  -1.0277  -1.0222
    -0.9705  -0.8534  -0.8069  -0.7753  -0.7753  -0.7334  -0.6362  -0.1894
    -0.1553  -0.1351  -0.1257   0.0752   0.1121   0.2415   0.2527   0.3853
     0.4295   0.5290   0.5727   0.7695   0.9929   1.0004   1.0112   1.0284
     1.1126   1.1144   1.1369   1.1454   1.1699   1.2682   1.2983   1.3684
     1.3982   1.4001   1.5628   1.5639   1.5713   2.0013   2.2593   3.0921
     3.5643   3.6518   4.1883   4.8558   4.9302

          k = 0.0000 0.0341 0.0000 ( 17192 PWs)   bands (ev):

   -48.9284 -48.8168 -48.7623 -48.6184 -48.6023 -48.5430 -48.5319 -48.5288
   -48.5168 -48.5096 -48.4412 -48.4149 -48.4072 -48.3976 -48.3867 -48.3743
   -48.3652 -48.3589 -48.3431 -48.3135 -48.2993 -48.2817 -48.2787 -48.2714
   -48.1405 -48.1331 -48.1211 -48.1145 -48.1133 -48.0808 -48.0697 -48.0094
   -47.9604 -47.9550 -47.9461 -47.9408 -11.3469  -5.6459  -4.6296  -4.0150
    -3.1353  -3.0565  -2.9820  -2.9353  -2.9064  -2.8466  -2.7435  -2.7250
    -2.7014  -2.6743  -2.5818  -2.4556  -2.4064  -2.0666  -2.0122  -1.5971
    -1.4737  -1.3556  -1.2812  -1.2509  -1.2187  -1.1829  -1.1065  -0.9815
    -0.9294  -0.9133  -0.8557  -0.8417  -0.7142  -0.6754  -0.6323  -0.4201
    -0.3035  -0.2444  -0.1775  -0.0028   0.0415   0.1589   0.2001   0.2739
     0.3151   0.3888   0.5194   0.6495   0.7622   0.8134   0.8439   0.8982
     0.9305   0.9515   0.9932   1.0711   1.1018   1.1238   1.1698   1.1825
     1.2529   1.3424   1.3769   1.3991   1.4694   1.9476   2.3888   2.7382
     3.5682   3.6409   3.8147   4.1757   4.7574

          k = 0.0000 0.0683 0.0000 ( 17196 PWs)   bands (ev):

   -48.9112 -48.8184 -48.7666 -48.6014 -48.5928 -48.5462 -48.5204 -48.5107
   -48.5033 -48.4843 -48.4440 -48.4194 -48.4068 -48.4018 -48.3898 -48.3817
   -48.3769 -48.3642 -48.3517 -48.3376 -48.3105 -48.2664 -48.2587 -48.2382
   -48.1624 -48.1468 -48.1308 -48.1217 -48.1171 -48.1091 -48.0800 -48.0079
   -47.9599 -47.9546 -47.9466 -47.9415 -11.3336  -5.6646  -4.3491  -3.5549
    -2.9922  -2.7835  -2.6959  -2.6392  -2.5949  -2.4910  -2.4697  -2.4564
    -2.4383  -2.4012  -2.3491  -2.2119  -2.0415  -1.9481  -1.8104  -1.6078
    -1.5712  -1.4620  -1.4171  -1.3173  -1.2181  -1.1508  -1.1286  -1.0602
    -0.9888  -0.9411  -0.8373  -0.7331  -0.7067  -0.6957  -0.6497  -0.6072
    -0.5502  -0.4300  -0.3340  -0.2658  -0.1622  -0.0571  -0.0222  -0.0053
     0.0194   0.0552   0.1347   0.1636   0.2627   0.4010   0.4970   0.5402
     0.5974   0.6518   0.7004   0.7431   0.7457   0.8690   0.9243   0.9512
     1.0555   1.1230   1.1722   1.3019   1.3620   1.6458   2.0225   2.8963
     3.3196   3.8362   4.0877   4.6261   4.8351

          k = 0.0000-0.1024 0.0000 ( 17240 PWs)   bands (ev):

   -48.9010 -48.8209 -48.7689 -48.5899 -48.5823 -48.5628 -48.5094 -48.4991
   -48.4942 -48.4661 -48.4285 -48.4217 -48.4129 -48.4096 -48.3989 -48.3887
   -48.3846 -48.3802 -48.3614 -48.3258 -48.3236 -48.2564 -48.2438 -48.2026
   -48.1719 -48.1681 -48.1565 -48.1357 -48.1187 -48.1000 -48.0900 -48.0072
   -47.9597 -47.9543 -47.9470 -47.9417 -11.3269  -5.6734  -4.1907  -3.1020
    -3.0286  -2.6916  -2.5214  -2.4997  -2.4073  -2.3468  -2.3033  -2.2090
    -2.1644  -2.0751  -2.0578  -2.0118  -1.9498  -1.8920  -1.7958  -1.6629
    -1.5040  -1.4752  -1.4479  -1.4116  -1.3701  -1.2244  -1.1829  -1.1454
    -0.9485  -0.9324  -0.8958  -0.7591  -0.7313  -0.6848  -0.6367  -0.6038
    -0.5706  -0.5549  -0.4866  -0.4705  -0.4019  -0.3830  -0.2974  -0.1457
    -0.1006  -0.0452   0.0081   0.0309   0.0592   0.1300   0.1898   0.2317
     0.2777   0.3335   0.4774   0.5536   0.5998   0.6437   0.9076   1.0084
     1.0750   1.1091   1.1564   1.2448   1.3675   1.3722   2.1780   2.8201
     3.7265   3.8372   4.1829   4.3230   5.1329

          k = 0.0296-0.0171 0.0000 ( 17192 PWs)   bands (ev):

   -48.9265 -48.8221 -48.7587 -48.6182 -48.6010 -48.5436 -48.5313 -48.5273
   -48.5200 -48.5104 -48.4451 -48.4130 -48.4069 -48.3983 -48.3820 -48.3742
   -48.3655 -48.3596 -48.3435 -48.3094 -48.3033 -48.2809 -48.2793 -48.2716
   -48.1403 -48.1340 -48.1190 -48.1157 -48.1137 -48.0814 -48.0691 -48.0094
   -47.9605 -47.9550 -47.9458 -47.9411 -11.3476  -5.6307  -4.6336  -4.0182
    -3.1678  -3.0572  -2.9781  -2.9371  -2.9063  -2.8413  -2.7364  -2.7252
    -2.6963  -2.6695  -2.5917  -2.4590  -2.3987  -2.0774  -2.0164  -1.6073
    -1.4800  -1.3422  -1.2747  -1.2506  -1.2212  -1.1828  -1.0505  -1.0067
    -0.9221  -0.8984  -0.8583  -0.8118  -0.7566  -0.6681  -0.6560  -0.4173
    -0.3069  -0.2439  -0.1690   0.0094   0.0911   0.1419   0.2041   0.2668
     0.3115   0.3817   0.5460   0.5991   0.7694   0.8017   0.8431   0.9017
     0.9273   0.9481   1.0056   1.0626   1.1165   1.1240   1.1758   1.1821
     1.2525   1.3573   1.3836   1.4019   1.4652   1.8092   2.4194   2.7304
     3.5524   3.6690   3.8825   4.1672   4.6978

          k = 0.0296 0.0171 0.0000 ( 17192 PWs)   bands (ev):

   -48.9291 -48.8143 -48.7641 -48.6208 -48.6018 -48.5434 -48.5288 -48.5233
   -48.5205 -48.5111 -48.4404 -48.4160 -48.4057 -48.3989 -48.3873 -48.3761
   -48.3636 -48.3605 -48.3418 -48.3162 -48.2968 -48.2829 -48.2767 -48.2719
   -48.1409 -48.1320 -48.1221 -48.1152 -48.1125 -48.0809 -48.0695 -48.0094
   -47.9602 -47.9550 -47.9467 -47.9405 -11.3465  -5.6590  -4.6237  -4.0117
    -3.0975  -3.0586  -2.9861  -2.9334  -2.9068  -2.8554  -2.7526  -2.7234
    -2.7080  -2.6728  -2.5722  -2.4493  -2.4189  -2.0497  -2.0144  -1.5879
    -1.4653  -1.3804  -1.2873  -1.2424  -1.2175  -1.1918  -1.1475  -0.9720
    -0.9368  -0.9161  -0.8559  -0.8515  -0.6975  -0.6819  -0.6080  -0.4298
    -0.2769  -0.2507  -0.1965  -0.0089   0.0143   0.1639   0.1956   0.2803
     0.3156   0.3911   0.5081   0.6883   0.7501   0.8223   0.8438   0.8933
     0.9347   0.9476   0.9762   1.0794   1.1077   1.1242   1.1660   1.1844
     1.2531   1.3318   1.3753   1.3986   1.4641   2.1274   2.2989   2.7380
     3.5527   3.6272   3.7643   4.1835   4.8174

          k = 0.0296 0.0512 0.0000 ( 17186 PWs)   bands (ev):

   -48.9183 -48.8092 -48.7718 -48.6123 -48.5946 -48.5324 -48.5251 -48.5127
   -48.5044 -48.5009 -48.4383 -48.4235 -48.4061 -48.4016 -48.3931 -48.3833
   -48.3669 -48.3579 -48.3459 -48.3420 -48.3044 -48.2729 -48.2575 -48.2539
   -48.1619 -48.1303 -48.1287 -48.1198 -48.1155 -48.1066 -48.0778 -48.0083
   -47.9596 -47.9547 -47.9476 -47.9406 -11.3360  -5.6850  -4.4151  -3.6839
    -2.9222  -2.8135  -2.7810  -2.7094  -2.6758  -2.6195  -2.5902  -2.5576
    -2.5446  -2.4799  -2.3810  -2.2552  -2.1869  -1.9923  -1.8886  -1.5662
    -1.5065  -1.4483  -1.4011  -1.3357  -1.2555  -1.1675  -1.1392  -1.0649
    -0.9869  -0.8734  -0.8083  -0.7775  -0.7350  -0.6849  -0.6644  -0.5542
    -0.5069  -0.3894  -0.3651  -0.2069  -0.0543   0.0028   0.0515   0.0933
     0.1078   0.2344   0.2756   0.2898   0.3686   0.4310   0.5487   0.6333
     0.6956   0.7256   0.7701   0.8074   0.8961   1.0111   1.0201   1.0611
     1.1092   1.1717   1.2355   1.2585   1.6689   1.8595   2.3151   2.3973
     2.9070   3.3917   4.1421   4.4583   5.2448

          k = 0.0296-0.1195 0.0000 ( 17183 PWs)   bands (ev):

   -48.9020 -48.8180 -48.7710 -48.5971 -48.5838 -48.5483 -48.5131 -48.4986
   -48.4869 -48.4696 -48.4407 -48.4315 -48.4156 -48.4036 -48.3965 -48.3877
   -48.3809 -48.3661 -48.3596 -48.3400 -48.3196 -48.2553 -48.2361 -48.2178
   -48.1885 -48.1574 -48.1348 -48.1329 -48.1202 -48.1092 -48.0918 -48.0072
   -47.9593 -47.9542 -47.9478 -47.9412 -11.3265  -5.6838  -4.1866  -3.1516
    -2.8655  -2.6351  -2.4783  -2.4356  -2.4116  -2.3801  -2.2838  -2.2524
    -2.2342  -2.1554  -2.0685  -2.0256  -1.9308  -1.8364  -1.7836  -1.7123
    -1.5942  -1.5411  -1.4602  -1.3487  -1.3082  -1.2661  -1.2248  -1.1907
    -1.0468  -0.9885  -0.9394  -0.9180  -0.8150  -0.7689  -0.7234  -0.6721
    -0.5992  -0.5396  -0.4641  -0.4266  -0.3507  -0.3358  -0.2664  -0.1756
    -0.0844  -0.0174   0.0261   0.0839   0.1269   0.1946   0.2776   0.3691
     0.4135   0.5256   0.5743   0.6501   0.7451   0.9077   0.9508   1.0038
     1.0426   1.0847   1.1495   1.1951   1.2384   1.5149   1.9476   2.4670
     2.9574   3.3668   4.2961   4.8855   5.4151

          k = 0.0296-0.0853 0.0000 ( 17183 PWs)   bands (ev):

   -48.8970 -48.8299 -48.7638 -48.5897 -48.5802 -48.5616 -48.5132 -48.4995
   -48.4895 -48.4684 -48.4423 -48.4342 -48.4077 -48.4058 -48.3940 -48.3869
   -48.3768 -48.3670 -48.3614 -48.3363 -48.3251 -48.2546 -48.2363 -48.2172
   -48.1912 -48.1552 -48.1339 -48.1324 -48.1219 -48.1098 -48.0913 -48.0071
   -47.9597 -47.9544 -47.9467 -47.9419 -11.3276  -5.6583  -4.1873  -3.2076
    -2.9311  -2.6586  -2.4812  -2.4365  -2.4072  -2.3270  -2.2635  -2.2412
    -2.2205  -2.1820  -2.0559  -2.0019  -1.9478  -1.8338  -1.7512  -1.6617
    -1.5692  -1.5440  -1.4684  -1.4097  -1.3413  -1.2501  -1.2460  -1.1595
    -1.0481  -1.0051  -0.9248  -0.8896  -0.8018  -0.7743  -0.7030  -0.6776
    -0.5955  -0.5394  -0.4748  -0.4075  -0.3472  -0.2992  -0.2720  -0.2495
    -0.0773  -0.0297   0.0304   0.0625   0.1353   0.2126   0.2714   0.3354
     0.4597   0.5215   0.5969   0.6429   0.7284   0.8926   0.9391   0.9884
     1.0558   1.0953   1.1227   1.2090   1.2376   1.5050   2.0461   2.3549
     2.7618   3.6661   4.1675   4.8448   5.4282

          k = 0.0296-0.0512 0.0000 ( 17186 PWs)   bands (ev):

   -48.9115 -48.8287 -48.7586 -48.6035 -48.5941 -48.5440 -48.5265 -48.5182
   -48.5044 -48.4979 -48.4485 -48.4150 -48.4090 -48.3955 -48.3893 -48.3792
   -48.3680 -48.3599 -48.3456 -48.3350 -48.3122 -48.2712 -48.2594 -48.2536
   -48.1633 -48.1299 -48.1244 -48.1202 -48.1175 -48.1083 -48.0773 -48.0082
   -47.9602 -47.9548 -47.9455 -47.9420 -11.3381  -5.6317  -4.4279  -3.7086
    -3.0829  -2.8043  -2.7895  -2.7116  -2.6800  -2.5974  -2.5648  -2.5426
    -2.5187  -2.4638  -2.4243  -2.2738  -2.1337  -2.0174  -1.8810  -1.5850
    -1.4848  -1.4487  -1.3762  -1.2749  -1.2212  -1.1797  -1.1019  -1.0763
    -0.9831  -0.8543  -0.8061  -0.7718  -0.7540  -0.7124  -0.6566  -0.5606
    -0.4732  -0.3989  -0.3259  -0.1868  -0.0793   0.0202   0.0590   0.0818
     0.1058   0.2021   0.2734   0.3064   0.3383   0.3905   0.5854   0.6371
     0.6706   0.7613   0.7778   0.8326   0.9087   0.9524   1.0114   1.0302
     1.0753   1.2183   1.2466   1.2614   1.6580   1.7455   2.1850   2.3960
     3.0350   3.3778   4.1258   4.4544   5.2677

          k = 0.0591-0.0341 0.0000 ( 17196 PWs)   bands (ev):

   -48.9021 -48.8384 -48.7551 -48.6009 -48.5876 -48.5427 -48.5295 -48.5099
   -48.5023 -48.4958 -48.4482 -48.4119 -48.4092 -48.4003 -48.3822 -48.3813
   -48.3759 -48.3630 -48.3487 -48.3402 -48.3144 -48.2651 -48.2591 -48.2389
   -48.1623 -48.1482 -48.1273 -48.1222 -48.1209 -48.1080 -48.0795 -48.0078
   -47.9602 -47.9547 -47.9454 -47.9424 -11.3356  -5.6213  -4.3579  -3.5765
    -3.0831  -2.7876  -2.6878  -2.6229  -2.5970  -2.4819  -2.4649  -2.4563
    -2.4263  -2.4083  -2.3755  -2.2129  -2.0021  -1.9719  -1.8052  -1.6107
    -1.5731  -1.4618  -1.4072  -1.2307  -1.2246  -1.1415  -1.1104  -1.0553
    -1.0210  -0.9393  -0.8343  -0.7453  -0.7012  -0.6986  -0.6724  -0.6083
    -0.5418  -0.3706  -0.3431  -0.2442  -0.1774  -0.0421  -0.0219   0.0000
     0.0142   0.0690   0.1184   0.1645   0.2306   0.4360   0.4951   0.5520
     0.6018   0.6295   0.7137   0.7419   0.7560   0.8371   0.9262   0.9522
     1.0490   1.1288   1.1765   1.3078   1.3579   1.4653   1.9713   2.9614
     3.3751   3.7879   4.0895   4.5900   4.8724

          k = 0.0591-0.0000 0.0000 ( 17186 PWs)   bands (ev):

   -48.9137 -48.8234 -48.7618 -48.6120 -48.5906 -48.5335 -48.5278 -48.5114
   -48.5080 -48.5028 -48.4470 -48.4171 -48.4040 -48.4010 -48.3906 -48.3808
   -48.3674 -48.3597 -48.3448 -48.3394 -48.3076 -48.2723 -48.2580 -48.2540
   -48.1625 -48.1303 -48.1270 -48.1191 -48.1175 -48.1073 -48.0771 -48.0083
   -47.9598 -47.9547 -47.9470 -47.9410 -11.3373  -5.6567  -4.4195  -3.6951
    -3.0114  -2.8048  -2.7898  -2.7108  -2.6817  -2.5990  -2.5753  -2.5518
    -2.5287  -2.4775  -2.3971  -2.2661  -2.1621  -2.0048  -1.8834  -1.5814
    -1.4963  -1.4464  -1.3829  -1.3034  -1.2415  -1.1724  -1.1273  -1.0684
    -0.9857  -0.8648  -0.8079  -0.7759  -0.7409  -0.7055  -0.6583  -0.5541
    -0.4875  -0.3954  -0.3458  -0.2053  -0.0566   0.0099   0.0584   0.0859
     0.1061   0.2205   0.2757   0.2938   0.3581   0.4061   0.5703   0.6336
     0.6804   0.7464   0.7721   0.8140   0.9006   1.0053   1.0129   1.0444
     1.0836   1.2020   1.2406   1.2592   1.6668   1.7942   2.2297   2.3979
     2.9639   3.3978   4.1338   4.4506   5.2540

          k = 0.0591 0.0341 0.0000 ( 17196 PWs)   bands (ev):

   -48.9143 -48.8078 -48.7745 -48.6130 -48.5892 -48.5296 -48.5202 -48.5119
   -48.5050 -48.4856 -48.4397 -48.4238 -48.4058 -48.3988 -48.3968 -48.3830
   -48.3791 -48.3662 -48.3532 -48.3352 -48.3067 -48.2686 -48.2565 -48.2382
   -48.1632 -48.1448 -48.1326 -48.1220 -48.1157 -48.1109 -48.0792 -48.0080
   -47.9591 -47.9544 -47.9486 -47.9403 -11.3324  -5.6996  -4.3340  -3.5385
    -2.8700  -2.7792  -2.7074  -2.6739  -2.5921  -2.5059  -2.4683  -2.4539
    -2.4457  -2.3963  -2.3247  -2.1994  -2.0958  -1.9311  -1.8241  -1.6152
    -1.5621  -1.4801  -1.4537  -1.3694  -1.2122  -1.1492  -1.1330  -1.0625
    -0.9710  -0.9470  -0.8390  -0.7226  -0.7125  -0.6908  -0.6282  -0.6051
    -0.5642  -0.4742  -0.3315  -0.2650  -0.1498  -0.0703  -0.0234  -0.0084
     0.0249   0.0465   0.1417   0.1628   0.2916   0.3659   0.4966   0.5343
     0.5957   0.6656   0.6880   0.7365   0.7428   0.8828   0.9226   0.9511
     1.0800   1.1193   1.1688   1.3030   1.3635   1.7626   2.1830   2.7017
     3.2977   3.8754   4.0812   4.6361   4.7770

          k = 0.0591-0.1365 0.0000 ( 17183 PWs)   bands (ev):

   -48.9045 -48.8095 -48.7772 -48.6060 -48.5822 -48.5316 -48.5198 -48.4996
   -48.4866 -48.4651 -48.4401 -48.4338 -48.4187 -48.4023 -48.3962 -48.3916
   -48.3817 -48.3702 -48.3591 -48.3368 -48.3176 -48.2566 -48.2347 -48.2172
   -48.1899 -48.1557 -48.1356 -48.1335 -48.1192 -48.1111 -48.0907 -48.0073
   -47.9588 -47.9539 -47.9493 -47.9405 -11.3257  -5.7062  -4.1766  -3.1317
    -2.7625  -2.6488  -2.4744  -2.4651  -2.4137  -2.3715  -2.2954  -2.2462
    -2.2364  -2.1592  -2.0975  -2.0222  -1.9556  -1.8505  -1.7723  -1.7186
    -1.5969  -1.5536  -1.4619  -1.3701  -1.3198  -1.2560  -1.2352  -1.1795
    -1.0447  -0.9902  -0.9301  -0.9153  -0.8086  -0.7551  -0.7368  -0.6749
    -0.5970  -0.5412  -0.4631  -0.4444  -0.3475  -0.3345  -0.2689  -0.1898
    -0.0808  -0.0224   0.0388   0.0783   0.1267   0.1816   0.2738   0.3655
     0.4202   0.5395   0.5798   0.6440   0.7229   0.9142   0.9484   1.0040
     1.0522   1.0890   1.1629   1.1917   1.2391   1.6940   1.8602   2.4396
     2.9002   3.4976   4.1720   4.8957   5.3900

          k = 0.0591-0.1024 0.0000 ( 17208 PWs)   bands (ev):

   -48.8904 -48.8329 -48.7650 -48.5948 -48.5717 -48.5526 -48.5176 -48.4841
   -48.4747 -48.4665 -48.4529 -48.4309 -48.4196 -48.4119 -48.3974 -48.3904
   -48.3805 -48.3613 -48.3528 -48.3422 -48.3353 -48.2358 -48.2274 -48.2047
   -48.2017 -48.1861 -48.1322 -48.1256 -48.1150 -48.1120 -48.1098 -48.0068
   -47.9592 -47.9541 -47.9481 -47.9413 -11.3240  -5.6719  -4.0923  -2.9633
    -2.6669  -2.6417  -2.4408  -2.1862  -2.1787  -2.1599  -2.1408  -2.1125
    -2.0669  -2.0284  -2.0079  -1.9598  -1.9308  -1.9065  -1.7818  -1.6628
    -1.6031  -1.5480  -1.4485  -1.4107  -1.3992  -1.3749  -1.3586  -1.2877
    -1.1411  -1.1002  -1.0572  -1.0519  -1.0416  -1.0134  -0.7512  -0.6897
    -0.6825  -0.6728  -0.6219  -0.5894  -0.5424  -0.5140  -0.3369  -0.1294
    -0.1184  -0.0550   0.1342   0.1702   0.2025   0.2802   0.3428   0.3918
     0.4307   0.6001   0.6473   0.7479   0.8038   0.9349   0.9785   0.9879
     1.0091   1.0730   1.0807   1.0862   1.1332   1.4375   1.4487   1.9423
     2.6594   3.4432   4.3564   4.7969   5.6038

          k = 0.0591-0.0683 0.0000 ( 17183 PWs)   bands (ev):

   -48.8872 -48.8468 -48.7563 -48.5872 -48.5792 -48.5587 -48.5216 -48.4991
   -48.4877 -48.4810 -48.4381 -48.4325 -48.4072 -48.4017 -48.3953 -48.3849
   -48.3727 -48.3650 -48.3611 -48.3401 -48.3269 -48.2539 -48.2361 -48.2181
   -48.1910 -48.1560 -48.1346 -48.1290 -48.1254 -48.1086 -48.0913 -48.0071
   -47.9599 -47.9545 -47.9458 -47.9425 -11.3290  -5.6300  -4.1919  -3.2517
    -2.9712  -2.6493  -2.4725  -2.4370  -2.4077  -2.3336  -2.2667  -2.2457
    -2.2245  -2.1738  -2.0514  -2.0007  -1.9254  -1.8211  -1.7559  -1.6704
    -1.5759  -1.5138  -1.4641  -1.3759  -1.3485  -1.2601  -1.2434  -1.1552
    -1.0480  -1.0004  -0.9251  -0.8936  -0.8156  -0.7787  -0.7023  -0.6713
    -0.5984  -0.5361  -0.4713  -0.3731  -0.3555  -0.3077  -0.2641  -0.2409
    -0.0817  -0.0259   0.0176   0.0707   0.1370   0.2387   0.2763   0.3228
     0.4596   0.5013   0.5884   0.6498   0.7645   0.8548   0.9449   0.9947
     1.0573   1.0769   1.1030   1.2187   1.2350   1.3968   2.0555   2.4023
     2.7620   3.5589   4.2732   4.8286   5.4720

          k =-0.0887 0.0512 0.0000 ( 17240 PWs)   bands (ev):

   -48.8796 -48.8571 -48.7532 -48.5843 -48.5805 -48.5574 -48.5254 -48.4984
   -48.4922 -48.4874 -48.4230 -48.4166 -48.4112 -48.4066 -48.3951 -48.3874
   -48.3835 -48.3717 -48.3626 -48.3307 -48.3261 -48.2549 -48.2442 -48.2033
   -48.1733 -48.1665 -48.1587 -48.1323 -48.1225 -48.0980 -48.0904 -48.0071
   -47.9601 -47.9544 -47.9450 -47.9432 -11.3297  -5.6167  -4.2005  -3.2290
    -3.0334  -2.7253  -2.5248  -2.4829  -2.4090  -2.3562  -2.3066  -2.2020
    -2.1647  -2.0662  -2.0543  -1.9981  -1.9349  -1.8672  -1.7969  -1.6115
    -1.4974  -1.4765  -1.4511  -1.3759  -1.3395  -1.2583  -1.1858  -1.1249
    -0.9752  -0.9271  -0.9117  -0.7548  -0.7280  -0.6595  -0.6452  -0.5869
    -0.5765  -0.5648  -0.4872  -0.4727  -0.3955  -0.3831  -0.2414  -0.1213
    -0.1022  -0.0425   0.0111   0.0177   0.0483   0.1462   0.1761   0.2238
     0.2927   0.3331   0.4911   0.5464   0.6220   0.6464   0.8081   1.0138
     1.0537   1.1112   1.1419   1.1605   1.3592   1.3719   2.1409   2.8136
     3.6924   3.8253   4.2003   4.4660   4.9980

          k =-0.0887 0.0853 0.0000 ( 17183 PWs)   bands (ev):

   -48.8898 -48.8429 -48.7577 -48.5964 -48.5755 -48.5486 -48.5248 -48.4951
   -48.4911 -48.4818 -48.4382 -48.4308 -48.4067 -48.4041 -48.3958 -48.3856
   -48.3750 -48.3651 -48.3595 -48.3420 -48.3237 -48.2542 -48.2361 -48.2185
   -48.1890 -48.1581 -48.1343 -48.1307 -48.1237 -48.1083 -48.0913 -48.0071
   -47.9597 -47.9544 -47.9468 -47.9419 -11.3286  -5.6421  -4.1909  -3.2153
    -2.9550  -2.6422  -2.4711  -2.4350  -2.4075  -2.3527  -2.2725  -2.2521
    -2.2308  -2.1638  -2.0511  -2.0118  -1.9195  -1.8181  -1.7761  -1.6958
    -1.5877  -1.5216  -1.4601  -1.3480  -1.3245  -1.2692  -1.2378  -1.1675
    -1.0475  -0.9898  -0.9231  -0.9193  -0.8215  -0.7761  -0.7117  -0.6697
    -0.5988  -0.5381  -0.4695  -0.3895  -0.3555  -0.3304  -0.2646  -0.1864
    -0.0860  -0.0160   0.0139   0.0801   0.1314   0.2211   0.2815   0.3461
     0.4349   0.5047   0.5800   0.6501   0.7728   0.8744   0.9493   1.0090
     1.0364   1.0797   1.1132   1.2127   1.2361   1.3912   2.0082   2.4535
     2.8475   3.4339   4.3252   4.8445   5.4746

          k =-0.0887 0.1195 0.0000 ( 17183 PWs)   bands (ev):

   -48.9015 -48.8194 -48.7701 -48.6059 -48.5785 -48.5358 -48.5205 -48.4964
   -48.4923 -48.4650 -48.4423 -48.4344 -48.4123 -48.4040 -48.3956 -48.3892
   -48.3815 -48.3705 -48.3596 -48.3354 -48.3197 -48.2562 -48.2348 -48.2170
   -48.1906 -48.1557 -48.1348 -48.1335 -48.1200 -48.1113 -48.0903 -48.0072
   -47.9590 -47.9540 -47.9490 -47.9407 -11.3264  -5.6928  -4.1761  -3.1508
    -2.8231  -2.6688  -2.4871  -2.4405  -2.4074  -2.3333  -2.2779  -2.2418
    -2.2318  -2.1778  -2.0792  -2.0102  -1.9708  -1.8487  -1.7568  -1.6977
    -1.5930  -1.5542  -1.4661  -1.3989  -1.3318  -1.2494  -1.2422  -1.1677
    -1.0450  -0.9981  -0.9236  -0.9006  -0.8014  -0.7589  -0.7264  -0.6776
    -0.5938  -0.5438  -0.4742  -0.4333  -0.3456  -0.3241  -0.2708  -0.2136
    -0.0777  -0.0270   0.0420   0.0653   0.1300   0.1871   0.2721   0.3517
     0.4436   0.5362   0.5930   0.6371   0.7168   0.9120   0.9437   0.9971
     1.0548   1.0941   1.1518   1.1995   1.2389   1.6642   1.9234   2.3805
     2.8076   3.6682   4.0825   4.8742   5.4044

          k =-0.0887-0.0512 0.0000 ( 17240 PWs)   bands (ev):

   -48.9060 -48.8024 -48.7828 -48.6090 -48.5807 -48.5327 -48.5163 -48.4988
   -48.4957 -48.4558 -48.4318 -48.4239 -48.4155 -48.4113 -48.3962 -48.3938
   -48.3933 -48.3815 -48.3600 -48.3251 -48.3175 -48.2590 -48.2411 -48.2022
   -48.1722 -48.1687 -48.1551 -48.1377 -48.1172 -48.1035 -48.0875 -48.0073
   -47.9587 -47.9537 -47.9500 -47.9403 -11.3253  -5.7180  -4.1708  -3.0354
    -2.9796  -2.5779  -2.5277  -2.5100  -2.3999  -2.3412  -2.3136  -2.2374
    -2.1716  -2.1335  -2.0598  -2.0134  -1.9928  -1.9118  -1.7973  -1.7226
    -1.5056  -1.4696  -1.4563  -1.4376  -1.3696  -1.2115  -1.1871  -1.1498
    -0.9427  -0.9125  -0.8588  -0.7899  -0.7468  -0.6982  -0.6269  -0.6155
    -0.5669  -0.5439  -0.4792  -0.4574  -0.4255  -0.3830  -0.3372  -0.1557
    -0.1006  -0.0461   0.0068   0.0354   0.0785   0.1110   0.1949   0.2441
     0.2694   0.3320   0.4705   0.5546   0.5918   0.6443   0.9377   1.0108
     1.0758   1.1102   1.1572   1.3173   1.3693   1.4373   2.2223   2.7961
     3.7379   3.8755   3.9937   4.3314   5.2300

     the Fermi energy is     1.3429 ev

!    total energy              =   -2411.35458491 Ry
     Harris-Foulkes estimate   =   -2411.35458811 Ry
     estimated scf accuracy    <       0.00000449 Ry

     The total energy is the sum of the following terms:

     one-electron contribution =  -20676.51755919 Ry
     hartree contribution      =   10391.48869610 Ry
     xc contribution           =    -395.40401179 Ry
     ewald contribution        =    8269.18709340 Ry
     electric field correction =       0.00012776 Ry
     smearing contrib. (-TS)   =      -0.10893118 Ry

     convergence has been achieved in  21 iterations
 
 BEEF-vdW xc energy contributions
           1 :   -344.119075962738     
           2 :    314.382909134077     
           3 :   -263.685063399223     
           4 :    205.666555098193     
           5 :   -153.502241199331     
           6 :    115.590391492093     
           7 :   -93.7446537076473     
           8 :    84.1917166544105     
           9 :   -80.5273781099428     
          10 :    77.0444445502570     
          11 :   -70.9262022000996     
          12 :    62.5529730335355     
          13 :   -54.2057317146899     
          14 :    48.1680341334449     
          15 :   -45.3266194085109     
          16 :    44.8796577212107     
          17 :   -45.0647268734620     
          18 :    44.2930190812040     
          19 :   -41.9787772017101     
          20 :    38.6497562432887     
          21 :   -35.4076197696689     
          22 :    33.1600070718821     
          23 :   -32.1071291035615     
          24 :    31.7367228948321     
          25 :   -31.2493935993592     
          26 :    30.0931596328397     
          27 :   -28.2690346034098     
          28 :    26.2499641425302     
          29 :   -24.6135376777276     
          30 :    23.6521418884201     
          31 :   -33.6809673083296     
          32 :   -24.8850573186081     

     Forces acting on atoms (Ry/au):


     negative rho (up, down):  9.422E-01 0.000E+00
     atom    1 type  1   force =     0.00036983    0.00064736   -0.00190128
     atom    2 type  1   force =    -0.00105534    0.00012702   -0.00258466
     atom    3 type  1   force =    -0.00079702   -0.00074931   -0.00215180
     atom    4 type  1   force =     0.00091664    0.00010610    0.00078539
     atom    5 type  1   force =    -0.00002444    0.00090016   -0.00034405
     atom    6 type  1   force =    -0.00016204    0.00003339   -0.01251219
     atom    7 type  1   force =    -0.00049973   -0.00035676   -0.00294986
     atom    8 type  1   force =     0.00055189   -0.00042152    0.00154424
     atom    9 type  1   force =    -0.00177913    0.00009559   -0.00682589
     atom   10 type  1   force =     0.00879300    0.00480876    0.01153866
     atom   11 type  1   force =     0.01528546   -0.00373261    0.02719143
     atom   12 type  1   force =     0.00632756   -0.00157391   -0.00410108
     atom   13 type  2   force =    -0.03292641   -0.00183443   -0.03577532
     atom   14 type  3   force =     0.00816494    0.00677139    0.01542221
     atom   15 type  3   force =    -0.00316521   -0.00482124    0.01266421

     Total force =     0.065123     Total SCF correction =     0.001208


     entering subroutine stress ...


     negative rho (up, down):  9.422E-01 0.000E+00
          total   stress  (Ry/bohr**3)                   (kbar)     P=   -6.36
  -0.00007150   0.00000574  -0.00001352        -10.52      0.84     -1.99
   0.00000574  -0.00007133   0.00000014          0.84    -10.49      0.02
  -0.00001352   0.00000014   0.00001306         -1.99      0.02      1.92


     BFGS Geometry Optimization

     number of scf cycles    =   1
     number of bfgs steps    =   0

     energy   new            =   -2411.3545849080 Ry

     new trust radius        =       0.0486558000 bohr
     new conv_thr            =       0.0000099958 Ry


ATOMIC_POSITIONS (crystal)
Pd1      0.166666667   0.166666667   0.406452311    0   0   0
Pd1      0.666666667   0.166666667   0.406452311    0   0   0
Pd1      0.166666667   0.666666667   0.406452311    0   0   0
Pd1      0.666666667   0.666666667   0.406452311    0   0   0
Pd1      0.833333333   0.333333333   0.500000000    0   0   0
Pd1      0.333333333   0.333333333   0.500000000    0   0   0
Pd1      0.833333333   0.833333333   0.500000000    0   0   0
Pd1      0.333333333   0.833333333   0.500000000    0   0   0
Pd1     -0.000172178   0.000010361   0.593400874
Pd1      0.500564752   0.000521201   0.593795869
Pd1      0.001637044   0.499595439   0.594132537
Pd1      0.500679229   0.499829410   0.593459481
C1       0.330342120   0.333134508   0.649579925
H1       0.380963219   0.463103234   0.676287604
H1       0.286067061   0.203774800   0.676228284



     Writing output data file calc.save
     Check: negative starting charge=   -0.903953
     NEW-OLD atomic charge density approx. for the potential
     Check: negative starting charge=   -0.903547

     negative rho (up, down):  9.419E-01 0.000E+00
 
     Adding external electric field

     Computed dipole along edir(3) : 
        Dipole                0.2295 Ry au,          0.5832 Debye
        Dipole field          0.0006 Ry au
 
        Potential amp.       -0.0572 Ry
        Total length         45.3309 bohr
 

     total cpu time spent up to now is      554.2 secs

     per-process dynamical memory:   152.2 Mb

     Self-consistent Calculation

     iteration #  1     ecut=    36.75 Ry     beta=0.30
     Davidson diagonalization with overlap
     ethr =  1.00E-06,  avg # of iterations =  4.0

     negative rho (up, down):  9.419E-01 0.000E+00
 
     Adding external electric field

     Computed dipole along edir(3) : 
        Dipole                0.1209 Ry au,          0.3074 Debye
        Dipole field          0.0003 Ry au
 
        Potential amp.       -0.0301 Ry
        Total length         45.3309 bohr
 

     total cpu time spent up to now is      583.2 secs

     total energy              =   -2411.35638965 Ry
     Harris-Foulkes estimate   =   -2411.35771275 Ry
     estimated scf accuracy    <       0.00269011 Ry

     iteration #  2     ecut=    36.75 Ry     beta=0.30
     Davidson diagonalization with overlap
     ethr =  1.36E-06,  avg # of iterations =  4.0

     negative rho (up, down):  9.419E-01 0.000E+00
 
     Adding external electric field

     Computed dipole along edir(3) : 
        Dipole                0.2290 Ry au,          0.5820 Debye
        Dipole field          0.0006 Ry au
 
        Potential amp.       -0.0571 Ry
        Total length         45.3309 bohr
 

     total cpu time spent up to now is      605.4 secs

     total energy              =   -2411.34732762 Ry
     Harris-Foulkes estimate   =   -2411.36718269 Ry
     estimated scf accuracy    <       0.68923258 Ry

     iteration #  3     ecut=    36.75 Ry     beta=0.30
     Davidson diagonalization with overlap
     ethr =  1.36E-06,  avg # of iterations =  4.7

     negative rho (up, down):  9.419E-01 0.000E+00
 
     Adding external electric field

     Computed dipole along edir(3) : 
        Dipole                0.2211 Ry au,          0.5619 Debye
        Dipole field          0.0006 Ry au
 
        Potential amp.       -0.0551 Ry
        Total length         45.3309 bohr
 

     total cpu time spent up to now is      627.3 secs

     total energy              =   -2411.35715189 Ry
     Harris-Foulkes estimate   =   -2411.35761862 Ry
     estimated scf accuracy    <       0.00391872 Ry

     iteration #  4     ecut=    36.75 Ry     beta=0.30
     Davidson diagonalization with overlap
     ethr =  1.36E-06,  avg # of iterations =  1.1

     negative rho (up, down):  9.420E-01 0.000E+00
 
     Adding external electric field

     Computed dipole along edir(3) : 
        Dipole                0.2200 Ry au,          0.5592 Debye
        Dipole field          0.0006 Ry au
 
        Potential amp.       -0.0549 Ry
        Total length         45.3309 bohr
 

     total cpu time spent up to now is      644.9 secs

     total energy              =   -2411.35732495 Ry
     Harris-Foulkes estimate   =   -2411.35742744 Ry
     estimated scf accuracy    <       0.00053703 Ry

     iteration #  5     ecut=    36.75 Ry     beta=0.30
     Davidson diagonalization with overlap
     ethr =  2.71E-07,  avg # of iterations =  2.0

     negative rho (up, down):  9.420E-01 0.000E+00
 
     Adding external electric field

     Computed dipole along edir(3) : 
        Dipole                0.2183 Ry au,          0.5549 Debye
        Dipole field          0.0006 Ry au
 
        Potential amp.       -0.0544 Ry
        Total length         45.3309 bohr
 

     total cpu time spent up to now is      663.1 secs

     total energy              =   -2411.35731432 Ry
     Harris-Foulkes estimate   =   -2411.35745625 Ry
     estimated scf accuracy    <       0.00123509 Ry

     iteration #  6     ecut=    36.75 Ry     beta=0.30
     Davidson diagonalization with overlap
     ethr =  2.71E-07,  avg # of iterations =  2.2

     negative rho (up, down):  9.420E-01 0.000E+00
 
     Adding external electric field

     Computed dipole along edir(3) : 
        Dipole                0.2186 Ry au,          0.5556 Debye
        Dipole field          0.0006 Ry au
 
        Potential amp.       -0.0545 Ry
        Total length         45.3309 bohr
 

     total cpu time spent up to now is      681.7 secs

     total energy              =   -2411.35737361 Ry
     Harris-Foulkes estimate   =   -2411.35739174 Ry
     estimated scf accuracy    <       0.00011192 Ry

     iteration #  7     ecut=    36.75 Ry     beta=0.30
     Davidson diagonalization with overlap
     ethr =  5.65E-08,  avg # of iterations =  1.1

     negative rho (up, down):  9.420E-01 0.000E+00
 
     Adding external electric field

     Computed dipole along edir(3) : 
        Dipole                0.2189 Ry au,          0.5564 Debye
        Dipole field          0.0006 Ry au
 
        Potential amp.       -0.0546 Ry
        Total length         45.3309 bohr
 

     total cpu time spent up to now is      699.7 secs

     total energy              =   -2411.35738397 Ry
     Harris-Foulkes estimate   =   -2411.35738575 Ry
     estimated scf accuracy    <       0.00001894 Ry

     iteration #  8     ecut=    36.75 Ry     beta=0.30
     Davidson diagonalization with overlap
     ethr =  9.56E-09,  avg # of iterations =  2.0

     negative rho (up, down):  9.420E-01 0.000E+00
 
     Adding external electric field

     Computed dipole along edir(3) : 
        Dipole                0.2185 Ry au,          0.5553 Debye
        Dipole field          0.0006 Ry au
 
        Potential amp.       -0.0545 Ry
        Total length         45.3309 bohr
 

     total cpu time spent up to now is      718.2 secs

     total energy              =   -2411.35738522 Ry
     Harris-Foulkes estimate   =   -2411.35738773 Ry
     estimated scf accuracy    <       0.00001381 Ry

     iteration #  9     ecut=    36.75 Ry     beta=0.30
     Davidson diagonalization with overlap
     ethr =  6.97E-09,  avg # of iterations =  1.1

     negative rho (up, down):  9.420E-01 0.000E+00

     negative rho (up, down):  9.420E-01 0.000E+00

     negative rho (up, down):  9.420E-01 0.000E+00

     negative rho (up, down):  9.420E-01 0.000E+00

     negative rho (up, down):  9.420E-01 0.000E+00

     negative rho (up, down):  9.420E-01 0.000E+00

     negative rho (up, down):  9.420E-01 0.000E+00

     negative rho (up, down):  9.420E-01 0.000E+00

     negative rho (up, down):  9.420E-01 0.000E+00

     negative rho (up, down):  9.420E-01 0.000E+00

     negative rho (up, down):  9.420E-01 0.000E+00

     negative rho (up, down):  9.420E-01 0.000E+00

     negative rho (up, down):  9.420E-01 0.000E+00

     negative rho (up, down):  9.420E-01 0.000E+00

     negative rho (up, down):  9.420E-01 0.000E+00

     negative rho (up, down):  9.420E-01 0.000E+00

     negative rho (up, down):  9.420E-01 0.000E+00

     negative rho (up, down):  9.420E-01 0.000E+00

     negative rho (up, down):  9.420E-01 0.000E+00

     negative rho (up, down):  9.420E-01 0.000E+00

     negative rho (up, down):  9.420E-01 0.000E+00

     negative rho (up, down):  9.420E-01 0.000E+00

     negative rho (up, down):  9.420E-01 0.000E+00

     negative rho (up, down):  9.420E-01 0.000E+00

     negative rho (up, down):  9.420E-01 0.000E+00

     negative rho (up, down):  9.420E-01 0.000E+00

     negative rho (up, down):  9.420E-01 0.000E+00

     negative rho (up, down):  9.420E-01 0.000E+00

     negative rho (up, down):  9.420E-01 0.000E+00

     negative rho (up, down):  9.420E-01 0.000E+00

     negative rho (up, down):  9.420E-01 0.000E+00

     negative rho (up, down):  9.420E-01 0.000E+00

     negative rho (up, down):  9.420E-01 0.000E+00

     negative rho (up, down):  9.420E-01 0.000E+00

     negative rho (up, down):  9.420E-01 0.000E+00
 
     Adding external electric field

     Computed dipole along edir(3) : 
        Dipole                0.2172 Ry au,          0.5520 Debye
        Dipole field          0.0006 Ry au
 
        Potential amp.       -0.0541 Ry
        Total length         45.3309 bohr
 

     total cpu time spent up to now is      782.5 secs

     End of self-consistent calculation

          k = 0.0000 0.0000 0.0000 ( 17231 PWs)   bands (ev):

   -48.9694 -48.8365 -48.7545 -48.6293 -48.6025 -48.5470 -48.5317 -48.5280
   -48.5225 -48.5063 -48.4423 -48.4064 -48.3977 -48.3910 -48.3760 -48.3652
   -48.3515 -48.3489 -48.3319 -48.2914 -48.2859 -48.2786 -48.2779 -48.2731
   -48.1245 -48.1232 -48.1120 -48.1048 -48.1039 -48.0582 -48.0576 -48.0022
   -47.9546 -47.9501 -47.9387 -47.9311 -11.2971  -5.5256  -4.8088  -4.1957
    -3.2259  -3.2031  -3.0727  -3.0696  -3.0691  -2.9513  -2.8291  -2.7977
    -2.7799  -2.7423  -2.6819  -2.5573  -2.5446  -2.1311  -2.0869  -1.6151
    -1.4889  -1.3892  -1.3002  -1.2771  -1.1970  -1.1159  -1.0191  -1.0158
    -0.9726  -0.8416  -0.7986  -0.7681  -0.7679  -0.7230  -0.6359  -0.1792
    -0.1457  -0.1400  -0.1290   0.0771   0.1206   0.2476   0.2599   0.3955
     0.4330   0.5326   0.5774   0.7784   0.9994   1.0024   1.0147   1.0451
     1.1174   1.1221   1.1411   1.1432   1.1810   1.2676   1.3063   1.3758
     1.4029   1.4074   1.5706   1.5722   1.5791   2.0021   2.3068   3.1010
     3.5681   3.6572   4.1931   4.8581   4.9228

          k = 0.0000 0.0341 0.0000 ( 17192 PWs)   bands (ev):

   -48.9632 -48.8358 -48.7559 -48.6232 -48.5980 -48.5422 -48.5291 -48.5209
   -48.5133 -48.5039 -48.4425 -48.4074 -48.3984 -48.3889 -48.3789 -48.3649
   -48.3571 -48.3506 -48.3344 -48.3039 -48.2901 -48.2737 -48.2704 -48.2633
   -48.1329 -48.1251 -48.1157 -48.1077 -48.1065 -48.0730 -48.0620 -48.0014
   -47.9546 -47.9497 -47.9389 -47.9313 -11.2899  -5.5364  -4.6867  -4.0249
    -3.1508  -3.0523  -2.9741  -2.9272  -2.8968  -2.8400  -2.7326  -2.7138
    -2.6939  -2.6612  -2.5763  -2.4489  -2.4007  -2.0971  -2.0192  -1.5893
    -1.4834  -1.3523  -1.2808  -1.2476  -1.2147  -1.1744  -1.1011  -0.9766
    -0.9204  -0.9051  -0.8505  -0.8358  -0.7081  -0.6675  -0.6287  -0.4161
    -0.2990  -0.2369  -0.1775  -0.0014   0.0468   0.1645   0.2069   0.2796
     0.3231   0.3959   0.5216   0.6550   0.7694   0.8145   0.8499   0.9039
     0.9332   0.9576   0.9992   1.0761   1.1077   1.1291   1.1764   1.1890
     1.2594   1.3491   1.3849   1.4070   1.4822   1.9662   2.4130   2.7438
     3.5758   3.6500   3.8273   4.1817   4.7624

          k = 0.0000 0.0683 0.0000 ( 17196 PWs)   bands (ev):

   -48.9497 -48.8349 -48.7595 -48.6065 -48.5886 -48.5514 -48.5174 -48.5028
   -48.4980 -48.4765 -48.4414 -48.4125 -48.3980 -48.3928 -48.3816 -48.3740
   -48.3682 -48.3559 -48.3427 -48.3284 -48.3011 -48.2586 -48.2505 -48.2303
   -48.1549 -48.1387 -48.1249 -48.1139 -48.1114 -48.1016 -48.0721 -47.9998
   -47.9548 -47.9486 -47.9396 -47.9318 -11.2756  -5.5553  -4.4234  -3.5552
    -3.0096  -2.7816  -2.6891  -2.6382  -2.5862  -2.4835  -2.4619  -2.4452
    -2.4291  -2.3919  -2.3426  -2.2064  -2.0501  -1.9561  -1.8031  -1.6013
    -1.5631  -1.4574  -1.4166  -1.3229  -1.2157  -1.1448  -1.1224  -1.0538
    -0.9880  -0.9365  -0.8322  -0.7231  -0.7023  -0.6900  -0.6432  -0.5997
    -0.5419  -0.4270  -0.3289  -0.2628  -0.1635  -0.0542  -0.0179  -0.0031
     0.0234   0.0616   0.1434   0.1685   0.2650   0.4049   0.4997   0.5470
     0.6011   0.6589   0.7093   0.7484   0.7534   0.8806   0.9317   0.9553
     1.0610   1.1284   1.1786   1.3085   1.3694   1.6634   2.0396   2.9208
     3.3289   3.8431   4.0994   4.6310   4.8497

          k = 0.0000-0.1024 0.0000 ( 17240 PWs)   bands (ev):

   -48.9423 -48.8348 -48.7617 -48.5919 -48.5806 -48.5688 -48.5096 -48.4913
   -48.4866 -48.4613 -48.4221 -48.4136 -48.4030 -48.4007 -48.3907 -48.3800
   -48.3768 -48.3731 -48.3528 -48.3169 -48.3138 -48.2487 -48.2356 -48.1944
   -48.1641 -48.1615 -48.1479 -48.1296 -48.1131 -48.0927 -48.0819 -47.9991
   -47.9549 -47.9480 -47.9401 -47.9320 -11.2685  -5.5640  -4.2748  -3.1114
    -3.0229  -2.7146  -2.5127  -2.4946  -2.3981  -2.3386  -2.2940  -2.2035
    -2.1591  -2.0627  -2.0503  -2.0033  -1.9520  -1.8880  -1.7900  -1.6605
    -1.4989  -1.4681  -1.4397  -1.4061  -1.3623  -1.2242  -1.1766  -1.1432
    -0.9584  -0.9290  -0.8908  -0.7580  -0.7283  -0.6811  -0.6332  -0.5983
    -0.5604  -0.5488  -0.4770  -0.4628  -0.3981  -0.3754  -0.2995  -0.1403
    -0.0925  -0.0442   0.0132   0.0302   0.0605   0.1379   0.1941   0.2366
     0.2846   0.3404   0.4826   0.5600   0.6076   0.6494   0.9133   1.0173
     1.0834   1.1158   1.1633   1.2587   1.3761   1.3795   2.1985   2.8417
     3.7327   3.8466   4.1993   4.3351   5.1447

          k = 0.0296-0.0171 0.0000 ( 17192 PWs)   bands (ev):

   -48.9610 -48.8410 -48.7526 -48.6233 -48.5965 -48.5422 -48.5282 -48.5208
   -48.5167 -48.5042 -48.4457 -48.4053 -48.3980 -48.3899 -48.3746 -48.3649
   -48.3564 -48.3519 -48.3349 -48.3000 -48.2938 -48.2727 -48.2714 -48.2635
   -48.1321 -48.1268 -48.1139 -48.1095 -48.1058 -48.0736 -48.0615 -48.0014
   -47.9547 -47.9498 -47.9385 -47.9316 -11.2906  -5.5194  -4.6895  -4.0286
    -3.1862  -3.0526  -2.9706  -2.9282  -2.8968  -2.8350  -2.7269  -2.7134
    -2.6888  -2.6546  -2.5876  -2.4532  -2.3929  -2.1073  -2.0266  -1.5988
    -1.4870  -1.3380  -1.2730  -1.2478  -1.2164  -1.1739  -1.0490  -1.0035
    -0.9139  -0.8897  -0.8523  -0.8079  -0.7496  -0.6611  -0.6502  -0.4184
    -0.3016  -0.2375  -0.1674   0.0142   0.1015   0.1488   0.2098   0.2756
     0.3170   0.3888   0.5476   0.6050   0.7756   0.8022   0.8475   0.9069
     0.9310   0.9544   1.0107   1.0661   1.1218   1.1308   1.1815   1.1896
     1.2594   1.3639   1.3928   1.4098   1.4782   1.8296   2.4333   2.7395
     3.5578   3.6758   3.8983   4.1762   4.7048

          k = 0.0296 0.0171 0.0000 ( 17192 PWs)   bands (ev):

   -48.9643 -48.8335 -48.7570 -48.6259 -48.5966 -48.5408 -48.5252 -48.5185
   -48.5154 -48.5073 -48.4418 -48.4086 -48.3969 -48.3900 -48.3791 -48.3669
   -48.3554 -48.3519 -48.3334 -48.3065 -48.2877 -48.2747 -48.2686 -48.2639
   -48.1333 -48.1241 -48.1168 -48.1076 -48.1062 -48.0732 -48.0617 -48.0014
   -47.9545 -47.9496 -47.9394 -47.9311 -11.2897  -5.5489  -4.6841  -4.0212
    -3.1118  -3.0553  -2.9776  -2.9263  -2.8972  -2.8475  -2.7420  -2.7106
    -2.6997  -2.6618  -2.5657  -2.4433  -2.4128  -2.0776  -2.0247  -1.5784
    -1.4809  -1.3750  -1.2900  -1.2364  -1.2145  -1.1822  -1.1405  -0.9634
    -0.9272  -0.9069  -0.8516  -0.8454  -0.6917  -0.6749  -0.6057  -0.4219
    -0.2701  -0.2492  -0.1866  -0.0084   0.0118   0.1701   0.2022   0.2846
     0.3230   0.3987   0.5113   0.6955   0.7568   0.8222   0.8515   0.8986
     0.9372   0.9514   0.9771   1.0851   1.1190   1.1297   1.1725   1.1929
     1.2595   1.3386   1.3823   1.4065   1.4782   2.1427   2.3331   2.7400
     3.5590   3.6387   3.7710   4.1870   4.8222

          k = 0.0296 0.0512 0.0000 ( 17186 PWs)   bands (ev):

   -48.9562 -48.8279 -48.7626 -48.6176 -48.5890 -48.5367 -48.5225 -48.5093
   -48.4960 -48.4928 -48.4381 -48.4159 -48.3975 -48.3922 -48.3844 -48.3758
   -48.3581 -48.3490 -48.3376 -48.3322 -48.2952 -48.2649 -48.2495 -48.2460
   -48.1542 -48.1237 -48.1217 -48.1125 -48.1094 -48.0987 -48.0700 -48.0003
   -47.9545 -47.9486 -47.9404 -47.9312 -11.2785  -5.5755  -4.4920  -3.6847
    -2.9389  -2.8090  -2.7749  -2.7017  -2.6675  -2.6112  -2.5827  -2.5476
    -2.5356  -2.4704  -2.3736  -2.2500  -2.1810  -2.0204  -1.8802  -1.5579
    -1.5029  -1.4462  -1.4001  -1.3431  -1.2532  -1.1602  -1.1329  -1.0594
    -0.9797  -0.8643  -0.8001  -0.7710  -0.7282  -0.6783  -0.6572  -0.5495
    -0.4988  -0.3840  -0.3567  -0.2072  -0.0538   0.0018   0.0494   0.0990
     0.1112   0.2427   0.2796   0.2926   0.3759   0.4424   0.5535   0.6402
     0.7001   0.7311   0.7697   0.8139   0.9045   1.0177   1.0273   1.0702
     1.1163   1.1783   1.2414   1.2672   1.6783   1.8707   2.3303   2.4138
     2.9192   3.4120   4.1560   4.4590   5.2497

          k = 0.0296-0.1195 0.0000 ( 17183 PWs)   bands (ev):

   -48.9436 -48.8322 -48.7631 -48.6020 -48.5788 -48.5537 -48.5153 -48.4910
   -48.4788 -48.4632 -48.4336 -48.4234 -48.4085 -48.3950 -48.3881 -48.3796
   -48.3727 -48.3574 -48.3512 -48.3307 -48.3103 -48.2474 -48.2281 -48.2099
   -48.1808 -48.1498 -48.1285 -48.1253 -48.1143 -48.1016 -48.0840 -47.9991
   -47.9548 -47.9477 -47.9408 -47.9317 -11.2682  -5.5736  -4.2761  -3.1489
    -2.8847  -2.6436  -2.4708  -2.4288  -2.4059  -2.3699  -2.2752  -2.2424
    -2.2252  -2.1499  -2.0601  -2.0186  -1.9283  -1.8311  -1.7758  -1.7068
    -1.5867  -1.5397  -1.4540  -1.3472  -1.3070  -1.2607  -1.2185  -1.1919
    -1.0423  -0.9891  -0.9344  -0.9093  -0.8077  -0.7663  -0.7170  -0.6664
    -0.5941  -0.5359  -0.4608  -0.4247  -0.3438  -0.3300  -0.2603  -0.1698
    -0.0842  -0.0144   0.0286   0.0896   0.1325   0.1997   0.2810   0.3762
     0.4173   0.5309   0.5802   0.6541   0.7528   0.9122   0.9569   1.0102
     1.0497   1.0902   1.1624   1.2012   1.2460   1.5294   1.9578   2.4806
     2.9846   3.3808   4.3133   4.8946   5.4215

          k = 0.0296-0.0853 0.0000 ( 17183 PWs)   bands (ev):

   -48.9390 -48.8423 -48.7573 -48.5924 -48.5806 -48.5643 -48.5147 -48.4910
   -48.4829 -48.4618 -48.4354 -48.4257 -48.3998 -48.3978 -48.3852 -48.3782
   -48.3694 -48.3589 -48.3529 -48.3271 -48.3154 -48.2468 -48.2283 -48.2092
   -48.1838 -48.1472 -48.1266 -48.1260 -48.1162 -48.1022 -48.0835 -47.9990
   -47.9549 -47.9482 -47.9397 -47.9322 -11.2691  -5.5473  -4.2691  -3.2180
    -2.9469  -2.6601  -2.4733  -2.4287  -2.3996  -2.3190  -2.2580  -2.2328
    -2.2122  -2.1763  -2.0476  -1.9948  -1.9482  -1.8302  -1.7425  -1.6573
    -1.5697  -1.5374  -1.4616  -1.4051  -1.3370  -1.2516  -1.2398  -1.1589
    -1.0468  -0.9991  -0.9226  -0.8854  -0.7976  -0.7639  -0.6980  -0.6697
    -0.5947  -0.5339  -0.4755  -0.4029  -0.3402  -0.2963  -0.2667  -0.2432
    -0.0741  -0.0243   0.0333   0.0659   0.1410   0.2200   0.2761   0.3436
     0.4638   0.5282   0.6035   0.6480   0.7335   0.8984   0.9435   0.9951
     1.0628   1.1021   1.1327   1.2149   1.2455   1.5202   2.0570   2.3701
     2.7799   3.6844   4.1879   4.8523   5.4302

          k = 0.0296-0.0512 0.0000 ( 17186 PWs)   bands (ev):

   -48.9485 -48.8453 -48.7525 -48.6093 -48.5901 -48.5479 -48.5237 -48.5107
   -48.4994 -48.4891 -48.4466 -48.4073 -48.4003 -48.3875 -48.3809 -48.3711
   -48.3592 -48.3519 -48.3366 -48.3261 -48.3025 -48.2633 -48.2513 -48.2457
   -48.1555 -48.1223 -48.1186 -48.1146 -48.1096 -48.1005 -48.0696 -48.0002
   -47.9549 -47.9492 -47.9385 -47.9323 -11.2803  -5.5202  -4.4927  -3.7135
    -3.1095  -2.7969  -2.7812  -2.7022  -2.6733  -2.5888  -2.5581  -2.5321
    -2.5130  -2.4542  -2.4185  -2.2684  -2.1344  -2.0408  -1.8775  -1.5789
    -1.4827  -1.4381  -1.3737  -1.2736  -1.2230  -1.1744  -1.0997  -1.0710
    -0.9810  -0.8466  -0.7992  -0.7701  -0.7478  -0.7046  -0.6520  -0.5565
    -0.4693  -0.3913  -0.3236  -0.1805  -0.0751   0.0285   0.0656   0.0849
     0.1117   0.2012   0.2816   0.3128   0.3436   0.3971   0.5922   0.6426
     0.6799   0.7665   0.7812   0.8392   0.9132   0.9573   1.0161   1.0385
     1.0804   1.2258   1.2527   1.2687   1.6716   1.7580   2.1935   2.4102
     3.0466   3.3938   4.1449   4.4599   5.2690

          k = 0.0591-0.0341 0.0000 ( 17196 PWs)   bands (ev):

   -48.9408 -48.8536 -48.7488 -48.6078 -48.5828 -48.5432 -48.5318 -48.5028
   -48.4964 -48.4882 -48.4430 -48.4049 -48.3996 -48.3922 -48.3743 -48.3726
   -48.3671 -48.3553 -48.3400 -48.3311 -48.3048 -48.2568 -48.2516 -48.2310
   -48.1540 -48.1412 -48.1215 -48.1155 -48.1143 -48.1000 -48.0719 -47.9998
   -47.9550 -47.9490 -47.9382 -47.9327 -11.2775  -5.5073  -4.4252  -3.5819
    -3.1128  -2.7826  -2.6819  -2.6195  -2.5867  -2.4732  -2.4567  -2.4470
    -2.4204  -2.3970  -2.3718  -2.2136  -2.0100  -1.9760  -1.8048  -1.6023
    -1.5644  -1.4552  -1.4040  -1.2353  -1.2240  -1.1368  -1.1083  -1.0490
    -1.0185  -0.9346  -0.8298  -0.7369  -0.6942  -0.6910  -0.6676  -0.5997
    -0.5393  -0.3680  -0.3387  -0.2348  -0.1694  -0.0375  -0.0172   0.0041
     0.0203   0.0747   0.1281   0.1682   0.2342   0.4374   0.4963   0.5565
     0.6065   0.6396   0.7210   0.7442   0.7645   0.8478   0.9340   0.9560
     1.0577   1.1343   1.1807   1.3151   1.3658   1.4781   1.9854   2.9780
     3.3931   3.7954   4.1010   4.5978   4.8826

          k = 0.0591-0.0000 0.0000 ( 17186 PWs)   bands (ev):

   -48.9513 -48.8403 -48.7547 -48.6179 -48.5841 -48.5358 -48.5292 -48.5071
   -48.5005 -48.4938 -48.4448 -48.4096 -48.3958 -48.3919 -48.3822 -48.3726
   -48.3586 -48.3515 -48.3365 -48.3297 -48.2983 -48.2642 -48.2500 -48.2462
   -48.1548 -48.1229 -48.1215 -48.1118 -48.1106 -48.0998 -48.0694 -48.0002
   -47.9547 -47.9489 -47.9396 -47.9316 -11.2797  -5.5443  -4.4923  -3.6978
    -3.0366  -2.7985  -2.7817  -2.7026  -2.6735  -2.5905  -2.5667  -2.5420
    -2.5217  -2.4680  -2.3903  -2.2615  -2.1649  -2.0275  -1.8785  -1.5742
    -1.4923  -1.4369  -1.3796  -1.3111  -1.2400  -1.1657  -1.1210  -1.0625
    -0.9809  -0.8567  -0.8019  -0.7712  -0.7361  -0.6988  -0.6520  -0.5481
    -0.4821  -0.3902  -0.3373  -0.2026  -0.0517   0.0164   0.0605   0.0886
     0.1108   0.2243   0.2821   0.2964   0.3653   0.4156   0.5768   0.6397
     0.6864   0.7501   0.7736   0.8197   0.9073   1.0098   1.0205   1.0547
     1.0898   1.2079   1.2485   1.2674   1.6775   1.8099   2.2389   2.4112
     2.9761   3.4109   4.1499   4.4561   5.2567

          k = 0.0591 0.0341 0.0000 ( 17196 PWs)   bands (ev):

   -48.9536 -48.8264 -48.7639 -48.6189 -48.5811 -48.5336 -48.5241 -48.5054
   -48.4976 -48.4767 -48.4379 -48.4173 -48.3971 -48.3889 -48.3878 -48.3755
   -48.3703 -48.3576 -48.3439 -48.3268 -48.2974 -48.2606 -48.2484 -48.2303
   -48.1556 -48.1369 -48.1270 -48.1143 -48.1094 -48.1032 -48.0714 -47.9999
   -47.9545 -47.9479 -47.9413 -47.9311 -11.2748  -5.5888  -4.4208  -3.5364
    -2.8720  -2.7900  -2.7012  -2.6688  -2.5851  -2.4949  -2.4614  -2.4426
    -2.4367  -2.3889  -2.3148  -2.1929  -2.1083  -1.9409  -1.8138  -1.6058
    -1.5516  -1.4926  -1.4470  -1.3640  -1.2118  -1.1424  -1.1235  -1.0572
    -0.9700  -0.9417  -0.8332  -0.7154  -0.7089  -0.6866  -0.6217  -0.5940
    -0.5546  -0.4652  -0.3279  -0.2621  -0.1568  -0.0633  -0.0180  -0.0080
     0.0264   0.0556   0.1484   0.1681   0.2968   0.3703   0.4985   0.5434
     0.5979   0.6713   0.6932   0.7439   0.7492   0.8931   0.9300   0.9531
     1.0921   1.1231   1.1782   1.3086   1.3720   1.7788   2.2122   2.7188
     3.2972   3.8825   4.0932   4.6398   4.7839

          k = 0.0591-0.1365 0.0000 ( 17183 PWs)   bands (ev):

   -48.9464 -48.8258 -48.7665 -48.6119 -48.5730 -48.5369 -48.5264 -48.4917
   -48.4795 -48.4561 -48.4335 -48.4273 -48.4114 -48.3935 -48.3881 -48.3823
   -48.3737 -48.3612 -48.3504 -48.3285 -48.3081 -48.2486 -48.2267 -48.2094
   -48.1821 -48.1483 -48.1297 -48.1257 -48.1129 -48.1033 -48.0829 -47.9992
   -47.9546 -47.9470 -47.9421 -47.9312 -11.2677  -5.5951  -4.2755  -3.1249
    -2.7680  -2.6712  -2.4684  -2.4561  -2.4065  -2.3651  -2.2839  -2.2367
    -2.2265  -2.1542  -2.0909  -2.0151  -1.9516  -1.8436  -1.7655  -1.7086
    -1.5887  -1.5508  -1.4547  -1.3686  -1.3155  -1.2521  -1.2296  -1.1801
    -1.0419  -0.9888  -0.9275  -0.9099  -0.8007  -0.7526  -0.7293  -0.6697
    -0.5937  -0.5347  -0.4612  -0.4386  -0.3411  -0.3283  -0.2630  -0.1833
    -0.0807  -0.0161   0.0426   0.0800   0.1319   0.1868   0.2794   0.3738
     0.4235   0.5464   0.5830   0.6466   0.7293   0.9183   0.9527   1.0145
     1.0612   1.0947   1.1744   1.1969   1.2479   1.7097   1.8705   2.4568
     2.9155   3.5155   4.1889   4.9022   5.3909

          k = 0.0591-0.1024 0.0000 ( 17208 PWs)   bands (ev):

   -48.9355 -48.8425 -48.7581 -48.6003 -48.5639 -48.5576 -48.5245 -48.4783
   -48.4664 -48.4579 -48.4442 -48.4227 -48.4108 -48.4040 -48.3891 -48.3825
   -48.3732 -48.3529 -48.3446 -48.3329 -48.3256 -48.2278 -48.2193 -48.1973
   -48.1936 -48.1783 -48.1266 -48.1196 -48.1074 -48.1040 -48.1021 -47.9987
   -47.9549 -47.9475 -47.9407 -47.9320 -11.2655  -5.5592  -4.1865  -3.0018
    -2.6596  -2.6363  -2.4403  -2.1796  -2.1695  -2.1537  -2.1301  -2.1008
    -2.0594  -2.0149  -1.9972  -1.9522  -1.9233  -1.8983  -1.7785  -1.6588
    -1.5953  -1.5488  -1.4460  -1.4062  -1.3990  -1.3730  -1.3557  -1.2825
    -1.1370  -1.0968  -1.0522  -1.0440  -1.0338  -1.0107  -0.7629  -0.6816
    -0.6731  -0.6643  -0.6196  -0.5848  -0.5354  -0.5053  -0.3364  -0.1261
    -0.1104  -0.0551   0.1395   0.1754   0.2095   0.2854   0.3488   0.4003
     0.4346   0.5992   0.6503   0.7517   0.8122   0.9429   0.9852   0.9917
     1.0111   1.0808   1.0897   1.0934   1.1403   1.4476   1.4637   1.9584
     2.6815   3.4670   4.3683   4.8206   5.6069

          k = 0.0591-0.0683 0.0000 ( 17183 PWs)   bands (ev):

   -48.9316 -48.8564 -48.7501 -48.5938 -48.5792 -48.5551 -48.5267 -48.4910
   -48.4825 -48.4725 -48.4301 -48.4243 -48.3986 -48.3939 -48.3868 -48.3759
   -48.3660 -48.3565 -48.3528 -48.3310 -48.3170 -48.2458 -48.2285 -48.2102
   -48.1830 -48.1485 -48.1268 -48.1231 -48.1200 -48.1005 -48.0837 -47.9990
   -47.9551 -47.9485 -47.9386 -47.9328 -11.2704  -5.5160  -4.2673  -3.2767
    -2.9863  -2.6471  -2.4658  -2.4285  -2.3995  -2.3302  -2.2571  -2.2385
    -2.2161  -2.1671  -2.0430  -1.9996  -1.9226  -1.8175  -1.7527  -1.6624
    -1.5750  -1.5078  -1.4560  -1.3782  -1.3456  -1.2581  -1.2360  -1.1572
    -1.0446  -0.9936  -0.9199  -0.8893  -0.8106  -0.7712  -0.6967  -0.6647
    -0.5967  -0.5280  -0.4710  -0.3674  -0.3484  -0.3005  -0.2570  -0.2389
[...]
     3.4182   3.7441   3.9844   4.5985   4.8060

          k = 0.0591-0.0000 0.0000 ( 17186 PWs)   bands (ev):

   -49.1814 -49.0900 -48.7432 -48.7011 -48.6797 -48.6647 -48.5600 -48.5400
   -48.5332 -48.4635 -48.4592 -48.4344 -48.4252 -48.4198 -48.3981 -48.3875
   -48.3720 -48.3428 -48.3319 -48.3134 -48.3063 -48.2989 -48.2868 -48.2266
   -48.2102 -48.1855 -48.1791 -48.1698 -48.1550 -48.1450 -48.1258 -48.0806
   -48.0429 -48.0199 -47.9901 -47.9825 -10.9495  -5.1167  -4.3300  -3.7150
    -2.9144  -2.8156  -2.7713  -2.7548  -2.6796  -2.6560  -2.6328  -2.5719
    -2.5317  -2.4951  -2.3590  -2.2790  -2.1545  -2.0882  -2.0397  -1.6534
    -1.5411  -1.4868  -1.4449  -1.3551  -1.2779  -1.1843  -1.1621  -1.0854
    -0.9917  -0.9429  -0.8936  -0.8320  -0.7765  -0.7154  -0.6770  -0.6076
    -0.4848  -0.4716  -0.3870  -0.2336  -0.1440  -0.0569  -0.0097   0.0349
     0.1184   0.1625   0.2164   0.2728   0.3321   0.3630   0.4617   0.5859
     0.6254   0.6557   0.7062   0.7478   0.8722   0.9429   0.9787   1.0076
     1.0268   1.1302   1.1794   1.2251   1.6724   1.9047   2.1320   2.3319
     2.9317   3.2735   3.9172   4.4008   5.2017

          k = 0.0591 0.0341 0.0000 ( 17196 PWs)   bands (ev):

   -49.1877 -49.0841 -48.7467 -48.6947 -48.6742 -48.6580 -48.5564 -48.5322
   -48.5205 -48.4631 -48.4620 -48.4361 -48.4245 -48.4231 -48.4069 -48.3882
   -48.3806 -48.3438 -48.3390 -48.3115 -48.3052 -48.2925 -48.2841 -48.2310
   -48.2138 -48.1887 -48.1765 -48.1702 -48.1642 -48.1452 -48.1269 -48.0804
   -48.0429 -48.0194 -47.9912 -47.9818 -10.9482  -5.1259  -4.3599  -3.5684
    -2.8864  -2.7507  -2.7361  -2.6859  -2.5917  -2.5385  -2.5068  -2.4703
    -2.4406  -2.4358  -2.3007  -2.0997  -2.0753  -1.9966  -1.9805  -1.6695
    -1.6228  -1.5015  -1.4482  -1.3351  -1.2486  -1.1733  -1.1326  -1.0872
    -1.0040  -0.9669  -0.8928  -0.8348  -0.7697  -0.6810  -0.6634  -0.6590
    -0.4924  -0.4791  -0.4142  -0.3467  -0.2611  -0.1496  -0.0740  -0.0358
    -0.0193   0.0572   0.0729   0.1043   0.2684   0.2927   0.4363   0.5129
     0.5463   0.5597   0.6165   0.7308   0.7342   0.8198   0.8475   0.8821
     1.0281   1.0658   1.1752   1.2551   1.3209   1.6781   2.3175   2.3458
     3.0971   3.7559   4.0036   4.5365   4.5792

          k = 0.0591-0.1365 0.0000 ( 17183 PWs)   bands (ev):

   -49.1799 -49.0899 -48.7411 -48.6884 -48.6738 -48.6642 -48.5397 -48.5097
   -48.4981 -48.4761 -48.4585 -48.4472 -48.4350 -48.4202 -48.4154 -48.3992
   -48.3804 -48.3543 -48.3301 -48.3033 -48.2982 -48.2789 -48.2646 -48.2397
   -48.2325 -48.2034 -48.1859 -48.1805 -48.1637 -48.1447 -48.1377 -48.0800
   -48.0425 -48.0196 -47.9908 -47.9823 -10.9417  -5.1197  -4.2211  -3.1654
    -2.8120  -2.6923  -2.5218  -2.4649  -2.4152  -2.3633  -2.2908  -2.2578
    -2.2388  -2.1634  -2.0979  -1.9635  -1.9277  -1.8549  -1.8093  -1.7716
    -1.6304  -1.5225  -1.4865  -1.4247  -1.3769  -1.3171  -1.2174  -1.1781
    -1.0542  -1.0511  -0.9585  -0.9031  -0.8493  -0.8216  -0.7691  -0.6890
    -0.6444  -0.5737  -0.5572  -0.4495  -0.3990  -0.3369  -0.3167  -0.2372
    -0.1519  -0.0643  -0.0178   0.0264   0.0557   0.1079   0.2377   0.3158
     0.3686   0.4574   0.5241   0.5556   0.6708   0.8474   0.8530   0.9697
     1.0027   1.0486   1.1024   1.1313   1.2087   1.6304   1.8219   2.2806
     2.5908   3.5141   3.9030   4.7852   5.3443

          k = 0.0591-0.1024 0.0000 ( 17208 PWs)   bands (ev):

   -49.1613 -49.1060 -48.7281 -48.6873 -48.6825 -48.6792 -48.5105 -48.5092
   -48.4910 -48.4733 -48.4709 -48.4494 -48.4459 -48.4248 -48.4177 -48.3882
   -48.3752 -48.3726 -48.3065 -48.2965 -48.2840 -48.2722 -48.2550 -48.2443
   -48.2392 -48.2289 -48.2091 -48.1662 -48.1609 -48.1560 -48.1439 -48.0799
   -48.0420 -48.0204 -47.9891 -47.9836 -10.9364  -5.1036  -3.9951  -3.0081
    -2.6845  -2.6662  -2.4025  -2.2245  -2.2024  -2.1853  -2.1536  -2.1383
    -2.0689  -2.0576  -2.0335  -1.9895  -1.9815  -1.9491  -1.8410  -1.6357
    -1.5910  -1.5394  -1.5213  -1.4889  -1.4755  -1.4047  -1.3389  -1.2246
    -1.1722  -1.1116  -1.1007  -1.0896  -1.0777  -1.0550  -0.7834  -0.7341
    -0.7230  -0.7072  -0.6524  -0.6218  -0.5785  -0.5609  -0.4427  -0.2290
    -0.1947  -0.0431   0.0564   0.0986   0.1253   0.1553   0.3292   0.4080
     0.4171   0.4562   0.6459   0.6569   0.7270   0.8475   0.8854   0.9248
     0.9567   1.0249   1.0513   1.0833   1.1039   1.3106   1.3986   1.8581
     2.4966   3.3145   4.1761   4.8383   5.4671

          k = 0.0591-0.0683 0.0000 ( 17183 PWs)   bands (ev):

   -49.1462 -49.1207 -48.7176 -48.6971 -48.6941 -48.6832 -48.5364 -48.5172
   -48.4933 -48.4728 -48.4544 -48.4535 -48.4281 -48.4240 -48.4171 -48.3986
   -48.3749 -48.3573 -48.3045 -48.2911 -48.2850 -48.2795 -48.2631 -48.2441
   -48.2298 -48.2228 -48.2035 -48.1833 -48.1577 -48.1442 -48.1391 -48.0801
   -48.0420 -48.0209 -47.9866 -47.9856 -10.9377  -5.0940  -3.9089  -3.3170
    -2.9284  -2.6666  -2.5082  -2.4538  -2.4177  -2.4004  -2.3579  -2.2619
    -2.2232  -2.1820  -2.1022  -2.0236  -1.9391  -1.9031  -1.8434  -1.7394
    -1.6342  -1.5768  -1.5126  -1.4452  -1.3605  -1.3118  -1.2665  -1.1733
    -1.0701  -1.0475  -0.9771  -0.9069  -0.8645  -0.8057  -0.7240  -0.6667
    -0.6255  -0.5391  -0.5207  -0.4185  -0.4006  -0.3609  -0.3176  -0.2465
    -0.1499  -0.0954  -0.0520   0.0173   0.0476   0.1524   0.1979   0.2972
     0.3949   0.4554   0.5402   0.5891   0.6660   0.7598   0.8662   0.9359
     0.9792   1.0337   1.0592   1.1497   1.1860   1.4352   2.1204   2.1824
     2.7200   3.4928   4.3291   4.7273   5.5501

          k =-0.0887 0.0512 0.0000 ( 17240 PWs)   bands (ev):

   -49.1463 -49.1207 -48.7179 -48.6984 -48.6925 -48.6832 -48.5361 -48.5286
   -48.4725 -48.4691 -48.4548 -48.4447 -48.4405 -48.4312 -48.4184 -48.4111
   -48.3626 -48.3581 -48.3052 -48.2952 -48.2902 -48.2780 -48.2461 -48.2346
   -48.2307 -48.2206 -48.2094 -48.2077 -48.1462 -48.1441 -48.1393 -48.0801
   -48.0420 -48.0209 -47.9863 -47.9860 -10.9376  -5.0967  -3.9062  -3.2542
    -3.0596  -2.7060  -2.5742  -2.5296  -2.4284  -2.3753  -2.3170  -2.2498
    -2.1963  -2.1016  -2.0896  -2.0320  -1.9799  -1.8747  -1.8480  -1.7381
    -1.5537  -1.5343  -1.4682  -1.4476  -1.4441  -1.3433  -1.1858  -1.0789
    -1.0071  -0.9417  -0.8463  -0.8283  -0.7998  -0.7157  -0.6756  -0.6626
    -0.5655  -0.5487  -0.5374  -0.4614  -0.4476  -0.3885  -0.3491  -0.1955
    -0.1831  -0.1290  -0.1118   0.0126   0.0254   0.0844   0.1105   0.1782
     0.2482   0.2575   0.4308   0.4632   0.5093   0.6091   0.7356   0.8866
     1.0270   1.0665   1.0989   1.1120   1.2941   1.3168   2.1302   2.8136
     3.7176   3.7724   4.2170   4.3423   4.9195

          k =-0.0887 0.0853 0.0000 ( 17183 PWs)   bands (ev):

   -49.1620 -49.1059 -48.7292 -48.6927 -48.6840 -48.6781 -48.5355 -48.5192
   -48.4952 -48.4666 -48.4597 -48.4488 -48.4340 -48.4224 -48.4180 -48.3989
   -48.3735 -48.3577 -48.3093 -48.3003 -48.2906 -48.2825 -48.2649 -48.2349
   -48.2286 -48.2111 -48.2083 -48.1811 -48.1568 -48.1443 -48.1401 -48.0801
   -48.0422 -48.0205 -47.9887 -47.9838 -10.9390  -5.1042  -4.0340  -3.2198
    -2.9431  -2.6312  -2.5119  -2.4748  -2.4169  -2.3829  -2.3355  -2.2576
    -2.2310  -2.1837  -2.1001  -2.0189  -1.9561  -1.8677  -1.8226  -1.7209
    -1.6237  -1.5846  -1.5110  -1.4592  -1.3977  -1.2986  -1.2147  -1.1428
    -1.0603  -1.0430  -0.9340  -0.8952  -0.8702  -0.8060  -0.7427  -0.7154
    -0.6556  -0.5714  -0.5256  -0.4051  -0.3909  -0.3650  -0.3266  -0.2735
    -0.1445  -0.0906  -0.0084   0.0122   0.1048   0.1088   0.2316   0.2796
     0.3550   0.4324   0.5502   0.5781   0.7075   0.7861   0.8635   0.9399
     0.9772   1.0338   1.0656   1.1521   1.1855   1.3782   2.0705   2.2477
     2.9160   3.2789   4.1450   4.9062   5.4362

          k =-0.0887 0.1195 0.0000 ( 17183 PWs)   bands (ev):

   -49.1799 -49.0899 -48.7410 -48.6886 -48.6738 -48.6641 -48.5395 -48.5098
   -48.4980 -48.4762 -48.4590 -48.4466 -48.4354 -48.4202 -48.4153 -48.3992
   -48.3804 -48.3542 -48.3301 -48.3033 -48.2982 -48.2789 -48.2646 -48.2397
   -48.2325 -48.2034 -48.1859 -48.1805 -48.1637 -48.1447 -48.1377 -48.0800
   -48.0425 -48.0196 -47.9908 -47.9823 -10.9416  -5.1198  -4.2211  -3.1652
    -2.8128  -2.6915  -2.5216  -2.4648  -2.4144  -2.3622  -2.2912  -2.2585
    -2.2382  -2.1635  -2.0969  -1.9642  -1.9279  -1.8549  -1.8084  -1.7729
    -1.6311  -1.5240  -1.4859  -1.4245  -1.3746  -1.3174  -1.2161  -1.1787
    -1.0543  -1.0519  -0.9603  -0.9047  -0.8512  -0.8262  -0.7700  -0.6866
    -0.6413  -0.5723  -0.5545  -0.4495  -0.3995  -0.3399  -0.3182  -0.2356
    -0.1505  -0.0644  -0.0191   0.0271   0.0577   0.1070   0.2381   0.3140
     0.3691   0.4579   0.5240   0.5562   0.6707   0.8475   0.8533   0.9692
     1.0024   1.0484   1.1038   1.1317   1.2087   1.6299   1.8212   2.2811
     2.5911   3.5140   3.9032   4.7849   5.3448

          k =-0.0887-0.0512 0.0000 ( 17240 PWs)   bands (ev):

   -49.1868 -49.0840 -48.7453 -48.6866 -48.6696 -48.6574 -48.5442 -48.5143
   -48.4852 -48.4723 -48.4567 -48.4455 -48.4330 -48.4306 -48.4195 -48.4102
   -48.3750 -48.3500 -48.3392 -48.3055 -48.3019 -48.2834 -48.2510 -48.2355
   -48.2264 -48.2128 -48.1994 -48.1769 -48.1576 -48.1449 -48.1337 -48.0800
   -48.0426 -48.0192 -47.9916 -47.9817 -10.9430  -5.1278  -4.2977  -3.0704
    -2.9772  -2.6679  -2.5783  -2.5447  -2.3824  -2.3043  -2.2838  -2.2833
    -2.2118  -2.1114  -2.0618  -1.9213  -1.8942  -1.8744  -1.8442  -1.7479
    -1.5156  -1.4879  -1.4502  -1.4110  -1.3792  -1.3337  -1.2499  -1.1161
    -1.0214  -1.0015  -0.9227  -0.8530  -0.7569  -0.6767  -0.6623  -0.6141
    -0.5963  -0.5645  -0.5260  -0.4838  -0.4513  -0.4143  -0.2416  -0.1967
    -0.1904  -0.1250  -0.0809  -0.0308  -0.0013   0.0537   0.1049   0.2155
     0.2461   0.2922   0.4283   0.4653   0.4775   0.6320   0.8273   0.8566
     1.0145   1.0583   1.1671   1.2693   1.3165   1.3655   2.2801   2.3589
     3.5952   3.7056   3.8122   4.2839   5.1347

     the Fermi energy is     1.2918 ev

!    total energy              =   -2411.37773863 Ry
     Harris-Foulkes estimate   =   -2411.37773872 Ry
     estimated scf accuracy    <       0.00000002 Ry

     The total energy is the sum of the following terms:

     one-electron contribution =  -20517.09324505 Ry
     hartree contribution      =   10311.55141823 Ry
     xc contribution           =    -395.35325993 Ry
     ewald contribution        =    8189.62340540 Ry
     electric field correction =       0.00009056 Ry
     smearing contrib. (-TS)   =      -0.10614784 Ry

     convergence has been achieved in  11 iterations
 
 BEEF-vdW xc energy contributions
           1 :   -344.054527380599     
           2 :    314.248647213530     
           3 :   -263.473468491817     
           4 :    205.434580303007     
           5 :   -153.327182441814     
           6 :    115.519968685422     
           7 :   -93.7705978777974     
           8 :    84.2612142238578     
           9 :   -80.5812157487634     
          10 :    77.0551310228676     
          11 :   -70.9114571789937     
          12 :    62.5570419512903     
          13 :   -54.2620777364425     
          14 :    48.2694632575134     
          15 :   -45.4236540190210     
          16 :    44.9088219328242     
          17 :   -44.9888220693511     
          18 :    44.1278299279772     
          19 :   -41.7887672460909     
          20 :    38.5142364726530     
          21 :   -35.3776763313216     
          22 :    33.2317884636497     
          23 :   -32.2265363089032     
          24 :    31.8323478606352     
          25 :   -31.2731688407471     
          26 :    30.0445271611269     
          27 :   -28.1897922435931     
          28 :    26.1953812576646     
          29 :   -24.6189021045755     
          30 :    23.7136147377495     
          31 :   -33.6755227985476     
          32 :   -24.8626559268034     

     Forces acting on atoms (Ry/au):


     negative rho (up, down):  9.442E-01 0.000E+00
     atom    1 type  1   force =     0.00019638    0.00014300   -0.00062212
     atom    2 type  1   force =    -0.00077535    0.00196178   -0.00330036
     atom    3 type  1   force =     0.00131428   -0.00162984   -0.00328905
     atom    4 type  1   force =    -0.00006445   -0.00000186    0.00031049
     atom    5 type  1   force =     0.00391038    0.00344128   -0.00160087
     atom    6 type  1   force =    -0.00232758   -0.00156021    0.00080958
     atom    7 type  1   force =    -0.00501344   -0.00289530    0.00975141
     atom    8 type  1   force =     0.00528877    0.00128787   -0.00141198
     atom    9 type  1   force =    -0.00060000   -0.00011858   -0.00024220
     atom   10 type  1   force =    -0.00040143   -0.00038619    0.00073262
     atom   11 type  1   force =    -0.00030537    0.00013244    0.00103187
     atom   12 type  1   force =    -0.00113039    0.00000893   -0.00097354
     atom   13 type  2   force =     0.00054495   -0.00031160    0.00043717
     atom   14 type  3   force =    -0.00151973   -0.00068226   -0.00122991
     atom   15 type  3   force =     0.00088299    0.00061055   -0.00040311

     Total force =     0.003297     Total SCF correction =     0.000332
     SCF correction compared to forces is large: reduce conv_thr to get better values


     entering subroutine stress ...


     negative rho (up, down):  9.442E-01 0.000E+00
          total   stress  (Ry/bohr**3)                   (kbar)     P=   -9.11
  -0.00008466   0.00000381  -0.00000335        -12.45      0.56     -0.49
   0.00000381  -0.00008968  -0.00000148          0.56    -13.19     -0.22
  -0.00000335  -0.00000148  -0.00001147         -0.49     -0.22     -1.69


     bfgs converged in  41 scf cycles and  40 bfgs steps
     (criteria: energy <  1.0E+00, force <  1.9E-03)

     End of BFGS Geometry Optimization

     Final energy   =   -2411.3777386304 Ry
Begin final coordinates

ATOMIC_POSITIONS (crystal)
Pd1      0.166666667   0.166666667   0.406452311    0   0   0
Pd1      0.666666667   0.166666667   0.406452311    0   0   0
Pd1      0.166666667   0.666666667   0.406452311    0   0   0
Pd1      0.666666667   0.666666667   0.406452311    0   0   0
Pd1      0.833333333   0.333333333   0.500000000    0   0   0
Pd1      0.333333333   0.333333333   0.500000000    0   0   0
Pd1      0.833333333   0.833333333   0.500000000    0   0   0
Pd1      0.333333333   0.833333333   0.500000000    0   0   0
Pd1     -0.000682374  -0.002778364   0.591993629
Pd1      0.498772022   0.005991854   0.597599149
Pd1      0.007217819   0.497437202   0.597439388
Pd1      0.506833122   0.504460098   0.592995924
C1       0.246528161   0.246421830   0.657585529
H1       0.338710404   0.337931714   0.683300547
H1       0.152726460   0.152624730   0.682110846
End final coordinates



     Writing output data file calc.save
 
     init_run     :     10.96s CPU     11.36s WALL (       1 calls)
     electrons    :  12503.73s CPU  13426.13s WALL (      41 calls)
     update_pot   :    125.15s CPU    134.71s WALL (      40 calls)
     forces       :    559.53s CPU    597.85s WALL (      41 calls)
     stress       :   1809.40s CPU   1938.46s WALL (      41 calls)

     Called by init_run:
     wfcinit      :      4.56s CPU      4.64s WALL (       1 calls)
     potinit      :      1.81s CPU      1.94s WALL (       1 calls)

     Called by electrons:
     c_bands      :   5059.90s CPU   5320.45s WALL (     509 calls)
     sum_band     :   2565.01s CPU   2782.54s WALL (     509 calls)
     v_of_rho     :    830.87s CPU    925.19s WALL (     550 calls)
     newd         :   2092.56s CPU   2126.06s WALL (     550 calls)
     mix_rho      :     29.49s CPU     30.29s WALL (     509 calls)
     vdW_energy   :    408.29s CPU    455.60s WALL (    2026 calls)
     vdW_ffts     :   1017.25s CPU   1066.74s WALL (    4134 calls)
     vdW_v        :    396.17s CPU    416.98s WALL (    2026 calls)

     Called by c_bands:
     init_us_2    :     27.76s CPU     27.93s WALL (    5505 calls)
     cegterg      :   4625.56s CPU   4718.61s WALL (    2545 calls)

     Called by *egterg:
     h_psi        :   3112.76s CPU   3188.54s WALL (    8469 calls)
     s_psi        :    253.97s CPU    254.63s WALL (    8469 calls)
     g_psi        :     16.23s CPU     16.25s WALL (    5919 calls)
     cdiaghg      :    360.20s CPU    362.69s WALL (    8264 calls)

     Called by h_psi:
     add_vuspsi   :    260.15s CPU    260.81s WALL (    8469 calls)

     General routines
     calbec       :    416.31s CPU    422.96s WALL (   11424 calls)
     fft          :   1589.97s CPU   1716.73s WALL (  122563 calls)
     ffts         :      1.91s CPU      2.06s WALL (    1059 calls)
     fftw         :   2026.78s CPU   2105.30s WALL ( 1549935 calls)
     interpolate  :     19.00s CPU     19.55s WALL (    1059 calls)
     davcio       :      0.00s CPU      0.03s WALL (       5 calls)
 
     Parallel routines
     fft_scatter  :   2053.66s CPU   2257.05s WALL ( 1673557 calls)
 
     PWSCF        :     4h12m CPU        4h31m WALL

 
   This run was terminated on:   3:55: 1  22Apr2018            

=------------------------------------------------------------------------------=
   JOB DONE.
=------------------------------------------------------------------------------=
Job  /afs/slac/g/suncat/bin/suncat-tsmpirun -x LD_LIBRARY_PATH -wdir /scratch/qe526531_gdtjb pw.x -npool 4 -in pw.inp

TID   HOST_NAME   COMMAND_LINE            STATUS            TERMINATION_TIME
===== ========== ================  =======================  ===================
00000 suncat0105 pw.x -npool 4 -i  Done                     04/22/2018 03:55:01
00001 suncat0105 pw.x -npool 4 -i  Done                     04/22/2018 03:55:01
00002 suncat0105 pw.x -npool 4 -i  Done                     04/22/2018 03:55:01
00003 suncat0105 pw.x -npool 4 -i  Done                     04/22/2018 03:55:01
00004 suncat0105 pw.x -npool 4 -i  Done                     04/22/2018 03:55:01
00005 suncat0105 pw.x -npool 4 -i  Done                     04/22/2018 03:55:01
00006 suncat0105 pw.x -npool 4 -i  Done                     04/22/2018 03:55:01
00007 suncat0105 pw.x -npool 4 -i  Done                     04/22/2018 03:55:01
00008 suncat0260 pw.x -npool 4 -i  Done                     04/22/2018 03:55:01
00009 suncat0260 pw.x -npool 4 -i  Done                     04/22/2018 03:55:01
00010 suncat0260 pw.x -npool 4 -i  Done                     04/22/2018 03:55:01
00011 suncat0260 pw.x -npool 4 -i  Done                     04/22/2018 03:55:01
00012 suncat0260 pw.x -npool 4 -i  Done                     04/22/2018 03:55:01
00013 suncat0260 pw.x -npool 4 -i  Done                     04/22/2018 03:55:01
00014 suncat0260 pw.x -npool 4 -i  Done                     04/22/2018 03:55:01
00015 suncat0260 pw.x -npool 4 -i  Done                     04/22/2018 03:55:01
00016 suncat0259 pw.x -npool 4 -i  Done                     04/22/2018 03:55:01
00017 suncat0259 pw.x -npool 4 -i  Done                     04/22/2018 03:55:01
00018 suncat0259 pw.x -npool 4 -i  Done                     04/22/2018 03:55:01
00019 suncat0259 pw.x -npool 4 -i  Done                     04/22/2018 03:55:01
00020 suncat0259 pw.x -npool 4 -i  Done                     04/22/2018 03:55:01
00021 suncat0259 pw.x -npool 4 -i  Done                     04/22/2018 03:55:01
00022 suncat0259 pw.x -npool 4 -i  Done                     04/22/2018 03:55:01
00023 suncat0259 pw.x -npool 4 -i  Done                     04/22/2018 03:55:01
00024 suncat0224 pw.x -npool 4 -i  Done                     04/22/2018 03:55:01
00025 suncat0224 pw.x -npool 4 -i  Done                     04/22/2018 03:55:01
00026 suncat0224 pw.x -npool 4 -i  Done                     04/22/2018 03:55:01
00027 suncat0224 pw.x -npool 4 -i  Done                     04/22/2018 03:55:01
00028 suncat0224 pw.x -npool 4 -i  Done                     04/22/2018 03:55:01
00029 suncat0224 pw.x -npool 4 -i  Done                     04/22/2018 03:55:01
00030 suncat0224 pw.x -npool 4 -i  Done                     04/22/2018 03:55:01
00031 suncat0224 pw.x -npool 4 -i  Done                     04/22/2018 03:55:01
