  python dir          : /nfs/slac/g/suncatfs/sw/espv20/lib/python2.7/site-packages/espresso
  espresso dir        : /nfs/slac/g/suncatfs/sw/espv18/espresso-dynpy-beef/bin
  pseudo dir          : /afs/slac.stanford.edu/u/if/mamunm/psp/gbrv1.5pbe
  ase-espresso py git : ffa2778-git



     Program PWSCF v.5.1rc2 (svn rev. 11289) starts on 18Jan2018 at  4:29:13 

     This program is part of the open-source Quantum ESPRESSO suite
     for quantum simulation of materials; please cite
         "P. Giannozzi et al., J. Phys.:Condens. Matter 21 395502 (2009);
          URL http://www.quantum-espresso.org", 
     in publications or presentations arising from this work. More details at
     http://www.quantum-espresso.org/quote

     Parallel version (MPI), running on    32 processors
     R & G space division:  proc/nbgrp/npool/nimage =      32
     Reading input from pw.inp
     Message from routine read_cards :
     DEPRECATED: no units specified in CELL_PARAMETERS card

     Current dimensions of program PWSCF are:
     Max number of different atomic species (ntypx) = 10
     Max number of k-points (npk) =  40000
     Max angular momentum in pseudopotentials (lmaxx) =  3
     Presently stress not available with electric field


     **************************************************************************
     Initializing libbeef V0.1.1 with the BEEF-vdW functional.
     Citation: Wellendorff et al., PRB 85, 235149 (2012).
     **************************************************************************


     IMPORTANT: XC functional enforced from input :
     Exchange-correlation      = BEEF-VDW ( 1  4 27 13 2)
     Any further DFT definition will be discarded
     Please, verify this is what you really want


     Subspace diagonalization in iterative solution of the eigenvalue problem:
     a serial algorithm will be used

 
     Parallelization info
     --------------------
     sticks:   dense  smooth     PW     G-vecs:    dense   smooth      PW
     Min         123      49     14                24159     6095     922
     Max         124      50     15                24174     6130     942
     Sum        3949    1585    451               773273   195593   29841
 


     bravais-lattice index     =            0
     lattice parameter (alat)  =       1.8897  a.u.
     unit-cell volume          =    6501.5726 (a.u.)^3
     number of atoms/cell      =           13
     number of atomic types    =            2
     number of electrons       =       160.00
     number of Kohn-Sham states=           90
     kinetic-energy cutoff     =      36.7493  Ry
     charge density cutoff     =     367.4932  Ry
     convergence threshold     =      1.0E-05
     mixing beta               =       0.3000
     number of iterations used =           10  plain     mixing
     Exchange-correlation      = BEEF-VDW ( 1  4 27 13 2)
     nstep                     =           50


     celldm(1)=   1.889726  celldm(2)=   0.000000  celldm(3)=   0.000000
     celldm(4)=   0.000000  celldm(5)=   0.000000  celldm(6)=   0.000000

     crystal axes: (cart. coord. in units of alat)
               a(1) = (   6.617606   0.000000   0.000000 )  
               a(2) = (   3.308803   5.731015   0.000000 )  
               a(3) = (   0.000000   0.000000  25.403253 )  

     reciprocal axes: (cart. coord. in units 2 pi/alat)
               b(1) = (  0.151112 -0.087245  0.000000 )  
               b(2) = (  0.000000  0.174489  0.000000 )  
               b(3) = (  0.000000  0.000000  0.039365 )  


     PseudoPot. # 1 for In read from file:
     /afs/slac.stanford.edu/u/if/mamunm/psp/gbrv1.5pbe/In.UPF
     MD5 check sum: 90777abd96fbb83f2e67db2a40c566b9
     Pseudo is Ultrasoft + core correction, Zval = 13.0
     Generated by new atomic code, or converted to UPF format
     Using radial grid of  889 points,  6 beta functions with: 
                l(1) =   0
                l(2) =   0
                l(3) =   1
                l(4) =   1
                l(5) =   2
                l(6) =   2
     Q(r) pseudized with  6 coefficients,  rinner =    1.400   1.400   1.400
                                                       1.400   1.400

     PseudoPot. # 2 for C  read from file:
     /afs/slac.stanford.edu/u/if/mamunm/psp/gbrv1.5pbe/C.UPF
     MD5 check sum: d1aef80898a10debaa0f26306b886e00
     Pseudo is Ultrasoft + core correction, Zval =  4.0
     Generated by new atomic code, or converted to UPF format
     Using radial grid of  721 points,  4 beta functions with: 
                l(1) =   0
                l(2) =   0
                l(3) =   1
                l(4) =   1
     Q(r) pseudized with  8 coefficients,  rinner =    1.100   1.100   1.100


     vdW kernel table read from file vdW_kernel_table
     MD5 check sum: 095c7af220d748ca6e76c0b4c6cfb241

     atomic species   valence    mass     pseudopotential
        In1           13.00   114.81800     In( 1.00)
        C1             4.00    12.01100     C ( 1.00)

     No symmetry found



   Cartesian axes

     site n.     atom                  positions (alat units)
         1           In1 tau(   1) = (   1.6544016   0.9551692  10.0000000  )
         2           In1 tau(   2) = (   4.9632047   0.9551692  10.0000000  )
         3           In1 tau(   3) = (   3.3088031   3.8206768  10.0000000  )
         4           In1 tau(   4) = (   6.6176063   3.8206768  10.0000000  )
         5           In1 tau(   5) = (   6.6176063   1.9103384  12.7016265  )
         6           In1 tau(   6) = (   3.3088031   1.9103384  12.7016265  )
         7           In1 tau(   7) = (   8.2720078   4.7758460  12.7016265  )
         8           In1 tau(   8) = (   4.9632047   4.7758460  12.7016265  )
         9           In1 tau(   9) = (   0.0000000   0.0000000  15.4032529  )
        10           In1 tau(  10) = (   3.3088031   0.0000000  15.4032529  )
        11           In1 tau(  11) = (   1.6544016   2.8655076  15.4032529  )
        12           In1 tau(  12) = (   4.9632047   2.8655076  15.4032529  )
        13           C1  tau(  13) = (   3.3088031   1.9103384  17.5832529  )

     number of k points=    20  Fermi-Dirac smearing, width (Ry)=  0.0110
                       cart. coord. in units 2pi/alat
        k(    1) = (   0.0000000   0.0000000   0.0000000), wk =   0.0555556
        k(    2) = (   0.0000000   0.0290815   0.0000000), wk =   0.1111111
        k(    3) = (   0.0000000   0.0581631   0.0000000), wk =   0.1111111
        k(    4) = (   0.0000000  -0.0872446   0.0000000), wk =   0.0555556
        k(    5) = (   0.0251853  -0.0145408   0.0000000), wk =   0.1111111
        k(    6) = (   0.0251853   0.0145408   0.0000000), wk =   0.1111111
        k(    7) = (   0.0251853   0.0436223   0.0000000), wk =   0.1111111
        k(    8) = (   0.0251853  -0.1017853   0.0000000), wk =   0.1111111
        k(    9) = (   0.0251853  -0.0727038   0.0000000), wk =   0.1111111
        k(   10) = (   0.0251853  -0.0436223   0.0000000), wk =   0.1111111
        k(   11) = (   0.0503707  -0.0290815   0.0000000), wk =   0.1111111
        k(   12) = (   0.0503707   0.0000000   0.0000000), wk =   0.1111111
        k(   13) = (   0.0503707   0.0290815   0.0000000), wk =   0.1111111
        k(   14) = (   0.0503707  -0.1163261   0.0000000), wk =   0.1111111
        k(   15) = (   0.0503707  -0.0872446   0.0000000), wk =   0.1111111
        k(   16) = (   0.0503707  -0.0581631   0.0000000), wk =   0.1111111
        k(   17) = (  -0.0755560   0.0436223   0.0000000), wk =   0.0555556
        k(   18) = (  -0.0755560   0.0727038   0.0000000), wk =   0.1111111
        k(   19) = (  -0.0755560   0.1017853   0.0000000), wk =   0.1111111
        k(   20) = (  -0.0755560  -0.0436223   0.0000000), wk =   0.0555556

     Dense  grid:   773273 G-vectors     FFT dimensions: (  80,  80, 300)

     Smooth grid:   195593 G-vectors     FFT dimensions: (  50,  50, 192)

     Largest allocated arrays     est. size (Mb)     dimensions
        Kohn-Sham Wavefunctions         1.12 Mb     (     813,   90)
        NL pseudopotentials             2.78 Mb     (     813,  224)
        Each V/rho on FFT grid          0.98 Mb     (   64000)
        Each G-vector array             0.18 Mb     (   24161)
        G-vector shells                 0.08 Mb     (   10769)
     Largest temporary arrays     est. size (Mb)     dimensions
        Auxiliary wavefunctions         4.47 Mb     (     813,  360)
        Each subspace H/S matrix        1.98 Mb     (     360,  360)
        Each <psi_i|beta_j> matrix      0.31 Mb     (     224,   90)
        Arrays for rho mixing           9.77 Mb     (   64000,   10)

     Initial potential from superposition of free atoms
     Check: negative starting charge=   -0.000196

     starting charge  141.99995, renormalised to  160.00000

     negative rho (up, down):  2.208E-04 0.000E+00


     ************************************************************************
     *
     * You are using vdW-DF for exchange-correlation in this calculation.
     * Please cite the following three references that made this development
     * possible:
     *
     *   M. Dion, H. Rydberg, E. Schroder, D. C. Langreth, and
     *   B. I. Lundqvist, Phys. Rev. Lett. 92, 246401 (2004).
     *
     *   T. Thonhauser, V. R. Cooper, S. Li, A. Puzder, P. Hyldgaard, and
     *   D. C. Langreth, Phys. Rev. B 76, 125112 (2007).
     *
     *   G. Roman-Perez and J. M. Soler, Phys. Rev. Lett. 103, 096102 (2009).
     *
     *
     * If you are using vdW-DF2, please also cite:
     *
     *   K. Lee, E. D. Murray, L. Kong, B. I. Lundqvist, and
     *   D. C. Langreth, Phys. Rev. B 82, 081101(R) (2010).
     *
     *
     * If you are calculating the stress with vdW-DF, please also cite:
     *
     *   R. Sabatini, E. Kucukbenli, B. Kolb, T. Thonhauser, and
     *   S. de Gironcoli, J. Phys.: Condens. Matter 24, 424209 (2012).
     *
     ************************************************************************

     Carrying out vdW-DF run using the following parameters:

     Nqs =      20    Nr_points =    1024   r_max =   100.000
     q_mesh =
               0.00001000     0.04494208     0.09755937     0.15916263
               0.23128650     0.31572767     0.41458969     0.53033537
               0.66584808     0.82450364     1.01025438     1.22772762
               1.48234092     1.78043706     2.12944203     2.53805004
               3.01644009     3.57652955     4.23227104     5.00000000

     Gradients computed in reciprocal space

     ************************************************************************


 
     Adding external electric field

     Computed dipole along edir(3) : 
        Dipole               -4.6770 Ry au,        -11.8878 Debye
        Dipole field         -0.0090 Ry au
 
        Potential amp.        0.8462 Ry
        Total length         46.8051 bohr
 
     Starting wfc are  112 randomized atomic wfcs

     total cpu time spent up to now is        8.9 secs

     Self-consistent Calculation

     iteration #  1     ecut=    36.75 Ry     beta=0.30
     Davidson diagonalization with overlap
     ethr =  1.00E-02,  avg # of iterations =  8.3

     negative rho (up, down):  9.105E-05 0.000E+00
 
     Adding external electric field

     Computed dipole along edir(3) : 
        Dipole               74.6176 Ry au,        189.6589 Debye
        Dipole field          0.1442 Ry au
 
        Potential amp.      -13.5007 Ry
        Total length         46.8051 bohr
 

     total cpu time spent up to now is       40.5 secs

     total energy              =   -1476.40510393 Ry
     Harris-Foulkes estimate   =   -1636.85958998 Ry
     estimated scf accuracy    <     346.35993218 Ry

     iteration #  2     ecut=    36.75 Ry     beta=0.30
     Davidson diagonalization with overlap
     c_bands:  1 eigenvalues not converged
     c_bands:  2 eigenvalues not converged
     c_bands:  1 eigenvalues not converged
     c_bands:  3 eigenvalues not converged
     c_bands:  1 eigenvalues not converged
     c_bands:  2 eigenvalues not converged
     ethr =  1.00E-02,  avg # of iterations = 19.5
 
     Adding external electric field

     Computed dipole along edir(3) : 
        Dipole               22.4947 Ry au,         57.1757 Debye
        Dipole field          0.0435 Ry au
 
        Potential amp.       -4.0700 Ry
        Total length         46.8051 bohr
 

     total cpu time spent up to now is      112.7 secs

     total energy              =   -1414.48418796 Ry
     Harris-Foulkes estimate   =   -2153.81200601 Ry
     estimated scf accuracy    <   13592.61210245 Ry

     iteration #  3     ecut=    36.75 Ry     beta=0.30
     Davidson diagonalization with overlap
     ethr =  1.00E-02,  avg # of iterations = 10.1
 
     Adding external electric field

     Computed dipole along edir(3) : 
        Dipole               20.3922 Ry au,         51.8319 Debye
        Dipole field          0.0394 Ry au
 
        Potential amp.       -3.6896 Ry
        Total length         46.8051 bohr
 

     total cpu time spent up to now is      158.9 secs

     total energy              =   -1549.48681808 Ry
     Harris-Foulkes estimate   =   -1731.04002543 Ry
     estimated scf accuracy    <    2159.42431896 Ry

     iteration #  4     ecut=    36.75 Ry     beta=0.30
     Davidson diagonalization with overlap
     ethr =  1.00E-02,  avg # of iterations =  9.8
 
     Adding external electric field

     Computed dipole along edir(3) : 
        Dipole               13.9374 Ry au,         35.4254 Debye
        Dipole field          0.0269 Ry au
 
        Potential amp.       -2.5217 Ry
        Total length         46.8051 bohr
 

     total cpu time spent up to now is      200.7 secs

     total energy              =   -1630.99029368 Ry
     Harris-Foulkes estimate   =   -1638.99170407 Ry
     estimated scf accuracy    <      21.43296084 Ry

     iteration #  5     ecut=    36.75 Ry     beta=0.30
     Davidson diagonalization with overlap
     ethr =  1.00E-02,  avg # of iterations =  2.2
 
     Adding external electric field

     Computed dipole along edir(3) : 
        Dipole               10.1977 Ry au,         25.9199 Debye
        Dipole field          0.0197 Ry au
 
        Potential amp.       -1.8451 Ry
        Total length         46.8051 bohr
 

     total cpu time spent up to now is      215.3 secs

     total energy              =   -1629.97467595 Ry
     Harris-Foulkes estimate   =   -1632.85017534 Ry
     estimated scf accuracy    <      13.86959449 Ry

     iteration #  6     ecut=    36.75 Ry     beta=0.30
     Davidson diagonalization with overlap
     ethr =  8.67E-03,  avg # of iterations =  1.9
 
     Adding external electric field

     Computed dipole along edir(3) : 
        Dipole                8.2708 Ry au,         21.0224 Debye
        Dipole field          0.0160 Ry au
 
        Potential amp.       -1.4965 Ry
        Total length         46.8051 bohr
 

     total cpu time spent up to now is      227.6 secs

     total energy              =   -1628.99367590 Ry
     Harris-Foulkes estimate   =   -1630.62033745 Ry
     estimated scf accuracy    <      13.28198327 Ry

     iteration #  7     ecut=    36.75 Ry     beta=0.30
     Davidson diagonalization with overlap
     ethr =  8.30E-03,  avg # of iterations =  1.1
 
     Adding external electric field

     Computed dipole along edir(3) : 
        Dipole                5.3980 Ry au,         13.7203 Debye
        Dipole field          0.0104 Ry au
 
        Potential amp.       -0.9767 Ry
        Total length         46.8051 bohr
 

     total cpu time spent up to now is      240.9 secs

     total energy              =   -1628.83157540 Ry
     Harris-Foulkes estimate   =   -1629.71323055 Ry
     estimated scf accuracy    <       4.00010244 Ry

     iteration #  8     ecut=    36.75 Ry     beta=0.30
     Davidson diagonalization with overlap
     ethr =  2.50E-03,  avg # of iterations =  2.0
 
     Adding external electric field

     Computed dipole along edir(3) : 
        Dipole                4.0461 Ry au,         10.2842 Debye
        Dipole field          0.0078 Ry au
 
        Potential amp.       -0.7321 Ry
        Total length         46.8051 bohr
 

     total cpu time spent up to now is      254.7 secs

     total energy              =   -1628.70275695 Ry
     Harris-Foulkes estimate   =   -1629.01867848 Ry
     estimated scf accuracy    <       0.96454991 Ry

     iteration #  9     ecut=    36.75 Ry     beta=0.30
     Davidson diagonalization with overlap
     ethr =  6.03E-04,  avg # of iterations =  3.7

     negative rho (up, down):  4.205E-02 0.000E+00
 
     Adding external electric field

     Computed dipole along edir(3) : 
        Dipole               -0.1450 Ry au,         -0.3686 Debye
        Dipole field         -0.0003 Ry au
 
        Potential amp.        0.0262 Ry
        Total length         46.8051 bohr
 

     total cpu time spent up to now is      271.3 secs

     total energy              =   -1628.27907493 Ry
     Harris-Foulkes estimate   =   -1628.84334364 Ry
     estimated scf accuracy    <       2.32119724 Ry

     iteration # 10     ecut=    36.75 Ry     beta=0.30
     Davidson diagonalization with overlap
     ethr =  6.03E-04,  avg # of iterations =  4.0

     negative rho (up, down):  3.676E-02 0.000E+00
 
     Adding external electric field

     Computed dipole along edir(3) : 
        Dipole               -0.0595 Ry au,         -0.1514 Debye
        Dipole field         -0.0001 Ry au
 
        Potential amp.        0.0108 Ry
        Total length         46.8051 bohr
 

     total cpu time spent up to now is      289.2 secs

     total energy              =   -1628.52757868 Ry
     Harris-Foulkes estimate   =   -1628.56693059 Ry
     estimated scf accuracy    <       1.44906855 Ry

     iteration # 11     ecut=    36.75 Ry     beta=0.30
     Davidson diagonalization with overlap
     ethr =  6.03E-04,  avg # of iterations =  1.0

     negative rho (up, down):  3.296E-02 0.000E+00
 
     Adding external electric field

     Computed dipole along edir(3) : 
        Dipole               -0.3739 Ry au,         -0.9504 Debye
        Dipole field         -0.0007 Ry au
 
        Potential amp.        0.0677 Ry
        Total length         46.8051 bohr
 

     total cpu time spent up to now is      301.6 secs

     total energy              =   -1628.46419957 Ry
     Harris-Foulkes estimate   =   -1628.53167841 Ry
     estimated scf accuracy    <       0.84037413 Ry

     iteration # 12     ecut=    36.75 Ry     beta=0.30
     Davidson diagonalization with overlap
     ethr =  5.25E-04,  avg # of iterations =  1.6

     negative rho (up, down):  2.497E-02 0.000E+00
 
     Adding external electric field

     Computed dipole along edir(3) : 
        Dipole               -0.3787 Ry au,         -0.9626 Debye
        Dipole field         -0.0007 Ry au
 
        Potential amp.        0.0685 Ry
        Total length         46.8051 bohr
 

     total cpu time spent up to now is      314.0 secs

     total energy              =   -1628.47460383 Ry
     Harris-Foulkes estimate   =   -1628.48272494 Ry
     estimated scf accuracy    <       0.10990284 Ry

     iteration # 13     ecut=    36.75 Ry     beta=0.30
     Davidson diagonalization with overlap
     ethr =  6.87E-05,  avg # of iterations =  4.2

     negative rho (up, down):  1.489E-02 0.000E+00
 
     Adding external electric field

     Computed dipole along edir(3) : 
        Dipole               -0.4702 Ry au,         -1.1951 Debye
        Dipole field         -0.0009 Ry au
 
        Potential amp.        0.0851 Ry
        Total length         46.8051 bohr
 

     total cpu time spent up to now is      328.9 secs

     total energy              =   -1628.47516613 Ry
     Harris-Foulkes estimate   =   -1628.47743772 Ry
     estimated scf accuracy    <       0.01067741 Ry

     iteration # 14     ecut=    36.75 Ry     beta=0.30
     Davidson diagonalization with overlap
     ethr =  6.67E-06,  avg # of iterations =  4.0

     negative rho (up, down):  5.759E-03 0.000E+00
 
     Adding external electric field

     Computed dipole along edir(3) : 
        Dipole               -0.4725 Ry au,         -1.2009 Debye
        Dipole field         -0.0009 Ry au
 
        Potential amp.        0.0855 Ry
        Total length         46.8051 bohr
 

     total cpu time spent up to now is      344.8 secs

     total energy              =   -1628.47549978 Ry
     Harris-Foulkes estimate   =   -1628.47592227 Ry
     estimated scf accuracy    <       0.00163579 Ry

     iteration # 15     ecut=    36.75 Ry     beta=0.30
     Davidson diagonalization with overlap
     ethr =  1.02E-06,  avg # of iterations =  3.5

     negative rho (up, down):  2.777E-03 0.000E+00
 
     Adding external electric field

     Computed dipole along edir(3) : 
        Dipole               -0.5164 Ry au,         -1.3125 Debye
        Dipole field         -0.0010 Ry au
 
        Potential amp.        0.0934 Ry
        Total length         46.8051 bohr
 

     total cpu time spent up to now is      358.9 secs

     total energy              =   -1628.47545325 Ry
     Harris-Foulkes estimate   =   -1628.47553111 Ry
     estimated scf accuracy    <       0.00079711 Ry

     iteration # 16     ecut=    36.75 Ry     beta=0.30
     Davidson diagonalization with overlap
     ethr =  4.98E-07,  avg # of iterations =  2.0

     negative rho (up, down):  1.881E-03 0.000E+00
 
     Adding external electric field

     Computed dipole along edir(3) : 
        Dipole               -0.5507 Ry au,         -1.3998 Debye
        Dipole field         -0.0011 Ry au
 
        Potential amp.        0.0996 Ry
        Total length         46.8051 bohr
 

     total cpu time spent up to now is      371.9 secs

     total energy              =   -1628.47547188 Ry
     Harris-Foulkes estimate   =   -1628.47542980 Ry
     estimated scf accuracy    <       0.00025647 Ry

     iteration # 17     ecut=    36.75 Ry     beta=0.30
     Davidson diagonalization with overlap
     ethr =  1.60E-07,  avg # of iterations =  2.0

     negative rho (up, down):  1.360E-03 0.000E+00
 
     Adding external electric field

     Computed dipole along edir(3) : 
        Dipole               -0.5745 Ry au,         -1.4603 Debye
        Dipole field         -0.0011 Ry au
 
        Potential amp.        0.1040 Ry
        Total length         46.8051 bohr
 

     total cpu time spent up to now is      385.7 secs

     total energy              =   -1628.47547458 Ry
     Harris-Foulkes estimate   =   -1628.47544271 Ry
     estimated scf accuracy    <       0.00027427 Ry

     iteration # 18     ecut=    36.75 Ry     beta=0.30
     Davidson diagonalization with overlap
     ethr =  1.60E-07,  avg # of iterations =  2.2

     negative rho (up, down):  1.249E-03 0.000E+00
 
     Adding external electric field

     Computed dipole along edir(3) : 
        Dipole               -0.5757 Ry au,         -1.4632 Debye
        Dipole field         -0.0011 Ry au
 
        Potential amp.        0.1042 Ry
        Total length         46.8051 bohr
 

     total cpu time spent up to now is      398.8 secs

     total energy              =   -1628.47548421 Ry
     Harris-Foulkes estimate   =   -1628.47548585 Ry
     estimated scf accuracy    <       0.00009137 Ry

     iteration # 19     ecut=    36.75 Ry     beta=0.30
     Davidson diagonalization with overlap
     ethr =  5.71E-08,  avg # of iterations =  1.0

     negative rho (up, down):  1.115E-03 0.000E+00

     negative rho (up, down):  1.115E-03 0.000E+00

     negative rho (up, down):  1.115E-03 0.000E+00

     negative rho (up, down):  1.115E-03 0.000E+00

     negative rho (up, down):  1.115E-03 0.000E+00

     negative rho (up, down):  1.115E-03 0.000E+00

     negative rho (up, down):  1.115E-03 0.000E+00

     negative rho (up, down):  1.115E-03 0.000E+00

     negative rho (up, down):  1.115E-03 0.000E+00

     negative rho (up, down):  1.115E-03 0.000E+00

     negative rho (up, down):  1.115E-03 0.000E+00

     negative rho (up, down):  1.115E-03 0.000E+00

     negative rho (up, down):  1.115E-03 0.000E+00

     negative rho (up, down):  1.115E-03 0.000E+00

     negative rho (up, down):  1.115E-03 0.000E+00

     negative rho (up, down):  1.115E-03 0.000E+00

     negative rho (up, down):  1.115E-03 0.000E+00

     negative rho (up, down):  1.115E-03 0.000E+00

     negative rho (up, down):  1.115E-03 0.000E+00

     negative rho (up, down):  1.115E-03 0.000E+00

     negative rho (up, down):  1.115E-03 0.000E+00

     negative rho (up, down):  1.115E-03 0.000E+00

     negative rho (up, down):  1.115E-03 0.000E+00

     negative rho (up, down):  1.115E-03 0.000E+00

     negative rho (up, down):  1.115E-03 0.000E+00

     negative rho (up, down):  1.115E-03 0.000E+00

     negative rho (up, down):  1.115E-03 0.000E+00

     negative rho (up, down):  1.115E-03 0.000E+00

     negative rho (up, down):  1.115E-03 0.000E+00

     negative rho (up, down):  1.115E-03 0.000E+00

     negative rho (up, down):  1.115E-03 0.000E+00

     negative rho (up, down):  1.115E-03 0.000E+00

     negative rho (up, down):  1.115E-03 0.000E+00

     negative rho (up, down):  1.115E-03 0.000E+00

     negative rho (up, down):  1.115E-03 0.000E+00
 
     Adding external electric field

     Computed dipole along edir(3) : 
        Dipole               -0.5730 Ry au,         -1.4564 Debye
        Dipole field         -0.0011 Ry au
 
        Potential amp.        0.1037 Ry
        Total length         46.8051 bohr
 

     total cpu time spent up to now is      435.2 secs

     End of self-consistent calculation

          k = 0.0000 0.0000 0.0000 ( 24345 PWs)   bands (ev):

   -14.9978 -14.9958 -14.9958 -14.9063 -14.9063 -14.8985 -14.8976 -14.8976
   -14.8927 -14.8776 -14.8543 -14.8543 -14.8483 -14.8411 -14.8150 -14.8150
   -14.8080 -14.8064 -14.8064 -14.7840 -14.7840 -14.7690 -14.7690 -14.7616
   -14.7589 -14.7589 -14.7573 -14.7311 -14.7311 -14.7244 -14.6482 -14.6482
   -14.6272 -14.6272 -14.6108 -14.5966 -14.5779 -14.5779 -14.5698 -14.5698
   -14.5412 -14.5412 -14.5284 -14.5197 -14.5197 -14.5168 -14.5003 -14.5003
   -14.4958 -14.4939 -14.4876 -14.4876 -14.4730 -14.4730 -14.4625 -14.4555
   -14.4555 -14.4214 -14.4214 -14.4047  -9.0978  -8.4475  -7.3855  -5.3530
    -4.1745  -4.1745  -4.1653  -3.8982  -3.8982  -3.8939  -2.6957  -2.6957
    -2.6270  -2.3912  -2.3810  -2.3810  -1.8678  -0.9938  -0.9938  -0.7740
    -0.7194  -0.5017  -0.5017   0.6562   0.6562   0.8330   1.5533   2.8773
     2.8773   2.9456

          k = 0.0000 0.0291 0.0000 ( 24403 PWs)   bands (ev):

   -14.9868 -14.9749 -14.9735 -14.9012 -14.8975 -14.8917 -14.8780 -14.8737
   -14.8717 -14.8677 -14.8476 -14.8404 -14.8375 -14.8303 -14.8151 -14.8028
   -14.8027 -14.7981 -14.7958 -14.7868 -14.7768 -14.7764 -14.7671 -14.7574
   -14.7529 -14.7467 -14.7441 -14.7302 -14.7158 -14.7132 -14.6579 -14.6502
   -14.6330 -14.6267 -14.6139 -14.6080 -14.5871 -14.5839 -14.5820 -14.5790
   -14.5545 -14.5465 -14.5383 -14.5328 -14.5269 -14.5268 -14.5153 -14.5099
   -14.5092 -14.5073 -14.4989 -14.4936 -14.4884 -14.4852 -14.4800 -14.4652
   -14.4637 -14.4425 -14.4338 -14.4193  -8.9752  -8.4034  -7.2810  -5.5141
    -5.2395  -4.6989  -4.6857  -4.1896  -3.5685  -3.5485  -2.7739  -2.7450
    -2.5108  -1.7776  -1.7549  -1.7453  -1.7268  -1.2316  -1.1856  -0.8131
    -0.0842  -0.0017   0.3518   0.7872   0.7920   1.1858   1.8056   2.0363
     2.6300   2.7522

          k = 0.0000 0.0582 0.0000 ( 24465 PWs)   bands (ev):

   -14.9596 -14.9209 -14.9193 -14.8886 -14.8776 -14.8676 -14.8633 -14.8414
   -14.8349 -14.8343 -14.8260 -14.8241 -14.8142 -14.8141 -14.8093 -14.7891
   -14.7837 -14.7814 -14.7784 -14.7593 -14.7587 -14.7529 -14.7482 -14.7456
   -14.7306 -14.7237 -14.7169 -14.7143 -14.6921 -14.6769 -14.6703 -14.6455
   -14.6428 -14.6424 -14.6365 -14.6248 -14.6223 -14.6197 -14.6079 -14.5917
   -14.5863 -14.5797 -14.5710 -14.5704 -14.5577 -14.5528 -14.5478 -14.5467
   -14.5390 -14.5371 -14.5286 -14.5251 -14.5133 -14.5082 -14.4919 -14.4912
   -14.4803 -14.4725 -14.4671 -14.4284  -8.6653  -8.2481  -6.9546  -6.7434
    -5.3874  -5.1066  -5.1014  -4.8748  -3.8270  -3.7819  -3.4283  -2.2388
    -2.1680  -1.3861  -1.3284  -1.3175  -0.5209  -0.4533  -0.2352   0.1098
     0.3320   0.4488   0.9321   1.3109   1.3665   1.5256   1.7516   1.9747
     2.1556   2.6881

          k = 0.0000-0.0872 0.0000 ( 24448 PWs)   bands (ev):

   -14.9234 -14.9211 -14.8794 -14.8732 -14.8667 -14.8566 -14.8552 -14.8519
   -14.8228 -14.8187 -14.8180 -14.8047 -14.8020 -14.8005 -14.7951 -14.7887
   -14.7762 -14.7546 -14.7498 -14.7398 -14.7381 -14.7345 -14.7328 -14.7297
   -14.7077 -14.7071 -14.6960 -14.6876 -14.6820 -14.6779 -14.6677 -14.6638
   -14.6609 -14.6548 -14.6354 -14.6311 -14.6268 -14.6245 -14.6226 -14.6195
   -14.6133 -14.6005 -14.5967 -14.5945 -14.5880 -14.5776 -14.5773 -14.5750
   -14.5650 -14.5595 -14.5487 -14.5410 -14.5352 -14.5303 -14.5012 -14.4950
   -14.4858 -14.4793 -14.4694 -14.4294  -8.5074  -7.7669  -7.6587  -6.3951
    -6.2163  -5.2453  -5.2304  -4.3790  -4.2146  -3.9487  -3.8820  -2.2253
    -2.1350  -0.9413  -0.7244  -0.3371  -0.2879  -0.0550   0.0275   0.1125
     0.4086   0.7894   1.1513   1.2268   1.4250   1.5805   2.1590   2.2841
     2.3115   2.5032

          k = 0.0252-0.0145 0.0000 ( 24403 PWs)   bands (ev):

   -14.9868 -14.9749 -14.9735 -14.9012 -14.8975 -14.8917 -14.8780 -14.8737
   -14.8717 -14.8677 -14.8476 -14.8404 -14.8375 -14.8303 -14.8151 -14.8028
   -14.8027 -14.7981 -14.7958 -14.7868 -14.7768 -14.7764 -14.7671 -14.7574
   -14.7529 -14.7467 -14.7441 -14.7302 -14.7157 -14.7132 -14.6579 -14.6502
   -14.6330 -14.6267 -14.6139 -14.6080 -14.5871 -14.5839 -14.5820 -14.5790
   -14.5545 -14.5465 -14.5383 -14.5328 -14.5269 -14.5268 -14.5153 -14.5099
   -14.5092 -14.5073 -14.4989 -14.4936 -14.4884 -14.4852 -14.4800 -14.4652
   -14.4637 -14.4425 -14.4338 -14.4193  -8.9752  -8.4034  -7.2810  -5.5141
    -5.2395  -4.6989  -4.6857  -4.1896  -3.5685  -3.5485  -2.7739  -2.7450
    -2.5108  -1.7776  -1.7549  -1.7453  -1.7268  -1.2316  -1.1856  -0.8131
    -0.0842  -0.0017   0.3518   0.7872   0.7920   1.1858   1.8056   2.0363
     2.6300   2.7522

          k = 0.0252 0.0145 0.0000 ( 24403 PWs)   bands (ev):

   -14.9868 -14.9749 -14.9735 -14.9012 -14.8975 -14.8917 -14.8780 -14.8737
   -14.8717 -14.8677 -14.8476 -14.8404 -14.8375 -14.8303 -14.8151 -14.8028
   -14.8027 -14.7981 -14.7958 -14.7868 -14.7768 -14.7764 -14.7671 -14.7574
   -14.7529 -14.7467 -14.7441 -14.7302 -14.7157 -14.7132 -14.6579 -14.6502
   -14.6330 -14.6267 -14.6139 -14.6080 -14.5871 -14.5839 -14.5820 -14.5790
   -14.5545 -14.5465 -14.5383 -14.5328 -14.5269 -14.5268 -14.5153 -14.5099
   -14.5092 -14.5073 -14.4989 -14.4936 -14.4884 -14.4852 -14.4800 -14.4652
   -14.4637 -14.4425 -14.4338 -14.4193  -8.9752  -8.4034  -7.2810  -5.5141
    -5.2395  -4.6989  -4.6857  -4.1896  -3.5685  -3.5485  -2.7739  -2.7450
    -2.5108  -1.7776  -1.7549  -1.7453  -1.7268  -1.2316  -1.1856  -0.8131
    -0.0842  -0.0017   0.3518   0.7872   0.7920   1.1858   1.8056   2.0363
     2.6300   2.7522

          k = 0.0252 0.0436 0.0000 ( 24482 PWs)   bands (ev):

   -14.9570 -14.9550 -14.9285 -14.8830 -14.8802 -14.8718 -14.8626 -14.8509
   -14.8462 -14.8446 -14.8288 -14.8277 -14.8245 -14.8180 -14.8076 -14.8017
   -14.7922 -14.7882 -14.7850 -14.7660 -14.7643 -14.7596 -14.7582 -14.7445
   -14.7366 -14.7320 -14.7277 -14.7217 -14.6972 -14.6897 -14.6694 -14.6474
   -14.6434 -14.6337 -14.6271 -14.6207 -14.6132 -14.6086 -14.5982 -14.5885
   -14.5802 -14.5732 -14.5605 -14.5557 -14.5484 -14.5412 -14.5365 -14.5346
   -14.5279 -14.5228 -14.5192 -14.5111 -14.5066 -14.4968 -14.4938 -14.4914
   -14.4770 -14.4738 -14.4439 -14.4422  -8.7537  -8.3089  -7.0591  -6.0772
    -6.0501  -5.0317  -4.7417  -4.6539  -3.8040  -3.5027  -2.8571  -2.8215
    -2.3688  -1.9307  -1.4924  -0.8795  -0.8462  -0.5933  -0.3775  -0.1644
     0.1429   0.4324   0.6306   0.8045   1.3063   1.4881   1.8151   2.0206
     2.3979   2.5598

          k = 0.0252-0.1018 0.0000 ( 24479 PWs)   bands (ev):

   -14.9242 -14.8982 -14.8874 -14.8854 -14.8558 -14.8506 -14.8489 -14.8380
   -14.8357 -14.8259 -14.8231 -14.8170 -14.8049 -14.7968 -14.7905 -14.7822
   -14.7754 -14.7686 -14.7520 -14.7420 -14.7399 -14.7345 -14.7298 -14.7244
   -14.7197 -14.7125 -14.7012 -14.6973 -14.6856 -14.6821 -14.6717 -14.6640
   -14.6595 -14.6515 -14.6461 -14.6375 -14.6351 -14.6268 -14.6199 -14.6110
   -14.6040 -14.5996 -14.5936 -14.5898 -14.5791 -14.5751 -14.5680 -14.5617
   -14.5581 -14.5484 -14.5437 -14.5358 -14.5291 -14.5166 -14.5097 -14.4988
   -14.4899 -14.4846 -14.4779 -14.4452  -8.5202  -7.9615  -7.1762  -6.5740
    -6.3379  -5.7738  -4.9809  -4.5319  -3.9095  -3.7921  -3.0677  -2.8408
    -2.1555  -1.1532  -0.9982  -0.5553  -0.3719  -0.0769   0.0646   0.3339
     0.5037   0.8302   0.9949   1.2436   1.3498   1.6275   1.7821   2.2724
     2.4516   2.6869

          k = 0.0252-0.0727 0.0000 ( 24479 PWs)   bands (ev):

   -14.9242 -14.8982 -14.8874 -14.8854 -14.8558 -14.8506 -14.8489 -14.8380
   -14.8357 -14.8259 -14.8231 -14.8170 -14.8049 -14.7968 -14.7905 -14.7822
   -14.7754 -14.7686 -14.7520 -14.7420 -14.7399 -14.7345 -14.7298 -14.7244
   -14.7197 -14.7125 -14.7012 -14.6973 -14.6856 -14.6821 -14.6717 -14.6640
   -14.6595 -14.6515 -14.6461 -14.6375 -14.6351 -14.6268 -14.6199 -14.6110
   -14.6040 -14.5996 -14.5936 -14.5898 -14.5791 -14.5751 -14.5680 -14.5617
   -14.5581 -14.5484 -14.5437 -14.5358 -14.5291 -14.5166 -14.5097 -14.4988
   -14.4899 -14.4846 -14.4779 -14.4452  -8.5202  -7.9615  -7.1762  -6.5740
    -6.3379  -5.7738  -4.9809  -4.5319  -3.9095  -3.7921  -3.0677  -2.8408
    -2.1555  -1.1532  -0.9982  -0.5553  -0.3719  -0.0769   0.0646   0.3339
     0.5037   0.8302   0.9949   1.2436   1.3498   1.6275   1.7821   2.2724
     2.4516   2.6869

          k = 0.0252-0.0436 0.0000 ( 24482 PWs)   bands (ev):

   -14.9570 -14.9550 -14.9285 -14.8830 -14.8802 -14.8718 -14.8626 -14.8509
   -14.8462 -14.8446 -14.8288 -14.8277 -14.8245 -14.8180 -14.8076 -14.8017
   -14.7922 -14.7882 -14.7850 -14.7660 -14.7643 -14.7596 -14.7582 -14.7445
   -14.7366 -14.7320 -14.7277 -14.7217 -14.6972 -14.6897 -14.6694 -14.6474
   -14.6434 -14.6337 -14.6271 -14.6207 -14.6132 -14.6086 -14.5982 -14.5885
   -14.5802 -14.5732 -14.5605 -14.5557 -14.5484 -14.5412 -14.5365 -14.5346
   -14.5279 -14.5228 -14.5192 -14.5111 -14.5066 -14.4968 -14.4938 -14.4914
   -14.4770 -14.4738 -14.4439 -14.4422  -8.7537  -8.3089  -7.0591  -6.0772
    -6.0501  -5.0317  -4.7417  -4.6539  -3.8040  -3.5027  -2.8571  -2.8215
    -2.3688  -1.9307  -1.4924  -0.8795  -0.8462  -0.5933  -0.3775  -0.1644
     0.1429   0.4324   0.6306   0.8045   1.3063   1.4881   1.8151   2.0206
     2.3979   2.5598

          k = 0.0504-0.0291 0.0000 ( 24465 PWs)   bands (ev):

   -14.9596 -14.9209 -14.9193 -14.8886 -14.8776 -14.8676 -14.8633 -14.8414
   -14.8350 -14.8343 -14.8260 -14.8241 -14.8142 -14.8141 -14.8093 -14.7891
   -14.7837 -14.7814 -14.7784 -14.7593 -14.7587 -14.7529 -14.7482 -14.7456
   -14.7306 -14.7237 -14.7169 -14.7143 -14.6921 -14.6769 -14.6703 -14.6455
   -14.6428 -14.6424 -14.6365 -14.6248 -14.6223 -14.6197 -14.6079 -14.5917
   -14.5863 -14.5797 -14.5710 -14.5704 -14.5577 -14.5528 -14.5478 -14.5467
   -14.5390 -14.5371 -14.5286 -14.5251 -14.5133 -14.5082 -14.4919 -14.4912
   -14.4803 -14.4725 -14.4671 -14.4284  -8.6653  -8.2481  -6.9546  -6.7434
    -5.3874  -5.1066  -5.1014  -4.8748  -3.8270  -3.7819  -3.4283  -2.2388
    -2.1680  -1.3861  -1.3284  -1.3175  -0.5209  -0.4533  -0.2352   0.1098
     0.3320   0.4488   0.9321   1.3109   1.3665   1.5256   1.7516   1.9747
     2.1556   2.6880

          k = 0.0504 0.0000 0.0000 ( 24482 PWs)   bands (ev):

   -14.9570 -14.9550 -14.9285 -14.8830 -14.8802 -14.8718 -14.8626 -14.8509
   -14.8462 -14.8446 -14.8288 -14.8277 -14.8245 -14.8180 -14.8076 -14.8017
   -14.7922 -14.7882 -14.7850 -14.7660 -14.7643 -14.7596 -14.7582 -14.7445
   -14.7366 -14.7320 -14.7277 -14.7217 -14.6972 -14.6897 -14.6694 -14.6474
   -14.6434 -14.6337 -14.6271 -14.6207 -14.6132 -14.6086 -14.5982 -14.5885
   -14.5802 -14.5732 -14.5605 -14.5557 -14.5484 -14.5412 -14.5365 -14.5346
   -14.5279 -14.5228 -14.5192 -14.5111 -14.5066 -14.4968 -14.4938 -14.4914
   -14.4770 -14.4738 -14.4439 -14.4422  -8.7537  -8.3089  -7.0591  -6.0772
    -6.0501  -5.0317  -4.7417  -4.6539  -3.8040  -3.5027  -2.8571  -2.8215
    -2.3688  -1.9307  -1.4924  -0.8795  -0.8462  -0.5933  -0.3775  -0.1644
     0.1429   0.4324   0.6306   0.8045   1.3063   1.4881   1.8151   2.0206
     2.3979   2.5598

          k = 0.0504 0.0291 0.0000 ( 24465 PWs)   bands (ev):

   -14.9596 -14.9209 -14.9193 -14.8886 -14.8776 -14.8676 -14.8633 -14.8414
   -14.8349 -14.8343 -14.8260 -14.8241 -14.8142 -14.8141 -14.8093 -14.7891
   -14.7837 -14.7814 -14.7784 -14.7593 -14.7587 -14.7529 -14.7482 -14.7456
   -14.7306 -14.7237 -14.7169 -14.7143 -14.6921 -14.6769 -14.6703 -14.6455
   -14.6428 -14.6424 -14.6365 -14.6248 -14.6223 -14.6197 -14.6079 -14.5917
   -14.5863 -14.5797 -14.5710 -14.5704 -14.5577 -14.5528 -14.5478 -14.5467
   -14.5390 -14.5371 -14.5286 -14.5251 -14.5133 -14.5082 -14.4919 -14.4912
   -14.4803 -14.4725 -14.4671 -14.4284  -8.6653  -8.2481  -6.9546  -6.7434
    -5.3874  -5.1066  -5.1014  -4.8748  -3.8270  -3.7819  -3.4283  -2.2388
    -2.1680  -1.3861  -1.3284  -1.3175  -0.5209  -0.4533  -0.2352   0.1098
     0.3320   0.4488   0.9321   1.3109   1.3665   1.5256   1.7516   1.9747
     2.1556   2.6881

          k = 0.0504-0.1163 0.0000 ( 24479 PWs)   bands (ev):

   -14.9242 -14.8982 -14.8874 -14.8854 -14.8558 -14.8506 -14.8489 -14.8380
   -14.8357 -14.8259 -14.8231 -14.8170 -14.8049 -14.7968 -14.7905 -14.7822
   -14.7754 -14.7686 -14.7520 -14.7420 -14.7399 -14.7345 -14.7298 -14.7244
   -14.7197 -14.7125 -14.7012 -14.6973 -14.6856 -14.6821 -14.6717 -14.6640
   -14.6595 -14.6515 -14.6461 -14.6375 -14.6351 -14.6268 -14.6199 -14.6110
   -14.6040 -14.5996 -14.5936 -14.5898 -14.5791 -14.5751 -14.5680 -14.5617
   -14.5581 -14.5484 -14.5437 -14.5358 -14.5291 -14.5166 -14.5097 -14.4988
   -14.4899 -14.4846 -14.4779 -14.4452  -8.5202  -7.9615  -7.1762  -6.5740
    -6.3379  -5.7738  -4.9809  -4.5319  -3.9095  -3.7921  -3.0677  -2.8408
    -2.1555  -1.1532  -0.9982  -0.5553  -0.3719  -0.0769   0.0646   0.3339
     0.5037   0.8302   0.9949   1.2436   1.3498   1.6275   1.7821   2.2724
     2.4516   2.6869

          k = 0.0504-0.0872 0.0000 ( 24486 PWs)   bands (ev):

   -14.8804 -14.8780 -14.8700 -14.8660 -14.8571 -14.8554 -14.8532 -14.8523
   -14.8313 -14.8278 -14.8269 -14.8252 -14.7810 -14.7754 -14.7742 -14.7628
   -14.7617 -14.7525 -14.7449 -14.7333 -14.7324 -14.7289 -14.7286 -14.7266
   -14.7138 -14.7135 -14.7098 -14.6975 -14.6828 -14.6788 -14.6726 -14.6721
   -14.6663 -14.6579 -14.6547 -14.6480 -14.6460 -14.6451 -14.6290 -14.6265
   -14.6125 -14.5936 -14.5921 -14.5913 -14.5841 -14.5832 -14.5750 -14.5747
   -14.5608 -14.5530 -14.5481 -14.5378 -14.5237 -14.5210 -14.5208 -14.5194
   -14.4890 -14.4889 -14.4848 -14.4754  -8.4755  -7.3487  -7.3400  -7.2454
    -5.9867  -5.9722  -5.7709  -3.9931  -3.9897  -3.7827  -2.8085  -2.5149
    -2.5076  -0.7937  -0.7583  -0.7007  -0.4637  -0.4119  -0.3688   0.4699
     0.5394   0.7650   1.3771   1.4449   1.6872   2.3084   2.3192   2.5444
     2.8686   2.8754

          k = 0.0504-0.0582 0.0000 ( 24479 PWs)   bands (ev):

   -14.9242 -14.8982 -14.8874 -14.8854 -14.8558 -14.8506 -14.8489 -14.8380
   -14.8357 -14.8259 -14.8231 -14.8170 -14.8049 -14.7968 -14.7905 -14.7822
   -14.7754 -14.7686 -14.7520 -14.7420 -14.7399 -14.7345 -14.7298 -14.7244
   -14.7197 -14.7125 -14.7012 -14.6973 -14.6856 -14.6821 -14.6717 -14.6640
   -14.6595 -14.6515 -14.6461 -14.6375 -14.6351 -14.6268 -14.6199 -14.6110
   -14.6040 -14.5996 -14.5936 -14.5898 -14.5791 -14.5751 -14.5680 -14.5617
   -14.5581 -14.5484 -14.5437 -14.5358 -14.5291 -14.5166 -14.5097 -14.4988
   -14.4899 -14.4846 -14.4779 -14.4452  -8.5202  -7.9615  -7.1762  -6.5740
    -6.3379  -5.7738  -4.9809  -4.5319  -3.9095  -3.7921  -3.0677  -2.8408
    -2.1555  -1.1532  -0.9982  -0.5553  -0.3719  -0.0769   0.0646   0.3339
     0.5037   0.8302   0.9949   1.2436   1.3498   1.6275   1.7821   2.2724
     2.4516   2.6870

          k =-0.0756 0.0436 0.0000 ( 24448 PWs)   bands (ev):

   -14.9234 -14.9211 -14.8794 -14.8732 -14.8667 -14.8566 -14.8552 -14.8519
   -14.8228 -14.8187 -14.8180 -14.8047 -14.8020 -14.8005 -14.7951 -14.7887
   -14.7762 -14.7546 -14.7498 -14.7398 -14.7381 -14.7345 -14.7328 -14.7297
   -14.7077 -14.7071 -14.6960 -14.6876 -14.6820 -14.6779 -14.6677 -14.6638
   -14.6609 -14.6548 -14.6354 -14.6311 -14.6268 -14.6245 -14.6226 -14.6195
   -14.6133 -14.6005 -14.5967 -14.5945 -14.5879 -14.5776 -14.5773 -14.5750
   -14.5650 -14.5595 -14.5487 -14.5410 -14.5352 -14.5303 -14.5012 -14.4950
   -14.4858 -14.4793 -14.4694 -14.4294  -8.5074  -7.7669  -7.6587  -6.3951
    -6.2163  -5.2453  -5.2304  -4.3790  -4.2146  -3.9487  -3.8820  -2.2253
    -2.1350  -0.9413  -0.7244  -0.3371  -0.2879  -0.0550   0.0275   0.1125
     0.4086   0.7894   1.1513   1.2268   1.4250   1.5805   2.1590   2.2841
     2.3115   2.5032

          k =-0.0756 0.0727 0.0000 ( 24479 PWs)   bands (ev):

   -14.9242 -14.8982 -14.8874 -14.8854 -14.8558 -14.8506 -14.8489 -14.8380
   -14.8357 -14.8259 -14.8231 -14.8170 -14.8049 -14.7968 -14.7905 -14.7822
   -14.7754 -14.7686 -14.7520 -14.7420 -14.7399 -14.7345 -14.7298 -14.7244
   -14.7197 -14.7125 -14.7012 -14.6973 -14.6856 -14.6821 -14.6717 -14.6640
   -14.6595 -14.6515 -14.6461 -14.6375 -14.6351 -14.6268 -14.6199 -14.6110
   -14.6040 -14.5996 -14.5936 -14.5898 -14.5791 -14.5751 -14.5680 -14.5617
   -14.5581 -14.5484 -14.5437 -14.5358 -14.5291 -14.5166 -14.5097 -14.4988
   -14.4899 -14.4846 -14.4779 -14.4452  -8.5202  -7.9615  -7.1762  -6.5740
    -6.3379  -5.7738  -4.9809  -4.5319  -3.9095  -3.7921  -3.0677  -2.8408
    -2.1555  -1.1532  -0.9982  -0.5553  -0.3719  -0.0769   0.0646   0.3339
     0.5037   0.8302   0.9949   1.2436   1.3498   1.6275   1.7821   2.2724
     2.4516   2.6869

          k =-0.0756 0.1018 0.0000 ( 24479 PWs)   bands (ev):

   -14.9242 -14.8982 -14.8874 -14.8854 -14.8558 -14.8506 -14.8489 -14.8380
   -14.8357 -14.8259 -14.8231 -14.8170 -14.8049 -14.7968 -14.7905 -14.7822
   -14.7754 -14.7686 -14.7520 -14.7420 -14.7399 -14.7345 -14.7298 -14.7244
   -14.7197 -14.7125 -14.7012 -14.6973 -14.6856 -14.6821 -14.6717 -14.6640
   -14.6595 -14.6515 -14.6461 -14.6375 -14.6351 -14.6268 -14.6199 -14.6110
   -14.6040 -14.5996 -14.5936 -14.5898 -14.5791 -14.5751 -14.5680 -14.5617
   -14.5581 -14.5484 -14.5437 -14.5358 -14.5291 -14.5166 -14.5097 -14.4988
   -14.4899 -14.4846 -14.4779 -14.4452  -8.5202  -7.9615  -7.1762  -6.5740
    -6.3379  -5.7738  -4.9809  -4.5319  -3.9095  -3.7921  -3.0677  -2.8408
    -2.1555  -1.1532  -0.9982  -0.5553  -0.3719  -0.0769   0.0646   0.3339
     0.5037   0.8302   0.9949   1.2436   1.3498   1.6275   1.7821   2.2724
     2.4516   2.6869

          k =-0.0756-0.0436 0.0000 ( 24448 PWs)   bands (ev):

   -14.9234 -14.9211 -14.8794 -14.8732 -14.8667 -14.8566 -14.8552 -14.8519
   -14.8228 -14.8187 -14.8180 -14.8047 -14.8020 -14.8005 -14.7951 -14.7887
   -14.7762 -14.7546 -14.7498 -14.7398 -14.7381 -14.7345 -14.7328 -14.7297
   -14.7077 -14.7071 -14.6960 -14.6876 -14.6820 -14.6779 -14.6677 -14.6638
   -14.6609 -14.6548 -14.6354 -14.6311 -14.6268 -14.6245 -14.6226 -14.6195
   -14.6133 -14.6005 -14.5967 -14.5945 -14.5880 -14.5776 -14.5773 -14.5750
   -14.5650 -14.5595 -14.5487 -14.5410 -14.5352 -14.5303 -14.5012 -14.4950
   -14.4858 -14.4793 -14.4694 -14.4294  -8.5074  -7.7669  -7.6587  -6.3951
    -6.2163  -5.2453  -5.2304  -4.3790  -4.2146  -3.9487  -3.8820  -2.2253
    -2.1350  -0.9413  -0.7244  -0.3371  -0.2879  -0.0550   0.0275   0.1125
     0.4086   0.7894   1.1513   1.2268   1.4250   1.5805   2.1590   2.2841
     2.3115   2.5032

     the Fermi energy is     0.1735 ev

!    total energy              =   -1628.47548736 Ry
     Harris-Foulkes estimate   =   -1628.47549256 Ry
     estimated scf accuracy    <       0.00000038 Ry

     The total energy is the sum of the following terms:

     one-electron contribution =   -9288.63630200 Ry
     hartree contribution      =    4723.24140693 Ry
     xc contribution           =    -472.76795556 Ry
     ewald contribution        =    3409.73034682 Ry
     electric field correction =       0.00063455 Ry
     smearing contrib. (-TS)   =      -0.04361811 Ry

     convergence has been achieved in  19 iterations
 
 BEEF-vdW xc energy contributions
           1 :   -414.051129933894     
           2 :    378.378244793932     
           3 :   -318.180851601618     
           4 :    250.420441030705     
           5 :   -190.562230532647     
           6 :    146.976379720838     
           7 :   -119.359830356309     
           8 :    101.333096486436     
           9 :   -85.3133198825310     
          10 :    66.8204469160572     
          11 :   -46.0849447900137     
          12 :    26.6186785215643     
          13 :   -12.1781342221634     
          14 :    4.21755668791582     
          15 :   -1.26145687372116     
          16 :   0.194556780029529     
          17 :    1.68968550720547     
          18 :   -5.28207487357145     
          19 :    9.62909071648653     
          20 :   -13.0311793636423     
          21 :    14.3560225355313     
          22 :   -13.6989134235397     
          23 :    12.1061555084777     
          24 :   -10.7436838461699     
          25 :    10.1772754528101     
          26 :   -10.2165650347609     
          27 :    10.2906263729877     
          28 :   -9.96606244825307     
          29 :    9.20792254133676     
          30 :   -8.26674701468801     
          31 :   -37.6906763181850     
          32 :   -27.3641351527608     

     Forces acting on atoms (Ry/au):


     negative rho (up, down):  1.115E-03 0.000E+00
     atom    1 type  1   force =     0.00146235    0.00084371   -0.01030475
     atom    2 type  1   force =    -0.00146252    0.00084466   -0.01030338
     atom    3 type  1   force =     0.00000120   -0.00168763   -0.01030177
     atom    4 type  1   force =    -0.00000036    0.00000029   -0.00780497
     atom    5 type  1   force =     0.00000017   -0.00039486    0.00151109
     atom    6 type  1   force =    -0.00000073    0.00000044    0.00389522
     atom    7 type  1   force =     0.00034177    0.00019659    0.00151144
     atom    8 type  1   force =    -0.00034153    0.00019645    0.00151157
     atom    9 type  1   force =    -0.00000071    0.00000048    0.01281525
     atom   10 type  1   force =     0.00000006    0.00939042    0.03745814
     atom   11 type  1   force =     0.00813231   -0.00469581    0.03745686
     atom   12 type  1   force =    -0.00813201   -0.00469481    0.03745806
     atom   13 type  2   force =     0.00000001    0.00000007   -0.09490276

     Total force =     0.118554     Total SCF correction =     0.003241


     entering subroutine stress ...


     negative rho (up, down):  1.115E-03 0.000E+00
          total   stress  (Ry/bohr**3)                   (kbar)     P=    3.26
   0.00003812  -0.00000000   0.00000000          5.61     -0.00      0.00
  -0.00000000   0.00003812   0.00000000         -0.00      5.61      0.00
   0.00000000   0.00000000  -0.00000973          0.00      0.00     -1.43

 !ASE

     Writing output data file calc.save
 
     init_run     :      5.70s CPU      8.66s WALL (       1 calls)
     electrons    :    309.16s CPU    426.38s WALL (       1 calls)
     forces       :      2.80s CPU      3.12s WALL (       1 calls)
     stress       :      8.55s CPU      9.62s WALL (       1 calls)

     Called by init_run:
     wfcinit      :      3.40s CPU      5.57s WALL (       1 calls)
     potinit      :      0.75s CPU      1.12s WALL (       1 calls)

     Called by electrons:
     c_bands      :    245.09s CPU    335.15s WALL (      19 calls)
     sum_band     :     29.77s CPU     42.71s WALL (      19 calls)
     v_of_rho     :     10.62s CPU     16.37s WALL (      20 calls)
     newd         :      8.85s CPU      9.34s WALL (      20 calls)
     mix_rho      :      0.40s CPU      0.57s WALL (      19 calls)
     vdW_energy   :      4.31s CPU      4.97s WALL (      56 calls)
     vdW_ffts     :     11.74s CPU     20.62s WALL (     114 calls)
     vdW_v        :      2.99s CPU      4.30s WALL (      56 calls)

     Called by c_bands:
     init_us_2    :      1.52s CPU      1.53s WALL (     820 calls)
     cegterg      :    237.68s CPU    327.60s WALL (     380 calls)

     Called by *egterg:
     h_psi        :    122.99s CPU    202.78s WALL (    2082 calls)
     s_psi        :     11.69s CPU     11.77s WALL (    2082 calls)
     g_psi        :      1.05s CPU      1.08s WALL (    1682 calls)
     cdiaghg      :     55.71s CPU     56.50s WALL (    2062 calls)

     Called by h_psi:
     add_vuspsi   :     11.85s CPU     11.94s WALL (    2082 calls)

     General routines
     calbec       :     16.21s CPU     18.57s WALL (    2502 calls)
     fft          :     17.62s CPU     31.38s WALL (    3423 calls)
     ffts         :      0.04s CPU      0.07s WALL (      39 calls)
     fftw         :    100.31s CPU    190.27s WALL (  262576 calls)
     interpolate  :      0.23s CPU      0.42s WALL (      39 calls)
     davcio       :      0.02s CPU      0.20s WALL (      20 calls)
 
     Parallel routines
     fft_scatter  :     79.69s CPU    180.77s WALL (  266038 calls)
 
     PWSCF        :  5m26.74s CPU     7m28.86s WALL

 
   This run was terminated on:   4:36:42  18Jan2018            

=------------------------------------------------------------------------------=
   JOB DONE.
=------------------------------------------------------------------------------=
Job  /afs/slac/g/suncat/bin/suncat-tsmpirun -x LD_LIBRARY_PATH -wdir /scratch/qe842449_J6g3r pw.x -in pw.inp

TID   HOST_NAME   COMMAND_LINE            STATUS            TERMINATION_TIME
===== ========== ================  =======================  ===================
00000 suncat2070 pw.x -in pw.inp   Done                     01/18/2018 04:36:42
00001 suncat2070 pw.x -in pw.inp   Done                     01/18/2018 04:36:42
00002 suncat2070 pw.x -in pw.inp   Done                     01/18/2018 04:36:42
00003 suncat2070 pw.x -in pw.inp   Done                     01/18/2018 04:36:42
00004 suncat2070 pw.x -in pw.inp   Done                     01/18/2018 04:36:42
00005 suncat2070 pw.x -in pw.inp   Done                     01/18/2018 04:36:42
00006 suncat2070 pw.x -in pw.inp   Done                     01/18/2018 04:36:42
00007 suncat2070 pw.x -in pw.inp   Done                     01/18/2018 04:36:42
00008 suncat2070 pw.x -in pw.inp   Done                     01/18/2018 04:36:42
00009 suncat2070 pw.x -in pw.inp   Done                     01/18/2018 04:36:42
00010 suncat2070 pw.x -in pw.inp   Done                     01/18/2018 04:36:42
00011 suncat2070 pw.x -in pw.inp   Done                     01/18/2018 04:36:42
00012 suncat2070 pw.x -in pw.inp   Done                     01/18/2018 04:36:42
00013 suncat2070 pw.x -in pw.inp   Done                     01/18/2018 04:36:42
00014 suncat2070 pw.x -in pw.inp   Done                     01/18/2018 04:36:42
00015 suncat2070 pw.x -in pw.inp   Done                     01/18/2018 04:36:42
00016 suncat2062 pw.x -in pw.inp   Done                     01/18/2018 04:36:42
00017 suncat2062 pw.x -in pw.inp   Done                     01/18/2018 04:36:42
00018 suncat2062 pw.x -in pw.inp   Done                     01/18/2018 04:36:42
00019 suncat2062 pw.x -in pw.inp   Done                     01/18/2018 04:36:42
00020 suncat2062 pw.x -in pw.inp   Done                     01/18/2018 04:36:42
00021 suncat2062 pw.x -in pw.inp   Done                     01/18/2018 04:36:42
00022 suncat2062 pw.x -in pw.inp   Done                     01/18/2018 04:36:42
00023 suncat2062 pw.x -in pw.inp   Done                     01/18/2018 04:36:42
00024 suncat2062 pw.x -in pw.inp   Done                     01/18/2018 04:36:42
00025 suncat2062 pw.x -in pw.inp   Done                     01/18/2018 04:36:42
00026 suncat2062 pw.x -in pw.inp   Done                     01/18/2018 04:36:42
00027 suncat2062 pw.x -in pw.inp   Done                     01/18/2018 04:36:42
00028 suncat2062 pw.x -in pw.inp   Done                     01/18/2018 04:36:42
00029 suncat2062 pw.x -in pw.inp   Done                     01/18/2018 04:36:42
00030 suncat2062 pw.x -in pw.inp   Done                     01/18/2018 04:36:42
00031 suncat2062 pw.x -in pw.inp   Done                     01/18/2018 04:36:42

     Program PWSCF v.5.1rc2 (svn rev. 11289) starts on 18Jan2018 at  4:36:47 

     This program is part of the open-source Quantum ESPRESSO suite
     for quantum simulation of materials; please cite
         "P. Giannozzi et al., J. Phys.:Condens. Matter 21 395502 (2009);
          URL http://www.quantum-espresso.org", 
     in publications or presentations arising from this work. More details at
     http://www.quantum-espresso.org/quote

     Parallel version (MPI), running on    32 processors
     R & G space division:  proc/nbgrp/npool/nimage =      32
     Reading input from pw.inp
     Message from routine read_cards :
     DEPRECATED: no units specified in CELL_PARAMETERS card

     Current dimensions of program PWSCF are:
     Max number of different atomic species (ntypx) = 10
     Max number of k-points (npk) =  40000
     Max angular momentum in pseudopotentials (lmaxx) =  3
     Presently stress not available with electric field


     **************************************************************************
     Initializing libbeef V0.1.1 with the BEEF-vdW functional.
     Citation: Wellendorff et al., PRB 85, 235149 (2012).
     **************************************************************************


     IMPORTANT: XC functional enforced from input :
     Exchange-correlation      = BEEF-VDW ( 1  4 27 13 2)
     Any further DFT definition will be discarded
     Please, verify this is what you really want


     Subspace diagonalization in iterative solution of the eigenvalue problem:
     a serial algorithm will be used

 
     Parallelization info
     --------------------
     sticks:   dense  smooth     PW     G-vecs:    dense   smooth      PW
     Min         123      49     14                24159     6095     922
     Max         124      50     15                24174     6130     942
     Sum        3949    1585    451               773273   195593   29841
 


     bravais-lattice index     =            0
     lattice parameter (alat)  =       1.8897  a.u.
     unit-cell volume          =    6501.5726 (a.u.)^3
     number of atoms/cell      =           13
     number of atomic types    =            2
     number of electrons       =       160.00
     number of Kohn-Sham states=           90
     kinetic-energy cutoff     =      36.7493  Ry
     charge density cutoff     =     367.4932  Ry
     convergence threshold     =      1.0E-05
     mixing beta               =       0.3000
     number of iterations used =           10  plain     mixing
     Exchange-correlation      = BEEF-VDW ( 1  4 27 13 2)
     nstep                     =           50


     celldm(1)=   1.889726  celldm(2)=   0.000000  celldm(3)=   0.000000
     celldm(4)=   0.000000  celldm(5)=   0.000000  celldm(6)=   0.000000

     crystal axes: (cart. coord. in units of alat)
               a(1) = (   6.617606   0.000000   0.000000 )  
               a(2) = (   3.308803   5.731015   0.000000 )  
               a(3) = (   0.000000   0.000000  25.403253 )  

     reciprocal axes: (cart. coord. in units 2 pi/alat)
               b(1) = (  0.151112 -0.087245  0.000000 )  
               b(2) = (  0.000000  0.174489  0.000000 )  
               b(3) = (  0.000000  0.000000  0.039365 )  


     PseudoPot. # 1 for In read from file:
     /afs/slac.stanford.edu/u/if/mamunm/psp/gbrv1.5pbe/In.UPF
     MD5 check sum: 90777abd96fbb83f2e67db2a40c566b9
     Pseudo is Ultrasoft + core correction, Zval = 13.0
     Generated by new atomic code, or converted to UPF format
     Using radial grid of  889 points,  6 beta functions with: 
                l(1) =   0
                l(2) =   0
                l(3) =   1
                l(4) =   1
                l(5) =   2
                l(6) =   2
     Q(r) pseudized with  6 coefficients,  rinner =    1.400   1.400   1.400
                                                       1.400   1.400

     PseudoPot. # 2 for C  read from file:
     /afs/slac.stanford.edu/u/if/mamunm/psp/gbrv1.5pbe/C.UPF
     MD5 check sum: d1aef80898a10debaa0f26306b886e00
     Pseudo is Ultrasoft + core correction, Zval =  4.0
     Generated by new atomic code, or converted to UPF format
     Using radial grid of  721 points,  4 beta functions with: 
                l(1) =   0
                l(2) =   0
                l(3) =   1
                l(4) =   1
     Q(r) pseudized with  8 coefficients,  rinner =    1.100   1.100   1.100


     vdW kernel table read from file vdW_kernel_table
     MD5 check sum: 095c7af220d748ca6e76c0b4c6cfb241

     atomic species   valence    mass     pseudopotential
        In1           13.00   114.81800     In( 1.00)
        C1             4.00    12.01100     C ( 1.00)

     No symmetry found



   Cartesian axes

     site n.     atom                  positions (alat units)
         1           In1 tau(   1) = (   1.6544016   0.9551692  10.0000000  )
         2           In1 tau(   2) = (   4.9632047   0.9551692  10.0000000  )
         3           In1 tau(   3) = (   3.3088031   3.8206768  10.0000000  )
         4           In1 tau(   4) = (   6.6176063   3.8206768  10.0000000  )
         5           In1 tau(   5) = (   6.6176063   1.9103384  12.7016265  )
         6           In1 tau(   6) = (   3.3088031   1.9103384  12.7016265  )
         7           In1 tau(   7) = (   8.2720078   4.7758460  12.7016265  )
         8           In1 tau(   8) = (   4.9632047   4.7758460  12.7016265  )
         9           In1 tau(   9) = (   6.6176045   0.0000012  15.4362022  )
        10           In1 tau(  10) = (   3.3088033   0.0241437  15.4995616  )
        11           In1 tau(  11) = (   1.6753106   2.8534342  15.4995584  )
        12           In1 tau(  12) = (   4.9422965   2.8534367  15.4995614  )
        13           C1  tau(  13) = (   3.3088032   1.9103386  17.3392481  )

     number of k points=    20  Fermi-Dirac smearing, width (Ry)=  0.0110
                       cart. coord. in units 2pi/alat
        k(    1) = (   0.0000000   0.0000000   0.0000000), wk =   0.0555556
        k(    2) = (   0.0000000   0.0290815   0.0000000), wk =   0.1111111
        k(    3) = (   0.0000000   0.0581631   0.0000000), wk =   0.1111111
        k(    4) = (   0.0000000  -0.0872446   0.0000000), wk =   0.0555556
        k(    5) = (   0.0251853  -0.0145408   0.0000000), wk =   0.1111111
        k(    6) = (   0.0251853   0.0145408   0.0000000), wk =   0.1111111
        k(    7) = (   0.0251853   0.0436223   0.0000000), wk =   0.1111111
        k(    8) = (   0.0251853  -0.1017853   0.0000000), wk =   0.1111111
        k(    9) = (   0.0251853  -0.0727038   0.0000000), wk =   0.1111111
        k(   10) = (   0.0251853  -0.0436223   0.0000000), wk =   0.1111111
        k(   11) = (   0.0503707  -0.0290815   0.0000000), wk =   0.1111111
        k(   12) = (   0.0503707   0.0000000   0.0000000), wk =   0.1111111
        k(   13) = (   0.0503707   0.0290815   0.0000000), wk =   0.1111111
        k(   14) = (   0.0503707  -0.1163261   0.0000000), wk =   0.1111111
        k(   15) = (   0.0503707  -0.0872446   0.0000000), wk =   0.1111111
        k(   16) = (   0.0503707  -0.0581631   0.0000000), wk =   0.1111111
        k(   17) = (  -0.0755560   0.0436223   0.0000000), wk =   0.0555556
        k(   18) = (  -0.0755560   0.0727038   0.0000000), wk =   0.1111111
        k(   19) = (  -0.0755560   0.1017853   0.0000000), wk =   0.1111111
        k(   20) = (  -0.0755560  -0.0436223   0.0000000), wk =   0.0555556

     Dense  grid:   773273 G-vectors     FFT dimensions: (  80,  80, 300)

     Smooth grid:   195593 G-vectors     FFT dimensions: (  50,  50, 192)

     Largest allocated arrays     est. size (Mb)     dimensions
        Kohn-Sham Wavefunctions         1.12 Mb     (     813,   90)
        NL pseudopotentials             2.78 Mb     (     813,  224)
        Each V/rho on FFT grid          0.98 Mb     (   64000)
        Each G-vector array             0.18 Mb     (   24161)
        G-vector shells                 0.08 Mb     (   10769)
     Largest temporary arrays     est. size (Mb)     dimensions
        Auxiliary wavefunctions         4.47 Mb     (     813,  360)
        Each subspace H/S matrix        1.98 Mb     (     360,  360)
        Each <psi_i|beta_j> matrix      0.31 Mb     (     224,   90)
        Arrays for rho mixing           9.77 Mb     (   64000,   10)

     Initial potential from superposition of free atoms
     Check: negative starting charge=   -0.000200

     starting charge  141.99995, renormalised to  160.00000

     negative rho (up, down):  2.255E-04 0.000E+00


     ************************************************************************
     *
     * You are using vdW-DF for exchange-correlation in this calculation.
     * Please cite the following three references that made this development
     * possible:
     *
     *   M. Dion, H. Rydberg, E. Schroder, D. C. Langreth, and
     *   B. I. Lundqvist, Phys. Rev. Lett. 92, 246401 (2004).
     *
     *   T. Thonhauser, V. R. Cooper, S. Li, A. Puzder, P. Hyldgaard, and
     *   D. C. Langreth, Phys. Rev. B 76, 125112 (2007).
     *
     *   G. Roman-Perez and J. M. Soler, Phys. Rev. Lett. 103, 096102 (2009).
     *
     *
     * If you are using vdW-DF2, please also cite:
     *
     *   K. Lee, E. D. Murray, L. Kong, B. I. Lundqvist, and
     *   D. C. Langreth, Phys. Rev. B 82, 081101(R) (2010).
     *
     *
     * If you are calculating the stress with vdW-DF, please also cite:
     *
     *   R. Sabatini, E. Kucukbenli, B. Kolb, T. Thonhauser, and
     *   S. de Gironcoli, J. Phys.: Condens. Matter 24, 424209 (2012).
     *
     ************************************************************************

     Carrying out vdW-DF run using the following parameters:

     Nqs =      20    Nr_points =    1024   r_max =   100.000
     q_mesh =
               0.00001000     0.04494208     0.09755937     0.15916263
               0.23128650     0.31572767     0.41458969     0.53033537
               0.66584808     0.82450364     1.01025438     1.22772762
               1.48234092     1.78043706     2.12944203     2.53805004
               3.01644009     3.57652955     4.23227104     5.00000000

     Gradients computed in reciprocal space

     ************************************************************************


 
     Adding external electric field

     Computed dipole along edir(3) : 
        Dipole               -4.4175 Ry au,        -11.2283 Debye
        Dipole field         -0.0085 Ry au
 
        Potential amp.        0.7993 Ry
        Total length         46.8051 bohr
 
     Starting wfc are  112 randomized atomic wfcs

     total cpu time spent up to now is        8.1 secs

     Self-consistent Calculation

     iteration #  1     ecut=    36.75 Ry     beta=0.30
     Davidson diagonalization with overlap
     ethr =  1.00E-02,  avg # of iterations =  8.3

     negative rho (up, down):  8.188E-05 0.000E+00
 
     Adding external electric field

     Computed dipole along edir(3) : 
        Dipole               76.6391 Ry au,        194.7972 Debye
        Dipole field          0.1481 Ry au
 
        Potential amp.      -13.8664 Ry
        Total length         46.8051 bohr
 

     total cpu time spent up to now is       39.6 secs

     total energy              =   -1468.95926511 Ry
     Harris-Foulkes estimate   =   -1636.28007410 Ry
     estimated scf accuracy    <     361.19268949 Ry

     iteration #  2     ecut=    36.75 Ry     beta=0.30
     Davidson diagonalization with overlap
     c_bands:  1 eigenvalues not converged
     c_bands:  2 eigenvalues not converged
     c_bands:  3 eigenvalues not converged
     c_bands:  1 eigenvalues not converged
     c_bands:  3 eigenvalues not converged
     c_bands:  2 eigenvalues not converged
     c_bands:  5 eigenvalues not converged
     c_bands:  5 eigenvalues not converged
     c_bands:  3 eigenvalues not converged
     c_bands:  5 eigenvalues not converged
     c_bands:  2 eigenvalues not converged
     ethr =  1.00E-02,  avg # of iterations = 19.7
 
     Adding external electric field

     Computed dipole along edir(3) : 
        Dipole               23.2961 Ry au,         59.2128 Debye
        Dipole field          0.0450 Ry au
 
        Potential amp.       -4.2150 Ry
        Total length         46.8051 bohr
 

     total cpu time spent up to now is      112.1 secs

     total energy              =   -1417.50078128 Ry
     Harris-Foulkes estimate   =   -2171.98793864 Ry
     estimated scf accuracy    <   13404.37528517 Ry

     iteration #  3     ecut=    36.75 Ry     beta=0.30
     Davidson diagonalization with overlap
     ethr =  1.00E-02,  avg # of iterations = 10.4
 
     Adding external electric field

     Computed dipole along edir(3) : 
        Dipole               21.2804 Ry au,         54.0893 Debye
        Dipole field          0.0411 Ry au
 
        Potential amp.       -3.8503 Ry
        Total length         46.8051 bohr
 

     total cpu time spent up to now is      158.0 secs

     total energy              =   -1547.99928723 Ry
     Harris-Foulkes estimate   =   -1733.43793988 Ry
     estimated scf accuracy    <    2201.02530234 Ry

     iteration #  4     ecut=    36.75 Ry     beta=0.30
     Davidson diagonalization with overlap
     ethr =  1.00E-02,  avg # of iterations = 10.2
 
     Adding external electric field

     Computed dipole along edir(3) : 
        Dipole               14.7050 Ry au,         37.3763 Debye
        Dipole field          0.0284 Ry au
 
        Potential amp.       -2.6606 Ry
        Total length         46.8051 bohr
 

     total cpu time spent up to now is      200.8 secs

     total energy              =   -1631.17127027 Ry
     Harris-Foulkes estimate   =   -1639.50461489 Ry
     estimated scf accuracy    <      22.24361165 Ry

     iteration #  5     ecut=    36.75 Ry     beta=0.30
     Davidson diagonalization with overlap
     ethr =  1.00E-02,  avg # of iterations =  2.2
 
     Adding external electric field

     Computed dipole along edir(3) : 
        Dipole               10.8025 Ry au,         27.4571 Debye
        Dipole field          0.0209 Ry au
 
        Potential amp.       -1.9545 Ry
        Total length         46.8051 bohr
 

     total cpu time spent up to now is      215.7 secs

     total energy              =   -1630.06424315 Ry
     Harris-Foulkes estimate   =   -1633.11689281 Ry
     estimated scf accuracy    <      14.81966883 Ry

     iteration #  6     ecut=    36.75 Ry     beta=0.30
     Davidson diagonalization with overlap
     ethr =  9.26E-03,  avg # of iterations =  1.1
 
     Adding external electric field

     Computed dipole along edir(3) : 
        Dipole                7.5536 Ry au,         19.1993 Debye
        Dipole field          0.0146 Ry au
 
        Potential amp.       -1.3667 Ry
        Total length         46.8051 bohr
 

     total cpu time spent up to now is      228.6 secs

     total energy              =   -1628.96596507 Ry
     Harris-Foulkes estimate   =   -1630.61021439 Ry
     estimated scf accuracy    <       7.65372322 Ry

     iteration #  7     ecut=    36.75 Ry     beta=0.30
     Davidson diagonalization with overlap
     ethr =  4.78E-03,  avg # of iterations =  2.2
 
     Adding external electric field

     Computed dipole along edir(3) : 
        Dipole                5.8125 Ry au,         14.7739 Debye
        Dipole field          0.0112 Ry au
 
        Potential amp.       -1.0517 Ry
        Total length         46.8051 bohr
 

     total cpu time spent up to now is      242.8 secs

     total energy              =   -1628.95484949 Ry
     Harris-Foulkes estimate   =   -1629.47757871 Ry
     estimated scf accuracy    <       3.06825847 Ry

     iteration #  8     ecut=    36.75 Ry     beta=0.30
     Davidson diagonalization with overlap
     ethr =  1.92E-03,  avg # of iterations =  1.1
 
     Adding external electric field

     Computed dipole along edir(3) : 
        Dipole                3.0561 Ry au,          7.7678 Debye
        Dipole field          0.0059 Ry au
 
        Potential amp.       -0.5529 Ry
        Total length         46.8051 bohr
 

     total cpu time spent up to now is      256.0 secs

     total energy              =   -1628.64887324 Ry
     Harris-Foulkes estimate   =   -1629.11185640 Ry
     estimated scf accuracy    <       1.03814600 Ry

     iteration #  9     ecut=    36.75 Ry     beta=0.30
     Davidson diagonalization with overlap
     ethr =  6.49E-04,  avg # of iterations =  2.8

     negative rho (up, down):  5.448E-02 0.000E+00
 
     Adding external electric field

     Computed dipole along edir(3) : 
        Dipole               -0.1674 Ry au,         -0.4255 Debye
        Dipole field         -0.0003 Ry au
 
        Potential amp.        0.0303 Ry
        Total length         46.8051 bohr
 

     total cpu time spent up to now is      270.1 secs

     total energy              =   -1628.41873911 Ry
     Harris-Foulkes estimate   =   -1628.72278670 Ry
     estimated scf accuracy    <       1.20745498 Ry

     iteration # 10     ecut=    36.75 Ry     beta=0.30
     Davidson diagonalization with overlap
     ethr =  6.49E-04,  avg # of iterations =  4.5

     negative rho (up, down):  5.251E-02 0.000E+00
 
     Adding external electric field

     Computed dipole along edir(3) : 
        Dipole               -0.1223 Ry au,         -0.3109 Debye
        Dipole field         -0.0002 Ry au
 
        Potential amp.        0.0221 Ry
        Total length         46.8051 bohr
 

     total cpu time spent up to now is      287.8 secs

     total energy              =   -1628.60981455 Ry
     Harris-Foulkes estimate   =   -1628.62338990 Ry
     estimated scf accuracy    <       1.10305657 Ry

     iteration # 11     ecut=    36.75 Ry     beta=0.30
     Davidson diagonalization with overlap
     ethr =  6.49E-04,  avg # of iterations =  1.0

     negative rho (up, down):  4.417E-02 0.000E+00
 
     Adding external electric field

     Computed dipole along edir(3) : 
        Dipole               -0.1609 Ry au,         -0.4090 Debye
        Dipole field         -0.0003 Ry au
 
        Potential amp.        0.0291 Ry
        Total length         46.8051 bohr
 

     total cpu time spent up to now is      301.2 secs

     total energy              =   -1628.54907424 Ry
     Harris-Foulkes estimate   =   -1628.61091200 Ry
     estimated scf accuracy    <       0.92073629 Ry

     iteration # 12     ecut=    36.75 Ry     beta=0.30
     Davidson diagonalization with overlap
     ethr =  5.75E-04,  avg # of iterations =  1.1

     negative rho (up, down):  3.581E-02 0.000E+00
 
     Adding external electric field

     Computed dipole along edir(3) : 
        Dipole               -0.3931 Ry au,         -0.9990 Debye
        Dipole field         -0.0008 Ry au
 
        Potential amp.        0.0711 Ry
        Total length         46.8051 bohr
 

     total cpu time spent up to now is      314.0 secs

     total energy              =   -1628.54039688 Ry
     Harris-Foulkes estimate   =   -1628.56119431 Ry
     estimated scf accuracy    <       0.28099590 Ry

     iteration # 13     ecut=    36.75 Ry     beta=0.30
     Davidson diagonalization with overlap
     ethr =  1.76E-04,  avg # of iterations =  3.5

     negative rho (up, down):  1.143E-02 0.000E+00
 
     Adding external electric field

     Computed dipole along edir(3) : 
        Dipole               -0.2767 Ry au,         -0.7033 Debye
        Dipole field         -0.0005 Ry au
 
        Potential amp.        0.0501 Ry
        Total length         46.8051 bohr
 

     total cpu time spent up to now is      329.0 secs

     total energy              =   -1628.53693479 Ry
     Harris-Foulkes estimate   =   -1628.54706201 Ry
     estimated scf accuracy    <       0.03742127 Ry

     iteration # 14     ecut=    36.75 Ry     beta=0.30
     Davidson diagonalization with overlap
     ethr =  2.34E-05,  avg # of iterations =  5.7

     negative rho (up, down):  7.423E-03 0.000E+00
 
     Adding external electric field

     Computed dipole along edir(3) : 
        Dipole               -0.4076 Ry au,         -1.0360 Debye
        Dipole field         -0.0008 Ry au
 
        Potential amp.        0.0737 Ry
        Total length         46.8051 bohr
 

     total cpu time spent up to now is      347.5 secs

     total energy              =   -1628.53978188 Ry
     Harris-Foulkes estimate   =   -1628.54416163 Ry
     estimated scf accuracy    <       0.02989083 Ry

     iteration # 15     ecut=    36.75 Ry     beta=0.30
     Davidson diagonalization with overlap
     ethr =  1.87E-05,  avg # of iterations =  2.2

     negative rho (up, down):  3.631E-03 0.000E+00
 
     Adding external electric field

     Computed dipole along edir(3) : 
        Dipole               -0.4791 Ry au,         -1.2178 Debye
        Dipole field         -0.0009 Ry au
 
        Potential amp.        0.0867 Ry
        Total length         46.8051 bohr
 

     total cpu time spent up to now is      362.1 secs

     total energy              =   -1628.54146974 Ry
     Harris-Foulkes estimate   =   -1628.54145687 Ry
     estimated scf accuracy    <       0.00022794 Ry

     iteration # 16     ecut=    36.75 Ry     beta=0.30
     Davidson diagonalization with overlap
     ethr =  1.42E-07,  avg # of iterations =  3.6

     negative rho (up, down):  1.483E-03 0.000E+00
 
     Adding external electric field

     Computed dipole along edir(3) : 
        Dipole               -0.5285 Ry au,         -1.3432 Debye
        Dipole field         -0.0010 Ry au
 
        Potential amp.        0.0956 Ry
        Total length         46.8051 bohr
 

     total cpu time spent up to now is      381.2 secs

     total energy              =   -1628.54142000 Ry
     Harris-Foulkes estimate   =   -1628.54142198 Ry
     estimated scf accuracy    <       0.00029774 Ry

     iteration # 17     ecut=    36.75 Ry     beta=0.30
     Davidson diagonalization with overlap
     ethr =  1.42E-07,  avg # of iterations =  3.0

     negative rho (up, down):  1.429E-03 0.000E+00
 
     Adding external electric field

     Computed dipole along edir(3) : 
        Dipole               -0.5357 Ry au,         -1.3616 Debye
        Dipole field         -0.0010 Ry au
 
        Potential amp.        0.0969 Ry
        Total length         46.8051 bohr
 

     total cpu time spent up to now is      396.1 secs

     total energy              =   -1628.54144589 Ry
     Harris-Foulkes estimate   =   -1628.54143809 Ry
     estimated scf accuracy    <       0.00005219 Ry

     iteration # 18     ecut=    36.75 Ry     beta=0.30
     Davidson diagonalization with overlap
     ethr =  3.26E-08,  avg # of iterations =  1.9

     negative rho (up, down):  1.123E-03 0.000E+00

     negative rho (up, down):  1.123E-03 0.000E+00

     negative rho (up, down):  1.123E-03 0.000E+00

     negative rho (up, down):  1.123E-03 0.000E+00

     negative rho (up, down):  1.123E-03 0.000E+00

     negative rho (up, down):  1.123E-03 0.000E+00

     negative rho (up, down):  1.123E-03 0.000E+00

     negative rho (up, down):  1.123E-03 0.000E+00

     negative rho (up, down):  1.123E-03 0.000E+00

     negative rho (up, down):  1.123E-03 0.000E+00

     negative rho (up, down):  1.123E-03 0.000E+00

     negative rho (up, down):  1.123E-03 0.000E+00

     negative rho (up, down):  1.123E-03 0.000E+00

     negative rho (up, down):  1.123E-03 0.000E+00

     negative rho (up, down):  1.123E-03 0.000E+00

     negative rho (up, down):  1.123E-03 0.000E+00

     negative rho (up, down):  1.123E-03 0.000E+00

     negative rho (up, down):  1.123E-03 0.000E+00

     negative rho (up, down):  1.123E-03 0.000E+00

     negative rho (up, down):  1.123E-03 0.000E+00

     negative rho (up, down):  1.123E-03 0.000E+00

     negative rho (up, down):  1.123E-03 0.000E+00

     negative rho (up, down):  1.123E-03 0.000E+00

     negative rho (up, down):  1.123E-03 0.000E+00

     negative rho (up, down):  1.123E-03 0.000E+00

     negative rho (up, down):  1.123E-03 0.000E+00

     negative rho (up, down):  1.123E-03 0.000E+00

     negative rho (up, down):  1.123E-03 0.000E+00

     negative rho (up, down):  1.123E-03 0.000E+00

     negative rho (up, down):  1.123E-03 0.000E+00

     negative rho (up, down):  1.123E-03 0.000E+00

     negative rho (up, down):  1.123E-03 0.000E+00

     negative rho (up, down):  1.123E-03 0.000E+00

     negative rho (up, down):  1.123E-03 0.000E+00

     negative rho (up, down):  1.123E-03 0.000E+00
 
     Adding external electric field

     Computed dipole along edir(3) : 
        Dipole               -0.5299 Ry au,         -1.3469 Debye
        Dipole field         -0.0010 Ry au
 
        Potential amp.        0.0959 Ry
        Total length         46.8051 bohr
 

     total cpu time spent up to now is      433.8 secs

     End of self-consistent calculation

          k = 0.0000 0.0000 0.0000 ( 24345 PWs)   bands (ev):

   -14.9568 -14.9524 -14.9524 -14.8645 -14.8645 -14.8628 -14.8628 -14.8618
   -14.8505 -14.8382 -14.8234 -14.8234 -14.8120 -14.8045 -14.7742 -14.7742
   -14.7739 -14.7688 -14.7688 -14.7510 -14.7510 -14.7373 -14.7373 -14.7161
   -14.7161 -14.7158 -14.7082 -14.6904 -14.6845 -14.6845 -14.6134 -14.6134
   -14.5866 -14.5866 -14.5666 -14.5658 -14.5364 -14.5364 -14.5335 -14.5335
   -14.5073 -14.5073 -14.5052 -14.4885 -14.4885 -14.4866 -14.4699 -14.4641
   -14.4641 -14.4560 -14.4557 -14.4557 -14.4421 -14.4421 -14.4292 -14.4173
   -14.4173 -14.3715 -14.3715 -14.3502  -9.1744  -8.6020  -7.1727  -5.2623
    -4.0796  -4.0796  -4.0790  -3.8151  -3.8151  -3.7985  -2.7949  -2.7949
    -2.5565  -2.3184  -2.3015  -2.3015  -1.7474  -1.1192  -1.1192  -0.8478
    -0.6924  -0.5224  -0.5224   0.8229   0.8229   1.0278   1.6934   2.8612
     2.8612   2.9649

          k = 0.0000 0.0291 0.0000 ( 24403 PWs)   bands (ev):

   -14.9447 -14.9326 -14.9299 -14.8632 -14.8568 -14.8502 -14.8401 -14.8384
   -14.8353 -14.8277 -14.8157 -14.8046 -14.8007 -14.7930 -14.7755 -14.7697
   -14.7687 -14.7624 -14.7545 -14.7522 -14.7394 -14.7366 -14.7318 -14.7161
   -14.7118 -14.7039 -14.7037 -14.6845 -14.6799 -14.6700 -14.6231 -14.6157
   -14.5935 -14.5856 -14.5759 -14.5694 -14.5469 -14.5464 -14.5441 -14.5381
   -14.5208 -14.5127 -14.5126 -14.4979 -14.4956 -14.4940 -14.4832 -14.4798
   -14.4767 -14.4725 -14.4682 -14.4634 -14.4582 -14.4538 -14.4464 -14.4274
   -14.4242 -14.3939 -14.3824 -14.3653  -9.0914  -8.5169  -7.0773  -5.4210
    -5.1587  -4.6034  -4.5817  -4.1166  -3.5413  -3.4738  -2.7674  -2.7038
    -2.5314  -1.7904  -1.7684  -1.6987  -1.6100  -1.2549  -1.2110  -0.8482
    -0.1010  -0.0457   0.4374   0.9062   0.9247   1.2244   2.0150   2.0762
     2.7144   2.9052

          k = 0.0000 0.0582 0.0000 ( 24465 PWs)   bands (ev):

   -14.9180 -14.8780 -14.8748 -14.8527 -14.8363 -14.8286 -14.8220 -14.8054
   -14.7972 -14.7938 -14.7882 -14.7828 -14.7777 -14.7758 -14.7689 -14.7536
   -14.7508 -14.7418 -14.7380 -14.7268 -14.7257 -14.7113 -14.7095 -14.7012
   -14.6951 -14.6865 -14.6842 -14.6723 -14.6587 -14.6379 -14.6365 -14.6104
   -14.6084 -14.6022 -14.6003 -14.5817 -14.5811 -14.5754 -14.5707 -14.5568
   -14.5487 -14.5416 -14.5395 -14.5311 -14.5258 -14.5213 -14.5206 -14.5135
   -14.5062 -14.5035 -14.4975 -14.4944 -14.4815 -14.4666 -14.4570 -14.4527
   -14.4379 -14.4351 -14.4238 -14.3773  -8.9209  -8.2170  -6.8129  -6.6020
[...]
    -5.9022  -5.3128  -4.7630  -4.1476  -3.6266  -3.3553  -3.0563  -2.3272
    -1.8989  -1.3695  -0.8593  -0.6028  -0.0810   0.1496   0.3820   0.7139
     0.9390   1.0136   1.4378   1.7015   1.8222   2.1518   2.4264   2.5476
     2.7686   2.9650

          k = 0.0252-0.0727 0.0000 ( 24479 PWs)   bands (ev):

   -14.7279 -14.6016 -14.5854 -14.5704 -14.5614 -14.5498 -14.5398 -14.5318
   -14.5253 -14.5208 -14.5159 -14.5081 -14.5034 -14.4999 -14.4906 -14.4843
   -14.4825 -14.4707 -14.4637 -14.4627 -14.4548 -14.4471 -14.4424 -14.4356
   -14.4252 -14.4204 -14.4162 -14.4060 -14.4045 -14.3989 -14.3903 -14.3871
   -14.3799 -14.3705 -14.3655 -14.3595 -14.3491 -14.3422 -14.3330 -14.3283
   -14.3203 -14.3102 -14.3072 -14.3023 -14.2921 -14.2871 -14.2788 -14.2743
   -14.2690 -14.2643 -14.2491 -14.2415 -14.2378 -14.2289 -14.2177 -14.2127
   -14.2049 -14.1914 -14.1841 -14.1589  -9.4585  -7.5042  -6.7606  -6.2753
    -5.9022  -5.3128  -4.7631  -4.1475  -3.6267  -3.3553  -3.0564  -2.3272
    -1.8989  -1.3696  -0.8593  -0.6028  -0.0810   0.1496   0.3820   0.7139
     0.9390   1.0136   1.4378   1.7015   1.8222   2.1518   2.4264   2.5476
     2.7686   2.9650

          k = 0.0252-0.0436 0.0000 ( 24482 PWs)   bands (ev):

   -14.8051 -14.6267 -14.6224 -14.6015 -14.5914 -14.5811 -14.5615 -14.5487
   -14.5424 -14.5381 -14.5360 -14.5263 -14.5184 -14.5157 -14.5090 -14.5014
   -14.4954 -14.4831 -14.4801 -14.4733 -14.4649 -14.4616 -14.4604 -14.4567
   -14.4524 -14.4373 -14.4248 -14.4200 -14.4177 -14.4086 -14.3957 -14.3749
   -14.3661 -14.3552 -14.3538 -14.3392 -14.3329 -14.3296 -14.3104 -14.3044
   -14.2918 -14.2873 -14.2831 -14.2676 -14.2600 -14.2549 -14.2503 -14.2400
   -14.2360 -14.2318 -14.2248 -14.2135 -14.2102 -14.2070 -14.2053 -14.1942
   -14.1880 -14.1784 -14.1703 -14.1383  -9.5333  -7.9959  -6.5425  -5.6838
    -5.5001  -5.0620  -4.6542  -3.8036  -3.4180  -3.2775  -2.9371  -2.6848
    -2.4394  -1.5861  -1.0903  -0.7278  -0.5830  -0.3533  -0.2684   0.0362
     0.3120   0.9351   1.1593   1.4067   1.7973   2.0142   2.3060   2.3867
     2.6970   3.2408

          k = 0.0504-0.0291 0.0000 ( 24465 PWs)   bands (ev):

   -14.7846 -14.6273 -14.6007 -14.5891 -14.5883 -14.5632 -14.5576 -14.5510
   -14.5380 -14.5347 -14.5313 -14.5192 -14.5140 -14.5090 -14.4998 -14.4878
   -14.4844 -14.4827 -14.4778 -14.4731 -14.4615 -14.4608 -14.4460 -14.4455
   -14.4387 -14.4284 -14.4265 -14.4167 -14.4119 -14.3997 -14.3970 -14.3769
   -14.3704 -14.3635 -14.3621 -14.3491 -14.3440 -14.3276 -14.3194 -14.3064
   -14.3034 -14.2957 -14.2909 -14.2752 -14.2719 -14.2656 -14.2583 -14.2538
   -14.2419 -14.2418 -14.2352 -14.2307 -14.2232 -14.2167 -14.2137 -14.2071
   -14.1972 -14.1748 -14.1659 -14.1375  -9.5085  -7.8733  -6.6069  -6.1205
    -5.2342  -4.7791  -4.7452  -4.2658  -4.0034  -3.5088  -2.7031  -2.3488
    -2.1299  -1.3224  -0.9152  -0.9091  -0.5360  -0.5175   0.1527   0.5122
     0.9039   1.0280   1.1367   1.5966   1.6871   1.8968   2.2363   2.3974
     2.7676   3.1186

          k = 0.0504 0.0000 0.0000 ( 24482 PWs)   bands (ev):

   -14.8051 -14.6267 -14.6224 -14.6014 -14.5914 -14.5811 -14.5615 -14.5487
   -14.5424 -14.5381 -14.5360 -14.5263 -14.5184 -14.5157 -14.5090 -14.5014
   -14.4954 -14.4831 -14.4801 -14.4733 -14.4649 -14.4616 -14.4604 -14.4567
   -14.4524 -14.4373 -14.4248 -14.4200 -14.4177 -14.4086 -14.3957 -14.3749
   -14.3661 -14.3552 -14.3538 -14.3392 -14.3329 -14.3296 -14.3104 -14.3044
   -14.2918 -14.2873 -14.2831 -14.2676 -14.2600 -14.2549 -14.2503 -14.2400
   -14.2360 -14.2318 -14.2248 -14.2135 -14.2102 -14.2070 -14.2053 -14.1942
   -14.1880 -14.1784 -14.1703 -14.1383  -9.5333  -7.9959  -6.5425  -5.6838
    -5.5001  -5.0620  -4.6543  -3.8036  -3.4181  -3.2775  -2.9371  -2.6848
    -2.4394  -1.5861  -1.0903  -0.7278  -0.5830  -0.3533  -0.2684   0.0362
     0.3120   0.9351   1.1594   1.4066   1.7972   2.0142   2.3060   2.3867
     2.6970   3.2408

          k = 0.0504 0.0291 0.0000 ( 24465 PWs)   bands (ev):

   -14.7846 -14.6273 -14.6007 -14.5891 -14.5883 -14.5632 -14.5576 -14.5510
   -14.5380 -14.5347 -14.5313 -14.5192 -14.5140 -14.5090 -14.4999 -14.4878
   -14.4844 -14.4827 -14.4778 -14.4731 -14.4615 -14.4608 -14.4460 -14.4455
   -14.4387 -14.4284 -14.4264 -14.4167 -14.4119 -14.3997 -14.3970 -14.3769
   -14.3704 -14.3635 -14.3621 -14.3491 -14.3440 -14.3276 -14.3194 -14.3064
   -14.3034 -14.2957 -14.2909 -14.2752 -14.2719 -14.2656 -14.2583 -14.2538
   -14.2419 -14.2418 -14.2352 -14.2307 -14.2232 -14.2167 -14.2137 -14.2071
   -14.1972 -14.1748 -14.1659 -14.1375  -9.5085  -7.8733  -6.6068  -6.1205
    -5.2342  -4.7791  -4.7452  -4.2659  -4.0034  -3.5088  -2.7031  -2.3488
    -2.1299  -1.3224  -0.9152  -0.9091  -0.5360  -0.5175   0.1527   0.5123
     0.9039   1.0280   1.1366   1.5965   1.6871   1.8968   2.2363   2.3974
     2.7676   3.1186

          k = 0.0504-0.1163 0.0000 ( 24479 PWs)   bands (ev):

   -14.7279 -14.6016 -14.5854 -14.5704 -14.5614 -14.5498 -14.5398 -14.5318
   -14.5253 -14.5208 -14.5159 -14.5081 -14.5034 -14.4999 -14.4906 -14.4843
   -14.4825 -14.4707 -14.4637 -14.4627 -14.4548 -14.4471 -14.4424 -14.4356
   -14.4252 -14.4204 -14.4162 -14.4060 -14.4045 -14.3989 -14.3903 -14.3871
   -14.3799 -14.3705 -14.3655 -14.3595 -14.3491 -14.3422 -14.3330 -14.3283
   -14.3203 -14.3102 -14.3072 -14.3023 -14.2921 -14.2871 -14.2788 -14.2743
   -14.2690 -14.2643 -14.2491 -14.2415 -14.2378 -14.2289 -14.2177 -14.2127
   -14.2049 -14.1914 -14.1841 -14.1590  -9.4585  -7.5042  -6.7606  -6.2752
    -5.9022  -5.3128  -4.7630  -4.1475  -3.6267  -3.3553  -3.0564  -2.3272
    -1.8989  -1.3695  -0.8594  -0.6028  -0.0810   0.1496   0.3820   0.7139
     0.9390   1.0136   1.4377   1.7015   1.8222   2.1518   2.4264   2.5476
     2.7686   2.9651

          k = 0.0504-0.0872 0.0000 ( 24486 PWs)   bands (ev):

   -14.6755 -14.6030 -14.5590 -14.5583 -14.5543 -14.5408 -14.5253 -14.5233
   -14.5220 -14.5216 -14.5135 -14.5106 -14.5021 -14.4984 -14.4906 -14.4898
   -14.4718 -14.4634 -14.4591 -14.4518 -14.4468 -14.4448 -14.4273 -14.4264
   -14.4213 -14.4194 -14.4189 -14.4117 -14.3985 -14.3976 -14.3937 -14.3920
   -14.3842 -14.3809 -14.3673 -14.3561 -14.3519 -14.3500 -14.3434 -14.3403
   -14.3371 -14.3244 -14.3105 -14.3091 -14.3060 -14.2978 -14.2892 -14.2816
   -14.2565 -14.2485 -14.2474 -14.2449 -14.2384 -14.2349 -14.2306 -14.2262
   -14.2089 -14.2051 -14.2048 -14.1861  -9.4333  -6.9506  -6.9211  -6.7000
    -6.0219  -5.7688  -4.5929  -4.0923  -4.0158  -2.7747  -2.6365  -2.1947
    -2.1025  -1.6837  -0.6443  -0.6141  -0.2361  -0.0715   0.5711   0.7098
     0.7781   0.9115   2.0422   2.0996   2.3940   2.4531   2.4605   3.0217
     3.0483   3.1430

          k = 0.0504-0.0582 0.0000 ( 24479 PWs)   bands (ev):

   -14.7279 -14.6016 -14.5854 -14.5704 -14.5614 -14.5498 -14.5398 -14.5318
   -14.5253 -14.5208 -14.5159 -14.5081 -14.5034 -14.4999 -14.4906 -14.4843
   -14.4825 -14.4707 -14.4637 -14.4627 -14.4548 -14.4471 -14.4424 -14.4356
   -14.4252 -14.4204 -14.4162 -14.4060 -14.4045 -14.3989 -14.3903 -14.3871
   -14.3799 -14.3705 -14.3655 -14.3595 -14.3491 -14.3422 -14.3330 -14.3283
   -14.3203 -14.3102 -14.3072 -14.3023 -14.2921 -14.2871 -14.2788 -14.2743
   -14.2690 -14.2643 -14.2491 -14.2415 -14.2378 -14.2289 -14.2177 -14.2127
   -14.2049 -14.1914 -14.1841 -14.1590  -9.4585  -7.5042  -6.7606  -6.2752
    -5.9022  -5.3128  -4.7631  -4.1475  -3.6266  -3.3553  -3.0563  -2.3272
    -1.8989  -1.3696  -0.8593  -0.6028  -0.0810   0.1496   0.3820   0.7139
     0.9390   1.0136   1.4377   1.7015   1.8222   2.1518   2.4264   2.5476
     2.7687   2.9651

          k =-0.0756 0.0436 0.0000 ( 24448 PWs)   bands (ev):

   -14.7327 -14.6148 -14.5919 -14.5741 -14.5529 -14.5426 -14.5341 -14.5331
   -14.5278 -14.5221 -14.5142 -14.5047 -14.4989 -14.4982 -14.4930 -14.4878
   -14.4758 -14.4632 -14.4626 -14.4572 -14.4541 -14.4490 -14.4390 -14.4219
   -14.4193 -14.4178 -14.4152 -14.4103 -14.4098 -14.3978 -14.3943 -14.3868
   -14.3756 -14.3720 -14.3707 -14.3522 -14.3408 -14.3367 -14.3269 -14.3196
   -14.3183 -14.3181 -14.3115 -14.3007 -14.2940 -14.2934 -14.2896 -14.2870
   -14.2804 -14.2746 -14.2741 -14.2547 -14.2469 -14.2239 -14.2173 -14.2122
   -14.2041 -14.1757 -14.1735 -14.1430  -9.4573  -7.3522  -7.1425  -6.3226
    -5.4329  -4.8779  -4.6965  -4.4469  -4.1126  -3.9951  -2.5451  -2.3766
    -1.8472  -1.3993  -0.3969  -0.1545  -0.0829   0.1914   0.3009   0.4836
     0.7220   1.0708   1.5365   1.6198   2.0728   2.1863   2.4444   2.6305
     2.6482   3.0010

          k =-0.0756 0.0727 0.0000 ( 24479 PWs)   bands (ev):

   -14.7279 -14.6016 -14.5854 -14.5704 -14.5614 -14.5498 -14.5398 -14.5318
   -14.5253 -14.5208 -14.5159 -14.5081 -14.5034 -14.4999 -14.4906 -14.4843
   -14.4825 -14.4707 -14.4637 -14.4627 -14.4548 -14.4471 -14.4424 -14.4356
   -14.4252 -14.4204 -14.4162 -14.4060 -14.4045 -14.3989 -14.3903 -14.3871
   -14.3799 -14.3705 -14.3655 -14.3595 -14.3491 -14.3422 -14.3330 -14.3283
   -14.3203 -14.3102 -14.3072 -14.3023 -14.2921 -14.2871 -14.2788 -14.2743
   -14.2690 -14.2643 -14.2491 -14.2415 -14.2378 -14.2289 -14.2177 -14.2127
   -14.2049 -14.1914 -14.1841 -14.1590  -9.4585  -7.5042  -6.7606  -6.2752
    -5.9022  -5.3128  -4.7630  -4.1475  -3.6266  -3.3553  -3.0563  -2.3273
    -1.8989  -1.3695  -0.8594  -0.6028  -0.0810   0.1496   0.3820   0.7139
     0.9390   1.0136   1.4377   1.7015   1.8222   2.1518   2.4264   2.5476
     2.7686   2.9651

          k =-0.0756 0.1018 0.0000 ( 24479 PWs)   bands (ev):

   -14.7279 -14.6016 -14.5854 -14.5704 -14.5614 -14.5498 -14.5398 -14.5318
   -14.5253 -14.5208 -14.5159 -14.5081 -14.5034 -14.4999 -14.4906 -14.4843
   -14.4825 -14.4707 -14.4637 -14.4627 -14.4548 -14.4471 -14.4424 -14.4356
   -14.4252 -14.4204 -14.4162 -14.4060 -14.4045 -14.3989 -14.3903 -14.3871
   -14.3799 -14.3705 -14.3655 -14.3595 -14.3491 -14.3422 -14.3330 -14.3283
   -14.3203 -14.3102 -14.3072 -14.3023 -14.2921 -14.2871 -14.2788 -14.2743
   -14.2690 -14.2643 -14.2491 -14.2415 -14.2378 -14.2289 -14.2177 -14.2127
   -14.2049 -14.1914 -14.1841 -14.1590  -9.4585  -7.5042  -6.7606  -6.2753
    -5.9022  -5.3128  -4.7631  -4.1475  -3.6267  -3.3553  -3.0564  -2.3272
    -1.8989  -1.3695  -0.8594  -0.6028  -0.0810   0.1496   0.3820   0.7139
     0.9390   1.0136   1.4377   1.7015   1.8222   2.1518   2.4264   2.5476
     2.7686   2.9651

          k =-0.0756-0.0436 0.0000 ( 24448 PWs)   bands (ev):

   -14.7328 -14.6148 -14.5919 -14.5741 -14.5529 -14.5426 -14.5341 -14.5331
   -14.5278 -14.5221 -14.5142 -14.5047 -14.4988 -14.4982 -14.4930 -14.4878
   -14.4758 -14.4632 -14.4626 -14.4572 -14.4541 -14.4490 -14.4390 -14.4219
   -14.4193 -14.4178 -14.4152 -14.4103 -14.4098 -14.3978 -14.3943 -14.3868
   -14.3756 -14.3720 -14.3707 -14.3522 -14.3408 -14.3367 -14.3269 -14.3196
   -14.3183 -14.3181 -14.3115 -14.3007 -14.2940 -14.2934 -14.2896 -14.2870
   -14.2804 -14.2746 -14.2741 -14.2547 -14.2469 -14.2239 -14.2173 -14.2122
   -14.2041 -14.1757 -14.1735 -14.1430  -9.4573  -7.3522  -7.1425  -6.3226
    -5.4329  -4.8779  -4.6965  -4.4469  -4.1126  -3.9952  -2.5451  -2.3766
    -1.8472  -1.3993  -0.3969  -0.1545  -0.0828   0.1914   0.3009   0.4836
     0.7221   1.0708   1.5364   1.6198   2.0729   2.1863   2.4444   2.6305
     2.6482   3.0010

     the Fermi energy is     0.5205 ev

!    total energy              =   -1628.64058945 Ry
     Harris-Foulkes estimate   =   -1628.64057555 Ry
     estimated scf accuracy    <       0.00000264 Ry

     The total energy is the sum of the following terms:

     one-electron contribution =   -9143.11101615 Ry
     hartree contribution      =    4651.92660164 Ry
     xc contribution           =    -473.08587590 Ry
     ewald contribution        =    3335.66310306 Ry
     electric field correction =       0.00007692 Ry
     smearing contrib. (-TS)   =      -0.03347901 Ry

     convergence has been achieved in  19 iterations
 
 BEEF-vdW xc energy contributions
           1 :   -414.372635808421     
           2 :    378.763098039900     
           3 :   -318.606340568022     
           4 :    250.803693064188     
           5 :   -190.820577088123     
           6 :    147.050974648931     
           7 :   -119.225706117265     
           8 :    101.014048680908     
           9 :   -84.8888641640726     
          10 :    66.4043126921270     
          11 :   -45.7755766970479     
          12 :    26.4528586450633     
          13 :   -12.1245970115950     
          14 :    4.21579123371930     
          15 :   -1.27273884624435     
          16 :   0.227504325030282     
          17 :    1.59507749255431     
          18 :   -5.10129681682349     
          19 :    9.39384991583859     
          20 :   -12.8252352287535     
          21 :    14.2617816887384     
          22 :   -13.7332441182813     
          23 :    12.1979558790312     
          24 :   -10.7769450693967     
          25 :    10.0733110352426     
          26 :   -9.99626395331461     
          27 :    10.0675507967118     
          28 :   -9.87066344667744     
          29 :    9.29541163775059     
          30 :   -8.47564134607973     
          31 :   -37.7133343803995     
          32 :   -27.3965886082651     

     Forces acting on atoms (Ry/au):


     negative rho (up, down):  1.143E-03 0.000E+00
     atom    1 type  1   force =    -0.00396109   -0.00228811   -0.01253159
     atom    2 type  1   force =     0.00396521   -0.00229267   -0.01253164
     atom    3 type  1   force =    -0.00000309    0.00458001   -0.01253420
     atom    4 type  1   force =    -0.00000077    0.00000272   -0.01170186
     atom    5 type  1   force =     0.00000106    0.00165128    0.01054098
     atom    6 type  1   force =    -0.00000083    0.00000182    0.01718826
     atom    7 type  1   force =    -0.00142847   -0.00082737    0.01054026
     atom    8 type  1   force =     0.00142830   -0.00082570    0.01054058
     atom    9 type  1   force =     0.00000283   -0.00000288    0.00190000
     atom   10 type  1   force =    -0.00000326   -0.00003188   -0.00042849
     atom   11 type  1   force =     0.00000583   -0.00000212   -0.00042111
     atom   12 type  1   force =    -0.00000875    0.00000094   -0.00041946
     atom   13 type  2   force =     0.00000304    0.00003397   -0.00014174

     Total force =     0.036223     Total SCF correction =     0.009916
     SCF correction compared to forces is large: reduce conv_thr to get better values


     entering subroutine stress ...


     negative rho (up, down):  1.143E-03 0.000E+00
          total   stress  (Ry/bohr**3)                   (kbar)     P=    5.73
   0.00004276   0.00000000   0.00000000          6.29      0.00      0.00
   0.00000000   0.00004277   0.00000001          0.00      6.29      0.00
   0.00000000   0.00000001   0.00003135          0.00      0.00      4.61

 !ASE

     Writing output data file calc.save
 
     init_run     :      5.58s CPU      9.06s WALL (       1 calls)
     electrons    :    308.65s CPU    453.81s WALL (       1 calls)
     forces       :      2.83s CPU      3.19s WALL (       1 calls)
     stress       :      8.81s CPU      9.53s WALL (       1 calls)

     Called by init_run:
     wfcinit      :      2.98s CPU      5.24s WALL (       1 calls)
     potinit      :      0.84s CPU      1.39s WALL (       1 calls)

     Called by electrons:
     c_bands      :    248.28s CPU    361.45s WALL (      19 calls)
     sum_band     :     28.14s CPU     44.41s WALL (      19 calls)
     v_of_rho     :      9.63s CPU     15.88s WALL (      20 calls)
     newd         :      8.56s CPU      8.89s WALL (      20 calls)
     mix_rho      :      0.39s CPU      0.61s WALL (      19 calls)
     vdW_energy   :      3.27s CPU      3.70s WALL (      56 calls)
     vdW_ffts     :     12.23s CPU     23.39s WALL (     114 calls)
     vdW_v        :      2.71s CPU      4.01s WALL (      56 calls)

     Called by c_bands:
     init_us_2    :      1.28s CPU      1.36s WALL (     820 calls)
     cegterg      :    240.83s CPU    353.77s WALL (     382 calls)

     Called by *egterg:
     h_psi        :    115.88s CPU    219.22s WALL (    2541 calls)
     s_psi        :     12.72s CPU     12.77s WALL (    2541 calls)
     g_psi        :      1.09s CPU      1.11s WALL (    2139 calls)
     cdiaghg      :     64.56s CPU     65.55s WALL (    2521 calls)

     Called by h_psi:
     add_vuspsi   :     12.97s CPU     13.03s WALL (    2541 calls)

     General routines
     calbec       :     17.39s CPU     19.07s WALL (    2961 calls)
     fft          :     17.44s CPU     33.59s WALL (    3423 calls)
     ffts         :      0.05s CPU      0.09s WALL (      39 calls)
     fftw         :     88.16s CPU    201.55s WALL (  267234 calls)
     interpolate  :      0.25s CPU      0.45s WALL (      39 calls)
     davcio       :      0.00s CPU      0.07s WALL (      20 calls)
 
     Parallel routines
     fft_scatter  :     65.72s CPU    185.97s WALL (  270696 calls)
 
     PWSCF        :  5m26.48s CPU     7m56.56s WALL

 
   This run was terminated on:   6:14:43  18Jan2018            

=------------------------------------------------------------------------------=
   JOB DONE.
=------------------------------------------------------------------------------=
Job  /afs/slac/g/suncat/bin/suncat-tsmpirun -x LD_LIBRARY_PATH -wdir /scratch/qe842449_J6g3r pw.x -in pw.inp

TID   HOST_NAME   COMMAND_LINE            STATUS            TERMINATION_TIME
===== ========== ================  =======================  ===================
00000 suncat2070 pw.x -in pw.inp   Done                     01/18/2018 06:14:43
00001 suncat2070 pw.x -in pw.inp   Done                     01/18/2018 06:14:43
00002 suncat2070 pw.x -in pw.inp   Done                     01/18/2018 06:14:43
00003 suncat2070 pw.x -in pw.inp   Done                     01/18/2018 06:14:43
00004 suncat2070 pw.x -in pw.inp   Done                     01/18/2018 06:14:43
00005 suncat2070 pw.x -in pw.inp   Done                     01/18/2018 06:14:43
00006 suncat2070 pw.x -in pw.inp   Done                     01/18/2018 06:14:43
00007 suncat2070 pw.x -in pw.inp   Done                     01/18/2018 06:14:43
00008 suncat2070 pw.x -in pw.inp   Done                     01/18/2018 06:14:43
00009 suncat2070 pw.x -in pw.inp   Done                     01/18/2018 06:14:43
00010 suncat2070 pw.x -in pw.inp   Done                     01/18/2018 06:14:43
00011 suncat2070 pw.x -in pw.inp   Done                     01/18/2018 06:14:43
00012 suncat2070 pw.x -in pw.inp   Done                     01/18/2018 06:14:43
00013 suncat2070 pw.x -in pw.inp   Done                     01/18/2018 06:14:43
00014 suncat2070 pw.x -in pw.inp   Done                     01/18/2018 06:14:43
00015 suncat2070 pw.x -in pw.inp   Done                     01/18/2018 06:14:43
00016 suncat2062 pw.x -in pw.inp   Done                     01/18/2018 06:14:43
00017 suncat2062 pw.x -in pw.inp   Done                     01/18/2018 06:14:43
00018 suncat2062 pw.x -in pw.inp   Done                     01/18/2018 06:14:43
00019 suncat2062 pw.x -in pw.inp   Done                     01/18/2018 06:14:43
00020 suncat2062 pw.x -in pw.inp   Done                     01/18/2018 06:14:43
00021 suncat2062 pw.x -in pw.inp   Done                     01/18/2018 06:14:43
00022 suncat2062 pw.x -in pw.inp   Done                     01/18/2018 06:14:43
00023 suncat2062 pw.x -in pw.inp   Done                     01/18/2018 06:14:43
00024 suncat2062 pw.x -in pw.inp   Done                     01/18/2018 06:14:43
00025 suncat2062 pw.x -in pw.inp   Done                     01/18/2018 06:14:43
00026 suncat2062 pw.x -in pw.inp   Done                     01/18/2018 06:14:43
00027 suncat2062 pw.x -in pw.inp   Done                     01/18/2018 06:14:43
00028 suncat2062 pw.x -in pw.inp   Done                     01/18/2018 06:14:43
00029 suncat2062 pw.x -in pw.inp   Done                     01/18/2018 06:14:43
00030 suncat2062 pw.x -in pw.inp   Done                     01/18/2018 06:14:43
00031 suncat2062 pw.x -in pw.inp   Done                     01/18/2018 06:14:43
