  python dir          : /u/if/mamunm/src/espresso
  espresso dir        : /nfs/slac/g/suncatfs/sw/espv18/espresso-dynpy-beef/bin
  pseudo dir          : /u/if/mamunm/psp/gbrv1.5pbe
  ase-espresso py git : GITVERSION



     Program PWSCF v.5.1rc2 (svn rev. 11289) starts on  2May2018 at 23:45:41 

     This program is part of the open-source Quantum ESPRESSO suite
     for quantum simulation of materials; please cite
         "P. Giannozzi et al., J. Phys.:Condens. Matter 21 395502 (2009);
          URL http://www.quantum-espresso.org", 
     in publications or presentations arising from this work. More details at
     http://www.quantum-espresso.org/quote

     Parallel version (MPI), running on    32 processors
     K-points division:     npool     =       4
     R & G space division:  proc/nbgrp/npool/nimage =       8
     Reading input from pw.inp
     Message from routine read_cards :
     DEPRECATED: no units specified in CELL_PARAMETERS card

     Current dimensions of program PWSCF are:
     Max number of different atomic species (ntypx) = 10
     Max number of k-points (npk) =  40000
     Max angular momentum in pseudopotentials (lmaxx) =  3
     Presently stress not available with electric field


     **************************************************************************
     Initializing libbeef V0.1.1 with the BEEF-vdW functional.
     Citation: Wellendorff et al., PRB 85, 235149 (2012).
     **************************************************************************


     IMPORTANT: XC functional enforced from input :
     Exchange-correlation      = BEEF-VDW ( 1  4 27 13 2)
     Any further DFT definition will be discarded
     Please, verify this is what you really want


     Subspace diagonalization in iterative solution of the eigenvalue problem:
     a serial algorithm will be used

 
     Parallelization info
     --------------------
     sticks:   dense  smooth     PW     G-vecs:    dense   smooth      PW
     Min         579     230     64               114907    29014    4366
     Max         580     231     66               114920    29056    4372
     Sum        4639    1843    517               919335   232275   34949
 


     bravais-lattice index     =            0
     lattice parameter (alat)  =       1.8897  a.u.
     unit-cell volume          =    7725.1200 (a.u.)^3
     number of atoms/cell      =           13
     number of atomic types    =            2
     number of electrons       =       133.00
     number of Kohn-Sham states=           76
     kinetic-energy cutoff     =      36.7493  Ry
     charge density cutoff     =     367.4932  Ry
     convergence threshold     =      1.0E-05
     mixing beta               =       0.3000
     number of iterations used =           10  plain     mixing
     Exchange-correlation      = BEEF-VDW ( 1  4 27 13 2)
     nstep                     =           50


     celldm(1)=   1.889726  celldm(2)=   0.000000  celldm(3)=   0.000000
     celldm(4)=   0.000000  celldm(5)=   0.000000  celldm(6)=   0.000000

     crystal axes: (cart. coord. in units of alat)
               a(1) = (   7.152277   0.000000   0.000000 )  
               a(2) = (   3.576139   6.194054   0.000000 )  
               a(3) = (   0.000000   0.000000  25.839810 )  

     reciprocal axes: (cart. coord. in units 2 pi/alat)
               b(1) = (  0.139816 -0.080723  0.000000 )  
               b(2) = (  0.000000  0.161445  0.000000 )  
               b(3) = (  0.000000  0.000000  0.038700 )  


     PseudoPot. # 1 for Y  read from file:
     /u/if/mamunm/psp/gbrv1.5pbe/Y.UPF
     MD5 check sum: d034151ed7554c50b6e82763ed42c788
     Pseudo is Ultrasoft + core correction, Zval = 11.0
     Generated by new atomic code, or converted to UPF format
     Using radial grid of  885 points,  6 beta functions with: 
                l(1) =   0
                l(2) =   0
                l(3) =   1
                l(4) =   1
                l(5) =   2
                l(6) =   2
     Q(r) pseudized with  8 coefficients,  rinner =    1.200   1.200   1.200
                                                       1.200   1.200

     PseudoPot. # 2 for H  read from file:
     /u/if/mamunm/psp/gbrv1.5pbe/H.UPF
     MD5 check sum: 761ae9a214b05c3daf00ab9f6b793d6f
     Pseudo is Ultrasoft, Zval =  1.0
     Generated by new atomic code, or converted to UPF format
     Using radial grid of  615 points,  2 beta functions with: 
                l(1) =   0
                l(2) =   0
     Q(r) pseudized with  8 coefficients,  rinner =    0.700

     vdW kernel table read from file vdW_kernel_table
     MD5 check sum: 095c7af220d748ca6e76c0b4c6cfb241

     atomic species   valence    mass     pseudopotential
        Y1            11.00    88.90584     Y ( 1.00)
        H1             1.00     1.00800     H ( 1.00)

     No symmetry found



   Cartesian axes

     site n.     atom                  positions (alat units)
         1           Y1  tau(   1) = (   1.7880693   1.0323423  10.0000000  )
         2           Y1  tau(   2) = (   5.3642080   1.0323423  10.0000000  )
         3           Y1  tau(   3) = (   3.5761386   4.1293692  10.0000000  )
         4           Y1  tau(   4) = (   7.1522773   4.1293692  10.0000000  )
         5           Y1  tau(   5) = (   7.1522773   2.0646846  12.9199050  )
         6           Y1  tau(   6) = (   3.5761386   2.0646846  12.9199050  )
         7           Y1  tau(   7) = (   8.9403466   5.1617115  12.9199050  )
         8           Y1  tau(   8) = (   5.3642080   5.1617115  12.9199050  )
         9           Y1  tau(   9) = (   0.0000000   0.0000000  15.8398100  )
        10           Y1  tau(  10) = (   3.5761386   0.0000000  15.8398100  )
        11           Y1  tau(  11) = (   1.7880693   3.0970269  15.8398100  )
        12           Y1  tau(  12) = (   5.3642080   3.0970269  15.8398100  )
        13           H1  tau(  13) = (   1.7880693   1.0323423  17.2763100  )

     number of k points=    20  Fermi-Dirac smearing, width (Ry)=  0.0110
                       cart. coord. in units 2pi/alat
        k(    1) = (   0.0000000   0.0000000   0.0000000), wk =   0.0555556
        k(    2) = (   0.0000000   0.0269075   0.0000000), wk =   0.1111111
        k(    3) = (   0.0000000   0.0538151   0.0000000), wk =   0.1111111
        k(    4) = (   0.0000000  -0.0807226   0.0000000), wk =   0.0555556
        k(    5) = (   0.0233026  -0.0134538   0.0000000), wk =   0.1111111
        k(    6) = (   0.0233026   0.0134538   0.0000000), wk =   0.1111111
        k(    7) = (   0.0233026   0.0403613   0.0000000), wk =   0.1111111
        k(    8) = (   0.0233026  -0.0941763   0.0000000), wk =   0.1111111
        k(    9) = (   0.0233026  -0.0672688   0.0000000), wk =   0.1111111
        k(   10) = (   0.0233026  -0.0403613   0.0000000), wk =   0.1111111
        k(   11) = (   0.0466052  -0.0269075   0.0000000), wk =   0.1111111
        k(   12) = (   0.0466052   0.0000000   0.0000000), wk =   0.1111111
        k(   13) = (   0.0466052   0.0269075   0.0000000), wk =   0.1111111
        k(   14) = (   0.0466052  -0.1076301   0.0000000), wk =   0.1111111
        k(   15) = (   0.0466052  -0.0807226   0.0000000), wk =   0.1111111
        k(   16) = (   0.0466052  -0.0538151   0.0000000), wk =   0.1111111
        k(   17) = (  -0.0699078   0.0403613   0.0000000), wk =   0.0555556
        k(   18) = (  -0.0699078   0.0672688   0.0000000), wk =   0.1111111
        k(   19) = (  -0.0699078   0.0941763   0.0000000), wk =   0.1111111
        k(   20) = (  -0.0699078  -0.0403613   0.0000000), wk =   0.0555556

     Dense  grid:   919335 G-vectors     FFT dimensions: (  90,  90, 300)

     Smooth grid:   232275 G-vectors     FFT dimensions: (  54,  54, 192)

     Largest allocated arrays     est. size (Mb)     dimensions
        Kohn-Sham Wavefunctions         4.27 Mb     (    3683,   76)
        NL pseudopotentials            12.25 Mb     (    3683,  218)
        Each V/rho on FFT grid          4.70 Mb     (  307800)
        Each G-vector array             0.88 Mb     (  114920)
        G-vector shells                 0.22 Mb     (   29028)
     Largest temporary arrays     est. size (Mb)     dimensions
        Auxiliary wavefunctions        17.08 Mb     (    3683,  304)
        Each subspace H/S matrix        1.41 Mb     (     304,  304)
        Each <psi_i|beta_j> matrix      0.25 Mb     (     218,   76)
        Arrays for rho mixing          46.97 Mb     (  307800,   10)

     Initial potential from superposition of free atoms
     Check: negative starting charge=   -0.000596

     starting charge  132.94636, renormalised to  133.00000

     negative rho (up, down):  5.962E-04 0.000E+00


     ************************************************************************
     *
     * You are using vdW-DF for exchange-correlation in this calculation.
     * Please cite the following three references that made this development
     * possible:
     *
     *   M. Dion, H. Rydberg, E. Schroder, D. C. Langreth, and
     *   B. I. Lundqvist, Phys. Rev. Lett. 92, 246401 (2004).
     *
     *   T. Thonhauser, V. R. Cooper, S. Li, A. Puzder, P. Hyldgaard, and
     *   D. C. Langreth, Phys. Rev. B 76, 125112 (2007).
     *
     *   G. Roman-Perez and J. M. Soler, Phys. Rev. Lett. 103, 096102 (2009).
     *
     *
     * If you are using vdW-DF2, please also cite:
     *
     *   K. Lee, E. D. Murray, L. Kong, B. I. Lundqvist, and
     *   D. C. Langreth, Phys. Rev. B 82, 081101(R) (2010).
     *
     *
     * If you are calculating the stress with vdW-DF, please also cite:
     *
     *   R. Sabatini, E. Kucukbenli, B. Kolb, T. Thonhauser, and
     *   S. de Gironcoli, J. Phys.: Condens. Matter 24, 424209 (2012).
     *
     ************************************************************************

     Carrying out vdW-DF run using the following parameters:

     Nqs =      20    Nr_points =    1024   r_max =   100.000
     q_mesh =
               0.00001000     0.04494208     0.09755937     0.15916263
               0.23128650     0.31572767     0.41458969     0.53033537
               0.66584808     0.82450364     1.01025438     1.22772762
               1.48234092     1.78043706     2.12944203     2.53805004
               3.01644009     3.57652955     4.23227104     5.00000000

     Gradients computed in reciprocal space

     ************************************************************************


 
     Adding external electric field

     Computed dipole along edir(3) : 
        Dipole               -0.0032 Ry au,         -0.0083 Debye
        Dipole field         -0.0000 Ry au
 
        Potential amp.        0.0005 Ry
        Total length         47.6094 bohr
 
     Starting wfc are  157 randomized atomic wfcs

     total cpu time spent up to now is       20.1 secs

     per-process dynamical memory:   115.0 Mb

     Self-consistent Calculation

     iteration #  1     ecut=    36.75 Ry     beta=0.30
     Davidson diagonalization with overlap
     ethr =  1.00E-02,  avg # of iterations =  2.0

     negative rho (up, down):  3.233E-04 0.000E+00
 
     Adding external electric field

     Computed dipole along edir(3) : 
        Dipole               -1.8534 Ry au,         -4.7109 Debye
        Dipole field         -0.0030 Ry au
 
        Potential amp.        0.2871 Ry
        Total length         47.6094 bohr
 

     total cpu time spent up to now is       45.4 secs

     total energy              =   -1123.68767580 Ry
     Harris-Foulkes estimate   =   -1125.91690554 Ry
     estimated scf accuracy    <       4.78867550 Ry

     iteration #  2     ecut=    36.75 Ry     beta=0.30
     Davidson diagonalization with overlap
     ethr =  3.60E-03,  avg # of iterations =  8.6

     negative rho (up, down):  1.460E-04 0.000E+00
 
     Adding external electric field

     Computed dipole along edir(3) : 
        Dipole                3.4276 Ry au,          8.7122 Debye
        Dipole field          0.0056 Ry au
 
        Potential amp.       -0.5309 Ry
        Total length         47.6094 bohr
 

     total cpu time spent up to now is       79.9 secs

     total energy              =   -1119.84820273 Ry
     Harris-Foulkes estimate   =   -1130.01878809 Ry
     estimated scf accuracy    <     164.07961080 Ry

     iteration #  3     ecut=    36.75 Ry     beta=0.30
     Davidson diagonalization with overlap
     ethr =  3.60E-03,  avg # of iterations = 10.8

     negative rho (up, down):  3.404E-06 0.000E+00
 
     Adding external electric field

     Computed dipole along edir(3) : 
        Dipole                0.1333 Ry au,          0.3388 Debye
        Dipole field          0.0002 Ry au
 
        Potential amp.       -0.0206 Ry
        Total length         47.6094 bohr
 

     total cpu time spent up to now is      118.1 secs

     total energy              =   -1121.57971163 Ry
     Harris-Foulkes estimate   =   -1131.47849482 Ry
     estimated scf accuracy    <     266.74938294 Ry

     iteration #  4     ecut=    36.75 Ry     beta=0.30
     Davidson diagonalization with overlap
     ethr =  3.60E-03,  avg # of iterations =  8.4

     negative rho (up, down):  5.152E-06 0.000E+00
 
     Adding external electric field

     Computed dipole along edir(3) : 
        Dipole                0.1541 Ry au,          0.3916 Debye
        Dipole field          0.0003 Ry au
 
        Potential amp.       -0.0239 Ry
        Total length         47.6094 bohr
 

     total cpu time spent up to now is      152.1 secs

     total energy              =   -1125.47711718 Ry
     Harris-Foulkes estimate   =   -1125.52130268 Ry
     estimated scf accuracy    <       1.89844527 Ry

     iteration #  5     ecut=    36.75 Ry     beta=0.30
     Davidson diagonalization with overlap
     ethr =  1.43E-03,  avg # of iterations =  2.9

     negative rho (up, down):  3.366E-06 0.000E+00
 
     Adding external electric field

     Computed dipole along edir(3) : 
        Dipole               -0.1192 Ry au,         -0.3030 Debye
        Dipole field         -0.0002 Ry au
 
        Potential amp.        0.0185 Ry
        Total length         47.6094 bohr
 

     total cpu time spent up to now is      178.7 secs

     total energy              =   -1125.45909395 Ry
     Harris-Foulkes estimate   =   -1125.50425052 Ry
     estimated scf accuracy    <       0.71652604 Ry

     iteration #  6     ecut=    36.75 Ry     beta=0.30
     Davidson diagonalization with overlap
     ethr =  5.39E-04,  avg # of iterations =  9.3

     negative rho (up, down):  2.097E-06 0.000E+00
 
     Adding external electric field

     Computed dipole along edir(3) : 
        Dipole               -0.0839 Ry au,         -0.2132 Debye
        Dipole field         -0.0001 Ry au
 
        Potential amp.        0.0130 Ry
        Total length         47.6094 bohr
 

     total cpu time spent up to now is      208.9 secs

     total energy              =   -1125.48793637 Ry
     Harris-Foulkes estimate   =   -1125.49639875 Ry
     estimated scf accuracy    <       0.18039474 Ry

     iteration #  7     ecut=    36.75 Ry     beta=0.30
     Davidson diagonalization with overlap
     ethr =  1.36E-04,  avg # of iterations =  7.9

     negative rho (up, down):  2.106E-06 0.000E+00
 
     Adding external electric field

     Computed dipole along edir(3) : 
        Dipole                0.0071 Ry au,          0.0181 Debye
        Dipole field          0.0000 Ry au
 
        Potential amp.       -0.0011 Ry
        Total length         47.6094 bohr
 

     total cpu time spent up to now is      239.7 secs

     total energy              =   -1125.49567261 Ry
     Harris-Foulkes estimate   =   -1125.49829773 Ry
     estimated scf accuracy    <       0.01560593 Ry

     iteration #  8     ecut=    36.75 Ry     beta=0.30
     Davidson diagonalization with overlap
     ethr =  1.17E-05,  avg # of iterations =  8.8

     negative rho (up, down):  1.218E-06 0.000E+00
 
     Adding external electric field

     Computed dipole along edir(3) : 
        Dipole               -0.0357 Ry au,         -0.0908 Debye
        Dipole field         -0.0001 Ry au
 
        Potential amp.        0.0055 Ry
        Total length         47.6094 bohr
 

     total cpu time spent up to now is      275.2 secs

     total energy              =   -1125.50182110 Ry
     Harris-Foulkes estimate   =   -1125.50181451 Ry
     estimated scf accuracy    <       0.01372093 Ry

     iteration #  9     ecut=    36.75 Ry     beta=0.30
     Davidson diagonalization with overlap
     ethr =  1.03E-05,  avg # of iterations =  2.8

     negative rho (up, down):  2.634E-06 0.000E+00
 
     Adding external electric field

     Computed dipole along edir(3) : 
        Dipole               -0.0768 Ry au,         -0.1953 Debye
        Dipole field         -0.0001 Ry au
 
        Potential amp.        0.0119 Ry
        Total length         47.6094 bohr
 

     total cpu time spent up to now is      300.9 secs

     total energy              =   -1125.50150266 Ry
     Harris-Foulkes estimate   =   -1125.50257817 Ry
     estimated scf accuracy    <       0.01599633 Ry

     iteration # 10     ecut=    36.75 Ry     beta=0.30
     Davidson diagonalization with overlap
     ethr =  1.03E-05,  avg # of iterations =  4.6

     negative rho (up, down):  7.421E-06 0.000E+00
 
     Adding external electric field

     Computed dipole along edir(3) : 
        Dipole               -0.0731 Ry au,         -0.1857 Debye
        Dipole field         -0.0001 Ry au
 
        Potential amp.        0.0113 Ry
        Total length         47.6094 bohr
 

     total cpu time spent up to now is      328.9 secs

     total energy              =   -1125.50224426 Ry
     Harris-Foulkes estimate   =   -1125.50231382 Ry
     estimated scf accuracy    <       0.00924957 Ry

     iteration # 11     ecut=    36.75 Ry     beta=0.30
     Davidson diagonalization with overlap
     ethr =  6.95E-06,  avg # of iterations =  1.2

     negative rho (up, down):  1.723E-05 0.000E+00
 
     Adding external electric field

     Computed dipole along edir(3) : 
        Dipole               -0.0525 Ry au,         -0.1334 Debye
        Dipole field         -0.0001 Ry au
 
        Potential amp.        0.0081 Ry
        Total length         47.6094 bohr
 

     total cpu time spent up to now is      353.9 secs

     total energy              =   -1125.50237547 Ry
     Harris-Foulkes estimate   =   -1125.50250992 Ry
     estimated scf accuracy    <       0.00122508 Ry

     iteration # 12     ecut=    36.75 Ry     beta=0.30
     Davidson diagonalization with overlap
     ethr =  9.21E-07,  avg # of iterations =  7.0

     negative rho (up, down):  2.556E-05 0.000E+00
 
     Adding external electric field

     Computed dipole along edir(3) : 
        Dipole               -0.0448 Ry au,         -0.1139 Debye
        Dipole field         -0.0001 Ry au
 
        Potential amp.        0.0069 Ry
        Total length         47.6094 bohr
 

     total cpu time spent up to now is      384.4 secs

     total energy              =   -1125.50246907 Ry
     Harris-Foulkes estimate   =   -1125.50250980 Ry
     estimated scf accuracy    <       0.00027601 Ry

     iteration # 13     ecut=    36.75 Ry     beta=0.30
     Davidson diagonalization with overlap
     ethr =  2.08E-07,  avg # of iterations =  5.2

     negative rho (up, down):  2.913E-05 0.000E+00
 
     Adding external electric field

     Computed dipole along edir(3) : 
        Dipole               -0.0482 Ry au,         -0.1225 Debye
        Dipole field         -0.0001 Ry au
 
        Potential amp.        0.0075 Ry
        Total length         47.6094 bohr
 

     total cpu time spent up to now is      414.1 secs

     total energy              =   -1125.50251410 Ry
     Harris-Foulkes estimate   =   -1125.50251285 Ry
     estimated scf accuracy    <       0.00004340 Ry

     iteration # 14     ecut=    36.75 Ry     beta=0.30
     Davidson diagonalization with overlap
     ethr =  3.26E-08,  avg # of iterations =  9.8

     negative rho (up, down):  2.299E-05 0.000E+00
 
     Adding external electric field

     Computed dipole along edir(3) : 
        Dipole               -0.0506 Ry au,         -0.1286 Debye
        Dipole field         -0.0001 Ry au
 
        Potential amp.        0.0078 Ry
        Total length         47.6094 bohr
 

     total cpu time spent up to now is      447.7 secs

     total energy              =   -1125.50251788 Ry
     Harris-Foulkes estimate   =   -1125.50252053 Ry
     estimated scf accuracy    <       0.00002756 Ry

     iteration # 15     ecut=    36.75 Ry     beta=0.30
     Davidson diagonalization with overlap
     ethr =  2.07E-08,  avg # of iterations =  3.0

     negative rho (up, down):  1.770E-05 0.000E+00

     negative rho (up, down):  1.770E-05 0.000E+00

     negative rho (up, down):  1.770E-05 0.000E+00

     negative rho (up, down):  1.770E-05 0.000E+00

     negative rho (up, down):  1.770E-05 0.000E+00

     negative rho (up, down):  1.770E-05 0.000E+00

     negative rho (up, down):  1.770E-05 0.000E+00

     negative rho (up, down):  1.770E-05 0.000E+00

     negative rho (up, down):  1.770E-05 0.000E+00

     negative rho (up, down):  1.770E-05 0.000E+00

     negative rho (up, down):  1.770E-05 0.000E+00

     negative rho (up, down):  1.770E-05 0.000E+00

     negative rho (up, down):  1.770E-05 0.000E+00

     negative rho (up, down):  1.770E-05 0.000E+00

     negative rho (up, down):  1.770E-05 0.000E+00

     negative rho (up, down):  1.770E-05 0.000E+00

     negative rho (up, down):  1.770E-05 0.000E+00

     negative rho (up, down):  1.770E-05 0.000E+00

     negative rho (up, down):  1.770E-05 0.000E+00

     negative rho (up, down):  1.770E-05 0.000E+00

     negative rho (up, down):  1.770E-05 0.000E+00

     negative rho (up, down):  1.770E-05 0.000E+00

     negative rho (up, down):  1.770E-05 0.000E+00

     negative rho (up, down):  1.770E-05 0.000E+00

     negative rho (up, down):  1.770E-05 0.000E+00

     negative rho (up, down):  1.770E-05 0.000E+00

     negative rho (up, down):  1.770E-05 0.000E+00

     negative rho (up, down):  1.770E-05 0.000E+00

     negative rho (up, down):  1.770E-05 0.000E+00

     negative rho (up, down):  1.770E-05 0.000E+00

     negative rho (up, down):  1.770E-05 0.000E+00

     negative rho (up, down):  1.770E-05 0.000E+00

     negative rho (up, down):  1.770E-05 0.000E+00

     negative rho (up, down):  1.770E-05 0.000E+00

     negative rho (up, down):  1.770E-05 0.000E+00
 
     Adding external electric field

     Computed dipole along edir(3) : 
        Dipole               -0.0144 Ry au,         -0.0365 Debye
        Dipole field         -0.0000 Ry au
 
        Potential amp.        0.0022 Ry
        Total length         47.6094 bohr
 

     total cpu time spent up to now is      557.2 secs

     End of self-consistent calculation

          k = 0.0000 0.0000 0.0000 ( 28997 PWs)   bands (ev):

   -42.3876 -42.3765 -42.3381 -42.3353 -42.3349 -42.3307 -42.3146 -42.3144
   -41.8141 -41.7748 -41.7739 -41.7636 -22.4863 -22.4862 -22.4850 -22.4712
   -22.4710 -22.4524 -22.4356 -22.3944 -22.3542 -22.3471 -22.3468 -22.3248
   -22.3081 -22.3078 -22.1571 -22.1570 -22.1565 -22.1479 -22.1479 -22.1364
   -22.0575 -22.0575 -22.0396 -22.0396 -21.9349 -21.9303 -21.9299 -21.7230
   -21.6977 -21.6969 -21.6858 -21.6367 -21.6321 -21.6318 -21.5360 -21.5360
    -3.5186  -2.8935  -1.9286  -1.1745  -0.6470  -0.6469  -0.5418  -0.5123
    -0.5123  -0.5025  -0.2441  -0.2441  -0.0679   0.2887   0.2888   0.3652
     0.7025   0.7026   0.8801   1.1585   1.3743   1.5675   1.6274   1.6275
     1.6840   1.7461   1.7462   2.1377

          k = 0.0000 0.0269 0.0000 ( 29019 PWs)   bands (ev):

   -42.3861 -42.3737 -42.3378 -42.3373 -42.3351 -42.3313 -42.3163 -42.3145
   -41.8114 -41.7766 -41.7741 -41.7644 -22.4711 -22.4695 -22.4601 -22.4564
   -22.4486 -22.4380 -22.4236 -22.3919 -22.3522 -22.3467 -22.3445 -22.3275
   -22.3123 -22.3092 -22.1735 -22.1734 -22.1659 -22.1574 -22.1503 -22.1367
   -22.0874 -22.0689 -22.0642 -22.0461 -21.9201 -21.9165 -21.9075 -21.7198
   -21.6981 -21.6963 -21.6855 -21.6513 -21.6478 -21.6269 -21.5645 -21.5426
    -3.3933  -2.7890  -1.8405  -1.0660  -0.8376  -0.5917  -0.5817  -0.5054
    -0.4298  -0.4044  -0.1097  -0.0796   0.0653   0.3605   0.3730   0.4367
     0.7426   0.7434   0.9098   1.1697   1.3422   1.4795   1.5066   1.5459
     1.5995   1.6765   1.6919   2.0546

          k = 0.0000 0.0538 0.0000 ( 29058 PWs)   bands (ev):

   -42.3830 -42.3660 -42.3446 -42.3368 -42.3351 -42.3317 -42.3205 -42.3145
   -41.8039 -41.7831 -41.7742 -41.7655 -22.4347 -22.4315 -22.4205 -22.4198
   -22.4055 -22.3875 -22.3819 -22.3660 -22.3537 -22.3410 -22.3391 -22.3330
   -22.3201 -22.3124 -22.2138 -22.2136 -22.2105 -22.1932 -22.1675 -22.1455
   -22.1324 -22.1218 -22.0825 -22.0627 -21.8865 -21.8823 -21.8402 -21.7130
   -21.7007 -21.6953 -21.6897 -21.6873 -21.6828 -21.6411 -21.6094 -21.5605
    -3.0890  -2.5089  -1.6189  -1.3704  -0.8045  -0.6143  -0.4804  -0.4470
    -0.1788  -0.1623   0.0490   0.3242   0.3900   0.5543   0.5943   0.6253
     0.8271   0.8499   0.9679   1.1019   1.2276   1.3100   1.3158   1.3600
     1.4145   1.4361   1.4465   1.7303

          k = 0.0000-0.0807 0.0000 ( 29048 PWs)   bands (ev):

   -42.3814 -42.3566 -42.3540 -42.3359 -42.3351 -42.3318 -42.3230 -42.3145
   -41.7955 -41.7911 -41.7742 -41.7658 -22.4110 -22.4091 -22.4053 -22.3962
   -22.3827 -22.3721 -22.3692 -22.3424 -22.3357 -22.3342 -22.3273 -22.3150
   -22.2877 -22.2736 -22.2729 -22.2489 -22.2407 -22.2395 -22.2174 -22.2162
   -22.1100 -22.1088 -22.1050 -22.0761 -21.8637 -21.8584 -21.7459 -21.7411
   -21.7164 -21.7110 -21.7075 -21.7029 -21.6941 -21.6839 -21.5875 -21.5827
    -2.9006  -2.1155  -1.9685  -1.2990  -0.9990  -0.4174  -0.4169  -0.3003
    -0.1083   0.0085   0.0602   0.6845   0.6897   0.7397   0.7448   0.8007
     0.8220   0.9084   0.9755   1.0601   1.0885   1.0909   1.0968   1.1495
     1.3454   1.3667   1.4699   1.4877

          k = 0.0233-0.0135 0.0000 ( 29019 PWs)   bands (ev):

   -42.3861 -42.3737 -42.3378 -42.3374 -42.3349 -42.3314 -42.3164 -42.3144
   -41.8114 -41.7761 -41.7747 -41.7643 -22.4712 -22.4694 -22.4601 -22.4565
   -22.4485 -22.4380 -22.4236 -22.3919 -22.3521 -22.3469 -22.3443 -22.3274
   -22.3125 -22.3091 -22.1736 -22.1733 -22.1659 -22.1573 -22.1502 -22.1367
   -22.0874 -22.0689 -22.0642 -22.0460 -21.9204 -21.9162 -21.9076 -21.7198
   -21.6976 -21.6969 -21.6854 -21.6515 -21.6475 -21.6269 -21.5645 -21.5426
    -3.3933  -2.7890  -1.8405  -1.0660  -0.8376  -0.5917  -0.5817  -0.5054
    -0.4297  -0.4045  -0.1097  -0.0796   0.0653   0.3604   0.3730   0.4366
     0.7425   0.7435   0.9098   1.1697   1.3422   1.4795   1.5067   1.5459
     1.5994   1.6764   1.6920   2.0545

          k = 0.0233 0.0135 0.0000 ( 29019 PWs)   bands (ev):

   -42.3861 -42.3737 -42.3378 -42.3373 -42.3352 -42.3313 -42.3163 -42.3145
   -41.8114 -41.7767 -41.7740 -41.7644 -22.4711 -22.4695 -22.4601 -22.4564
   -22.4486 -22.4380 -22.4236 -22.3919 -22.3521 -22.3467 -22.3446 -22.3275
   -22.3123 -22.3092 -22.1735 -22.1734 -22.1659 -22.1574 -22.1503 -22.1367
   -22.0874 -22.0689 -22.0642 -22.0461 -21.9201 -21.9166 -21.9075 -21.7198
   -21.6982 -21.6963 -21.6855 -21.6512 -21.6478 -21.6269 -21.5645 -21.5426
    -3.3933  -2.7890  -1.8405  -1.0660  -0.8376  -0.5917  -0.5817  -0.5054
    -0.4298  -0.4044  -0.1097  -0.0796   0.0653   0.3605   0.3729   0.4367
     0.7426   0.7434   0.9098   1.1697   1.3422   1.4795   1.5066   1.5459
     1.5994   1.6765   1.6920   2.0545

          k = 0.0233 0.0404 0.0000 ( 29087 PWs)   bands (ev):

   -42.3838 -42.3684 -42.3403 -42.3383 -42.3370 -42.3305 -42.3197 -42.3142
   -41.8062 -41.7801 -41.7754 -41.7649 -22.4496 -22.4364 -22.4257 -22.4220
   -22.4182 -22.4074 -22.3915 -22.3873 -22.3498 -22.3474 -22.3405 -22.3308
   -22.3207 -22.3098 -22.2251 -22.2134 -22.1593 -22.1586 -22.1482 -22.1481
   -22.1406 -22.1181 -22.0783 -22.0597 -21.9010 -21.8754 -21.8735 -21.7148
   -21.7002 -21.6981 -21.6956 -21.6849 -21.6364 -21.6340 -21.6154 -21.5564
    -3.1756  -2.5972  -1.6737  -1.0149  -1.0050  -0.7984  -0.5404  -0.4420
    -0.2029  -0.1390   0.0706   0.1618   0.2613   0.4915   0.5222   0.5719
     0.8072   0.8198   0.9559   1.1479   1.2525   1.3199   1.3800   1.4490
     1.4564   1.5359   1.5642   1.7478

          k = 0.0233-0.0942 0.0000 ( 29098 PWs)   bands (ev):

   -42.3814 -42.3593 -42.3485 -42.3404 -42.3350 -42.3293 -42.3246 -42.3138
   -41.7975 -41.7870 -41.7775 -41.7646 -22.4101 -22.4094 -22.3987 -22.3826
   -22.3785 -22.3669 -22.3603 -22.3456 -22.3425 -22.3351 -22.3282 -22.3255
   -22.3162 -22.3117 -22.2836 -22.2689 -22.2303 -22.2125 -22.1824 -22.1649
   -22.1336 -22.1241 -22.1038 -22.0819 -21.8654 -21.8383 -21.7961 -21.7549
   -21.7084 -21.7025 -21.7004 -21.6955 -21.6842 -21.6573 -21.6105 -21.5814
    -2.9150  -2.2284  -1.6477  -1.3230  -1.0516  -0.8174  -0.4362  -0.2852
     0.0631   0.1102   0.2149   0.4804   0.5632   0.6905   0.7322   0.7494
     0.8676   0.9438   0.9739   1.0479   1.1236   1.1643   1.2379   1.2736
     1.3250   1.3725   1.4051   1.5022

          k = 0.0233-0.0673 0.0000 ( 29098 PWs)   bands (ev):

   -42.3814 -42.3593 -42.3485 -42.3404 -42.3350 -42.3293 -42.3246 -42.3138
   -41.7976 -41.7867 -41.7778 -41.7645 -22.4101 -22.4094 -22.3987 -22.3826
   -22.3784 -22.3669 -22.3603 -22.3456 -22.3426 -22.3350 -22.3283 -22.3255
   -22.3162 -22.3117 -22.2837 -22.2688 -22.2302 -22.2126 -22.1824 -22.1649
   -22.1336 -22.1241 -22.1038 -22.0819 -21.8654 -21.8383 -21.7961 -21.7548
   -21.7085 -21.7024 -21.7004 -21.6957 -21.6842 -21.6573 -21.6105 -21.5814
    -2.9150  -2.2284  -1.6477  -1.3230  -1.0516  -0.8174  -0.4362  -0.2851
     0.0631   0.1101   0.2149   0.4804   0.5631   0.6905   0.7322   0.7494
     0.8677   0.9438   0.9738   1.0479   1.1236   1.1643   1.2379   1.2735
     1.3250   1.3725   1.4051   1.5021

          k = 0.0233-0.0404 0.0000 ( 29087 PWs)   bands (ev):

   -42.3838 -42.3684 -42.3406 -42.3380 -42.3369 -42.3305 -42.3199 -42.3141
   -41.8062 -41.7794 -41.7761 -41.7648 -22.4496 -22.4364 -22.4257 -22.4219
   -22.4183 -22.4073 -22.3915 -22.3873 -22.3498 -22.3475 -22.3402 -22.3308
   -22.3208 -22.3098 -22.2251 -22.2133 -22.1593 -22.1586 -22.1482 -22.1481
   -22.1406 -22.1181 -22.0783 -22.0597 -21.9010 -21.8751 -21.8738 -21.7149
   -21.6999 -21.6978 -21.6962 -21.6848 -21.6363 -21.6342 -21.6154 -21.5564
    -3.1756  -2.5972  -1.6737  -1.0150  -1.0050  -0.7984  -0.5405  -0.4419
    -0.2029  -0.1390   0.0706   0.1618   0.2613   0.4914   0.5222   0.5718
     0.8072   0.8198   0.9559   1.1479   1.2525   1.3199   1.3800   1.4490
     1.4564   1.5359   1.5641   1.7478

          k = 0.0466-0.0269 0.0000 ( 29058 PWs)   bands (ev):

   -42.3830 -42.3660 -42.3447 -42.3367 -42.3349 -42.3319 -42.3207 -42.3144
   -41.8039 -41.7827 -41.7748 -41.7653 -22.4348 -22.4313 -22.4207 -22.4198
   -22.4054 -22.3875 -22.3819 -22.3660 -22.3537 -22.3410 -22.3389 -22.3330
   -22.3204 -22.3122 -22.2137 -22.2136 -22.2106 -22.1931 -22.1674 -22.1456
   -22.1323 -22.1219 -22.0825 -22.0626 -21.8869 -21.8820 -21.8402 -21.7130
   -21.7002 -21.6958 -21.6900 -21.6871 -21.6826 -21.6411 -21.6095 -21.5605
    -3.0890  -2.5089  -1.6189  -1.3704  -0.8046  -0.6143  -0.4804  -0.4469
    -0.1788  -0.1624   0.0490   0.3242   0.3900   0.5543   0.5943   0.6253
     0.8271   0.8500   0.9679   1.1019   1.2277   1.3100   1.3159   1.3600
     1.4144   1.4361   1.4465   1.7304

          k = 0.0466 0.0000 0.0000 ( 29087 PWs)   bands (ev):

   -42.3838 -42.3684 -42.3405 -42.3380 -42.3369 -42.3305 -42.3199 -42.3141
   -41.8062 -41.7796 -41.7760 -41.7648 -22.4496 -22.4364 -22.4257 -22.4219
   -22.4182 -22.4073 -22.3915 -22.3873 -22.3498 -22.3475 -22.3403 -22.3308
   -22.3208 -22.3098 -22.2251 -22.2133 -22.1593 -22.1586 -22.1482 -22.1481
   -22.1406 -22.1181 -22.0783 -22.0597 -21.9010 -21.8752 -21.8737 -21.7149
   -21.7000 -21.6979 -21.6961 -21.6848 -21.6363 -21.6342 -21.6154 -21.5564
    -3.1756  -2.5972  -1.6737  -1.0150  -1.0050  -0.7984  -0.5405  -0.4419
    -0.2029  -0.1390   0.0706   0.1618   0.2613   0.4914   0.5222   0.5718
     0.8072   0.8198   0.9559   1.1479   1.2525   1.3199   1.3800   1.4490
     1.4564   1.5359   1.5641   1.7478

          k = 0.0466 0.0269 0.0000 ( 29058 PWs)   bands (ev):

   -42.3830 -42.3660 -42.3446 -42.3368 -42.3352 -42.3317 -42.3205 -42.3145
   -41.8038 -41.7832 -41.7741 -41.7655 -22.4346 -22.4315 -22.4205 -22.4198
   -22.4055 -22.3875 -22.3819 -22.3660 -22.3536 -22.3410 -22.3392 -22.3330
   -22.3201 -22.3124 -22.2138 -22.2136 -22.2105 -22.1932 -22.1675 -22.1455
   -22.1324 -22.1218 -22.0825 -22.0626 -21.8864 -21.8825 -21.8402 -21.7129
   -21.7008 -21.6952 -21.6896 -21.6874 -21.6829 -21.6410 -21.6094 -21.5606
    -3.0890  -2.5089  -1.6189  -1.3704  -0.8045  -0.6143  -0.4803  -0.4470
    -0.1789  -0.1622   0.0490   0.3242   0.3900   0.5543   0.5943   0.6254
     0.8271   0.8499   0.9679   1.1019   1.2276   1.3100   1.3158   1.3600
     1.4144   1.4361   1.4465   1.7304

          k = 0.0466-0.1076 0.0000 ( 29098 PWs)   bands (ev):

   -42.3814 -42.3593 -42.3485 -42.3404 -42.3350 -42.3293 -42.3246 -42.3138
   -41.7975 -41.7871 -41.7775 -41.7646 -22.4101 -22.4094 -22.3987 -22.3826
   -22.3785 -22.3669 -22.3602 -22.3457 -22.3425 -22.3351 -22.3282 -22.3255
   -22.3162 -22.3117 -22.2836 -22.2689 -22.2302 -22.2125 -22.1824 -22.1649
   -22.1336 -22.1241 -22.1038 -22.0819 -21.8654 -21.8384 -21.7961 -21.7549
   -21.7084 -21.7026 -21.7004 -21.6954 -21.6842 -21.6573 -21.6105 -21.5814
    -2.9150  -2.2284  -1.6477  -1.3230  -1.0516  -0.8174  -0.4362  -0.2852
     0.0631   0.1102   0.2149   0.4804   0.5632   0.6905   0.7322   0.7494
     0.8677   0.9438   0.9739   1.0479   1.1236   1.1643   1.2379   1.2736
     1.3250   1.3725   1.4051   1.5022

          k = 0.0466-0.0807 0.0000 ( 29103 PWs)   bands (ev):

   -42.3806 -42.3514 -42.3510 -42.3472 -42.3306 -42.3304 -42.3280 -42.3132
   -41.7907 -41.7900 -41.7823 -41.7637 -22.4051 -22.3691 -22.3670 -22.3636
   -22.3632 -22.3511 -22.3495 -22.3494 -22.3433 -22.3374 -22.3223 -22.3117
   -22.3058 -22.3050 -22.3039 -22.2860 -22.2837 -22.2833 -22.1443 -22.1400
   -22.1398 -22.1354 -22.1348 -22.1063 -21.8192 -21.8192 -21.7755 -21.7711
   -21.7708 -21.7045 -21.7036 -21.6969 -21.6837 -21.6202 -21.6168 -21.6164
    -2.8354  -1.7517  -1.7471  -1.6299  -0.9570  -0.9464  -0.6527   0.0590
     0.0630   0.3448   0.4142   0.4777   0.4881   0.7843   0.7915   0.8675
     0.9011   0.9064   1.0138   1.0185   1.1724   1.1736   1.1787   1.1900
     1.2680   1.3775   1.3802   1.4214

          k = 0.0466-0.0538 0.0000 ( 29098 PWs)   bands (ev):

   -42.3814 -42.3593 -42.3486 -42.3403 -42.3349 -42.3293 -42.3248 -42.3137
   -41.7977 -41.7863 -41.7781 -41.7644 -22.4101 -22.4094 -22.3988 -22.3826
   -22.3784 -22.3669 -22.3603 -22.3456 -22.3425 -22.3351 -22.3283 -22.3255
   -22.3162 -22.3117 -22.2837 -22.2688 -22.2302 -22.2126 -22.1824 -22.1649
   -22.1336 -22.1242 -22.1038 -22.0819 -21.8655 -21.8383 -21.7961 -21.7549
   -21.7087 -21.7020 -21.7003 -21.6960 -21.6841 -21.6573 -21.6106 -21.5813
    -2.9150  -2.2284  -1.6478  -1.3230  -1.0516  -0.8175  -0.4362  -0.2851
     0.0631   0.1101   0.2149   0.4804   0.5631   0.6905   0.7322   0.7494
     0.8676   0.9438   0.9738   1.0479   1.1236   1.1644   1.2378   1.2736
     1.3249   1.3724   1.4051   1.5021

          k =-0.0699 0.0404 0.0000 ( 29048 PWs)   bands (ev):

   -42.3814 -42.3564 -42.3543 -42.3358 -42.3349 -42.3320 -42.3233 -42.3144
   -41.7960 -41.7903 -41.7748 -41.7656 -22.4112 -22.4091 -22.4051 -22.3964
   -22.3826 -22.3719 -22.3693 -22.3423 -22.3355 -22.3343 -22.3275 -22.3149
   -22.2877 -22.2738 -22.2728 -22.2488 -22.2406 -22.2397 -22.2177 -22.2161
   -22.1099 -22.1088 -22.1052 -22.0760 -21.8642 -21.8579 -21.7463 -21.7405
   -21.7169 -21.7106 -21.7079 -21.7021 -21.6946 -21.6837 -21.5880 -21.5822
    -2.9006  -2.1154  -1.9686  -1.2989  -0.9991  -0.4174  -0.4169  -0.3002
    -0.1084   0.0086   0.0601   0.6846   0.6896   0.7396   0.7449   0.8007
     0.8220   0.9083   0.9755   1.0601   1.0885   1.0909   1.0969   1.1495
     1.3454   1.3667   1.4698   1.4877

          k =-0.0699 0.0673 0.0000 ( 29098 PWs)   bands (ev):

   -42.3814 -42.3593 -42.3486 -42.3403 -42.3349 -42.3293 -42.3248 -42.3137
   -41.7977 -41.7864 -41.7781 -41.7645 -22.4101 -22.4094 -22.3988 -22.3826
   -22.3785 -22.3669 -22.3603 -22.3456 -22.3425 -22.3352 -22.3283 -22.3255
   -22.3162 -22.3117 -22.2837 -22.2688 -22.2302 -22.2126 -22.1824 -22.1649
   -22.1336 -22.1242 -22.1038 -22.0818 -21.8655 -21.8382 -21.7961 -21.7549
   -21.7087 -21.7020 -21.7003 -21.6960 -21.6841 -21.6573 -21.6106 -21.5813
    -2.9150  -2.2284  -1.6478  -1.3230  -1.0516  -0.8175  -0.4362  -0.2851
     0.0631   0.1101   0.2149   0.4804   0.5631   0.6905   0.7322   0.7494
     0.8676   0.9438   0.9739   1.0479   1.1236   1.1643   1.2378   1.2736
     1.3249   1.3724   1.4051   1.5021

          k =-0.0699 0.0942 0.0000 ( 29098 PWs)   bands (ev):

   -42.3814 -42.3593 -42.3485 -42.3404 -42.3350 -42.3293 -42.3246 -42.3138
   -41.7975 -41.7869 -41.7776 -41.7646 -22.4101 -22.4094 -22.3988 -22.3826
   -22.3784 -22.3669 -22.3603 -22.3456 -22.3426 -22.3351 -22.3283 -22.3255
   -22.3162 -22.3117 -22.2837 -22.2688 -22.2302 -22.2126 -22.1824 -22.1649
   -22.1336 -22.1241 -22.1038 -22.0819 -21.8654 -21.8384 -21.7961 -21.7548
   -21.7085 -21.7025 -21.7004 -21.6956 -21.6842 -21.6572 -21.6105 -21.5814
    -2.9150  -2.2284  -1.6477  -1.3230  -1.0516  -0.8174  -0.4362  -0.2852
     0.0631   0.1101   0.2149   0.4804   0.5631   0.6905   0.7322   0.7494
     0.8677   0.9438   0.9738   1.0479   1.1236   1.1643   1.2379   1.2735
     1.3249   1.3725   1.4051   1.5021

          k =-0.0699-0.0404 0.0000 ( 29048 PWs)   bands (ev):

   -42.3814 -42.3566 -42.3539 -42.3359 -42.3352 -42.3318 -42.3230 -42.3145
   -41.7954 -41.7913 -41.7741 -41.7659 -22.4110 -22.4091 -22.4054 -22.3961
   -22.3827 -22.3722 -22.3691 -22.3424 -22.3358 -22.3341 -22.3273 -22.3150
   -22.2877 -22.2736 -22.2730 -22.2489 -22.2408 -22.2395 -22.2174 -22.2162
   -22.1100 -22.1088 -22.1049 -22.0761 -21.8636 -21.8586 -21.7457 -21.7413
   -21.7163 -21.7111 -21.7074 -21.7030 -21.6940 -21.6839 -21.5874 -21.5828
    -2.9006  -2.1156  -1.9685  -1.2990  -0.9989  -0.4175  -0.4169  -0.3003
    -0.1083   0.0084   0.0602   0.6845   0.6897   0.7397   0.7448   0.8006
     0.8220   0.9084   0.9755   1.0601   1.0886   1.0909   1.0968   1.1495
     1.3454   1.3666   1.4699   1.4877

     the Fermi energy is     0.9709 ev

!    total energy              =   -1125.50251267 Ry
     Harris-Foulkes estimate   =   -1125.50252351 Ry
     estimated scf accuracy    <       0.00000909 Ry

     The total energy is the sum of the following terms:

     one-electron contribution =   -5401.58621024 Ry
     hartree contribution      =    2692.85626126 Ry
     xc contribution           =    -339.54240276 Ry
     ewald contribution        =    1922.89794796 Ry
     electric field correction =       0.00000034 Ry
     smearing contrib. (-TS)   =      -0.12810923 Ry

     convergence has been achieved in  15 iterations
 
 BEEF-vdW xc energy contributions
           1 :   -296.201140577201     
           2 :    266.030702214328     
           3 :   -214.045540101196     
           4 :    152.996034962922     
           5 :   -94.7928714997290     
           6 :    46.9350904638118     
           7 :   -11.9532412651968     
           8 :   -10.8397757562867     
           9 :    23.0953766428490     
          10 :   -26.1921929411402     
          11 :    21.3821267455928     
          12 :   -10.6406710297673     
          13 :   -2.82115290171453     
          14 :    15.0182338784483     
          15 :   -22.4682958726469     
          16 :    23.4850673222230     
          17 :   -18.6582342948582     
          18 :    10.2572709045467     
          19 :   -1.02053530758053     
          20 :   -6.89738692726200     
          21 :    12.3206646949926     
          22 :   -14.8540385426965     
          23 :    14.5206369179569     
          24 :   -11.6111392156936     
          25 :    6.78263389894016     
          26 :   -1.15854972192608     
          27 :   -3.83888525478972     
          28 :    6.95230160183780     
          29 :   -7.59964764656615     
          30 :    6.09415967978424     
          31 :   -28.3076519399290     
          32 :   -19.3540030664888     

     Forces acting on atoms (Ry/au):


     negative rho (up, down):  1.770E-05 0.000E+00
     atom    1 type  1   force =     0.00008037   -0.00001784    0.00513298
     atom    2 type  1   force =    -0.00008796   -0.00061691    0.00540728
     atom    3 type  1   force =    -0.00052390    0.00027205    0.00549885
     atom    4 type  1   force =     0.00052476    0.00036776    0.00530745
     atom    5 type  1   force =    -0.00114316    0.00057488    0.00041724
     atom    6 type  1   force =     0.00115997    0.00070869    0.00038611
     atom    7 type  1   force =     0.00009134    0.00001831   -0.00470383
     atom    8 type  1   force =    -0.00007985   -0.00131637    0.00042850
     atom    9 type  1   force =     0.02007345    0.01152396    0.00664637
     atom   10 type  1   force =    -0.02007513    0.01160436    0.00665132
     atom   11 type  1   force =     0.00006853   -0.02315446    0.00668265
     atom   12 type  1   force =    -0.00008551    0.00003299   -0.01150723
     atom   13 type  2   force =    -0.00000290    0.00000258   -0.02634769

     Total force =     0.050688     Total SCF correction =     0.007424
     SCF correction compared to forces is large: reduce conv_thr to get better values


     entering subroutine stress ...


     negative rho (up, down):  1.770E-05 0.000E+00
          total   stress  (Ry/bohr**3)                   (kbar)     P=   -4.15
  -0.00002394   0.00000000  -0.00000000         -3.52      0.00     -0.00
   0.00000000  -0.00002394   0.00000000          0.00     -3.52      0.00
  -0.00000000   0.00000000  -0.00003666         -0.00      0.00     -5.39


     BFGS Geometry Optimization

     number of scf cycles    =   1
     number of bfgs steps    =   0

     energy   new            =   -1125.5025126709 Ry

     new trust radius        =       0.0263476949 bohr
     new conv_thr            =       0.0000099958 Ry


ATOMIC_POSITIONS (crystal)
Y1       0.166666667   0.166666667   0.386999750    0   0   0
Y1       0.666666667   0.166666667   0.386999750    0   0   0
Y1       0.166666667   0.666666667   0.386999750    0   0   0
Y1       0.666666667   0.666666667   0.386999750    0   0   0
Y1       0.833333333   0.333333333   0.500000000    0   0   0
Y1       0.333333333   0.333333333   0.500000000    0   0   0
Y1       0.833333333   0.833333333   0.500000000    0   0   0
Y1       0.333333333   0.833333333   0.500000000    0   0   0
Y1       0.000992915   0.000984528   0.613136362
Y1       0.498018998   0.000991396   0.613136463
Y1       0.000994149   0.498021843   0.613137105
Y1       0.499992264   0.500002818   0.612764591
H1       0.166666342   0.166666887   0.668053186



     Writing output data file calc.save
     Check: negative starting charge=   -0.000596
     NEW-OLD atomic charge density approx. for the potential
     Check: negative starting charge=   -0.000596

     negative rho (up, down):  3.514E-05 0.000E+00
 
     Adding external electric field

     Computed dipole along edir(3) : 
        Dipole               -0.0143 Ry au,         -0.0364 Debye
        Dipole field         -0.0000 Ry au
 
        Potential amp.        0.0022 Ry
        Total length         47.6094 bohr
 

     total cpu time spent up to now is      654.0 secs

     per-process dynamical memory:   116.9 Mb

     Self-consistent Calculation

     iteration #  1     ecut=    36.75 Ry     beta=0.30
     Davidson diagonalization with overlap
     ethr =  1.00E-06,  avg # of iterations = 12.9

     negative rho (up, down):  2.739E-05 0.000E+00
 
     Adding external electric field

     Computed dipole along edir(3) : 
        Dipole               -0.9687 Ry au,         -2.4622 Debye
        Dipole field         -0.0016 Ry au
 
        Potential amp.        0.1500 Ry
        Total length         47.6094 bohr
 

     total cpu time spent up to now is      696.5 secs

     total energy              =   -1125.47814077 Ry
     Harris-Foulkes estimate   =   -1125.50415203 Ry
     estimated scf accuracy    <       0.05482285 Ry

     iteration #  2     ecut=    36.75 Ry     beta=0.30
     Davidson diagonalization with overlap
     ethr =  4.12E-05,  avg # of iterations =  8.3

     negative rho (up, down):  2.482E-05 0.000E+00
 
     Adding external electric field

     Computed dipole along edir(3) : 
        Dipole               -0.0666 Ry au,         -0.1694 Debye
        Dipole field         -0.0001 Ry au
 
        Potential amp.        0.0103 Ry
        Total length         47.6094 bohr
 

     total cpu time spent up to now is      731.6 secs

     total energy              =   -1125.14969302 Ry
     Harris-Foulkes estimate   =   -1125.91724559 Ry
     estimated scf accuracy    <      34.47146254 Ry

     iteration #  3     ecut=    36.75 Ry     beta=0.30
     Davidson diagonalization with overlap
     ethr =  4.12E-05,  avg # of iterations =  8.8

     negative rho (up, down):  2.410E-05 0.000E+00
 
     Adding external electric field

     Computed dipole along edir(3) : 
        Dipole               -0.0498 Ry au,         -0.1266 Debye
        Dipole field         -0.0001 Ry au
 
        Potential amp.        0.0077 Ry
        Total length         47.6094 bohr
 

     total cpu time spent up to now is      767.9 secs

     total energy              =   -1125.50325483 Ry
     Harris-Foulkes estimate   =   -1125.50671610 Ry
     estimated scf accuracy    <       0.04221294 Ry

     iteration #  4     ecut=    36.75 Ry     beta=0.30
     Davidson diagonalization with overlap
     ethr =  3.17E-05,  avg # of iterations =  2.2

     negative rho (up, down):  2.287E-05 0.000E+00
 
     Adding external electric field

     Computed dipole along edir(3) : 
        Dipole               -0.0444 Ry au,         -0.1130 Debye
        Dipole field         -0.0001 Ry au
 
        Potential amp.        0.0069 Ry
        Total length         47.6094 bohr
 

     total cpu time spent up to now is      794.2 secs

     total energy              =   -1125.50444488 Ry
     Harris-Foulkes estimate   =   -1125.50462040 Ry
     estimated scf accuracy    <       0.00231487 Ry

     iteration #  5     ecut=    36.75 Ry     beta=0.30
     Davidson diagonalization with overlap
     ethr =  1.74E-06,  avg # of iterations =  8.2

     negative rho (up, down):  2.129E-05 0.000E+00
 
     Adding external electric field

     Computed dipole along edir(3) : 
        Dipole               -0.0431 Ry au,         -0.1096 Debye
        Dipole field         -0.0001 Ry au
 
        Potential amp.        0.0067 Ry
        Total length         47.6094 bohr
 

     total cpu time spent up to now is      828.7 secs

     total energy              =   -1125.50496736 Ry
     Harris-Foulkes estimate   =   -1125.50499574 Ry
     estimated scf accuracy    <       0.00037035 Ry

     iteration #  6     ecut=    36.75 Ry     beta=0.30
     Davidson diagonalization with overlap
     ethr =  2.78E-07,  avg # of iterations =  2.3

     negative rho (up, down):  1.885E-05 0.000E+00
 
     Adding external electric field

     Computed dipole along edir(3) : 
        Dipole               -0.0427 Ry au,         -0.1085 Debye
        Dipole field         -0.0001 Ry au
 
        Potential amp.        0.0066 Ry
        Total length         47.6094 bohr
 

     total cpu time spent up to now is      856.1 secs

     total energy              =   -1125.50495980 Ry
     Harris-Foulkes estimate   =   -1125.50497929 Ry
     estimated scf accuracy    <       0.00017404 Ry

     iteration #  7     ecut=    36.75 Ry     beta=0.30
     Davidson diagonalization with overlap
     ethr =  1.31E-07,  avg # of iterations =  6.0

     negative rho (up, down):  1.818E-05 0.000E+00
 
     Adding external electric field

     Computed dipole along edir(3) : 
        Dipole               -0.0425 Ry au,         -0.1081 Debye
        Dipole field         -0.0001 Ry au
 
        Potential amp.        0.0066 Ry
        Total length         47.6094 bohr
 

     total cpu time spent up to now is      889.6 secs

     total energy              =   -1125.50497738 Ry
     Harris-Foulkes estimate   =   -1125.50497921 Ry
     estimated scf accuracy    <       0.00001641 Ry

     iteration #  8     ecut=    36.75 Ry     beta=0.30
     Davidson diagonalization with overlap
     ethr =  1.23E-08,  avg # of iterations =  6.0

     negative rho (up, down):  1.766E-05 0.000E+00

     negative rho (up, down):  1.766E-05 0.000E+00

     negative rho (up, down):  1.766E-05 0.000E+00

     negative rho (up, down):  1.766E-05 0.000E+00

     negative rho (up, down):  1.766E-05 0.000E+00

     negative rho (up, down):  1.766E-05 0.000E+00

     negative rho (up, down):  1.766E-05 0.000E+00

     negative rho (up, down):  1.766E-05 0.000E+00

     negative rho (up, down):  1.766E-05 0.000E+00

     negative rho (up, down):  1.766E-05 0.000E+00

     negative rho (up, down):  1.766E-05 0.000E+00

     negative rho (up, down):  1.766E-05 0.000E+00

     negative rho (up, down):  1.766E-05 0.000E+00

     negative rho (up, down):  1.766E-05 0.000E+00

     negative rho (up, down):  1.766E-05 0.000E+00

     negative rho (up, down):  1.766E-05 0.000E+00

     negative rho (up, down):  1.766E-05 0.000E+00

     negative rho (up, down):  1.766E-05 0.000E+00

     negative rho (up, down):  1.766E-05 0.000E+00

     negative rho (up, down):  1.766E-05 0.000E+00

     negative rho (up, down):  1.766E-05 0.000E+00

     negative rho (up, down):  1.766E-05 0.000E+00

     negative rho (up, down):  1.766E-05 0.000E+00

     negative rho (up, down):  1.766E-05 0.000E+00

     negative rho (up, down):  1.766E-05 0.000E+00

     negative rho (up, down):  1.766E-05 0.000E+00

     negative rho (up, down):  1.766E-05 0.000E+00

     negative rho (up, down):  1.766E-05 0.000E+00

     negative rho (up, down):  1.766E-05 0.000E+00

     negative rho (up, down):  1.766E-05 0.000E+00

     negative rho (up, down):  1.766E-05 0.000E+00

     negative rho (up, down):  1.766E-05 0.000E+00

     negative rho (up, down):  1.766E-05 0.000E+00

     negative rho (up, down):  1.766E-05 0.000E+00

     negative rho (up, down):  1.766E-05 0.000E+00
 
     Adding external electric field

     Computed dipole along edir(3) : 
        Dipole               -0.0434 Ry au,         -0.1102 Debye
        Dipole field         -0.0001 Ry au
 
        Potential amp.        0.0067 Ry
        Total length         47.6094 bohr
 

     total cpu time spent up to now is     1006.5 secs

     End of self-consistent calculation

          k = 0.0000 0.0000 0.0000 ( 28997 PWs)   bands (ev):

   -42.3752 -42.3699 -42.3331 -42.3283 -42.3283 -42.3244 -42.3120 -42.3120
   -41.8082 -41.7663 -41.7662 -41.7645 -22.4791 -22.4791 -22.4785 -22.4637
   -22.4637 -22.4503 -22.4287 -22.3844 -22.3497 -22.3412 -22.3412 -22.3183
   -22.3045 -22.3044 -22.1505 -22.1505 -22.1501 -22.1407 -22.1407 -22.1325
   -22.0510 -22.0510 -22.0356 -22.0356 -21.9266 -21.9261 -21.9261 -21.7168
   -21.6891 -21.6891 -21.6876 -21.6291 -21.6276 -21.6276 -21.5307 -21.5307
    -3.5354  -2.9109  -1.9392  -1.1752  -0.6411  -0.6410  -0.5365  -0.5067
    -0.5067  -0.4972  -0.2387  -0.2387  -0.0628   0.2949   0.2949   0.3711
     0.7090   0.7090   0.8873   1.1656   1.3775   1.5709   1.6313   1.6313
     1.6900   1.7507   1.7508   2.1443

          k = 0.0000 0.0269 0.0000 ( 29019 PWs)   bands (ev):

   -42.3734 -42.3670 -42.3331 -42.3306 -42.3283 -42.3250 -42.3138 -42.3120
   -41.8053 -41.7687 -41.7663 -41.7649 -22.4639 -22.4629 -22.4530 -22.4490
   -22.4422 -22.4326 -22.4190 -22.3819 -22.3479 -22.3410 -22.3387 -22.3212
   -22.3089 -22.3057 -22.1670 -22.1669 -22.1585 -22.1520 -22.1438 -22.1311
   -22.0809 -22.0651 -22.0577 -22.0421 -21.9129 -21.9125 -21.9024 -21.7135
   -21.6899 -21.6884 -21.6871 -21.6445 -21.6435 -21.6216 -21.5593 -21.5374
    -3.4140  -2.8062  -1.8491  -1.0642  -0.8325  -0.5858  -0.5767  -0.5000
    -0.4241  -0.3998  -0.1054  -0.0744   0.0713   0.3664   0.3791   0.4431
     0.7494   0.7500   0.9178   1.1767   1.3460   1.4835   1.5114   1.5505
     1.6051   1.6810   1.6958   2.0592

          k = 0.0000 0.0538 0.0000 ( 29058 PWs)   bands (ev):

   -42.3692 -42.3593 -42.3380 -42.3333 -42.3283 -42.3254 -42.3178 -42.3120
   -41.7976 -41.7764 -41.7663 -41.7650 -22.4270 -22.4250 -22.4130 -22.4110
   -22.4002 -22.3807 -22.3738 -22.3605 -22.3482 -22.3365 -22.3329 -22.3280
   -22.3162 -22.3092 -22.2072 -22.2071 -22.2025 -22.1891 -22.1610 -22.1423
   -22.1258 -22.1150 -22.0760 -22.0591 -21.8792 -21.8788 -21.8348 -21.7062
   -21.6933 -21.6874 -21.6871 -21.6825 -21.6803 -21.6360 -21.6040 -21.5553
    -3.1255  -2.5194  -1.6184  -1.3670  -0.7985  -0.6124  -0.4745  -0.4417
    -0.1728  -0.1586   0.0529   0.3291   0.3956   0.5595   0.5999   0.6329
     0.8342   0.8571   0.9767   1.1075   1.2332   1.3157   1.3204   1.3662
     1.4178   1.4419   1.4524   1.7346

          k = 0.0000-0.0807 0.0000 ( 29048 PWs)   bands (ev):

   -42.3669 -42.3498 -42.3475 -42.3335 -42.3283 -42.3255 -42.3201 -42.3120
   -41.7876 -41.7865 -41.7663 -41.7650 -22.4027 -22.3997 -22.3959 -22.3888
   -22.3796 -22.3671 -22.3621 -22.3396 -22.3293 -22.3291 -22.3224 -22.3123
   -22.2750 -22.2673 -22.2658 -22.2478 -22.2342 -22.2331 -22.2137 -22.2129
   -22.1030 -22.1010 -22.0984 -22.0741 -21.8559 -21.8554 -21.7383 -21.7369
   -21.7089 -21.7083 -21.6994 -21.6980 -21.6861 -21.6844 -21.5798 -21.5797
    -2.9536  -2.1092  -1.9684  -1.2921  -0.9990  -0.4122  -0.4112  -0.2935
    -0.1059   0.0153   0.0615   0.6901   0.6958   0.7439   0.7497   0.8079
     0.8277   0.9131   0.9828   1.0669   1.0927   1.0972   1.1036   1.1564
     1.3516   1.3746   1.4733   1.4947

          k = 0.0233-0.0135 0.0000 ( 29019 PWs)   bands (ev):

   -42.3734 -42.3670 -42.3331 -42.3306 -42.3283 -42.3250 -42.3138 -42.3120
   -41.8053 -41.7687 -41.7662 -41.7649 -22.4639 -22.4629 -22.4530 -22.4490
   -22.4422 -22.4326 -22.4190 -22.3819 -22.3479 -22.3410 -22.3387 -22.3212
   -22.3089 -22.3058 -22.1670 -22.1669 -22.1585 -22.1520 -22.1438 -22.1311
   -22.0809 -22.0651 -22.0577 -22.0421 -21.9129 -21.9126 -21.9024 -21.7135
   -21.6900 -21.6883 -21.6871 -21.6445 -21.6435 -21.6216 -21.5593 -21.5374
    -3.4140  -2.8062  -1.8491  -1.0642  -0.8325  -0.5858  -0.5767  -0.5000
    -0.4241  -0.3998  -0.1054  -0.0744   0.0713   0.3664   0.3791   0.4431
     0.7494   0.7500   0.9178   1.1767   1.3460   1.4835   1.5114   1.5505
     1.6051   1.6810   1.6958   2.0592

          k = 0.0233 0.0135 0.0000 ( 29019 PWs)   bands (ev):

   -42.3734 -42.3670 -42.3331 -42.3306 -42.3283 -42.3250 -42.3138 -42.3120
   -41.8053 -41.7687 -41.7663 -41.7649 -22.4639 -22.4629 -22.4530 -22.4490
   -22.4422 -22.4326 -22.4190 -22.3819 -22.3479 -22.3410 -22.3387 -22.3212
   -22.3089 -22.3058 -22.1670 -22.1669 -22.1585 -22.1520 -22.1438 -22.1311
   -22.0809 -22.0651 -22.0577 -22.0421 -21.9129 -21.9125 -21.9024 -21.7135
   -21.6899 -21.6884 -21.6871 -21.6445 -21.6435 -21.6216 -21.5593 -21.5374
    -3.4140  -2.8062  -1.8491  -1.0642  -0.8325  -0.5858  -0.5767  -0.5000
    -0.4241  -0.3998  -0.1054  -0.0744   0.0713   0.3664   0.3791   0.4431
     0.7494   0.7500   0.9178   1.1767   1.3460   1.4835   1.5114   1.5505
     1.6051   1.6810   1.6958   2.0592

          k = 0.0233 0.0404 0.0000 ( 29087 PWs)   bands (ev):

   -42.3704 -42.3618 -42.3337 -42.3331 -42.3315 -42.3240 -42.3173 -42.3116
   -41.8001 -41.7716 -41.7706 -41.7631 -22.4429 -22.4288 -22.4175 -22.4155
   -22.4112 -22.4000 -22.3889 -22.3775 -22.3453 -22.3416 -22.3346 -22.3252
   -22.3176 -22.3063 -22.2186 -22.2070 -22.1528 -22.1521 -22.1440 -22.1395
   -22.1342 -22.1152 -22.0718 -22.0558 -21.8954 -21.8692 -21.8691 -21.7083
   -21.6938 -21.6904 -21.6896 -21.6851 -21.6302 -21.6294 -21.6104 -21.5512
    -3.2063  -2.6110  -1.6774  -1.0098  -0.9991  -0.7944  -0.5360  -0.4386
    -0.1968  -0.1339   0.0749   0.1666   0.2669   0.4966   0.5286   0.5789
     0.8137   0.8272   0.9652   1.1544   1.2572   1.3242   1.3855   1.4526
     1.4634   1.5410   1.5686   1.7523

          k = 0.0233-0.0942 0.0000 ( 29098 PWs)   bands (ev):

   -42.3670 -42.3526 -42.3419 -42.3338 -42.3324 -42.3228 -42.3220 -42.3111
   -41.7909 -41.7803 -41.7724 -41.7617 -22.4028 -22.3982 -22.3907 -22.3769
   -22.3713 -22.3614 -22.3547 -22.3406 -22.3369 -22.3305 -22.3224 -22.3201
   -22.3107 -22.3077 -22.2773 -22.2638 -22.2239 -22.2080 -22.1759 -22.1604
   -22.1271 -22.1172 -22.0973 -22.0790 -21.8598 -21.8331 -21.7905 -21.7494
   -21.7013 -21.6959 -21.6943 -21.6899 -21.6834 -21.6521 -21.6050 -21.5762
    -2.9656  -2.2290  -1.6423  -1.3199  -1.0464  -0.8138  -0.4305  -0.2817
     0.0683   0.1146   0.2198   0.4852   0.5680   0.6951   0.7376   0.7561
     0.8741   0.9505   0.9801   1.0541   1.1289   1.1706   1.2441   1.2802
     1.3316   1.3781   1.4119   1.5074

          k = 0.0233-0.0673 0.0000 ( 29098 PWs)   bands (ev):

   -42.3670 -42.3526 -42.3419 -42.3338 -42.3324 -42.3228 -42.3220 -42.3111
   -41.7909 -41.7803 -41.7724 -41.7617 -22.4028 -22.3982 -22.3907 -22.3769
   -22.3713 -22.3614 -22.3547 -22.3406 -22.3369 -22.3305 -22.3224 -22.3201
   -22.3107 -22.3077 -22.2773 -22.2638 -22.2239 -22.2080 -22.1759 -22.1604
   -22.1271 -22.1172 -22.0973 -22.0790 -21.8598 -21.8331 -21.7905 -21.7494
   -21.7013 -21.6960 -21.6943 -21.6899 -21.6834 -21.6521 -21.6050 -21.5762
    -2.9656  -2.2290  -1.6423  -1.3199  -1.0464  -0.8138  -0.4305  -0.2817
     0.0683   0.1146   0.2198   0.4852   0.5680   0.6951   0.7376   0.7561
     0.8741   0.9505   0.9801   1.0541   1.1289   1.1706   1.2441   1.2802
     1.3316   1.3781   1.4119   1.5074

          k = 0.0233-0.0404 0.0000 ( 29087 PWs)   bands (ev):

   -42.3704 -42.3618 -42.3337 -42.3331 -42.3315 -42.3240 -42.3173 -42.3116
   -41.8001 -41.7716 -41.7705 -41.7631 -22.4429 -22.4288 -22.4175 -22.4155
   -22.4112 -22.4000 -22.3889 -22.3775 -22.3453 -22.3416 -22.3346 -22.3252
   -22.3176 -22.3063 -22.2186 -22.2070 -22.1527 -22.1521 -22.1440 -22.1395
   -22.1342 -22.1151 -22.0718 -22.0558 -21.8954 -21.8692 -21.8691 -21.7083
   -21.6938 -21.6905 -21.6896 -21.6851 -21.6302 -21.6294 -21.6104 -21.5512
    -3.2063  -2.6110  -1.6774  -1.0098  -0.9991  -0.7944  -0.5360  -0.4386
    -0.1968  -0.1339   0.0749   0.1666   0.2669   0.4966   0.5286   0.5789
     0.8137   0.8272   0.9652   1.1544   1.2572   1.3242   1.3855   1.4526
     1.4634   1.5410   1.5686   1.7523

          k = 0.0466-0.0269 0.0000 ( 29058 PWs)   bands (ev):

   -42.3692 -42.3593 -42.3380 -42.3334 -42.3283 -42.3254 -42.3178 -42.3120
   -41.7976 -41.7764 -41.7662 -41.7651 -22.4270 -22.4250 -22.4130 -22.4110
   -22.4002 -22.3807 -22.3738 -22.3605 -22.3482 -22.3365 -22.3329 -22.3280
   -22.3161 -22.3093 -22.2072 -22.2071 -22.2025 -22.1892 -22.1610 -22.1423
   -22.1258 -22.1150 -22.0760 -22.0592 -21.8792 -21.8788 -21.8348 -21.7062
   -21.6933 -21.6874 -21.6872 -21.6825 -21.6804 -21.6360 -21.6040 -21.5553
    -3.1255  -2.5194  -1.6184  -1.3670  -0.7985  -0.6124  -0.4745  -0.4417
    -0.1728  -0.1586   0.0529   0.3291   0.3956   0.5595   0.5999   0.6329
     0.8342   0.8571   0.9767   1.1075   1.2332   1.3157   1.3204   1.3662
     1.4178   1.4419   1.4524   1.7346

          k = 0.0466 0.0000 0.0000 ( 29087 PWs)   bands (ev):

   -42.3704 -42.3618 -42.3337 -42.3331 -42.3315 -42.3240 -42.3173 -42.3116
   -41.8001 -41.7716 -41.7705 -41.7631 -22.4429 -22.4288 -22.4175 -22.4155
   -22.4112 -22.4000 -22.3889 -22.3775 -22.3453 -22.3416 -22.3346 -22.3252
   -22.3176 -22.3063 -22.2186 -22.2070 -22.1527 -22.1521 -22.1440 -22.1395
   -22.1342 -22.1151 -22.0718 -22.0559 -21.8954 -21.8692 -21.8691 -21.7083
   -21.6938 -21.6905 -21.6896 -21.6851 -21.6302 -21.6294 -21.6104 -21.5512
    -3.2063  -2.6110  -1.6774  -1.0098  -0.9991  -0.7944  -0.5360  -0.4386
    -0.1968  -0.1339   0.0749   0.1666   0.2669   0.4966   0.5286   0.5789
     0.8137   0.8272   0.9652   1.1544   1.2572   1.3242   1.3855   1.4526
     1.4634   1.5410   1.5686   1.7523

          k = 0.0466 0.0269 0.0000 ( 29058 PWs)   bands (ev):

   -42.3692 -42.3593 -42.3380 -42.3333 -42.3283 -42.3254 -42.3178 -42.3120
   -41.7976 -41.7764 -41.7663 -41.7650 -22.4270 -22.4250 -22.4130 -22.4110
   -22.4002 -22.3807 -22.3738 -22.3605 -22.3482 -22.3365 -22.3329 -22.3280
   -22.3162 -22.3092 -22.2072 -22.2071 -22.2025 -22.1891 -22.1610 -22.1423
   -22.1258 -22.1150 -22.0760 -22.0592 -21.8792 -21.8788 -21.8348 -21.7062
   -21.6933 -21.6874 -21.6871 -21.6825 -21.6803 -21.6360 -21.6040 -21.5553
    -3.1255  -2.5194  -1.6184  -1.3670  -0.7985  -0.6124  -0.4745  -0.4417
    -0.1728  -0.1586   0.0529   0.3291   0.3956   0.5595   0.5999   0.6329
     0.8342   0.8571   0.9767   1.1075   1.2332   1.3157   1.3204   1.3662
     1.4178   1.4419   1.4524   1.7346

          k = 0.0466-0.1076 0.0000 ( 29098 PWs)   bands (ev):

   -42.3670 -42.3526 -42.3419 -42.3338 -42.3324 -42.3228 -42.3220 -42.3111
   -41.7909 -41.7803 -41.7724 -41.7617 -22.4028 -22.3982 -22.3907 -22.3769
   -22.3713 -22.3614 -22.3547 -22.3406 -22.3369 -22.3305 -22.3224 -22.3201
   -22.3107 -22.3077 -22.2773 -22.2638 -22.2239 -22.2080 -22.1759 -22.1604
   -22.1271 -22.1172 -22.0973 -22.0790 -21.8598 -21.8331 -21.7905 -21.7494
   -21.7013 -21.6959 -21.6943 -21.6899 -21.6834 -21.6521 -21.6050 -21.5762
    -2.9656  -2.2290  -1.6423  -1.3199  -1.0464  -0.8138  -0.4305  -0.2817
     0.0683   0.1146   0.2198   0.4852   0.5680   0.6951   0.7376   0.7561
     0.8741   0.9505   0.9801   1.0541   1.1289   1.1706   1.2441   1.2802
     1.3316   1.3781   1.4119   1.5074

          k = 0.0466-0.0807 0.0000 ( 29103 PWs)   bands (ev):

   -42.3659 -42.3444 -42.3444 -42.3408 -42.3293 -42.3269 -42.3214 -42.3104
   -41.7823 -41.7822 -41.7806 -41.7603 -22.3918 -22.3628 -22.3627 -22.3570
   -22.3561 -22.3447 -22.3437 -22.3433 -22.3362 -22.3316 -22.3154 -22.3084
   -22.2991 -22.2989 -22.2977 -22.2867 -22.2801 -22.2760 -22.1375 -22.1335
   -22.1335 -22.1286 -22.1284 -22.1048 -21.8136 -21.8135 -21.7680 -21.7668
   -21.7667 -21.6960 -21.6956 -21.6938 -21.6824 -21.6128 -21.6127 -21.6122
    -2.8925  -1.7455  -1.7410  -1.6280  -0.9503  -0.9406  -0.6523   0.0667
     0.0687   0.3454   0.4201   0.4837   0.4924   0.7907   0.8000   0.8629
     0.9061   0.9120   1.0170   1.0327   1.1771   1.1779   1.1869   1.1946
     1.2730   1.3846   1.3968   1.4292

          k = 0.0466-0.0538 0.0000 ( 29098 PWs)   bands (ev):

   -42.3670 -42.3526 -42.3419 -42.3338 -42.3324 -42.3228 -42.3219 -42.3111
   -41.7909 -41.7803 -41.7724 -41.7617 -22.4028 -22.3982 -22.3907 -22.3769
   -22.3713 -22.3614 -22.3547 -22.3406 -22.3369 -22.3305 -22.3224 -22.3201
   -22.3107 -22.3077 -22.2773 -22.2638 -22.2239 -22.2080 -22.1759 -22.1604
   -22.1271 -22.1171 -22.0973 -22.0790 -21.8598 -21.8331 -21.7905 -21.7494
   -21.7013 -21.6960 -21.6943 -21.6899 -21.6834 -21.6521 -21.6050 -21.5762
    -2.9656  -2.2290  -1.6423  -1.3199  -1.0464  -0.8138  -0.4305  -0.2817
     0.0683   0.1146   0.2198   0.4852   0.5679   0.6951   0.7376   0.7561
     0.8741   0.9505   0.9801   1.0541   1.1289   1.1706   1.2441   1.2802
     1.3316   1.3781   1.4119   1.5074

          k =-0.0699 0.0404 0.0000 ( 29048 PWs)   bands (ev):

   -42.3669 -42.3498 -42.3475 -42.3335 -42.3283 -42.3255 -42.3200 -42.3120
   -41.7875 -41.7865 -41.7662 -41.7651 -22.4027 -22.3997 -22.3959 -22.3888
   -22.3796 -22.3671 -22.3621 -22.3397 -22.3293 -22.3291 -22.3224 -22.3123
   -22.2750 -22.2673 -22.2658 -22.2479 -22.2342 -22.2331 -22.2136 -22.2129
   -22.1030 -22.1009 -22.0984 -22.0741 -21.8558 -21.8554 -21.7383 -21.7370
   -21.7089 -21.7083 -21.6993 -21.6981 -21.6860 -21.6844 -21.5798 -21.5797
    -2.9536  -2.1092  -1.9684  -1.2921  -0.9990  -0.4122  -0.4112  -0.2935
    -0.1059   0.0153   0.0615   0.6901   0.6958   0.7439   0.7497   0.8079
     0.8277   0.9131   0.9828   1.0670   1.0927   1.0972   1.1036   1.1564
     1.3516   1.3746   1.4733   1.4947

          k =-0.0699 0.0673 0.0000 ( 29098 PWs)   bands (ev):

   -42.3670 -42.3526 -42.3419 -42.3338 -42.3324 -42.3228 -42.3219 -42.3111
   -41.7909 -41.7803 -41.7724 -41.7617 -22.4028 -22.3982 -22.3907 -22.3769
   -22.3713 -22.3614 -22.3547 -22.3406 -22.3369 -22.3305 -22.3224 -22.3201
   -22.3107 -22.3077 -22.2773 -22.2638 -22.2239 -22.2080 -22.1759 -22.1604
   -22.1271 -22.1171 -22.0973 -22.0790 -21.8598 -21.8331 -21.7905 -21.7494
   -21.7013 -21.6960 -21.6943 -21.6899 -21.6834 -21.6521 -21.6050 -21.5762
    -2.9656  -2.2290  -1.6423  -1.3199  -1.0464  -0.8138  -0.4305  -0.2817
     0.0683   0.1146   0.2198   0.4852   0.5680   0.6951   0.7376   0.7561
     0.8741   0.9505   0.9801   1.0541   1.1289   1.1706   1.2441   1.2802
     1.3316   1.3781   1.4119   1.5074

          k =-0.0699 0.0942 0.0000 ( 29098 PWs)   bands (ev):

   -42.3670 -42.3526 -42.3419 -42.3338 -42.3324 -42.3228 -42.3219 -42.3111
   -41.7909 -41.7803 -41.7724 -41.7617 -22.4028 -22.3982 -22.3907 -22.3769
   -22.3713 -22.3614 -22.3547 -22.3406 -22.3369 -22.3305 -22.3224 -22.3201
   -22.3107 -22.3077 -22.2773 -22.2638 -22.2239 -22.2080 -22.1759 -22.1604
   -22.1271 -22.1172 -22.0973 -22.0790 -21.8598 -21.8331 -21.7905 -21.7494
   -21.7013 -21.6960 -21.6943 -21.6899 -21.6834 -21.6521 -21.6050 -21.5762
    -2.9656  -2.2290  -1.6423  -1.3199  -1.0464  -0.8138  -0.4305  -0.2817
     0.0683   0.1146   0.2198   0.4852   0.5680   0.6951   0.7376   0.7561
     0.8741   0.9505   0.9801   1.0541   1.1289   1.1706   1.2441   1.2802
     1.3316   1.3781   1.4119   1.5074

          k =-0.0699-0.0404 0.0000 ( 29048 PWs)   bands (ev):

   -42.3669 -42.3498 -42.3475 -42.3335 -42.3283 -42.3255 -42.3200 -42.3120
   -41.7876 -41.7865 -41.7663 -41.7650 -22.4027 -22.3997 -22.3959 -22.3888
   -22.3796 -22.3671 -22.3621 -22.3396 -22.3293 -22.3291 -22.3224 -22.3123
   -22.2750 -22.2673 -22.2658 -22.2478 -22.2342 -22.2331 -22.2136 -22.2129
   -22.1030 -22.1010 -22.0984 -22.0741 -21.8559 -21.8554 -21.7383 -21.7369
   -21.7089 -21.7083 -21.6994 -21.6980 -21.6861 -21.6844 -21.5798 -21.5797
    -2.9536  -2.1092  -1.9684  -1.2921  -0.9990  -0.4122  -0.4112  -0.2935
    -0.1059   0.0153   0.0615   0.6901   0.6958   0.7439   0.7497   0.8079
     0.8277   0.9131   0.9828   1.0669   1.0927   1.0972   1.1036   1.1563
     1.3516   1.3746   1.4733   1.4947

     the Fermi energy is     0.9771 ev

!    total energy              =   -1125.50497776 Ry
     Harris-Foulkes estimate   =   -1125.50497908 Ry
     estimated scf accuracy    <       0.00000251 Ry

     The total energy is the sum of the following terms:

     one-electron contribution =   -5401.25127946 Ry
     hartree contribution      =    2692.71713483 Ry
     xc contribution           =    -339.54433769 Ry
     ewald contribution        =    1922.70164274 Ry
     electric field correction =       0.00000306 Ry
     smearing contrib. (-TS)   =      -0.12814124 Ry

     convergence has been achieved in   8 iterations
 
 BEEF-vdW xc energy contributions
           1 :   -296.203165540508     
           2 :    266.033684966819     
           3 :   -214.049440723541     
           4 :    152.999924041267     
           5 :   -94.7956669309995     
           6 :    46.9362095721643     
           7 :   -11.9527882222850     
           8 :   -10.8413773112655     
           9 :    23.0977089455507     
          10 :   -26.1946529646082     
          11 :    21.3835890358049     
          12 :   -10.6397909503272     
          13 :   -2.82488866590472     
          14 :    15.0236973271745     
          15 :   -22.4732126547722     
          16 :    23.4875475866294     
          17 :   -18.6580363348817     
          18 :    10.2557704803767     
          19 :   -1.01949998360499     
          20 :   -6.89712690886608     
          21 :    12.3195330963346     
          22 :   -14.8528208739810     
          23 :    14.5192704544892     
          24 :   -11.6084094131990     
          25 :    6.77727376722805     
          26 :   -1.15091242152880     
          27 :   -3.84628913074380     
          28 :    6.95624131572390     
          29 :   -7.59849602364773     
          30 :    6.08914547177153     
          31 :   -28.3078235337855     
          32 :   -19.3544614935726     

     Forces acting on atoms (Ry/au):


     negative rho (up, down):  1.766E-05 0.000E+00
     atom    1 type  1   force =    -0.00000928    0.00000201    0.00494383
     atom    2 type  1   force =     0.00000836   -0.00086609    0.00524148
     atom    3 type  1   force =    -0.00075223    0.00043636    0.00523885
     atom    4 type  1   force =     0.00074858    0.00042356    0.00524373
     atom    5 type  1   force =    -0.00065410    0.00037982    0.00074503
     atom    6 type  1   force =     0.00065694    0.00038942    0.00074472
     atom    7 type  1   force =     0.00000735   -0.00000452   -0.00333473
     atom    8 type  1   force =    -0.00000787   -0.00076100    0.00073857
     atom    9 type  1   force =     0.01734218    0.01003109    0.00586922
     atom   10 type  1   force =    -0.01733977    0.01001222    0.00588012
     atom   11 type  1   force =    -0.00001339   -0.02003316    0.00586820
     atom   12 type  1   force =     0.00001238   -0.00000899   -0.01110642
     atom   13 type  2   force =     0.00000087   -0.00000072   -0.02607259

     Total force =     0.045937     Total SCF correction =     0.002816


     entering subroutine stress ...


     negative rho (up, down):  1.766E-05 0.000E+00
          total   stress  (Ry/bohr**3)                   (kbar)     P=   -4.19
  -0.00002434   0.00000000   0.00000000         -3.58      0.00      0.00
   0.00000000  -0.00002434  -0.00000000          0.00     -3.58     -0.00
   0.00000000  -0.00000000  -0.00003679          0.00     -0.00     -5.41


     number of scf cycles    =   2
     number of bfgs steps    =   1

     energy   old            =   -1125.5025126709 Ry
     energy   new            =   -1125.5049777624 Ry

     CASE: energy  _new < energy  _old


     WARNING: bfgs curvature condition failed, Theta= 0.884
     new trust radius        =       0.0289824643 bohr
     new conv_thr            =       0.0000001000 Ry


ATOMIC_POSITIONS (crystal)
Y1       0.166666667   0.166666667   0.386999750    0   0   0
Y1       0.666666667   0.166666667   0.386999750    0   0   0
Y1       0.166666667   0.666666667   0.386999750    0   0   0
Y1       0.666666667   0.666666667   0.386999750    0   0   0
Y1       0.833333333   0.333333333   0.500000000    0   0   0
Y1       0.333333333   0.333333333   0.500000000    0   0   0
Y1       0.833333333   0.833333333   0.500000000    0   0   0
Y1       0.333333333   0.833333333   0.500000000    0   0   0
Y1       0.001971633   0.001963493   0.613273228
Y1       0.496061397   0.001970458   0.613273550
Y1       0.001973275   0.496064088   0.613274117
Y1       0.499991698   0.500002763   0.612510466
H1       0.166666354   0.166666882   0.667459649



     Writing output data file calc.save
     Check: negative starting charge=   -0.000596
     NEW-OLD atomic charge density approx. for the potential
     Check: negative starting charge=   -0.000597

     negative rho (up, down):  3.475E-05 0.000E+00
 
     Adding external electric field

     Computed dipole along edir(3) : 
        Dipole               -0.0433 Ry au,         -0.1101 Debye
        Dipole field         -0.0001 Ry au
 
        Potential amp.        0.0067 Ry
        Total length         47.6094 bohr
 

     total cpu time spent up to now is     1108.6 secs

     per-process dynamical memory:   116.9 Mb

     Self-consistent Calculation

     iteration #  1     ecut=    36.75 Ry     beta=0.30
     Davidson diagonalization with overlap
     ethr =  1.00E-06,  avg # of iterations =  5.8

     negative rho (up, down):  2.709E-05 0.000E+00
 
     Adding external electric field

     Computed dipole along edir(3) : 
        Dipole                0.0337 Ry au,          0.0856 Debye
        Dipole field          0.0001 Ry au
 
        Potential amp.       -0.0052 Ry
        Total length         47.6094 bohr
 

     total cpu time spent up to now is     1146.8 secs

     total energy              =   -1125.50672724 Ry
     Harris-Foulkes estimate   =   -1125.50737234 Ry
     estimated scf accuracy    <       0.00144848 Ry

     iteration #  2     ecut=    36.75 Ry     beta=0.30
     Davidson diagonalization with overlap
     ethr =  1.09E-06,  avg # of iterations =  8.8

     negative rho (up, down):  2.423E-05 0.000E+00
 
     Adding external electric field

     Computed dipole along edir(3) : 
        Dipole               -0.0574 Ry au,         -0.1459 Debye
        Dipole field         -0.0001 Ry au
 
        Potential amp.        0.0089 Ry
        Total length         47.6094 bohr
 

     total cpu time spent up to now is     1182.4 secs

     total energy              =   -1125.50378633 Ry
     Harris-Foulkes estimate   =   -1125.50997518 Ry
     estimated scf accuracy    <       0.22113890 Ry

     iteration #  3     ecut=    36.75 Ry     beta=0.30
     Davidson diagonalization with overlap
     ethr =  1.09E-06,  avg # of iterations =  8.2

     negative rho (up, down):  2.366E-05 0.000E+00
 
     Adding external electric field

     Computed dipole along edir(3) : 
        Dipole               -0.0336 Ry au,         -0.0854 Debye
        Dipole field         -0.0001 Ry au
 
        Potential amp.        0.0052 Ry
        Total length         47.6094 bohr
 

     total cpu time spent up to now is     1216.5 secs

     total energy              =   -1125.50653542 Ry
     Harris-Foulkes estimate   =   -1125.50780871 Ry
     estimated scf accuracy    <       0.03060662 Ry

     iteration #  4     ecut=    36.75 Ry     beta=0.30
     Davidson diagonalization with overlap
     ethr =  1.09E-06,  avg # of iterations =  7.2

     negative rho (up, down):  2.260E-05 0.000E+00
 
     Adding external electric field

     Computed dipole along edir(3) : 
        Dipole               -0.0355 Ry au,         -0.0903 Debye
        Dipole field         -0.0001 Ry au
 
        Potential amp.        0.0055 Ry
        Total length         47.6094 bohr
 

     total cpu time spent up to now is     1249.1 secs

     total energy              =   -1125.50716563 Ry
     Harris-Foulkes estimate   =   -1125.50729681 Ry
     estimated scf accuracy    <       0.00109892 Ry

     iteration #  5     ecut=    36.75 Ry     beta=0.30
     Davidson diagonalization with overlap
     ethr =  8.26E-07,  avg # of iterations =  3.8

     negative rho (up, down):  1.996E-05 0.000E+00
 
     Adding external electric field

     Computed dipole along edir(3) : 
        Dipole               -0.0359 Ry au,         -0.0912 Debye
        Dipole field         -0.0001 Ry au
 
        Potential amp.        0.0056 Ry
        Total length         47.6094 bohr
 

     total cpu time spent up to now is     1276.6 secs

     total energy              =   -1125.50722070 Ry
     Harris-Foulkes estimate   =   -1125.50722586 Ry
     estimated scf accuracy    <       0.00004538 Ry

     iteration #  6     ecut=    36.75 Ry     beta=0.30
     Davidson diagonalization with overlap
     ethr =  3.41E-08,  avg # of iterations =  8.3

     negative rho (up, down):  1.947E-05 0.000E+00
 
     Adding external electric field

     Computed dipole along edir(3) : 
        Dipole               -0.0351 Ry au,         -0.0893 Debye
        Dipole field         -0.0001 Ry au
 
        Potential amp.        0.0054 Ry
        Total length         47.6094 bohr
 

     total cpu time spent up to now is     1311.7 secs

     total energy              =   -1125.50723698 Ry
     Harris-Foulkes estimate   =   -1125.50724645 Ry
     estimated scf accuracy    <       0.00008527 Ry

     iteration #  7     ecut=    36.75 Ry     beta=0.30
     Davidson diagonalization with overlap
     ethr =  3.41E-08,  avg # of iterations =  4.8

     negative rho (up, down):  1.794E-05 0.000E+00
 
     Adding external electric field

     Computed dipole along edir(3) : 
        Dipole               -0.0354 Ry au,         -0.0899 Debye
        Dipole field         -0.0001 Ry au
 
        Potential amp.        0.0055 Ry
        Total length         47.6094 bohr
 

     total cpu time spent up to now is     1339.4 secs

     total energy              =   -1125.50723857 Ry
     Harris-Foulkes estimate   =   -1125.50724011 Ry
     estimated scf accuracy    <       0.00001224 Ry

     iteration #  8     ecut=    36.75 Ry     beta=0.30
     Davidson diagonalization with overlap
     ethr =  9.20E-09,  avg # of iterations =  7.2

     negative rho (up, down):  1.774E-05 0.000E+00
 
     Adding external electric field

     Computed dipole along edir(3) : 
        Dipole               -0.0353 Ry au,         -0.0898 Debye
        Dipole field         -0.0001 Ry au
 
        Potential amp.        0.0055 Ry
        Total length         47.6094 bohr
 

     total cpu time spent up to now is     1372.8 secs

     total energy              =   -1125.50724061 Ry
     Harris-Foulkes estimate   =   -1125.50724215 Ry
     estimated scf accuracy    <       0.00001222 Ry

     iteration #  9     ecut=    36.75 Ry     beta=0.30
     Davidson diagonalization with overlap
     ethr =  9.18E-09,  avg # of iterations =  4.0

     negative rho (up, down):  1.767E-05 0.000E+00
 
     Adding external electric field

     Computed dipole along edir(3) : 
        Dipole               -0.0359 Ry au,         -0.0911 Debye
        Dipole field         -0.0001 Ry au
 
        Potential amp.        0.0056 Ry
        Total length         47.6094 bohr
 

     total cpu time spent up to now is     1400.5 secs

     total energy              =   -1125.50724108 Ry
     Harris-Foulkes estimate   =   -1125.50724114 Ry
     estimated scf accuracy    <       0.00000121 Ry

     iteration # 10     ecut=    36.75 Ry     beta=0.30
     Davidson diagonalization with overlap
     ethr =  9.09E-10,  avg # of iterations =  7.7

     negative rho (up, down):  1.764E-05 0.000E+00
 
     Adding external electric field

     Computed dipole along edir(3) : 
        Dipole               -0.0359 Ry au,         -0.0912 Debye
        Dipole field         -0.0001 Ry au
 
        Potential amp.        0.0056 Ry
        Total length         47.6094 bohr
 

     total cpu time spent up to now is     1435.2 secs

     total energy              =   -1125.50724149 Ry
     Harris-Foulkes estimate   =   -1125.50724160 Ry
     estimated scf accuracy    <       0.00000090 Ry

     iteration # 11     ecut=    36.75 Ry     beta=0.30
     Davidson diagonalization with overlap
     ethr =  6.74E-10,  avg # of iterations =  1.3

     negative rho (up, down):  1.763E-05 0.000E+00
 
     Adding external electric field

     Computed dipole along edir(3) : 
        Dipole               -0.0360 Ry au,         -0.0914 Debye
        Dipole field         -0.0001 Ry au
 
        Potential amp.        0.0056 Ry
        Total length         47.6094 bohr
 

     total cpu time spent up to now is     1461.3 secs

     total energy              =   -1125.50724149 Ry
     Harris-Foulkes estimate   =   -1125.50724151 Ry
     estimated scf accuracy    <       0.00000028 Ry

     iteration # 12     ecut=    36.75 Ry     beta=0.30
     Davidson diagonalization with overlap
     ethr =  2.13E-10,  avg # of iterations =  7.2

     negative rho (up, down):  1.759E-05 0.000E+00

     negative rho (up, down):  1.759E-05 0.000E+00

     negative rho (up, down):  1.759E-05 0.000E+00

     negative rho (up, down):  1.759E-05 0.000E+00

     negative rho (up, down):  1.759E-05 0.000E+00

     negative rho (up, down):  1.759E-05 0.000E+00

     negative rho (up, down):  1.759E-05 0.000E+00

     negative rho (up, down):  1.759E-05 0.000E+00

[...]

   -42.3122 -42.3010 -42.2927 -42.2818 -42.2721 -42.2543 -42.2456 -42.1661
   -41.7591 -41.6945 -41.6842 -41.6734 -22.3583 -22.3389 -22.3328 -22.3264
   -22.3165 -22.3001 -22.2971 -22.2847 -22.2805 -22.2791 -22.2680 -22.2559
   -22.2428 -22.2363 -22.2082 -22.1809 -22.1650 -22.1339 -22.1118 -22.0853
   -22.0564 -22.0557 -22.0208 -21.9783 -21.7987 -21.7550 -21.7238 -21.6796
   -21.6740 -21.6193 -21.6067 -21.6003 -21.5967 -21.5736 -21.5360 -21.4949
    -3.5296  -2.2139  -1.5981  -1.2766  -1.0035  -0.7639  -0.3747  -0.2258
     0.1010   0.1620   0.2556   0.5223   0.6036   0.7261   0.7742   0.8046
     0.9106   0.9956   1.0248   1.1065   1.1631   1.2127   1.3013   1.3226
     1.3818   1.4191   1.4727   1.5482

          k = 0.0233-0.0673 0.0000 ( 29098 PWs)   bands (ev):

   -42.3122 -42.3010 -42.2927 -42.2818 -42.2721 -42.2543 -42.2456 -42.1661
   -41.7591 -41.6945 -41.6842 -41.6734 -22.3583 -22.3389 -22.3328 -22.3264
   -22.3165 -22.3001 -22.2971 -22.2847 -22.2805 -22.2791 -22.2680 -22.2559
   -22.2428 -22.2363 -22.2082 -22.1809 -22.1650 -22.1339 -22.1118 -22.0853
   -22.0564 -22.0557 -22.0208 -21.9783 -21.7987 -21.7550 -21.7238 -21.6796
   -21.6740 -21.6193 -21.6067 -21.6003 -21.5967 -21.5736 -21.5360 -21.4949
    -3.5296  -2.2139  -1.5981  -1.2766  -1.0035  -0.7639  -0.3747  -0.2258
     0.1010   0.1620   0.2556   0.5223   0.6036   0.7261   0.7742   0.8046
     0.9106   0.9956   1.0247   1.1065   1.1631   1.2127   1.3014   1.3226
     1.3818   1.4191   1.4727   1.5482

          k = 0.0233-0.0404 0.0000 ( 29087 PWs)   bands (ev):

   -42.3211 -42.2936 -42.2898 -42.2831 -42.2773 -42.2500 -42.2453 -42.1655
   -41.7607 -41.6974 -41.6793 -41.6738 -22.3982 -22.3724 -22.3699 -22.3638
   -22.3569 -22.3194 -22.3125 -22.3062 -22.2962 -22.2950 -22.2859 -22.2625
   -22.2544 -22.2089 -22.1764 -22.1154 -22.1113 -22.1098 -22.0924 -22.0540
   -22.0445 -22.0303 -22.0099 -21.9570 -21.8321 -21.8081 -21.7770 -21.6816
   -21.6236 -21.6094 -21.5998 -21.5978 -21.5626 -21.5566 -21.5275 -21.4731
    -3.6618  -2.6706  -1.6734  -0.9694  -0.9502  -0.7368  -0.5004  -0.3855
    -0.1578  -0.0945   0.1159   0.2035   0.3229   0.5483   0.5824   0.6346
     0.8593   0.8925   1.0595   1.1991   1.2738   1.3624   1.4268   1.4928
     1.5208   1.5877   1.6109   1.7876

          k = 0.0466-0.0269 0.0000 ( 29058 PWs)   bands (ev):

   -42.3186 -42.2973 -42.2872 -42.2844 -42.2757 -42.2515 -42.2451 -42.1657
   -41.7602 -41.6969 -41.6802 -41.6740 -22.3810 -22.3802 -22.3571 -22.3506
   -22.3343 -22.3136 -22.3080 -22.3033 -22.2901 -22.2872 -22.2807 -22.2649
   -22.2539 -22.2097 -22.1659 -22.1639 -22.1190 -22.1145 -22.0930 -22.0840
   -22.0370 -22.0345 -22.0212 -21.9590 -21.8241 -21.7961 -21.7578 -21.6809
   -21.6233 -21.6087 -21.6014 -21.5995 -21.5962 -21.5540 -21.5344 -21.4759
    -3.6172  -2.5559  -1.5943  -1.3282  -0.7390  -0.5735  -0.4287  -0.3962
    -0.1330  -0.1149   0.0950   0.3610   0.4464   0.6069   0.6474   0.6885
     0.8944   0.9049   1.0581   1.1512   1.2555   1.3574   1.3675   1.4150
     1.4503   1.4834   1.5113   1.7609

          k = 0.0466 0.0000 0.0000 ( 29087 PWs)   bands (ev):

   -42.3211 -42.2936 -42.2898 -42.2831 -42.2773 -42.2500 -42.2453 -42.1655
   -41.7607 -41.6974 -41.6793 -41.6737 -22.3982 -22.3724 -22.3699 -22.3638
   -22.3569 -22.3194 -22.3125 -22.3062 -22.2962 -22.2950 -22.2859 -22.2624
   -22.2544 -22.2089 -22.1764 -22.1154 -22.1113 -22.1098 -22.0924 -22.0540
   -22.0445 -22.0303 -22.0099 -21.9570 -21.8321 -21.8081 -21.7770 -21.6816
   -21.6236 -21.6094 -21.5998 -21.5978 -21.5626 -21.5566 -21.5275 -21.4731
    -3.6618  -2.6706  -1.6734  -0.9694  -0.9502  -0.7368  -0.5004  -0.3855
    -0.1578  -0.0945   0.1159   0.2035   0.3229   0.5483   0.5824   0.6346
     0.8593   0.8925   1.0595   1.1991   1.2738   1.3624   1.4268   1.4928
     1.5208   1.5877   1.6109   1.7876

          k = 0.0466 0.0269 0.0000 ( 29058 PWs)   bands (ev):

   -42.3186 -42.2973 -42.2872 -42.2844 -42.2757 -42.2515 -42.2451 -42.1657
   -41.7602 -41.6969 -41.6802 -41.6740 -22.3810 -22.3802 -22.3571 -22.3506
   -22.3343 -22.3136 -22.3080 -22.3033 -22.2901 -22.2872 -22.2807 -22.2649
   -22.2539 -22.2097 -22.1659 -22.1639 -22.1190 -22.1145 -22.0930 -22.0840
   -22.0370 -22.0345 -22.0212 -21.9590 -21.8241 -21.7961 -21.7578 -21.6809
   -21.6233 -21.6087 -21.6014 -21.5995 -21.5962 -21.5540 -21.5344 -21.4759
    -3.6172  -2.5559  -1.5943  -1.3282  -0.7390  -0.5735  -0.4287  -0.3962
    -0.1330  -0.1149   0.0950   0.3610   0.4464   0.6069   0.6474   0.6885
     0.8944   0.9049   1.0581   1.1512   1.2555   1.3574   1.3675   1.4150
     1.4503   1.4834   1.5113   1.7609

          k = 0.0466-0.1076 0.0000 ( 29098 PWs)   bands (ev):

   -42.3122 -42.3010 -42.2927 -42.2818 -42.2721 -42.2543 -42.2456 -42.1661
   -41.7591 -41.6945 -41.6842 -41.6734 -22.3583 -22.3389 -22.3329 -22.3264
   -22.3165 -22.3001 -22.2971 -22.2847 -22.2805 -22.2791 -22.2680 -22.2559
   -22.2428 -22.2363 -22.2082 -22.1809 -22.1650 -22.1339 -22.1118 -22.0853
   -22.0564 -22.0557 -22.0208 -21.9783 -21.7987 -21.7550 -21.7238 -21.6796
   -21.6740 -21.6193 -21.6067 -21.6003 -21.5967 -21.5736 -21.5360 -21.4949
    -3.5296  -2.2139  -1.5981  -1.2766  -1.0035  -0.7639  -0.3747  -0.2258
     0.1010   0.1620   0.2556   0.5223   0.6036   0.7261   0.7742   0.8046
     0.9106   0.9956   1.0248   1.1065   1.1631   1.2127   1.3014   1.3226
     1.3818   1.4191   1.4727   1.5482

          k = 0.0466-0.0807 0.0000 ( 29103 PWs)   bands (ev):

   -42.3061 -42.3005 -42.3005 -42.2805 -42.2699 -42.2557 -42.2462 -42.1663
   -41.7586 -41.6900 -41.6897 -41.6730 -22.3245 -22.3158 -22.3152 -22.3112
   -22.3027 -22.3027 -22.2923 -22.2808 -22.2754 -22.2665 -22.2584 -22.2542
   -22.2539 -22.2529 -22.2232 -22.2069 -22.1831 -22.1570 -22.0936 -22.0932
   -22.0923 -22.0369 -22.0149 -22.0099 -21.7545 -21.7538 -21.6928 -21.6864
   -21.6826 -21.6787 -21.6057 -21.6010 -21.5962 -21.5456 -21.5445 -21.5198
    -3.4871  -1.6982  -1.6950  -1.5989  -0.8925  -0.8862  -0.6051   0.1128
     0.1484   0.3686   0.4529   0.5104   0.5305   0.8251   0.8300   0.8693
     0.9275   0.9609   1.0348   1.1047   1.2018   1.2128   1.2268   1.2509
     1.3256   1.4356   1.4922   1.5285

          k = 0.0466-0.0538 0.0000 ( 29098 PWs)   bands (ev):

   -42.3122 -42.3010 -42.2927 -42.2818 -42.2721 -42.2543 -42.2456 -42.1661
   -41.7591 -41.6945 -41.6842 -41.6734 -22.3583 -22.3389 -22.3329 -22.3264
   -22.3165 -22.3001 -22.2971 -22.2847 -22.2805 -22.2791 -22.2680 -22.2559
   -22.2428 -22.2363 -22.2082 -22.1809 -22.1650 -22.1339 -22.1118 -22.0853
   -22.0564 -22.0557 -22.0208 -21.9783 -21.7987 -21.7550 -21.7238 -21.6796
   -21.6740 -21.6193 -21.6067 -21.6003 -21.5967 -21.5736 -21.5360 -21.4949
    -3.5296  -2.2139  -1.5981  -1.2766  -1.0035  -0.7639  -0.3747  -0.2258
     0.1010   0.1620   0.2556   0.5223   0.6036   0.7261   0.7742   0.8046
     0.9106   0.9956   1.0248   1.1065   1.1631   1.2127   1.3014   1.3226
     1.3818   1.4191   1.4727   1.5482

          k =-0.0699 0.0404 0.0000 ( 29048 PWs)   bands (ev):

   -42.3099 -42.3059 -42.2874 -42.2844 -42.2719 -42.2550 -42.2451 -42.1661
   -41.7591 -41.6952 -41.6830 -41.6740 -22.3558 -22.3545 -22.3362 -22.3288
   -22.3260 -22.2985 -22.2885 -22.2882 -22.2840 -22.2760 -22.2534 -22.2294
   -22.2248 -22.2208 -22.2095 -22.1905 -22.1900 -22.1436 -22.1301 -22.0856
   -22.0605 -22.0582 -22.0100 -21.9706 -21.8047 -21.7611 -21.7021 -21.6796
   -21.6504 -21.6257 -21.6216 -21.6070 -21.5988 -21.5965 -21.5221 -21.4889
    -3.5269  -2.0623  -1.9493  -1.2315  -0.9641  -0.3744  -0.3658  -0.2230
    -0.0682   0.0643   0.0933   0.7201   0.7259   0.7674   0.7797   0.8675
     0.8832   0.9424   1.0121   1.1180   1.1257   1.1415   1.1754   1.2191
     1.3793   1.4495   1.4953   1.5596

          k =-0.0699 0.0673 0.0000 ( 29098 PWs)   bands (ev):

   -42.3122 -42.3010 -42.2927 -42.2818 -42.2721 -42.2543 -42.2456 -42.1661
   -41.7591 -41.6945 -41.6842 -41.6734 -22.3583 -22.3389 -22.3328 -22.3264
   -22.3165 -22.3001 -22.2971 -22.2847 -22.2805 -22.2791 -22.2680 -22.2559
   -22.2428 -22.2363 -22.2082 -22.1809 -22.1650 -22.1339 -22.1118 -22.0853
   -22.0564 -22.0557 -22.0208 -21.9783 -21.7987 -21.7550 -21.7238 -21.6796
   -21.6740 -21.6193 -21.6067 -21.6003 -21.5967 -21.5736 -21.5360 -21.4949
    -3.5296  -2.2139  -1.5981  -1.2766  -1.0035  -0.7639  -0.3747  -0.2258
     0.1010   0.1620   0.2556   0.5223   0.6036   0.7261   0.7742   0.8046
     0.9106   0.9956   1.0248   1.1065   1.1631   1.2127   1.3014   1.3226
     1.3818   1.4191   1.4727   1.5482

          k =-0.0699 0.0942 0.0000 ( 29098 PWs)   bands (ev):

   -42.3122 -42.3010 -42.2927 -42.2818 -42.2721 -42.2543 -42.2456 -42.1661
   -41.7591 -41.6945 -41.6842 -41.6734 -22.3583 -22.3389 -22.3329 -22.3264
   -22.3165 -22.3001 -22.2971 -22.2847 -22.2805 -22.2791 -22.2680 -22.2559
   -22.2428 -22.2363 -22.2082 -22.1809 -22.1650 -22.1339 -22.1118 -22.0853
   -22.0564 -22.0557 -22.0208 -21.9783 -21.7987 -21.7550 -21.7238 -21.6796
   -21.6740 -21.6193 -21.6067 -21.6003 -21.5967 -21.5736 -21.5360 -21.4949
    -3.5296  -2.2139  -1.5981  -1.2766  -1.0035  -0.7639  -0.3747  -0.2258
     0.1010   0.1620   0.2556   0.5223   0.6036   0.7261   0.7742   0.8046
     0.9106   0.9956   1.0247   1.1065   1.1631   1.2127   1.3014   1.3226
     1.3818   1.4191   1.4727   1.5482

          k =-0.0699-0.0404 0.0000 ( 29048 PWs)   bands (ev):

   -42.3099 -42.3059 -42.2874 -42.2844 -42.2719 -42.2549 -42.2451 -42.1661
   -41.7591 -41.6951 -41.6830 -41.6740 -22.3558 -22.3545 -22.3362 -22.3288
   -22.3260 -22.2985 -22.2885 -22.2882 -22.2840 -22.2760 -22.2534 -22.2294
   -22.2248 -22.2208 -22.2095 -22.1905 -22.1900 -22.1436 -22.1301 -22.0856
   -22.0605 -22.0582 -22.0100 -21.9706 -21.8047 -21.7611 -21.7021 -21.6796
   -21.6504 -21.6257 -21.6216 -21.6070 -21.5988 -21.5965 -21.5221 -21.4889
    -3.5269  -2.0623  -1.9493  -1.2315  -0.9641  -0.3744  -0.3658  -0.2230
    -0.0682   0.0643   0.0933   0.7201   0.7259   0.7674   0.7797   0.8675
     0.8832   0.9424   1.0121   1.1180   1.1257   1.1415   1.1754   1.2191
     1.3793   1.4495   1.4953   1.5596

     the Fermi energy is     1.0246 ev

!    total energy              =   -1125.51876199 Ry
     Harris-Foulkes estimate   =   -1125.51876210 Ry
     estimated scf accuracy    <       0.00000004 Ry

     The total energy is the sum of the following terms:

     one-electron contribution =   -5442.21392753 Ry
     hartree contribution      =    2713.46507839 Ry
     xc contribution           =    -339.64239132 Ry
     ewald contribution        =    1943.00098530 Ry
     electric field correction =       0.00000099 Ry
     smearing contrib. (-TS)   =      -0.12850782 Ry

     convergence has been achieved in   7 iterations
 
 BEEF-vdW xc energy contributions
           1 :   -296.301465565913     
           2 :    266.158308477826     
           3 :   -214.188600360565     
           4 :    153.107464990803     
           5 :   -94.8276818944282     
           6 :    46.8858732310198     
           7 :   -11.8566032838992     
           8 :   -10.9301843400583     
           9 :    23.1459140659750     
          10 :   -26.2065864375238     
          11 :    21.3893147400893     
          12 :   -10.6671073670124     
          13 :   -2.77246870127209     
          14 :    14.9682578373620     
          15 :   -22.4437342606024     
          16 :    23.4951486259872     
          17 :   -18.6839886091262     
          18 :    10.2636157892501     
          19 :  -0.983635532387780     
          20 :   -6.96980776988943     
          21 :    12.3942239228057     
          22 :   -14.8943184482296     
          23 :    14.5191463395603     
          24 :   -11.5901079328664     
          25 :    6.77711619399975     
          26 :   -1.19158827462013     
          27 :   -3.77016093822704     
          28 :    6.87177908882938     
          29 :   -7.53353875635946     
          30 :    6.05243446249870     
          31 :   -28.3156119833815     
          32 :   -19.3665696102560     

     Forces acting on atoms (Ry/au):


     negative rho (up, down):  1.658E-05 0.000E+00
     atom    1 type  1   force =    -0.00000003   -0.00000003    0.00388183
     atom    2 type  1   force =     0.00000013   -0.00152048    0.00462846
     atom    3 type  1   force =    -0.00131739    0.00076064    0.00462899
     atom    4 type  1   force =     0.00131711    0.00076014    0.00462897
     atom    5 type  1   force =     0.00127352   -0.00073419   -0.00404184
     atom    6 type  1   force =    -0.00127354   -0.00073535   -0.00404048
     atom    7 type  1   force =    -0.00000076   -0.00000014   -0.00161188
     atom    8 type  1   force =     0.00000023    0.00147024   -0.00404219
     atom    9 type  1   force =     0.00157371    0.00090206   -0.00158306
     atom   10 type  1   force =    -0.00157317    0.00090789   -0.00158371
     atom   11 type  1   force =     0.00000366   -0.00181378   -0.00158630
     atom   12 type  1   force =    -0.00000375    0.00000246    0.00112367
     atom   13 type  2   force =     0.00000028    0.00000054   -0.00040246

     Total force =     0.004340     Total SCF correction =     0.000581
     SCF correction compared to forces is large: reduce conv_thr to get better values


     entering subroutine stress ...


     negative rho (up, down):  1.658E-05 0.000E+00
          total   stress  (Ry/bohr**3)                   (kbar)     P=   -2.30
  -0.00001478   0.00000000   0.00000000         -2.17      0.00      0.00
   0.00000000  -0.00001478  -0.00000000          0.00     -2.17     -0.00
   0.00000000  -0.00000000  -0.00001737          0.00     -0.00     -2.56


     bfgs converged in  21 scf cycles and  19 bfgs steps
     (criteria: energy <  1.0E+00, force <  1.9E-03)

     End of BFGS Geometry Optimization

     Final energy   =   -1125.5187619901 Ry
Begin final coordinates

ATOMIC_POSITIONS (crystal)
Y1       0.166666667   0.166666667   0.386999750    0   0   0
Y1       0.666666667   0.166666667   0.386999750    0   0   0
Y1       0.166666667   0.666666667   0.386999750    0   0   0
Y1       0.666666667   0.666666667   0.386999750    0   0   0
Y1       0.833333333   0.333333333   0.500000000    0   0   0
Y1       0.333333333   0.333333333   0.500000000    0   0   0
Y1       0.833333333   0.833333333   0.500000000    0   0   0
Y1       0.333333333   0.833333333   0.500000000    0   0   0
Y1       0.005541211   0.005553106   0.612972686
Y1       0.488904692   0.005546985   0.612973038
Y1       0.005543218   0.488905740   0.612974552
Y1       0.500002525   0.499998985   0.606706137
H1       0.166666059   0.166664530   0.655577527
End final coordinates



     Writing output data file calc.save
 
     init_run     :     18.38s CPU     19.04s WALL (       1 calls)
     electrons    :   8586.74s CPU   9187.72s WALL (      21 calls)
     update_pot   :     81.89s CPU     86.05s WALL (      20 calls)
     forces       :    499.54s CPU    526.66s WALL (      21 calls)
     stress       :   1426.49s CPU   1520.81s WALL (      21 calls)

     Called by init_run:
     wfcinit      :      7.73s CPU      7.88s WALL (       1 calls)
     potinit      :      3.22s CPU      3.48s WALL (       1 calls)

     Called by electrons:
     c_bands      :   3165.69s CPU   3392.50s WALL (     218 calls)
     sum_band     :   1615.98s CPU   1720.24s WALL (     218 calls)
     v_of_rho     :    583.26s CPU    626.52s WALL (     233 calls)
     newd         :   1436.63s CPU   1458.42s WALL (     233 calls)
     mix_rho      :     20.76s CPU     21.27s WALL (     218 calls)
     vdW_energy   :    362.40s CPU    406.59s WALL (     989 calls)
     vdW_ffts     :    950.03s CPU    988.91s WALL (    2020 calls)
     vdW_v        :    346.37s CPU    355.80s WALL (     989 calls)

     Called by c_bands:
     init_us_2    :     18.76s CPU     18.84s WALL (    2395 calls)
     cegterg      :   2613.97s CPU   2687.70s WALL (    1090 calls)

     Called by *egterg:
     h_psi        :   1807.82s CPU   1848.90s WALL (    7043 calls)
     s_psi        :    159.78s CPU    160.12s WALL (    7043 calls)
     g_psi        :     10.86s CPU     10.95s WALL (    5948 calls)
     cdiaghg      :    178.08s CPU    179.65s WALL (    6908 calls)

     Called by h_psi:
     add_vuspsi   :    162.60s CPU    162.99s WALL (    7043 calls)

     General routines
     calbec       :    243.16s CPU    249.07s WALL (    8343 calls)
     fft          :   1454.40s CPU   1547.74s WALL (   59585 calls)
     ffts         :      1.34s CPU      1.43s WALL (     451 calls)
     fftw         :   1073.42s CPU   1116.63s WALL (  535990 calls)
     interpolate  :     13.70s CPU     14.44s WALL (     451 calls)
     davcio       :      0.00s CPU      0.04s WALL (       5 calls)
 
     Parallel routines
     fft_scatter  :   1472.26s CPU   1606.00s WALL (  596026 calls)
 
     PWSCF        :     2h59m CPU        3h11m WALL

 
   This run was terminated on:   2:57: 4   3May2018            

=------------------------------------------------------------------------------=
   JOB DONE.
=------------------------------------------------------------------------------=
Job  /afs/slac/g/suncat/bin/suncat-tsmpirun -x LD_LIBRARY_PATH -wdir /scratch/qe556714_Y60sp pw.x -npool 4 -in pw.inp

TID   HOST_NAME   COMMAND_LINE            STATUS            TERMINATION_TIME
===== ========== ================  =======================  ===================
00000 suncat0183 pw.x -npool 4 -i  Done                     05/03/2018 02:57:04
00001 suncat0183 pw.x -npool 4 -i  Done                     05/03/2018 02:57:04
00002 suncat0183 pw.x -npool 4 -i  Done                     05/03/2018 02:57:04
00003 suncat0183 pw.x -npool 4 -i  Done                     05/03/2018 02:57:04
00004 suncat0183 pw.x -npool 4 -i  Done                     05/03/2018 02:57:04
00005 suncat0183 pw.x -npool 4 -i  Done                     05/03/2018 02:57:04
00006 suncat0183 pw.x -npool 4 -i  Done                     05/03/2018 02:57:04
00007 suncat0183 pw.x -npool 4 -i  Done                     05/03/2018 02:57:04
00008 suncat0229 pw.x -npool 4 -i  Done                     05/03/2018 02:57:04
00009 suncat0229 pw.x -npool 4 -i  Done                     05/03/2018 02:57:04
00010 suncat0229 pw.x -npool 4 -i  Done                     05/03/2018 02:57:04
00011 suncat0229 pw.x -npool 4 -i  Done                     05/03/2018 02:57:04
00012 suncat0229 pw.x -npool 4 -i  Done                     05/03/2018 02:57:04
00013 suncat0229 pw.x -npool 4 -i  Done                     05/03/2018 02:57:04
00014 suncat0229 pw.x -npool 4 -i  Done                     05/03/2018 02:57:04
00015 suncat0229 pw.x -npool 4 -i  Done                     05/03/2018 02:57:04
00016 suncat0224 pw.x -npool 4 -i  Done                     05/03/2018 02:57:04
00017 suncat0224 pw.x -npool 4 -i  Done                     05/03/2018 02:57:04
00018 suncat0224 pw.x -npool 4 -i  Done                     05/03/2018 02:57:04
00019 suncat0224 pw.x -npool 4 -i  Done                     05/03/2018 02:57:04
00020 suncat0224 pw.x -npool 4 -i  Done                     05/03/2018 02:57:04
00021 suncat0224 pw.x -npool 4 -i  Done                     05/03/2018 02:57:04
00022 suncat0224 pw.x -npool 4 -i  Done                     05/03/2018 02:57:04
00023 suncat0224 pw.x -npool 4 -i  Done                     05/03/2018 02:57:04
00024 suncat0222 pw.x -npool 4 -i  Done                     05/03/2018 02:57:04
00025 suncat0222 pw.x -npool 4 -i  Done                     05/03/2018 02:57:04
00026 suncat0222 pw.x -npool 4 -i  Done                     05/03/2018 02:57:04
00027 suncat0222 pw.x -npool 4 -i  Done                     05/03/2018 02:57:04
00028 suncat0222 pw.x -npool 4 -i  Done                     05/03/2018 02:57:04
00029 suncat0222 pw.x -npool 4 -i  Done                     05/03/2018 02:57:04
00030 suncat0222 pw.x -npool 4 -i  Done                     05/03/2018 02:57:04
00031 suncat0222 pw.x -npool 4 -i  Done                     05/03/2018 02:57:04
