  python dir          : /home/mamunm/src/espresso
  espresso dir        : /home/vossj/suncat/esdld/espresso-dynpy-beef/bin
  pseudo dir          : /home/mamunm/src/pseudo/gbrv1.5pbe
  ase-espresso py git : GITVERSION



     Program PWSCF v.5.1rc2 (svn rev. ) starts on 17Apr2018 at  8:35:47 

     This program is part of the open-source Quantum ESPRESSO suite
     for quantum simulation of materials; please cite
         "P. Giannozzi et al., J. Phys.:Condens. Matter 21 395502 (2009);
          URL http://www.quantum-espresso.org", 
     in publications or presentations arising from this work. More details at
     http://www.quantum-espresso.org/quote

     Parallel version (MPI), running on    16 processors
     R & G space division:  proc/nbgrp/npool/nimage =      16
     Reading input from pw.inp
     Message from routine read_cards :
     DEPRECATED: no units specified in CELL_PARAMETERS card

     Current dimensions of program PWSCF are:
     Max number of different atomic species (ntypx) = 10
     Max number of k-points (npk) =  40000
     Max angular momentum in pseudopotentials (lmaxx) =  3
     Presently stress not available with electric field


     **************************************************************************
     Initializing libbeef V0.1.1 with the BEEF-vdW functional.
     Citation: Wellendorff et al., PRB 85, 235149 (2012).
     **************************************************************************


     IMPORTANT: XC functional enforced from input :
     Exchange-correlation      = BEEF-VDW ( 1  4 27 13 2)
     Any further DFT definition will be discarded
     Please, verify this is what you really want


     Subspace diagonalization in iterative solution of the eigenvalue problem:
     a serial algorithm will be used

 
     Parallelization info
     --------------------
     sticks:   dense  smooth     PW     G-vecs:    dense   smooth      PW
     Min         151      60     18                28279     7123    1152
     Max         152      61     19                28301     7170    1159
     Sum        2419     967    295               452661   114411   18499
 


     bravais-lattice index     =            0
     lattice parameter (alat)  =       1.8897  a.u.
     unit-cell volume          =    3807.2308 (a.u.)^3
     number of atoms/cell      =           14
     number of atomic types    =            3
     number of electrons       =       233.00
     number of Kohn-Sham states=          126
     kinetic-energy cutoff     =      36.7493  Ry
     charge density cutoff     =     367.4932  Ry
     convergence threshold     =      1.0E-05
     mixing beta               =       0.3000
     number of iterations used =           10  plain     mixing
     Exchange-correlation      = BEEF-VDW ( 1  4 27 13 2)
     nstep                     =           50


     celldm(1)=   1.889726  celldm(2)=   0.000000  celldm(3)=   0.000000
     celldm(4)=   0.000000  celldm(5)=   0.000000  celldm(6)=   0.000000

     crystal axes: (cart. coord. in units of alat)
               a(1) = (   5.184823   0.000000   0.000000 )  
               a(2) = (   2.592411   4.490188   0.000000 )  
               a(3) = (   0.000000   0.000000  24.233390 )  

     reciprocal axes: (cart. coord. in units 2 pi/alat)
               b(1) = (  0.192871 -0.111354  0.000000 )  
               b(2) = (  0.000000  0.222708  0.000000 )  
               b(3) = (  0.000000  0.000000  0.041265 )  


     PseudoPot. # 1 for Cu read from file:
     /home/mamunm/src/pseudo/gbrv1.5pbe/Cu.UPF
     MD5 check sum: 6e991ff952a84172a2a52a1c1e996048
     Pseudo is Ultrasoft + core correction, Zval = 19.0
     Generated by new atomic code, or converted to UPF format
     Using radial grid of  867 points,  6 beta functions with: 
                l(1) =   0
                l(2) =   0
                l(3) =   1
                l(4) =   1
                l(5) =   2
                l(6) =   2
     Q(r) pseudized with  8 coefficients,  rinner =    1.150   1.150   1.150
                                                       1.150   1.150

     PseudoPot. # 2 for C  read from file:
     /home/mamunm/src/pseudo/gbrv1.5pbe/C.UPF
     MD5 check sum: d1aef80898a10debaa0f26306b886e00
     Pseudo is Ultrasoft + core correction, Zval =  4.0
     Generated by new atomic code, or converted to UPF format
     Using radial grid of  721 points,  4 beta functions with: 
                l(1) =   0
                l(2) =   0
                l(3) =   1
                l(4) =   1
     Q(r) pseudized with  8 coefficients,  rinner =    1.100   1.100   1.100


     PseudoPot. # 3 for H  read from file:
     /home/mamunm/src/pseudo/gbrv1.5pbe/H.UPF
     MD5 check sum: 761ae9a214b05c3daf00ab9f6b793d6f
     Pseudo is Ultrasoft, Zval =  1.0
     Generated by new atomic code, or converted to UPF format
     Using radial grid of  615 points,  2 beta functions with: 
                l(1) =   0
                l(2) =   0
     Q(r) pseudized with  8 coefficients,  rinner =    0.700

     vdW kernel table read from file vdW_kernel_table
     MD5 check sum: 095c7af220d748ca6e76c0b4c6cfb241

     atomic species   valence    mass     pseudopotential
        Cu1           19.00    63.54600     Cu( 1.00)
        C1             4.00    12.01100     C ( 1.00)
        H1             1.00     1.00800     H ( 1.00)

     No symmetry found



   Cartesian axes

     site n.     atom                  positions (alat units)
         1           Cu1 tau(   1) = (   1.2962057   0.7483647  10.0000000  )
         2           Cu1 tau(   2) = (   3.8886170   0.7483647  10.0000000  )
         3           Cu1 tau(   3) = (   2.5924113   2.9934587  10.0000000  )
         4           Cu1 tau(   4) = (   5.1848226   2.9934587  10.0000000  )
         5           Cu1 tau(   5) = (   5.1848226   1.4967294  12.1166950  )
         6           Cu1 tau(   6) = (   2.5924113   1.4967294  12.1166950  )
         7           Cu1 tau(   7) = (   6.4810283   3.7418234  12.1166950  )
         8           Cu1 tau(   8) = (   3.8886170   3.7418234  12.1166950  )
         9           Cu1 tau(   9) = (   0.0000000   0.0000000  14.2333899  )
        10           Cu1 tau(  10) = (   2.5924113   0.0000000  14.2333899  )
        11           Cu1 tau(  11) = (   1.2962057   2.2450940  14.2333899  )
        12           Cu1 tau(  12) = (   3.8886170   2.2450940  14.2333899  )
        13           C1  tau(  13) = (   2.5924113   1.4967294  15.5853899  )
        14           H1  tau(  14) = (   2.5924113   1.4967294  16.6853899  )

     number of k points=    20  Fermi-Dirac smearing, width (Ry)=  0.0110
                       cart. coord. in units 2pi/alat
        k(    1) = (   0.0000000   0.0000000   0.0000000), wk =   0.0555556
        k(    2) = (   0.0000000   0.0371180   0.0000000), wk =   0.1111111
        k(    3) = (   0.0000000   0.0742359   0.0000000), wk =   0.1111111
        k(    4) = (   0.0000000  -0.1113539   0.0000000), wk =   0.0555556
        k(    5) = (   0.0321451  -0.0185590   0.0000000), wk =   0.1111111
        k(    6) = (   0.0321451   0.0185590   0.0000000), wk =   0.1111111
        k(    7) = (   0.0321451   0.0556770   0.0000000), wk =   0.1111111
        k(    8) = (   0.0321451  -0.1299129   0.0000000), wk =   0.1111111
        k(    9) = (   0.0321451  -0.0927949   0.0000000), wk =   0.1111111
        k(   10) = (   0.0321451  -0.0556770   0.0000000), wk =   0.1111111
        k(   11) = (   0.0642902  -0.0371180   0.0000000), wk =   0.1111111
        k(   12) = (   0.0642902  -0.0000000   0.0000000), wk =   0.1111111
        k(   13) = (   0.0642902   0.0371180   0.0000000), wk =   0.1111111
        k(   14) = (   0.0642902  -0.1484719   0.0000000), wk =   0.1111111
        k(   15) = (   0.0642902  -0.1113539   0.0000000), wk =   0.1111111
        k(   16) = (   0.0642902  -0.0742359   0.0000000), wk =   0.1111111
        k(   17) = (  -0.0964353   0.0556770   0.0000000), wk =   0.0555556
        k(   18) = (  -0.0964353   0.0927949   0.0000000), wk =   0.1111111
        k(   19) = (  -0.0964353   0.1299129   0.0000000), wk =   0.1111111
        k(   20) = (  -0.0964353  -0.0556770   0.0000000), wk =   0.0555556

     Dense  grid:   452661 G-vectors     FFT dimensions: (  60,  60, 288)

     Smooth grid:   114411 G-vectors     FFT dimensions: (  40,  40, 180)

     Largest allocated arrays     est. size (Mb)     dimensions
        Kohn-Sham Wavefunctions         1.77 Mb     (     920,  126)
        NL pseudopotentials             3.17 Mb     (     920,  226)
        Each V/rho on FFT grid          0.99 Mb     (   64800)
        Each G-vector array             0.22 Mb     (   28299)
        G-vector shells                 0.09 Mb     (   11246)
     Largest temporary arrays     est. size (Mb)     dimensions
        Auxiliary wavefunctions         7.08 Mb     (     920,  504)
        Each subspace H/S matrix        3.88 Mb     (     504,  504)
        Each <psi_i|beta_j> matrix      0.43 Mb     (     226,  126)
        Arrays for rho mixing           9.89 Mb     (   64800,   10)

     Initial potential from superposition of free atoms
     Check: negative starting charge=   -0.000133

     starting charge  220.99993, renormalised to  233.00000

     negative rho (up, down):  1.403E-04 0.000E+00


     ************************************************************************
     *
     * You are using vdW-DF for exchange-correlation in this calculation.
     * Please cite the following three references that made this development
     * possible:
     *
     *   M. Dion, H. Rydberg, E. Schroder, D. C. Langreth, and
     *   B. I. Lundqvist, Phys. Rev. Lett. 92, 246401 (2004).
     *
     *   T. Thonhauser, V. R. Cooper, S. Li, A. Puzder, P. Hyldgaard, and
     *   D. C. Langreth, Phys. Rev. B 76, 125112 (2007).
     *
     *   G. Roman-Perez and J. M. Soler, Phys. Rev. Lett. 103, 096102 (2009).
     *
     *
     * If you are using vdW-DF2, please also cite:
     *
     *   K. Lee, E. D. Murray, L. Kong, B. I. Lundqvist, and
     *   D. C. Langreth, Phys. Rev. B 82, 081101(R) (2010).
     *
     *
     * If you are calculating the stress with vdW-DF, please also cite:
     *
     *   R. Sabatini, E. Kucukbenli, B. Kolb, T. Thonhauser, and
     *   S. de Gironcoli, J. Phys.: Condens. Matter 24, 424209 (2012).
     *
     ************************************************************************

     Carrying out vdW-DF run using the following parameters:

     Nqs =      20    Nr_points =    1024   r_max =   100.000
     q_mesh =
               0.00001000     0.04494208     0.09755937     0.15916263
               0.23128650     0.31572767     0.41458969     0.53033537
               0.66584808     0.82450364     1.01025438     1.22772762
               1.48234092     1.78043706     2.12944203     2.53805004
               3.01644009     3.57652955     4.23227104     5.00000000

     Gradients computed in reciprocal space

     ************************************************************************


 
     Adding external electric field

     Computed dipole along edir(3) : 
        Dipole               -1.8921 Ry au,         -4.8093 Debye
        Dipole field         -0.0062 Ry au
 
        Potential amp.        0.5577 Ry
        Total length         44.6496 bohr
 
     Starting wfc are  161 randomized atomic wfcs

     total cpu time spent up to now is        7.6 secs

     Self-consistent Calculation

     iteration #  1     ecut=    36.75 Ry     beta=0.30
     Davidson diagonalization with overlap
     ethr =  1.00E-02,  avg # of iterations =  7.5

     negative rho (up, down):  1.597E-05 0.000E+00
 
     Adding external electric field

     Computed dipole along edir(3) : 
        Dipole               54.6091 Ry au,        138.8025 Debye
        Dipole field          0.1802 Ry au
 
        Potential amp.      -16.0958 Ry
        Total length         44.6496 bohr
 

     total cpu time spent up to now is       40.6 secs

     total energy              =   -4650.84400403 Ry
     Harris-Foulkes estimate   =   -4876.37985299 Ry
     estimated scf accuracy    <     473.09175206 Ry

     iteration #  2     ecut=    36.75 Ry     beta=0.30
     Davidson diagonalization with overlap
     c_bands:  2 eigenvalues not converged
     c_bands:  4 eigenvalues not converged
     c_bands:  2 eigenvalues not converged
     c_bands:  1 eigenvalues not converged
     c_bands:  1 eigenvalues not converged
     c_bands:  2 eigenvalues not converged
     c_bands:  2 eigenvalues not converged
     c_bands:  2 eigenvalues not converged
     c_bands:  3 eigenvalues not converged
     c_bands:  1 eigenvalues not converged
     c_bands:  3 eigenvalues not converged
     ethr =  1.00E-02,  avg # of iterations = 19.9
 
     Adding external electric field

     Computed dipole along edir(3) : 
        Dipole                8.8407 Ry au,         22.4708 Debye
        Dipole field          0.0292 Ry au
 
        Potential amp.       -2.6058 Ry
        Total length         44.6496 bohr
 

     total cpu time spent up to now is      102.6 secs

     total energy              =   -4452.60594973 Ry
     Harris-Foulkes estimate   =   -5597.02180099 Ry
     estimated scf accuracy    <   22655.19700390 Ry

     iteration #  3     ecut=    36.75 Ry     beta=0.30
     Davidson diagonalization with overlap
     ethr =  1.00E-02,  avg # of iterations =  9.0
 
     Adding external electric field

     Computed dipole along edir(3) : 
        Dipole               13.1052 Ry au,         33.3100 Debye
        Dipole field          0.0433 Ry au
 
        Potential amp.       -3.8627 Ry
        Total length         44.6496 bohr
 

     total cpu time spent up to now is      134.3 secs

     total energy              =   -4812.39885338 Ry
     Harris-Foulkes estimate   =   -5017.97464354 Ry
     estimated scf accuracy    <    2141.76779012 Ry

     iteration #  4     ecut=    36.75 Ry     beta=0.30
     Davidson diagonalization with overlap
     ethr =  1.00E-02,  avg # of iterations =  6.3
 
     Adding external electric field

     Computed dipole along edir(3) : 
        Dipole               10.3308 Ry au,         26.2584 Debye
        Dipole field          0.0341 Ry au
 
        Potential amp.       -3.0450 Ry
        Total length         44.6496 bohr
 

     total cpu time spent up to now is      158.8 secs

     total energy              =   -4876.86023072 Ry
     Harris-Foulkes estimate   =   -4893.59745441 Ry
     estimated scf accuracy    <      58.85098108 Ry

     iteration #  5     ecut=    36.75 Ry     beta=0.30
     Davidson diagonalization with overlap
     ethr =  1.00E-02,  avg # of iterations =  2.2
 
     Adding external electric field

     Computed dipole along edir(3) : 
        Dipole                7.7605 Ry au,         19.7252 Debye
        Dipole field          0.0256 Ry au
 
        Potential amp.       -2.2874 Ry
        Total length         44.6496 bohr
 

     total cpu time spent up to now is      170.3 secs

     total energy              =   -4875.80981201 Ry
     Harris-Foulkes estimate   =   -4880.16875789 Ry
     estimated scf accuracy    <      24.21184204 Ry

     iteration #  6     ecut=    36.75 Ry     beta=0.30
     Davidson diagonalization with overlap
     ethr =  1.00E-02,  avg # of iterations =  1.0
 
     Adding external electric field

     Computed dipole along edir(3) : 
        Dipole                7.3453 Ry au,         18.6698 Debye
        Dipole field          0.0242 Ry au
 
        Potential amp.       -2.1650 Ry
        Total length         44.6496 bohr
 

     total cpu time spent up to now is      179.6 secs

     total energy              =   -4875.59842358 Ry
     Harris-Foulkes estimate   =   -4876.44628579 Ry
     estimated scf accuracy    <      27.57030097 Ry

     iteration #  7     ecut=    36.75 Ry     beta=0.30
     Davidson diagonalization with overlap
     ethr =  1.00E-02,  avg # of iterations =  1.0
 
     Adding external electric field

     Computed dipole along edir(3) : 
        Dipole                6.4481 Ry au,         16.3894 Debye
        Dipole field          0.0213 Ry au
 
        Potential amp.       -1.9005 Ry
        Total length         44.6496 bohr
 

     total cpu time spent up to now is      188.8 secs

     total energy              =   -4874.78056033 Ry
     Harris-Foulkes estimate   =   -4875.79275394 Ry
     estimated scf accuracy    <      21.25648031 Ry

     iteration #  8     ecut=    36.75 Ry     beta=0.30
     Davidson diagonalization with overlap
     ethr =  9.12E-03,  avg # of iterations =  1.0
 
     Adding external electric field

     Computed dipole along edir(3) : 
        Dipole                5.1299 Ry au,         13.0390 Debye
        Dipole field          0.0169 Ry au
 
        Potential amp.       -1.5120 Ry
        Total length         44.6496 bohr
 

     total cpu time spent up to now is      197.9 secs

     total energy              =   -4873.72045511 Ry
     Harris-Foulkes estimate   =   -4874.88164249 Ry
     estimated scf accuracy    <      16.33745930 Ry

     iteration #  9     ecut=    36.75 Ry     beta=0.30
     Davidson diagonalization with overlap
     ethr =  7.01E-03,  avg # of iterations =  1.0
 
     Adding external electric field

     Computed dipole along edir(3) : 
        Dipole                3.2454 Ry au,          8.2490 Debye
        Dipole field          0.0107 Ry au
 
        Potential amp.       -0.9566 Ry
        Total length         44.6496 bohr
 

     total cpu time spent up to now is      207.3 secs

     total energy              =   -4872.43662496 Ry
     Harris-Foulkes estimate   =   -4873.84994924 Ry
     estimated scf accuracy    <      12.57760371 Ry

     iteration # 10     ecut=    36.75 Ry     beta=0.30
     Davidson diagonalization with overlap
     ethr =  5.40E-03,  avg # of iterations =  1.2
 
     Adding external electric field

     Computed dipole along edir(3) : 
        Dipole                2.2400 Ry au,          5.6935 Debye
        Dipole field          0.0074 Ry au
 
        Potential amp.       -0.6602 Ry
        Total length         44.6496 bohr
 

     total cpu time spent up to now is      216.6 secs

     total energy              =   -4872.09839901 Ry
     Harris-Foulkes estimate   =   -4872.62763775 Ry
     estimated scf accuracy    <       4.97470580 Ry

     iteration # 11     ecut=    36.75 Ry     beta=0.30
     Davidson diagonalization with overlap
     ethr =  2.14E-03,  avg # of iterations =  3.4
 
     Adding external electric field

     Computed dipole along edir(3) : 
        Dipole                2.2875 Ry au,          5.8142 Debye
        Dipole field          0.0076 Ry au
 
        Potential amp.       -0.6742 Ry
        Total length         44.6496 bohr
 

     total cpu time spent up to now is      228.0 secs

     total energy              =   -4872.21883322 Ry
     Harris-Foulkes estimate   =   -4872.19507576 Ry
     estimated scf accuracy    <       1.72995621 Ry

     iteration # 12     ecut=    36.75 Ry     beta=0.30
     Davidson diagonalization with overlap
     ethr =  7.42E-04,  avg # of iterations =  2.6

     negative rho (up, down):  8.456E-03 0.000E+00
 
     Adding external electric field

     Computed dipole along edir(3) : 
        Dipole               -1.0157 Ry au,         -2.5817 Debye
        Dipole field         -0.0034 Ry au
 
        Potential amp.        0.2994 Ry
        Total length         44.6496 bohr
 

     total cpu time spent up to now is      238.9 secs

     total energy              =   -4871.56035395 Ry
     Harris-Foulkes estimate   =   -4872.24302028 Ry
     estimated scf accuracy    <       1.65775805 Ry

     iteration # 13     ecut=    36.75 Ry     beta=0.30
     Davidson diagonalization with overlap
     ethr =  7.11E-04,  avg # of iterations =  8.0
 
     Adding external electric field

     Computed dipole along edir(3) : 
        Dipole                0.4612 Ry au,          1.1722 Debye
        Dipole field          0.0015 Ry au
 
        Potential amp.       -0.1359 Ry
        Total length         44.6496 bohr
 

     total cpu time spent up to now is      263.8 secs

     total energy              =   -4871.25228758 Ry
     Harris-Foulkes estimate   =   -4872.69753775 Ry
     estimated scf accuracy    <      26.50335535 Ry

     iteration # 14     ecut=    36.75 Ry     beta=0.30
     Davidson diagonalization with overlap
     ethr =  7.11E-04,  avg # of iterations =  8.0
 
     Adding external electric field

     Computed dipole along edir(3) : 
        Dipole                0.6410 Ry au,          1.6292 Debye
        Dipole field          0.0021 Ry au
 
        Potential amp.       -0.1889 Ry
        Total length         44.6496 bohr
 

     total cpu time spent up to now is      280.8 secs

     total energy              =   -4872.03779446 Ry
     Harris-Foulkes estimate   =   -4872.07172745 Ry
     estimated scf accuracy    <       2.22003191 Ry

     iteration # 15     ecut=    36.75 Ry     beta=0.30
     Davidson diagonalization with overlap
     ethr =  7.11E-04,  avg # of iterations =  1.1
 
     Adding external electric field

     Computed dipole along edir(3) : 
        Dipole                0.3219 Ry au,          0.8182 Debye
        Dipole field          0.0011 Ry au
 
        Potential amp.       -0.0949 Ry
        Total length         44.6496 bohr
 

     total cpu time spent up to now is      290.2 secs

     total energy              =   -4872.08758836 Ry
     Harris-Foulkes estimate   =   -4872.04481527 Ry
     estimated scf accuracy    <       1.63197901 Ry

     iteration # 16     ecut=    36.75 Ry     beta=0.30
     Davidson diagonalization with overlap
     ethr =  7.00E-04,  avg # of iterations =  1.0
 
     Adding external electric field

     Computed dipole along edir(3) : 
        Dipole                0.4527 Ry au,          1.1507 Debye
        Dipole field          0.0015 Ry au
 
        Potential amp.       -0.1334 Ry
        Total length         44.6496 bohr
 

     total cpu time spent up to now is      299.4 secs

     total energy              =   -4872.05810631 Ry
     Harris-Foulkes estimate   =   -4872.10102599 Ry
     estimated scf accuracy    <       2.48025973 Ry

     iteration # 17     ecut=    36.75 Ry     beta=0.30
     Davidson diagonalization with overlap
     ethr =  7.00E-04,  avg # of iterations =  1.0

     negative rho (up, down):  6.952E-08 0.000E+00
 
     Adding external electric field

     Computed dipole along edir(3) : 
        Dipole                0.2309 Ry au,          0.5869 Debye
        Dipole field          0.0008 Ry au
 
        Potential amp.       -0.0681 Ry
        Total length         44.6496 bohr
 

     total cpu time spent up to now is      308.7 secs

     total energy              =   -4872.02745707 Ry
     Harris-Foulkes estimate   =   -4872.06163553 Ry
     estimated scf accuracy    <       1.86884200 Ry

     iteration # 18     ecut=    36.75 Ry     beta=0.30
     Davidson diagonalization with overlap
     ethr =  7.00E-04,  avg # of iterations =  1.0
 
     Adding external electric field

     Computed dipole along edir(3) : 
        Dipole                1.4153 Ry au,          3.5974 Debye
        Dipole field          0.0047 Ry au
 
        Potential amp.       -0.4172 Ry
        Total length         44.6496 bohr
 

     total cpu time spent up to now is      317.9 secs

     total energy              =   -4871.77361889 Ry
     Harris-Foulkes estimate   =   -4872.03180787 Ry
     estimated scf accuracy    <       2.64417259 Ry

     iteration # 19     ecut=    36.75 Ry     beta=0.30
     Davidson diagonalization with overlap
     ethr =  7.00E-04,  avg # of iterations =  4.8
 
     Adding external electric field

     Computed dipole along edir(3) : 
        Dipole                1.4737 Ry au,          3.7457 Debye
        Dipole field          0.0049 Ry au
 
        Potential amp.       -0.4344 Ry
        Total length         44.6496 bohr
 

     total cpu time spent up to now is      331.0 secs

     total energy              =   -4871.93704024 Ry
     Harris-Foulkes estimate   =   -4871.93030448 Ry
     estimated scf accuracy    <       0.09748163 Ry

     iteration # 20     ecut=    36.75 Ry     beta=0.30
     Davidson diagonalization with overlap
     ethr =  4.18E-05,  avg # of iterations =  7.0

     negative rho (up, down):  4.010E-08 0.000E+00
 
     Adding external electric field

     Computed dipole along edir(3) : 
        Dipole                1.0315 Ry au,          2.6217 Debye
        Dipole field          0.0034 Ry au
 
        Potential amp.       -0.3040 Ry
        Total length         44.6496 bohr
 

     total cpu time spent up to now is      347.9 secs

     total energy              =   -4871.91958111 Ry
     Harris-Foulkes estimate   =   -4871.94919983 Ry
     estimated scf accuracy    <       0.14367601 Ry

     iteration # 21     ecut=    36.75 Ry     beta=0.30
     Davidson diagonalization with overlap
     ethr =  4.18E-05,  avg # of iterations =  2.8
 
     Adding external electric field

     Computed dipole along edir(3) : 
        Dipole                0.9429 Ry au,          2.3965 Debye
        Dipole field          0.0031 Ry au
 
        Potential amp.       -0.2779 Ry
        Total length         44.6496 bohr
 

     total cpu time spent up to now is      359.1 secs

     total energy              =   -4871.92697479 Ry
     Harris-Foulkes estimate   =   -4871.92833061 Ry
     estimated scf accuracy    <       0.10946527 Ry

     iteration # 22     ecut=    36.75 Ry     beta=0.30
     Davidson diagonalization with overlap
     ethr =  4.18E-05,  avg # of iterations =  1.0
 
     Adding external electric field

     Computed dipole along edir(3) : 
        Dipole                2.1125 Ry au,          5.3693 Debye
        Dipole field          0.0070 Ry au
 
        Potential amp.       -0.6226 Ry
        Total length         44.6496 bohr
 

     total cpu time spent up to now is      368.3 secs

     total energy              =   -4871.95271899 Ry
     Harris-Foulkes estimate   =   -4871.91584301 Ry
     estimated scf accuracy    <       0.10289687 Ry

     iteration # 23     ecut=    36.75 Ry     beta=0.30
     Davidson diagonalization with overlap
     ethr =  4.18E-05,  avg # of iterations =  4.4

     negative rho (up, down):  9.649E-08 0.000E+00
 
     Adding external electric field

     Computed dipole along edir(3) : 
        Dipole                2.0336 Ry au,          5.1690 Debye
        Dipole field          0.0067 Ry au
 
        Potential amp.       -0.5994 Ry
        Total length         44.6496 bohr
 

     total cpu time spent up to now is      384.4 secs

     total energy              =   -4871.96901885 Ry
     Harris-Foulkes estimate   =   -4871.98923667 Ry
     estimated scf accuracy    <       0.23827139 Ry

     iteration # 24     ecut=    36.75 Ry     beta=0.30
     Davidson diagonalization with overlap
     ethr =  4.18E-05,  avg # of iterations =  1.0

     negative rho (up, down):  1.125E-02 0.000E+00
 
     Adding external electric field

     Computed dipole along edir(3) : 
        Dipole                0.6551 Ry au,          1.6650 Debye
        Dipole field          0.0022 Ry au
 
        Potential amp.       -0.1931 Ry
        Total length         44.6496 bohr
 

     total cpu time spent up to now is      393.6 secs

     total energy              =   -4871.88470575 Ry
     Harris-Foulkes estimate   =   -4871.98306816 Ry
     estimated scf accuracy    <       0.18871529 Ry

     iteration # 25     ecut=    36.75 Ry     beta=0.30
     Davidson diagonalization with overlap
     ethr =  4.18E-05,  avg # of iterations =  6.3

     negative rho (up, down):  1.042E-02 0.000E+00
 
     Adding external electric field

     Computed dipole along edir(3) : 
        Dipole                0.4615 Ry au,          1.1730 Debye
        Dipole field          0.0015 Ry au
 
        Potential amp.       -0.1360 Ry
        Total length         44.6496 bohr
 

     total cpu time spent up to now is      410.6 secs

     total energy              =   -4871.89266654 Ry
     Harris-Foulkes estimate   =   -4871.90611262 Ry
     estimated scf accuracy    <       0.05277964 Ry

     iteration # 26     ecut=    36.75 Ry     beta=0.30
     Davidson diagonalization with overlap
     ethr =  2.27E-05,  avg # of iterations =  2.2

     negative rho (up, down):  8.899E-03 0.000E+00
 
     Adding external electric field

     Computed dipole along edir(3) : 
        Dipole                0.1959 Ry au,          0.4979 Debye
        Dipole field          0.0006 Ry au
 
        Potential amp.       -0.0577 Ry
        Total length         44.6496 bohr
 

     total cpu time spent up to now is      421.1 secs

     total energy              =   -4871.89103178 Ry
     Harris-Foulkes estimate   =   -4871.89690217 Ry
     estimated scf accuracy    <       0.03959418 Ry

     iteration # 27     ecut=    36.75 Ry     beta=0.30
     Davidson diagonalization with overlap
     ethr =  1.70E-05,  avg # of iterations =  7.3

     negative rho (up, down):  5.638E-03 0.000E+00
 
     Adding external electric field

     Computed dipole along edir(3) : 
        Dipole                0.1132 Ry au,          0.2877 Debye
        Dipole field          0.0004 Ry au
 
        Potential amp.       -0.0334 Ry
        Total length         44.6496 bohr
 

     total cpu time spent up to now is      436.6 secs

     total energy              =   -4871.89175780 Ry
     Harris-Foulkes estimate   =   -4871.89302945 Ry
     estimated scf accuracy    <       0.01309008 Ry

     iteration # 28     ecut=    36.75 Ry     beta=0.30
     Davidson diagonalization with overlap
     ethr =  5.62E-06,  avg # of iterations =  7.0

     negative rho (up, down):  5.319E-03 0.000E+00
 
     Adding external electric field

     Computed dipole along edir(3) : 
        Dipole                0.0726 Ry au,          0.1846 Debye
        Dipole field          0.0002 Ry au
 
        Potential amp.       -0.0214 Ry
        Total length         44.6496 bohr
 

     total cpu time spent up to now is      451.6 secs

     total energy              =   -4871.89205067 Ry
     Harris-Foulkes estimate   =   -4871.89231695 Ry
     estimated scf accuracy    <       0.00170690 Ry

     iteration # 29     ecut=    36.75 Ry     beta=0.30
     Davidson diagonalization with overlap
     ethr =  7.33E-07,  avg # of iterations =  3.1

     negative rho (up, down):  1.814E-03 0.000E+00
 
     Adding external electric field

     Computed dipole along edir(3) : 
        Dipole                0.0360 Ry au,          0.0916 Debye
        Dipole field          0.0001 Ry au
 
        Potential amp.       -0.0106 Ry
        Total length         44.6496 bohr
 

     total cpu time spent up to now is      463.8 secs

     total energy              =   -4871.89215518 Ry
     Harris-Foulkes estimate   =   -4871.89227011 Ry
     estimated scf accuracy    <       0.00064022 Ry

     iteration # 30     ecut=    36.75 Ry     beta=0.30
     Davidson diagonalization with overlap
     ethr =  2.75E-07,  avg # of iterations =  6.9

     negative rho (up, down):  1.127E-03 0.000E+00
 
     Adding external electric field

     Computed dipole along edir(3) : 
        Dipole                0.0344 Ry au,          0.0874 Debye
        Dipole field          0.0001 Ry au
 
        Potential amp.       -0.0101 Ry
        Total length         44.6496 bohr
 

     total cpu time spent up to now is      478.8 secs

     total energy              =   -4871.89219994 Ry
     Harris-Foulkes estimate   =   -4871.89221785 Ry
     estimated scf accuracy    <       0.00036264 Ry

     iteration # 31     ecut=    36.75 Ry     beta=0.30
     Davidson diagonalization with overlap
     ethr =  1.56E-07,  avg # of iterations =  3.9

     negative rho (up, down):  1.117E-03 0.000E+00
 
     Adding external electric field

     Computed dipole along edir(3) : 
        Dipole                0.0183 Ry au,          0.0464 Debye
        Dipole field          0.0001 Ry au
 
        Potential amp.       -0.0054 Ry
        Total length         44.6496 bohr
 

     total cpu time spent up to now is      490.7 secs

     total energy              =   -4871.89223534 Ry
     Harris-Foulkes estimate   =   -4871.89222698 Ry
     estimated scf accuracy    <       0.00003469 Ry

     iteration # 32     ecut=    36.75 Ry     beta=0.30
     Davidson diagonalization with overlap
     ethr =  1.49E-08,  avg # of iterations =  4.0

     negative rho (up, down):  1.049E-03 0.000E+00

     negative rho (up, down):  1.049E-03 0.000E+00

     negative rho (up, down):  1.049E-03 0.000E+00

     negative rho (up, down):  1.049E-03 0.000E+00

     negative rho (up, down):  1.049E-03 0.000E+00

     negative rho (up, down):  1.049E-03 0.000E+00

     negative rho (up, down):  1.049E-03 0.000E+00

     negative rho (up, down):  1.049E-03 0.000E+00

     negative rho (up, down):  1.049E-03 0.000E+00

     negative rho (up, down):  1.049E-03 0.000E+00

     negative rho (up, down):  1.049E-03 0.000E+00

     negative rho (up, down):  1.049E-03 0.000E+00

     negative rho (up, down):  1.049E-03 0.000E+00

     negative rho (up, down):  1.049E-03 0.000E+00

     negative rho (up, down):  1.049E-03 0.000E+00

     negative rho (up, down):  1.049E-03 0.000E+00

     negative rho (up, down):  1.049E-03 0.000E+00

     negative rho (up, down):  1.049E-03 0.000E+00

     negative rho (up, down):  1.049E-03 0.000E+00

     negative rho (up, down):  1.049E-03 0.000E+00

     negative rho (up, down):  1.049E-03 0.000E+00

     negative rho (up, down):  1.049E-03 0.000E+00

     negative rho (up, down):  1.049E-03 0.000E+00

     negative rho (up, down):  1.049E-03 0.000E+00

     negative rho (up, down):  1.049E-03 0.000E+00

     negative rho (up, down):  1.049E-03 0.000E+00

     negative rho (up, down):  1.049E-03 0.000E+00

     negative rho (up, down):  1.049E-03 0.000E+00

     negative rho (up, down):  1.049E-03 0.000E+00

     negative rho (up, down):  1.049E-03 0.000E+00

     negative rho (up, down):  1.049E-03 0.000E+00

     negative rho (up, down):  1.049E-03 0.000E+00

     negative rho (up, down):  1.049E-03 0.000E+00

     negative rho (up, down):  1.049E-03 0.000E+00

     negative rho (up, down):  1.049E-03 0.000E+00
 
     Adding external electric field

     Computed dipole along edir(3) : 
        Dipole                0.0219 Ry au,          0.0557 Debye
        Dipole field          0.0001 Ry au
 
        Potential amp.       -0.0065 Ry
        Total length         44.6496 bohr
 

     total cpu time spent up to now is      516.0 secs

     End of self-consistent calculation

          k = 0.0000 0.0000 0.0000 ( 14321 PWs)   bands (ev):

  -112.2181-112.2129-112.2113-112.1181-112.1127-112.1122-111.9994-111.8430
  -111.8374-111.8365-111.8148-111.6517 -69.7166 -69.6878 -69.6861 -69.5953
   -69.5938 -69.5694 -69.5472 -69.5400 -69.5399 -69.5395 -69.5099 -69.5088
   -69.5056 -69.5047 -69.5010 -69.5008 -69.4796 -69.4792 -69.3976 -69.3976
   -69.3889 -69.2977 -69.2899 -69.2895 -69.2445 -69.2415 -69.2409 -69.2192
   -69.2190 -69.1938 -69.1889 -69.1880 -69.1631 -69.0765 -69.0764 -69.0163
   -10.6936  -7.7380  -6.1422  -5.0046  -4.2631  -4.1255  -4.1254  -4.0682
    -3.9123  -3.9122  -3.7009  -3.6309  -3.6307  -3.5245  -3.4814  -3.4813
    -3.2253  -2.9967  -2.9966  -2.6813  -2.6808  -2.6744  -2.5271  -2.5025
    -2.5024  -2.4048  -2.3789  -2.3789  -2.3006  -2.2838  -2.2835  -2.1913
    -2.1911  -2.1509  -2.1454  -2.1453  -1.9249  -1.8676  -1.8672  -1.7459
    -1.6690  -1.6686  -1.5930  -1.5928  -1.4248  -1.4246  -1.3292  -1.3287
    -1.3245  -1.2707  -1.2211  -1.2208  -1.2007  -1.1614  -1.1612  -1.1306
    -1.1095  -1.1094  -1.1091  -0.9984  -0.9980  -0.9068  -0.8979  -0.8976
    -0.4332   0.2065   0.2067   0.6948   0.8400   0.8401   1.2343   1.8658
     1.8659   1.9577   2.2479   2.2479   3.8496   4.4489

          k = 0.0000 0.0371 0.0000 ( 14383 PWs)   bands (ev):

  -112.2178-112.2133-112.2113-112.1178-112.1127-112.1124-111.9994-111.8426
  -111.8377-111.8366-111.8149-111.6517 -69.7146 -69.6892 -69.6860 -69.5940
   -69.5932 -69.5708 -69.5450 -69.5388 -69.5372 -69.5364 -69.5121 -69.5093
   -69.5058 -69.5052 -69.5016 -69.5010 -69.4827 -69.4802 -69.3992 -69.3981
   -69.3888 -69.2947 -69.2872 -69.2860 -69.2464 -69.2440 -69.2408 -69.2231
   -69.2202 -69.1935 -69.1891 -69.1880 -69.1632 -69.0769 -69.0766 -69.0163
   -10.6712  -7.5406  -6.0080  -4.9179  -4.2920  -4.1544  -4.0692  -4.0397
    -3.8927  -3.8394  -3.6777  -3.5669  -3.5552  -3.4738  -3.4083  -3.4049
    -3.1722  -2.9993  -2.9854  -2.7524  -2.6828  -2.6235  -2.5883  -2.5145
    -2.4857  -2.4741  -2.3832  -2.3604  -2.3212  -2.3078  -2.2682  -2.2416
    -2.2258  -2.1767  -2.1744  -2.0907  -2.0004  -1.9581  -1.9104  -1.7841
    -1.7501  -1.7031  -1.6440  -1.6184  -1.5470  -1.4649  -1.4597  -1.4080
    -1.3743  -1.3569  -1.3276  -1.2929  -1.2728  -1.2449  -1.2070  -1.1929
    -1.1854  -1.1589  -1.1469  -1.0990  -1.0443  -1.0330  -0.9942  -0.9832
    -0.6388  -0.2162   0.1298   0.1394   0.7163   0.7244   1.1652   1.6819
     2.0241   2.4748   2.9704   3.0784   4.1380   4.6449

          k = 0.0000 0.0742 0.0000 ( 14316 PWs)   bands (ev):

  -112.2168-112.2142-112.2114-112.1170-112.1134-112.1126-111.9994-111.8415
  -111.8385-111.8366-111.8150-111.6517 -69.7094 -69.6931 -69.6855 -69.5925
   -69.5900 -69.5743 -69.5402 -69.5361 -69.5309 -69.5269 -69.5177 -69.5124
   -69.5074 -69.5045 -69.5034 -69.5011 -69.4914 -69.4812 -69.4025 -69.3990
   -69.3886 -69.2883 -69.2804 -69.2758 -69.2528 -69.2512 -69.2389 -69.2328
   -69.2225 -69.1925 -69.1899 -69.1881 -69.1633 -69.0777 -69.0769 -69.0163
   -10.6268  -6.9635  -5.6978  -5.0029  -4.6210  -4.0272  -3.9174  -3.8960
    -3.7793  -3.6565  -3.5980  -3.4449  -3.3593  -3.3319  -3.2537  -3.2158
    -3.0385  -2.9914  -2.9726  -2.8238  -2.7660  -2.7517  -2.6822  -2.6209
    -2.5234  -2.5002  -2.4951  -2.4203  -2.3681  -2.3504  -2.3076  -2.2389
    -2.2158  -2.1705  -2.1616  -2.1299  -2.1125  -2.0397  -1.9587  -1.9446
    -1.8747  -1.8609  -1.8489  -1.8128  -1.7750  -1.7659  -1.6555  -1.6467
    -1.5998  -1.5380  -1.4965  -1.4926  -1.4390  -1.4120  -1.3832  -1.3753
    -1.3422  -1.2669  -1.2429  -1.2426  -1.1701  -1.1401  -1.0902  -1.0605
    -0.9918  -0.5797   0.0484   0.2452   0.6657   0.6970   1.0927   1.8003
     2.2103   2.9848   3.2896   4.2819   4.6630   5.1220

          k = 0.0000-0.1114 0.0000 ( 14294 PWs)   bands (ev):

  -112.2156-112.2154-112.2114-112.1164-112.1140-112.1126-111.9994-111.8405
  -111.8395-111.8366-111.8151-111.6517 -69.7053 -69.6967 -69.6853 -69.5920
   -69.5872 -69.5769 -69.5374 -69.5335 -69.5254 -69.5233 -69.5170 -69.5165
   -69.5085 -69.5078 -69.5026 -69.5011 -69.4974 -69.4816 -69.4042 -69.3994
   -69.3885 -69.2845 -69.2752 -69.2628 -69.2618 -69.2578 -69.2393 -69.2377
   -69.2239 -69.1916 -69.1908 -69.1881 -69.1633 -69.0781 -69.0770 -69.0163
   -10.6047  -6.1579  -6.0158  -5.3429  -4.4970  -4.0815  -3.8159  -3.7996
    -3.5507  -3.5356  -3.5087  -3.4145  -3.2824  -3.1982  -3.1306  -3.0968
    -3.0336  -2.9801  -2.9492  -2.8945  -2.8013  -2.7935  -2.7450  -2.7170
    -2.6296  -2.6080  -2.5208  -2.4667  -2.3641  -2.3508  -2.3301  -2.2765
    -2.2629  -2.2335  -2.1846  -2.1576  -2.1485  -2.1232  -2.0864  -2.0836
    -2.0722  -2.0308  -1.8852  -1.8425  -1.8400  -1.7910  -1.7443  -1.7382
    -1.7245  -1.6455  -1.6371  -1.5636  -1.5188  -1.4968  -1.4732  -1.4613
    -1.3915  -1.3868  -1.3173  -1.2718  -1.1784  -1.1504  -1.1409  -1.0895
    -1.0329  -0.2854   0.0278   0.0400   0.5187   0.7070   1.3283   2.0429
     2.2663   2.6422   3.7559   4.5082   4.8592   5.5994

          k = 0.0321-0.0186 0.0000 ( 14383 PWs)   bands (ev):

  -112.2178-112.2129-112.2116-112.1178-112.1130-112.1122-111.9994-111.8426
  -111.8376-111.8366-111.8149-111.6517 -69.7147 -69.6879 -69.6872 -69.5948
   -69.5923 -69.5708 -69.5450 -69.5386 -69.5376 -69.5363 -69.5110 -69.5102
   -69.5058 -69.5052 -69.5018 -69.5008 -69.4831 -69.4798 -69.3992 -69.3981
   -69.3888 -69.2948 -69.2872 -69.2861 -69.2464 -69.2439 -69.2408 -69.2231
   -69.2202 -69.1935 -69.1891 -69.1880 -69.1632 -69.0769 -69.0766 -69.0163
   -10.6712  -7.5406  -6.0081  -4.9179  -4.2920  -4.1543  -4.0691  -4.0398
    -3.8927  -3.8393  -3.6777  -3.5670  -3.5550  -3.4739  -3.4083  -3.4049
    -3.1722  -2.9993  -2.9853  -2.7524  -2.6833  -2.6231  -2.5884  -2.5146
    -2.4856  -2.4740  -2.3830  -2.3605  -2.3211  -2.3077  -2.2681  -2.2420
    -2.2258  -2.1768  -2.1743  -2.0907  -2.0005  -1.9581  -1.9101  -1.7845
    -1.7503  -1.7029  -1.6439  -1.6186  -1.5470  -1.4648  -1.4595  -1.4080
    -1.3741  -1.3570  -1.3276  -1.2930  -1.2728  -1.2450  -1.2069  -1.1928
    -1.1855  -1.1588  -1.1468  -1.0989  -1.0445  -1.0329  -0.9942  -0.9832
    -0.6388  -0.2161   0.1296   0.1394   0.7163   0.7244   1.1653   1.6820
     2.0242   2.4749   2.9704   3.0784   4.1380   4.6449

          k = 0.0321 0.0186 0.0000 ( 14383 PWs)   bands (ev):

  -112.2178-112.2131-112.2114-112.1178-112.1128-112.1123-111.9994-111.8426
  -111.8374-111.8368-111.8149-111.6517 -69.7147 -69.6887 -69.6864 -69.5945
   -69.5927 -69.5708 -69.5450 -69.5388 -69.5373 -69.5363 -69.5117 -69.5096
   -69.5058 -69.5052 -69.5016 -69.5009 -69.4828 -69.4801 -69.3992 -69.3981
   -69.3888 -69.2949 -69.2868 -69.2863 -69.2465 -69.2435 -69.2413 -69.2232
   -69.2200 -69.1935 -69.1889 -69.1882 -69.1632 -69.0769 -69.0766 -69.0163
   -10.6712  -7.5406  -6.0081  -4.9179  -4.2920  -4.1543  -4.0692  -4.0398
    -3.8927  -3.8394  -3.6777  -3.5670  -3.5551  -3.4739  -3.4082  -3.4050
    -3.1722  -2.9994  -2.9853  -2.7524  -2.6830  -2.6233  -2.5884  -2.5146
    -2.4857  -2.4741  -2.3830  -2.3605  -2.3212  -2.3078  -2.2681  -2.2418
    -2.2258  -2.1768  -2.1743  -2.0907  -2.0005  -1.9581  -1.9102  -1.7843
    -1.7502  -1.7030  -1.6439  -1.6186  -1.5469  -1.4649  -1.4596  -1.4080
    -1.3741  -1.3570  -1.3276  -1.2930  -1.2727  -1.2450  -1.2071  -1.1928
    -1.1855  -1.1588  -1.1467  -1.0990  -1.0446  -1.0329  -0.9941  -0.9832
    -0.6388  -0.2162   0.1297   0.1394   0.7163   0.7243   1.1652   1.6819
     2.0241   2.4748   2.9704   3.0784   4.1380   4.6449

          k = 0.0321 0.0557 0.0000 ( 14335 PWs)   bands (ev):

  -112.2171-112.2138-112.2114-112.1172-112.1131-112.1126-111.9994-111.8419
  -111.8379-111.8369-111.8150-111.6517 -69.7109 -69.6918 -69.6857 -69.5930
   -69.5908 -69.5733 -69.5414 -69.5358 -69.5346 -69.5292 -69.5159 -69.5114
   -69.5073 -69.5044 -69.5027 -69.5013 -69.4883 -69.4814 -69.4014 -69.3990
   -69.3886 -69.2900 -69.2809 -69.2805 -69.2531 -69.2444 -69.2423 -69.2293
   -69.2222 -69.1929 -69.1893 -69.1883 -69.1632 -69.0774 -69.0769 -69.0163
   -10.6379  -7.1524  -5.7786  -4.7958  -4.4617  -4.3699  -3.9593  -3.8890
    -3.7900  -3.7239  -3.6034  -3.4631  -3.4262  -3.3801  -3.2823  -3.2675
    -3.0700  -3.0201  -2.9663  -2.8217  -2.7338  -2.7030  -2.6293  -2.5753
    -2.5004  -2.4807  -2.4584  -2.4421  -2.3769  -2.3145  -2.2790  -2.2548
    -2.2196  -2.1805  -2.1749  -2.1606  -2.0766  -1.9904  -1.9481  -1.9336
    -1.8259  -1.7802  -1.7728  -1.7369  -1.7124  -1.6745  -1.6498  -1.5894
    -1.5642  -1.5105  -1.4850  -1.4153  -1.3845  -1.3670  -1.3500  -1.3000
    -1.2646  -1.2314  -1.2074  -1.1674  -1.1601  -1.1192  -1.0860  -0.8807
    -0.7858  -0.5559  -0.4495  -0.1850   0.7106   1.1130   1.2836   1.9062
     2.3784   2.9187   3.0920   3.5498   4.4837   5.0194

          k = 0.0321-0.1299 0.0000 ( 14299 PWs)   bands (ev):

  -112.2160-112.2149-112.2115-112.1163-112.1140-112.1126-111.9994-111.8408
  -111.8390-111.8368-111.8151-111.6517 -69.7053 -69.6966 -69.6853 -69.5922
   -69.5869 -69.5770 -69.5363 -69.5328 -69.5282 -69.5220 -69.5186 -69.5170
   -69.5083 -69.5060 -69.5026 -69.5016 -69.4960 -69.4827 -69.4033 -69.4002
   -69.3885 -69.2834 -69.2739 -69.2694 -69.2619 -69.2526 -69.2421 -69.2343
   -69.2253 -69.1919 -69.1903 -69.1882 -69.1633 -69.0779 -69.0772 -69.0163
   -10.6050  -6.4204  -5.6135  -5.2174  -4.5603  -4.3958  -3.9823  -3.7284
    -3.5269  -3.5147  -3.4405  -3.3371  -3.2580  -3.2145  -3.1801  -3.0949
    -3.0651  -2.9407  -2.9169  -2.8868  -2.8509  -2.7939  -2.7416  -2.7373
    -2.5949  -2.5788  -2.5637  -2.4867  -2.4209  -2.3793  -2.3496  -2.3206
    -2.3047  -2.2568  -2.2224  -2.1957  -2.1564  -2.0893  -2.0701  -2.0449
    -2.0022  -1.9791  -1.9536  -1.8402  -1.8221  -1.7795  -1.7412  -1.6957
    -1.6766  -1.6107  -1.5854  -1.5284  -1.4935  -1.4654  -1.4129  -1.3990
    -1.3072  -1.2829  -1.2712  -1.2205  -1.1967  -1.1860  -1.1475  -1.1054
    -1.0329  -0.7181  -0.3252  -0.1943   0.4031   1.0464   1.6893   2.1296
     2.5752   3.3561   3.6405   4.1553   4.8031   5.2910

          k = 0.0321-0.0928 0.0000 ( 14299 PWs)   bands (ev):

  -112.2162-112.2146-112.2115-112.1163-112.1141-112.1125-111.9994-111.8406
  -111.8393-111.8367-111.8151-111.6517 -69.7055 -69.6962 -69.6855 -69.5924
   -69.5866 -69.5772 -69.5364 -69.5328 -69.5281 -69.5219 -69.5184 -69.5172
   -69.5084 -69.5061 -69.5025 -69.5015 -69.4961 -69.4827 -69.4033 -69.4002
   -69.3885 -69.2833 -69.2739 -69.2693 -69.2626 -69.2521 -69.2420 -69.2344
   -69.2253 -69.1917 -69.1906 -69.1881 -69.1633 -69.0780 -69.0772 -69.0163
   -10.6050  -6.4204  -5.6135  -5.2174  -4.5603  -4.3957  -3.9823  -3.7284
    -3.5268  -3.5147  -3.4405  -3.3371  -3.2580  -3.2145  -3.1801  -3.0948
    -3.0651  -2.9407  -2.9171  -2.8867  -2.8509  -2.7938  -2.7416  -2.7372
    -2.5950  -2.5788  -2.5637  -2.4867  -2.4208  -2.3795  -2.3495  -2.3207
    -2.3048  -2.2568  -2.2224  -2.1958  -2.1566  -2.0893  -2.0701  -2.0449
    -2.0022  -1.9792  -1.9536  -1.8404  -1.8220  -1.7794  -1.7412  -1.6956
    -1.6766  -1.6107  -1.5854  -1.5283  -1.4935  -1.4655  -1.4129  -1.3990
    -1.3072  -1.2829  -1.2712  -1.2205  -1.1967  -1.1860  -1.1475  -1.1054
    -1.0329  -0.7180  -0.3252  -0.1944   0.4031   1.0464   1.6893   2.1296
     2.5752   3.3561   3.6405   4.1553   4.8031   5.2910

          k = 0.0321-0.0557 0.0000 ( 14335 PWs)   bands (ev):

  -112.2172-112.2135-112.2116-112.1171-112.1135-112.1123-111.9994-111.8418
  -111.8383-111.8366-111.8150-111.6517 -69.7111 -69.6912 -69.6862 -69.5936
   -69.5901 -69.5734 -69.5414 -69.5358 -69.5345 -69.5293 -69.5154 -69.5116
   -69.5075 -69.5044 -69.5028 -69.5012 -69.4885 -69.4812 -69.4014 -69.3991
   -69.3886 -69.2898 -69.2812 -69.2804 -69.2534 -69.2442 -69.2420 -69.2293
   -69.2223 -69.1928 -69.1897 -69.1880 -69.1632 -69.0775 -69.0769 -69.0163
   -10.6379  -7.1524  -5.7786  -4.7958  -4.4617  -4.3698  -3.9593  -3.8891
    -3.7900  -3.7239  -3.6033  -3.4631  -3.4261  -3.3801  -3.2823  -3.2674
    -3.0699  -3.0201  -2.9662  -2.8218  -2.7336  -2.7031  -2.6292  -2.5752
    -2.5003  -2.4805  -2.4585  -2.4422  -2.3769  -2.3145  -2.2790  -2.2548
    -2.2196  -2.1804  -2.1749  -2.1607  -2.0767  -1.9903  -1.9482  -1.9336
    -1.8261  -1.7801  -1.7728  -1.7371  -1.7124  -1.6744  -1.6498  -1.5893
    -1.5642  -1.5106  -1.4848  -1.4153  -1.3846  -1.3670  -1.3500  -1.2998
    -1.2646  -1.2315  -1.2074  -1.1673  -1.1600  -1.1193  -1.0861  -0.8807
    -0.7858  -0.5559  -0.4495  -0.1850   0.7105   1.1130   1.2837   1.9061
     2.3784   2.9187   3.0920   3.5498   4.4837   5.0194

          k = 0.0643-0.0371 0.0000 ( 14316 PWs)   bands (ev):

  -112.2172-112.2129-112.2122-112.1168-112.1139-112.1122-111.9994-111.8415
  -111.8385-111.8367-111.8150-111.6517 -69.7100 -69.6911 -69.6870 -69.5938
   -69.5882 -69.5747 -69.5402 -69.5361 -69.5314 -69.5266 -69.5163 -69.5128
   -69.5080 -69.5047 -69.5035 -69.5009 -69.4918 -69.4808 -69.4025 -69.3990
   -69.3886 -69.2883 -69.2803 -69.2758 -69.2529 -69.2511 -69.2390 -69.2329
   -69.2225 -69.1926 -69.1898 -69.1881 -69.1633 -69.0778 -69.0769 -69.0163
   -10.6268  -6.9635  -5.6978  -5.0029  -4.6210  -4.0272  -3.9174  -3.8960
    -3.7793  -3.6565  -3.5979  -3.4449  -3.3591  -3.3319  -3.2536  -3.2159
    -3.0385  -2.9916  -2.9725  -2.8239  -2.7658  -2.7519  -2.6820  -2.6208
    -2.5233  -2.5000  -2.4951  -2.4203  -2.3682  -2.3503  -2.3077  -2.2388
    -2.2159  -2.1709  -2.1618  -2.1298  -2.1125  -2.0398  -1.9586  -1.9446
    -1.8748  -1.8607  -1.8492  -1.8127  -1.7753  -1.7659  -1.6555  -1.6467
    -1.6000  -1.5378  -1.4964  -1.4926  -1.4390  -1.4119  -1.3831  -1.3754
    -1.3419  -1.2672  -1.2427  -1.2426  -1.1702  -1.1399  -1.0901  -1.0604
    -0.9918  -0.5797   0.0480   0.2453   0.6657   0.6971   1.0928   1.8003
     2.2103   2.9848   3.2895   4.2819   4.6630   5.1220

          k = 0.0643-0.0000 0.0000 ( 14335 PWs)   bands (ev):

  -112.2174-112.2131-112.2119-112.1171-112.1135-112.1122-111.9994-111.8419
  -111.8378-111.8370-111.8150-111.6517 -69.7113 -69.6905 -69.6868 -69.5940
   -69.5896 -69.5735 -69.5414 -69.5359 -69.5345 -69.5294 -69.5148 -69.5119
   -69.5077 -69.5044 -69.5029 -69.5011 -69.4886 -69.4811 -69.4014 -69.3991
   -69.3886 -69.2900 -69.2808 -69.2806 -69.2530 -69.2444 -69.2424 -69.2293
   -69.2222 -69.1929 -69.1892 -69.1884 -69.1632 -69.0775 -69.0769 -69.0163
   -10.6379  -7.1524  -5.7786  -4.7957  -4.4617  -4.3699  -3.9593  -3.8891
    -3.7899  -3.7239  -3.6033  -3.4631  -3.4261  -3.3801  -3.2822  -3.2675
    -3.0699  -3.0202  -2.9662  -2.8218  -2.7334  -2.7033  -2.6292  -2.5753
    -2.5003  -2.4804  -2.4585  -2.4422  -2.3769  -2.3146  -2.2790  -2.2548
    -2.2196  -2.1805  -2.1749  -2.1609  -2.0766  -1.9901  -1.9483  -1.9336
    -1.8261  -1.7801  -1.7729  -1.7369  -1.7124  -1.6747  -1.6497  -1.5893
    -1.5641  -1.5108  -1.4847  -1.4154  -1.3846  -1.3669  -1.3500  -1.2999
    -1.2646  -1.2314  -1.2075  -1.1674  -1.1599  -1.1193  -1.0860  -0.8806
    -0.7858  -0.5559  -0.4496  -0.1850   0.7104   1.1130   1.2838   1.9061
     2.3784   2.9187   3.0919   3.5499   4.4837   5.0194

          k = 0.0643 0.0371 0.0000 ( 14316 PWs)   bands (ev):

  -112.2170-112.2137-112.2116-112.1169-112.1135-112.1124-111.9994-111.8417
  -111.8376-111.8374-111.8150-111.6517 -69.7097 -69.6923 -69.6861 -69.5933
   -69.5890 -69.5745 -69.5402 -69.5362 -69.5310 -69.5267 -69.5171 -69.5126
   -69.5077 -69.5045 -69.5035 -69.5011 -69.4915 -69.4811 -69.4025 -69.3990
   -69.3886 -69.2887 -69.2798 -69.2759 -69.2531 -69.2507 -69.2395 -69.2330
   -69.2222 -69.1927 -69.1889 -69.1888 -69.1632 -69.0777 -69.0769 -69.0163
   -10.6268  -6.9635  -5.6978  -5.0029  -4.6210  -4.0272  -3.9174  -3.8960
    -3.7793  -3.6565  -3.5980  -3.4449  -3.3592  -3.3319  -3.2536  -3.2159
    -3.0386  -2.9916  -2.9724  -2.8238  -2.7659  -2.7518  -2.6821  -2.6208
    -2.5234  -2.5001  -2.4951  -2.4203  -2.3681  -2.3504  -2.3077  -2.2388
    -2.2158  -2.1707  -2.1616  -2.1299  -2.1126  -2.0398  -1.9587  -1.9446
    -1.8747  -1.8605  -1.8491  -1.8129  -1.7753  -1.7658  -1.6554  -1.6467
    -1.6000  -1.5378  -1.4965  -1.4927  -1.4391  -1.4119  -1.3831  -1.3753
    -1.3421  -1.2671  -1.2427  -1.2426  -1.1702  -1.1400  -1.0903  -1.0603
    -0.9918  -0.5797   0.0482   0.2452   0.6658   0.6970   1.0928   1.8003
     2.2103   2.9848   3.2895   4.2819   4.6630   5.1221

          k = 0.0643-0.1485 0.0000 ( 14299 PWs)   bands (ev):

  -112.2163-112.2144-112.2116-112.1163-112.1141-112.1125-111.9994-111.8410
  -111.8384-111.8372-111.8151-111.6517 -69.7057 -69.6959 -69.6856 -69.5926
   -69.5862 -69.5773 -69.5363 -69.5331 -69.5282 -69.5214 -69.5188 -69.5169
   -69.5085 -69.5061 -69.5026 -69.5015 -69.4961 -69.4827 -69.4033 -69.4002
   -69.3885 -69.2838 -69.2734 -69.2691 -69.2624 -69.2523 -69.2424 -69.2345
   -69.2250 -69.1921 -69.1897 -69.1886 -69.1633 -69.0779 -69.0772 -69.0163
   -10.6050  -6.4204  -5.6135  -5.2173  -4.5603  -4.3958  -3.9823  -3.7284
    -3.5268  -3.5148  -3.4405  -3.3371  -3.2580  -3.2145  -3.1801  -3.0950
    -3.0651  -2.9406  -2.9169  -2.8868  -2.8509  -2.7939  -2.7416  -2.7372
    -2.5949  -2.5787  -2.5637  -2.4867  -2.4210  -2.3792  -2.3497  -2.3207
    -2.3047  -2.2569  -2.2224  -2.1957  -2.1564  -2.0893  -2.0702  -2.0448
    -2.0022  -1.9792  -1.9536  -1.8402  -1.8220  -1.7795  -1.7413  -1.6957
    -1.6767  -1.6106  -1.5854  -1.5284  -1.4935  -1.4655  -1.4129  -1.3990
    -1.3071  -1.2830  -1.2712  -1.2204  -1.1968  -1.1860  -1.1476  -1.1052
    -1.0329  -0.7181  -0.3252  -0.1943   0.4031   1.0465   1.6893   2.1297
     2.5752   3.3561   3.6405   4.1553   4.8032   5.2910

          k = 0.0643-0.1114 0.0000 ( 14310 PWs)   bands (ev):

  -112.2161-112.2145-112.2118-112.1155-112.1149-112.1124-111.9995-111.8402
  -111.8395-111.8370-111.8151-111.6517 -69.7015 -69.6997 -69.6856 -69.5924
   -69.5825 -69.5809 -69.5332 -69.5291 -69.5261 -69.5240 -69.5232 -69.5122
   -69.5091 -69.5088 -69.5021 -69.5004 -69.4995 -69.4840 -69.4023 -69.4022
   -69.3885 -69.2757 -69.2749 -69.2667 -69.2607 -69.2604 -69.2441 -69.2304
   -69.2302 -69.1914 -69.1906 -69.1884 -69.1633 -69.0778 -69.0777 -69.0163
   -10.5945  -5.8392  -5.5146  -5.4560  -5.0555  -4.1728  -4.0748  -3.8028
    -3.3297  -3.3174  -3.2845  -3.2222  -3.1918  -3.1707  -3.1450  -3.0362
    -3.0290  -3.0263  -3.0024  -2.9808  -2.8650  -2.7965  -2.7764  -2.7297
    -2.6856  -2.6387  -2.5643  -2.5398  -2.5383  -2.5027  -2.4787  -2.4653
    -2.3661  -2.3500  -2.2097  -2.1761  -2.1739  -2.1421  -2.1163  -2.0970
    -2.0781  -1.9742  -1.8857  -1.8668  -1.8411  -1.8268  -1.6717  -1.6415
    -1.6411  -1.6078  -1.5762  -1.5387  -1.4626  -1.4268  -1.3699  -1.3275
    -1.2732  -1.2611  -1.2464  -1.2275  -1.2237  -1.2014  -1.1817  -1.1752
    -1.0865  -0.9943  -0.9299   0.1460   0.3732   0.5016   2.3417   2.3446
     2.9679   4.1134   4.1182   4.4425   4.6432   5.0096

          k = 0.0643-0.0742 0.0000 ( 14299 PWs)   bands (ev):

  -112.2167-112.2136-112.2120-112.1161-112.1146-112.1123-111.9994-111.8407
  -111.8392-111.8367-111.8151-111.6517 -69.7063 -69.6948 -69.6862 -69.5931
   -69.5853 -69.5778 -69.5364 -69.5330 -69.5285 -69.5206 -69.5188 -69.5170
   -69.5089 -69.5064 -69.5023 -69.5014 -69.4965 -69.4824 -69.4033 -69.4002
   -69.3885 -69.2834 -69.2738 -69.2693 -69.2627 -69.2520 -69.2421 -69.2344
   -69.2253 -69.1918 -69.1905 -69.1882 -69.1633 -69.0780 -69.0772 -69.0163
   -10.6050  -6.4204  -5.6135  -5.2173  -4.5603  -4.3958  -3.9822  -3.7284
    -3.5269  -3.5148  -3.4404  -3.3372  -3.2579  -3.2145  -3.1801  -3.0949
    -3.0651  -2.9406  -2.9171  -2.8868  -2.8508  -2.7938  -2.7417  -2.7371
    -2.5949  -2.5785  -2.5638  -2.4866  -2.4209  -2.3793  -2.3497  -2.3207
    -2.3049  -2.2568  -2.2224  -2.1957  -2.1565  -2.0892  -2.0702  -2.0448
    -2.0022  -1.9794  -1.9537  -1.8404  -1.8220  -1.7794  -1.7414  -1.6957
    -1.6767  -1.6106  -1.5854  -1.5284  -1.4935  -1.4655  -1.4129  -1.3990
    -1.3071  -1.2830  -1.2712  -1.2204  -1.1967  -1.1859  -1.1475  -1.1054
    -1.0329  -0.7181  -0.3252  -0.1944   0.4031   1.0465   1.6893   2.1297
     2.5752   3.3562   3.6405   4.1553   4.8032   5.2910

          k =-0.0964 0.0557 0.0000 ( 14294 PWs)   bands (ev):

  -112.2168-112.2128-112.2127-112.1159-112.1148-112.1122-111.9994-111.8406
  -111.8393-111.8367-111.8151-111.6517 -69.7067 -69.6938 -69.6867 -69.5934
   -69.5845 -69.5783 -69.5372 -69.5343 -69.5262 -69.5209 -69.5167 -69.5164
   -69.5093 -69.5086 -69.5021 -69.5009 -69.4983 -69.4812 -69.4042 -69.3995
   -69.3885 -69.2846 -69.2751 -69.2626 -69.2619 -69.2579 -69.2393 -69.2378
   -69.2239 -69.1918 -69.1905 -69.1882 -69.1633 -69.0782 -69.0770 -69.0163
   -10.6047  -6.1580  -6.0157  -5.3429  -4.4969  -4.0813  -3.8162  -3.7995
    -3.5505  -3.5357  -3.5083  -3.4149  -3.2823  -3.1978  -3.1304  -3.0972
    -3.0338  -2.9801  -2.9490  -2.8947  -2.8013  -2.7934  -2.7445  -2.7173
    -2.6298  -2.6077  -2.5206  -2.4666  -2.3644  -2.3507  -2.3299  -2.2766
    -2.2629  -2.2334  -2.1849  -2.1577  -2.1486  -2.1232  -2.0864  -2.0834
    -2.0722  -2.0310  -1.8856  -1.8425  -1.8399  -1.7906  -1.7449  -1.7381
    -1.7248  -1.6455  -1.6375  -1.5633  -1.5186  -1.4968  -1.4733  -1.4613
    -1.3912  -1.3865  -1.3173  -1.2721  -1.1787  -1.1501  -1.1407  -1.0894
    -1.0329  -0.2853   0.0273   0.0401   0.5187   0.7071   1.3284   2.0430
     2.2663   2.6422   3.7558   4.5084   4.8592   5.5994

          k =-0.0964 0.0928 0.0000 ( 14299 PWs)   bands (ev):

  -112.2168-112.2134-112.2122-112.1160-112.1146-112.1122-111.9994-111.8408
  -111.8389-111.8369-111.8151-111.6517 -69.7064 -69.6945 -69.6864 -69.5932
   -69.5850 -69.5780 -69.5365 -69.5330 -69.5286 -69.5204 -69.5186 -69.5171
   -69.5091 -69.5064 -69.5023 -69.5014 -69.4965 -69.4824 -69.4033 -69.4002
   -69.3885 -69.2835 -69.2739 -69.2694 -69.2618 -69.2527 -69.2422 -69.2343
   -69.2252 -69.1920 -69.1902 -69.1883 -69.1633 -69.0780 -69.0772 -69.0163
   -10.6050  -6.4204  -5.6135  -5.2174  -4.5603  -4.3958  -3.9822  -3.7284
    -3.5268  -3.5148  -3.4405  -3.3372  -3.2578  -3.2144  -3.1801  -3.0949
    -3.0651  -2.9407  -2.9172  -2.8867  -2.8508  -2.7937  -2.7418  -2.7371
    -2.5951  -2.5785  -2.5638  -2.4866  -2.4208  -2.3794  -2.3495  -2.3207
    -2.3048  -2.2569  -2.2225  -2.1957  -2.1565  -2.0894  -2.0701  -2.0449
    -2.0022  -1.9793  -1.9536  -1.8407  -1.8220  -1.7794  -1.7414  -1.6957
    -1.6765  -1.6106  -1.5854  -1.5285  -1.4934  -1.4656  -1.4128  -1.3989
    -1.3071  -1.2830  -1.2711  -1.2205  -1.1968  -1.1859  -1.1474  -1.1053
    -1.0329  -0.7181  -0.3252  -0.1945   0.4031   1.0464   1.6894   2.1297
     2.5752   3.3562   3.6405   4.1553   4.8033   5.2910

          k =-0.0964 0.1299 0.0000 ( 14299 PWs)   bands (ev):

  -112.2166-112.2139-112.2119-112.1162-112.1143-112.1124-111.9994-111.8410
  -111.8384-111.8372-111.8150-111.6517 -69.7061 -69.6952 -69.6860 -69.5929
   -69.5856 -69.5776 -69.5365 -69.5330 -69.5282 -69.5211 -69.5184 -69.5173
   -69.5088 -69.5062 -69.5025 -69.5014 -69.4962 -69.4826 -69.4033 -69.4002
   -69.3885 -69.2838 -69.2734 -69.2691 -69.2623 -69.2524 -69.2425 -69.2344
   -69.2250 -69.1922 -69.1897 -69.1886 -69.1633 -69.0780 -69.0772 -69.0163
   -10.6050  -6.4204  -5.6135  -5.2174  -4.5603  -4.3957  -3.9823  -3.7284
    -3.5268  -3.5148  -3.4405  -3.3372  -3.2579  -3.2145  -3.1801  -3.0948
    -3.0651  -2.9407  -2.9172  -2.8867  -2.8508  -2.7937  -2.7417  -2.7371
    -2.5951  -2.5786  -2.5637  -2.4867  -2.4208  -2.3795  -2.3494  -2.3207
    -2.3047  -2.2569  -2.2224  -2.1958  -2.1566  -2.0895  -2.0702  -2.0448
    -2.0022  -1.9793  -1.9536  -1.8407  -1.8220  -1.7794  -1.7413  -1.6956
    -1.6765  -1.6106  -1.5855  -1.5284  -1.4934  -1.4657  -1.4128  -1.3990
    -1.3070  -1.2829  -1.2711  -1.2205  -1.1969  -1.1859  -1.1476  -1.1052
    -1.0329  -0.7181  -0.3252  -0.1944   0.4031   1.0464   1.6894   2.1297
     2.5752   3.3561   3.6406   4.1553   4.8032   5.2909

          k =-0.0964-0.0557 0.0000 ( 14294 PWs)   bands (ev):

  -112.2165-112.2141-112.2117-112.1163-112.1142-112.1125-111.9994-111.8411
  -111.8382-111.8374-111.8150-111.6517 -69.7060 -69.6953 -69.6859 -69.5928
   -69.5859 -69.5775 -69.5373 -69.5340 -69.5256 -69.5221 -69.5170 -69.5164
   -69.5087 -69.5081 -69.5025 -69.5011 -69.4976 -69.4815 -69.4042 -69.3995
   -69.3885 -69.2851 -69.2743 -69.2623 -69.2616 -69.2585 -69.2393 -69.2383
   -69.2235 -69.1922 -69.1894 -69.1889 -69.1633 -69.0781 -69.0770 -69.0163
   -10.6047  -6.1580  -6.0158  -5.3429  -4.4969  -4.0814  -3.8160  -3.7995
    -3.5507  -3.5356  -3.5085  -3.4147  -3.2823  -3.1981  -3.1305  -3.0971
    -3.0338  -2.9801  -2.9490  -2.8946  -2.8013  -2.7934  -2.7447  -2.7172
    -2.6296  -2.6079  -2.5207  -2.4666  -2.3643  -2.3507  -2.3301  -2.2764
    -2.2629  -2.2333  -2.1848  -2.1576  -2.1485  -2.1233  -2.0863  -2.0835
    -2.0722  -2.0309  -1.8854  -1.8425  -1.8399  -1.7908  -1.7447  -1.7381
    -1.7247  -1.6454  -1.6375  -1.5636  -1.5186  -1.4968  -1.4733  -1.4613
    -1.3914  -1.3867  -1.3171  -1.2720  -1.1787  -1.1502  -1.1407  -1.0896
    -1.0327  -0.2853   0.0275   0.0400   0.5188   0.7070   1.3284   2.0429
     2.2662   2.6422   3.7559   4.5083   4.8592   5.5994

     the Fermi energy is     0.5292 ev

!    total energy              =   -4871.89223844 Ry
     Harris-Foulkes estimate   =   -4871.89224004 Ry
     estimated scf accuracy    <       0.00000730 Ry

     The total energy is the sum of the following terms:

     one-electron contribution =  -37721.12520202 Ry
     hartree contribution      =   18876.57766618 Ry
     xc contribution           =    -484.32087476 Ry
     ewald contribution        =   14457.00388552 Ry
     electric field correction =       0.00000158 Ry
     smearing contrib. (-TS)   =      -0.02771494 Ry

     convergence has been achieved in  32 iterations
 
 BEEF-vdW xc energy contributions
           1 :   -429.124726625236     
           2 :    389.062749827729     
           3 :   -321.184720956499     
           4 :    244.138386183753     
           5 :   -174.916412211542     
           6 :    122.781689405754     
           7 :   -87.7927920206512     
           8 :    63.9104322164557     
           9 :   -44.2668749281610     
          10 :    25.3485998505898     
          11 :   -7.98874222144684     
          12 :   -4.72075537788464     
          13 :    10.6313891123037     
          14 :   -10.5338986111923     
          15 :    7.77723647779646     
          16 :   -6.08564810585642     
          17 :    7.28337356966222     
          18 :   -10.4953763978008     
          19 :    13.2118529194486     
          20 :   -13.3126894773520     
          21 :    10.5894133020563     
          22 :   -6.78012594175334     
          23 :    4.23141396668211     
          24 :   -4.23243467523366     
          25 :    6.20162549862260     
          26 :   -8.22885422923571     
          27 :    8.50258226193091     
          28 :   -6.57493340555993     
          29 :    3.59627900923914     
          30 :   -1.41793023030232     
          31 :   -34.3439560979721     
          32 :   -23.4908463661729     

     Forces acting on atoms (Ry/au):


     negative rho (up, down):  1.049E-03 0.000E+00
     atom    1 type  1   force =    -0.00032949   -0.00007665    0.00454185
     atom    2 type  1   force =     0.00043307   -0.00021936    0.00557284
     atom    3 type  1   force =    -0.00006958    0.00041075    0.00568329
     atom    4 type  1   force =     0.00000212   -0.00003122    0.00109620
     atom    5 type  1   force =     0.00001447    0.00313924    0.00311496
     atom    6 type  1   force =    -0.00008319    0.00011419   -0.01588380
     atom    7 type  1   force =    -0.00263500   -0.00161945    0.00294798
     atom    8 type  1   force =     0.00257406   -0.00155607    0.00289325
     atom    9 type  1   force =    -0.00003442    0.00005226   -0.00060860
     atom   10 type  1   force =    -0.00002366    0.00654061    0.02482087
     atom   11 type  1   force =     0.00589794   -0.00345262    0.02465249
     atom   12 type  1   force =    -0.00568498   -0.00332929    0.02474036
     atom   13 type  2   force =    -0.00003876    0.00002508   -0.07099913
     atom   14 type  3   force =    -0.00002258    0.00000254   -0.01257256

     Total force =     0.084665     Total SCF correction =     0.007272


     entering subroutine stress ...


     negative rho (up, down):  1.049E-03 0.000E+00
          total   stress  (Ry/bohr**3)                   (kbar)     P=  -31.83
  -0.00022372  -0.00000002   0.00000005        -32.91     -0.00      0.01
  -0.00000002  -0.00022377  -0.00000009         -0.00    -32.92     -0.01
   0.00000005  -0.00000009  -0.00020165          0.01     -0.01    -29.66


     BFGS Geometry Optimization

     number of scf cycles    =   1
     number of bfgs steps    =   0

     energy   new            =   -4871.8922384372 Ry

     new trust radius        =       0.0709991462 bohr
     new conv_thr            =       0.0000099958 Ry


ATOMIC_POSITIONS (crystal)
Cu1      0.166666667   0.166666667   0.412653782    0   0   0
Cu1      0.666666667   0.166666667   0.412653782    0   0   0
Cu1      0.166666667   0.666666667   0.412653782    0   0   0
Cu1      0.666666667   0.666666667   0.412653782    0   0   0
Cu1      0.833333333   0.333333333   0.500000000    0   0   0
Cu1      0.333333333   0.333333333   0.500000000    0   0   0
Cu1      0.833333333   0.833333333   0.500000000    0   0   0
Cu1      0.333333333   0.833333333   0.500000000    0   0   0
Cu1     -0.000006593   0.000006159   0.587332928
Cu1      0.499612174   0.000770823   0.587888224
Cu1      0.000805408   0.499593103   0.587884547
Cu1      0.499615957   0.499607637   0.587886466
C1       0.333327899   0.333336289   0.641586623
H1       0.333330879   0.333333633   0.688254382



     Writing output data file calc.save
     Check: negative starting charge=   -0.000133
     NEW-OLD atomic charge density approx. for the potential
     Check: negative starting charge=   -0.000133

     negative rho (up, down):  1.048E-03 0.000E+00
 
     Adding external electric field

     Computed dipole along edir(3) : 
        Dipole                0.0955 Ry au,          0.2428 Debye
        Dipole field          0.0003 Ry au
 
        Potential amp.       -0.0282 Ry
        Total length         44.6496 bohr
 

     total cpu time spent up to now is      530.9 secs

     Self-consistent Calculation

     iteration #  1     ecut=    36.75 Ry     beta=0.30
     Davidson diagonalization with overlap
     ethr =  1.00E-06,  avg # of iterations =  5.3

     negative rho (up, down):  1.048E-03 0.000E+00
 
     Adding external electric field

     Computed dipole along edir(3) : 
        Dipole               -0.5572 Ry au,         -1.4163 Debye
        Dipole field         -0.0018 Ry au
 
        Potential amp.        0.1642 Ry
        Total length         44.6496 bohr
 

     total cpu time spent up to now is      557.9 secs

     total energy              =   -4871.86597890 Ry
     Harris-Foulkes estimate   =   -4871.89961661 Ry
     estimated scf accuracy    <       0.06961693 Ry

     iteration #  2     ecut=    36.75 Ry     beta=0.30
     Davidson diagonalization with overlap
     ethr =  2.99E-05,  avg # of iterations =  6.3

     negative rho (up, down):  1.053E-03 0.000E+00
 
     Adding external electric field

     Computed dipole along edir(3) : 
        Dipole                0.0346 Ry au,          0.0879 Debye
        Dipole field          0.0001 Ry au
 
        Potential amp.       -0.0102 Ry
        Total length         44.6496 bohr
 

     total cpu time spent up to now is      575.6 secs

     total energy              =   -4871.73203999 Ry
     Harris-Foulkes estimate   =   -4872.06503164 Ry
     estimated scf accuracy    <       6.12777207 Ry

     iteration #  3     ecut=    36.75 Ry     beta=0.30
     Davidson diagonalization with overlap
     ethr =  2.99E-05,  avg # of iterations =  7.0

     negative rho (up, down):  1.059E-03 0.000E+00
 
     Adding external electric field

     Computed dipole along edir(3) : 
        Dipole                0.0258 Ry au,          0.0655 Debye
        Dipole field          0.0001 Ry au
 
        Potential amp.       -0.0076 Ry
        Total length         44.6496 bohr
 

     total cpu time spent up to now is      594.1 secs

     total energy              =   -4871.89605215 Ry
     Harris-Foulkes estimate   =   -4871.89892698 Ry
     estimated scf accuracy    <       0.01687915 Ry

     iteration #  4     ecut=    36.75 Ry     beta=0.30
     Davidson diagonalization with overlap
     ethr =  7.24E-06,  avg # of iterations =  3.5

     negative rho (up, down):  1.060E-03 0.000E+00
 
     Adding external electric field

     Computed dipole along edir(3) : 
        Dipole                0.0285 Ry au,          0.0723 Debye
        Dipole field          0.0001 Ry au
 
        Potential amp.       -0.0084 Ry
        Total length         44.6496 bohr
 

     total cpu time spent up to now is      605.9 secs

     total energy              =   -4871.89729441 Ry
     Harris-Foulkes estimate   =   -4871.89749384 Ry
     estimated scf accuracy    <       0.00097884 Ry

     iteration #  5     ecut=    36.75 Ry     beta=0.30
     Davidson diagonalization with overlap
     ethr =  4.20E-07,  avg # of iterations =  2.5

     negative rho (up, down):  1.054E-03 0.000E+00
 
     Adding external electric field

     Computed dipole along edir(3) : 
        Dipole                0.0210 Ry au,          0.0533 Debye
        Dipole field          0.0001 Ry au
 
        Potential amp.       -0.0062 Ry
        Total length         44.6496 bohr
 

     total cpu time spent up to now is      618.2 secs

     total energy              =   -4871.89738908 Ry
     Harris-Foulkes estimate   =   -4871.89747200 Ry
     estimated scf accuracy    <       0.00033904 Ry

     iteration #  6     ecut=    36.75 Ry     beta=0.30
     Davidson diagonalization with overlap
     ethr =  1.46E-07,  avg # of iterations =  2.1

     negative rho (up, down):  1.055E-03 0.000E+00
 
     Adding external electric field

     Computed dipole along edir(3) : 
        Dipole                0.0219 Ry au,          0.0557 Debye
        Dipole field          0.0001 Ry au
 
        Potential amp.       -0.0065 Ry
        Total length         44.6496 bohr
 

     total cpu time spent up to now is      628.8 secs

     total energy              =   -4871.89741895 Ry
     Harris-Foulkes estimate   =   -4871.89742697 Ry
     estimated scf accuracy    <       0.00007198 Ry

     iteration #  7     ecut=    36.75 Ry     beta=0.30
     Davidson diagonalization with overlap
     ethr =  3.09E-08,  avg # of iterations =  2.0

     negative rho (up, down):  1.056E-03 0.000E+00
 
     Adding external electric field

     Computed dipole along edir(3) : 
        Dipole                0.0223 Ry au,          0.0566 Debye
        Dipole field          0.0001 Ry au
 
        Potential amp.       -0.0066 Ry
        Total length         44.6496 bohr
 

     total cpu time spent up to now is      639.6 secs

     total energy              =   -4871.89742455 Ry
     Harris-Foulkes estimate   =   -4871.89742637 Ry
     estimated scf accuracy    <       0.00003184 Ry

     iteration #  8     ecut=    36.75 Ry     beta=0.30
     Davidson diagonalization with overlap
     ethr =  1.37E-08,  avg # of iterations =  1.4

     negative rho (up, down):  1.060E-03 0.000E+00

     negative rho (up, down):  1.060E-03 0.000E+00

     negative rho (up, down):  1.060E-03 0.000E+00

     negative rho (up, down):  1.060E-03 0.000E+00

     negative rho (up, down):  1.060E-03 0.000E+00

     negative rho (up, down):  1.060E-03 0.000E+00

     negative rho (up, down):  1.060E-03 0.000E+00

     negative rho (up, down):  1.060E-03 0.000E+00

     negative rho (up, down):  1.060E-03 0.000E+00

     negative rho (up, down):  1.060E-03 0.000E+00

     negative rho (up, down):  1.060E-03 0.000E+00

     negative rho (up, down):  1.060E-03 0.000E+00

     negative rho (up, down):  1.060E-03 0.000E+00

     negative rho (up, down):  1.060E-03 0.000E+00

     negative rho (up, down):  1.060E-03 0.000E+00

     negative rho (up, down):  1.060E-03 0.000E+00

     negative rho (up, down):  1.060E-03 0.000E+00

     negative rho (up, down):  1.060E-03 0.000E+00

     negative rho (up, down):  1.060E-03 0.000E+00

     negative rho (up, down):  1.060E-03 0.000E+00

     negative rho (up, down):  1.060E-03 0.000E+00

     negative rho (up, down):  1.060E-03 0.000E+00

     negative rho (up, down):  1.060E-03 0.000E+00

     negative rho (up, down):  1.060E-03 0.000E+00

     negative rho (up, down):  1.060E-03 0.000E+00

     negative rho (up, down):  1.060E-03 0.000E+00

     negative rho (up, down):  1.060E-03 0.000E+00

     negative rho (up, down):  1.060E-03 0.000E+00

     negative rho (up, down):  1.060E-03 0.000E+00

     negative rho (up, down):  1.060E-03 0.000E+00

     negative rho (up, down):  1.060E-03 0.000E+00

     negative rho (up, down):  1.060E-03 0.000E+00

     negative rho (up, down):  1.060E-03 0.000E+00

     negative rho (up, down):  1.060E-03 0.000E+00

     negative rho (up, down):  1.060E-03 0.000E+00
 
     Adding external electric field

     Computed dipole along edir(3) : 
        Dipole                0.0302 Ry au,          0.0768 Debye
        Dipole field          0.0001 Ry au
 
        Potential amp.       -0.0089 Ry
        Total length         44.6496 bohr
 

     total cpu time spent up to now is      661.2 secs

     End of self-consistent calculation

          k = 0.0000 0.0000 0.0000 ( 14321 PWs)   bands (ev):

  -112.2537-112.2485-112.2472-112.1080-112.1024-112.1022-111.9918-111.8340
  -111.8281-111.8279-111.8068-111.6473 -69.7654 -69.7351 -69.7339 -69.6240
   -69.6229 -69.5986 -69.5710 -69.5407 -69.5398 -69.5323 -69.5265 -69.5261
   -69.4960 -69.4951 -69.4914 -69.4913 -69.4703 -69.4701 -69.3904 -69.3904
   -69.3815 -69.2887 -69.2809 -69.2808 -69.2354 -69.2323 -69.2322 -69.2106
   -69.2105 -69.1850 -69.1798 -69.1796 -69.1553 -69.0719 -69.0718 -69.0125
   -10.7086  -7.7066  -6.1116  -5.0291  -4.2716  -4.1445  -4.1443  -4.0592
    -3.9156  -3.9155  -3.6953  -3.6468  -3.6467  -3.5189  -3.4733  -3.4733
    -3.2140  -3.0348  -3.0347  -2.7090  -2.7087  -2.6729  -2.5372  -2.5164
    -2.5163  -2.3920  -2.3734  -2.3734  -2.2956  -2.2904  -2.2902  -2.1879
    -2.1877  -2.1415  -2.1414  -2.1263  -1.9171  -1.8866  -1.8863  -1.7605
    -1.6731  -1.6729  -1.5893  -1.5892  -1.4232  -1.4231  -1.3297  -1.3295
    -1.3022  -1.2685  -1.2296  -1.2193  -1.2192  -1.1575  -1.1574  -1.1253
    -1.1068  -1.1051  -1.1051  -1.0099  -1.0096  -0.8981  -0.8895  -0.8894
    -0.4379   0.1900   0.1902   0.7045   0.8573   0.8573   1.2257   1.8807
     1.8807   1.9627   2.2567   2.2568   3.8436   4.4918

          k = 0.0000 0.0371 0.0000 ( 14383 PWs)   bands (ev):

  -112.2534-112.2488-112.2473-112.1077-112.1026-112.1023-111.9919-111.8336
  -111.8284-111.8279-111.8068-111.6473 -69.7633 -69.7366 -69.7337 -69.6227
   -69.6222 -69.5999 -69.5693 -69.5422 -69.5395 -69.5295 -69.5251 -69.5244
   -69.4965 -69.4956 -69.4919 -69.4914 -69.4736 -69.4708 -69.3920 -69.3908
   -69.3814 -69.2857 -69.2782 -69.2773 -69.2374 -69.2349 -69.2320 -69.2146
   -69.2116 -69.1847 -69.1801 -69.1796 -69.1553 -69.0722 -69.0720 -69.0125
   -10.6840  -7.5106  -5.9830  -4.9433  -4.2990  -4.1597  -4.0859  -4.0407
    -3.8955  -3.8430  -3.6763  -3.5744  -3.5709  -3.4678  -3.4055  -3.4022
    -3.1620  -3.0365  -3.0209  -2.7618  -2.7132  -2.6404  -2.5884  -2.5237
    -2.4931  -2.4721  -2.3791  -2.3596  -2.3204  -2.3045  -2.2657  -2.2448
    -2.2186  -2.1751  -2.1695  -2.0885  -1.9973  -1.9696  -1.9205  -1.8005
    -1.7549  -1.7102  -1.6388  -1.6157  -1.5421  -1.4650  -1.4612  -1.4214
    -1.3663  -1.3585  -1.3270  -1.2952  -1.2731  -1.2430  -1.2054  -1.1898
    -1.1824  -1.1581  -1.1455  -1.1024  -1.0414  -1.0287  -0.9846  -0.9751
    -0.6405  -0.2181   0.1137   0.1366   0.7296   0.7389   1.1770   1.6972
     2.0469   2.4765   2.9769   3.0825   4.1241   4.6870

          k = 0.0000 0.0742 0.0000 ( 14316 PWs)   bands (ev):

  -112.2524-112.2497-112.2473-112.1068-112.1035-112.1024-111.9919-111.8326
  -111.8293-111.8280-111.8070-111.6473 -69.7581 -69.7408 -69.7334 -69.6216
   -69.6187 -69.6034 -69.5645 -69.5471 -69.5390 -69.5261 -69.5190 -69.5166
   -69.5010 -69.4946 -69.4938 -69.4914 -69.4824 -69.4718 -69.3954 -69.3918
   -69.3813 -69.2793 -69.2714 -69.2669 -69.2438 -69.2420 -69.2301 -69.2246
   -69.2139 -69.1838 -69.1808 -69.1796 -69.1554 -69.0730 -69.0723 -69.0125
   -10.6348  -6.9373  -5.6877  -5.0035  -4.6348  -4.0463  -3.9275  -3.8911
    -3.7780  -3.6601  -3.5988  -3.4453  -3.3748  -3.3272  -3.2804  -3.2200
    -3.0469  -3.0056  -2.9889  -2.8257  -2.7634  -2.7624  -2.6943  -2.6238
    -2.5310  -2.5120  -2.5013  -2.4245  -2.3818  -2.3512  -2.3073  -2.2426
    -2.2169  -2.1714  -2.1587  -2.1237  -2.1142  -2.0462  -1.9631  -1.9543
    -1.8768  -1.8584  -1.8538  -1.8114  -1.7841  -1.7614  -1.6543  -1.6453
    -1.6055  -1.5343  -1.4940  -1.4928  -1.4383  -1.4051  -1.3847  -1.3728
    -1.3478  -1.2689  -1.2425  -1.2364  -1.1675  -1.1369  -1.0852  -1.0573
    -0.9876  -0.5668   0.0322   0.2457   0.6848   0.7102   1.1016   1.8135
     2.2376   3.0100   3.2875   4.2950   4.6448   5.1443

          k = 0.0000-0.1114 0.0000 ( 14294 PWs)   bands (ev):

  -112.2513-112.2509-112.2473-112.1061-112.1041-112.1024-111.9919-111.8317
  -111.8301-111.8280-111.8070-111.6473 -69.7540 -69.7444 -69.7332 -69.6211
   -69.6158 -69.6061 -69.5602 -69.5518 -69.5389 -69.5249 -69.5140 -69.5070
   -69.5056 -69.4989 -69.4930 -69.4913 -69.4884 -69.4722 -69.3971 -69.3923
   -69.3812 -69.2757 -69.2661 -69.2533 -69.2528 -69.2490 -69.2311 -69.2288
   -69.2154 -69.1830 -69.1815 -69.1796 -69.1554 -69.0734 -69.0724 -69.0125
   -10.6104  -6.1308  -6.0065  -5.3478  -4.5132  -4.0912  -3.8205  -3.8004
    -3.5479  -3.5435  -3.5045  -3.4164  -3.3274  -3.1893  -3.1445  -3.1165
    -3.0361  -2.9897  -2.9560  -2.9012  -2.7953  -2.7906  -2.7496  -2.7182
    -2.6416  -2.6223  -2.5278  -2.4777  -2.3789  -2.3707  -2.3361  -2.2797
    -2.2687  -2.2350  -2.1855  -2.1538  -2.1428  -2.1213  -2.0798  -2.0764
    -2.0677  -2.0358  -1.8892  -1.8377  -1.8372  -1.7936  -1.7607  -1.7377
    -1.7330  -1.6443  -1.6413  -1.5650  -1.5151  -1.4929  -1.4672  -1.4586
    -1.3902  -1.3871  -1.3089  -1.2737  -1.1771  -1.1475  -1.1374  -1.0842
    -1.0292  -0.2750   0.0115   0.0532   0.5288   0.7199   1.3241   2.0669
     2.2946   2.6814   3.7478   4.5155   4.8865   5.5674

          k = 0.0321-0.0186 0.0000 ( 14383 PWs)   bands (ev):

  -112.2534-112.2485-112.2475-112.1077-112.1027-112.1022-111.9919-111.8336
  -111.8284-111.8279-111.8068-111.6473 -69.7634 -69.7356 -69.7347 -69.6235
   -69.6214 -69.6000 -69.5693 -69.5413 -69.5403 -69.5294 -69.5249 -69.5246
   -69.4965 -69.4956 -69.4920 -69.4913 -69.4737 -69.4707 -69.3920 -69.3908
   -69.3814 -69.2857 -69.2782 -69.2772 -69.2374 -69.2350 -69.2319 -69.2146
   -69.2116 -69.1847 -69.1801 -69.1796 -69.1553 -69.0723 -69.0720 -69.0125
   -10.6840  -7.5105  -5.9830  -4.9433  -4.2990  -4.1597  -4.0858  -4.0408
    -3.8956  -3.8429  -3.6763  -3.5744  -3.5709  -3.4678  -3.4055  -3.4022
    -3.1621  -3.0364  -3.0209  -2.7618  -2.7134  -2.6402  -2.5885  -2.5237
    -2.4930  -2.4720  -2.3789  -2.3597  -2.3202  -2.3045  -2.2656  -2.2450
    -2.2186  -2.1752  -2.1695  -2.0885  -1.9973  -1.9696  -1.9203  -1.8007
    -1.7550  -1.7101  -1.6388  -1.6158  -1.5421  -1.4649  -1.4611  -1.4213
    -1.3663  -1.3587  -1.3269  -1.2953  -1.2731  -1.2431  -1.2053  -1.1898
    -1.1825  -1.1580  -1.1455  -1.1024  -1.0415  -1.0286  -0.9846  -0.9751
    -0.6405  -0.2181   0.1134   0.1366   0.7296   0.7390   1.1770   1.6973
     2.0469   2.4765   2.9770   3.0825   4.1241   4.6870

          k = 0.0321 0.0186 0.0000 ( 14383 PWs)   bands (ev):

  -112.2534-112.2487-112.2474-112.1077-112.1026-112.1024-111.9919-111.8336
  -111.8282-111.8281-111.8068-111.6473 -69.7634 -69.7362 -69.7341 -69.6232
   -69.6217 -69.6000 -69.5693 -69.5418 -69.5398 -69.5295 -69.5250 -69.5244
   -69.4965 -69.4956 -69.4919 -69.4914 -69.4736 -69.4708 -69.3920 -69.3908
   -69.3814 -69.2857 -69.2781 -69.2773 -69.2374 -69.2348 -69.2321 -69.2147
   -69.2116 -69.1847 -69.1799 -69.1798 -69.1553 -69.0723 -69.0720 -69.0125
   -10.6840  -7.5106  -5.9830  -4.9433  -4.2990  -4.1597  -4.0858  -4.0408
    -3.8956  -3.8429  -3.6763  -3.5744  -3.5709  -3.4678  -3.4055  -3.4022
    -3.1621  -3.0365  -3.0208  -2.7618  -2.7133  -2.6403  -2.5885  -2.5237
    -2.4931  -2.4720  -2.3790  -2.3597  -2.3203  -2.3045  -2.2656  -2.2449
    -2.2186  -2.1752  -2.1695  -2.0885  -1.9973  -1.9696  -1.9203  -1.8006
    -1.7550  -1.7102  -1.6388  -1.6158  -1.5421  -1.4650  -1.4612  -1.4214
    -1.3662  -1.3586  -1.3269  -1.2953  -1.2731  -1.2431  -1.2054  -1.1898
    -1.1825  -1.1580  -1.1454  -1.1024  -1.0415  -1.0286  -0.9846  -0.9751
    -0.6405  -0.2181   0.1136   0.1366   0.7296   0.7389   1.1770   1.6972
     2.0469   2.4765   2.9769   3.0825   4.1241   4.6870

          k = 0.0321 0.0557 0.0000 ( 14335 PWs)   bands (ev):

  -112.2527-112.2494-112.2473-112.1071-112.1032-112.1024-111.9919-111.8329
  -111.8289-111.8281-111.8069-111.6473 -69.7596 -69.7394 -69.7335 -69.6220
   -69.6196 -69.6024 -69.5660 -69.5453 -69.5393 -69.5254 -69.5231 -69.5185
   -69.4997 -69.4948 -69.4929 -69.4915 -69.4792 -69.4721 -69.3942 -69.3918
[...]
    -1.5365  -1.4903  -1.4571  -1.4132  -1.3756  -1.3665  -1.3435  -1.2820
    -1.2587  -1.2031  -1.1916  -1.1561  -1.1417  -1.0968  -1.0693  -0.8726
    -0.8125  -0.5146  -0.4204  -0.2028   0.6655   1.2018   1.4656   1.9578
     2.3115   2.9181   3.1077   3.5944   4.5426   5.1358

          k = 0.0643-0.0371 0.0000 ( 14316 PWs)   bands (ev):

  -112.3484-112.3444-112.3433-112.0753-112.0721-112.0709-111.9439-111.8040
  -111.8006-111.7994-111.7822-111.6425 -69.8899 -69.8665 -69.8595 -69.6998
   -69.6960 -69.6799 -69.6387 -69.6209 -69.6152 -69.4964 -69.4896 -69.4865
   -69.4708 -69.4630 -69.4608 -69.4585 -69.4537 -69.4427 -69.3504 -69.3472
   -69.3327 -69.2511 -69.2437 -69.2388 -69.2155 -69.2142 -69.2021 -69.1989
   -69.1876 -69.1549 -69.1519 -69.1508 -69.1304 -69.0674 -69.0667 -69.0112
   -10.9737  -6.9236  -5.7860  -5.0525  -4.6426  -4.1378  -4.0041  -3.8873
    -3.7592  -3.6726  -3.5978  -3.4605  -3.4453  -3.2979  -3.2898  -3.2213
    -3.1302  -3.0208  -3.0139  -2.8358  -2.7930  -2.7620  -2.7274  -2.6335
    -2.5695  -2.5587  -2.4989  -2.4314  -2.4225  -2.3591  -2.3009  -2.2718
    -2.2182  -2.1741  -2.1543  -2.1430  -2.0938  -2.0669  -1.9690  -1.9683
    -1.8739  -1.8527  -1.8479  -1.7987  -1.7909  -1.7476  -1.6505  -1.6381
    -1.5983  -1.5189  -1.4976  -1.4583  -1.4336  -1.3843  -1.3763  -1.3606
    -1.3441  -1.2656  -1.2305  -1.2127  -1.1483  -1.1200  -1.0665  -1.0365
    -0.9723  -0.5332  -0.0508   0.2184   0.7615   0.7687   1.1095   1.8687
     2.3409   3.0698   3.2569   4.2913   4.6690   5.1761

          k = 0.0643-0.0000 0.0000 ( 14335 PWs)   bands (ev):

  -112.3486-112.3442-112.3433-112.0756-112.0718-112.0709-111.9439-111.8043
  -111.8003-111.7994-111.7821-111.6425 -69.8914 -69.8652 -69.8595 -69.7000
   -69.6970 -69.6790 -69.6398 -69.6195 -69.6152 -69.4958 -69.4936 -69.4888
   -69.4695 -69.4633 -69.4600 -69.4585 -69.4505 -69.4429 -69.3494 -69.3472
   -69.3327 -69.2527 -69.2443 -69.2436 -69.2162 -69.2069 -69.2058 -69.1950
   -69.1873 -69.1551 -69.1516 -69.1508 -69.1303 -69.0672 -69.0667 -69.0112
   -10.9870  -7.1063  -5.8570  -4.8920  -4.5136  -4.3378  -3.9890  -3.9761
    -3.8768  -3.6812  -3.6149  -3.4892  -3.4699  -3.3501  -3.2784  -3.2775
    -3.1508  -3.0612  -3.0327  -2.8415  -2.7778  -2.7110  -2.6822  -2.6120
    -2.5203  -2.5159  -2.5004  -2.4313  -2.3958  -2.3176  -2.2736  -2.2526
    -2.2156  -2.1919  -2.1758  -2.1526  -2.0854  -2.0185  -1.9966  -1.9341
    -1.8397  -1.7879  -1.7764  -1.7318  -1.7153  -1.6665  -1.6420  -1.5784
    -1.5365  -1.4903  -1.4571  -1.4132  -1.3756  -1.3665  -1.3435  -1.2820
    -1.2587  -1.2031  -1.1916  -1.1561  -1.1417  -1.0968  -1.0693  -0.8726
    -0.8125  -0.5146  -0.4204  -0.2028   0.6654   1.2018   1.4656   1.9578
     2.3115   2.9181   3.1077   3.5944   4.5426   5.1358

          k = 0.0643 0.0371 0.0000 ( 14316 PWs)   bands (ev):

  -112.3484-112.3444-112.3433-112.0753-112.0721-112.0709-111.9439-111.8040
  -111.8006-111.7994-111.7822-111.6425 -69.8899 -69.8664 -69.8595 -69.6998
   -69.6960 -69.6799 -69.6387 -69.6209 -69.6152 -69.4964 -69.4896 -69.4865
   -69.4708 -69.4630 -69.4608 -69.4585 -69.4537 -69.4427 -69.3504 -69.3472
   -69.3327 -69.2511 -69.2437 -69.2388 -69.2155 -69.2142 -69.2021 -69.1989
   -69.1876 -69.1548 -69.1519 -69.1508 -69.1304 -69.0674 -69.0667 -69.0112
   -10.9737  -6.9236  -5.7860  -5.0525  -4.6426  -4.1378  -4.0041  -3.8873
    -3.7592  -3.6726  -3.5978  -3.4605  -3.4454  -3.2979  -3.2898  -3.2213
    -3.1301  -3.0208  -3.0139  -2.8358  -2.7930  -2.7620  -2.7274  -2.6335
    -2.5695  -2.5587  -2.4989  -2.4314  -2.4225  -2.3591  -2.3009  -2.2718
    -2.2182  -2.1741  -2.1543  -2.1429  -2.0938  -2.0669  -1.9690  -1.9683
    -1.8739  -1.8527  -1.8479  -1.7987  -1.7909  -1.7476  -1.6505  -1.6381
    -1.5983  -1.5188  -1.4976  -1.4583  -1.4336  -1.3843  -1.3763  -1.3606
    -1.3441  -1.2656  -1.2305  -1.2127  -1.1483  -1.1200  -1.0665  -1.0365
    -0.9723  -0.5331  -0.0509   0.2184   0.7615   0.7687   1.1095   1.8687
     2.3409   3.0698   3.2569   4.2913   4.6690   5.1761

          k = 0.0643-0.1485 0.0000 ( 14299 PWs)   bands (ev):

  -112.3479-112.3449-112.3433-112.0746-112.0728-112.0709-111.9439-111.8032
  -111.8013-111.7995-111.7822-111.6425 -69.8859 -69.8701 -69.8592 -69.6994
   -69.6936 -69.6822 -69.6361 -69.6238 -69.6156 -69.4928 -69.4872 -69.4778
   -69.4760 -69.4636 -69.4619 -69.4586 -69.4579 -69.4444 -69.3512 -69.3483
   -69.3326 -69.2463 -69.2370 -69.2322 -69.2252 -69.2152 -69.2060 -69.1997
   -69.1906 -69.1541 -69.1525 -69.1509 -69.1304 -69.0676 -69.0670 -69.0112
   -10.9476  -6.4024  -5.6919  -5.2410  -4.6412  -4.3995  -4.0249  -3.7928
    -3.6255  -3.5204  -3.4649  -3.3602  -3.3075  -3.2057  -3.1918  -3.1472
    -3.0846  -2.9732  -2.9529  -2.8773  -2.8451  -2.8077  -2.7669  -2.7334
    -2.6667  -2.6483  -2.5696  -2.5397  -2.4828  -2.4299  -2.3709  -2.3370
    -2.2868  -2.2592  -2.2165  -2.1924  -2.1544  -2.0911  -2.0573  -2.0232
    -2.0095  -1.9789  -1.9241  -1.8471  -1.8206  -1.7694  -1.7475  -1.7157
    -1.6673  -1.5907  -1.5811  -1.5214  -1.4749  -1.4534  -1.4116  -1.3903
    -1.2963  -1.2771  -1.2520  -1.1991  -1.1760  -1.1573  -1.1259  -1.0833
    -1.0095  -0.7453  -0.2908  -0.1725   0.4806   1.1196   1.7436   2.1725
     2.6447   3.3929   3.7324   4.1646   4.8110   5.2986

          k = 0.0643-0.1114 0.0000 ( 14310 PWs)   bands (ev):

  -112.3476-112.3452-112.3433-112.0737-112.0737-112.0709-111.9439-111.8022
  -111.8022-111.7996-111.7823-111.6426 -69.8829 -69.8730 -69.8591 -69.6992
   -69.6919 -69.6839 -69.6342 -69.6257 -69.6159 -69.4873 -69.4846 -69.4842
   -69.4690 -69.4686 -69.4605 -69.4604 -69.4588 -69.4460 -69.3503 -69.3502
   -69.3325 -69.2385 -69.2377 -69.2288 -69.2244 -69.2242 -69.2071 -69.1958
   -69.1958 -69.1534 -69.1531 -69.1509 -69.1304 -69.0674 -69.0673 -69.0112
   -10.9347  -5.8888  -5.5717  -5.4293  -5.0512  -4.3327  -4.1166  -3.7717
    -3.5878  -3.3880  -3.2924  -3.2446  -3.1811  -3.1463  -3.0663  -3.0410
    -3.0381  -3.0288  -2.9930  -2.9540  -2.9509  -2.8651  -2.8179  -2.8135
    -2.6961  -2.6322  -2.6174  -2.5657  -2.5620  -2.5449  -2.4571  -2.4443
    -2.4406  -2.3971  -2.1768  -2.1762  -2.1543  -2.1398  -2.1190  -2.1168
    -2.0496  -1.9927  -1.8610  -1.8488  -1.8336  -1.8208  -1.7178  -1.6662
    -1.6348  -1.6059  -1.5446  -1.5088  -1.4811  -1.4192  -1.3858  -1.3603
    -1.2512  -1.2413  -1.2371  -1.2017  -1.1979  -1.1796  -1.1574  -1.1537
    -1.0205  -0.9836  -0.9201   0.1326   0.5538   0.5723   2.3072   2.4475
     3.1617   4.0852   4.1263   4.4630   4.6143   5.0075

          k = 0.0643-0.0742 0.0000 ( 14299 PWs)   bands (ev):

  -112.3479-112.3449-112.3433-112.0746-112.0728-112.0709-111.9439-111.8032
  -111.8013-111.7995-111.7822-111.6425 -69.8859 -69.8701 -69.8592 -69.6994
   -69.6936 -69.6822 -69.6361 -69.6238 -69.6156 -69.4928 -69.4872 -69.4778
   -69.4760 -69.4636 -69.4619 -69.4586 -69.4579 -69.4444 -69.3512 -69.3483
   -69.3326 -69.2463 -69.2370 -69.2322 -69.2252 -69.2152 -69.2060 -69.1997
   -69.1906 -69.1542 -69.1525 -69.1509 -69.1304 -69.0676 -69.0670 -69.0112
   -10.9476  -6.4024  -5.6918  -5.2410  -4.6412  -4.3995  -4.0250  -3.7928
    -3.6255  -3.5204  -3.4649  -3.3602  -3.3075  -3.2057  -3.1918  -3.1472
    -3.0846  -2.9733  -2.9529  -2.8773  -2.8451  -2.8077  -2.7669  -2.7334
    -2.6667  -2.6483  -2.5697  -2.5397  -2.4828  -2.4299  -2.3709  -2.3370
    -2.2868  -2.2592  -2.2165  -2.1924  -2.1544  -2.0911  -2.0573  -2.0232
    -2.0095  -1.9789  -1.9241  -1.8471  -1.8206  -1.7694  -1.7475  -1.7157
    -1.6674  -1.5907  -1.5811  -1.5214  -1.4749  -1.4534  -1.4115  -1.3903
    -1.2964  -1.2771  -1.2520  -1.1991  -1.1760  -1.1573  -1.1259  -1.0833
    -1.0095  -0.7453  -0.2908  -0.1725   0.4806   1.1195   1.7436   2.1724
     2.6447   3.3929   3.7324   4.1646   4.8110   5.2986

          k =-0.0964 0.0557 0.0000 ( 14294 PWs)   bands (ev):

  -112.3479-112.3449-112.3433-112.0746-112.0728-112.0709-111.9439-111.8031
  -111.8014-111.7994-111.7822-111.6425 -69.8860 -69.8699 -69.8593 -69.6994
   -69.6936 -69.6822 -69.6360 -69.6241 -69.6154 -69.4951 -69.4841 -69.4763
   -69.4755 -69.4668 -69.4619 -69.4588 -69.4585 -69.4431 -69.3520 -69.3476
   -69.3326 -69.2474 -69.2386 -69.2253 -69.2243 -69.2205 -69.2063 -69.2006
   -69.1892 -69.1541 -69.1526 -69.1508 -69.1304 -69.0677 -69.0668 -69.0112
   -10.9472  -6.1655  -6.0133  -5.4050  -4.6188  -4.1062  -3.8483  -3.8180
    -3.6068  -3.5494  -3.5169  -3.4136  -3.3937  -3.1838  -3.1784  -3.1401
    -3.0639  -3.0197  -2.9729  -2.9204  -2.7911  -2.7835  -2.7561  -2.7321
    -2.6946  -2.6480  -2.5342  -2.5154  -2.4978  -2.3692  -2.3615  -2.2969
    -2.2958  -2.2167  -2.1778  -2.1495  -2.1219  -2.1038  -2.0741  -2.0600
    -2.0446  -2.0285  -1.8800  -1.8420  -1.8195  -1.7857  -1.7603  -1.7398
    -1.7278  -1.6764  -1.6238  -1.5787  -1.4981  -1.4646  -1.4415  -1.4363
    -1.3765  -1.3751  -1.2694  -1.2656  -1.1590  -1.1329  -1.1286  -1.0643
    -1.0139  -0.2728  -0.0719   0.1201   0.5606   0.7758   1.2840   2.1197
     2.4079   2.8932   3.7119   4.4029   4.9409   5.6706

          k =-0.0964 0.0928 0.0000 ( 14299 PWs)   bands (ev):

  -112.3479-112.3449-112.3433-112.0746-112.0728-112.0709-111.9439-111.8032
  -111.8013-111.7995-111.7822-111.6425 -69.8859 -69.8701 -69.8592 -69.6994
   -69.6936 -69.6822 -69.6361 -69.6238 -69.6156 -69.4928 -69.4871 -69.4778
   -69.4761 -69.4636 -69.4619 -69.4586 -69.4579 -69.4443 -69.3512 -69.3483
   -69.3326 -69.2463 -69.2370 -69.2322 -69.2252 -69.2152 -69.2060 -69.1997
   -69.1906 -69.1542 -69.1525 -69.1509 -69.1304 -69.0676 -69.0670 -69.0112
   -10.9476  -6.4024  -5.6918  -5.2410  -4.6412  -4.3995  -4.0250  -3.7928
    -3.6255  -3.5204  -3.4649  -3.3602  -3.3074  -3.2057  -3.1918  -3.1472
    -3.0846  -2.9733  -2.9529  -2.8773  -2.8451  -2.8077  -2.7669  -2.7334
    -2.6667  -2.6483  -2.5697  -2.5397  -2.4828  -2.4299  -2.3709  -2.3370
    -2.2868  -2.2592  -2.2165  -2.1924  -2.1544  -2.0911  -2.0573  -2.0232
    -2.0095  -1.9789  -1.9241  -1.8471  -1.8206  -1.7694  -1.7475  -1.7157
    -1.6673  -1.5907  -1.5811  -1.5214  -1.4749  -1.4535  -1.4115  -1.3902
    -1.2964  -1.2771  -1.2520  -1.1991  -1.1760  -1.1573  -1.1259  -1.0833
    -1.0095  -0.7453  -0.2908  -0.1725   0.4807   1.1195   1.7436   2.1724
     2.6447   3.3929   3.7324   4.1646   4.8110   5.2986

          k =-0.0964 0.1299 0.0000 ( 14299 PWs)   bands (ev):

  -112.3479-112.3449-112.3433-112.0746-112.0728-112.0709-111.9439-111.8032
  -111.8013-111.7995-111.7822-111.6425 -69.8859 -69.8701 -69.8592 -69.6994
   -69.6936 -69.6822 -69.6361 -69.6238 -69.6156 -69.4928 -69.4871 -69.4778
   -69.4761 -69.4636 -69.4619 -69.4587 -69.4579 -69.4444 -69.3512 -69.3483
   -69.3326 -69.2463 -69.2370 -69.2322 -69.2252 -69.2152 -69.2060 -69.1997
   -69.1906 -69.1542 -69.1525 -69.1509 -69.1304 -69.0676 -69.0670 -69.0112
   -10.9476  -6.4024  -5.6919  -5.2410  -4.6412  -4.3995  -4.0249  -3.7929
    -3.6255  -3.5204  -3.4649  -3.3602  -3.3075  -3.2057  -3.1918  -3.1472
    -3.0846  -2.9733  -2.9529  -2.8773  -2.8451  -2.8077  -2.7669  -2.7334
    -2.6667  -2.6483  -2.5696  -2.5397  -2.4828  -2.4299  -2.3710  -2.3371
    -2.2868  -2.2592  -2.2165  -2.1924  -2.1544  -2.0911  -2.0573  -2.0232
    -2.0095  -1.9789  -1.9241  -1.8471  -1.8206  -1.7694  -1.7475  -1.7157
    -1.6673  -1.5907  -1.5811  -1.5214  -1.4749  -1.4535  -1.4115  -1.3902
    -1.2964  -1.2771  -1.2520  -1.1991  -1.1760  -1.1573  -1.1259  -1.0833
    -1.0095  -0.7453  -0.2908  -0.1725   0.4806   1.1195   1.7437   2.1724
     2.6447   3.3929   3.7324   4.1646   4.8110   5.2986

          k =-0.0964-0.0557 0.0000 ( 14294 PWs)   bands (ev):

  -112.3479-112.3449-112.3433-112.0746-112.0728-112.0709-111.9439-111.8031
  -111.8014-111.7994-111.7822-111.6425 -69.8860 -69.8699 -69.8593 -69.6994
   -69.6936 -69.6822 -69.6360 -69.6241 -69.6154 -69.4951 -69.4841 -69.4763
   -69.4755 -69.4668 -69.4619 -69.4588 -69.4585 -69.4431 -69.3520 -69.3476
   -69.3326 -69.2474 -69.2386 -69.2253 -69.2243 -69.2205 -69.2063 -69.2006
   -69.1892 -69.1541 -69.1526 -69.1508 -69.1304 -69.0677 -69.0668 -69.0112
   -10.9472  -6.1654  -6.0133  -5.4050  -4.6188  -4.1062  -3.8482  -3.8180
    -3.6068  -3.5494  -3.5170  -3.4136  -3.3937  -3.1838  -3.1785  -3.1401
    -3.0639  -3.0197  -2.9729  -2.9204  -2.7911  -2.7835  -2.7561  -2.7321
    -2.6945  -2.6480  -2.5342  -2.5154  -2.4978  -2.3693  -2.3615  -2.2969
    -2.2958  -2.2167  -2.1778  -2.1495  -2.1219  -2.1038  -2.0740  -2.0600
    -2.0446  -2.0284  -1.8800  -1.8420  -1.8195  -1.7857  -1.7603  -1.7398
    -1.7278  -1.6764  -1.6238  -1.5787  -1.4981  -1.4646  -1.4415  -1.4363
    -1.3765  -1.3751  -1.2694  -1.2657  -1.1590  -1.1329  -1.1286  -1.0643
    -1.0139  -0.2727  -0.0720   0.1200   0.5606   0.7758   1.2840   2.1197
     2.4079   2.8931   3.7119   4.4029   4.9409   5.6707

     the Fermi energy is     0.5783 ev

!    total energy              =   -4871.90914135 Ry
     Harris-Foulkes estimate   =   -4871.90914137 Ry
     estimated scf accuracy    <       0.00000009 Ry

     The total energy is the sum of the following terms:

     one-electron contribution =  -37680.56654084 Ry
     hartree contribution      =   18856.30858477 Ry
     xc contribution           =    -484.40227048 Ry
     ewald contribution        =   14436.77681952 Ry
     electric field correction =       0.00000379 Ry
     smearing contrib. (-TS)   =      -0.02573810 Ry

     convergence has been achieved in   5 iterations
 
 BEEF-vdW xc energy contributions
           1 :   -429.210252835435     
           2 :    389.178196137928     
           3 :   -321.325968179770     
           4 :    244.266846520920     
           5 :   -174.986101171965     
           6 :    122.770001593133     
           7 :   -87.7163516249298     
           8 :    63.8160607699256     
           9 :   -44.2035521111346     
          10 :    25.3387073706495     
          11 :   -8.01683780001332     
          12 :   -4.69460246066615     
          13 :    10.6430015883116     
          14 :   -10.5900677322888     
          15 :    7.85076958704195     
          16 :   -6.13362705071455     
          17 :    7.27546376948425     
          18 :   -10.4332181847591     
          19 :    13.1273744898838     
          20 :   -13.2470125384827     
          21 :    10.5663378981239     
          22 :   -6.79131785352268     
          23 :    4.24310319950933     
          24 :   -4.20941379142806     
          25 :    6.13231082001977     
          26 :   -8.13423764076316     
          27 :    8.42294142764632     
          28 :   -6.54264770781498     
          29 :    3.61260511448205     
          30 :   -1.45029367970176     
          31 :   -34.3503232888422     
          32 :   -23.5021008525474     

     Forces acting on atoms (Ry/au):


     negative rho (up, down):  1.095E-03 0.000E+00
     atom    1 type  1   force =    -0.00041865   -0.00023914    0.00309627
     atom    2 type  1   force =     0.00041546   -0.00023935    0.00309541
     atom    3 type  1   force =    -0.00000181    0.00048313    0.00309618
     atom    4 type  1   force =    -0.00000178    0.00000181   -0.00046758
     atom    5 type  1   force =     0.00000106    0.00267848    0.00191707
     atom    6 type  1   force =    -0.00000525    0.00000443   -0.01218177
     atom    7 type  1   force =    -0.00232006   -0.00134199    0.00191382
     atom    8 type  1   force =     0.00232141   -0.00134066    0.00190887
     atom    9 type  1   force =     0.00001123   -0.00002780   -0.00084541
     atom   10 type  1   force =    -0.00000069   -0.00011643   -0.00061081
     atom   11 type  1   force =    -0.00010248    0.00006701   -0.00060470
     atom   12 type  1   force =     0.00009934    0.00006881   -0.00061259
     atom   13 type  2   force =     0.00000146    0.00000534    0.00169058
     atom   14 type  3   force =     0.00000076   -0.00000365   -0.00139535

     Total force =     0.002584     Total SCF correction =     0.002463
     SCF correction compared to forces is large: reduce conv_thr to get better values


     entering subroutine stress ...


     negative rho (up, down):  1.095E-03 0.000E+00
          total   stress  (Ry/bohr**3)                   (kbar)     P=  -20.25
  -0.00015508  -0.00000001   0.00000000        -22.81     -0.00      0.00
  -0.00000001  -0.00015510   0.00000000         -0.00    -22.82      0.00
   0.00000000   0.00000000  -0.00010284          0.00      0.00    -15.13


     bfgs converged in  15 scf cycles and  14 bfgs steps
     (criteria: energy <  1.0E+00, force <  1.9E-03)

     End of BFGS Geometry Optimization

     Final energy   =   -4871.9091413481 Ry
Begin final coordinates

ATOMIC_POSITIONS (crystal)
Cu1      0.166666667   0.166666667   0.412653782    0   0   0
Cu1      0.666666667   0.166666667   0.412653782    0   0   0
Cu1      0.166666667   0.666666667   0.412653782    0   0   0
Cu1      0.666666667   0.666666667   0.412653782    0   0   0
Cu1      0.833333333   0.333333333   0.500000000    0   0   0
Cu1      0.333333333   0.333333333   0.500000000    0   0   0
Cu1      0.833333333   0.833333333   0.500000000    0   0   0
Cu1      0.333333333   0.833333333   0.500000000    0   0   0
Cu1      0.000039052  -0.000034965   0.587714967
Cu1      0.504686576  -0.009349237   0.588671626
Cu1     -0.009361789   0.504673923   0.588676345
Cu1      0.504687057   0.504658600   0.588673183
C1       0.333327822   0.333329939   0.635331074
H1       0.333314283   0.333347823   0.680490572
End final coordinates



     Writing output data file calc.save
 
     init_run     :      4.63s CPU      6.98s WALL (       1 calls)
     electrons    :   2254.86s CPU   2543.63s WALL (      15 calls)
     update_pot   :     13.79s CPU     15.71s WALL (      14 calls)
     forces       :     39.34s CPU     41.89s WALL (      15 calls)
     stress       :    138.73s CPU    146.28s WALL (      15 calls)

     Called by init_run:
     wfcinit      :      3.11s CPU      5.16s WALL (       1 calls)
     potinit      :      0.53s CPU      0.65s WALL (       1 calls)

     Called by electrons:
     c_bands      :   1762.10s CPU   1963.38s WALL (     165 calls)
     sum_band     :    238.32s CPU    255.46s WALL (     165 calls)
     v_of_rho     :     51.21s CPU     69.21s WALL (     179 calls)
     newd         :     79.80s CPU     83.86s WALL (     179 calls)
     mix_rho      :      1.68s CPU      1.81s WALL (     165 calls)
     vdW_energy   :     44.77s CPU     58.08s WALL (     719 calls)
     vdW_ffts     :     58.57s CPU     83.81s WALL (    1468 calls)
     vdW_v        :     26.23s CPU     31.84s WALL (     719 calls)

     Called by c_bands:
     init_us_2    :      8.38s CPU      8.77s WALL (    7220 calls)
     cegterg      :   1699.73s CPU   1899.28s WALL (    3300 calls)

     Called by *egterg:
     h_psi        :    718.31s CPU    803.38s WALL (   15127 calls)
     s_psi        :     61.15s CPU     63.14s WALL (   15127 calls)
     g_psi        :      7.90s CPU      8.08s WALL (   11807 calls)
     cdiaghg      :    601.49s CPU    614.02s WALL (   14807 calls)

     Called by h_psi:
     add_vuspsi   :     60.55s CPU     62.45s WALL (   15127 calls)

     General routines
     calbec       :    103.93s CPU    106.65s WALL (   19027 calls)
     fft          :     95.03s CPU    132.53s WALL (   43377 calls)
     ffts         :      0.22s CPU      0.25s WALL (     344 calls)
     fftw         :    590.33s CPU    679.40s WALL ( 2486400 calls)
     interpolate  :      1.15s CPU      1.27s WALL (     344 calls)
     davcio       :      0.01s CPU      0.10s WALL (      20 calls)
 
     Parallel routines
     fft_scatter  :    356.00s CPU    420.53s WALL ( 2530121 calls)
 
     PWSCF        : 41m 1.24s CPU    46m12.55s WALL

 
   This run was terminated on:   9:22: 0  17Apr2018            

=------------------------------------------------------------------------------=
   JOB DONE.
=------------------------------------------------------------------------------=
