  python dir          : /home/mamunm/src/espresso
  espresso dir        : /home/vossj/suncat/esdld/espresso-dynpy-beef/bin
  pseudo dir          : /home/mamunm/src/pseudo/gbrv1.5pbe
  ase-espresso py git : GITVERSION



     Program PWSCF v.5.1rc2 (svn rev. ) starts on 22Feb2018 at 14:33:49 

     This program is part of the open-source Quantum ESPRESSO suite
     for quantum simulation of materials; please cite
         "P. Giannozzi et al., J. Phys.:Condens. Matter 21 395502 (2009);
          URL http://www.quantum-espresso.org", 
     in publications or presentations arising from this work. More details at
     http://www.quantum-espresso.org/quote

     Parallel version (MPI), running on    16 processors
     R & G space division:  proc/nbgrp/npool/nimage =      16
     Reading input from pw.inp
     Message from routine read_cards :
     DEPRECATED: no units specified in CELL_PARAMETERS card

     Current dimensions of program PWSCF are:
     Max number of different atomic species (ntypx) = 10
     Max number of k-points (npk) =  40000
     Max angular momentum in pseudopotentials (lmaxx) =  3
     Presently stress not available with electric field


     **************************************************************************
     Initializing libbeef V0.1.1 with the BEEF-vdW functional.
     Citation: Wellendorff et al., PRB 85, 235149 (2012).
     **************************************************************************


     IMPORTANT: XC functional enforced from input :
     Exchange-correlation      = BEEF-VDW ( 1  4 27 13 2)
     Any further DFT definition will be discarded
     Please, verify this is what you really want


     Subspace diagonalization in iterative solution of the eigenvalue problem:
     a serial algorithm will be used

 
     Parallelization info
     --------------------
     sticks:   dense  smooth     PW     G-vecs:    dense   smooth      PW
     Min         273     109     31                54089    13674    2071
     Max         274     110     32                54106    13722    2088
     Sum        4381    1759    499               865629   219157   33273
 


     bravais-lattice index     =            0
     lattice parameter (alat)  =       1.8897  a.u.
     unit-cell volume          =    7276.7660 (a.u.)^3
     number of atoms/cell      =           13
     number of atomic types    =            2
     number of electrons       =       181.00
     number of Kohn-Sham states=          100
     kinetic-energy cutoff     =      36.7493  Ry
     charge density cutoff     =     367.4932  Ry
     convergence threshold     =      1.0E-05
     mixing beta               =       0.3000
     number of iterations used =           10  plain     mixing
     Exchange-correlation      = BEEF-VDW ( 1  4 27 13 2)
     nstep                     =           50


     celldm(1)=   1.889726  celldm(2)=   0.000000  celldm(3)=   0.000000
     celldm(4)=   0.000000  celldm(5)=   0.000000  celldm(6)=   0.000000

     crystal axes: (cart. coord. in units of alat)
               a(1) = (   6.962526   0.000000   0.000000 )  
               a(2) = (   3.481263   6.029724   0.000000 )  
               a(3) = (   0.000000   0.000000  25.684879 )  

     reciprocal axes: (cart. coord. in units 2 pi/alat)
               b(1) = (  0.143626 -0.082923  0.000000 )  
               b(2) = (  0.000000  0.165845  0.000000 )  
               b(3) = (  0.000000  0.000000  0.038933 )  


     PseudoPot. # 1 for Bi read from file:
     /home/mamunm/src/pseudo/gbrv1.5pbe/Bi.UPF
     MD5 check sum: 81103212dc04adf40945787f699eab19
     Pseudo is Ultrasoft + core correction, Zval = 15.0
     Generated by new atomic code, or converted to UPF format
     Using radial grid of  899 points,  6 beta functions with: 
                l(1) =   0
                l(2) =   0
                l(3) =   1
                l(4) =   1
                l(5) =   2
                l(6) =   2
     Q(r) pseudized with  6 coefficients,  rinner =    1.000   1.000   1.000
                                                       1.000   1.000

     PseudoPot. # 2 for H  read from file:
     /home/mamunm/src/pseudo/gbrv1.5pbe/H.UPF
     MD5 check sum: 761ae9a214b05c3daf00ab9f6b793d6f
     Pseudo is Ultrasoft, Zval =  1.0
     Generated by new atomic code, or converted to UPF format
     Using radial grid of  615 points,  2 beta functions with: 
                l(1) =   0
                l(2) =   0
     Q(r) pseudized with  8 coefficients,  rinner =    0.700

     vdW kernel table read from file vdW_kernel_table
     MD5 check sum: 095c7af220d748ca6e76c0b4c6cfb241

     atomic species   valence    mass     pseudopotential
        Bi1           15.00   208.98040     Bi( 1.00)
        H1             1.00     1.00800     H ( 1.00)

     No symmetry found



   Cartesian axes

     site n.     atom                  positions (alat units)
         1           Bi1 tau(   1) = (   1.7406315   1.0049541  10.0000000  )
         2           Bi1 tau(   2) = (   5.2218945   1.0049541  10.0000000  )
         3           Bi1 tau(   3) = (   3.4812630   4.0198163  10.0000000  )
         4           Bi1 tau(   4) = (   6.9625260   4.0198163  10.0000000  )
         5           Bi1 tau(   5) = (   6.9625260   2.0099081  12.8424393  )
         6           Bi1 tau(   6) = (   3.4812630   2.0099081  12.8424393  )
         7           Bi1 tau(   7) = (   8.7031575   5.0247703  12.8424393  )
         8           Bi1 tau(   8) = (   5.2218945   5.0247703  12.8424393  )
         9           Bi1 tau(   9) = (   0.0000000   0.0000000  15.6848787  )
        10           Bi1 tau(  10) = (   3.4812630   0.0000000  15.6848787  )
        11           Bi1 tau(  11) = (   1.7406315   3.0148622  15.6848787  )
        12           Bi1 tau(  12) = (   5.2218945   3.0148622  15.6848787  )
        13           H1  tau(  13) = (   1.7406315   1.0049541  16.8483787  )

     number of k points=    20  Fermi-Dirac smearing, width (Ry)=  0.0110
                       cart. coord. in units 2pi/alat
        k(    1) = (   0.0000000   0.0000000   0.0000000), wk =   0.0555556
        k(    2) = (   0.0000000   0.0276408   0.0000000), wk =   0.1111111
        k(    3) = (   0.0000000   0.0552817   0.0000000), wk =   0.1111111
        k(    4) = (   0.0000000  -0.0829225   0.0000000), wk =   0.0555556
        k(    5) = (   0.0239377  -0.0138204   0.0000000), wk =   0.1111111
        k(    6) = (   0.0239377   0.0138204   0.0000000), wk =   0.1111111
        k(    7) = (   0.0239377   0.0414613   0.0000000), wk =   0.1111111
        k(    8) = (   0.0239377  -0.0967430   0.0000000), wk =   0.1111111
        k(    9) = (   0.0239377  -0.0691021   0.0000000), wk =   0.1111111
        k(   10) = (   0.0239377  -0.0414613   0.0000000), wk =   0.1111111
        k(   11) = (   0.0478753  -0.0276408   0.0000000), wk =   0.1111111
        k(   12) = (   0.0478753   0.0000000   0.0000000), wk =   0.1111111
        k(   13) = (   0.0478753   0.0276408   0.0000000), wk =   0.1111111
        k(   14) = (   0.0478753  -0.1105634   0.0000000), wk =   0.1111111
        k(   15) = (   0.0478753  -0.0829225   0.0000000), wk =   0.1111111
        k(   16) = (   0.0478753  -0.0552817   0.0000000), wk =   0.1111111
        k(   17) = (  -0.0718130   0.0414613   0.0000000), wk =   0.0555556
        k(   18) = (  -0.0718130   0.0691021   0.0000000), wk =   0.1111111
        k(   19) = (  -0.0718130   0.0967430   0.0000000), wk =   0.1111111
        k(   20) = (  -0.0718130  -0.0414613   0.0000000), wk =   0.0555556

     Dense  grid:   865629 G-vectors     FFT dimensions: (  81,  81, 300)

     Smooth grid:   219157 G-vectors     FFT dimensions: (  54,  54, 192)

     Largest allocated arrays     est. size (Mb)     dimensions
        Kohn-Sham Wavefunctions         2.67 Mb     (    1753,  100)
        NL pseudopotentials             5.83 Mb     (    1753,  218)
        Each V/rho on FFT grid          1.90 Mb     (  124659)
        Each G-vector array             0.41 Mb     (   54089)
        G-vector shells                 0.16 Mb     (   20499)
     Largest temporary arrays     est. size (Mb)     dimensions
        Auxiliary wavefunctions        10.70 Mb     (    1753,  400)
        Each subspace H/S matrix        2.44 Mb     (     400,  400)
        Each <psi_i|beta_j> matrix      0.33 Mb     (     218,  100)
        Arrays for rho mixing          19.02 Mb     (  124659,   10)

     Check: negative/imaginary core charge=   -0.000001    0.000000

     Initial potential from superposition of free atoms
     Check: negative starting charge=   -0.503593

     starting charge  168.99949, renormalised to  181.00000

     negative rho (up, down):  5.394E-01 0.000E+00


     ************************************************************************
     *
     * You are using vdW-DF for exchange-correlation in this calculation.
     * Please cite the following three references that made this development
     * possible:
     *
     *   M. Dion, H. Rydberg, E. Schroder, D. C. Langreth, and
     *   B. I. Lundqvist, Phys. Rev. Lett. 92, 246401 (2004).
     *
     *   T. Thonhauser, V. R. Cooper, S. Li, A. Puzder, P. Hyldgaard, and
     *   D. C. Langreth, Phys. Rev. B 76, 125112 (2007).
     *
     *   G. Roman-Perez and J. M. Soler, Phys. Rev. Lett. 103, 096102 (2009).
     *
     *
     * If you are using vdW-DF2, please also cite:
     *
     *   K. Lee, E. D. Murray, L. Kong, B. I. Lundqvist, and
     *   D. C. Langreth, Phys. Rev. B 82, 081101(R) (2010).
     *
     *
     * If you are calculating the stress with vdW-DF, please also cite:
     *
     *   R. Sabatini, E. Kucukbenli, B. Kolb, T. Thonhauser, and
     *   S. de Gironcoli, J. Phys.: Condens. Matter 24, 424209 (2012).
     *
     ************************************************************************

     Carrying out vdW-DF run using the following parameters:

     Nqs =      20    Nr_points =    1024   r_max =   100.000
     q_mesh =
               0.00001000     0.04494208     0.09755937     0.15916263
               0.23128650     0.31572767     0.41458969     0.53033537
               0.66584808     0.82450364     1.01025438     1.22772762
               1.48234092     1.78043706     2.12944203     2.53805004
               3.01644009     3.57652955     4.23227104     5.00000000

     Gradients computed in reciprocal space

     ************************************************************************


 
     Adding external electric field

     Computed dipole along edir(3) : 
        Dipole               -0.5375 Ry au,         -1.3661 Debye
        Dipole field         -0.0009 Ry au
 
        Potential amp.        0.0878 Ry
        Total length         47.3240 bohr
 
     Starting wfc are  109 randomized atomic wfcs

     total cpu time spent up to now is       11.1 secs

     Self-consistent Calculation

     iteration #  1     ecut=    36.75 Ry     beta=0.30
     Davidson diagonalization with overlap
     ethr =  1.00E-02,  avg # of iterations =  4.2

     negative rho (up, down):  5.152E-01 0.000E+00
 
     Adding external electric field

     Computed dipole along edir(3) : 
        Dipole                5.0737 Ry au,         12.8960 Debye
        Dipole field          0.0088 Ry au
 
        Potential amp.       -0.8293 Ry
        Total length         47.3240 bohr
 

     total cpu time spent up to now is       37.9 secs

     total energy              =   -2245.75450588 Ry
     Harris-Foulkes estimate   =   -2250.49260547 Ry
     estimated scf accuracy    <      10.31442026 Ry

     iteration #  2     ecut=    36.75 Ry     beta=0.30
     Davidson diagonalization with overlap
     ethr =  5.70E-03,  avg # of iterations =  6.2

     negative rho (up, down):  5.144E-01 0.000E+00
 
     Adding external electric field

     Computed dipole along edir(3) : 
        Dipole               -1.0555 Ry au,         -2.6828 Debye
        Dipole field         -0.0018 Ry au
 
        Potential amp.        0.1725 Ry
        Total length         47.3240 bohr
 

     total cpu time spent up to now is       66.2 secs

     total energy              =   -2242.67349166 Ry
     Harris-Foulkes estimate   =   -2252.17479949 Ry
     estimated scf accuracy    <     110.93697066 Ry

     iteration #  3     ecut=    36.75 Ry     beta=0.30
     Davidson diagonalization with overlap
     ethr =  5.70E-03,  avg # of iterations =  5.0

     negative rho (up, down):  5.129E-01 0.000E+00
 
     Adding external electric field

     Computed dipole along edir(3) : 
        Dipole               -0.1056 Ry au,         -0.2684 Debye
        Dipole field         -0.0002 Ry au
 
        Potential amp.        0.0173 Ry
        Total length         47.3240 bohr
 

     total cpu time spent up to now is       94.6 secs

     total energy              =   -2246.18731889 Ry
     Harris-Foulkes estimate   =   -2248.14716071 Ry
     estimated scf accuracy    <      15.01523338 Ry

     iteration #  4     ecut=    36.75 Ry     beta=0.30
     Davidson diagonalization with overlap
     ethr =  5.70E-03,  avg # of iterations =  2.9

     negative rho (up, down):  5.133E-01 0.000E+00
 
     Adding external electric field

     Computed dipole along edir(3) : 
        Dipole               -0.2463 Ry au,         -0.6260 Debye
        Dipole field         -0.0004 Ry au
 
        Potential amp.        0.0403 Ry
        Total length         47.3240 bohr
 

     total cpu time spent up to now is      117.8 secs

     total energy              =   -2246.68690766 Ry
     Harris-Foulkes estimate   =   -2247.33002774 Ry
     estimated scf accuracy    <       2.26572524 Ry

     iteration #  5     ecut=    36.75 Ry     beta=0.30
     Davidson diagonalization with overlap
     ethr =  1.25E-03,  avg # of iterations =  3.1

     negative rho (up, down):  5.186E-01 0.000E+00
 
     Adding external electric field

     Computed dipole along edir(3) : 
        Dipole               -0.1688 Ry au,         -0.4291 Debye
        Dipole field         -0.0003 Ry au
 
        Potential amp.        0.0276 Ry
        Total length         47.3240 bohr
 

     total cpu time spent up to now is      141.0 secs

     total energy              =   -2246.90539426 Ry
     Harris-Foulkes estimate   =   -2246.92866645 Ry
     estimated scf accuracy    <       0.06395067 Ry

     iteration #  6     ecut=    36.75 Ry     beta=0.30
     Davidson diagonalization with overlap
     ethr =  3.53E-05,  avg # of iterations =  5.8

     negative rho (up, down):  5.221E-01 0.000E+00
 
     Adding external electric field

     Computed dipole along edir(3) : 
        Dipole               -0.0650 Ry au,         -0.1653 Debye
        Dipole field         -0.0001 Ry au
 
        Potential amp.        0.0106 Ry
        Total length         47.3240 bohr
 

     total cpu time spent up to now is      174.7 secs

     total energy              =   -2246.91907174 Ry
     Harris-Foulkes estimate   =   -2246.92306623 Ry
     estimated scf accuracy    <       0.02887378 Ry

     iteration #  7     ecut=    36.75 Ry     beta=0.30
     Davidson diagonalization with overlap
     ethr =  1.60E-05,  avg # of iterations =  3.7

     negative rho (up, down):  5.261E-01 0.000E+00
 
     Adding external electric field

     Computed dipole along edir(3) : 
        Dipole               -0.0560 Ry au,         -0.1424 Debye
        Dipole field         -0.0001 Ry au
 
        Potential amp.        0.0092 Ry
        Total length         47.3240 bohr
 

     total cpu time spent up to now is      197.4 secs

     total energy              =   -2246.91949161 Ry
     Harris-Foulkes estimate   =   -2246.92065440 Ry
     estimated scf accuracy    <       0.00852343 Ry

     iteration #  8     ecut=    36.75 Ry     beta=0.30
     Davidson diagonalization with overlap
     ethr =  4.71E-06,  avg # of iterations =  4.2

     negative rho (up, down):  5.260E-01 0.000E+00
 
     Adding external electric field

     Computed dipole along edir(3) : 
        Dipole               -0.0471 Ry au,         -0.1197 Debye
        Dipole field         -0.0001 Ry au
 
        Potential amp.        0.0077 Ry
        Total length         47.3240 bohr
 

     total cpu time spent up to now is      221.4 secs

     total energy              =   -2246.92012459 Ry
     Harris-Foulkes estimate   =   -2246.92039036 Ry
     estimated scf accuracy    <       0.00312108 Ry

     iteration #  9     ecut=    36.75 Ry     beta=0.30
     Davidson diagonalization with overlap
     ethr =  1.72E-06,  avg # of iterations =  4.2

     negative rho (up, down):  5.265E-01 0.000E+00
 
     Adding external electric field

     Computed dipole along edir(3) : 
        Dipole               -0.0429 Ry au,         -0.1091 Debye
        Dipole field         -0.0001 Ry au
 
        Potential amp.        0.0070 Ry
        Total length         47.3240 bohr
 

     total cpu time spent up to now is      244.0 secs

     total energy              =   -2246.92017206 Ry
     Harris-Foulkes estimate   =   -2246.92022394 Ry
     estimated scf accuracy    <       0.00024753 Ry

     iteration # 10     ecut=    36.75 Ry     beta=0.30
     Davidson diagonalization with overlap
     ethr =  1.37E-07,  avg # of iterations =  4.8

     negative rho (up, down):  5.266E-01 0.000E+00
 
     Adding external electric field

     Computed dipole along edir(3) : 
        Dipole               -0.0433 Ry au,         -0.1099 Debye
        Dipole field         -0.0001 Ry au
 
        Potential amp.        0.0071 Ry
        Total length         47.3240 bohr
 

     total cpu time spent up to now is      270.4 secs

     total energy              =   -2246.92021886 Ry
     Harris-Foulkes estimate   =   -2246.92022727 Ry
     estimated scf accuracy    <       0.00007434 Ry

     iteration # 11     ecut=    36.75 Ry     beta=0.30
     Davidson diagonalization with overlap
     ethr =  4.11E-08,  avg # of iterations =  2.1

     negative rho (up, down):  5.268E-01 0.000E+00

     negative rho (up, down):  5.268E-01 0.000E+00

     negative rho (up, down):  5.268E-01 0.000E+00

     negative rho (up, down):  5.268E-01 0.000E+00

     negative rho (up, down):  5.268E-01 0.000E+00

     negative rho (up, down):  5.268E-01 0.000E+00

     negative rho (up, down):  5.268E-01 0.000E+00

     negative rho (up, down):  5.268E-01 0.000E+00

     negative rho (up, down):  5.268E-01 0.000E+00

     negative rho (up, down):  5.268E-01 0.000E+00

     negative rho (up, down):  5.268E-01 0.000E+00

     negative rho (up, down):  5.268E-01 0.000E+00

     negative rho (up, down):  5.268E-01 0.000E+00

     negative rho (up, down):  5.268E-01 0.000E+00

     negative rho (up, down):  5.268E-01 0.000E+00

     negative rho (up, down):  5.268E-01 0.000E+00

     negative rho (up, down):  5.268E-01 0.000E+00

     negative rho (up, down):  5.268E-01 0.000E+00

     negative rho (up, down):  5.268E-01 0.000E+00

     negative rho (up, down):  5.268E-01 0.000E+00

     negative rho (up, down):  5.268E-01 0.000E+00

     negative rho (up, down):  5.268E-01 0.000E+00

     negative rho (up, down):  5.268E-01 0.000E+00

     negative rho (up, down):  5.268E-01 0.000E+00

     negative rho (up, down):  5.268E-01 0.000E+00

     negative rho (up, down):  5.268E-01 0.000E+00

     negative rho (up, down):  5.268E-01 0.000E+00

     negative rho (up, down):  5.268E-01 0.000E+00

     negative rho (up, down):  5.268E-01 0.000E+00

     negative rho (up, down):  5.268E-01 0.000E+00

     negative rho (up, down):  5.268E-01 0.000E+00

     negative rho (up, down):  5.268E-01 0.000E+00

     negative rho (up, down):  5.268E-01 0.000E+00

     negative rho (up, down):  5.268E-01 0.000E+00

     negative rho (up, down):  5.268E-01 0.000E+00
 
     Adding external electric field

     Computed dipole along edir(3) : 
        Dipole               -0.0589 Ry au,         -0.1497 Debye
        Dipole field         -0.0001 Ry au
 
        Potential amp.        0.0096 Ry
        Total length         47.3240 bohr
 

     total cpu time spent up to now is      318.9 secs

     End of self-consistent calculation

          k = 0.0000 0.0000 0.0000 ( 27441 PWs)   bands (ev):

   -22.4562 -22.4483 -22.4483 -22.4003 -22.3992 -22.3887 -22.3887 -22.3842
   -22.3842 -22.3502 -22.3375 -22.3375 -22.3156 -22.3156 -22.2741 -22.2549
   -22.2437 -22.2437 -22.2231 -22.2174 -22.2174 -22.1978 -22.1977 -22.1637
   -22.1576 -22.1576 -22.1530 -22.1530 -22.1504 -22.1422 -22.1247 -22.1247
   -22.1067 -22.1067 -22.1061 -22.0952 -22.0952 -22.0950 -22.0797 -22.0797
   -22.0716 -22.0716 -22.0612 -22.0420 -22.0295 -22.0295 -22.0202 -22.0202
   -22.0173 -22.0070 -22.0070 -22.0045 -21.9952 -21.9952 -21.9945 -21.9847
   -21.9847 -21.9702 -21.9702 -21.9611 -12.2525 -11.1988 -10.0943  -9.4237
    -9.4237  -9.3710  -8.8601  -8.8601  -8.8598  -8.4732  -8.4732  -8.4708
    -4.2311  -3.6698  -3.6698  -3.4969  -3.0214  -2.7700  -2.7700  -2.6430
    -2.5440  -2.5440  -0.8213   0.4770   0.9030   0.9030   0.9758   1.0227
     1.0227   1.8562   2.0824   2.0824   2.0860   2.7079   3.1103   3.1103
     3.2246   3.2246   3.2639   4.1706

          k = 0.0000 0.0276 0.0000 ( 27382 PWs)   bands (ev):

   -22.4502 -22.4423 -22.4376 -22.3971 -22.3962 -22.3880 -22.3841 -22.3829
   -22.3788 -22.3518 -22.3413 -22.3380 -22.3224 -22.3174 -22.2822 -22.2520
   -22.2460 -22.2441 -22.2206 -22.2120 -22.2101 -22.2025 -22.2018 -22.1606
   -22.1562 -22.1503 -22.1489 -22.1432 -22.1428 -22.1362 -22.1234 -22.1219
   -22.1093 -22.0993 -22.0986 -22.0970 -22.0969 -22.0944 -22.0796 -22.0785
   -22.0772 -22.0740 -22.0589 -22.0491 -22.0316 -22.0291 -22.0225 -22.0209
   -22.0184 -22.0110 -22.0092 -22.0077 -22.0045 -22.0024 -21.9963 -21.9909
   -21.9896 -21.9784 -21.9771 -21.9681 -12.1423 -11.0945 -10.0052  -9.8383
    -9.4917  -9.4592  -9.0823  -8.8587  -8.8584  -8.5382  -8.4594  -8.4499
    -4.0058  -3.4711  -3.3809  -3.2179  -2.8796  -2.6371  -2.5461  -2.3564
    -2.2623  -1.9359  -0.8037  -0.0771   0.3587   0.5004   1.1598   1.2033
     1.4974   1.6014   1.6435   1.7206   2.2140   2.3193   2.4440   2.8754
     3.2884   3.3541   3.3862   3.5034

          k = 0.0000 0.0553 0.0000 ( 27394 PWs)   bands (ev):

   -22.4437 -22.4185 -22.4086 -22.3972 -22.3904 -22.3797 -22.3771 -22.3764
   -22.3632 -22.3572 -22.3517 -22.3420 -22.3387 -22.3299 -22.2959 -22.2529
   -22.2481 -22.2453 -22.2256 -22.2194 -22.2085 -22.1908 -22.1777 -22.1625
   -22.1486 -22.1431 -22.1293 -22.1286 -22.1214 -22.1181 -22.1165 -22.1136
   -22.1093 -22.1053 -22.1046 -22.0998 -22.0965 -22.0856 -22.0781 -22.0757
   -22.0721 -22.0703 -22.0593 -22.0533 -22.0366 -22.0295 -22.0287 -22.0281
   -22.0263 -22.0230 -22.0225 -22.0210 -22.0195 -22.0141 -22.0110 -22.0092
   -22.0011 -21.9974 -21.9861 -21.9738 -11.8154 -10.7896 -10.5866  -9.7549
    -9.6529  -9.6047  -9.5716  -8.8969  -8.8788  -8.8369  -8.4315  -8.4205
    -3.5075  -2.9141  -2.8387  -2.4839  -2.1924  -2.1537  -1.9679  -1.7580
    -1.7329  -1.0652  -0.6711  -0.2144  -0.2098  -0.1753   0.5282   0.7278
     0.9869   1.0988   1.3012   1.5814   1.6984   1.7747   2.1934   2.4236
     2.4244   2.6021   2.9463   3.3309

          k = 0.0000-0.0829 0.0000 ( 27378 PWs)   bands (ev):

   -22.4406 -22.4017 -22.3960 -22.3863 -22.3766 -22.3683 -22.3680 -22.3677
   -22.3672 -22.3669 -22.3627 -22.3613 -22.3465 -22.3380 -22.2986 -22.2558
   -22.2494 -22.2476 -22.2359 -22.2198 -22.2091 -22.1733 -22.1636 -22.1498
   -22.1426 -22.1379 -22.1290 -22.1283 -22.1222 -22.1195 -22.1148 -22.1109
   -22.1069 -22.1063 -22.1011 -22.0956 -22.0878 -22.0771 -22.0738 -22.0697
   -22.0648 -22.0617 -22.0514 -22.0474 -22.0418 -22.0402 -22.0392 -22.0359
   -22.0356 -22.0343 -22.0316 -22.0309 -22.0289 -22.0282 -22.0242 -22.0194
   -22.0100 -21.9977 -21.9874 -21.9746 -11.3085 -11.2616 -10.3448 -10.2379
    -9.6538  -9.6335  -9.3591  -9.2721  -8.8966  -8.8945  -8.4191  -8.4076
    -3.1698  -2.2631  -2.2492  -2.1475  -2.1432  -2.1022  -1.7690  -1.3789
    -1.0549  -0.7866  -0.7124  -0.6444  -0.1660   0.4805   0.5509   0.5779
     0.7124   0.8160   0.8240   0.8378   1.0293   1.1557   1.6070   1.7510
     2.1682   2.1818   3.1258   3.1905

          k = 0.0239-0.0138 0.0000 ( 27382 PWs)   bands (ev):

   -22.4502 -22.4423 -22.4376 -22.3971 -22.3962 -22.3880 -22.3841 -22.3829
   -22.3788 -22.3518 -22.3413 -22.3380 -22.3224 -22.3174 -22.2822 -22.2520
   -22.2460 -22.2441 -22.2206 -22.2120 -22.2101 -22.2025 -22.2018 -22.1606
   -22.1562 -22.1503 -22.1489 -22.1432 -22.1428 -22.1362 -22.1234 -22.1219
   -22.1093 -22.0993 -22.0986 -22.0970 -22.0969 -22.0944 -22.0796 -22.0785
   -22.0772 -22.0740 -22.0589 -22.0491 -22.0316 -22.0291 -22.0225 -22.0209
   -22.0184 -22.0110 -22.0092 -22.0077 -22.0045 -22.0024 -21.9963 -21.9909
   -21.9896 -21.9784 -21.9771 -21.9681 -12.1423 -11.0945 -10.0052  -9.8383
    -9.4917  -9.4592  -9.0823  -8.8587  -8.8584  -8.5382  -8.4594  -8.4498
    -4.0058  -3.4711  -3.3809  -3.2179  -2.8796  -2.6371  -2.5461  -2.3564
    -2.2623  -1.9359  -0.8037  -0.0771   0.3587   0.5004   1.1598   1.2033
     1.4974   1.6014   1.6435   1.7206   2.2140   2.3193   2.4440   2.8754
     3.2884   3.3541   3.3862   3.5034

          k = 0.0239 0.0138 0.0000 ( 27382 PWs)   bands (ev):

   -22.4502 -22.4423 -22.4376 -22.3971 -22.3962 -22.3880 -22.3841 -22.3829
   -22.3788 -22.3518 -22.3413 -22.3380 -22.3224 -22.3174 -22.2822 -22.2520
   -22.2460 -22.2441 -22.2206 -22.2120 -22.2101 -22.2025 -22.2018 -22.1606
   -22.1562 -22.1503 -22.1489 -22.1432 -22.1428 -22.1362 -22.1234 -22.1219
   -22.1093 -22.0993 -22.0986 -22.0970 -22.0969 -22.0944 -22.0796 -22.0785
   -22.0772 -22.0740 -22.0589 -22.0491 -22.0316 -22.0291 -22.0225 -22.0209
   -22.0184 -22.0110 -22.0092 -22.0077 -22.0045 -22.0024 -21.9963 -21.9909
   -21.9896 -21.9784 -21.9771 -21.9681 -12.1423 -11.0945 -10.0052  -9.8383
    -9.4917  -9.4592  -9.0823  -8.8587  -8.8584  -8.5382  -8.4594  -8.4499
    -4.0058  -3.4711  -3.3809  -3.2179  -2.8796  -2.6371  -2.5461  -2.3564
    -2.2623  -1.9359  -0.8037  -0.0771   0.3587   0.5004   1.1598   1.2033
     1.4974   1.6014   1.6435   1.7206   2.2140   2.3193   2.4440   2.8754
     3.2883   3.3541   3.3862   3.5034

          k = 0.0239 0.0415 0.0000 ( 27415 PWs)   bands (ev):

   -22.4379 -22.4367 -22.4142 -22.3917 -22.3904 -22.3895 -22.3806 -22.3776
   -22.3667 -22.3562 -22.3468 -22.3396 -22.3384 -22.3193 -22.2957 -22.2509
   -22.2487 -22.2448 -22.2203 -22.2137 -22.2097 -22.2037 -22.1834 -22.1574
   -22.1534 -22.1407 -22.1389 -22.1363 -22.1275 -22.1221 -22.1172 -22.1134
   -22.1083 -22.1057 -22.1007 -22.0964 -22.0961 -22.0942 -22.0777 -22.0762
   -22.0736 -22.0728 -22.0605 -22.0547 -22.0360 -22.0282 -22.0267 -22.0255
   -22.0224 -22.0214 -22.0206 -22.0166 -22.0100 -22.0092 -22.0072 -22.0026
   -21.9962 -21.9921 -21.9828 -21.9793 -11.9237 -10.8889 -10.1618 -10.1208
    -9.8207  -9.3221  -9.2623  -9.1810  -8.6902  -8.6432  -8.5937  -8.3937
    -3.6715  -3.1883  -2.7202  -2.7044  -2.5725  -2.3329  -2.1115  -2.0315
    -1.4532  -1.3015  -0.8830  -0.2493  -0.2393  -0.1418   0.4858   1.1881
     1.3522   1.5233   1.5693   1.6390   1.7974   1.9593   2.4006   2.4893
     2.5282   2.6996   3.1926   3.4267

          k = 0.0239-0.0967 0.0000 ( 27352 PWs)   bands (ev):

   -22.4328 -22.4113 -22.3944 -22.3875 -22.3822 -22.3761 -22.3728 -22.3679
   -22.3673 -22.3651 -22.3564 -22.3542 -22.3411 -22.3324 -22.3076 -22.2534
   -22.2498 -22.2464 -22.2322 -22.2207 -22.2043 -22.1850 -22.1633 -22.1510
   -22.1423 -22.1335 -22.1305 -22.1251 -22.1195 -22.1159 -22.1142 -22.1098
   -22.1077 -22.1069 -22.1042 -22.0964 -22.0896 -22.0808 -22.0779 -22.0730
   -22.0704 -22.0668 -22.0551 -22.0493 -22.0430 -22.0415 -22.0392 -22.0355
   -22.0308 -22.0281 -22.0271 -22.0253 -22.0235 -22.0210 -22.0197 -22.0115
   -22.0058 -22.0043 -21.9961 -21.9823 -11.4951 -10.8795 -10.4903 -10.3035
    -9.9206  -9.4897  -9.4029  -9.0644  -9.0207  -8.6776  -8.5565  -8.3637
    -3.2366  -2.6638  -2.2278  -2.0646  -1.9236  -1.7903  -1.6638  -1.4656
    -1.2027  -1.0466  -0.7006  -0.4573  -0.2214  -0.2097   0.1795   0.2878
     0.8001   1.1720   1.2564   1.4064   1.4731   1.5433   1.8093   2.0012
     2.2386   2.3864   2.5460   2.9614

          k = 0.0239-0.0691 0.0000 ( 27352 PWs)   bands (ev):

   -22.4328 -22.4113 -22.3944 -22.3875 -22.3822 -22.3761 -22.3728 -22.3679
   -22.3673 -22.3652 -22.3564 -22.3542 -22.3411 -22.3324 -22.3076 -22.2534
   -22.2498 -22.2464 -22.2322 -22.2207 -22.2043 -22.1850 -22.1633 -22.1510
   -22.1423 -22.1335 -22.1305 -22.1251 -22.1195 -22.1159 -22.1142 -22.1098
   -22.1077 -22.1069 -22.1042 -22.0964 -22.0896 -22.0808 -22.0779 -22.0730
   -22.0704 -22.0668 -22.0551 -22.0493 -22.0430 -22.0415 -22.0392 -22.0355
   -22.0308 -22.0281 -22.0271 -22.0253 -22.0235 -22.0210 -22.0197 -22.0115
   -22.0058 -22.0043 -21.9961 -21.9823 -11.4951 -10.8795 -10.4903 -10.3035
    -9.9206  -9.4897  -9.4029  -9.0644  -9.0207  -8.6776  -8.5565  -8.3637
    -3.2366  -2.6638  -2.2278  -2.0646  -1.9236  -1.7903  -1.6638  -1.4656
    -1.2027  -1.0466  -0.7006  -0.4573  -0.2214  -0.2097   0.1795   0.2878
     0.8001   1.1720   1.2564   1.4064   1.4731   1.5433   1.8093   2.0012
     2.2386   2.3864   2.5460   2.9614

          k = 0.0239-0.0415 0.0000 ( 27415 PWs)   bands (ev):

   -22.4379 -22.4367 -22.4142 -22.3917 -22.3904 -22.3895 -22.3806 -22.3776
   -22.3667 -22.3562 -22.3468 -22.3396 -22.3384 -22.3193 -22.2957 -22.2509
   -22.2487 -22.2448 -22.2203 -22.2137 -22.2097 -22.2037 -22.1834 -22.1574
   -22.1534 -22.1407 -22.1389 -22.1363 -22.1275 -22.1221 -22.1172 -22.1134
   -22.1083 -22.1057 -22.1007 -22.0964 -22.0961 -22.0942 -22.0777 -22.0762
   -22.0736 -22.0728 -22.0605 -22.0547 -22.0359 -22.0282 -22.0267 -22.0256
   -22.0224 -22.0214 -22.0206 -22.0166 -22.0100 -22.0092 -22.0072 -22.0026
   -21.9962 -21.9921 -21.9828 -21.9794 -11.9237 -10.8889 -10.1618 -10.1208
    -9.8207  -9.3221  -9.2623  -9.1810  -8.6902  -8.6432  -8.5937  -8.3937
    -3.6715  -3.1883  -2.7202  -2.7044  -2.5725  -2.3329  -2.1115  -2.0315
    -1.4532  -1.3015  -0.8830  -0.2493  -0.2393  -0.1418   0.4858   1.1881
     1.3522   1.5233   1.5693   1.6390   1.7974   1.9593   2.4006   2.4893
     2.5282   2.6996   3.1926   3.4267

          k = 0.0479-0.0276 0.0000 ( 27394 PWs)   bands (ev):

   -22.4437 -22.4185 -22.4087 -22.3972 -22.3904 -22.3797 -22.3771 -22.3764
   -22.3632 -22.3572 -22.3517 -22.3420 -22.3387 -22.3299 -22.2959 -22.2529
   -22.2481 -22.2453 -22.2256 -22.2194 -22.2085 -22.1908 -22.1777 -22.1625
   -22.1486 -22.1431 -22.1293 -22.1286 -22.1214 -22.1181 -22.1165 -22.1136
   -22.1093 -22.1053 -22.1046 -22.0998 -22.0965 -22.0856 -22.0781 -22.0757
   -22.0721 -22.0703 -22.0593 -22.0533 -22.0366 -22.0295 -22.0287 -22.0281
   -22.0263 -22.0230 -22.0225 -22.0210 -22.0195 -22.0141 -22.0110 -22.0092
   -22.0011 -21.9974 -21.9861 -21.9738 -11.8154 -10.7896 -10.5866  -9.7549
    -9.6529  -9.6047  -9.5716  -8.8969  -8.8788  -8.8369  -8.4315  -8.4205
    -3.5075  -2.9141  -2.8387  -2.4839  -2.1924  -2.1537  -1.9679  -1.7580
    -1.7329  -1.0652  -0.6711  -0.2144  -0.2098  -0.1753   0.5282   0.7278
     0.9869   1.0988   1.3012   1.5814   1.6984   1.7747   2.1934   2.4236
     2.4244   2.6020   2.9463   3.3309

          k = 0.0479 0.0000 0.0000 ( 27415 PWs)   bands (ev):

   -22.4379 -22.4367 -22.4142 -22.3917 -22.3904 -22.3895 -22.3806 -22.3776
   -22.3667 -22.3562 -22.3468 -22.3396 -22.3384 -22.3193 -22.2957 -22.2509
   -22.2487 -22.2448 -22.2203 -22.2137 -22.2097 -22.2037 -22.1834 -22.1574
   -22.1534 -22.1407 -22.1389 -22.1363 -22.1275 -22.1221 -22.1172 -22.1134
   -22.1083 -22.1057 -22.1007 -22.0964 -22.0961 -22.0942 -22.0777 -22.0762
   -22.0736 -22.0728 -22.0605 -22.0547 -22.0359 -22.0282 -22.0267 -22.0255
   -22.0224 -22.0214 -22.0206 -22.0166 -22.0100 -22.0092 -22.0072 -22.0026
   -21.9962 -21.9921 -21.9828 -21.9793 -11.9237 -10.8889 -10.1618 -10.1208
    -9.8207  -9.3221  -9.2623  -9.1810  -8.6902  -8.6432  -8.5937  -8.3937
    -3.6715  -3.1883  -2.7202  -2.7044  -2.5725  -2.3329  -2.1115  -2.0315
    -1.4532  -1.3015  -0.8830  -0.2493  -0.2393  -0.1418   0.4858   1.1881
     1.3522   1.5233   1.5693   1.6390   1.7974   1.9593   2.4006   2.4893
     2.5282   2.6996   3.1926   3.4266

          k = 0.0479 0.0276 0.0000 ( 27394 PWs)   bands (ev):

   -22.4437 -22.4185 -22.4086 -22.3972 -22.3904 -22.3797 -22.3771 -22.3764
   -22.3632 -22.3572 -22.3517 -22.3420 -22.3387 -22.3299 -22.2959 -22.2529
   -22.2481 -22.2453 -22.2256 -22.2194 -22.2085 -22.1908 -22.1777 -22.1625
   -22.1486 -22.1431 -22.1293 -22.1286 -22.1214 -22.1181 -22.1165 -22.1136
   -22.1093 -22.1053 -22.1045 -22.0998 -22.0965 -22.0856 -22.0781 -22.0757
   -22.0721 -22.0703 -22.0593 -22.0533 -22.0366 -22.0295 -22.0287 -22.0281
   -22.0264 -22.0230 -22.0225 -22.0210 -22.0195 -22.0141 -22.0110 -22.0092
   -22.0011 -21.9974 -21.9861 -21.9738 -11.8154 -10.7896 -10.5866  -9.7549
    -9.6529  -9.6047  -9.5716  -8.8969  -8.8788  -8.8369  -8.4315  -8.4205
    -3.5075  -2.9141  -2.8387  -2.4839  -2.1924  -2.1537  -1.9679  -1.7580
    -1.7329  -1.0652  -0.6711  -0.2144  -0.2098  -0.1753   0.5282   0.7278
     0.9869   1.0988   1.3012   1.5814   1.6984   1.7747   2.1934   2.4236
     2.4244   2.6021   2.9463   3.3309

          k = 0.0479-0.1106 0.0000 ( 27352 PWs)   bands (ev):

   -22.4328 -22.4113 -22.3944 -22.3875 -22.3822 -22.3761 -22.3728 -22.3679
   -22.3673 -22.3652 -22.3564 -22.3542 -22.3411 -22.3324 -22.3076 -22.2534
   -22.2498 -22.2464 -22.2322 -22.2207 -22.2043 -22.1850 -22.1633 -22.1510
   -22.1423 -22.1335 -22.1305 -22.1251 -22.1195 -22.1159 -22.1142 -22.1098
   -22.1077 -22.1069 -22.1042 -22.0964 -22.0896 -22.0808 -22.0779 -22.0730
   -22.0704 -22.0668 -22.0551 -22.0493 -22.0430 -22.0415 -22.0392 -22.0355
   -22.0308 -22.0281 -22.0271 -22.0253 -22.0235 -22.0210 -22.0197 -22.0115
   -22.0058 -22.0043 -21.9961 -21.9823 -11.4951 -10.8795 -10.4903 -10.3035
    -9.9206  -9.4897  -9.4029  -9.0644  -9.0207  -8.6776  -8.5565  -8.3637
    -3.2366  -2.6638  -2.2278  -2.0646  -1.9236  -1.7903  -1.6638  -1.4656
    -1.2027  -1.0466  -0.7006  -0.4573  -0.2214  -0.2097   0.1795   0.2878
     0.8001   1.1720   1.2564   1.4064   1.4731   1.5433   1.8093   2.0012
     2.2386   2.3864   2.5460   2.9614

          k = 0.0479-0.0829 0.0000 ( 27291 PWs)   bands (ev):

   -22.4178 -22.4020 -22.4019 -22.3822 -22.3821 -22.3772 -22.3767 -22.3730
   -22.3656 -22.3587 -22.3585 -22.3442 -22.3356 -22.3352 -22.3294 -22.2505
   -22.2500 -22.2467 -22.2305 -22.2305 -22.1871 -22.1839 -22.1750 -22.1407
   -22.1389 -22.1267 -22.1249 -22.1220 -22.1142 -22.1139 -22.1133 -22.1108
   -22.1093 -22.1001 -22.0986 -22.0951 -22.0927 -22.0908 -22.0845 -22.0692
   -22.0692 -22.0685 -22.0678 -22.0424 -22.0415 -22.0394 -22.0377 -22.0373
   -22.0338 -22.0333 -22.0271 -22.0257 -22.0213 -22.0212 -22.0146 -22.0137
   -22.0124 -22.0056 -22.0049 -22.0003 -11.0221 -10.9656 -10.9446 -10.1029
    -9.9744  -9.9468  -9.1601  -9.0578  -9.0524  -8.7717  -8.4612  -8.3922
    -3.0729  -2.2452  -2.1052  -2.0245  -1.8291  -1.8214  -1.5669  -0.9457
    -0.8030  -0.8020  -0.7765  -0.7264  -0.3226  -0.0017   0.0078   0.4341
     0.5138   0.5398   0.8745   1.2178   1.2385   2.1370   2.1880   2.1892
     2.2118   2.2595   2.4546   2.7802

          k = 0.0479-0.0553 0.0000 ( 27352 PWs)   bands (ev):

   -22.4328 -22.4113 -22.3944 -22.3875 -22.3822 -22.3761 -22.3728 -22.3679
   -22.3673 -22.3651 -22.3564 -22.3542 -22.3411 -22.3324 -22.3076 -22.2534
   -22.2498 -22.2464 -22.2322 -22.2207 -22.2043 -22.1850 -22.1633 -22.1510
   -22.1423 -22.1335 -22.1305 -22.1251 -22.1195 -22.1159 -22.1142 -22.1098
   -22.1077 -22.1069 -22.1042 -22.0964 -22.0896 -22.0808 -22.0779 -22.0730
   -22.0704 -22.0668 -22.0551 -22.0493 -22.0430 -22.0415 -22.0392 -22.0355
   -22.0308 -22.0281 -22.0271 -22.0253 -22.0235 -22.0210 -22.0197 -22.0115
   -22.0058 -22.0043 -21.9961 -21.9823 -11.4951 -10.8795 -10.4903 -10.3035
    -9.9206  -9.4897  -9.4029  -9.0644  -9.0207  -8.6776  -8.5565  -8.3637
    -3.2366  -2.6638  -2.2278  -2.0646  -1.9236  -1.7903  -1.6638  -1.4656
    -1.2027  -1.0466  -0.7006  -0.4573  -0.2214  -0.2097   0.1795   0.2878
     0.8001   1.1720   1.2564   1.4064   1.4731   1.5433   1.8093   2.0012
     2.2386   2.3864   2.5460   2.9614

          k =-0.0718 0.0415 0.0000 ( 27378 PWs)   bands (ev):

   -22.4406 -22.4017 -22.3960 -22.3863 -22.3766 -22.3683 -22.3680 -22.3677
   -22.3672 -22.3669 -22.3627 -22.3612 -22.3465 -22.3380 -22.2986 -22.2558
   -22.2494 -22.2476 -22.2359 -22.2198 -22.2091 -22.1733 -22.1636 -22.1498
   -22.1426 -22.1379 -22.1290 -22.1283 -22.1222 -22.1195 -22.1148 -22.1109
   -22.1069 -22.1063 -22.1011 -22.0956 -22.0878 -22.0771 -22.0738 -22.0697
   -22.0648 -22.0617 -22.0514 -22.0474 -22.0418 -22.0402 -22.0392 -22.0359
   -22.0356 -22.0343 -22.0316 -22.0309 -22.0289 -22.0282 -22.0242 -22.0194
   -22.0100 -21.9977 -21.9874 -21.9746 -11.3085 -11.2616 -10.3448 -10.2379
    -9.6538  -9.6335  -9.3591  -9.2721  -8.8966  -8.8945  -8.4191  -8.4076
    -3.1698  -2.2631  -2.2492  -2.1475  -2.1432  -2.1022  -1.7690  -1.3789
    -1.0549  -0.7866  -0.7124  -0.6444  -0.1660   0.4805   0.5509   0.5779
     0.7124   0.8160   0.8240   0.8378   1.0293   1.1557   1.6070   1.7510
     2.1682   2.1819   3.1258   3.1944

          k =-0.0718 0.0691 0.0000 ( 27352 PWs)   bands (ev):

   -22.4328 -22.4113 -22.3944 -22.3875 -22.3822 -22.3761 -22.3728 -22.3679
   -22.3673 -22.3651 -22.3564 -22.3542 -22.3411 -22.3324 -22.3076 -22.2534
   -22.2498 -22.2464 -22.2322 -22.2207 -22.2043 -22.1850 -22.1633 -22.1510
   -22.1423 -22.1335 -22.1305 -22.1251 -22.1195 -22.1159 -22.1142 -22.1098
   -22.1077 -22.1069 -22.1042 -22.0964 -22.0896 -22.0808 -22.0779 -22.0730
   -22.0704 -22.0668 -22.0551 -22.0493 -22.0430 -22.0415 -22.0392 -22.0355
   -22.0308 -22.0281 -22.0271 -22.0253 -22.0235 -22.0210 -22.0197 -22.0115
   -22.0058 -22.0043 -21.9961 -21.9823 -11.4951 -10.8795 -10.4903 -10.3035
    -9.9206  -9.4897  -9.4029  -9.0644  -9.0207  -8.6776  -8.5565  -8.3637
    -3.2366  -2.6638  -2.2278  -2.0646  -1.9236  -1.7903  -1.6638  -1.4656
    -1.2027  -1.0466  -0.7006  -0.4573  -0.2214  -0.2097   0.1795   0.2878
     0.8001   1.1720   1.2564   1.4064   1.4731   1.5433   1.8093   2.0013
     2.2386   2.3864   2.5460   2.9614

          k =-0.0718 0.0967 0.0000 ( 27352 PWs)   bands (ev):

   -22.4328 -22.4113 -22.3944 -22.3875 -22.3822 -22.3761 -22.3728 -22.3679
   -22.3673 -22.3652 -22.3564 -22.3542 -22.3411 -22.3324 -22.3076 -22.2534
   -22.2498 -22.2464 -22.2322 -22.2207 -22.2043 -22.1850 -22.1633 -22.1510
   -22.1423 -22.1335 -22.1305 -22.1251 -22.1195 -22.1159 -22.1142 -22.1098
   -22.1077 -22.1069 -22.1042 -22.0964 -22.0896 -22.0808 -22.0779 -22.0730
   -22.0704 -22.0668 -22.0551 -22.0493 -22.0430 -22.0415 -22.0392 -22.0355
   -22.0308 -22.0281 -22.0271 -22.0253 -22.0235 -22.0210 -22.0197 -22.0115
   -22.0058 -22.0043 -21.9961 -21.9823 -11.4951 -10.8795 -10.4903 -10.3035
    -9.9206  -9.4897  -9.4029  -9.0644  -9.0207  -8.6776  -8.5565  -8.3637
    -3.2366  -2.6638  -2.2278  -2.0646  -1.9236  -1.7903  -1.6638  -1.4656
    -1.2027  -1.0466  -0.7006  -0.4573  -0.2214  -0.2097   0.1795   0.2878
     0.8001   1.1720   1.2564   1.4064   1.4731   1.5433   1.8093   2.0012
     2.2386   2.3864   2.5460   2.9614

          k =-0.0718-0.0415 0.0000 ( 27378 PWs)   bands (ev):

   -22.4406 -22.4017 -22.3960 -22.3863 -22.3766 -22.3683 -22.3680 -22.3677
   -22.3673 -22.3670 -22.3626 -22.3613 -22.3465 -22.3380 -22.2986 -22.2558
   -22.2494 -22.2476 -22.2359 -22.2198 -22.2091 -22.1733 -22.1636 -22.1498
   -22.1426 -22.1379 -22.1290 -22.1283 -22.1222 -22.1195 -22.1148 -22.1109
   -22.1069 -22.1063 -22.1011 -22.0956 -22.0878 -22.0771 -22.0738 -22.0697
   -22.0648 -22.0617 -22.0514 -22.0474 -22.0418 -22.0402 -22.0392 -22.0359
   -22.0356 -22.0343 -22.0316 -22.0309 -22.0289 -22.0281 -22.0242 -22.0194
   -22.0100 -21.9977 -21.9874 -21.9746 -11.3085 -11.2616 -10.3448 -10.2379
    -9.6538  -9.6335  -9.3591  -9.2721  -8.8966  -8.8945  -8.4191  -8.4076
    -3.1698  -2.2631  -2.2492  -2.1475  -2.1432  -2.1022  -1.7690  -1.3789
    -1.0549  -0.7866  -0.7124  -0.6444  -0.1660   0.4805   0.5509   0.5779
     0.7124   0.8160   0.8240   0.8378   1.0293   1.1557   1.6070   1.7510
     2.1682   2.1818   3.1258   3.1908

     the Fermi energy is     1.3536 ev

!    total energy              =   -2246.92022273 Ry
     Harris-Foulkes estimate   =   -2246.92022130 Ry
     estimated scf accuracy    <       0.00000456 Ry

     The total energy is the sum of the following terms:

     one-electron contribution =  -10751.83887302 Ry
     hartree contribution      =    5430.10584602 Ry
     xc contribution           =    -799.68533944 Ry
     ewald contribution        =    3874.56096934 Ry
     electric field correction =       0.00000599 Ry
     smearing contrib. (-TS)   =      -0.06283162 Ry

     convergence has been achieved in  11 iterations
 
 BEEF-vdW xc energy contributions
           1 :   -713.111208703913     
           2 :    662.956921912318     
           3 :   -574.378974632440     
           4 :    466.539194581747     
           5 :   -359.671501645795     
           6 :    269.170192200447     
           7 :   -202.066304338661     
           8 :    156.828496319108     
           9 :   -126.170502648855     
          10 :    101.401207566978     
          11 :   -76.3799675427526     
          12 :    49.5160527994394     
          13 :   -23.3009088305378     
          14 :    2.00940321569647     
          15 :    11.0632905455047     
          16 :   -15.4556523672184     
          17 :    13.7221513870147     
          18 :   -10.0714274668437     
          19 :    8.30520396051315     
          20 :   -10.1515146454988     
          21 :    14.7790601657816     
          22 :   -19.6244164990242     
          23 :    21.9924236689346     
          24 :   -20.5526701537740     
          25 :    15.9835806460137     
          26 :   -10.5129052503539     
          27 :    6.67875079460850     
          28 :   -6.00690305024034     
          29 :    8.29219496053065     
          30 :   -11.8171914677796     
          31 :   -56.8474990908003     
          32 :   -41.8635490691349     

     Forces acting on atoms (Ry/au):


     negative rho (up, down):  5.268E-01 0.000E+00
     atom    1 type  1   force =     0.00000224    0.00000345   -0.00993749
     atom    2 type  1   force =    -0.00000455    0.00105608   -0.01083528
     atom    3 type  1   force =     0.00091416   -0.00053240   -0.01083219
     atom    4 type  1   force =    -0.00091174   -0.00052663   -0.01083515
     atom    5 type  1   force =    -0.00139217    0.00080509   -0.00545286
     atom    6 type  1   force =     0.00139149    0.00080544   -0.00546550
     atom    7 type  1   force =    -0.00000234    0.00000174    0.00141968
     atom    8 type  1   force =    -0.00000089   -0.00160112   -0.00545540
     atom    9 type  1   force =    -0.01022045   -0.00589972    0.01658680
     atom   10 type  1   force =     0.01022902   -0.00590838    0.01657018
     atom   11 type  1   force =    -0.00000659    0.01179968    0.01658985
     atom   12 type  1   force =     0.00000212   -0.00000400    0.01232516
     atom   13 type  2   force =    -0.00000030    0.00000078   -0.00467781

     Total force =     0.037640     Total SCF correction =     0.003077


     entering subroutine stress ...


     negative rho (up, down):  5.268E-01 0.000E+00
          total   stress  (Ry/bohr**3)                   (kbar)     P=    8.94
   0.00006098  -0.00000000   0.00000000          8.97     -0.00      0.00
  -0.00000000   0.00006098   0.00000000         -0.00      8.97      0.00
   0.00000000   0.00000000   0.00006028          0.00      0.00      8.87


     BFGS Geometry Optimization

     number of scf cycles    =   1
     number of bfgs steps    =   0

     energy   new            =   -2246.9202227269 Ry

     new trust radius        =       0.0203581861 bohr
     new conv_thr            =       0.0000099958 Ry


ATOMIC_POSITIONS (crystal)
Bi1      0.166666667   0.166666667   0.389334134    0   0   0
Bi1      0.666666667   0.166666667   0.389334134    0   0   0
Bi1      0.166666667   0.666666667   0.389334134    0   0   0
Bi1      0.666666667   0.666666667   0.389334134    0   0   0
Bi1      0.833333333   0.333333333   0.500000000    0   0   0
Bi1      0.333333333   0.333333333   0.500000000    0   0   0
Bi1      0.833333333   0.833333333   0.500000000    0   0   0
Bi1      0.333333333   0.833333333   0.500000000    0   0   0
Bi1     -0.000517907  -0.000517767   0.611007598
Bi1      0.501036707  -0.000518528   0.611007256
Bi1     -0.000518279   0.501035557   0.611007661
Bi1      0.500000337   0.499999649   0.610919797
H1       0.166666610   0.166666735   0.655868517



     Writing output data file calc.save
     Check: negative starting charge=   -0.503593
     NEW-OLD atomic charge density approx. for the potential

     Check: negative/imaginary core charge=   -0.000001    0.000000
     Check: negative starting charge=   -0.504596

     negative rho (up, down):  5.278E-01 0.000E+00
 
     Adding external electric field

     Computed dipole along edir(3) : 
        Dipole                0.0032 Ry au,          0.0081 Debye
        Dipole field          0.0000 Ry au
 
        Potential amp.       -0.0005 Ry
        Total length         47.3240 bohr
 

     total cpu time spent up to now is      352.0 secs

     Self-consistent Calculation

     iteration #  1     ecut=    36.75 Ry     beta=0.30
     Davidson diagonalization with overlap
     ethr =  1.00E-06,  avg # of iterations =  4.2

     negative rho (up, down):  5.278E-01 0.000E+00
 
     Adding external electric field

     Computed dipole along edir(3) : 
        Dipole               -0.3429 Ry au,         -0.8717 Debye
        Dipole field         -0.0006 Ry au
 
        Potential amp.        0.0561 Ry
        Total length         47.3240 bohr
 

     total cpu time spent up to now is      389.8 secs

     total energy              =   -2246.91713891 Ry
     Harris-Foulkes estimate   =   -2246.92176432 Ry
     estimated scf accuracy    <       0.00968680 Ry

     iteration #  2     ecut=    36.75 Ry     beta=0.30
     Davidson diagonalization with overlap
     ethr =  5.35E-06,  avg # of iterations =  5.8

     negative rho (up, down):  5.278E-01 0.000E+00
 
     Adding external electric field

     Computed dipole along edir(3) : 
        Dipole               -0.0238 Ry au,         -0.0604 Debye
        Dipole field         -0.0000 Ry au
 
        Potential amp.        0.0039 Ry
        Total length         47.3240 bohr
 

     total cpu time spent up to now is      418.1 secs

     total energy              =   -2246.89967992 Ry
     Harris-Foulkes estimate   =   -2246.94268676 Ry
     estimated scf accuracy    <       0.79912597 Ry

     iteration #  3     ecut=    36.75 Ry     beta=0.30
     Davidson diagonalization with overlap
     ethr =  5.35E-06,  avg # of iterations =  5.4

     negative rho (up, down):  5.278E-01 0.000E+00
 
     Adding external electric field

     Computed dipole along edir(3) : 
        Dipole               -0.0430 Ry au,         -0.1094 Debye
        Dipole field         -0.0001 Ry au
 
        Potential amp.        0.0070 Ry
        Total length         47.3240 bohr
 

     total cpu time spent up to now is      445.8 secs

     total energy              =   -2246.92090817 Ry
     Harris-Foulkes estimate   =   -2246.92206286 Ry
     estimated scf accuracy    <       0.00866945 Ry

     iteration #  4     ecut=    36.75 Ry     beta=0.30
     Davidson diagonalization with overlap
     ethr =  4.79E-06,  avg # of iterations =  2.4

     negative rho (up, down):  5.279E-01 0.000E+00

     negative rho (up, down):  5.279E-01 0.000E+00

     negative rho (up, down):  5.279E-01 0.000E+00

     negative rho (up, down):  5.279E-01 0.000E+00

     negative rho (up, down):  5.279E-01 0.000E+00

     negative rho (up, down):  5.279E-01 0.000E+00

     negative rho (up, down):  5.279E-01 0.000E+00

     negative rho (up, down):  5.279E-01 0.000E+00

     negative rho (up, down):  5.279E-01 0.000E+00

     negative rho (up, down):  5.279E-01 0.000E+00

     negative rho (up, down):  5.279E-01 0.000E+00

     negative rho (up, down):  5.279E-01 0.000E+00

     negative rho (up, down):  5.279E-01 0.000E+00

     negative rho (up, down):  5.279E-01 0.000E+00

     negative rho (up, down):  5.279E-01 0.000E+00

     negative rho (up, down):  5.279E-01 0.000E+00

     negative rho (up, down):  5.279E-01 0.000E+00

     negative rho (up, down):  5.279E-01 0.000E+00

     negative rho (up, down):  5.279E-01 0.000E+00

     negative rho (up, down):  5.279E-01 0.000E+00

     negative rho (up, down):  5.279E-01 0.000E+00

     negative rho (up, down):  5.279E-01 0.000E+00

     negative rho (up, down):  5.279E-01 0.000E+00

     negative rho (up, down):  5.279E-01 0.000E+00

     negative rho (up, down):  5.279E-01 0.000E+00

     negative rho (up, down):  5.279E-01 0.000E+00

     negative rho (up, down):  5.279E-01 0.000E+00

     negative rho (up, down):  5.279E-01 0.000E+00

     negative rho (up, down):  5.279E-01 0.000E+00

     negative rho (up, down):  5.279E-01 0.000E+00

     negative rho (up, down):  5.279E-01 0.000E+00

     negative rho (up, down):  5.279E-01 0.000E+00

     negative rho (up, down):  5.279E-01 0.000E+00

     negative rho (up, down):  5.279E-01 0.000E+00

     negative rho (up, down):  5.279E-01 0.000E+00
 
     Adding external electric field

     Computed dipole along edir(3) : 
        Dipole               -0.0541 Ry au,         -0.1374 Debye
        Dipole field         -0.0001 Ry au
 
        Potential amp.        0.0088 Ry
        Total length         47.3240 bohr
 

     total cpu time spent up to now is      494.3 secs

     End of self-consistent calculation

          k = 0.0000 0.0000 0.0000 ( 27441 PWs)   bands (ev):

   -22.4492 -22.4412 -22.4411 -22.3931 -22.3919 -22.3816 -22.3816 -22.3768
   -22.3768 -22.3426 -22.3302 -22.3302 -22.3083 -22.3083 -22.2671 -22.2466
   -22.2369 -22.2369 -22.2153 -22.2086 -22.2086 -22.1913 -22.1913 -22.1558
   -22.1520 -22.1520 -22.1468 -22.1468 -22.1450 -22.1351 -22.1164 -22.1164
   -22.1034 -22.1034 -22.1026 -22.0866 -22.0866 -22.0861 -22.0754 -22.0754
   -22.0625 -22.0625 -22.0579 -22.0331 -22.0258 -22.0258 -22.0142 -22.0140
   -22.0139 -22.0039 -22.0039 -21.9999 -21.9885 -21.9882 -21.9882 -21.9813
   -21.9813 -21.9670 -21.9670 -21.9582 -12.2371 -11.1909 -10.0927  -9.4096
    -9.4096  -9.3624  -8.8515  -8.8515  -8.8510  -8.4688  -8.4688  -8.4631
    -4.2301  -3.6569  -3.6569  -3.4834  -3.0180  -2.7625  -2.7625  -2.6394
    -2.5394  -2.5394  -0.8097   0.4834   0.9093   0.9093   0.9749   1.0262
     1.0262   1.8673   2.0971   2.0971   2.1018   2.7020   3.1063   3.1063
     3.2313   3.2313   3.2717   4.1676

          k = 0.0000 0.0276 0.0000 ( 27382 PWs)   bands (ev):

   -22.4431 -22.4352 -22.4304 -22.3899 -22.3888 -22.3809 -22.3767 -22.3755
   -22.3716 -22.3442 -22.3339 -22.3307 -22.3151 -22.3101 -22.2753 -22.2442
   -22.2392 -22.2373 -22.2124 -22.2035 -22.2027 -22.1951 -22.1947 -22.1527
   -22.1483 -22.1461 -22.1422 -22.1380 -22.1364 -22.1304 -22.1150 -22.1136
   -22.1059 -22.0950 -22.0945 -22.0890 -22.0887 -22.0861 -22.0741 -22.0729
   -22.0705 -22.0650 -22.0556 -22.0402 -22.0280 -22.0254 -22.0162 -22.0156
   -22.0143 -22.0078 -22.0047 -22.0046 -21.9975 -21.9962 -21.9899 -21.9875
   -21.9860 -21.9750 -21.9740 -21.9652 -12.1269 -11.0864 -10.0030  -9.8251
    -9.4776  -9.4487  -9.0745  -8.8508  -8.8504  -8.5335  -8.4549  -8.4439
    -4.0020  -3.4582  -3.3672  -3.2049  -2.8761  -2.6288  -2.5384  -2.3517
    -2.2579  -1.9321  -0.7890  -0.0758   0.3611   0.5074   1.1664   1.2112
     1.5022   1.6098   1.6524   1.7252   2.2292   2.3256   2.4498   2.8738
     3.2865   3.3570   3.3884   3.5014

          k = 0.0000 0.0553 0.0000 ( 27394 PWs)   bands (ev):

   -22.4366 -22.4114 -22.4015 -22.3901 -22.3830 -22.3724 -22.3696 -22.3690
   -22.3560 -22.3496 -22.3443 -22.3347 -22.3313 -22.3228 -22.2888 -22.2459
   -22.2413 -22.2386 -22.2193 -22.2112 -22.2014 -22.1817 -22.1688 -22.1545
   -22.1406 -22.1388 -22.1210 -22.1199 -22.1133 -22.1133 -22.1126 -22.1059
   -22.1057 -22.0964 -22.0959 -22.0909 -22.0879 -22.0769 -22.0745 -22.0712
   -22.0688 -22.0659 -22.0504 -22.0501 -22.0332 -22.0253 -22.0243 -22.0220
   -22.0205 -22.0185 -22.0178 -22.0164 -22.0146 -22.0107 -22.0079 -22.0061
   -21.9980 -21.9905 -21.9825 -21.9708 -11.8001 -10.7806 -10.5731  -9.7489
    -9.6488  -9.5905  -9.5614  -8.8896  -8.8710  -8.8348  -8.4271  -8.4152
    -3.4980  -2.9012  -2.8252  -2.4802  -2.1820  -2.1396  -1.9609  -1.7501
    -1.7288  -1.0550  -0.6632  -0.2044  -0.2017  -0.1750   0.5311   0.7344
     0.9892   1.1054   1.3071   1.5814   1.7018   1.7809   2.1993   2.4245
     2.4303   2.6170   2.9507   3.3334

          k = 0.0000-0.0829 0.0000 ( 27378 PWs)   bands (ev):

   -22.4335 -22.3947 -22.3888 -22.3790 -22.3693 -22.3610 -22.3605 -22.3603
   -22.3599 -22.3594 -22.3554 -22.3539 -22.3394 -22.3308 -22.2915 -22.2490
   -22.2428 -22.2408 -22.2297 -22.2121 -22.2013 -22.1636 -22.1560 -22.1409
   -22.1342 -22.1338 -22.1199 -22.1197 -22.1186 -22.1107 -22.1059 -22.1022
   -22.0983 -22.0981 -22.0923 -22.0913 -22.0790 -22.0741 -22.0693 -22.0651
   -22.0602 -22.0529 -22.0482 -22.0411 -22.0386 -22.0369 -22.0359 -22.0329
   -22.0316 -22.0292 -22.0286 -22.0278 -22.0250 -22.0227 -22.0192 -22.0147
   -22.0069 -21.9908 -21.9838 -21.9716 -11.2898 -11.2503 -10.3320 -10.2349
    -9.6395  -9.6225  -9.3542  -9.2727  -8.8907  -8.8869  -8.4148  -8.4025
    -3.1559  -2.2513  -2.2373  -2.1345  -2.1321  -2.0960  -1.7653  -1.3742
    -1.0441  -0.7734  -0.6997  -0.6329  -0.1584   0.4816   0.5587   0.5819
     0.7133   0.8155   0.8287   0.8444   1.0321   1.1568   1.6119   1.7503
     2.1676   2.1812   3.1388   3.2086

          k = 0.0239-0.0138 0.0000 ( 27382 PWs)   bands (ev):

   -22.4431 -22.4352 -22.4304 -22.3899 -22.3888 -22.3809 -22.3767 -22.3755
   -22.3716 -22.3442 -22.3339 -22.3307 -22.3151 -22.3101 -22.2753 -22.2442
   -22.2392 -22.2373 -22.2124 -22.2035 -22.2027 -22.1951 -22.1947 -22.1527
   -22.1483 -22.1461 -22.1422 -22.1380 -22.1364 -22.1304 -22.1150 -22.1136
   -22.1060 -22.0950 -22.0945 -22.0890 -22.0887 -22.0861 -22.0741 -22.0729
   -22.0705 -22.0650 -22.0556 -22.0402 -22.0280 -22.0254 -22.0162 -22.0156
   -22.0143 -22.0078 -22.0047 -22.0046 -21.9975 -21.9962 -21.9899 -21.9875
   -21.9860 -21.9750 -21.9740 -21.9652 -12.1269 -11.0864 -10.0030  -9.8251
    -9.4776  -9.4487  -9.0745  -8.8508  -8.8504  -8.5335  -8.4549  -8.4439
    -4.0020  -3.4582  -3.3672  -3.2049  -2.8761  -2.6288  -2.5384  -2.3517
    -2.2579  -1.9321  -0.7890  -0.0758   0.3611   0.5074   1.1664   1.2112
     1.5022   1.6098   1.6524   1.7252   2.2292   2.3256   2.4498   2.8738
     3.2865   3.3570   3.3884   3.5014

          k = 0.0239 0.0138 0.0000 ( 27382 PWs)   bands (ev):

   -22.4431 -22.4352 -22.4304 -22.3899 -22.3888 -22.3809 -22.3767 -22.3755
   -22.3716 -22.3442 -22.3339 -22.3307 -22.3151 -22.3101 -22.2753 -22.2442
   -22.2392 -22.2373 -22.2124 -22.2035 -22.2027 -22.1952 -22.1947 -22.1527
   -22.1483 -22.1461 -22.1422 -22.1380 -22.1364 -22.1304 -22.1150 -22.1136
   -22.1059 -22.0950 -22.0945 -22.0890 -22.0886 -22.0861 -22.0741 -22.0729
   -22.0705 -22.0650 -22.0556 -22.0402 -22.0280 -22.0254 -22.0162 -22.0156
   -22.0143 -22.0078 -22.0047 -22.0046 -21.9975 -21.9962 -21.9899 -21.9875
   -21.9860 -21.9750 -21.9740 -21.9652 -12.1269 -11.0864 -10.0030  -9.8251
    -9.4776  -9.4487  -9.0745  -8.8508  -8.8504  -8.5335  -8.4549  -8.4439
    -4.0020  -3.4582  -3.3672  -3.2049  -2.8761  -2.6288  -2.5384  -2.3517
    -2.2579  -1.9321  -0.7890  -0.0758   0.3611   0.5074   1.1664   1.2112
     1.5022   1.6098   1.6524   1.7252   2.2292   2.3256   2.4498   2.8738
     3.2865   3.3570   3.3884   3.5014

          k = 0.0239 0.0415 0.0000 ( 27415 PWs)   bands (ev):

   -22.4309 -22.4296 -22.4071 -22.3843 -22.3831 -22.3825 -22.3732 -22.3702
   -22.3596 -22.3487 -22.3394 -22.3323 -22.3311 -22.3121 -22.2887 -22.2438
   -22.2419 -22.2380 -22.2136 -22.2067 -22.2017 -22.1952 -22.1744 -22.1495
   -22.1450 -22.1351 -22.1330 -22.1317 -22.1190 -22.1136 -22.1111 -22.1074
   -22.1050 -22.0971 -22.0939 -22.0906 -22.0877 -22.0853 -22.0722 -22.0701
   -22.0687 -22.0682 -22.0519 -22.0513 -22.0325 -22.0244 -22.0209 -22.0195
   -22.0183 -22.0172 -22.0150 -22.0134 -22.0063 -22.0058 -22.0012 -21.9963
   -21.9922 -21.9887 -21.9797 -21.9764 -11.9084 -10.8805 -10.1452 -10.1102
    -9.8184  -9.3129  -9.2573  -9.1697  -8.6814  -8.6386  -8.5915  -8.3879
    -3.6638  -3.1747  -2.7096  -2.6913  -2.5656  -2.3262  -2.1037  -2.0223
    -1.4495  -1.2966  -0.8679  -0.2510  -0.2358  -0.1288   0.4878   1.1931
     1.3593   1.5286   1.5677   1.6502   1.8085   1.9639   2.4014   2.4976
     2.5314   2.7121   3.1977   3.4268

          k = 0.0239-0.0967 0.0000 ( 27352 PWs)   bands (ev):

   -22.4256 -22.4042 -22.3874 -22.3802 -22.3750 -22.3686 -22.3655 -22.3605
   -22.3599 -22.3577 -22.3492 -22.3469 -22.3337 -22.3253 -22.3005 -22.2465
   -22.2431 -22.2397 -22.2259 -22.2140 -22.1955 -22.1758 -22.1548 -22.1423
   -22.1340 -22.1276 -22.1236 -22.1165 -22.1112 -22.1104 -22.1074 -22.1051
   -22.0996 -22.0985 -22.0954 -22.0878 -22.0809 -22.0767 -22.0745 -22.0684
   -22.0629 -22.0612 -22.0516 -22.0461 -22.0385 -22.0366 -22.0359 -22.0324
   -22.0276 -22.0224 -22.0217 -22.0201 -22.0188 -22.0172 -22.0156 -22.0084
   -22.0026 -21.9976 -21.9925 -21.9792 -11.4798 -10.8646 -10.4813 -10.2905
    -9.9133  -9.4859  -9.3984  -9.0543  -9.0173  -8.6749  -8.5485  -8.3575
    -3.2242  -2.6502  -2.2214  -2.0541  -1.9120  -1.7825  -1.6530  -1.4522
    -1.1951  -1.0364  -0.6945  -0.4520  -0.2168  -0.2035   0.1832   0.2896
     0.8093   1.1761   1.2661   1.4049   1.4800   1.5454   1.8108   2.0045
     2.2400   2.3986   2.5486   2.9670

          k = 0.0239-0.0691 0.0000 ( 27352 PWs)   bands (ev):

   -22.4256 -22.4042 -22.3874 -22.3802 -22.3750 -22.3686 -22.3655 -22.3605
   -22.3599 -22.3577 -22.3492 -22.3469 -22.3337 -22.3253 -22.3005 -22.2465
   -22.2431 -22.2397 -22.2259 -22.2140 -22.1955 -22.1758 -22.1548 -22.1423
   -22.1340 -22.1276 -22.1236 -22.1165 -22.1112 -22.1104 -22.1074 -22.1051
   -22.0996 -22.0984 -22.0954 -22.0878 -22.0809 -22.0767 -22.0745 -22.0684
   -22.0629 -22.0612 -22.0516 -22.0461 -22.0385 -22.0366 -22.0359 -22.0324
   -22.0276 -22.0224 -22.0217 -22.0201 -22.0188 -22.0172 -22.0156 -22.0084
   -22.0026 -21.9976 -21.9925 -21.9792 -11.4798 -10.8646 -10.4813 -10.2905
    -9.9133  -9.4859  -9.3984  -9.0543  -9.0173  -8.6749  -8.5485  -8.3575
    -3.2242  -2.6502  -2.2214  -2.0541  -1.9120  -1.7825  -1.6530  -1.4522
    -1.1951  -1.0364  -0.6945  -0.4520  -0.2168  -0.2035   0.1832   0.2896
     0.8094   1.1761   1.2661   1.4049   1.4800   1.5454   1.8108   2.0045
     2.2400   2.3986   2.5486   2.9670

          k = 0.0239-0.0415 0.0000 ( 27415 PWs)   bands (ev):

   -22.4309 -22.4296 -22.4071 -22.3843 -22.3831 -22.3825 -22.3732 -22.3702
   -22.3596 -22.3487 -22.3394 -22.3323 -22.3311 -22.3121 -22.2887 -22.2438
   -22.2419 -22.2380 -22.2136 -22.2067 -22.2017 -22.1952 -22.1744 -22.1495
   -22.1450 -22.1351 -22.1330 -22.1317 -22.1190 -22.1136 -22.1111 -22.1074
   -22.1050 -22.0971 -22.0939 -22.0906 -22.0877 -22.0853 -22.0722 -22.0701
   -22.0686 -22.0682 -22.0519 -22.0513 -22.0325 -22.0244 -22.0209 -22.0195
   -22.0183 -22.0172 -22.0150 -22.0134 -22.0063 -22.0058 -22.0012 -21.9963
   -21.9922 -21.9887 -21.9797 -21.9764 -11.9084 -10.8805 -10.1452 -10.1102
    -9.8184  -9.3129  -9.2573  -9.1697  -8.6814  -8.6386  -8.5914  -8.3879
    -3.6638  -3.1747  -2.7096  -2.6913  -2.5656  -2.3262  -2.1037  -2.0223
    -1.4495  -1.2966  -0.8679  -0.2510  -0.2358  -0.1288   0.4878   1.1931
     1.3594   1.5286   1.5677   1.6502   1.8085   1.9639   2.4014   2.4976
     2.5314   2.7121   3.1977   3.4268

          k = 0.0479-0.0276 0.0000 ( 27394 PWs)   bands (ev):

   -22.4366 -22.4114 -22.4015 -22.3901 -22.3830 -22.3724 -22.3696 -22.3690
   -22.3560 -22.3496 -22.3443 -22.3347 -22.3313 -22.3228 -22.2888 -22.2459
   -22.2413 -22.2386 -22.2193 -22.2112 -22.2014 -22.1817 -22.1688 -22.1545
   -22.1406 -22.1388 -22.1210 -22.1199 -22.1133 -22.1133 -22.1126 -22.1059
   -22.1057 -22.0964 -22.0959 -22.0909 -22.0879 -22.0769 -22.0745 -22.0712
   -22.0688 -22.0659 -22.0504 -22.0501 -22.0332 -22.0253 -22.0243 -22.0220
   -22.0205 -22.0185 -22.0178 -22.0164 -22.0146 -22.0107 -22.0079 -22.0061
   -21.9980 -21.9905 -21.9825 -21.9708 -11.8001 -10.7806 -10.5731  -9.7489
    -9.6488  -9.5905  -9.5614  -8.8896  -8.8710  -8.8348  -8.4271  -8.4152
    -3.4980  -2.9012  -2.8252  -2.4802  -2.1820  -2.1396  -1.9609  -1.7501
    -1.7288  -1.0550  -0.6632  -0.2044  -0.2017  -0.1750   0.5311   0.7344
     0.9892   1.1054   1.3071   1.5814   1.7018   1.7809   2.1993   2.4245
     2.4303   2.6170   2.9507   3.3334

          k = 0.0479 0.0000 0.0000 ( 27415 PWs)   bands (ev):

   -22.4309 -22.4296 -22.4071 -22.3843 -22.3831 -22.3825 -22.3732 -22.3702
   -22.3596 -22.3487 -22.3394 -22.3323 -22.3312 -22.3120 -22.2887 -22.2438
   -22.2419 -22.2380 -22.2136 -22.2067 -22.2017 -22.1952 -22.1744 -22.1495
   -22.1450 -22.1351 -22.1330 -22.1317 -22.1190 -22.1136 -22.1111 -22.1074
   -22.1050 -22.0971 -22.0939 -22.0906 -22.0877 -22.0853 -22.0722 -22.0701
   -22.0687 -22.0682 -22.0519 -22.0513 -22.0325 -22.0244 -22.0209 -22.0195
   -22.0183 -22.0172 -22.0150 -22.0134 -22.0063 -22.0058 -22.0012 -21.9963
   -21.9922 -21.9887 -21.9797 -21.9764 -11.9084 -10.8805 -10.1452 -10.1102
    -9.8184  -9.3129  -9.2573  -9.1697  -8.6814  -8.6386  -8.5915  -8.3879
    -3.6638  -3.1747  -2.7096  -2.6913  -2.5656  -2.3262  -2.1037  -2.0223
    -1.4495  -1.2966  -0.8679  -0.2510  -0.2358  -0.1288   0.4878   1.1931
     1.3594   1.5286   1.5677   1.6502   1.8085   1.9639   2.4014   2.4976
     2.5314   2.7121   3.1977   3.4268

          k = 0.0479 0.0276 0.0000 ( 27394 PWs)   bands (ev):

   -22.4366 -22.4114 -22.4015 -22.3901 -22.3830 -22.3724 -22.3696 -22.3689
   -22.3560 -22.3496 -22.3443 -22.3347 -22.3313 -22.3228 -22.2888 -22.2459
   -22.2413 -22.2386 -22.2193 -22.2112 -22.2014 -22.1817 -22.1688 -22.1545
   -22.1406 -22.1388 -22.1210 -22.1199 -22.1133 -22.1133 -22.1127 -22.1059
   -22.1057 -22.0964 -22.0959 -22.0909 -22.0879 -22.0769 -22.0745 -22.0712
   -22.0688 -22.0659 -22.0504 -22.0501 -22.0332 -22.0253 -22.0243 -22.0220
   -22.0205 -22.0185 -22.0178 -22.0164 -22.0146 -22.0107 -22.0079 -22.0061
   -21.9980 -21.9905 -21.9825 -21.9708 -11.8001 -10.7806 -10.5731  -9.7489
    -9.6488  -9.5905  -9.5614  -8.8896  -8.8710  -8.8348  -8.4271  -8.4152
    -3.4980  -2.9012  -2.8252  -2.4802  -2.1820  -2.1396  -1.9609  -1.7501
    -1.7288  -1.0550  -0.6632  -0.2044  -0.2017  -0.1750   0.5311   0.7344
     0.9892   1.1054   1.3071   1.5814   1.7018   1.7809   2.1993   2.4245
     2.4303   2.6170   2.9507   3.3334

          k = 0.0479-0.1106 0.0000 ( 27352 PWs)   bands (ev):

   -22.4256 -22.4042 -22.3874 -22.3802 -22.3750 -22.3686 -22.3655 -22.3605
   -22.3599 -22.3577 -22.3492 -22.3469 -22.3337 -22.3253 -22.3005 -22.2465
   -22.2431 -22.2397 -22.2259 -22.2140 -22.1955 -22.1758 -22.1548 -22.1423
   -22.1340 -22.1276 -22.1236 -22.1165 -22.1111 -22.1104 -22.1074 -22.1051
   -22.0997 -22.0984 -22.0954 -22.0878 -22.0809 -22.0767 -22.0745 -22.0684
   -22.0629 -22.0612 -22.0516 -22.0461 -22.0385 -22.0366 -22.0359 -22.0324
   -22.0276 -22.0224 -22.0217 -22.0201 -22.0188 -22.0172 -22.0156 -22.0084
   -22.0026 -21.9976 -21.9925 -21.9792 -11.4798 -10.8646 -10.4813 -10.2905
    -9.9133  -9.4859  -9.3984  -9.0543  -9.0173  -8.6749  -8.5485  -8.3575
    -3.2242  -2.6502  -2.2214  -2.0541  -1.9120  -1.7825  -1.6530  -1.4522
    -1.1951  -1.0364  -0.6945  -0.4520  -0.2168  -0.2035   0.1832   0.2896
     0.8093   1.1762   1.2661   1.4049   1.4800   1.5454   1.8108   2.0045
     2.2400   2.3986   2.5486   2.9670

          k = 0.0479-0.0829 0.0000 ( 27291 PWs)   bands (ev):

   -22.4107 -22.3950 -22.3949 -22.3749 -22.3747 -22.3697 -22.3693 -22.3655
   -22.3584 -22.3512 -22.3511 -22.3368 -22.3286 -22.3282 -22.3223 -22.2436
   -22.2432 -22.2401 -22.2243 -22.2242 -22.1781 -22.1738 -22.1671 -22.1322
   -22.1303 -22.1177 -22.1160 -22.1135 -22.1100 -22.1099 -22.1045 -22.1026
   -22.1008 -22.0970 -22.0900 -22.0861 -22.0837 -22.0828 -22.0802 -22.0658
   -22.0658 -22.0641 -22.0634 -22.0393 -22.0383 -22.0364 -22.0345 -22.0339
   -22.0274 -22.0265 -22.0209 -22.0197 -22.0179 -22.0179 -22.0115 -22.0090
   -22.0072 -22.0025 -22.0017 -21.9972 -11.0005 -10.9519 -10.9358 -10.0865
    -9.9762  -9.9394  -9.1540  -9.0557  -9.0551  -8.7612  -8.4499  -8.3877
    -3.0580  -2.2360  -2.0861  -2.0118  -1.8258  -1.8114  -1.5623  -0.9431
    -0.7918  -0.7892  -0.7675  -0.7185  -0.3193   0.0075   0.0175   0.4379
     0.5167   0.5426   0.8866   1.2133   1.2409   2.1459   2.1970   2.1989
     2.2170   2.2624   2.4550   2.7779

          k = 0.0479-0.0553 0.0000 ( 27352 PWs)   bands (ev):

   -22.4256 -22.4042 -22.3874 -22.3802 -22.3750 -22.3686 -22.3655 -22.3605
   -22.3600 -22.3577 -22.3492 -22.3469 -22.3337 -22.3253 -22.3005 -22.2465
   -22.2431 -22.2397 -22.2259 -22.2140 -22.1955 -22.1758 -22.1548 -22.1423
   -22.1340 -22.1275 -22.1236 -22.1165 -22.1112 -22.1104 -22.1074 -22.1051
   -22.0996 -22.0984 -22.0954 -22.0878 -22.0809 -22.0767 -22.0745 -22.0684
   -22.0629 -22.0612 -22.0516 -22.0461 -22.0385 -22.0366 -22.0359 -22.0324
   -22.0276 -22.0224 -22.0217 -22.0201 -22.0188 -22.0172 -22.0156 -22.0084
   -22.0026 -21.9976 -21.9925 -21.9792 -11.4798 -10.8646 -10.4813 -10.2905
    -9.9133  -9.4859  -9.3984  -9.0543  -9.0173  -8.6749  -8.5485  -8.3575
    -3.2242  -2.6502  -2.2214  -2.0541  -1.9120  -1.7825  -1.6530  -1.4522
    -1.1951  -1.0364  -0.6945  -0.4520  -0.2168  -0.2035   0.1832   0.2896
     0.8093   1.1762   1.2661   1.4049   1.4800   1.5454   1.8108   2.0045
     2.2400   2.3986   2.5486   2.9670

          k =-0.0718 0.0415 0.0000 ( 27378 PWs)   bands (ev):

   -22.4335 -22.3947 -22.3888 -22.3790 -22.3693 -22.3611 -22.3605 -22.3603
   -22.3599 -22.3594 -22.3555 -22.3538 -22.3394 -22.3308 -22.2915 -22.2490
   -22.2428 -22.2408 -22.2297 -22.2121 -22.2013 -22.1636 -22.1560 -22.1409
   -22.1342 -22.1338 -22.1199 -22.1197 -22.1186 -22.1107 -22.1059 -22.1022
   -22.0983 -22.0981 -22.0923 -22.0913 -22.0790 -22.0741 -22.0693 -22.0651
   -22.0602 -22.0529 -22.0482 -22.0411 -22.0386 -22.0369 -22.0359 -22.0329
   -22.0316 -22.0292 -22.0286 -22.0278 -22.0250 -22.0227 -22.0192 -22.0147
   -22.0069 -21.9908 -21.9838 -21.9716 -11.2898 -11.2503 -10.3320 -10.2349
    -9.6395  -9.6225  -9.3542  -9.2727  -8.8907  -8.8869  -8.4148  -8.4025
    -3.1559  -2.2513  -2.2373  -2.1345  -2.1321  -2.0960  -1.7653  -1.3742
    -1.0441  -0.7734  -0.6997  -0.6329  -0.1584   0.4816   0.5587   0.5819
     0.7133   0.8155   0.8287   0.8444   1.0321   1.1568   1.6119   1.7503
     2.1676   2.1812   3.1388   3.2105

          k =-0.0718 0.0691 0.0000 ( 27352 PWs)   bands (ev):

   -22.4256 -22.4042 -22.3874 -22.3802 -22.3750 -22.3686 -22.3655 -22.3605
   -22.3600 -22.3577 -22.3492 -22.3469 -22.3337 -22.3253 -22.3005 -22.2465
   -22.2431 -22.2397 -22.2259 -22.2140 -22.1955 -22.1758 -22.1548 -22.1423
   -22.1340 -22.1275 -22.1236 -22.1165 -22.1112 -22.1104 -22.1074 -22.1051
   -22.0997 -22.0985 -22.0954 -22.0878 -22.0809 -22.0767 -22.0745 -22.0684
   -22.0629 -22.0612 -22.0516 -22.0461 -22.0385 -22.0366 -22.0359 -22.0324
   -22.0276 -22.0224 -22.0217 -22.0201 -22.0188 -22.0172 -22.0156 -22.0084
   -22.0026 -21.9976 -21.9925 -21.9792 -11.4798 -10.8646 -10.4813 -10.2905
    -9.9133  -9.4859  -9.3984  -9.0543  -9.0173  -8.6749  -8.5485  -8.3575
    -3.2242  -2.6502  -2.2214  -2.0541  -1.9120  -1.7825  -1.6530  -1.4522
    -1.1951  -1.0364  -0.6945  -0.4520  -0.2168  -0.2035   0.1832   0.2896
     0.8094   1.1762   1.2661   1.4049   1.4800   1.5454   1.8108   2.0045
     2.2400   2.3986   2.5486   2.9670

          k =-0.0718 0.0967 0.0000 ( 27352 PWs)   bands (ev):

   -22.4256 -22.4042 -22.3874 -22.3802 -22.3750 -22.3686 -22.3655 -22.3605
   -22.3599 -22.3577 -22.3492 -22.3469 -22.3337 -22.3253 -22.3005 -22.2465
   -22.2431 -22.2397 -22.2259 -22.2140 -22.1955 -22.1758 -22.1548 -22.1423
   -22.1340 -22.1276 -22.1236 -22.1165 -22.1111 -22.1104 -22.1074 -22.1051
   -22.0997 -22.0984 -22.0954 -22.0878 -22.0809 -22.0767 -22.0745 -22.0684
   -22.0629 -22.0612 -22.0516 -22.0461 -22.0385 -22.0366 -22.0359 -22.0324
   -22.0276 -22.0224 -22.0217 -22.0201 -22.0188 -22.0172 -22.0156 -22.0084
   -22.0026 -21.9976 -21.9925 -21.9792 -11.4798 -10.8646 -10.4813 -10.2905
    -9.9133  -9.4859  -9.3984  -9.0543  -9.0173  -8.6749  -8.5485  -8.3575
    -3.2242  -2.6502  -2.2214  -2.0541  -1.9120  -1.7825  -1.6530  -1.4522
    -1.1951  -1.0364  -0.6945  -0.4520  -0.2168  -0.2035   0.1832   0.2896
     0.8094   1.1762   1.2661   1.4049   1.4800   1.5454   1.8108   2.0045
     2.2400   2.3986   2.5486   2.9670

          k =-0.0718-0.0415 0.0000 ( 27378 PWs)   bands (ev):

   -22.4335 -22.3947 -22.3888 -22.3790 -22.3693 -22.3610 -22.3605 -22.3603
   -22.3599 -22.3595 -22.3554 -22.3539 -22.3394 -22.3308 -22.2915 -22.2490
   -22.2428 -22.2408 -22.2297 -22.2121 -22.2013 -22.1636 -22.1560 -22.1409
   -22.1342 -22.1338 -22.1199 -22.1197 -22.1186 -22.1107 -22.1059 -22.1022
   -22.0982 -22.0981 -22.0923 -22.0913 -22.0790 -22.0741 -22.0693 -22.0651
   -22.0602 -22.0529 -22.0482 -22.0411 -22.0386 -22.0369 -22.0359 -22.0329
   -22.0316 -22.0292 -22.0286 -22.0278 -22.0250 -22.0227 -22.0192 -22.0147
   -22.0069 -21.9908 -21.9838 -21.9716 -11.2898 -11.2503 -10.3320 -10.2349
    -9.6395  -9.6225  -9.3542  -9.2727  -8.8907  -8.8869  -8.4148  -8.4025
    -3.1559  -2.2513  -2.2373  -2.1345  -2.1321  -2.0960  -1.7653  -1.3742
    -1.0441  -0.7734  -0.6997  -0.6329  -0.1584   0.4816   0.5587   0.5819
     0.7133   0.8155   0.8287   0.8444   1.0321   1.1568   1.6119   1.7503
     2.1676   2.1812   3.1388   3.2088

     the Fermi energy is     1.3584 ev

!    total energy              =   -2246.92146504 Ry
     Harris-Foulkes estimate   =   -2246.92146573 Ry
     estimated scf accuracy    <       0.00000699 Ry

     The total energy is the sum of the following terms:

     one-electron contribution =  -10739.49915873 Ry
     hartree contribution      =    5423.90789991 Ry
     xc contribution           =    -799.67717257 Ry
     ewald contribution        =    3868.40985400 Ry
     electric field correction =       0.00000505 Ry
     smearing contrib. (-TS)   =      -0.06289270 Ry

     convergence has been achieved in   4 iterations
 
 BEEF-vdW xc energy contributions
           1 :   -713.102912482153     
           2 :    662.944945893860     
           3 :   -574.362084422048     
           4 :    466.519670714059     
           5 :   -359.654411548578     
           6 :    269.160797297051     
           7 :   -202.066926166124     
           8 :    156.836759401170     
           9 :   -126.180211202598     
          10 :    101.405387638041     
          11 :   -76.3744794041335     
          12 :    49.5019808282279     
          13 :   -23.2843509119504     
          14 :    1.99844022679258     
          15 :    11.0629057733399     
          16 :   -15.4438027206249     
          17 :    13.7047600789056     
          18 :   -10.0574603098999     
          19 :    8.30191672255773     
          20 :   -10.1606117225394     
          21 :    14.7957614895879     
          22 :   -19.6399258872916     
          23 :    21.9985565107518     
          24 :   -20.5462278636396     
          25 :    15.9681800177839     
          26 :   -10.4971900534283     
          27 :    6.67173525456735     
          28 :   -6.01306418020636     
          29 :    8.30902430176911     
          30 :   -11.8362559965171     
          31 :   -56.8468472516893     
          32 :   -41.8618945627485     

     Forces acting on atoms (Ry/au):


     negative rho (up, down):  5.279E-01 0.000E+00
     atom    1 type  1   force =     0.00000261   -0.00000080   -0.00626620
     atom    2 type  1   force =     0.00000280    0.00097125   -0.00644076
     atom    3 type  1   force =     0.00084293   -0.00048089   -0.00644329
     atom    4 type  1   force =    -0.00083693   -0.00048347   -0.00643296
     atom    5 type  1   force =    -0.00155006    0.00089481   -0.00726044
     atom    6 type  1   force =     0.00155500    0.00089767   -0.00725702
     atom    7 type  1   force =     0.00000247    0.00000049   -0.00180355
     atom    8 type  1   force =    -0.00000030   -0.00178984   -0.00726412
     atom    9 type  1   force =    -0.00895305   -0.00517070    0.01492455
     atom   10 type  1   force =     0.00893589   -0.00516760    0.01490822
     atom   11 type  1   force =    -0.00000266    0.01032453    0.01490711
     atom   12 type  1   force =    -0.00000028    0.00000341    0.01034328
     atom   13 type  2   force =     0.00000158    0.00000115   -0.00591483

     Total force =     0.033604     Total SCF correction =     0.004537
     SCF correction compared to forces is large: reduce conv_thr to get better values


     entering subroutine stress ...


     negative rho (up, down):  5.279E-01 0.000E+00
          total   stress  (Ry/bohr**3)                   (kbar)     P=    5.83
   0.00003992   0.00000000   0.00000000          5.87      0.00      0.00
   0.00000000   0.00003992  -0.00000000          0.00      5.87     -0.00
   0.00000000  -0.00000000   0.00003911          0.00     -0.00      5.75


     number of scf cycles    =   2
     number of bfgs steps    =   1

     energy   old            =   -2246.9202227269 Ry
     energy   new            =   -2246.9214650447 Ry

     CASE: energy  _new < energy  _old


     WARNING: bfgs curvature condition failed, Theta= 0.898
     new trust radius        =       0.0305372792 bohr
     new conv_thr            =       0.0000001000 Ry


ATOMIC_POSITIONS (crystal)
Bi1      0.166666667   0.166666667   0.389334134    0   0   0
Bi1      0.666666667   0.166666667   0.389334134    0   0   0
Bi1      0.166666667   0.666666667   0.389334134    0   0   0
Bi1      0.666666667   0.666666667   0.389334134    0   0   0
Bi1      0.833333333   0.333333333   0.500000000    0   0   0
Bi1      0.333333333   0.333333333   0.500000000    0   0   0
Bi1      0.833333333   0.833333333   0.500000000    0   0   0
Bi1      0.333333333   0.833333333   0.500000000    0   0   0
Bi1     -0.001283223  -0.001283351   0.611523997
Bi1      0.502565868  -0.001283929   0.611523098
Bi1     -0.001283245   0.502564667   0.611523576
Bi1      0.500000186   0.499999974   0.611282108
H1       0.166666692   0.166666893   0.655673974



     Writing output data file calc.save
     Check: negative starting charge=   -0.504596
     NEW-OLD atomic charge density approx. for the potential

     Check: negative/imaginary core charge=   -0.000001    0.000000
     Check: negative starting charge=   -0.504401

     negative rho (up, down):  5.276E-01 0.000E+00
 
     Adding external electric field

     Computed dipole along edir(3) : 
        Dipole                0.0387 Ry au,          0.0983 Debye
        Dipole field          0.0001 Ry au
 
        Potential amp.       -0.0063 Ry
        Total length         47.3240 bohr
 

     total cpu time spent up to now is      527.4 secs

     Self-consistent Calculation

     iteration #  1     ecut=    36.75 Ry     beta=0.30
     Davidson diagonalization with overlap
     ethr =  1.00E-06,  avg # of iterations =  5.0

     negative rho (up, down):  5.276E-01 0.000E+00
 
     Adding external electric field

     Computed dipole along edir(3) : 
        Dipole               -0.6283 Ry au,         -1.5971 Debye
        Dipole field         -0.0011 Ry au
 
        Potential amp.        0.1027 Ry
        Total length         47.3240 bohr
 

     total cpu time spent up to now is      567.1 secs

     total energy              =   -2246.90916158 Ry
     Harris-Foulkes estimate   =   -2246.92378104 Ry
     estimated scf accuracy    <       0.03052548 Ry

     iteration #  2     ecut=    36.75 Ry     beta=0.30
     Davidson diagonalization with overlap
     ethr =  1.69E-05,  avg # of iterations =  6.1

     negative rho (up, down):  5.276E-01 0.000E+00
 
     Adding external electric field

     Computed dipole along edir(3) : 
        Dipole               -0.0317 Ry au,         -0.0806 Debye
        Dipole field         -0.0001 Ry au
 
        Potential amp.        0.0052 Ry
        Total length         47.3240 bohr
 

     total cpu time spent up to now is      595.5 secs

     total energy              =   -2246.84664234 Ry
     Harris-Foulkes estimate   =   -2247.00115966 Ry
     estimated scf accuracy    <       2.97387903 Ry

     iteration #  3     ecut=    36.75 Ry     beta=0.30
     Davidson diagonalization with overlap
     ethr =  1.69E-05,  avg # of iterations =  5.2

     negative rho (up, down):  5.276E-01 0.000E+00
 
     Adding external electric field

     Computed dipole along edir(3) : 
        Dipole               -0.0458 Ry au,         -0.1165 Debye
        Dipole field         -0.0001 Ry au
 
        Potential amp.        0.0075 Ry
        Total length         47.3240 bohr
 

     total cpu time spent up to now is      623.3 secs

     total energy              =   -2246.92240479 Ry
     Harris-Foulkes estimate   =   -2246.92410313 Ry
     estimated scf accuracy    <       0.01034247 Ry

     iteration #  4     ecut=    36.75 Ry     beta=0.30
     Davidson diagonalization with overlap
     ethr =  5.71E-06,  avg # of iterations =  3.0

     negative rho (up, down):  5.277E-01 0.000E+00
 
     Adding external electric field

     Computed dipole along edir(3) : 
        Dipole               -0.0453 Ry au,         -0.1153 Debye
        Dipole field         -0.0001 Ry au
 
        Potential amp.        0.0074 Ry
        Total length         47.3240 bohr
 

     total cpu time spent up to now is      646.2 secs

     total energy              =   -2246.92325959 Ry
     Harris-Foulkes estimate   =   -2246.92326175 Ry
     estimated scf accuracy    <       0.00001806 Ry

     iteration #  5     ecut=    36.75 Ry     beta=0.30
     Davidson diagonalization with overlap
     ethr =  9.98E-09,  avg # of iterations =  5.0

     negative rho (up, down):  5.277E-01 0.000E+00
 
     Adding external electric field

     Computed dipole along edir(3) : 
        Dipole               -0.0464 Ry au,         -0.1178 Debye
        Dipole field         -0.0001 Ry au
 
        Potential amp.        0.0076 Ry
        Total length         47.3240 bohr
 

     total cpu time spent up to now is      681.0 secs

     total energy              =   -2246.92327795 Ry
     Harris-Foulkes estimate   =   -2246.92327821 Ry
     estimated scf accuracy    <       0.00000835 Ry

     iteration #  6     ecut=    36.75 Ry     beta=0.30
     Davidson diagonalization with overlap
     ethr =  4.61E-09,  avg # of iterations =  2.3

     negative rho (up, down):  5.277E-01 0.000E+00
 
     Adding external electric field

     Computed dipole along edir(3) : 
        Dipole               -0.0470 Ry au,         -0.1195 Debye
        Dipole field         -0.0001 Ry au
 
        Potential amp.        0.0077 Ry
        Total length         47.3240 bohr
 

     total cpu time spent up to now is      703.2 secs

     total energy              =   -2246.92327872 Ry
     Harris-Foulkes estimate   =   -2246.92327832 Ry
     estimated scf accuracy    <       0.00000183 Ry

     iteration #  7     ecut=    36.75 Ry     beta=0.30
     Davidson diagonalization with overlap
     ethr =  1.01E-09,  avg # of iterations =  2.0

     negative rho (up, down):  5.277E-01 0.000E+00
 
     Adding external electric field

     Computed dipole along edir(3) : 
        Dipole               -0.0470 Ry au,         -0.1194 Debye
        Dipole field         -0.0001 Ry au
 
        Potential amp.        0.0077 Ry
        Total length         47.3240 bohr
 

     total cpu time spent up to now is      725.4 secs

[...]
   -22.2966 -22.2960 -22.2918 -22.2857 -22.2801 -22.2784 -22.2716 -22.2685
   -22.2647 -22.2486 -22.2412 -22.2293 -22.1506 -22.1394 -22.1317 -22.1291
   -22.1126 -22.1016 -22.0984 -22.0964 -22.0832 -22.0806 -22.0773 -22.0747
   -22.0724 -22.0706 -22.0653 -22.0615 -22.0597 -22.0566 -22.0465 -22.0462
   -22.0446 -22.0420 -22.0367 -22.0349 -22.0309 -22.0300 -22.0252 -22.0196
   -22.0174 -22.0102 -22.0078 -22.0060 -21.9999 -21.9923 -21.9875 -21.9862
   -21.9795 -21.9709 -21.9631 -21.9528 -11.2809 -10.6808 -10.4457 -10.1146
    -9.8570  -9.5788  -9.3339  -9.1060  -8.9228  -8.7417  -8.4662  -8.3308
    -3.1249  -2.4841  -2.1845  -1.9462  -1.7468  -1.6739  -1.4719  -1.2279
    -1.1217  -0.9190  -0.6597  -0.4401  -0.3033  -0.0684   0.1635   0.2414
     0.9054   1.0401   1.2448   1.3312   1.5077   1.5731   1.7614   1.9940
     2.1484   2.4631   2.5555   2.9056

          k = 0.0239-0.0691 0.0000 ( 27352 PWs)   bands (ev):

   -22.3664 -22.3548 -22.3473 -22.3203 -22.3178 -22.3128 -22.3089 -22.3024
   -22.2966 -22.2959 -22.2918 -22.2858 -22.2801 -22.2784 -22.2716 -22.2685
   -22.2647 -22.2486 -22.2412 -22.2293 -22.1506 -22.1394 -22.1317 -22.1291
   -22.1126 -22.1016 -22.0984 -22.0964 -22.0832 -22.0806 -22.0773 -22.0747
   -22.0724 -22.0706 -22.0653 -22.0615 -22.0597 -22.0566 -22.0465 -22.0462
   -22.0446 -22.0420 -22.0367 -22.0349 -22.0309 -22.0300 -22.0252 -22.0196
   -22.0174 -22.0102 -22.0079 -22.0060 -21.9999 -21.9924 -21.9875 -21.9862
   -21.9795 -21.9708 -21.9631 -21.9528 -11.2809 -10.6808 -10.4456 -10.1147
    -9.8571  -9.5788  -9.3340  -9.1059  -8.9228  -8.7417  -8.4662  -8.3307
    -3.1251  -2.4840  -2.1845  -1.9462  -1.7468  -1.6739  -1.4718  -1.2279
    -1.1215  -0.9190  -0.6598  -0.4402  -0.3030  -0.0683   0.1635   0.2415
     0.9048   1.0401   1.2453   1.3314   1.5078   1.5728   1.7614   1.9941
     2.1484   2.4629   2.5556   2.9057

          k = 0.0239-0.0415 0.0000 ( 27415 PWs)   bands (ev):

   -22.3767 -22.3746 -22.3535 -22.3478 -22.3376 -22.3218 -22.3160 -22.3146
   -22.3124 -22.2868 -22.2769 -22.2753 -22.2706 -22.2682 -22.2645 -22.2607
   -22.2529 -22.2272 -22.2242 -22.2227 -22.1590 -22.1584 -22.1394 -22.1366
   -22.1338 -22.1255 -22.1186 -22.1108 -22.0967 -22.0926 -22.0876 -22.0830
   -22.0826 -22.0764 -22.0574 -22.0565 -22.0494 -22.0468 -22.0457 -22.0419
   -22.0389 -22.0351 -22.0339 -22.0317 -22.0288 -22.0172 -22.0161 -22.0110
   -22.0083 -22.0057 -22.0033 -21.9932 -21.9884 -21.9871 -21.9796 -21.9774
   -21.9658 -21.9618 -21.9593 -21.9476 -11.7030 -10.8349 -10.0067  -9.9358
    -9.9160  -9.2749  -9.1577  -9.0375  -8.6941  -8.6523  -8.5759  -8.3791
    -3.6556  -3.0144  -2.6459  -2.4910  -2.4662  -2.2773  -2.0029  -1.8493
    -1.4857  -1.2890  -0.5765  -0.3832  -0.2834   0.0744   0.4650   1.1390
     1.3630   1.3821   1.5297   1.8312   1.9416   1.9735   2.2646   2.4656
     2.5710   2.9238   3.0816   3.2873

          k = 0.0479-0.0276 0.0000 ( 27394 PWs)   bands (ev):

   -22.3806 -22.3569 -22.3531 -22.3504 -22.3212 -22.3178 -22.3163 -22.3102
   -22.3094 -22.2853 -22.2849 -22.2749 -22.2718 -22.2712 -22.2670 -22.2665
   -22.2613 -22.2392 -22.2255 -22.2212 -22.1640 -22.1416 -22.1393 -22.1361
   -22.1338 -22.1164 -22.1062 -22.0979 -22.0978 -22.0949 -22.0865 -22.0822
   -22.0789 -22.0654 -22.0571 -22.0555 -22.0536 -22.0447 -22.0437 -22.0437
   -22.0432 -22.0416 -22.0348 -22.0330 -22.0307 -22.0276 -22.0260 -22.0133
   -22.0080 -22.0050 -22.0001 -21.9969 -21.9912 -21.9878 -21.9858 -21.9786
   -21.9766 -21.9669 -21.9566 -21.9466 -11.5962 -10.7383 -10.3889  -9.8713
    -9.5890  -9.4301  -9.4118  -8.9445  -8.8120  -8.7521  -8.4525  -8.4337
    -3.4587  -2.7230  -2.6576  -2.4928  -2.0244  -1.9548  -1.9134  -1.7307
    -1.6036  -0.9444  -0.5474  -0.2873  -0.1911   0.0093   0.5175   0.7504
     0.8939   1.2321   1.2505   1.5144   1.6630   1.7808   2.1878   2.2719
     2.4466   2.8318   2.9148   3.2467

          k = 0.0479 0.0000 0.0000 ( 27415 PWs)   bands (ev):

   -22.3767 -22.3746 -22.3535 -22.3478 -22.3376 -22.3218 -22.3160 -22.3146
   -22.3124 -22.2868 -22.2769 -22.2753 -22.2706 -22.2683 -22.2645 -22.2607
   -22.2529 -22.2272 -22.2241 -22.2227 -22.1590 -22.1584 -22.1394 -22.1366
   -22.1338 -22.1255 -22.1186 -22.1108 -22.0967 -22.0926 -22.0876 -22.0830
   -22.0826 -22.0764 -22.0574 -22.0565 -22.0494 -22.0468 -22.0457 -22.0419
   -22.0389 -22.0351 -22.0339 -22.0317 -22.0288 -22.0172 -22.0161 -22.0110
   -22.0083 -22.0057 -22.0033 -21.9931 -21.9884 -21.9871 -21.9796 -21.9774
   -21.9659 -21.9618 -21.9593 -21.9477 -11.7030 -10.8349 -10.0066  -9.9360
    -9.9159  -9.2741  -9.1584  -9.0375  -8.6940  -8.6524  -8.5759  -8.3793
    -3.6554  -3.0145  -2.6458  -2.4910  -2.4661  -2.2773  -2.0030  -1.8495
    -1.4857  -1.2890  -0.5765  -0.3836  -0.2831   0.0745   0.4649   1.1388
     1.3633   1.3822   1.5296   1.8313   1.9417   1.9732   2.2646   2.4658
     2.5708   2.9239   3.0815   3.2874

          k = 0.0479 0.0276 0.0000 ( 27394 PWs)   bands (ev):

   -22.3806 -22.3569 -22.3530 -22.3504 -22.3212 -22.3177 -22.3163 -22.3102
   -22.3094 -22.2853 -22.2848 -22.2748 -22.2718 -22.2712 -22.2670 -22.2665
   -22.2613 -22.2392 -22.2254 -22.2212 -22.1640 -22.1416 -22.1393 -22.1361
   -22.1338 -22.1164 -22.1063 -22.0979 -22.0978 -22.0949 -22.0865 -22.0821
   -22.0789 -22.0654 -22.0571 -22.0555 -22.0536 -22.0447 -22.0437 -22.0437
   -22.0432 -22.0416 -22.0348 -22.0330 -22.0307 -22.0276 -22.0259 -22.0133
   -22.0080 -22.0051 -22.0001 -21.9969 -21.9912 -21.9879 -21.9858 -21.9786
   -21.9766 -21.9669 -21.9565 -21.9467 -11.5962 -10.7384 -10.3888  -9.8714
    -9.5886  -9.4302  -9.4117  -8.9444  -8.8122  -8.7523  -8.4526  -8.4337
    -3.4582  -2.7231  -2.6576  -2.4928  -2.0245  -1.9548  -1.9133  -1.7308
    -1.6036  -0.9448  -0.5474  -0.2875  -0.1908   0.0094   0.5176   0.7504
     0.8937   1.2321   1.2505   1.5144   1.6632   1.7807   2.1878   2.2719
     2.4465   2.8318   2.9147   3.2470

          k = 0.0479-0.1106 0.0000 ( 27352 PWs)   bands (ev):

   -22.3663 -22.3548 -22.3473 -22.3203 -22.3177 -22.3128 -22.3089 -22.3024
   -22.2966 -22.2959 -22.2918 -22.2857 -22.2801 -22.2783 -22.2716 -22.2685
   -22.2647 -22.2486 -22.2412 -22.2293 -22.1506 -22.1394 -22.1317 -22.1291
   -22.1125 -22.1016 -22.0984 -22.0965 -22.0832 -22.0807 -22.0773 -22.0747
   -22.0724 -22.0706 -22.0653 -22.0615 -22.0597 -22.0566 -22.0465 -22.0462
   -22.0446 -22.0420 -22.0366 -22.0349 -22.0309 -22.0300 -22.0252 -22.0196
   -22.0174 -22.0102 -22.0079 -22.0060 -21.9999 -21.9923 -21.9875 -21.9862
   -21.9795 -21.9708 -21.9631 -21.9529 -11.2810 -10.6809 -10.4456 -10.1147
    -9.8567  -9.5787  -9.3342  -9.1059  -8.9227  -8.7418  -8.4662  -8.3308
    -3.1246  -2.4841  -2.1845  -1.9462  -1.7468  -1.6739  -1.4719  -1.2281
    -1.1215  -0.9191  -0.6602  -0.4404  -0.3029  -0.0682   0.1634   0.2414
     0.9051   1.0401   1.2454   1.3314   1.5079   1.5728   1.7612   1.9940
     2.1484   2.4629   2.5555   2.9055

          k = 0.0479-0.0829 0.0000 ( 27291 PWs)   bands (ev):

   -22.3478 -22.3457 -22.3456 -22.3184 -22.3183 -22.3167 -22.3087 -22.3065
   -22.2976 -22.2972 -22.2970 -22.2765 -22.2751 -22.2751 -22.2702 -22.2700
   -22.2661 -22.2514 -22.2493 -22.2485 -22.1353 -22.1308 -22.1305 -22.1199
   -22.1089 -22.0968 -22.0966 -22.0958 -22.0919 -22.0769 -22.0742 -22.0724
   -22.0677 -22.0677 -22.0649 -22.0637 -22.0635 -22.0618 -22.0470 -22.0434
   -22.0419 -22.0385 -22.0377 -22.0331 -22.0318 -22.0315 -22.0276 -22.0245
   -22.0205 -22.0178 -22.0154 -22.0151 -21.9998 -21.9896 -21.9884 -21.9845
   -21.9813 -21.9744 -21.9684 -21.9610 -10.8012 -10.7943 -10.7249 -10.1328
    -9.8771  -9.8235  -9.2300  -9.1931  -9.1129  -8.6588  -8.4095  -8.2917
    -2.9205  -2.1444  -1.8119  -1.7814  -1.7645  -1.6704  -1.5871  -1.0359
    -0.6799  -0.6159  -0.6123  -0.6043  -0.2924   0.0713   0.1716   0.3929
     0.3983   0.5366   0.9068   0.9558   1.2075   2.1095   2.2312   2.3130
     2.3315   2.3400   2.4028   2.6493

          k = 0.0479-0.0553 0.0000 ( 27352 PWs)   bands (ev):

   -22.3664 -22.3548 -22.3473 -22.3203 -22.3178 -22.3128 -22.3089 -22.3024
   -22.2966 -22.2959 -22.2918 -22.2858 -22.2801 -22.2784 -22.2716 -22.2685
   -22.2647 -22.2486 -22.2412 -22.2293 -22.1506 -22.1394 -22.1317 -22.1291
   -22.1126 -22.1016 -22.0984 -22.0965 -22.0832 -22.0806 -22.0773 -22.0747
   -22.0724 -22.0706 -22.0653 -22.0615 -22.0597 -22.0566 -22.0465 -22.0462
   -22.0446 -22.0420 -22.0367 -22.0349 -22.0309 -22.0300 -22.0252 -22.0196
   -22.0174 -22.0102 -22.0078 -22.0060 -21.9999 -21.9924 -21.9875 -21.9862
   -21.9795 -21.9708 -21.9631 -21.9528 -11.2809 -10.6808 -10.4456 -10.1147
    -9.8571  -9.5788  -9.3340  -9.1059  -8.9228  -8.7417  -8.4662  -8.3307
    -3.1252  -2.4840  -2.1845  -1.9462  -1.7468  -1.6739  -1.4718  -1.2278
    -1.1215  -0.9190  -0.6597  -0.4401  -0.3030  -0.0683   0.1635   0.2415
     0.9048   1.0401   1.2453   1.3314   1.5078   1.5728   1.7614   1.9941
     2.1484   2.4629   2.5556   2.9057

          k =-0.0718 0.0415 0.0000 ( 27378 PWs)   bands (ev):

   -22.3711 -22.3663 -22.3266 -22.3214 -22.3152 -22.3116 -22.2968 -22.2961
   -22.2947 -22.2937 -22.2921 -22.2889 -22.2880 -22.2854 -22.2776 -22.2729
   -22.2672 -22.2639 -22.2293 -22.2247 -22.1559 -22.1494 -22.1340 -22.1127
   -22.1116 -22.1065 -22.0903 -22.0868 -22.0833 -22.0780 -22.0734 -22.0714
   -22.0703 -22.0671 -22.0669 -22.0638 -22.0613 -22.0588 -22.0543 -22.0494
   -22.0469 -22.0463 -22.0425 -22.0351 -22.0331 -22.0308 -22.0280 -22.0170
   -22.0101 -22.0095 -22.0080 -22.0042 -21.9999 -21.9941 -21.9909 -21.9901
   -21.9802 -21.9756 -21.9570 -21.9479 -11.0991 -11.0503 -10.3432 -10.1273
    -9.5050  -9.4571  -9.4391  -9.3818  -8.8434  -8.7719  -8.4443  -8.4268
    -3.0426  -2.1264  -2.0975  -2.0061  -1.9738  -1.9369  -1.7860  -1.3421
    -0.8474  -0.5788  -0.5380  -0.4950  -0.1054   0.3197   0.4697   0.6885
     0.7050   0.7983   0.8179   0.8418   1.0577   1.1005   1.5512   1.6610
     1.9706   2.0453   3.0351   3.2038

          k =-0.0718 0.0691 0.0000 ( 27352 PWs)   bands (ev):

   -22.3664 -22.3548 -22.3473 -22.3204 -22.3177 -22.3128 -22.3089 -22.3024
   -22.2966 -22.2960 -22.2918 -22.2857 -22.2801 -22.2784 -22.2716 -22.2685
   -22.2647 -22.2486 -22.2412 -22.2293 -22.1506 -22.1394 -22.1317 -22.1291
   -22.1126 -22.1016 -22.0984 -22.0965 -22.0832 -22.0807 -22.0773 -22.0747
   -22.0724 -22.0706 -22.0653 -22.0615 -22.0597 -22.0567 -22.0465 -22.0462
   -22.0446 -22.0420 -22.0367 -22.0349 -22.0309 -22.0300 -22.0252 -22.0196
   -22.0174 -22.0102 -22.0078 -22.0060 -21.9999 -21.9923 -21.9875 -21.9862
   -21.9795 -21.9708 -21.9631 -21.9528 -11.2809 -10.6808 -10.4458 -10.1146
    -9.8570  -9.5788  -9.3339  -9.1060  -8.9228  -8.7417  -8.4662  -8.3308
    -3.1251  -2.4841  -2.1845  -1.9462  -1.7468  -1.6739  -1.4719  -1.2278
    -1.1217  -0.9190  -0.6597  -0.4401  -0.3033  -0.0684   0.1635   0.2415
     0.9055   1.0402   1.2448   1.3312   1.5077   1.5732   1.7614   1.9940
     2.1484   2.4631   2.5555   2.9057

          k =-0.0718 0.0967 0.0000 ( 27352 PWs)   bands (ev):

   -22.3663 -22.3548 -22.3473 -22.3203 -22.3177 -22.3128 -22.3089 -22.3024
   -22.2966 -22.2959 -22.2918 -22.2857 -22.2801 -22.2783 -22.2716 -22.2685
   -22.2647 -22.2486 -22.2412 -22.2293 -22.1506 -22.1394 -22.1317 -22.1291
   -22.1125 -22.1016 -22.0984 -22.0965 -22.0832 -22.0807 -22.0773 -22.0747
   -22.0724 -22.0706 -22.0653 -22.0615 -22.0597 -22.0566 -22.0465 -22.0462
   -22.0446 -22.0420 -22.0367 -22.0349 -22.0309 -22.0300 -22.0252 -22.0196
   -22.0174 -22.0102 -22.0079 -22.0060 -21.9999 -21.9923 -21.9875 -21.9862
   -21.9795 -21.9708 -21.9631 -21.9529 -11.2810 -10.6809 -10.4457 -10.1147
    -9.8567  -9.5787  -9.3342  -9.1059  -8.9228  -8.7418  -8.4662  -8.3308
    -3.1246  -2.4841  -2.1845  -1.9462  -1.7468  -1.6738  -1.4719  -1.2281
    -1.1215  -0.9191  -0.6602  -0.4404  -0.3029  -0.0682   0.1634   0.2415
     0.9051   1.0401   1.2454   1.3314   1.5079   1.5728   1.7612   1.9941
     2.1484   2.4629   2.5555   2.9056

          k =-0.0718-0.0415 0.0000 ( 27378 PWs)   bands (ev):

   -22.3710 -22.3664 -22.3265 -22.3214 -22.3151 -22.3116 -22.2969 -22.2961
   -22.2946 -22.2937 -22.2921 -22.2888 -22.2879 -22.2854 -22.2776 -22.2729
   -22.2672 -22.2640 -22.2293 -22.2248 -22.1559 -22.1494 -22.1340 -22.1127
   -22.1115 -22.1065 -22.0904 -22.0869 -22.0833 -22.0780 -22.0734 -22.0714
   -22.0703 -22.0671 -22.0669 -22.0638 -22.0613 -22.0588 -22.0543 -22.0494
   -22.0470 -22.0463 -22.0425 -22.0351 -22.0330 -22.0308 -22.0280 -22.0169
   -22.0101 -22.0094 -22.0080 -22.0042 -21.9999 -21.9940 -21.9908 -21.9901
   -21.9802 -21.9756 -21.9570 -21.9480 -11.0993 -11.0502 -10.3438 -10.1264
    -9.5051  -9.4571  -9.4392  -9.3816  -8.8436  -8.7720  -8.4445  -8.4268
    -3.0417  -2.1263  -2.0976  -2.0064  -1.9736  -1.9369  -1.7859  -1.3424
    -0.8481  -0.5787  -0.5380  -0.4949  -0.1061   0.3200   0.4695   0.6887
     0.7052   0.7989   0.8179   0.8414   1.0576   1.1006   1.5512   1.6608
     1.9706   2.0453   3.0350   3.2041

     the Fermi energy is     1.3381 ev

!    total energy              =   -2246.93846965 Ry
     Harris-Foulkes estimate   =   -2246.93846979 Ry
     estimated scf accuracy    <       0.00000004 Ry

     The total energy is the sum of the following terms:

     one-electron contribution =  -10323.37662709 Ry
     hartree contribution      =    5216.01567060 Ry
     xc contribution           =    -799.51757671 Ry
     ewald contribution        =    3660.00121227 Ry
     electric field correction =       0.00001500 Ry
     smearing contrib. (-TS)   =      -0.06116372 Ry

     convergence has been achieved in   8 iterations
 
 BEEF-vdW xc energy contributions
           1 :   -712.935959125143     
           2 :    662.662147775330     
           3 :   -573.916641458290     
           4 :    465.968459531582     
           5 :   -359.135219210749     
           6 :    268.820323619042     
           7 :   -201.979559147927     
           8 :    156.960875031269     
           9 :   -126.378015763196     
          10 :    101.516196559276     
          11 :   -76.3009514083725     
          12 :    49.2619313564988     
          13 :   -22.9993588916971     
          14 :    1.82521516825454     
          15 :    11.0212322573266     
          16 :   -15.1975545615689     
          17 :    13.3747223697283     
          18 :   -9.81084304933597     
          19 :    8.26213100446728     
          20 :   -10.3396969009143     
          21 :    15.0870303227157     
          22 :   -19.8757878640583     
          23 :    22.0418582395782     
          24 :   -20.3652638631913     
          25 :    15.6544480593087     
          26 :   -10.2157982455526     
          27 :    6.57113366126214     
          28 :   -6.14347841338042     
          29 :    8.59383630629759     
          30 :   -12.1124482183866     
          31 :   -56.8313951430139     
          32 :   -41.8119466702806     

     Forces acting on atoms (Ry/au):


     negative rho (up, down):  5.266E-01 0.000E+00
     atom    1 type  1   force =     0.00000238    0.00000094   -0.00613009
     atom    2 type  1   force =    -0.00000428   -0.00085710   -0.00465083
     atom    3 type  1   force =    -0.00074537    0.00042513   -0.00465146
     atom    4 type  1   force =     0.00073802    0.00042600   -0.00463614
     atom    5 type  1   force =     0.00418139   -0.00241938    0.00471979
     atom    6 type  1   force =    -0.00419081   -0.00241833    0.00472854
     atom    7 type  1   force =    -0.00000400   -0.00000293    0.00557010
     atom    8 type  1   force =    -0.00000546    0.00483110    0.00471960
     atom    9 type  1   force =     0.00055427    0.00032053   -0.00012624
     atom   10 type  1   force =    -0.00052099    0.00027840   -0.00013366
     atom   11 type  1   force =    -0.00001999   -0.00059358   -0.00013336
     atom   12 type  1   force =     0.00000692    0.00000305   -0.00091413
     atom   13 type  2   force =     0.00000791    0.00000615    0.00163788

     Total force =     0.002164     Total SCF correction =     0.000669
     SCF correction compared to forces is large: reduce conv_thr to get better values


     entering subroutine stress ...


     negative rho (up, down):  5.266E-01 0.000E+00
          total   stress  (Ry/bohr**3)                   (kbar)     P=    2.13
   0.00002130   0.00000001   0.00000000          3.13      0.00      0.00
   0.00000001   0.00002129   0.00000000          0.00      3.13      0.00
   0.00000000   0.00000000   0.00000090          0.00      0.00      0.13


     bfgs converged in  21 scf cycles and  20 bfgs steps
     (criteria: energy <  1.0E+00, force <  1.9E-03)

     End of BFGS Geometry Optimization

     Final energy   =   -2246.9384696496 Ry
Begin final coordinates

ATOMIC_POSITIONS (crystal)
Bi1      0.166666667   0.166666667   0.389334134    0   0   0
Bi1      0.666666667   0.166666667   0.389334134    0   0   0
Bi1      0.166666667   0.666666667   0.389334134    0   0   0
Bi1      0.666666667   0.666666667   0.389334134    0   0   0
Bi1      0.833333333   0.333333333   0.500000000    0   0   0
Bi1      0.333333333   0.333333333   0.500000000    0   0   0
Bi1      0.833333333   0.833333333   0.500000000    0   0   0
Bi1      0.333333333   0.833333333   0.500000000    0   0   0
Bi1     -0.009773536  -0.009782082   0.624408687
Bi1      0.519568271  -0.009706054   0.624410641
Bi1     -0.009696374   0.519555926   0.624413610
Bi1      0.499994446   0.499988396   0.614638794
H1       0.166662450   0.166676519   0.655073591
End final coordinates



     Writing output data file calc.save
 
     init_run     :      7.92s CPU     10.54s WALL (       1 calls)
     electrons    :   3759.99s CPU   5023.61s WALL (      21 calls)
     update_pot   :     33.34s CPU     38.86s WALL (      20 calls)
     forces       :    133.63s CPU    142.97s WALL (      21 calls)
     stress       :    440.93s CPU    468.72s WALL (      21 calls)

     Called by init_run:
     wfcinit      :      5.08s CPU      7.13s WALL (       1 calls)
     potinit      :      1.04s CPU      1.32s WALL (       1 calls)

     Called by electrons:
     c_bands      :   2574.38s CPU   3464.99s WALL (     164 calls)
     sum_band     :    508.15s CPU    676.69s WALL (     164 calls)
     v_of_rho     :    114.65s CPU    153.35s WALL (     185 calls)
     newd         :    178.16s CPU    206.13s WALL (     185 calls)
     mix_rho      :      3.30s CPU      4.47s WALL (     164 calls)
     vdW_energy   :    118.60s CPU    150.56s WALL (     941 calls)
     vdW_ffts     :    189.33s CPU    259.05s WALL (    1924 calls)
     vdW_v        :     84.78s CPU     99.03s WALL (     941 calls)

     Called by c_bands:
     init_us_2    :     17.83s CPU     21.01s WALL (    7420 calls)
     cegterg      :   2464.60s CPU   3350.08s WALL (    3280 calls)

     Called by *egterg:
     h_psi        :   1537.90s CPU   2287.09s WALL (   17433 calls)
     s_psi        :    102.79s CPU    107.64s WALL (   17433 calls)
     g_psi        :     12.56s CPU     12.74s WALL (   14133 calls)
     cdiaghg      :    419.02s CPU    430.28s WALL (   17013 calls)

     Called by h_psi:
     add_vuspsi   :    101.71s CPU    106.72s WALL (   17433 calls)

     General routines
     calbec       :    148.92s CPU    153.12s WALL (   21553 calls)
     fft          :    309.79s CPU    413.53s WALL (   56393 calls)
     ffts         :      0.34s CPU      0.53s WALL (     349 calls)
     fftw         :   1200.41s CPU   2087.34s WALL ( 2050368 calls)
     interpolate  :      2.16s CPU      3.72s WALL (     349 calls)
     davcio       :      0.00s CPU      0.11s WALL (      20 calls)
 
     Parallel routines
     fft_scatter  :    812.10s CPU   1365.60s WALL ( 2107110 calls)
 
     PWSCF        :     1h13m CPU        1h35m WALL

 
   This run was terminated on:  16: 9:12  22Feb2018            

=------------------------------------------------------------------------------=
   JOB DONE.
=------------------------------------------------------------------------------=
