  python dir          : /nfs/slac/g/suncatfs/sw/espv20/lib/python2.7/site-packages/espresso
  espresso dir        : /nfs/slac/g/suncatfs/sw/espv18/espresso-dynpy-beef/bin
  pseudo dir          : /afs/slac.stanford.edu/u/if/mamunm/psp/gbrv1.5pbe
  ase-espresso py git : ffa2778-git



     Program PWSCF v.5.1rc2 (svn rev. 11289) starts on 18Jan2018 at  6:38:18 

     This program is part of the open-source Quantum ESPRESSO suite
     for quantum simulation of materials; please cite
         "P. Giannozzi et al., J. Phys.:Condens. Matter 21 395502 (2009);
          URL http://www.quantum-espresso.org", 
     in publications or presentations arising from this work. More details at
     http://www.quantum-espresso.org/quote

     Parallel version (MPI), running on    32 processors
     R & G space division:  proc/nbgrp/npool/nimage =      32
     Reading input from pw.inp
     Message from routine read_cards :
     DEPRECATED: no units specified in CELL_PARAMETERS card

     Current dimensions of program PWSCF are:
     Max number of different atomic species (ntypx) = 10
     Max number of k-points (npk) =  40000
     Max angular momentum in pseudopotentials (lmaxx) =  3
     Presently stress not available with electric field


     **************************************************************************
     Initializing libbeef V0.1.1 with the BEEF-vdW functional.
     Citation: Wellendorff et al., PRB 85, 235149 (2012).
     **************************************************************************


     IMPORTANT: XC functional enforced from input :
     Exchange-correlation      = BEEF-VDW ( 1  4 27 13 2)
     Any further DFT definition will be discarded
     Please, verify this is what you really want


     Subspace diagonalization in iterative solution of the eigenvalue problem:
     a serial algorithm will be used

 
     Parallelization info
     --------------------
     sticks:   dense  smooth     PW     G-vecs:    dense   smooth      PW
     Min          83      33      9                15610     3925     617
     Max          85      34     10                15618     3977     642
     Sum        2677    1069    313               499637   126395   20221
 


     bravais-lattice index     =            0
     lattice parameter (alat)  =       1.8897  a.u.
     unit-cell volume          =    4198.3539 (a.u.)^3
     number of atoms/cell      =           13
     number of atomic types    =            2
     number of electrons       =       196.00
     number of Kohn-Sham states=          108
     kinetic-energy cutoff     =      36.7493  Ry
     charge density cutoff     =     367.4932  Ry
     convergence threshold     =      1.0E-05
     mixing beta               =       0.3000
     number of iterations used =           10  plain     mixing
     Exchange-correlation      = BEEF-VDW ( 1  4 27 13 2)
     nstep                     =           50


     celldm(1)=   1.889726  celldm(2)=   0.000000  celldm(3)=   0.000000
     celldm(4)=   0.000000  celldm(5)=   0.000000  celldm(6)=   0.000000

     crystal axes: (cart. coord. in units of alat)
               a(1) = (   5.422927   0.000000   0.000000 )  
               a(2) = (   2.711463   4.696392   0.000000 )  
               a(3) = (   0.000000   0.000000  24.427801 )  

     reciprocal axes: (cart. coord. in units 2 pi/alat)
               b(1) = (  0.184402 -0.106465  0.000000 )  
               b(2) = (  0.000000  0.212929  0.000000 )  
               b(3) = (  0.000000  0.000000  0.040937 )  


     PseudoPot. # 1 for Ru read from file:
     /afs/slac.stanford.edu/u/if/mamunm/psp/gbrv1.5pbe/Ru.UPF
     MD5 check sum: 7158a806dd851261a58e6920c40ebe78
     Pseudo is Ultrasoft + core correction, Zval = 16.0
     Generated by new atomic code, or converted to UPF format
     Using radial grid of  967 points,  6 beta functions with: 
                l(1) =   0
                l(2) =   0
                l(3) =   1
                l(4) =   1
                l(5) =   2
                l(6) =   2
     Q(r) pseudized with  8 coefficients,  rinner =    1.300   1.300   1.300
                                                       1.300   1.300

     PseudoPot. # 2 for C  read from file:
     /afs/slac.stanford.edu/u/if/mamunm/psp/gbrv1.5pbe/C.UPF
     MD5 check sum: d1aef80898a10debaa0f26306b886e00
     Pseudo is Ultrasoft + core correction, Zval =  4.0
     Generated by new atomic code, or converted to UPF format
     Using radial grid of  721 points,  4 beta functions with: 
                l(1) =   0
                l(2) =   0
                l(3) =   1
                l(4) =   1
     Q(r) pseudized with  8 coefficients,  rinner =    1.100   1.100   1.100


     vdW kernel table read from file vdW_kernel_table
     MD5 check sum: 095c7af220d748ca6e76c0b4c6cfb241

     atomic species   valence    mass     pseudopotential
        Ru1           16.00   101.07000     Ru( 1.00)
        C1             4.00    12.01100     C ( 1.00)

     No symmetry found



   Cartesian axes

     site n.     atom                  positions (alat units)
         1           Ru1 tau(   1) = (   1.3557316   0.7827320  10.0000000  )
         2           Ru1 tau(   2) = (   4.0671949   0.7827320  10.0000000  )
         3           Ru1 tau(   3) = (   2.7114633   3.1309281  10.0000000  )
         4           Ru1 tau(   4) = (   5.4229265   3.1309281  10.0000000  )
         5           Ru1 tau(   5) = (   5.4229265   1.5654640  12.2139005  )
         6           Ru1 tau(   6) = (   2.7114633   1.5654640  12.2139005  )
         7           Ru1 tau(   7) = (   6.7786581   3.9136601  12.2139005  )
         8           Ru1 tau(   8) = (   4.0671949   3.9136601  12.2139005  )
         9           Ru1 tau(   9) = (   0.0000000   0.0000000  14.4278010  )
        10           Ru1 tau(  10) = (   2.7114633   0.0000000  14.4278010  )
        11           Ru1 tau(  11) = (   1.3557316   2.3481961  14.4278010  )
        12           Ru1 tau(  12) = (   4.0671949   2.3481961  14.4278010  )
        13           C1  tau(  13) = (   0.0000000   0.0000000  16.6478010  )

     number of k points=    20  Fermi-Dirac smearing, width (Ry)=  0.0110
                       cart. coord. in units 2pi/alat
        k(    1) = (   0.0000000   0.0000000   0.0000000), wk =   0.0555556
        k(    2) = (   0.0000000   0.0354882   0.0000000), wk =   0.1111111
        k(    3) = (   0.0000000   0.0709765   0.0000000), wk =   0.1111111
        k(    4) = (   0.0000000  -0.1064647   0.0000000), wk =   0.0555556
        k(    5) = (   0.0307337  -0.0177441   0.0000000), wk =   0.1111111
        k(    6) = (   0.0307337   0.0177441   0.0000000), wk =   0.1111111
        k(    7) = (   0.0307337   0.0532324   0.0000000), wk =   0.1111111
        k(    8) = (   0.0307337  -0.1242088   0.0000000), wk =   0.1111111
        k(    9) = (   0.0307337  -0.0887206   0.0000000), wk =   0.1111111
        k(   10) = (   0.0307337  -0.0532324   0.0000000), wk =   0.1111111
        k(   11) = (   0.0614674  -0.0354882   0.0000000), wk =   0.1111111
        k(   12) = (   0.0614674   0.0000000   0.0000000), wk =   0.1111111
        k(   13) = (   0.0614674   0.0354882   0.0000000), wk =   0.1111111
        k(   14) = (   0.0614674  -0.1419529   0.0000000), wk =   0.1111111
        k(   15) = (   0.0614674  -0.1064647   0.0000000), wk =   0.1111111
        k(   16) = (   0.0614674  -0.0709765   0.0000000), wk =   0.1111111
        k(   17) = (  -0.0922011   0.0532324   0.0000000), wk =   0.0555556
        k(   18) = (  -0.0922011   0.0887206   0.0000000), wk =   0.1111111
        k(   19) = (  -0.0922011   0.1242088   0.0000000), wk =   0.1111111
        k(   20) = (  -0.0922011  -0.0532324   0.0000000), wk =   0.0555556

     Dense  grid:   499637 G-vectors     FFT dimensions: (  64,  64, 288)

     Smooth grid:   126395 G-vectors     FFT dimensions: (  40,  40, 180)

     Largest allocated arrays     est. size (Mb)     dimensions
        Kohn-Sham Wavefunctions         0.85 Mb     (     516,  108)
        NL pseudopotentials             1.76 Mb     (     516,  224)
        Each V/rho on FFT grid          0.56 Mb     (   36864)
        Each G-vector array             0.12 Mb     (   15614)
        G-vector shells                 0.05 Mb     (    6919)
     Largest temporary arrays     est. size (Mb)     dimensions
        Auxiliary wavefunctions         3.40 Mb     (     516,  432)
        Each subspace H/S matrix        2.85 Mb     (     432,  432)
        Each <psi_i|beta_j> matrix      0.37 Mb     (     224,  108)
        Arrays for rho mixing           5.62 Mb     (   36864,   10)

     Initial potential from superposition of free atoms
     Check: negative starting charge=   -0.873587

     starting charge  183.99977, renormalised to  196.00000

     negative rho (up, down):  9.306E-01 0.000E+00


     ************************************************************************
     *
     * You are using vdW-DF for exchange-correlation in this calculation.
     * Please cite the following three references that made this development
     * possible:
     *
     *   M. Dion, H. Rydberg, E. Schroder, D. C. Langreth, and
     *   B. I. Lundqvist, Phys. Rev. Lett. 92, 246401 (2004).
     *
     *   T. Thonhauser, V. R. Cooper, S. Li, A. Puzder, P. Hyldgaard, and
     *   D. C. Langreth, Phys. Rev. B 76, 125112 (2007).
     *
     *   G. Roman-Perez and J. M. Soler, Phys. Rev. Lett. 103, 096102 (2009).
     *
     *
     * If you are using vdW-DF2, please also cite:
     *
     *   K. Lee, E. D. Murray, L. Kong, B. I. Lundqvist, and
     *   D. C. Langreth, Phys. Rev. B 82, 081101(R) (2010).
     *
     *
     * If you are calculating the stress with vdW-DF, please also cite:
     *
     *   R. Sabatini, E. Kucukbenli, B. Kolb, T. Thonhauser, and
     *   S. de Gironcoli, J. Phys.: Condens. Matter 24, 424209 (2012).
     *
     ************************************************************************

     Carrying out vdW-DF run using the following parameters:

     Nqs =      20    Nr_points =    1024   r_max =   100.000
     q_mesh =
               0.00001000     0.04494208     0.09755937     0.15916263
               0.23128650     0.31572767     0.41458969     0.53033537
               0.66584808     0.82450364     1.01025438     1.22772762
               1.48234092     1.78043706     2.12944203     2.53805004
               3.01644009     3.57652955     4.23227104     5.00000000

     Gradients computed in reciprocal space

     ************************************************************************


 
     Adding external electric field

     Computed dipole along edir(3) : 
        Dipole               -2.1855 Ry au,         -5.5549 Debye
        Dipole field         -0.0065 Ry au
 
        Potential amp.        0.5888 Ry
        Total length         45.0078 bohr
 
     Starting wfc are  160 randomized atomic wfcs

     total cpu time spent up to now is       18.3 secs

     per-process dynamical memory:    46.9 Mb

     Self-consistent Calculation

     iteration #  1     ecut=    36.75 Ry     beta=0.30
     Davidson diagonalization with overlap
     ethr =  1.00E-02,  avg # of iterations =  4.6

     negative rho (up, down):  9.237E-01 0.000E+00
 
     Adding external electric field

     Computed dipole along edir(3) : 
        Dipole               35.9894 Ry au,         91.4760 Debye
        Dipole field          0.1077 Ry au
 
        Potential amp.       -9.6967 Ry
        Total length         45.0078 bohr
 

     total cpu time spent up to now is       59.3 secs

     total energy              =   -2265.96317644 Ry
     Harris-Foulkes estimate   =   -2355.60667396 Ry
     estimated scf accuracy    <     187.62249092 Ry

     iteration #  2     ecut=    36.75 Ry     beta=0.30
     Davidson diagonalization with overlap
     ethr =  1.00E-02,  avg # of iterations = 14.8

     negative rho (up, down):  9.156E-01 0.000E+00
 
     Adding external electric field

     Computed dipole along edir(3) : 
        Dipole                0.0506 Ry au,          0.1285 Debye
        Dipole field          0.0002 Ry au
 
        Potential amp.       -0.0136 Ry
        Total length         45.0078 bohr
 

     total cpu time spent up to now is      175.8 secs

     total energy              =   -2137.31533906 Ry
     Harris-Foulkes estimate   =   -2795.82495193 Ry
     estimated scf accuracy    <   13658.17843905 Ry

     iteration #  3     ecut=    36.75 Ry     beta=0.30
     Davidson diagonalization with overlap
     ethr =  1.00E-02,  avg # of iterations =  8.8

     negative rho (up, down):  9.189E-01 0.000E+00
 
     Adding external electric field

     Computed dipole along edir(3) : 
        Dipole                2.2858 Ry au,          5.8100 Debye
        Dipole field          0.0068 Ry au
 
        Potential amp.       -0.6159 Ry
        Total length         45.0078 bohr
 

     total cpu time spent up to now is      264.7 secs

     total energy              =   -2345.06423011 Ry
     Harris-Foulkes estimate   =   -2429.28127546 Ry
     estimated scf accuracy    <     983.79195926 Ry

     iteration #  4     ecut=    36.75 Ry     beta=0.30
     Davidson diagonalization with overlap
     ethr =  1.00E-02,  avg # of iterations =  6.1

     negative rho (up, down):  9.619E-01 0.000E+00
 
     Adding external electric field

     Computed dipole along edir(3) : 
        Dipole                3.0867 Ry au,          7.8455 Debye
        Dipole field          0.0092 Ry au
 
        Potential amp.       -0.8316 Ry
        Total length         45.0078 bohr
 

     total cpu time spent up to now is      318.1 secs

     total energy              =   -2347.37868195 Ry
     Harris-Foulkes estimate   =   -2358.70842388 Ry
     estimated scf accuracy    <     226.05157220 Ry

     iteration #  5     ecut=    36.75 Ry     beta=0.30
     Davidson diagonalization with overlap
     ethr =  1.00E-02,  avg # of iterations =  5.8

     negative rho (up, down):  9.161E-01 0.000E+00
 
     Adding external electric field

     Computed dipole along edir(3) : 
        Dipole                0.9674 Ry au,          2.4590 Debye
        Dipole field          0.0029 Ry au
 
        Potential amp.       -0.2607 Ry
        Total length         45.0078 bohr
 

     total cpu time spent up to now is      360.2 secs

     total energy              =   -2350.88781493 Ry
     Harris-Foulkes estimate   =   -2354.54976677 Ry
     estimated scf accuracy    <      90.66626891 Ry

     iteration #  6     ecut=    36.75 Ry     beta=0.30
     Davidson diagonalization with overlap
     ethr =  1.00E-02,  avg # of iterations =  3.1

     negative rho (up, down):  9.146E-01 0.000E+00
 
     Adding external electric field

     Computed dipole along edir(3) : 
        Dipole                0.7701 Ry au,          1.9575 Debye
        Dipole field          0.0023 Ry au
 
        Potential amp.       -0.2075 Ry
        Total length         45.0078 bohr
 

     total cpu time spent up to now is      392.4 secs

     total energy              =   -2352.30945198 Ry
     Harris-Foulkes estimate   =   -2353.11928807 Ry
     estimated scf accuracy    <       6.77528762 Ry

     iteration #  7     ecut=    36.75 Ry     beta=0.30
     Davidson diagonalization with overlap
     ethr =  3.46E-03,  avg # of iterations =  6.6

     negative rho (up, down):  9.123E-01 0.000E+00
 
     Adding external electric field

     Computed dipole along edir(3) : 
        Dipole               -0.1173 Ry au,         -0.2981 Debye
        Dipole field         -0.0004 Ry au
 
        Potential amp.        0.0316 Ry
        Total length         45.0078 bohr
 

     total cpu time spent up to now is      433.2 secs

     total energy              =   -2351.30039178 Ry
     Harris-Foulkes estimate   =   -2353.81722695 Ry
     estimated scf accuracy    <     103.38964879 Ry

     iteration #  8     ecut=    36.75 Ry     beta=0.30
     Davidson diagonalization with overlap
     ethr =  3.46E-03,  avg # of iterations =  4.0

     negative rho (up, down):  9.119E-01 0.000E+00
 
     Adding external electric field

     Computed dipole along edir(3) : 
        Dipole               -0.2014 Ry au,         -0.5119 Debye
        Dipole field         -0.0006 Ry au
 
        Potential amp.        0.0543 Ry
        Total length         45.0078 bohr
 

     total cpu time spent up to now is      468.2 secs

     total energy              =   -2352.42805918 Ry
     Harris-Foulkes estimate   =   -2352.56190402 Ry
     estimated scf accuracy    <       1.86688696 Ry

     iteration #  9     ecut=    36.75 Ry     beta=0.30
     Davidson diagonalization with overlap
     ethr =  9.52E-04,  avg # of iterations =  2.5

     negative rho (up, down):  9.113E-01 0.000E+00
 
     Adding external electric field

     Computed dipole along edir(3) : 
        Dipole               -0.3072 Ry au,         -0.7808 Debye
        Dipole field         -0.0009 Ry au
 
        Potential amp.        0.0828 Ry
        Total length         45.0078 bohr
 

     total cpu time spent up to now is      499.7 secs

     total energy              =   -2352.45767114 Ry
     Harris-Foulkes estimate   =   -2352.52630609 Ry
     estimated scf accuracy    <       0.56243807 Ry

     iteration # 10     ecut=    36.75 Ry     beta=0.30
     Davidson diagonalization with overlap
     ethr =  2.87E-04,  avg # of iterations =  5.6

     negative rho (up, down):  9.105E-01 0.000E+00
 
     Adding external electric field

     Computed dipole along edir(3) : 
        Dipole               -0.5046 Ry au,         -1.2826 Debye
        Dipole field         -0.0015 Ry au
 
        Potential amp.        0.1360 Ry
        Total length         45.0078 bohr
 

     total cpu time spent up to now is      536.8 secs

     total energy              =   -2352.47604845 Ry
     Harris-Foulkes estimate   =   -2352.51429518 Ry
     estimated scf accuracy    <       0.37793668 Ry

     iteration # 11     ecut=    36.75 Ry     beta=0.30
     Davidson diagonalization with overlap
     ethr =  1.93E-04,  avg # of iterations =  4.5

     negative rho (up, down):  9.100E-01 0.000E+00
 
     Adding external electric field

     Computed dipole along edir(3) : 
        Dipole               -0.6141 Ry au,         -1.5609 Debye
        Dipole field         -0.0018 Ry au
 
        Potential amp.        0.1655 Ry
        Total length         45.0078 bohr
 

     total cpu time spent up to now is      571.2 secs

     total energy              =   -2352.46749684 Ry
     Harris-Foulkes estimate   =   -2352.51837041 Ry
     estimated scf accuracy    <       1.36596761 Ry

     iteration # 12     ecut=    36.75 Ry     beta=0.30
     Davidson diagonalization with overlap
     ethr =  1.93E-04,  avg # of iterations =  1.6

     negative rho (up, down):  9.093E-01 0.000E+00
 
     Adding external electric field

     Computed dipole along edir(3) : 
        Dipole               -0.7426 Ry au,         -1.8875 Debye
        Dipole field         -0.0022 Ry au
 
        Potential amp.        0.2001 Ry
        Total length         45.0078 bohr
 

     total cpu time spent up to now is      601.0 secs

     total energy              =   -2352.47345549 Ry
     Harris-Foulkes estimate   =   -2352.48699281 Ry
     estimated scf accuracy    <       0.12791756 Ry

     iteration # 13     ecut=    36.75 Ry     beta=0.30
     Davidson diagonalization with overlap
     ethr =  6.53E-05,  avg # of iterations =  5.5

     negative rho (up, down):  9.093E-01 0.000E+00
 
     Adding external electric field

     Computed dipole along edir(3) : 
        Dipole               -0.6222 Ry au,         -1.5814 Debye
        Dipole field         -0.0019 Ry au
 
        Potential amp.        0.1676 Ry
        Total length         45.0078 bohr
 

     total cpu time spent up to now is      641.0 secs

     total energy              =   -2352.48450161 Ry
     Harris-Foulkes estimate   =   -2352.49113932 Ry
     estimated scf accuracy    <       0.24581920 Ry

     iteration # 14     ecut=    36.75 Ry     beta=0.30
     Davidson diagonalization with overlap
     ethr =  6.53E-05,  avg # of iterations =  1.1

     negative rho (up, down):  9.095E-01 0.000E+00
 
     Adding external electric field

     Computed dipole along edir(3) : 
        Dipole               -0.4696 Ry au,         -1.1936 Debye
        Dipole field         -0.0014 Ry au
 
        Potential amp.        0.1265 Ry
        Total length         45.0078 bohr
 

     total cpu time spent up to now is      671.3 secs

     total energy              =   -2352.47616987 Ry
     Harris-Foulkes estimate   =   -2352.48583420 Ry
     estimated scf accuracy    <       0.16267157 Ry

     iteration # 15     ecut=    36.75 Ry     beta=0.30
     Davidson diagonalization with overlap
     ethr =  6.53E-05,  avg # of iterations =  2.0

     negative rho (up, down):  9.096E-01 0.000E+00
 
     Adding external electric field

     Computed dipole along edir(3) : 
        Dipole               -0.2878 Ry au,         -0.7316 Debye
        Dipole field         -0.0009 Ry au
 
        Potential amp.        0.0776 Ry
        Total length         45.0078 bohr
 

     total cpu time spent up to now is      701.3 secs

     total energy              =   -2352.47906367 Ry
     Harris-Foulkes estimate   =   -2352.48081474 Ry
     estimated scf accuracy    <       0.00557448 Ry

     iteration # 16     ecut=    36.75 Ry     beta=0.30
     Davidson diagonalization with overlap
     ethr =  2.84E-06,  avg # of iterations =  5.7

     negative rho (up, down):  9.095E-01 0.000E+00
 
     Adding external electric field

     Computed dipole along edir(3) : 
        Dipole               -0.2765 Ry au,         -0.7029 Debye
        Dipole field         -0.0008 Ry au
 
        Potential amp.        0.0745 Ry
        Total length         45.0078 bohr
 

     total cpu time spent up to now is      751.0 secs

     total energy              =   -2352.47936201 Ry
     Harris-Foulkes estimate   =   -2352.48132552 Ry
     estimated scf accuracy    <       0.01805688 Ry

     iteration # 17     ecut=    36.75 Ry     beta=0.30
     Davidson diagonalization with overlap
     ethr =  2.84E-06,  avg # of iterations =  4.5

     negative rho (up, down):  9.095E-01 0.000E+00
 
     Adding external electric field

     Computed dipole along edir(3) : 
        Dipole               -0.2804 Ry au,         -0.7127 Debye
        Dipole field         -0.0008 Ry au
 
        Potential amp.        0.0755 Ry
        Total length         45.0078 bohr
 

     total cpu time spent up to now is      789.5 secs

     total energy              =   -2352.48029372 Ry
     Harris-Foulkes estimate   =   -2352.48046003 Ry
     estimated scf accuracy    <       0.00308791 Ry

     iteration # 18     ecut=    36.75 Ry     beta=0.30
     Davidson diagonalization with overlap
     ethr =  1.58E-06,  avg # of iterations =  1.1

     negative rho (up, down):  9.095E-01 0.000E+00
 
     Adding external electric field

     Computed dipole along edir(3) : 
        Dipole               -0.2700 Ry au,         -0.6862 Debye
        Dipole field         -0.0008 Ry au
 
        Potential amp.        0.0727 Ry
        Total length         45.0078 bohr
 

     total cpu time spent up to now is      818.5 secs

     total energy              =   -2352.48040542 Ry
     Harris-Foulkes estimate   =   -2352.48043647 Ry
     estimated scf accuracy    <       0.00045481 Ry

     iteration # 19     ecut=    36.75 Ry     beta=0.30
     Davidson diagonalization with overlap
     ethr =  2.32E-07,  avg # of iterations =  5.1

     negative rho (up, down):  9.095E-01 0.000E+00
 
     Adding external electric field

     Computed dipole along edir(3) : 
        Dipole               -0.2641 Ry au,         -0.6714 Debye
        Dipole field         -0.0008 Ry au
 
        Potential amp.        0.0712 Ry
        Total length         45.0078 bohr
 

     total cpu time spent up to now is      856.7 secs

     total energy              =   -2352.48042810 Ry
     Harris-Foulkes estimate   =   -2352.48047306 Ry
     estimated scf accuracy    <       0.00055689 Ry

     iteration # 20     ecut=    36.75 Ry     beta=0.30
     Davidson diagonalization with overlap
     ethr =  2.32E-07,  avg # of iterations =  3.0

     negative rho (up, down):  9.095E-01 0.000E+00
 
     Adding external electric field

     Computed dipole along edir(3) : 
        Dipole               -0.2592 Ry au,         -0.6587 Debye
        Dipole field         -0.0008 Ry au
 
        Potential amp.        0.0698 Ry
        Total length         45.0078 bohr
 

     total cpu time spent up to now is      888.3 secs

     total energy              =   -2352.48044983 Ry
     Harris-Foulkes estimate   =   -2352.48045950 Ry
     estimated scf accuracy    <       0.00003630 Ry

     iteration # 21     ecut=    36.75 Ry     beta=0.30
     Davidson diagonalization with overlap
     ethr =  1.85E-08,  avg # of iterations =  5.2

     negative rho (up, down):  9.096E-01 0.000E+00
 
     Adding external electric field

     Computed dipole along edir(3) : 
        Dipole               -0.2600 Ry au,         -0.6609 Debye
        Dipole field         -0.0008 Ry au
 
        Potential amp.        0.0701 Ry
        Total length         45.0078 bohr
 

     total cpu time spent up to now is      929.4 secs

     total energy              =   -2352.48045523 Ry
     Harris-Foulkes estimate   =   -2352.48045595 Ry
     estimated scf accuracy    <       0.00003077 Ry

     iteration # 22     ecut=    36.75 Ry     beta=0.30
     Davidson diagonalization with overlap
     ethr =  1.57E-08,  avg # of iterations =  3.8

     negative rho (up, down):  9.097E-01 0.000E+00
 
     Adding external electric field

     Computed dipole along edir(3) : 
        Dipole               -0.2571 Ry au,         -0.6535 Debye
        Dipole field         -0.0008 Ry au
 
        Potential amp.        0.0693 Ry
        Total length         45.0078 bohr
 

     total cpu time spent up to now is      962.0 secs

     total energy              =   -2352.48045728 Ry
     Harris-Foulkes estimate   =   -2352.48046182 Ry
     estimated scf accuracy    <       0.00001144 Ry

     iteration # 23     ecut=    36.75 Ry     beta=0.30
     Davidson diagonalization with overlap
     ethr =  5.84E-09,  avg # of iterations =  4.4

     negative rho (up, down):  9.097E-01 0.000E+00

     negative rho (up, down):  9.097E-01 0.000E+00

     negative rho (up, down):  9.097E-01 0.000E+00

     negative rho (up, down):  9.097E-01 0.000E+00

     negative rho (up, down):  9.097E-01 0.000E+00

     negative rho (up, down):  9.097E-01 0.000E+00

     negative rho (up, down):  9.097E-01 0.000E+00

     negative rho (up, down):  9.097E-01 0.000E+00

     negative rho (up, down):  9.097E-01 0.000E+00

     negative rho (up, down):  9.097E-01 0.000E+00

     negative rho (up, down):  9.097E-01 0.000E+00

     negative rho (up, down):  9.097E-01 0.000E+00

     negative rho (up, down):  9.097E-01 0.000E+00

     negative rho (up, down):  9.097E-01 0.000E+00

     negative rho (up, down):  9.097E-01 0.000E+00

     negative rho (up, down):  9.097E-01 0.000E+00

     negative rho (up, down):  9.097E-01 0.000E+00

     negative rho (up, down):  9.097E-01 0.000E+00

     negative rho (up, down):  9.097E-01 0.000E+00

     negative rho (up, down):  9.097E-01 0.000E+00

     negative rho (up, down):  9.097E-01 0.000E+00

     negative rho (up, down):  9.097E-01 0.000E+00

     negative rho (up, down):  9.097E-01 0.000E+00

     negative rho (up, down):  9.097E-01 0.000E+00

     negative rho (up, down):  9.097E-01 0.000E+00

     negative rho (up, down):  9.097E-01 0.000E+00

     negative rho (up, down):  9.097E-01 0.000E+00

     negative rho (up, down):  9.097E-01 0.000E+00

     negative rho (up, down):  9.097E-01 0.000E+00

     negative rho (up, down):  9.097E-01 0.000E+00

     negative rho (up, down):  9.097E-01 0.000E+00

     negative rho (up, down):  9.097E-01 0.000E+00

     negative rho (up, down):  9.097E-01 0.000E+00

     negative rho (up, down):  9.097E-01 0.000E+00

     negative rho (up, down):  9.097E-01 0.000E+00
 
     Adding external electric field

     Computed dipole along edir(3) : 
        Dipole               -0.2703 Ry au,         -0.6870 Debye
        Dipole field         -0.0008 Ry au
 
        Potential amp.        0.0728 Ry
        Total length         45.0078 bohr
 

     total cpu time spent up to now is     1043.8 secs

     End of self-consistent calculation

          k = 0.0000 0.0000 0.0000 ( 15761 PWs)   bands (ev):

   -71.1607 -71.0697 -71.0334 -71.0316 -70.8777 -70.6959 -70.6627 -70.6117
   -70.5984 -70.5978 -70.5829 -70.5826 -41.4397 -41.4389 -41.4030 -41.2747
   -41.1815 -41.1810 -41.1801 -41.0028 -41.0025 -40.9555 -40.8728 -40.8723
   -40.8686 -40.8315 -40.8148 -40.8142 -40.7784 -40.6871 -40.6868 -40.5955
   -40.5320 -40.5193 -40.5189 -40.5035 -40.5034 -40.4607 -40.4603 -40.4544
   -40.4284 -40.4171 -40.4170 -40.3998 -40.2965 -40.2964 -40.2483 -40.2483
    -6.5935  -4.5742  -3.4016  -3.4014  -3.3802  -3.2896  -3.1370  -3.0215
    -3.0211  -2.9969  -2.7903  -2.7899  -2.7663  -2.4197  -2.4196  -2.4039
    -1.3568  -1.3566  -1.2447  -0.6805  -0.6805  -0.6762  -0.4362  -0.2649
    -0.2649  -0.0815   0.1190   0.1190   0.1524   0.1527   0.1826   0.3814
     0.3814   0.5031   0.8924   0.8927   1.4405   1.4408   1.6997   1.7947
     1.7947   1.8024   1.9351   1.9351   1.9472   2.4404   2.4816   2.4816
     2.8376   2.8377   3.1018   3.1020   3.1857   3.2348   3.2348   3.2866
     3.3590   3.3591   3.6881   3.6887

          k = 0.0000 0.0355 0.0000 ( 15763 PWs)   bands (ev):

   -71.1545 -71.0717 -71.0361 -71.0333 -70.8762 -70.6900 -70.6599 -70.6137
   -70.6027 -70.5978 -70.5870 -70.5826 -41.4136 -41.4025 -41.3684 -41.2622
   -41.1714 -41.1667 -41.1630 -40.9840 -40.9709 -40.9263 -40.8987 -40.8974
   -40.8594 -40.8300 -40.8062 -40.8037 -40.7855 -40.7215 -40.6984 -40.5826
   -40.5389 -40.5279 -40.5155 -40.5091 -40.5033 -40.4651 -40.4649 -40.4586
   -40.4423 -40.4372 -40.4312 -40.3990 -40.3399 -40.3067 -40.2941 -40.2593
    -6.5802  -4.3384  -3.2825  -3.2026  -3.1846  -3.0757  -2.9149  -2.8947
    -2.8670  -2.8449  -2.6958  -2.6429  -2.6251  -2.2968  -2.1873  -2.1749
    -1.3295  -1.2855  -1.1913  -0.6093  -0.5836  -0.5774  -0.5287  -0.4317
    -0.3223  -0.0795  -0.0533  -0.0120   0.2137   0.2234   0.2581   0.2832
     0.4603   0.5745   0.7117   0.7542   1.1193   1.2514   1.3877   1.5465
     1.6693   1.6927   1.7983   1.8384   1.8621   2.0101   2.3651   2.4157
     2.5665   2.6277   2.7996   2.9151   2.9470   3.0215   3.0556   3.1031
     3.2010   3.2594   3.3619   3.3989

          k = 0.0000 0.0710 0.0000 ( 15793 PWs)   bands (ev):

   -71.1390 -71.0792 -71.0444 -71.0334 -70.8732 -70.6748 -70.6525 -70.6220
   -70.6132 -70.5978 -70.5941 -70.5826 -41.3519 -41.3257 -41.2548 -41.2288
   -41.1614 -41.1370 -41.1347 -40.9872 -40.9835 -40.9231 -40.9064 -40.8835
   -40.8348 -40.8287 -40.7833 -40.7808 -40.7563 -40.7272 -40.7196 -40.6019
   -40.5635 -40.5380 -40.5324 -40.5141 -40.5074 -40.4956 -40.4884 -40.4849
   -40.4661 -40.4618 -40.4472 -40.4357 -40.4059 -40.3715 -40.3320 -40.2890
    -6.5557  -3.7181  -3.0271  -2.7407  -2.7167  -2.6610  -2.5879  -2.4211
    -2.4211  -2.4137  -2.2999  -2.2715  -2.2518  -1.9744  -1.6136  -1.5903
    -1.2644  -1.2017  -1.0842  -0.9785  -0.8162  -0.5120  -0.4735  -0.4479
    -0.3944  -0.2560  -0.2383   0.0740   0.1338   0.2016   0.2446   0.2931
     0.3890   0.4164   0.5785   0.5818   0.8481   0.8489   1.0117   1.1250
     1.1289   1.3071   1.3208   1.4090   1.4541   1.6108   1.7051   1.7565
     1.7818   2.1334   2.2697   2.2956   2.3249   2.4675   2.5148   2.5912
     2.6757   2.8888   2.9902   3.0253

          k = 0.0000-0.1065 0.0000 ( 15808 PWs)   bands (ev):

   -71.1275 -71.0873 -71.0480 -71.0334 -70.8717 -70.6628 -70.6466 -70.6314
   -70.6207 -70.5978 -70.5968 -70.5826 -41.3106 -41.2763 -41.1946 -41.1793
   -41.1229 -41.1219 -41.0994 -41.0764 -41.0237 -41.0219 -40.9012 -40.8247
   -40.7995 -40.7776 -40.7715 -40.7639 -40.7415 -40.7276 -40.6199 -40.5978
   -40.5931 -40.5891 -40.5639 -40.5552 -40.5524 -40.5395 -40.5224 -40.4952
   -40.4853 -40.4688 -40.4581 -40.4536 -40.4234 -40.3503 -40.3380 -40.3224
    -6.5443  -3.0936  -3.0778  -2.4518  -2.4452  -2.4356  -2.4178  -2.1690
    -2.1277  -1.9978  -1.9791  -1.8737  -1.8622  -1.5833  -1.5479  -1.4581
    -1.4380  -1.0516  -1.0159  -0.9168  -0.8839  -0.8148  -0.7663  -0.4448
    -0.3850  -0.1591  -0.0940   0.0370   0.0613   0.1549   0.2023   0.2351
     0.3467   0.4265   0.4710   0.4779   0.5363   0.5591   0.5642   0.5674
     0.5856   1.0024   1.2072   1.2349   1.2558   1.3871   1.4160   1.6038
     1.7493   1.9288   1.9680   1.9756   1.9919   2.0805   2.1666   2.2621
     2.4266   2.4951   2.5358   2.9373

          k = 0.0307-0.0177 0.0000 ( 15763 PWs)   bands (ev):

   -71.1545 -71.0715 -71.0373 -71.0322 -70.8762 -70.6900 -70.6599 -70.6137
   -70.6022 -70.5983 -70.5868 -70.5828 -41.4141 -41.4019 -41.3684 -41.2622
   -41.1714 -41.1662 -41.1635 -40.9838 -40.9711 -40.9263 -40.8982 -40.8976
   -40.8597 -40.8301 -40.8059 -40.8039 -40.7854 -40.7218 -40.6982 -40.5826
   -40.5389 -40.5279 -40.5158 -40.5088 -40.5035 -40.4654 -40.4646 -40.4586
   -40.4423 -40.4371 -40.4313 -40.3990 -40.3397 -40.3069 -40.2941 -40.2593
    -6.5802  -4.3384  -3.2825  -3.2027  -3.1845  -3.0757  -2.9149  -2.8945
    -2.8673  -2.8448  -2.6959  -2.6426  -2.6253  -2.2968  -2.1872  -2.1750
    -1.3294  -1.2857  -1.1913  -0.6093  -0.5836  -0.5775  -0.5287  -0.4317
    -0.3223  -0.0795  -0.0533  -0.0119   0.2137   0.2234   0.2581   0.2832
     0.4602   0.5745   0.7119   0.7540   1.1192   1.2515   1.3877   1.5466
     1.6693   1.6928   1.7984   1.8384   1.8621   2.0101   2.3650   2.4158
     2.5665   2.6276   2.7997   2.9152   2.9470   3.0215   3.0555   3.1029
     3.2010   3.2595   3.3619   3.3990

          k = 0.0307 0.0177 0.0000 ( 15763 PWs)   bands (ev):

   -71.1546 -71.0714 -71.0379 -71.0318 -70.8762 -70.6900 -70.6599 -70.6138
   -70.6023 -70.5982 -70.5866 -70.5829 -41.4143 -41.4016 -41.3685 -41.2622
   -41.1713 -41.1660 -41.1639 -40.9837 -40.9712 -40.9263 -40.8979 -40.8977
   -40.8598 -40.8301 -40.8057 -40.8041 -40.7854 -40.7219 -40.6981 -40.5826
   -40.5389 -40.5280 -40.5158 -40.5088 -40.5035 -40.4654 -40.4646 -40.4586
   -40.4422 -40.4371 -40.4313 -40.3989 -40.3398 -40.3068 -40.2941 -40.2593
    -6.5802  -4.3384  -3.2825  -3.2028  -3.1844  -3.0757  -2.9149  -2.8944
    -2.8675  -2.8447  -2.6959  -2.6425  -2.6254  -2.2968  -2.1872  -2.1750
    -1.3294  -1.2857  -1.1913  -0.6092  -0.5836  -0.5775  -0.5287  -0.4317
    -0.3223  -0.0795  -0.0534  -0.0117   0.2137   0.2234   0.2580   0.2832
     0.4601   0.5745   0.7120   0.7540   1.1191   1.2516   1.3876   1.5466
     1.6693   1.6928   1.7984   1.8384   1.8621   2.0101   2.3649   2.4158
     2.5665   2.6276   2.7997   2.9153   2.9469   3.0216   3.0555   3.1029
     3.2011   3.2595   3.3619   3.3989

          k = 0.0307 0.0532 0.0000 ( 15768 PWs)   bands (ev):

   -71.1436 -71.0752 -71.0460 -71.0311 -70.8739 -70.6794 -70.6546 -70.6179
   -70.6105 -70.5976 -70.5950 -70.5811 -41.3732 -41.3294 -41.3050 -41.2392
   -41.1602 -41.1453 -41.1407 -41.0039 -40.9395 -40.9116 -40.8857 -40.8752
   -40.8648 -40.8579 -40.7969 -40.7880 -40.7672 -40.7324 -40.7195 -40.5953
   -40.5670 -40.5329 -40.5223 -40.5064 -40.5021 -40.4939 -40.4744 -40.4705
   -40.4659 -40.4510 -40.4167 -40.4114 -40.4062 -40.3718 -40.3286 -40.2823
    -6.5616  -3.9018  -2.9830  -2.9708  -2.8383  -2.6953  -2.6657  -2.6537
    -2.5069  -2.4935  -2.4852  -2.4631  -2.2936  -1.9581  -1.9482  -1.7056
    -1.3055  -1.1658  -1.1188  -0.9189  -0.6555  -0.5209  -0.4585  -0.4500
    -0.3907  -0.3753  -0.0418   0.0064   0.1189   0.1610   0.2876   0.3584
     0.3814   0.4209   0.4705   0.7778   0.9234   0.9852   1.0354   1.1729
     1.2881   1.4505   1.5683   1.6018   1.7074   1.7310   1.7603   1.7948
     1.9411   2.0851   2.3655   2.5234   2.5598   2.6110   2.6717   2.7954
     2.8954   3.0109   3.0629   3.1374

          k = 0.0307-0.1242 0.0000 ( 15803 PWs)   bands (ev):

   -71.1288 -71.0819 -71.0561 -71.0294 -70.8717 -70.6642 -70.6457 -70.6260
   -70.6222 -70.6044 -70.5971 -70.5792 -41.3058 -41.2495 -41.2023 -41.1798
   -41.1627 -41.1358 -41.1125 -41.0976 -41.0082 -40.9329 -40.8891 -40.8410
   -40.8233 -40.7895 -40.7740 -40.7619 -40.7434 -40.7131 -40.6791 -40.6509
   -40.6042 -40.5753 -40.5529 -40.5360 -40.5228 -40.5102 -40.4957 -40.4892
   -40.4746 -40.4674 -40.4508 -40.4412 -40.4327 -40.3726 -40.3621 -40.3232
    -6.5443  -3.2083  -2.7857  -2.4561  -2.4340  -2.3999  -2.3052  -2.2486
    -2.1387  -2.0873  -2.0019  -1.9294  -1.8296  -1.6430  -1.5625  -1.4082
    -1.3778  -1.0935  -1.0541  -1.0396  -0.8225  -0.7663  -0.6961  -0.5768
    -0.4742  -0.2277  -0.1632  -0.1418  -0.0379   0.0326   0.0695   0.1093
     0.1208   0.2908   0.4149   0.5074   0.5349   0.6839   0.7676   0.7814
     0.8260   0.8616   1.1211   1.2610   1.3661   1.4276   1.5303   1.6268
     1.7214   1.8473   1.9445   2.0662   2.2317   2.2592   2.4279   2.5694
     2.6798   2.8099   2.9073   2.9651

          k = 0.0307-0.0887 0.0000 ( 15803 PWs)   bands (ev):

   -71.1288 -71.0820 -71.0559 -71.0295 -70.8717 -70.6642 -70.6458 -70.6259
   -70.6221 -70.6045 -70.5971 -70.5792 -41.3058 -41.2494 -41.2023 -41.1797
   -41.1628 -41.1356 -41.1126 -41.0979 -41.0079 -40.9329 -40.8890 -40.8410
   -40.8233 -40.7895 -40.7740 -40.7619 -40.7434 -40.7131 -40.6792 -40.6509
   -40.6042 -40.5752 -40.5528 -40.5360 -40.5228 -40.5102 -40.4957 -40.4892
   -40.4745 -40.4675 -40.4508 -40.4412 -40.4327 -40.3726 -40.3621 -40.3232
    -6.5443  -3.2083  -2.7857  -2.4561  -2.4340  -2.3999  -2.3052  -2.2486
    -2.1388  -2.0872  -2.0018  -1.9294  -1.8296  -1.6430  -1.5625  -1.4082
    -1.3778  -1.0935  -1.0540  -1.0396  -0.8225  -0.7663  -0.6961  -0.5768
    -0.4742  -0.2277  -0.1632  -0.1418  -0.0379   0.0326   0.0695   0.1093
     0.1208   0.2908   0.4150   0.5074   0.5349   0.6839   0.7676   0.7814
     0.8260   0.8616   1.1212   1.2611   1.3660   1.4275   1.5303   1.6268
     1.7214   1.8473   1.9445   2.0663   2.2317   2.2592   2.4279   2.5693
     2.6798   2.8100   2.9072   2.9651

          k = 0.0307-0.0532 0.0000 ( 15768 PWs)   bands (ev):

   -71.1436 -71.0755 -71.0454 -71.0314 -70.8739 -70.6794 -70.6546 -70.6179
   -70.6104 -70.5977 -70.5951 -70.5811 -41.3731 -41.3295 -41.3050 -41.2391
   -41.1604 -41.1450 -41.1407 -41.0040 -40.9396 -40.9116 -40.8855 -40.8752
   -40.8648 -40.8579 -40.7969 -40.7880 -40.7672 -40.7323 -40.7197 -40.5954
   -40.5670 -40.5329 -40.5223 -40.5065 -40.5021 -40.4939 -40.4744 -40.4704
   -40.4659 -40.4510 -40.4166 -40.4114 -40.4062 -40.3718 -40.3286 -40.2823
    -6.5616  -3.9018  -2.9831  -2.9707  -2.8383  -2.6953  -2.6658  -2.6537
    -2.5069  -2.4934  -2.4852  -2.4631  -2.2936  -1.9581  -1.9482  -1.7056
    -1.3055  -1.1658  -1.1187  -0.9190  -0.6555  -0.5209  -0.4585  -0.4500
    -0.3907  -0.3753  -0.0418   0.0064   0.1189   0.1610   0.2876   0.3585
     0.3813   0.4209   0.4705   0.7779   0.9234   0.9852   1.0354   1.1729
     1.2881   1.4506   1.5683   1.6018   1.7074   1.7310   1.7604   1.7948
     1.9410   2.0851   2.3654   2.5235   2.5599   2.6109   2.6716   2.7953
     2.8954   3.0109   3.0629   3.1375

          k = 0.0615-0.0355 0.0000 ( 15793 PWs)   bands (ev):

   -71.1391 -71.0786 -71.0460 -71.0324 -70.8732 -70.6748 -70.6527 -70.6221
   -70.6125 -70.5983 -70.5939 -70.5828 -41.3525 -41.3250 -41.2549 -41.2288
   -41.1611 -41.1365 -41.1356 -40.9876 -40.9829 -40.9227 -40.9065 -40.8838
   -40.8348 -40.8290 -40.7834 -40.7805 -40.7564 -40.7268 -40.7197 -40.6019
   -40.5635 -40.5383 -40.5323 -40.5140 -40.5077 -40.4955 -40.4886 -40.4846
   -40.4660 -40.4619 -40.4471 -40.4353 -40.4059 -40.3715 -40.3322 -40.2890
    -6.5557  -3.7181  -3.0271  -2.7409  -2.7165  -2.6610  -2.5879  -2.4215
    -2.4208  -2.4137  -2.2999  -2.2712  -2.2521  -1.9744  -1.6135  -1.5904
    -1.2642  -1.2018  -1.0842  -0.9785  -0.8162  -0.5120  -0.4735  -0.4479
    -0.3944  -0.2560  -0.2382   0.0741   0.1337   0.2016   0.2446   0.2931
     0.3890   0.4164   0.5785   0.5817   0.8481   0.8489   1.0118   1.1250
     1.1289   1.3071   1.3209   1.4092   1.4539   1.6108   1.7051   1.7565
     1.7817   2.1333   2.2697   2.2956   2.3250   2.4675   2.5149   2.5912
     2.6757   2.8889   2.9902   3.0255

          k = 0.0615 0.0000 0.0000 ( 15768 PWs)   bands (ev):

   -71.1437 -71.0748 -71.0469 -71.0305 -70.8739 -70.6794 -70.6547 -70.6180
   -70.6100 -70.5980 -70.5948 -70.5812 -41.3734 -41.3291 -41.3051 -41.2392
   -41.1598 -41.1457 -41.1407 -41.0038 -40.9393 -40.9116 -40.8861 -40.8751
   -40.8648 -40.8580 -40.7969 -40.7880 -40.7672 -40.7326 -40.7192 -40.5955
   -40.5669 -40.5329 -40.5224 -40.5063 -40.5022 -40.4938 -40.4741 -40.4706
   -40.4660 -40.4508 -40.4167 -40.4114 -40.4062 -40.3718 -40.3287 -40.2823
    -6.5616  -3.9018  -2.9829  -2.9709  -2.8383  -2.6953  -2.6656  -2.6538
    -2.5068  -2.4936  -2.4851  -2.4631  -2.2936  -1.9582  -1.9481  -1.7056
    -1.3054  -1.1658  -1.1188  -0.9190  -0.6555  -0.5208  -0.4586  -0.4500
    -0.3907  -0.3752  -0.0418   0.0065   0.1189   0.1610   0.2876   0.3584
     0.3815   0.4208   0.4706   0.7777   0.9235   0.9852   1.0353   1.1730
     1.2881   1.4506   1.5681   1.6018   1.7075   1.7310   1.7602   1.7948
     1.9411   2.0851   2.3656   2.5233   2.5597   2.6111   2.6717   2.7956
     2.8955   3.0108   3.0627   3.1373

          k = 0.0615 0.0355 0.0000 ( 15793 PWs)   bands (ev):

   -71.1391 -71.0782 -71.0468 -71.0319 -70.8732 -70.6748 -70.6527 -70.6222
   -70.6126 -70.5982 -70.5937 -70.5829 -41.3528 -41.3246 -41.2549 -41.2288
   -41.1609 -41.1363 -41.1359 -40.9877 -40.9826 -40.9226 -40.9065 -40.8839
   -40.8348 -40.8293 -40.7835 -40.7804 -40.7565 -40.7265 -40.7198 -40.6019
   -40.5635 -40.5383 -40.5323 -40.5139 -40.5077 -40.4954 -40.4887 -40.4847
   -40.4660 -40.4619 -40.4471 -40.4354 -40.4059 -40.3715 -40.3322 -40.2890
    -6.5557  -3.7181  -3.0271  -2.7410  -2.7164  -2.6610  -2.5879  -2.4216
    -2.4207  -2.4137  -2.2999  -2.2711  -2.2522  -1.9744  -1.6135  -1.5904
    -1.2642  -1.2019  -1.0842  -0.9785  -0.8162  -0.5120  -0.4734  -0.4479
    -0.3943  -0.2560  -0.2382   0.0741   0.1336   0.2017   0.2446   0.2931
     0.3890   0.4163   0.5785   0.5817   0.8482   0.8488   1.0118   1.1249
     1.1289   1.3071   1.3209   1.4092   1.4539   1.6108   1.7051   1.7565
     1.7817   2.1333   2.2697   2.2955   2.3251   2.4675   2.5149   2.5912
     2.6757   2.8889   2.9902   3.0256

          k = 0.0615-0.1420 0.0000 ( 15803 PWs)   bands (ev):

   -71.1290 -71.0809 -71.0573 -71.0290 -70.8717 -70.6642 -70.6459 -70.6262
   -70.6218 -70.6042 -70.5972 -70.5793 -41.3063 -41.2488 -41.2024 -41.1796
   -41.1622 -41.1362 -41.1126 -41.0979 -41.0078 -40.9329 -40.8888 -40.8415
   -40.8236 -40.7897 -40.7737 -40.7619 -40.7432 -40.7131 -40.6792 -40.6507
   -40.6042 -40.5755 -40.5529 -40.5361 -40.5227 -40.5100 -40.4957 -40.4893
   -40.4746 -40.4673 -40.4508 -40.4410 -40.4325 -40.3725 -40.3623 -40.3233
    -6.5443  -3.2083  -2.7857  -2.4564  -2.4336  -2.3999  -2.3052  -2.2486
    -2.1388  -2.0872  -2.0019  -1.9294  -1.8296  -1.6430  -1.5625  -1.4082
    -1.3778  -1.0933  -1.0542  -1.0395  -0.8225  -0.7663  -0.6961  -0.5768
    -0.4741  -0.2277  -0.1633  -0.1419  -0.0379   0.0325   0.0696   0.1094
     0.1209   0.2908   0.4149   0.5074   0.5350   0.6840   0.7675   0.7815
     0.8262   0.8614   1.1210   1.2611   1.3661   1.4276   1.5303   1.6268
     1.7214   1.8473   1.9445   2.0661   2.2316   2.2593   2.4279   2.5693
     2.6799   2.8101   2.9072   2.9650

          k = 0.0615-0.1065 0.0000 ( 15828 PWs)   bands (ev):

   -71.1233 -71.0742 -71.0720 -71.0267 -70.8709 -70.6580 -70.6351 -70.6345
   -70.6196 -70.6192 -70.5965 -70.5768 -41.2204 -41.2200 -41.1807 -41.1643
   -41.1515 -41.1359 -41.1320 -41.1229 -41.0939 -40.8695 -40.8659 -40.8529
   -40.8376 -40.7980 -40.7585 -40.7255 -40.7093 -40.7026 -40.6692 -40.6566
   -40.6326 -40.6281 -40.6228 -40.5524 -40.5243 -40.5019 -40.4928 -40.4793
   -40.4690 -40.4683 -40.4471 -40.4359 -40.4036 -40.3866 -40.3848 -40.3761
    -6.5389  -2.5875  -2.5852  -2.5845  -2.0838  -2.0589  -2.0574  -2.0428
    -2.0401  -1.8393  -1.7376  -1.7370  -1.7347  -1.7148  -1.7135  -1.7072
    -1.2243  -1.2067  -0.8059  -0.7705  -0.7684  -0.6891  -0.6719  -0.6521
    -0.6451  -0.6131  -0.4460  -0.3967  -0.3838  -0.3410  -0.1987   0.0554
     0.0611   0.1997   0.2191   0.3792   0.4319   0.4504   0.5252   0.5572
     0.5592   0.9422   1.0678   1.1674   1.4913   1.5169   1.5831   1.6508
     1.6942   1.9479   1.9770   2.0129   2.3216   2.6219   2.7602   2.8049
     2.8052   2.8083   2.9160   3.0642

          k = 0.0615-0.0710 0.0000 ( 15803 PWs)   bands (ev):

   -71.1289 -71.0814 -71.0566 -71.0292 -70.8717 -70.6642 -70.6460 -70.6260
   -70.6217 -70.6043 -70.5973 -70.5792 -41.3061 -41.2490 -41.2023 -41.1796
   -41.1625 -41.1359 -41.1126 -41.0980 -41.0077 -40.9329 -40.8888 -40.8414
   -40.8236 -40.7897 -40.7738 -40.7619 -40.7433 -40.7131 -40.6792 -40.6507
   -40.6042 -40.5754 -40.5529 -40.5361 -40.5227 -40.5101 -40.4957 -40.4893
   -40.4746 -40.4674 -40.4508 -40.4410 -40.4324 -40.3726 -40.3624 -40.3233
    -6.5443  -3.2083  -2.7857  -2.4563  -2.4338  -2.3999  -2.3052  -2.2486
    -2.1388  -2.0872  -2.0019  -1.9294  -1.8296  -1.6430  -1.5625  -1.4082
    -1.3778  -1.0934  -1.0541  -1.0396  -0.8225  -0.7663  -0.6961  -0.5768
    -0.4741  -0.2277  -0.1632  -0.1419  -0.0379   0.0325   0.0696   0.1093
     0.1208   0.2908   0.4149   0.5074   0.5349   0.6840   0.7675   0.7815
     0.8262   0.8614   1.1211   1.2612   1.3660   1.4275   1.5303   1.6268
     1.7215   1.8473   1.9445   2.0662   2.2316   2.2593   2.4279   2.5693
     2.6798   2.8101   2.9071   2.9651

          k =-0.0922 0.0532 0.0000 ( 15808 PWs)   bands (ev):

   -71.1278 -71.0864 -71.0496 -71.0324 -70.8717 -70.6627 -70.6471 -70.6316
   -70.6198 -70.5983 -70.5965 -70.5828 -41.3114 -41.2755 -41.1950 -41.1787
   -41.1239 -41.1212 -41.0996 -41.0757 -41.0232 -41.0229 -40.9008 -40.8250
   -40.8004 -40.7776 -40.7709 -40.7641 -40.7408 -40.7280 -40.6201 -40.5979
   -40.5930 -40.5887 -40.5643 -40.5553 -40.5521 -40.5397 -40.5223 -40.4950
   -40.4856 -40.4690 -40.4576 -40.4539 -40.4228 -40.3508 -40.3379 -40.3226
    -6.5443  -3.0939  -3.0775  -2.4514  -2.4455  -2.4360  -2.4174  -2.1687
    -2.1280  -1.9979  -1.9790  -1.8741  -1.8618  -1.5832  -1.5480  -1.4579
    -1.4382  -1.0515  -1.0161  -0.9169  -0.8837  -0.8146  -0.7666  -0.4449
    -0.3848  -0.1591  -0.0941   0.0369   0.0614   0.1549   0.2023   0.2350
     0.3467   0.4266   0.4710   0.4779   0.5363   0.5595   0.5639   0.5676
     0.5854   1.0023   1.2069   1.2352   1.2558   1.3874   1.4157   1.6039
     1.7494   1.9290   1.9679   1.9753   1.9921   2.0805   2.1667   2.2621
     2.4266   2.4951   2.5359   2.9376

          k =-0.0922 0.0887 0.0000 ( 15803 PWs)   bands (ev):

   -71.1290 -71.0809 -71.0573 -71.0290 -70.8717 -70.6642 -70.6461 -70.6261
   -70.6215 -70.6042 -70.5974 -70.5793 -41.3062 -41.2491 -41.2024 -41.1797
   -41.1622 -41.1363 -41.1124 -41.0973 -41.0084 -40.9328 -40.8888 -40.8413
   -40.8235 -40.7897 -40.7738 -40.7620 -40.7432 -40.7131 -40.6792 -40.6510
   -40.6043 -40.5751 -40.5528 -40.5360 -40.5227 -40.5101 -40.4956 -40.4894
   -40.4746 -40.4675 -40.4505 -40.4411 -40.4326 -40.3726 -40.3624 -40.3233
    -6.5443  -3.2083  -2.7857  -2.4563  -2.4338  -2.3999  -2.3052  -2.2486
    -2.1388  -2.0872  -2.0019  -1.9294  -1.8296  -1.6430  -1.5625  -1.4082
    -1.3778  -1.0934  -1.0542  -1.0395  -0.8225  -0.7663  -0.6961  -0.5768
    -0.4741  -0.2278  -0.1632  -0.1418  -0.0378   0.0325   0.0695   0.1093
     0.1209   0.2908   0.4149   0.5074   0.5350   0.6840   0.7676   0.7815
     0.8261   0.8614   1.1209   1.2609   1.3662   1.4277   1.5304   1.6269
     1.7214   1.8473   1.9445   2.0660   2.2318   2.2592   2.4280   2.5694
     2.6798   2.8100   2.9075   2.9650

          k =-0.0922 0.1242 0.0000 ( 15803 PWs)   bands (ev):

   -71.1290 -71.0805 -71.0578 -71.0288 -70.8717 -70.6642 -70.6461 -70.6262
   -70.6216 -70.6041 -70.5973 -70.5793 -41.3064 -41.2488 -41.2025 -41.1796
   -41.1620 -41.1364 -41.1125 -41.0974 -41.0082 -40.9329 -40.8887 -40.8415
   -40.8236 -40.7897 -40.7737 -40.7620 -40.7431 -40.7131 -40.6793 -40.6510
   -40.6043 -40.5751 -40.5528 -40.5360 -40.5227 -40.5101 -40.4956 -40.4893
   -40.4746 -40.4675 -40.4505 -40.4411 -40.4326 -40.3725 -40.3623 -40.3233
    -6.5443  -3.2083  -2.7857  -2.4564  -2.4336  -2.3999  -2.3052  -2.2486
    -2.1388  -2.0872  -2.0019  -1.9294  -1.8296  -1.6430  -1.5625  -1.4082
    -1.3778  -1.0933  -1.0542  -1.0395  -0.8225  -0.7663  -0.6960  -0.5769
    -0.4741  -0.2277  -0.1632  -0.1418  -0.0378   0.0325   0.0695   0.1093
     0.1209   0.2908   0.4149   0.5074   0.5350   0.6840   0.7676   0.7815
     0.8262   0.8614   1.1209   1.2610   1.3662   1.4277   1.5304   1.6269
     1.7214   1.8473   1.9445   2.0660   2.2317   2.2592   2.4280   2.5694
     2.6798   2.8100   2.9074   2.9650

          k =-0.0922-0.0532 0.0000 ( 15808 PWs)   bands (ev):

   -71.1279 -71.0858 -71.0505 -71.0319 -70.8717 -70.6627 -70.6470 -70.6317
   -70.6200 -70.5982 -70.5963 -70.5829 -41.3118 -41.2750 -41.1952 -41.1783
   -41.1244 -41.1209 -41.0997 -41.0752 -41.0239 -41.0225 -40.9008 -40.8250
   -40.8010 -40.7776 -40.7706 -40.7642 -40.7405 -40.7281 -40.6200 -40.5978
   -40.5931 -40.5888 -40.5642 -40.5552 -40.5520 -40.5398 -40.5223 -40.4950
   -40.4856 -40.4690 -40.4575 -40.4539 -40.4229 -40.3507 -40.3377 -40.3227
    -6.5443  -3.0940  -3.0773  -2.4513  -2.4457  -2.4362  -2.4171  -2.1686
    -2.1282  -1.9979  -1.9790  -1.8743  -1.8616  -1.5833  -1.5480  -1.4578
    -1.4383  -1.0514  -1.0161  -0.9170  -0.8836  -0.8145  -0.7666  -0.4450
    -0.3847  -0.1592  -0.0941   0.0369   0.0614   0.1549   0.2023   0.2350
     0.3467   0.4266   0.4711   0.4778   0.5363   0.5596   0.5637   0.5676
     0.5854   1.0022   1.2067   1.2354   1.2558   1.3874   1.4156   1.6039
     1.7496   1.9290   1.9679   1.9751   1.9921   2.0804   2.1668   2.2620
     2.4265   2.4950   2.5360   2.9377

     the Fermi energy is     2.1231 ev

!    total energy              =   -2352.48045014 Ry
     Harris-Foulkes estimate   =   -2352.48043749 Ry
     estimated scf accuracy    <       0.00000865 Ry

     The total energy is the sum of the following terms:

     one-electron contribution =  -22045.80420187 Ry
     hartree contribution      =   11022.58855580 Ry
     xc contribution           =    -324.96355710 Ry
     ewald contribution        =    8995.79121946 Ry
     electric field correction =       0.00021868 Ry
     smearing contrib. (-TS)   =      -0.09268510 Ry

     convergence has been achieved in  23 iterations
 
 BEEF-vdW xc energy contributions
           1 :   -281.736077870434     
           2 :    258.516592187573     
           3 :   -218.366562311397     
           4 :    171.259960877049     
           5 :   -127.285807069438     
           6 :    93.6133685365961     
           7 :   -72.8773777772397     
           8 :    63.3278569016555     
           9 :   -60.4335006580783     
          10 :    59.1375462440793     
          11 :   -55.8257499017975     
          12 :    49.3126279704716     
          13 :   -40.6551830532715     
          14 :    32.1056931726421     
          15 :   -25.7960430593799     
          16 :    22.7312498251701     
          17 :   -22.4556764829941     
          18 :    23.4387977068688     
          19 :   -23.9082870744854     
          20 :    22.6923809388562     
          21 :   -19.6832967549115     
          22 :    15.7479284205420     
          23 :   -12.1885778237619     
          24 :    10.0561001454282     
          25 :   -9.65646857760493     
          26 :    10.4686273553569     
          27 :   -11.4734171578859     
          28 :    11.6948512302423     
          29 :   -10.6708724010871     
          30 :    8.62894386196240     
          31 :   -29.3406812709229     
          32 :   -22.2286161247961     

     Forces acting on atoms (Ry/au):


     negative rho (up, down):  9.097E-01 0.000E+00
     atom    1 type  1   force =     0.00144482    0.00078211    0.03115282
     atom    2 type  1   force =    -0.00144510    0.00075746    0.03117823
     atom    3 type  1   force =    -0.00002175   -0.00160898    0.03122225
     atom    4 type  1   force =     0.00002075    0.00006019    0.03558823
     atom    5 type  1   force =    -0.00002094    0.00687979   -0.00125324
     atom    6 type  1   force =     0.00001814   -0.00000195   -0.00318643
     atom    7 type  1   force =    -0.00595120   -0.00341782   -0.00123347
     atom    8 type  1   force =     0.00594992   -0.00344152   -0.00121597
     atom    9 type  1   force =    -0.00001972   -0.00006133    0.16086452
     atom   10 type  1   force =     0.00002649   -0.00335271   -0.03421835
     atom   11 type  1   force =    -0.00284800    0.00171922   -0.03419225
     atom   12 type  1   force =     0.00284593    0.00168861   -0.03415312
     atom   13 type  2   force =     0.00000067   -0.00000307   -0.18055322

     Total force =     0.257614     Total SCF correction =     0.018168


     entering subroutine stress ...


     negative rho (up, down):  9.097E-01 0.000E+00
          total   stress  (Ry/bohr**3)                   (kbar)     P=  -41.30
  -0.00020265   0.00000000  -0.00000000        -29.81      0.00     -0.00
   0.00000000  -0.00020257  -0.00000002          0.00    -29.80     -0.00
  -0.00000000  -0.00000002  -0.00043713         -0.00     -0.00    -64.30

 !ASE

     Writing output data file calc.save
 
     init_run     :     12.35s CPU     17.87s WALL (       1 calls)
     electrons    :    738.91s CPU   1025.70s WALL (       1 calls)
     forces       :      3.24s CPU      3.96s WALL (       1 calls)
     stress       :      8.78s CPU     10.22s WALL (       1 calls)

     Called by init_run:
     wfcinit      :     10.21s CPU     15.04s WALL (       1 calls)
     potinit      :      1.13s CPU      1.63s WALL (       1 calls)

     Called by electrons:
     c_bands      :    598.60s CPU    819.99s WALL (      23 calls)
     sum_band     :     76.02s CPU    113.30s WALL (      23 calls)
     v_of_rho     :     23.26s CPU     35.07s WALL (      24 calls)
     newd         :      8.72s CPU      9.11s WALL (      24 calls)
     mix_rho      :      0.90s CPU      1.40s WALL (      23 calls)
     vdW_energy   :      2.58s CPU      2.79s WALL (      60 calls)
     vdW_ffts     :     35.38s CPU     55.12s WALL (     122 calls)
     vdW_v        :      6.68s CPU      9.61s WALL (      60 calls)

     Called by c_bands:
     init_us_2    :      1.11s CPU      1.14s WALL (     980 calls)
     cegterg      :    590.10s CPU    810.42s WALL (     460 calls)

     Called by *egterg:
     h_psi        :    362.19s CPU    563.65s WALL (    2666 calls)
     s_psi        :     14.15s CPU     14.28s WALL (    2666 calls)
     g_psi        :      0.92s CPU      0.89s WALL (    2186 calls)
     cdiaghg      :    140.17s CPU    144.84s WALL (    2646 calls)

     Called by h_psi:
     add_vuspsi   :     14.50s CPU     14.56s WALL (    2666 calls)

     General routines
     calbec       :     30.00s CPU     36.31s WALL (    3166 calls)
     fft          :     53.81s CPU     83.85s WALL (    3687 calls)
     ffts         :      0.18s CPU      0.29s WALL (      47 calls)
     fftw         :    369.96s CPU    600.19s WALL (  326276 calls)
     interpolate  :      0.80s CPU      1.31s WALL (      47 calls)
     davcio       :      0.00s CPU      0.02s WALL (      20 calls)
 
     Parallel routines
     fft_scatter  :    384.28s CPU    641.68s WALL (  330010 calls)
 
     PWSCF        : 12m44.49s CPU    17m39.75s WALL

 
   This run was terminated on:   6:55:58  18Jan2018            

=------------------------------------------------------------------------------=
   JOB DONE.
=------------------------------------------------------------------------------=
Job  /afs/slac/g/suncat/bin/suncat-tsmpirun -x LD_LIBRARY_PATH -wdir /scratch/qe842477_5bi2D pw.x -in pw.inp

TID   HOST_NAME   COMMAND_LINE            STATUS            TERMINATION_TIME
===== ========== ================  =======================  ===================
00000 suncat0153 pw.x -in pw.inp   Done                     01/18/2018 06:55:58
00001 suncat0153 pw.x -in pw.inp   Done                     01/18/2018 06:55:58
00002 suncat0153 pw.x -in pw.inp   Done                     01/18/2018 06:55:58
00003 suncat0153 pw.x -in pw.inp   Done                     01/18/2018 06:55:58
00004 suncat0153 pw.x -in pw.inp   Done                     01/18/2018 06:55:58
00005 suncat0153 pw.x -in pw.inp   Done                     01/18/2018 06:55:58
00006 suncat0153 pw.x -in pw.inp   Done                     01/18/2018 06:55:58
00007 suncat0153 pw.x -in pw.inp   Done                     01/18/2018 06:55:58
00008 suncat0146 pw.x -in pw.inp   Done                     01/18/2018 06:55:58
00009 suncat0146 pw.x -in pw.inp   Done                     01/18/2018 06:55:58
00010 suncat0146 pw.x -in pw.inp   Done                     01/18/2018 06:55:58
00011 suncat0146 pw.x -in pw.inp   Done                     01/18/2018 06:55:58
00012 suncat0146 pw.x -in pw.inp   Done                     01/18/2018 06:55:58
00013 suncat0146 pw.x -in pw.inp   Done                     01/18/2018 06:55:58
00014 suncat0146 pw.x -in pw.inp   Done                     01/18/2018 06:55:58
00015 suncat0146 pw.x -in pw.inp   Done                     01/18/2018 06:55:58
00016 suncat0115 pw.x -in pw.inp   Done                     01/18/2018 06:55:58
00017 suncat0115 pw.x -in pw.inp   Done                     01/18/2018 06:55:58
00018 suncat0115 pw.x -in pw.inp   Done                     01/18/2018 06:55:58
00019 suncat0115 pw.x -in pw.inp   Done                     01/18/2018 06:55:58
00020 suncat0115 pw.x -in pw.inp   Done                     01/18/2018 06:55:58
00021 suncat0115 pw.x -in pw.inp   Done                     01/18/2018 06:55:58
00022 suncat0115 pw.x -in pw.inp   Done                     01/18/2018 06:55:58
00023 suncat0115 pw.x -in pw.inp   Done                     01/18/2018 06:55:58
00024 suncat0114 pw.x -in pw.inp   Done                     01/18/2018 06:55:58
00025 suncat0114 pw.x -in pw.inp   Done                     01/18/2018 06:55:58
00026 suncat0114 pw.x -in pw.inp   Done                     01/18/2018 06:55:58
00027 suncat0114 pw.x -in pw.inp   Done                     01/18/2018 06:55:58
00028 suncat0114 pw.x -in pw.inp   Done                     01/18/2018 06:55:58
00029 suncat0114 pw.x -in pw.inp   Done                     01/18/2018 06:55:58
00030 suncat0114 pw.x -in pw.inp   Done                     01/18/2018 06:55:58
00031 suncat0114 pw.x -in pw.inp   Done                     01/18/2018 06:55:58

     Program PWSCF v.5.1rc2 (svn rev. 11289) starts on 18Jan2018 at  6:56: 4 

     This program is part of the open-source Quantum ESPRESSO suite
     for quantum simulation of materials; please cite
         "P. Giannozzi et al., J. Phys.:Condens. Matter 21 395502 (2009);
          URL http://www.quantum-espresso.org", 
     in publications or presentations arising from this work. More details at
     http://www.quantum-espresso.org/quote

     Parallel version (MPI), running on    32 processors
     R & G space division:  proc/nbgrp/npool/nimage =      32
     Reading input from pw.inp
     Message from routine read_cards :
     DEPRECATED: no units specified in CELL_PARAMETERS card

     Current dimensions of program PWSCF are:
     Max number of different atomic species (ntypx) = 10
     Max number of k-points (npk) =  40000
     Max angular momentum in pseudopotentials (lmaxx) =  3
     Presently stress not available with electric field


     **************************************************************************
     Initializing libbeef V0.1.1 with the BEEF-vdW functional.
     Citation: Wellendorff et al., PRB 85, 235149 (2012).
     **************************************************************************


     IMPORTANT: XC functional enforced from input :
     Exchange-correlation      = BEEF-VDW ( 1  4 27 13 2)
     Any further DFT definition will be discarded
     Please, verify this is what you really want


     Subspace diagonalization in iterative solution of the eigenvalue problem:
     a serial algorithm will be used

 
     Parallelization info
     --------------------
     sticks:   dense  smooth     PW     G-vecs:    dense   smooth      PW
     Min          83      33      9                15610     3925     617
     Max          85      34     10                15618     3977     642
     Sum        2677    1069    313               499637   126395   20221
 


     bravais-lattice index     =            0
     lattice parameter (alat)  =       1.8897  a.u.
     unit-cell volume          =    4198.3539 (a.u.)^3
     number of atoms/cell      =           13
     number of atomic types    =            2
     number of electrons       =       196.00
     number of Kohn-Sham states=          108
     kinetic-energy cutoff     =      36.7493  Ry
     charge density cutoff     =     367.4932  Ry
     convergence threshold     =      1.0E-05
     mixing beta               =       0.3000
     number of iterations used =           10  plain     mixing
     Exchange-correlation      = BEEF-VDW ( 1  4 27 13 2)
     nstep                     =           50


     celldm(1)=   1.889726  celldm(2)=   0.000000  celldm(3)=   0.000000
     celldm(4)=   0.000000  celldm(5)=   0.000000  celldm(6)=   0.000000

     crystal axes: (cart. coord. in units of alat)
               a(1) = (   5.422927   0.000000   0.000000 )  
               a(2) = (   2.711463   4.696392   0.000000 )  
               a(3) = (   0.000000   0.000000  24.427801 )  

     reciprocal axes: (cart. coord. in units 2 pi/alat)
               b(1) = (  0.184402 -0.106465  0.000000 )  
               b(2) = (  0.000000  0.212929  0.000000 )  
               b(3) = (  0.000000  0.000000  0.040937 )  


     PseudoPot. # 1 for Ru read from file:
     /afs/slac.stanford.edu/u/if/mamunm/psp/gbrv1.5pbe/Ru.UPF
     MD5 check sum: 7158a806dd851261a58e6920c40ebe78
     Pseudo is Ultrasoft + core correction, Zval = 16.0
     Generated by new atomic code, or converted to UPF format
     Using radial grid of  967 points,  6 beta functions with: 
                l(1) =   0
                l(2) =   0
                l(3) =   1
                l(4) =   1
                l(5) =   2
                l(6) =   2
     Q(r) pseudized with  8 coefficients,  rinner =    1.300   1.300   1.300
                                                       1.300   1.300

     PseudoPot. # 2 for C  read from file:
     /afs/slac.stanford.edu/u/if/mamunm/psp/gbrv1.5pbe/C.UPF
     MD5 check sum: d1aef80898a10debaa0f26306b886e00
     Pseudo is Ultrasoft + core correction, Zval =  4.0
     Generated by new atomic code, or converted to UPF format
     Using radial grid of  721 points,  4 beta functions with: 
                l(1) =   0
                l(2) =   0
                l(3) =   1
                l(4) =   1
     Q(r) pseudized with  8 coefficients,  rinner =    1.100   1.100   1.100


     vdW kernel table read from file vdW_kernel_table
     MD5 check sum: 095c7af220d748ca6e76c0b4c6cfb241

     atomic species   valence    mass     pseudopotential
        Ru1           16.00   101.07000     Ru( 1.00)
        C1             4.00    12.01100     C ( 1.00)

     No symmetry found



   Cartesian axes

     site n.     atom                  positions (alat units)
         1           Ru1 tau(   1) = (   1.3557316   0.7827320  10.0000000  )
         2           Ru1 tau(   2) = (   4.0671949   0.7827320  10.0000000  )
         3           Ru1 tau(   3) = (   2.7114633   3.1309281  10.0000000  )
         4           Ru1 tau(   4) = (   5.4229265   3.1309281  10.0000000  )
         5           Ru1 tau(   5) = (   5.4229265   1.5654640  12.2139005  )
         6           Ru1 tau(   6) = (   2.7114633   1.5654640  12.2139005  )
         7           Ru1 tau(   7) = (   6.7786581   3.9136601  12.2139005  )
         8           Ru1 tau(   8) = (   4.0671949   3.9136601  12.2139005  )
         9           Ru1 tau(   9) = (   2.7114387   4.6963159  14.6278010  )
        10           Ru1 tau(  10) = (   5.4229595   4.6922238  14.3852579  )
        11           Ru1 tau(  11) = (   6.7751173   2.3503335  14.3852903  )
        12           Ru1 tau(  12) = (   4.0707332   2.3502955  14.3853390  )
        13           C1  tau(  13) = (   2.7114641   4.6963883  16.4233223  )

     number of k points=    20  Fermi-Dirac smearing, width (Ry)=  0.0110
                       cart. coord. in units 2pi/alat
        k(    1) = (   0.0000000   0.0000000   0.0000000), wk =   0.0555556
        k(    2) = (   0.0000000   0.0354882   0.0000000), wk =   0.1111111
        k(    3) = (   0.0000000   0.0709765   0.0000000), wk =   0.1111111
        k(    4) = (   0.0000000  -0.1064647   0.0000000), wk =   0.0555556
        k(    5) = (   0.0307337  -0.0177441   0.0000000), wk =   0.1111111
        k(    6) = (   0.0307337   0.0177441   0.0000000), wk =   0.1111111
        k(    7) = (   0.0307337   0.0532324   0.0000000), wk =   0.1111111
        k(    8) = (   0.0307337  -0.1242088   0.0000000), wk =   0.1111111
        k(    9) = (   0.0307337  -0.0887206   0.0000000), wk =   0.1111111
        k(   10) = (   0.0307337  -0.0532324   0.0000000), wk =   0.1111111
        k(   11) = (   0.0614674  -0.0354882   0.0000000), wk =   0.1111111
        k(   12) = (   0.0614674   0.0000000   0.0000000), wk =   0.1111111
        k(   13) = (   0.0614674   0.0354882   0.0000000), wk =   0.1111111
        k(   14) = (   0.0614674  -0.1419529   0.0000000), wk =   0.1111111
        k(   15) = (   0.0614674  -0.1064647   0.0000000), wk =   0.1111111
        k(   16) = (   0.0614674  -0.0709765   0.0000000), wk =   0.1111111
        k(   17) = (  -0.0922011   0.0532324   0.0000000), wk =   0.0555556
        k(   18) = (  -0.0922011   0.0887206   0.0000000), wk =   0.1111111
        k(   19) = (  -0.0922011   0.1242088   0.0000000), wk =   0.1111111
        k(   20) = (  -0.0922011  -0.0532324   0.0000000), wk =   0.0555556

     Dense  grid:   499637 G-vectors     FFT dimensions: (  64,  64, 288)

     Smooth grid:   126395 G-vectors     FFT dimensions: (  40,  40, 180)

     Largest allocated arrays     est. size (Mb)     dimensions
        Kohn-Sham Wavefunctions         0.85 Mb     (     516,  108)
        NL pseudopotentials             1.76 Mb     (     516,  224)
        Each V/rho on FFT grid          0.56 Mb     (   36864)
        Each G-vector array             0.12 Mb     (   15614)
        G-vector shells                 0.05 Mb     (    6919)
     Largest temporary arrays     est. size (Mb)     dimensions
        Auxiliary wavefunctions         3.40 Mb     (     516,  432)
        Each subspace H/S matrix        2.85 Mb     (     432,  432)
        Each <psi_i|beta_j> matrix      0.37 Mb     (     224,  108)
        Arrays for rho mixing           5.62 Mb     (   36864,   10)

     Initial potential from superposition of free atoms
     Check: negative starting charge=   -0.884388

     starting charge  183.99977, renormalised to  196.00000

     negative rho (up, down):  9.421E-01 0.000E+00


     ************************************************************************
     *
     * You are using vdW-DF for exchange-correlation in this calculation.
     * Please cite the following three references that made this development
     * possible:
     *
     *   M. Dion, H. Rydberg, E. Schroder, D. C. Langreth, and
     *   B. I. Lundqvist, Phys. Rev. Lett. 92, 246401 (2004).
     *
     *   T. Thonhauser, V. R. Cooper, S. Li, A. Puzder, P. Hyldgaard, and
     *   D. C. Langreth, Phys. Rev. B 76, 125112 (2007).
     *
     *   G. Roman-Perez and J. M. Soler, Phys. Rev. Lett. 103, 096102 (2009).
     *
     *
     * If you are using vdW-DF2, please also cite:
     *
     *   K. Lee, E. D. Murray, L. Kong, B. I. Lundqvist, and
     *   D. C. Langreth, Phys. Rev. B 82, 081101(R) (2010).
     *
     *
     * If you are calculating the stress with vdW-DF, please also cite:
     *
     *   R. Sabatini, E. Kucukbenli, B. Kolb, T. Thonhauser, and
     *   S. de Gironcoli, J. Phys.: Condens. Matter 24, 424209 (2012).
     *
     ************************************************************************

     Carrying out vdW-DF run using the following parameters:

     Nqs =      20    Nr_points =    1024   r_max =   100.000
     q_mesh =
               0.00001000     0.04494208     0.09755937     0.15916263
               0.23128650     0.31572767     0.41458969     0.53033537
               0.66584808     0.82450364     1.01025438     1.22772762
               1.48234092     1.78043706     2.12944203     2.53805004
               3.01644009     3.57652955     4.23227104     5.00000000

     Gradients computed in reciprocal space

     ************************************************************************


 
     Adding external electric field

     Computed dipole along edir(3) : 
        Dipole               -2.0718 Ry au,         -5.2661 Debye
        Dipole field         -0.0062 Ry au
 
        Potential amp.        0.5582 Ry
        Total length         45.0078 bohr
 
     Starting wfc are  160 randomized atomic wfcs

     total cpu time spent up to now is       28.9 secs

     per-process dynamical memory:    46.6 Mb

     Self-consistent Calculation

     iteration #  1     ecut=    36.75 Ry     beta=0.30
     Davidson diagonalization with overlap
     ethr =  1.00E-02,  avg # of iterations =  4.3

     negative rho (up, down):  9.357E-01 0.000E+00
 
     Adding external electric field

     Computed dipole along edir(3) : 
        Dipole               33.6490 Ry au,         85.5272 Debye
        Dipole field          0.1007 Ry au
 
        Potential amp.       -9.0661 Ry
        Total length         45.0078 bohr
 

     total cpu time spent up to now is       78.7 secs

     total energy              =   -2273.45790612 Ry
     Harris-Foulkes estimate   =   -2356.16567451 Ry
     estimated scf accuracy    <     173.02213119 Ry

     iteration #  2     ecut=    36.75 Ry     beta=0.30
     Davidson diagonalization with overlap
     ethr =  1.00E-02,  avg # of iterations = 15.8

     negative rho (up, down):  9.280E-01 0.000E+00
 
     Adding external electric field

     Computed dipole along edir(3) : 
        Dipole               -0.2394 Ry au,         -0.6086 Debye
        Dipole field         -0.0007 Ry au
 
        Potential amp.        0.0645 Ry
        Total length         45.0078 bohr
 

     total cpu time spent up to now is      190.3 secs

     total energy              =   -2138.38874305 Ry
     Harris-Foulkes estimate   =   -2748.98004995 Ry
     estimated scf accuracy    <   12943.83390836 Ry

     iteration #  3     ecut=    36.75 Ry     beta=0.30
     Davidson diagonalization with overlap
     ethr =  1.00E-02,  avg # of iterations =  8.4

     negative rho (up, down):  9.312E-01 0.000E+00
 
     Adding external electric field

     Computed dipole along edir(3) : 
        Dipole                2.0190 Ry au,          5.1318 Debye
        Dipole field          0.0060 Ry au
 
        Potential amp.       -0.5440 Ry
        Total length         45.0078 bohr
 

     total cpu time spent up to now is      278.7 secs

     total energy              =   -2343.99979961 Ry
     Harris-Foulkes estimate   =   -2422.29112846 Ry
     estimated scf accuracy    <     923.24927682 Ry

     iteration #  4     ecut=    36.75 Ry     beta=0.30
     Davidson diagonalization with overlap
     ethr =  1.00E-02,  avg # of iterations =  6.0

     negative rho (up, down):  9.311E-01 0.000E+00
 
     Adding external electric field

     Computed dipole along edir(3) : 
        Dipole                2.7747 Ry au,          7.0526 Debye
        Dipole field          0.0083 Ry au
 
        Potential amp.       -0.7476 Ry
        Total length         45.0078 bohr
 

     total cpu time spent up to now is      332.7 secs

     total energy              =   -2349.88568734 Ry
     Harris-Foulkes estimate   =   -2357.97940428 Ry
     estimated scf accuracy    <     140.13783461 Ry

     iteration #  5     ecut=    36.75 Ry     beta=0.30
     Davidson diagonalization with overlap
     ethr =  1.00E-02,  avg # of iterations =  3.9

     negative rho (up, down):  9.283E-01 0.000E+00
 
     Adding external electric field

     Computed dipole along edir(3) : 
        Dipole                0.9236 Ry au,          2.3475 Debye
        Dipole field          0.0028 Ry au
 
        Potential amp.       -0.2488 Ry
        Total length         45.0078 bohr
 

     total cpu time spent up to now is      367.4 secs

     total energy              =   -2351.90049422 Ry
     Harris-Foulkes estimate   =   -2353.68577100 Ry
     estimated scf accuracy    <      14.17982551 Ry

     iteration #  6     ecut=    36.75 Ry     beta=0.30
     Davidson diagonalization with overlap
     ethr =  7.23E-03,  avg # of iterations =  2.6

     negative rho (up, down):  9.259E-01 0.000E+00
 
     Adding external electric field

     Computed dipole along edir(3) : 
        Dipole                0.2585 Ry au,          0.6570 Debye
        Dipole field          0.0008 Ry au
 
        Potential amp.       -0.0696 Ry
        Total length         45.0078 bohr
 

     total cpu time spent up to now is      398.9 secs

     total energy              =   -2352.27985658 Ry
     Harris-Foulkes estimate   =   -2353.07359519 Ry
     estimated scf accuracy    <       5.09961277 Ry

     iteration #  7     ecut=    36.75 Ry     beta=0.30
     Davidson diagonalization with overlap
     ethr =  2.60E-03,  avg # of iterations =  4.7

     negative rho (up, down):  9.247E-01 0.000E+00
 
     Adding external electric field

     Computed dipole along edir(3) : 
        Dipole               -0.1048 Ry au,         -0.2664 Debye
        Dipole field         -0.0003 Ry au
 
        Potential amp.        0.0282 Ry
        Total length         45.0078 bohr
 

     total cpu time spent up to now is      434.6 secs

     total energy              =   -2351.00077385 Ry
     Harris-Foulkes estimate   =   -2353.61326840 Ry
     estimated scf accuracy    <      69.43253851 Ry

     iteration #  8     ecut=    36.75 Ry     beta=0.30
     Davidson diagonalization with overlap
     ethr =  2.60E-03,  avg # of iterations =  4.8

     negative rho (up, down):  9.239E-01 0.000E+00
 
     Adding external electric field

     Computed dipole along edir(3) : 
        Dipole               -0.1973 Ry au,         -0.5015 Debye
        Dipole field         -0.0006 Ry au
 
        Potential amp.        0.0532 Ry
        Total length         45.0078 bohr
 

     total cpu time spent up to now is      474.0 secs

     total energy              =   -2352.60146315 Ry
     Harris-Foulkes estimate   =   -2352.97712488 Ry
     estimated scf accuracy    <      25.23830931 Ry

     iteration #  9     ecut=    36.75 Ry     beta=0.30
     Davidson diagonalization with overlap
     ethr =  2.60E-03,  avg # of iterations =  1.1

     negative rho (up, down):  9.222E-01 0.000E+00
 
     Adding external electric field

     Computed dipole along edir(3) : 
        Dipole               -0.4870 Ry au,         -1.2379 Debye
        Dipole field         -0.0015 Ry au
 
        Potential amp.        0.1312 Ry
        Total length         45.0078 bohr
 

     total cpu time spent up to now is      503.4 secs

     total energy              =   -2352.29032109 Ry
     Harris-Foulkes estimate   =   -2352.70698907 Ry
     estimated scf accuracy    <       9.33106119 Ry

     iteration # 10     ecut=    36.75 Ry     beta=0.30
     Davidson diagonalization with overlap
     ethr =  2.60E-03,  avg # of iterations =  4.3

     negative rho (up, down):  9.217E-01 0.000E+00
 
     Adding external electric field

     Computed dipole along edir(3) : 
        Dipole               -0.5764 Ry au,         -1.4651 Debye
        Dipole field         -0.0017 Ry au
 
        Potential amp.        0.1553 Ry
        Total length         45.0078 bohr
 

     total cpu time spent up to now is      538.5 secs

     total energy              =   -2352.72017588 Ry
     Harris-Foulkes estimate   =   -2352.79837226 Ry
     estimated scf accuracy    <      11.61700235 Ry

     iteration # 11     ecut=    36.75 Ry     beta=0.30
     Davidson diagonalization with overlap
     ethr =  2.60E-03,  avg # of iterations =  1.0

     negative rho (up, down):  9.209E-01 0.000E+00
 
     Adding external electric field

     Computed dipole along edir(3) : 
        Dipole               -0.6747 Ry au,         -1.7149 Debye
        Dipole field         -0.0020 Ry au
 
        Potential amp.        0.1818 Ry
        Total length         45.0078 bohr
 

     total cpu time spent up to now is      568.1 secs

     total energy              =   -2352.57737451 Ry
     Harris-Foulkes estimate   =   -2352.74454752 Ry
     estimated scf accuracy    <       9.08639089 Ry

     iteration # 12     ecut=    36.75 Ry     beta=0.30
     Davidson diagonalization with overlap
     ethr =  2.60E-03,  avg # of iterations =  1.0

     negative rho (up, down):  9.206E-01 0.000E+00
 
     Adding external electric field

     Computed dipole along edir(3) : 
        Dipole               -0.7310 Ry au,         -1.8581 Debye
        Dipole field         -0.0022 Ry au
 
        Potential amp.        0.1970 Ry
        Total length         45.0078 bohr
 

     total cpu time spent up to now is      596.7 secs

     total energy              =   -2352.61473855 Ry
     Harris-Foulkes estimate   =   -2352.63452974 Ry
     estimated scf accuracy    <       1.15832457 Ry

     iteration # 13     ecut=    36.75 Ry     beta=0.30
     Davidson diagonalization with overlap
     ethr =  5.91E-04,  avg # of iterations =  1.4

     negative rho (up, down):  9.204E-01 0.000E+00
 
     Adding external electric field

     Computed dipole along edir(3) : 
        Dipole               -0.6481 Ry au,         -1.6474 Debye
        Dipole field         -0.0019 Ry au
 
        Potential amp.        0.1746 Ry
        Total length         45.0078 bohr
 

     total cpu time spent up to now is      625.9 secs

     total energy              =   -2352.60042154 Ry
     Harris-Foulkes estimate   =   -2352.62511863 Ry
     estimated scf accuracy    <       0.26123109 Ry

     iteration # 14     ecut=    36.75 Ry     beta=0.30
     Davidson diagonalization with overlap
     ethr =  1.33E-04,  avg # of iterations =  4.8

     negative rho (up, down):  9.206E-01 0.000E+00
 
     Adding external electric field

     Computed dipole along edir(3) : 
        Dipole               -0.5126 Ry au,         -1.3029 Debye
        Dipole field         -0.0015 Ry au
 
        Potential amp.        0.1381 Ry
        Total length         45.0078 bohr
 

     total cpu time spent up to now is      664.8 secs

     total energy              =   -2352.60045788 Ry
     Harris-Foulkes estimate   =   -2352.65176217 Ry
     estimated scf accuracy    <       2.28689284 Ry

     iteration # 15     ecut=    36.75 Ry     beta=0.30
     Davidson diagonalization with overlap
     ethr =  1.33E-04,  avg # of iterations =  4.0

     negative rho (up, down):  9.206E-01 0.000E+00
 
     Adding external electric field

     Computed dipole along edir(3) : 
        Dipole               -0.4629 Ry au,         -1.1766 Debye
        Dipole field         -0.0014 Ry au
 
        Potential amp.        0.1247 Ry
        Total length         45.0078 bohr
 

     total cpu time spent up to now is      698.5 secs

     total energy              =   -2352.62323385 Ry
     Harris-Foulkes estimate   =   -2352.62469046 Ry
[...]
    -0.3579  -0.3481  -0.1915  -0.1444  -0.0279   0.0707   0.1690   0.1901
     0.2931   0.3241   0.4166   0.6177   0.7780   1.0174   1.0897   1.1405
     1.1667   1.2953   1.3264   1.5714   1.6632   1.7162   1.7309   1.8295
     1.9834   2.1218   2.4059   2.4485   2.5689   2.6610   2.7786   2.8298
     2.9576   3.1361   3.1763   3.1854

          k = 0.0615-0.0355 0.0000 ( 15793 PWs)   bands (ev):

   -71.1664 -71.0776 -71.0398 -71.0248 -70.9092 -70.6855 -70.6659 -70.6265
   -70.6128 -70.5862 -70.5498 -70.5356 -41.3927 -41.3528 -41.3450 -41.3020
   -41.2581 -41.1613 -41.1369 -41.1180 -41.0006 -40.9939 -40.8940 -40.8801
   -40.8519 -40.8452 -40.8129 -40.7809 -40.7445 -40.7202 -40.7108 -40.5941
   -40.5891 -40.5414 -40.5317 -40.5091 -40.5089 -40.4871 -40.4767 -40.4495
   -40.4454 -40.4327 -40.4228 -40.4181 -40.3700 -40.3456 -40.3401 -40.2557
    -7.0530  -3.7354  -3.1139  -2.8623  -2.8003  -2.7308  -2.6548  -2.5527
    -2.5357  -2.3848  -2.3366  -2.3125  -2.2650  -1.9568  -1.7107  -1.6003
    -1.3908  -1.3769  -1.2404  -1.0976  -1.0077  -0.7920  -0.7051  -0.6084
    -0.3956  -0.3498  -0.2716  -0.0622  -0.0326   0.0472   0.1443   0.2012
     0.2544   0.3316   0.4970   0.5149   0.7079   0.8684   0.9801   1.0968
     1.1177   1.1941   1.2124   1.3729   1.3979   1.5542   1.6012   1.6938
     1.8793   2.1646   2.2807   2.3661   2.3815   2.4614   2.5364   2.6584
     2.8545   2.8923   3.0202   3.1825

          k = 0.0615 0.0000 0.0000 ( 15768 PWs)   bands (ev):

   -71.1693 -71.0767 -71.0385 -71.0239 -70.9097 -70.6875 -70.6681 -70.6241
   -70.6124 -70.5865 -70.5482 -70.5349 -41.4096 -41.3678 -41.3499 -41.3299
   -41.2707 -41.1634 -41.1441 -41.1240 -41.0103 -40.9157 -40.9027 -40.8946
   -40.8668 -40.8547 -40.8205 -40.7858 -40.7596 -40.7441 -40.7076 -40.5916
   -40.5875 -40.5341 -40.5173 -40.5063 -40.4993 -40.4840 -40.4735 -40.4494
   -40.4312 -40.4244 -40.3999 -40.3933 -40.3713 -40.3411 -40.3352 -40.2499
    -7.0576  -3.9187  -3.0928  -3.0598  -2.9320  -2.7938  -2.7577  -2.7049
    -2.5947  -2.5702  -2.4686  -2.4047  -2.3611  -1.9556  -1.9106  -1.7280
    -1.4954  -1.4097  -1.2096  -1.0811  -0.8954  -0.7624  -0.6396  -0.5667
    -0.3580  -0.3480  -0.1914  -0.1444  -0.0279   0.0707   0.1690   0.1901
     0.2931   0.3241   0.4166   0.6177   0.7780   1.0174   1.0897   1.1406
     1.1667   1.2953   1.3264   1.5715   1.6631   1.7162   1.7309   1.8295
     1.9834   2.1218   2.4059   2.4485   2.5689   2.6610   2.7785   2.8297
     2.9576   3.1360   3.1763   3.1854

          k = 0.0615 0.0355 0.0000 ( 15793 PWs)   bands (ev):

   -71.1664 -71.0778 -71.0394 -71.0251 -70.9092 -70.6855 -70.6658 -70.6271
   -70.6124 -70.5863 -70.5496 -70.5357 -41.3925 -41.3530 -41.3451 -41.3019
   -41.2581 -41.1611 -41.1372 -41.1180 -41.0006 -40.9941 -40.8941 -40.8799
   -40.8518 -40.8450 -40.8129 -40.7809 -40.7445 -40.7201 -40.7110 -40.5941
   -40.5891 -40.5412 -40.5318 -40.5092 -40.5086 -40.4872 -40.4768 -40.4496
   -40.4457 -40.4326 -40.4229 -40.4181 -40.3700 -40.3455 -40.3400 -40.2558
    -7.0530  -3.7354  -3.1138  -2.8623  -2.8003  -2.7307  -2.6548  -2.5525
    -2.5359  -2.3847  -2.3366  -2.3126  -2.2650  -1.9568  -1.7107  -1.6002
    -1.3908  -1.3769  -1.2404  -1.0976  -1.0076  -0.7918  -0.7051  -0.6086
    -0.3956  -0.3497  -0.2718  -0.0622  -0.0327   0.0472   0.1444   0.2014
     0.2542   0.3316   0.4971   0.5149   0.7079   0.8684   0.9799   1.0966
     1.1177   1.1941   1.2125   1.3729   1.3980   1.5541   1.6011   1.6939
     1.8794   2.1645   2.2808   2.3660   2.3815   2.4613   2.5364   2.6585
     2.8545   2.8922   3.0202   3.1825

          k = 0.0615-0.1420 0.0000 ( 15803 PWs)   bands (ev):

   -71.1604 -71.0758 -71.0499 -71.0227 -70.9082 -70.6814 -70.6588 -70.6358
   -70.6118 -70.5827 -70.5590 -70.5341 -41.3441 -41.3426 -41.2854 -41.2700
   -41.2160 -41.1666 -41.1252 -41.1192 -41.0815 -40.9997 -40.9167 -40.8577
   -40.8549 -40.7962 -40.7811 -40.7630 -40.7286 -40.6997 -40.6724 -40.6360
   -40.5890 -40.5813 -40.5730 -40.5245 -40.5115 -40.5002 -40.4940 -40.4745
   -40.4530 -40.4338 -40.4262 -40.4146 -40.4031 -40.3710 -40.3430 -40.2891
    -7.0442  -3.2295  -2.8513  -2.5931  -2.5517  -2.4794  -2.3826  -2.3276
    -2.2439  -2.1416  -2.1192  -1.9443  -1.9101  -1.7543  -1.5807  -1.5034
    -1.4441  -1.2715  -1.2361  -1.1199  -0.9562  -0.8994  -0.8740  -0.7059
    -0.5916  -0.5172  -0.4022  -0.2366  -0.1590  -0.1077  -0.0002   0.0346
     0.0993   0.2815   0.3643   0.4088   0.4759   0.5400   0.6894   0.7747
     0.7844   0.8992   1.1253   1.2022   1.2986   1.3809   1.5169   1.6259
     1.7713   1.8678   2.0170   2.0889   2.2654   2.3652   2.4600   2.6567
     2.7865   2.8606   2.9843   3.1321

          k = 0.0615-0.1065 0.0000 ( 15828 PWs)   bands (ev):

   -71.1574 -71.0668 -71.0639 -71.0207 -70.9077 -70.6794 -70.6491 -70.6465
   -70.6114 -70.5727 -70.5723 -70.5326 -41.3415 -41.2686 -41.2663 -41.2482
   -41.2169 -41.1708 -41.1564 -41.1122 -41.0920 -41.0357 -40.8877 -40.8732
   -40.8118 -40.8066 -40.7895 -40.7140 -40.7064 -40.7004 -40.6586 -40.6478
   -40.6085 -40.6060 -40.5955 -40.5798 -40.5072 -40.5031 -40.4730 -40.4684
   -40.4590 -40.4469 -40.4257 -40.4149 -40.4056 -40.3572 -40.3525 -40.3393
    -7.0399  -2.6576  -2.6306  -2.6073  -2.3541  -2.1777  -2.1418  -2.1238
    -2.0889  -2.0056  -1.9917  -1.9240  -1.7695  -1.7302  -1.6898  -1.6523
    -1.3858  -1.2650  -1.1258  -1.0991  -1.0136  -0.7662  -0.7423  -0.6999
    -0.6345  -0.6167  -0.5311  -0.4062  -0.3919  -0.3897  -0.3845  -0.2162
    -0.1011  -0.0889   0.2215   0.2310   0.3508   0.4758   0.5383   0.5896
     0.6336   0.9543   0.9774   1.1356   1.3625   1.4219   1.6237   1.6837
     1.9246   1.9400   2.0160   2.0438   2.3163   2.7070   2.7541   2.7993
     2.8609   2.8948   3.0537   3.1617

          k = 0.0615-0.0710 0.0000 ( 15803 PWs)   bands (ev):

   -71.1604 -71.0756 -71.0503 -71.0225 -70.9082 -70.6814 -70.6590 -70.6353
   -70.6121 -70.5825 -70.5592 -70.5340 -41.3442 -41.3427 -41.2853 -41.2699
   -41.2160 -41.1668 -41.1249 -41.1191 -41.0813 -40.9998 -40.9169 -40.8576
   -40.8551 -40.7962 -40.7811 -40.7630 -40.7285 -40.6997 -40.6725 -40.6360
   -40.5889 -40.5813 -40.5729 -40.5244 -40.5115 -40.5002 -40.4942 -40.4745
   -40.4529 -40.4337 -40.4262 -40.4146 -40.4031 -40.3712 -40.3431 -40.2890
    -7.0442  -3.2295  -2.8513  -2.5931  -2.5518  -2.4796  -2.3826  -2.3276
    -2.2438  -2.1416  -2.1192  -1.9443  -1.9101  -1.7543  -1.5806  -1.5034
    -1.4441  -1.2715  -1.2360  -1.1199  -0.9562  -0.8994  -0.8740  -0.7059
    -0.5916  -0.5173  -0.4020  -0.2368  -0.1591  -0.1077  -0.0002   0.0345
     0.0995   0.2816   0.3644   0.4089   0.4758   0.5401   0.6895   0.7747
     0.7844   0.8992   1.1253   1.2022   1.2986   1.3809   1.5170   1.6259
     1.7713   1.8678   2.0170   2.0889   2.2654   2.3652   2.4600   2.6568
     2.7865   2.8606   2.9843   3.1321

          k =-0.0922 0.0532 0.0000 ( 15808 PWs)   bands (ev):

   -71.1601 -71.0786 -71.0452 -71.0248 -70.9082 -70.6813 -70.6598 -70.6339
   -70.6128 -70.5846 -70.5557 -70.5356 -41.3533 -41.3433 -41.2955 -41.2745
   -41.1793 -41.1393 -41.1346 -41.1240 -41.0665 -41.0359 -40.9582 -40.8691
   -40.8253 -40.8080 -40.7705 -40.7481 -40.7195 -40.7040 -40.6270 -40.6098
   -40.5892 -40.5846 -40.5668 -40.5561 -40.5364 -40.5174 -40.5012 -40.4727
   -40.4666 -40.4389 -40.4255 -40.4226 -40.4152 -40.3603 -40.3167 -40.2825
    -7.0441  -3.1473  -3.0941  -2.6139  -2.5390  -2.5155  -2.3888  -2.3013
    -2.2824  -2.0813  -2.0519  -1.9843  -1.8580  -1.6994  -1.6571  -1.5569
    -1.4231  -1.3017  -1.1323  -1.0690  -0.9491  -0.9030  -0.8449  -0.7448
    -0.5967  -0.5169  -0.2326  -0.1502  -0.1307   0.1068   0.1557   0.2335
     0.2908   0.3488   0.3672   0.3985   0.4883   0.5026   0.5438   0.5608
     0.6189   0.9642   1.0840   1.1486   1.2917   1.4026   1.4965   1.6077
     1.6866   1.8383   1.9595   1.9992   2.0670   2.0775   2.2867   2.5473
     2.5726   2.6022   2.6640   2.8722

          k =-0.0922 0.0887 0.0000 ( 15803 PWs)   bands (ev):

   -71.1604 -71.0755 -71.0503 -71.0225 -70.9082 -70.6814 -70.6591 -70.6352
   -70.6121 -70.5825 -70.5593 -70.5340 -41.3441 -41.3427 -41.2853 -41.2699
   -41.2160 -41.1668 -41.1249 -41.1191 -41.0813 -40.9999 -40.9169 -40.8576
   -40.8551 -40.7962 -40.7811 -40.7630 -40.7285 -40.6997 -40.6725 -40.6361
   -40.5889 -40.5813 -40.5728 -40.5243 -40.5115 -40.5002 -40.4943 -40.4745
   -40.4529 -40.4336 -40.4262 -40.4146 -40.4031 -40.3712 -40.3431 -40.2890
    -7.0442  -3.2295  -2.8513  -2.5931  -2.5518  -2.4796  -2.3826  -2.3277
    -2.2439  -2.1416  -2.1192  -1.9443  -1.9101  -1.7543  -1.5806  -1.5034
    -1.4442  -1.2715  -1.2360  -1.1199  -0.9562  -0.8994  -0.8740  -0.7060
    -0.5916  -0.5173  -0.4020  -0.2368  -0.1591  -0.1077  -0.0002   0.0345
     0.0995   0.2816   0.3644   0.4089   0.4758   0.5401   0.6895   0.7747
     0.7844   0.8993   1.1253   1.2022   1.2986   1.3809   1.5170   1.6259
     1.7713   1.8678   2.0170   2.0890   2.2654   2.3652   2.4599   2.6568
     2.7864   2.8606   2.9843   3.1321

          k =-0.0922 0.1242 0.0000 ( 15803 PWs)   bands (ev):

   -71.1604 -71.0757 -71.0500 -71.0226 -70.9082 -70.6814 -70.6589 -70.6356
   -70.6120 -70.5826 -70.5591 -70.5340 -41.3441 -41.3426 -41.2854 -41.2700
   -41.2160 -41.1667 -41.1248 -41.1193 -41.0812 -41.0001 -40.9167 -40.8577
   -40.8549 -40.7961 -40.7811 -40.7630 -40.7286 -40.6998 -40.6725 -40.6361
   -40.5889 -40.5813 -40.5727 -40.5243 -40.5115 -40.5002 -40.4943 -40.4745
   -40.4532 -40.4337 -40.4263 -40.4146 -40.4031 -40.3710 -40.3430 -40.2890
    -7.0442  -3.2295  -2.8513  -2.5930  -2.5518  -2.4794  -2.3825  -2.3278
    -2.2440  -2.1416  -2.1192  -1.9442  -1.9101  -1.7543  -1.5805  -1.5034
    -1.4443  -1.2714  -1.2361  -1.1199  -0.9562  -0.8994  -0.8740  -0.7060
    -0.5916  -0.5173  -0.4022  -0.2366  -0.1592  -0.1077  -0.0001   0.0344
     0.0995   0.2815   0.3644   0.4088   0.4758   0.5401   0.6895   0.7747
     0.7844   0.8993   1.1254   1.2021   1.2986   1.3808   1.5171   1.6259
     1.7713   1.8678   2.0169   2.0889   2.2654   2.3653   2.4599   2.6568
     2.7864   2.8606   2.9843   3.1322

          k =-0.0922-0.0532 0.0000 ( 15808 PWs)   bands (ev):

   -71.1601 -71.0789 -71.0447 -71.0251 -70.9082 -70.6812 -70.6594 -70.6346
   -70.6124 -70.5847 -70.5554 -70.5358 -41.3530 -41.3433 -41.2958 -41.2745
   -41.1791 -41.1393 -41.1346 -41.1242 -41.0667 -41.0361 -40.9578 -40.8692
   -40.8250 -40.8079 -40.7706 -40.7480 -40.7197 -40.7040 -40.6268 -40.6101
   -40.5893 -40.5847 -40.5665 -40.5561 -40.5364 -40.5172 -40.5013 -40.4727
   -40.4666 -40.4393 -40.4255 -40.4229 -40.4151 -40.3600 -40.3165 -40.2827
    -7.0441  -3.1472  -3.0942  -2.6136  -2.5392  -2.5154  -2.3890  -2.3014
    -2.2822  -2.0812  -2.0521  -1.9842  -1.8580  -1.6993  -1.6570  -1.5570
    -1.4233  -1.3016  -1.1324  -1.0690  -0.9492  -0.9031  -0.8449  -0.7446
    -0.5966  -0.5167  -0.2327  -0.1501  -0.1305   0.1067   0.1554   0.2329
     0.2909   0.3488   0.3674   0.3983   0.4884   0.5026   0.5438   0.5608
     0.6188   0.9642   1.0840   1.1485   1.2917   1.4026   1.4965   1.6077
     1.6866   1.8381   1.9596   1.9992   2.0670   2.0774   2.2869   2.5474
     2.5725   2.6022   2.6640   2.8721

     the Fermi energy is     2.1542 ev

!    total energy              =   -2352.64636684 Ry
     Harris-Foulkes estimate   =   -2352.64636989 Ry
     estimated scf accuracy    <       0.00000427 Ry

     The total energy is the sum of the following terms:

     one-electron contribution =  -22179.41212436 Ry
     hartree contribution      =   11089.44167179 Ry
     xc contribution           =    -325.45829896 Ry
     ewald contribution        =    9062.86842517 Ry
     electric field correction =       0.00019810 Ry
     smearing contrib. (-TS)   =      -0.08623858 Ry

     convergence has been achieved in  25 iterations
 
 BEEF-vdW xc energy contributions
           1 :   -282.220103889001     
           2 :    259.079328520447     
           3 :   -219.040699821304     
           4 :    172.000893133415     
           5 :   -127.978964300338     
           6 :    94.1220993800723     
           7 :   -73.1079199611886     
           8 :    63.2775029502716     
           9 :   -60.1952650102951     
          10 :    58.8590477791129     
          11 :   -55.6450229825261     
          12 :    49.3024917740141     
          13 :   -40.7997188083365     
          14 :    32.3156146276005     
          15 :   -25.9535008682907     
          16 :    22.7439658793338     
          17 :   -22.2986087165635     
          18 :    23.1659466868387     
          19 :   -23.6285295624344     
          20 :    22.5197389099134     
          21 :   -19.6836017749038     
          22 :    15.9064504815900     
          23 :   -12.4155015993377     
          24 :    10.2288032078479     
          25 :   -9.67931061606407     
          26 :    10.3209969889413     
          27 :   -11.2209347345669     
          28 :    11.4571564512794     
          29 :   -10.5612988393856     
          30 :    8.69591461837126     
          31 :   -29.3707798846266     
          32 :   -22.2758379231213     

     Forces acting on atoms (Ry/au):


     negative rho (up, down):  9.168E-01 0.000E+00
     atom    1 type  1   force =    -0.00153773   -0.00088394    0.02244587
     atom    2 type  1   force =     0.00153515   -0.00088302    0.02242648
     atom    3 type  1   force =     0.00000161    0.00177603    0.02242784
     atom    4 type  1   force =    -0.00000947    0.00000821    0.05077068
     atom    5 type  1   force =    -0.00001852    0.00564105   -0.03018432
     atom    6 type  1   force =     0.00001722   -0.00003357   -0.02767217
     atom    7 type  1   force =    -0.00490755   -0.00279423   -0.03017011
     atom    8 type  1   force =     0.00490132   -0.00281989   -0.03016126
     atom    9 type  1   force =    -0.00002815    0.00002964   -0.00033700
     atom   10 type  1   force =     0.00003472    0.00056413   -0.00013878
     atom   11 type  1   force =     0.00047723   -0.00029132   -0.00017675
     atom   12 type  1   force =    -0.00046004   -0.00031373   -0.00009133
     atom   13 type  2   force =    -0.00000578    0.00000064    0.00086084

     Total force =     0.087699     Total SCF correction =     0.014234
     SCF correction compared to forces is large: reduce conv_thr to get better values


     entering subroutine stress ...


     negative rho (up, down):  9.168E-01 0.000E+00
          total   stress  (Ry/bohr**3)                   (kbar)     P=  -21.55
  -0.00016419   0.00000005   0.00000001        -24.15      0.01      0.00
   0.00000005  -0.00016408  -0.00000002          0.01    -24.14     -0.00
   0.00000001  -0.00000002  -0.00011114          0.00     -0.00    -16.35

 !ASE

     Writing output data file calc.save
 
     init_run     :     13.35s CPU     19.08s WALL (       1 calls)
     electrons    :    759.37s CPU   1038.76s WALL (       1 calls)
     forces       :      3.25s CPU      3.80s WALL (       1 calls)
     stress       :      8.10s CPU      9.07s WALL (       1 calls)

     Called by init_run:
     wfcinit      :     10.39s CPU     15.09s WALL (       1 calls)
     potinit      :      1.25s CPU      1.63s WALL (       1 calls)

     Called by electrons:
     c_bands      :    605.38s CPU    818.70s WALL (      25 calls)
     sum_band     :     85.36s CPU    124.41s WALL (      25 calls)
     v_of_rho     :     26.63s CPU     37.31s WALL (      26 calls)
     newd         :      9.42s CPU      9.84s WALL (      26 calls)
     mix_rho      :      1.07s CPU      1.54s WALL (      25 calls)
     vdW_energy   :      2.71s CPU      2.94s WALL (      62 calls)
     vdW_ffts     :     37.45s CPU     56.13s WALL (     126 calls)
     vdW_v        :      7.11s CPU      9.90s WALL (      62 calls)

     Called by c_bands:
     init_us_2    :      1.15s CPU      1.21s WALL (    1060 calls)
     cegterg      :    595.95s CPU    808.35s WALL (     500 calls)

     Called by *egterg:
     h_psi        :    387.02s CPU    581.29s WALL (    2439 calls)
     s_psi        :     14.41s CPU     14.61s WALL (    2439 calls)
     g_psi        :      0.87s CPU      0.88s WALL (    1919 calls)
     cdiaghg      :    122.24s CPU    126.69s WALL (    2419 calls)

     Called by h_psi:
     add_vuspsi   :     14.73s CPU     14.85s WALL (    2439 calls)

     General routines
     calbec       :     30.01s CPU     36.12s WALL (    2979 calls)
     fft          :     57.39s CPU     85.80s WALL (    3819 calls)
     ffts         :      0.22s CPU      0.33s WALL (      51 calls)
     fftw         :    400.82s CPU    625.67s WALL (  339430 calls)
     interpolate  :      0.98s CPU      1.44s WALL (      51 calls)
     davcio       :      0.00s CPU      0.02s WALL (      20 calls)
 
     Parallel routines
     fft_scatter  :    416.90s CPU    667.89s WALL (  343300 calls)
 
     PWSCF        : 13m 4.86s CPU    17m52.00s WALL

 
   This run was terminated on:   9:20:40  18Jan2018            

=------------------------------------------------------------------------------=
   JOB DONE.
=------------------------------------------------------------------------------=
Job  /afs/slac/g/suncat/bin/suncat-tsmpirun -x LD_LIBRARY_PATH -wdir /scratch/qe842477_5bi2D pw.x -in pw.inp

TID   HOST_NAME   COMMAND_LINE            STATUS            TERMINATION_TIME
===== ========== ================  =======================  ===================
00000 suncat0153 pw.x -in pw.inp   Done                     01/18/2018 09:20:40
00001 suncat0153 pw.x -in pw.inp   Done                     01/18/2018 09:20:40
00002 suncat0153 pw.x -in pw.inp   Done                     01/18/2018 09:20:40
00003 suncat0153 pw.x -in pw.inp   Done                     01/18/2018 09:20:40
00004 suncat0153 pw.x -in pw.inp   Done                     01/18/2018 09:20:40
00005 suncat0153 pw.x -in pw.inp   Done                     01/18/2018 09:20:40
00006 suncat0153 pw.x -in pw.inp   Done                     01/18/2018 09:20:40
00007 suncat0153 pw.x -in pw.inp   Done                     01/18/2018 09:20:40
00008 suncat0146 pw.x -in pw.inp   Done                     01/18/2018 09:20:40
00009 suncat0146 pw.x -in pw.inp   Done                     01/18/2018 09:20:40
00010 suncat0146 pw.x -in pw.inp   Done                     01/18/2018 09:20:40
00011 suncat0146 pw.x -in pw.inp   Done                     01/18/2018 09:20:40
00012 suncat0146 pw.x -in pw.inp   Done                     01/18/2018 09:20:40
00013 suncat0146 pw.x -in pw.inp   Done                     01/18/2018 09:20:40
00014 suncat0146 pw.x -in pw.inp   Done                     01/18/2018 09:20:40
00015 suncat0146 pw.x -in pw.inp   Done                     01/18/2018 09:20:40
00016 suncat0115 pw.x -in pw.inp   Done                     01/18/2018 09:20:40
00017 suncat0115 pw.x -in pw.inp   Done                     01/18/2018 09:20:40
00018 suncat0115 pw.x -in pw.inp   Done                     01/18/2018 09:20:40
00019 suncat0115 pw.x -in pw.inp   Done                     01/18/2018 09:20:40
00020 suncat0115 pw.x -in pw.inp   Done                     01/18/2018 09:20:40
00021 suncat0115 pw.x -in pw.inp   Done                     01/18/2018 09:20:40
00022 suncat0115 pw.x -in pw.inp   Done                     01/18/2018 09:20:40
00023 suncat0115 pw.x -in pw.inp   Done                     01/18/2018 09:20:40
00024 suncat0114 pw.x -in pw.inp   Done                     01/18/2018 09:20:40
00025 suncat0114 pw.x -in pw.inp   Done                     01/18/2018 09:20:40
00026 suncat0114 pw.x -in pw.inp   Done                     01/18/2018 09:20:40
00027 suncat0114 pw.x -in pw.inp   Done                     01/18/2018 09:20:40
00028 suncat0114 pw.x -in pw.inp   Done                     01/18/2018 09:20:40
00029 suncat0114 pw.x -in pw.inp   Done                     01/18/2018 09:20:40
00030 suncat0114 pw.x -in pw.inp   Done                     01/18/2018 09:20:40
00031 suncat0114 pw.x -in pw.inp   Done                     01/18/2018 09:20:40
