  python dir          : /u/if/mamunm/src/espresso
  espresso dir        : /nfs/slac/g/suncatfs/sw/espv18/espresso-dynpy-beef/bin
  pseudo dir          : /u/if/mamunm/psp/gbrv1.5pbe
  ase-espresso py git : GITVERSION



     Program PWSCF v.5.1rc2 (svn rev. 11289) starts on  2May2018 at 11:50:49 

     This program is part of the open-source Quantum ESPRESSO suite
     for quantum simulation of materials; please cite
         "P. Giannozzi et al., J. Phys.:Condens. Matter 21 395502 (2009);
          URL http://www.quantum-espresso.org", 
     in publications or presentations arising from this work. More details at
     http://www.quantum-espresso.org/quote

     Parallel version (MPI), running on    32 processors
     K-points division:     npool     =       4
     R & G space division:  proc/nbgrp/npool/nimage =       8
     Reading input from pw.inp
     Message from routine read_cards :
     DEPRECATED: no units specified in CELL_PARAMETERS card

     Current dimensions of program PWSCF are:
     Max number of different atomic species (ntypx) = 10
     Max number of k-points (npk) =  40000
     Max angular momentum in pseudopotentials (lmaxx) =  3
     Presently stress not available with electric field


     **************************************************************************
     Initializing libbeef V0.1.1 with the BEEF-vdW functional.
     Citation: Wellendorff et al., PRB 85, 235149 (2012).
     **************************************************************************


     IMPORTANT: XC functional enforced from input :
     Exchange-correlation      = BEEF-VDW ( 1  4 27 13 2)
     Any further DFT definition will be discarded
     Please, verify this is what you really want


     Subspace diagonalization in iterative solution of the eigenvalue problem:
     a serial algorithm will be used

 
     Parallelization info
     --------------------
     sticks:   dense  smooth     PW     G-vecs:    dense   smooth      PW
     Min         302     120     36                56578    14283    2310
     Max         304     121     38                56589    14330    2317
     Sum        2419     967    295               452661   114411   18499
 


     bravais-lattice index     =            0
     lattice parameter (alat)  =       1.8897  a.u.
     unit-cell volume          =    3807.2308 (a.u.)^3
     number of atoms/cell      =           13
     number of atomic types    =            2
     number of electrons       =       233.00
     number of Kohn-Sham states=          126
     kinetic-energy cutoff     =      36.7493  Ry
     charge density cutoff     =     367.4932  Ry
     convergence threshold     =      1.0E-05
     mixing beta               =       0.3000
     number of iterations used =           10  plain     mixing
     Exchange-correlation      = BEEF-VDW ( 1  4 27 13 2)
     nstep                     =           50


     celldm(1)=   1.889726  celldm(2)=   0.000000  celldm(3)=   0.000000
     celldm(4)=   0.000000  celldm(5)=   0.000000  celldm(6)=   0.000000

     crystal axes: (cart. coord. in units of alat)
               a(1) = (   5.184823   0.000000   0.000000 )  
               a(2) = (   2.592411   4.490188   0.000000 )  
               a(3) = (   0.000000   0.000000  24.233390 )  

     reciprocal axes: (cart. coord. in units 2 pi/alat)
               b(1) = (  0.192871 -0.111354  0.000000 )  
               b(2) = (  0.000000  0.222708  0.000000 )  
               b(3) = (  0.000000  0.000000  0.041265 )  


     PseudoPot. # 1 for Cu read from file:
     /u/if/mamunm/psp/gbrv1.5pbe/Cu.UPF
     MD5 check sum: 6e991ff952a84172a2a52a1c1e996048
     Pseudo is Ultrasoft + core correction, Zval = 19.0
     Generated by new atomic code, or converted to UPF format
     Using radial grid of  867 points,  6 beta functions with: 
                l(1) =   0
                l(2) =   0
                l(3) =   1
                l(4) =   1
                l(5) =   2
                l(6) =   2
     Q(r) pseudized with  8 coefficients,  rinner =    1.150   1.150   1.150
                                                       1.150   1.150

     PseudoPot. # 2 for N  read from file:
     /u/if/mamunm/psp/gbrv1.5pbe/N.UPF
     MD5 check sum: 95339753478d7afb44899504a8723017
     Pseudo is Ultrasoft + core correction, Zval =  5.0
     Generated by new atomic code, or converted to UPF format
     Using radial grid of  729 points,  4 beta functions with: 
                l(1) =   0
                l(2) =   0
                l(3) =   1
                l(4) =   1
     Q(r) pseudized with  8 coefficients,  rinner =    0.900   0.900   0.900


     vdW kernel table read from file vdW_kernel_table
     MD5 check sum: 095c7af220d748ca6e76c0b4c6cfb241

     atomic species   valence    mass     pseudopotential
        Cu1           19.00    63.54600     Cu( 1.00)
        N1             5.00    14.00700     N ( 1.00)

     No symmetry found



   Cartesian axes

     site n.     atom                  positions (alat units)
         1           Cu1 tau(   1) = (   1.2962057   0.7483647  10.0000000  )
         2           Cu1 tau(   2) = (   3.8886170   0.7483647  10.0000000  )
         3           Cu1 tau(   3) = (   2.5924113   2.9934587  10.0000000  )
         4           Cu1 tau(   4) = (   5.1848226   2.9934587  10.0000000  )
         5           Cu1 tau(   5) = (   5.1848226   1.4967294  12.1166950  )
         6           Cu1 tau(   6) = (   2.5924113   1.4967294  12.1166950  )
         7           Cu1 tau(   7) = (   6.4810283   3.7418234  12.1166950  )
         8           Cu1 tau(   8) = (   3.8886170   3.7418234  12.1166950  )
         9           Cu1 tau(   9) = (   0.0000000   0.0000000  14.2333899  )
        10           Cu1 tau(  10) = (   2.5924113   0.0000000  14.2333899  )
        11           Cu1 tau(  11) = (   1.2962057   2.2450940  14.2333899  )
        12           Cu1 tau(  12) = (   3.8886170   2.2450940  14.2333899  )
        13           N1  tau(  13) = (   2.5924113   1.4967294  15.5528899  )

     number of k points=    20  Fermi-Dirac smearing, width (Ry)=  0.0110
                       cart. coord. in units 2pi/alat
        k(    1) = (   0.0000000   0.0000000   0.0000000), wk =   0.0555556
        k(    2) = (   0.0000000   0.0371180   0.0000000), wk =   0.1111111
        k(    3) = (   0.0000000   0.0742359   0.0000000), wk =   0.1111111
        k(    4) = (   0.0000000  -0.1113539   0.0000000), wk =   0.0555556
        k(    5) = (   0.0321451  -0.0185590   0.0000000), wk =   0.1111111
        k(    6) = (   0.0321451   0.0185590   0.0000000), wk =   0.1111111
        k(    7) = (   0.0321451   0.0556770   0.0000000), wk =   0.1111111
        k(    8) = (   0.0321451  -0.1299129   0.0000000), wk =   0.1111111
        k(    9) = (   0.0321451  -0.0927949   0.0000000), wk =   0.1111111
        k(   10) = (   0.0321451  -0.0556770   0.0000000), wk =   0.1111111
        k(   11) = (   0.0642902  -0.0371180   0.0000000), wk =   0.1111111
        k(   12) = (   0.0642902  -0.0000000   0.0000000), wk =   0.1111111
        k(   13) = (   0.0642902   0.0371180   0.0000000), wk =   0.1111111
        k(   14) = (   0.0642902  -0.1484719   0.0000000), wk =   0.1111111
        k(   15) = (   0.0642902  -0.1113539   0.0000000), wk =   0.1111111
        k(   16) = (   0.0642902  -0.0742359   0.0000000), wk =   0.1111111
        k(   17) = (  -0.0964353   0.0556770   0.0000000), wk =   0.0555556
        k(   18) = (  -0.0964353   0.0927949   0.0000000), wk =   0.1111111
        k(   19) = (  -0.0964353   0.1299129   0.0000000), wk =   0.1111111
        k(   20) = (  -0.0964353  -0.0556770   0.0000000), wk =   0.0555556

     Dense  grid:   452661 G-vectors     FFT dimensions: (  60,  60, 288)

     Smooth grid:   114411 G-vectors     FFT dimensions: (  40,  40, 180)

     Largest allocated arrays     est. size (Mb)     dimensions
        Kohn-Sham Wavefunctions         3.47 Mb     (    1804,  126)
        NL pseudopotentials             6.17 Mb     (    1804,  224)
        Each V/rho on FFT grid          1.98 Mb     (  129600)
        Each G-vector array             0.43 Mb     (   56584)
        G-vector shells                 0.12 Mb     (   15703)
     Largest temporary arrays     est. size (Mb)     dimensions
        Auxiliary wavefunctions        13.87 Mb     (    1804,  504)
        Each subspace H/S matrix        3.88 Mb     (     504,  504)
        Each <psi_i|beta_j> matrix      0.43 Mb     (     224,  126)
        Arrays for rho mixing          19.78 Mb     (  129600,   10)

     Initial potential from superposition of free atoms
     Check: negative starting charge=   -0.000128

     starting charge  220.99997, renormalised to  233.00000

     negative rho (up, down):  1.350E-04 0.000E+00


     ************************************************************************
     *
     * You are using vdW-DF for exchange-correlation in this calculation.
     * Please cite the following three references that made this development
     * possible:
     *
     *   M. Dion, H. Rydberg, E. Schroder, D. C. Langreth, and
     *   B. I. Lundqvist, Phys. Rev. Lett. 92, 246401 (2004).
     *
     *   T. Thonhauser, V. R. Cooper, S. Li, A. Puzder, P. Hyldgaard, and
     *   D. C. Langreth, Phys. Rev. B 76, 125112 (2007).
     *
     *   G. Roman-Perez and J. M. Soler, Phys. Rev. Lett. 103, 096102 (2009).
     *
     *
     * If you are using vdW-DF2, please also cite:
     *
     *   K. Lee, E. D. Murray, L. Kong, B. I. Lundqvist, and
     *   D. C. Langreth, Phys. Rev. B 82, 081101(R) (2010).
     *
     *
     * If you are calculating the stress with vdW-DF, please also cite:
     *
     *   R. Sabatini, E. Kucukbenli, B. Kolb, T. Thonhauser, and
     *   S. de Gironcoli, J. Phys.: Condens. Matter 24, 424209 (2012).
     *
     ************************************************************************

     Carrying out vdW-DF run using the following parameters:

     Nqs =      20    Nr_points =    1024   r_max =   100.000
     q_mesh =
               0.00001000     0.04494208     0.09755937     0.15916263
               0.23128650     0.31572767     0.41458969     0.53033537
               0.66584808     0.82450364     1.01025438     1.22772762
               1.48234092     1.78043706     2.12944203     2.53805004
               3.01644009     3.57652955     4.23227104     5.00000000

     Gradients computed in reciprocal space

     ************************************************************************


 
     Adding external electric field

     Computed dipole along edir(3) : 
        Dipole               -1.7629 Ry au,         -4.4808 Debye
        Dipole field         -0.0058 Ry au
 
        Potential amp.        0.5196 Ry
        Total length         44.6496 bohr
 
     Starting wfc are  160 randomized atomic wfcs

     total cpu time spent up to now is        9.3 secs

     per-process dynamical memory:    72.7 Mb

     Self-consistent Calculation

     iteration #  1     ecut=    36.75 Ry     beta=0.30
     Davidson diagonalization with overlap
     ethr =  1.00E-02,  avg # of iterations =  8.6

     negative rho (up, down):  2.437E-05 0.000E+00
 
     Adding external electric field

     Computed dipole along edir(3) : 
        Dipole               61.4207 Ry au,        156.1158 Debye
        Dipole field          0.2027 Ry au
 
        Potential amp.      -18.1035 Ry
        Total length         44.6496 bohr
 

     total cpu time spent up to now is       40.1 secs

     total energy              =   -4625.15231940 Ry
     Harris-Foulkes estimate   =   -4881.47370961 Ry
     estimated scf accuracy    <     539.44956006 Ry

     iteration #  2     ecut=    36.75 Ry     beta=0.30
     Davidson diagonalization with overlap
     c_bands:  1 eigenvalues not converged
     ethr =  1.00E-02,  avg # of iterations = 19.7
 
     Adding external electric field

     Computed dipole along edir(3) : 
        Dipole               12.8328 Ry au,         32.6178 Debye
        Dipole field          0.0424 Ry au
 
        Potential amp.       -3.7824 Ry
        Total length         44.6496 bohr
 

     total cpu time spent up to now is      101.4 secs

     total energy              =   -4451.28041020 Ry
     Harris-Foulkes estimate   =   -5670.74850242 Ry
     estimated scf accuracy    <   22114.36366289 Ry

     iteration #  3     ecut=    36.75 Ry     beta=0.30
     Davidson diagonalization with overlap
     ethr =  1.00E-02,  avg # of iterations =  8.0
 
     Adding external electric field

     Computed dipole along edir(3) : 
        Dipole               16.5381 Ry au,         42.0357 Debye
        Dipole field          0.0546 Ry au
 
        Potential amp.       -4.8746 Ry
        Total length         44.6496 bohr
 

     total cpu time spent up to now is      136.1 secs

     total energy              =   -4820.24522826 Ry
     Harris-Foulkes estimate   =   -5032.70629092 Ry
     estimated scf accuracy    <    2117.25051082 Ry

     iteration #  4     ecut=    36.75 Ry     beta=0.30
     Davidson diagonalization with overlap
     ethr =  1.00E-02,  avg # of iterations =  7.0
 
     Adding external electric field

     Computed dipole along edir(3) : 
        Dipole               13.3803 Ry au,         34.0093 Debye
        Dipole field          0.0442 Ry au
 
        Potential amp.       -3.9438 Ry
        Total length         44.6496 bohr
 

     total cpu time spent up to now is      164.9 secs

     total energy              =   -4885.61676851 Ry
     Harris-Foulkes estimate   =   -4904.13040922 Ry
     estimated scf accuracy    <      64.77766889 Ry

     iteration #  5     ecut=    36.75 Ry     beta=0.30
     Davidson diagonalization with overlap
     ethr =  1.00E-02,  avg # of iterations =  2.4
 
     Adding external electric field

     Computed dipole along edir(3) : 
        Dipole               10.4596 Ry au,         26.5857 Debye
        Dipole field          0.0345 Ry au
 
        Potential amp.       -3.0829 Ry
        Total length         44.6496 bohr
 

     total cpu time spent up to now is      182.2 secs

     total energy              =   -4884.49195563 Ry
     Harris-Foulkes estimate   =   -4889.40587199 Ry
     estimated scf accuracy    <      27.10016985 Ry

     iteration #  6     ecut=    36.75 Ry     beta=0.30
     Davidson diagonalization with overlap
     ethr =  1.00E-02,  avg # of iterations =  1.0
 
     Adding external electric field

     Computed dipole along edir(3) : 
        Dipole                9.9547 Ry au,         25.3022 Debye
        Dipole field          0.0329 Ry au
 
        Potential amp.       -2.9341 Ry
        Total length         44.6496 bohr
 

     total cpu time spent up to now is      196.4 secs

     total energy              =   -4884.17788283 Ry
     Harris-Foulkes estimate   =   -4885.16208943 Ry
     estimated scf accuracy    <      32.06976467 Ry

     iteration #  7     ecut=    36.75 Ry     beta=0.30
     Davidson diagonalization with overlap
     ethr =  1.00E-02,  avg # of iterations =  1.0
 
     Adding external electric field

     Computed dipole along edir(3) : 
        Dipole                8.9014 Ry au,         22.6252 Debye
        Dipole field          0.0294 Ry au
 
        Potential amp.       -2.6237 Ry
        Total length         44.6496 bohr
 

     total cpu time spent up to now is      210.7 secs

     total energy              =   -4883.26383866 Ry
     Harris-Foulkes estimate   =   -4884.40755072 Ry
     estimated scf accuracy    <      23.98889288 Ry

     iteration #  8     ecut=    36.75 Ry     beta=0.30
     Davidson diagonalization with overlap
     ethr =  1.00E-02,  avg # of iterations =  1.0
 
     Adding external electric field

     Computed dipole along edir(3) : 
        Dipole                6.8556 Ry au,         17.4252 Debye
        Dipole field          0.0226 Ry au
 
        Potential amp.       -2.0207 Ry
        Total length         44.6496 bohr
 

     total cpu time spent up to now is      225.2 secs

     total energy              =   -4881.57112576 Ry
     Harris-Foulkes estimate   =   -4883.42612807 Ry
     estimated scf accuracy    <      22.62654127 Ry

     iteration #  9     ecut=    36.75 Ry     beta=0.30
     Davidson diagonalization with overlap
     ethr =  9.71E-03,  avg # of iterations =  1.0
 
     Adding external electric field

     Computed dipole along edir(3) : 
        Dipole                5.2119 Ry au,         13.2474 Debye
        Dipole field          0.0172 Ry au
 
        Potential amp.       -1.5362 Ry
        Total length         44.6496 bohr
 

     total cpu time spent up to now is      239.4 secs

     total energy              =   -4880.54721715 Ry
     Harris-Foulkes estimate   =   -4881.82057944 Ry
     estimated scf accuracy    <      11.70605660 Ry

     iteration # 10     ecut=    36.75 Ry     beta=0.30
     Davidson diagonalization with overlap
     ethr =  5.02E-03,  avg # of iterations =  1.0
 
     Adding external electric field

     Computed dipole along edir(3) : 
        Dipole                3.6619 Ry au,          9.3076 Debye
        Dipole field          0.0121 Ry au
 
        Potential amp.       -1.0793 Ry
        Total length         44.6496 bohr
 

     total cpu time spent up to now is      253.7 secs

     total energy              =   -4879.77604592 Ry
     Harris-Foulkes estimate   =   -4880.69552538 Ry
     estimated scf accuracy    <       6.46813380 Ry

     iteration # 11     ecut=    36.75 Ry     beta=0.30
     Davidson diagonalization with overlap
     ethr =  2.78E-03,  avg # of iterations =  3.5
 
     Adding external electric field

     Computed dipole along edir(3) : 
        Dipole                3.8401 Ry au,          9.7605 Debye
        Dipole field          0.0127 Ry au
 
        Potential amp.       -1.1318 Ry
        Total length         44.6496 bohr
 

     total cpu time spent up to now is      269.7 secs

     total energy              =   -4879.98515984 Ry
     Harris-Foulkes estimate   =   -4879.91615218 Ry
     estimated scf accuracy    <       2.51542736 Ry

     iteration # 12     ecut=    36.75 Ry     beta=0.30
     Davidson diagonalization with overlap
     ethr =  1.08E-03,  avg # of iterations =  1.8

     negative rho (up, down):  9.920E-02 0.000E+00
 
     Adding external electric field

     Computed dipole along edir(3) : 
        Dipole               -1.8978 Ry au,         -4.8237 Debye
        Dipole field         -0.0063 Ry au
 
        Potential amp.        0.5594 Ry
        Total length         44.6496 bohr
 

     total cpu time spent up to now is      284.6 secs

     total energy              =   -4878.67926102 Ry
     Harris-Foulkes estimate   =   -4880.03478492 Ry
     estimated scf accuracy    <       2.92493001 Ry

     iteration # 13     ecut=    36.75 Ry     beta=0.30
     Davidson diagonalization with overlap
     ethr =  1.08E-03,  avg # of iterations =  8.6
 
     Adding external electric field

     Computed dipole along edir(3) : 
        Dipole                2.7051 Ry au,          6.8757 Debye
        Dipole field          0.0089 Ry au
 
        Potential amp.       -0.7973 Ry
        Total length         44.6496 bohr
 

     total cpu time spent up to now is      316.8 secs

     total energy              =   -4858.55737880 Ry
     Harris-Foulkes estimate   =   -4885.56141616 Ry
     estimated scf accuracy    <     711.79560547 Ry

     iteration # 14     ecut=    36.75 Ry     beta=0.30
     Davidson diagonalization with overlap
     ethr =  1.08E-03,  avg # of iterations =  5.0
 
     Adding external electric field

     Computed dipole along edir(3) : 
        Dipole                3.4673 Ry au,          8.8129 Debye
        Dipole field          0.0114 Ry au
 
        Potential amp.       -1.0220 Ry
        Total length         44.6496 bohr
 

     total cpu time spent up to now is      338.3 secs

     total energy              =   -4879.52717850 Ry
     Harris-Foulkes estimate   =   -4879.75877464 Ry
     estimated scf accuracy    <       1.31982242 Ry

     iteration # 15     ecut=    36.75 Ry     beta=0.30
     Davidson diagonalization with overlap
     ethr =  5.66E-04,  avg # of iterations =  2.2
 
     Adding external electric field

     Computed dipole along edir(3) : 
        Dipole                4.6945 Ry au,         11.9322 Debye
        Dipole field          0.0155 Ry au
 
        Potential amp.       -1.3837 Ry
        Total length         44.6496 bohr
 

     total cpu time spent up to now is      354.2 secs

     total energy              =   -4879.87216474 Ry
     Harris-Foulkes estimate   =   -4879.64899933 Ry
     estimated scf accuracy    <       0.56624782 Ry

     iteration # 16     ecut=    36.75 Ry     beta=0.30
     Davidson diagonalization with overlap
     ethr =  2.43E-04,  avg # of iterations =  3.1
 
     Adding external electric field

     Computed dipole along edir(3) : 
        Dipole                4.0963 Ry au,         10.4118 Debye
        Dipole field          0.0135 Ry au
 
        Potential amp.       -1.2074 Ry
        Total length         44.6496 bohr
 

     total cpu time spent up to now is      370.9 secs

     total energy              =   -4879.78576369 Ry
     Harris-Foulkes estimate   =   -4879.97561630 Ry
     estimated scf accuracy    <       2.09238559 Ry

     iteration # 17     ecut=    36.75 Ry     beta=0.30
     Davidson diagonalization with overlap
     ethr =  2.43E-04,  avg # of iterations =  1.0

     negative rho (up, down):  5.668E-05 0.000E+00
 
     Adding external electric field

     Computed dipole along edir(3) : 
        Dipole                3.1760 Ry au,          8.0725 Debye
        Dipole field          0.0105 Ry au
 
        Potential amp.       -0.9361 Ry
        Total length         44.6496 bohr
 

     total cpu time spent up to now is      385.1 secs

     total energy              =   -4879.60843000 Ry
     Harris-Foulkes estimate   =   -4879.81704469 Ry
     estimated scf accuracy    <       1.35873317 Ry

     iteration # 18     ecut=    36.75 Ry     beta=0.30
     Davidson diagonalization with overlap
     ethr =  2.43E-04,  avg # of iterations =  2.0

     negative rho (up, down):  8.974E-06 0.000E+00
 
     Adding external electric field

     Computed dipole along edir(3) : 
        Dipole                3.1767 Ry au,          8.0744 Debye
        Dipole field          0.0105 Ry au
 
        Potential amp.       -0.9363 Ry
        Total length         44.6496 bohr
 

     total cpu time spent up to now is      399.9 secs

     total energy              =   -4879.62845673 Ry
     Harris-Foulkes estimate   =   -4879.62562986 Ry
     estimated scf accuracy    <       0.58961419 Ry

     iteration # 19     ecut=    36.75 Ry     beta=0.30
     Davidson diagonalization with overlap
     ethr =  2.43E-04,  avg # of iterations =  1.0

     negative rho (up, down):  2.417E-06 0.000E+00
 
     Adding external electric field

     Computed dipole along edir(3) : 
        Dipole                2.8916 Ry au,          7.3498 Debye
        Dipole field          0.0095 Ry au
 
        Potential amp.       -0.8523 Ry
        Total length         44.6496 bohr
 

     total cpu time spent up to now is      414.2 secs

     total energy              =   -4879.59215377 Ry
     Harris-Foulkes estimate   =   -4879.63535556 Ry
     estimated scf accuracy    <       0.66096448 Ry

     iteration # 20     ecut=    36.75 Ry     beta=0.30
     Davidson diagonalization with overlap
     ethr =  2.43E-04,  avg # of iterations =  1.0

     negative rho (up, down):  8.448E-08 0.000E+00
 
     Adding external electric field

     Computed dipole along edir(3) : 
        Dipole                3.0700 Ry au,          7.8032 Debye
        Dipole field          0.0101 Ry au
 
        Potential amp.       -0.9049 Ry
        Total length         44.6496 bohr
 

     total cpu time spent up to now is      428.4 secs

     total energy              =   -4879.62738976 Ry
     Harris-Foulkes estimate   =   -4879.59156545 Ry
     estimated scf accuracy    <       0.54875442 Ry

     iteration # 21     ecut=    36.75 Ry     beta=0.30
     Davidson diagonalization with overlap
     ethr =  2.36E-04,  avg # of iterations =  1.0

     negative rho (up, down):  8.949E-06 0.000E+00
 
     Adding external electric field

     Computed dipole along edir(3) : 
        Dipole                2.5315 Ry au,          6.4343 Debye
        Dipole field          0.0084 Ry au
 
        Potential amp.       -0.7461 Ry
        Total length         44.6496 bohr
 

     total cpu time spent up to now is      442.7 secs

     total energy              =   -4879.54726324 Ry
     Harris-Foulkes estimate   =   -4879.64127140 Ry
     estimated scf accuracy    <       0.84391388 Ry

     iteration # 22     ecut=    36.75 Ry     beta=0.30
     Davidson diagonalization with overlap
     ethr =  2.36E-04,  avg # of iterations =  1.0

     negative rho (up, down):  2.772E-04 0.000E+00
 
     Adding external electric field

     Computed dipole along edir(3) : 
        Dipole                2.1472 Ry au,          5.4577 Debye
        Dipole field          0.0071 Ry au
 
        Potential amp.       -0.6329 Ry
        Total length         44.6496 bohr
 

     total cpu time spent up to now is      457.0 secs

     total energy              =   -4879.49896438 Ry
     Harris-Foulkes estimate   =   -4879.55648381 Ry
     estimated scf accuracy    <       0.49036362 Ry

     iteration # 23     ecut=    36.75 Ry     beta=0.30
     Davidson diagonalization with overlap
     ethr =  2.10E-04,  avg # of iterations =  1.1

     negative rho (up, down):  6.887E-04 0.000E+00
 
     Adding external electric field

     Computed dipole along edir(3) : 
        Dipole                2.0291 Ry au,          5.1575 Debye
        Dipole field          0.0067 Ry au
 
        Potential amp.       -0.5981 Ry
        Total length         44.6496 bohr
 

     total cpu time spent up to now is      471.4 secs

     total energy              =   -4879.48728022 Ry
     Harris-Foulkes estimate   =   -4879.50247246 Ry
     estimated scf accuracy    <       0.32622000 Ry

     iteration # 24     ecut=    36.75 Ry     beta=0.30
     Davidson diagonalization with overlap
     ethr =  1.40E-04,  avg # of iterations =  1.0

     negative rho (up, down):  1.369E-02 0.000E+00
 
     Adding external electric field

     Computed dipole along edir(3) : 
        Dipole                0.1962 Ry au,          0.4986 Debye
        Dipole field          0.0006 Ry au
 
        Potential amp.       -0.0578 Ry
        Total length         44.6496 bohr
 

     total cpu time spent up to now is      485.7 secs

     total energy              =   -4879.38790097 Ry
     Harris-Foulkes estimate   =   -4879.50116770 Ry
     estimated scf accuracy    <       0.29522203 Ry

     iteration # 25     ecut=    36.75 Ry     beta=0.30
     Davidson diagonalization with overlap
     ethr =  1.27E-04,  avg # of iterations =  3.8

     negative rho (up, down):  8.961E-03 0.000E+00
 
     Adding external electric field

     Computed dipole along edir(3) : 
        Dipole                0.1384 Ry au,          0.3519 Debye
        Dipole field          0.0005 Ry au
 
        Potential amp.       -0.0408 Ry
        Total length         44.6496 bohr
 

     total cpu time spent up to now is      502.3 secs

     total energy              =   -4879.40561689 Ry
     Harris-Foulkes estimate   =   -4879.41555181 Ry
     estimated scf accuracy    <       0.04195771 Ry

     iteration # 26     ecut=    36.75 Ry     beta=0.30
     Davidson diagonalization with overlap
     ethr =  1.80E-05,  avg # of iterations =  6.2

     negative rho (up, down):  2.650E-03 0.000E+00
 
     Adding external electric field

     Computed dipole along edir(3) : 
        Dipole               -0.0804 Ry au,         -0.2043 Debye
        Dipole field         -0.0003 Ry au
 
        Potential amp.        0.0237 Ry
        Total length         44.6496 bohr
 

     total cpu time spent up to now is      521.3 secs

     total energy              =   -4879.40274034 Ry
     Harris-Foulkes estimate   =   -4879.40906023 Ry
     estimated scf accuracy    <       0.01584207 Ry

     iteration # 27     ecut=    36.75 Ry     beta=0.30
     Davidson diagonalization with overlap
     ethr =  6.80E-06,  avg # of iterations =  4.5

     negative rho (up, down):  3.921E-03 0.000E+00
 
     Adding external electric field

     Computed dipole along edir(3) : 
        Dipole               -0.3085 Ry au,         -0.7841 Debye
        Dipole field         -0.0010 Ry au
 
        Potential amp.        0.0909 Ry
        Total length         44.6496 bohr
 

     total cpu time spent up to now is      541.4 secs

     total energy              =   -4879.40252780 Ry
     Harris-Foulkes estimate   =   -4879.40700638 Ry
     estimated scf accuracy    <       0.02696073 Ry

     iteration # 28     ecut=    36.75 Ry     beta=0.30
     Davidson diagonalization with overlap
     ethr =  6.80E-06,  avg # of iterations =  5.4

     negative rho (up, down):  4.456E-03 0.000E+00
 
     Adding external electric field

     Computed dipole along edir(3) : 
        Dipole               -0.3805 Ry au,         -0.9671 Debye
        Dipole field         -0.0013 Ry au
 
        Potential amp.        0.1121 Ry
        Total length         44.6496 bohr
 

     total cpu time spent up to now is      559.6 secs

     total energy              =   -4879.40409019 Ry
     Harris-Foulkes estimate   =   -4879.40422355 Ry
     estimated scf accuracy    <       0.00157409 Ry

     iteration # 29     ecut=    36.75 Ry     beta=0.30
     Davidson diagonalization with overlap
     ethr =  6.76E-07,  avg # of iterations =  5.0

     negative rho (up, down):  2.248E-03 0.000E+00
 
     Adding external electric field

     Computed dipole along edir(3) : 
        Dipole               -0.3519 Ry au,         -0.8944 Debye
        Dipole field         -0.0012 Ry au
 
        Potential amp.        0.1037 Ry
        Total length         44.6496 bohr
 

     total cpu time spent up to now is      581.1 secs

     total energy              =   -4879.40421416 Ry
     Harris-Foulkes estimate   =   -4879.40487815 Ry
     estimated scf accuracy    <       0.00430687 Ry

     iteration # 30     ecut=    36.75 Ry     beta=0.30
     Davidson diagonalization with overlap
     ethr =  6.76E-07,  avg # of iterations =  4.1

     negative rho (up, down):  2.039E-03 0.000E+00
 
     Adding external electric field

     Computed dipole along edir(3) : 
        Dipole               -0.3693 Ry au,         -0.9386 Debye
        Dipole field         -0.0012 Ry au
 
        Potential amp.        0.1088 Ry
        Total length         44.6496 bohr
 

     total cpu time spent up to now is      597.4 secs

     total energy              =   -4879.40441238 Ry
     Harris-Foulkes estimate   =   -4879.40438053 Ry
     estimated scf accuracy    <       0.00024720 Ry

     iteration # 31     ecut=    36.75 Ry     beta=0.30
     Davidson diagonalization with overlap
     ethr =  1.06E-07,  avg # of iterations =  2.5

     negative rho (up, down):  1.415E-03 0.000E+00
 
     Adding external electric field

     Computed dipole along edir(3) : 
        Dipole               -0.3679 Ry au,         -0.9352 Debye
        Dipole field         -0.0012 Ry au
 
        Potential amp.        0.1084 Ry
        Total length         44.6496 bohr
 

     total cpu time spent up to now is      614.4 secs

     total energy              =   -4879.40443175 Ry
     Harris-Foulkes estimate   =   -4879.40444925 Ry
     estimated scf accuracy    <       0.00014505 Ry

     iteration # 32     ecut=    36.75 Ry     beta=0.30
     Davidson diagonalization with overlap
     ethr =  6.23E-08,  avg # of iterations =  2.9

     negative rho (up, down):  1.227E-03 0.000E+00
 
     Adding external electric field

     Computed dipole along edir(3) : 
        Dipole               -0.3683 Ry au,         -0.9361 Debye
        Dipole field         -0.0012 Ry au
 
        Potential amp.        0.1085 Ry
        Total length         44.6496 bohr
 

     total cpu time spent up to now is      630.1 secs

     total energy              =   -4879.40444752 Ry
     Harris-Foulkes estimate   =   -4879.40444543 Ry
     estimated scf accuracy    <       0.00001145 Ry

     iteration # 33     ecut=    36.75 Ry     beta=0.30
     Davidson diagonalization with overlap
     ethr =  4.92E-09,  avg # of iterations =  3.0

     negative rho (up, down):  1.292E-03 0.000E+00
 
     Adding external electric field

     Computed dipole along edir(3) : 
        Dipole               -0.3738 Ry au,         -0.9501 Debye
        Dipole field         -0.0012 Ry au
 
        Potential amp.        0.1102 Ry
        Total length         44.6496 bohr
 

     total cpu time spent up to now is      647.8 secs

     total energy              =   -4879.40444887 Ry
     Harris-Foulkes estimate   =   -4879.40443720 Ry
     estimated scf accuracy    <       0.00001275 Ry

     iteration # 34     ecut=    36.75 Ry     beta=0.30
     Davidson diagonalization with overlap
     ethr =  4.92E-09,  avg # of iterations =  2.4

     negative rho (up, down):  1.217E-03 0.000E+00

     negative rho (up, down):  1.217E-03 0.000E+00

     negative rho (up, down):  1.217E-03 0.000E+00

     negative rho (up, down):  1.217E-03 0.000E+00

     negative rho (up, down):  1.217E-03 0.000E+00

     negative rho (up, down):  1.217E-03 0.000E+00

     negative rho (up, down):  1.217E-03 0.000E+00

     negative rho (up, down):  1.217E-03 0.000E+00

     negative rho (up, down):  1.217E-03 0.000E+00

     negative rho (up, down):  1.217E-03 0.000E+00

     negative rho (up, down):  1.217E-03 0.000E+00

     negative rho (up, down):  1.217E-03 0.000E+00

     negative rho (up, down):  1.217E-03 0.000E+00

     negative rho (up, down):  1.217E-03 0.000E+00

     negative rho (up, down):  1.217E-03 0.000E+00

     negative rho (up, down):  1.217E-03 0.000E+00

     negative rho (up, down):  1.217E-03 0.000E+00

     negative rho (up, down):  1.217E-03 0.000E+00

     negative rho (up, down):  1.217E-03 0.000E+00

     negative rho (up, down):  1.217E-03 0.000E+00

     negative rho (up, down):  1.217E-03 0.000E+00

     negative rho (up, down):  1.217E-03 0.000E+00

     negative rho (up, down):  1.217E-03 0.000E+00

     negative rho (up, down):  1.217E-03 0.000E+00

     negative rho (up, down):  1.217E-03 0.000E+00

     negative rho (up, down):  1.217E-03 0.000E+00

     negative rho (up, down):  1.217E-03 0.000E+00

     negative rho (up, down):  1.217E-03 0.000E+00

     negative rho (up, down):  1.217E-03 0.000E+00

     negative rho (up, down):  1.217E-03 0.000E+00

     negative rho (up, down):  1.217E-03 0.000E+00

     negative rho (up, down):  1.217E-03 0.000E+00

     negative rho (up, down):  1.217E-03 0.000E+00

     negative rho (up, down):  1.217E-03 0.000E+00

     negative rho (up, down):  1.217E-03 0.000E+00
 
     Adding external electric field

     Computed dipole along edir(3) : 
        Dipole               -0.3803 Ry au,         -0.9667 Debye
        Dipole field         -0.0013 Ry au
 
        Potential amp.        0.1121 Ry
        Total length         44.6496 bohr
 

     total cpu time spent up to now is      696.3 secs

     End of self-consistent calculation

          k = 0.0000 0.0000 0.0000 ( 14321 PWs)   bands (ev):

  -112.8702-112.8646-112.8645-112.7637-112.7580-112.7579-112.6979-112.5037
  -112.4977-112.4971-112.4866-112.3161 -70.3690 -70.3341 -70.3339 -70.2417
   -70.2416 -70.2168 -70.2030 -70.1910 -70.1909 -70.1904 -70.1695 -70.1694
   -70.1510 -70.1502 -70.1441 -70.1440 -70.1309 -70.1308 -70.0940 -70.0887
   -70.0887 -69.9575 -69.9517 -69.9514 -69.9034 -69.9030 -69.9028 -69.8841
   -69.8840 -69.8574 -69.8521 -69.8515 -69.8346 -69.7437 -69.7437 -69.6837
   -13.4417  -8.3547  -6.3334  -5.0776  -4.8081  -4.8081  -4.7339  -4.6435
    -4.5890  -4.5889  -4.3156  -4.3099  -4.3099  -4.1408  -4.1407  -4.1371
    -3.7024  -3.7024  -3.5874  -3.3696  -3.3696  -3.3176  -3.1787  -3.1787
    -3.1433  -3.0460  -3.0460  -3.0095  -2.9525  -2.9525  -2.9454  -2.8448
    -2.8447  -2.8044  -2.8044  -2.6127  -2.5481  -2.5480  -2.3908  -2.3295
    -2.3211  -2.3210  -2.2480  -2.2479  -2.0927  -2.0927  -1.9870  -1.9868
    -1.9247  -1.8892  -1.8890  -1.8639  -1.8227  -1.8226  -1.7868  -1.7817
    -1.7794  -1.7793  -1.6703  -1.6703  -1.5649  -1.5608  -1.5605  -1.2510
    -1.0610  -0.6993  -0.6993   0.1065   0.1065   0.2930   0.6505   1.1850
     1.1851   1.2864   1.5572   1.5573   3.6195   3.9296

          k = 0.0000 0.0371 0.0000 ( 14383 PWs)   bands (ev):

  -112.8699-112.8649-112.8646-112.7634-112.7583-112.7580-112.6980-112.5032
  -112.4981-112.4971-112.4867-112.3161 -70.3667 -70.3357 -70.3338 -70.2413
   -70.2402 -70.2182 -70.2015 -70.1895 -70.1887 -70.1867 -70.1711 -70.1695
   -70.1524 -70.1499 -70.1444 -70.1441 -70.1343 -70.1314 -70.0939 -70.0911
   -70.0893 -69.9545 -69.9491 -69.9476 -69.9059 -69.9054 -69.9018 -69.8885
   -69.8853 -69.8570 -69.8524 -69.8515 -69.8347 -69.7441 -69.7439 -69.6837
   -13.4309  -8.1503  -6.1628  -4.9759  -4.9324  -4.7512  -4.7147  -4.6054
    -4.5362  -4.5161  -4.2914  -4.2345  -4.2291  -4.0858  -4.0736  -4.0541
    -3.7073  -3.6900  -3.5566  -3.3844  -3.3749  -3.3022  -3.1782  -3.1654
    -3.1526  -3.1317  -3.0449  -3.0164  -2.9720  -2.9530  -2.9155  -2.9079
    -2.8455  -2.8323  -2.7514  -2.7186  -2.6323  -2.6036  -2.4434  -2.4318
    -2.3922  -2.3527  -2.2790  -2.2718  -2.1770  -2.1230  -2.1154  -2.0666
    -2.0130  -2.0098  -1.9700  -1.9515  -1.9224  -1.9103  -1.8678  -1.8483
    -1.8481  -1.8211  -1.7939  -1.7652  -1.7062  -1.6831  -1.6447  -1.3890
    -1.1096  -0.8318  -0.7393  -0.6059  -0.0142   0.1336   0.5379   1.0651
     1.2816   1.7439   2.2926   2.3916   3.8959   4.1348

          k = 0.0000 0.0742 0.0000 ( 14316 PWs)   bands (ev):

  -112.8690-112.8657-112.8646-112.7624-112.7592-112.7580-112.6980-112.5021
  -112.4990-112.4971-112.4868-112.3161 -70.3609 -70.3402 -70.3332 -70.2404
   -70.2363 -70.2219 -70.1974 -70.1873 -70.1831 -70.1790 -70.1722 -70.1692
   -70.1567 -70.1490 -70.1457 -70.1441 -70.1435 -70.1321 -70.0961 -70.0937
   -70.0906 -69.9479 -69.9427 -69.9363 -69.9122 -69.9119 -69.9003 -69.8990
   -69.8882 -69.8560 -69.8533 -69.8515 -69.8348 -69.7450 -69.7441 -69.6837
   -13.4093  -7.5541  -5.7251  -5.5842  -4.7186  -4.5963  -4.5916  -4.5544
    -4.3338  -4.3329  -4.1897  -4.0778  -4.0403  -3.9537  -3.9365  -3.8440
    -3.7066  -3.6570  -3.4892  -3.4524  -3.4229  -3.3755  -3.3091  -3.2477
    -3.1771  -3.1675  -3.1190  -3.0867  -3.0320  -3.0029  -2.9521  -2.8955
    -2.8556  -2.8313  -2.7940  -2.7736  -2.7727  -2.6977  -2.6037  -2.5904
    -2.5340  -2.5165  -2.5031  -2.4401  -2.4284  -2.4022  -2.3108  -2.3029
    -2.2518  -2.1843  -2.1546  -2.1023  -2.0952  -2.0453  -2.0432  -2.0097
    -1.9884  -1.9251  -1.9054  -1.8693  -1.8356  -1.7990  -1.7481  -1.7135
    -1.5797  -0.8991  -0.7868  -0.3843  -0.0447   0.0274   0.3874   1.3078
     1.4282   2.1956   2.5411   3.5639   4.1900   4.7249

          k = 0.0000-0.1114 0.0000 ( 14294 PWs)   bands (ev):

  -112.8683-112.8664-112.8646-112.7617-112.7599-112.7580-112.6981-112.5008
  -112.5002-112.4971-112.4869-112.3161 -70.3566 -70.3438 -70.3329 -70.2399
   -70.2332 -70.2250 -70.1940 -70.1876 -70.1796 -70.1789 -70.1681 -70.1633
   -70.1607 -70.1543 -70.1483 -70.1459 -70.1441 -70.1323 -70.0987 -70.0936
   -70.0913 -69.9438 -69.9381 -69.9226 -69.9202 -69.9165 -69.9102 -69.8967
   -69.8905 -69.8549 -69.8543 -69.8515 -69.8349 -69.7454 -69.7443 -69.6837
   -13.3985  -6.6839  -6.5914  -5.1800  -4.9590  -4.5126  -4.4720  -4.2670
    -4.2172  -4.2043  -4.1632  -4.0018  -3.8967  -3.8472  -3.8186  -3.7664
    -3.6573  -3.6539  -3.5948  -3.4745  -3.4594  -3.4327  -3.4047  -3.3050
    -3.2897  -3.2382  -3.1700  -3.1250  -3.0169  -3.0047  -2.9898  -2.9305
    -2.9254  -2.8714  -2.8392  -2.8194  -2.8133  -2.7842  -2.7450  -2.7426
    -2.7233  -2.7012  -2.5367  -2.5054  -2.4670  -2.4244  -2.4031  -2.3818
    -2.3122  -2.3017  -2.2998  -2.2278  -2.1815  -2.1502  -2.1209  -2.0890
    -2.0512  -2.0487  -1.9292  -1.8465  -1.8081  -1.7976  -1.7464  -1.7269
    -1.6988  -0.9312  -0.7991  -0.3613  -0.0330   0.0331   0.6555   1.1503
     1.4766   2.1131   3.1858   3.6129   4.0843   5.2154

          k = 0.0321-0.0186 0.0000 ( 14383 PWs)   bands (ev):

  -112.8699-112.8649-112.8646-112.7634-112.7583-112.7580-112.6980-112.5033
  -112.4978-112.4973-112.4867-112.3161 -70.3667 -70.3357 -70.3338 -70.2413
   -70.2402 -70.2183 -70.2015 -70.1895 -70.1886 -70.1867 -70.1711 -70.1695
   -70.1524 -70.1499 -70.1444 -70.1441 -70.1343 -70.1314 -70.0939 -70.0911
   -70.0893 -69.9546 -69.9489 -69.9477 -69.9057 -69.9055 -69.9020 -69.8886
   -69.8851 -69.8570 -69.8522 -69.8517 -69.8347 -69.7441 -69.7439 -69.6837
   -13.4309  -8.1503  -6.1628  -4.9759  -4.9324  -4.7511  -4.7147  -4.6054
    -4.5362  -4.5160  -4.2914  -4.2345  -4.2290  -4.0858  -4.0735  -4.0542
    -3.7074  -3.6900  -3.5566  -3.3844  -3.3749  -3.3022  -3.1783  -3.1654
    -3.1525  -3.1317  -3.0448  -3.0165  -2.9720  -2.9530  -2.9154  -2.9079
    -2.8455  -2.8324  -2.7514  -2.7186  -2.6323  -2.6036  -2.4434  -2.4318
    -2.3922  -2.3527  -2.2791  -2.2716  -2.1771  -2.1230  -2.1153  -2.0666
    -2.0130  -2.0098  -1.9699  -1.9515  -1.9224  -1.9104  -1.8679  -1.8484
    -1.8480  -1.8211  -1.7938  -1.7652  -1.7063  -1.6830  -1.6447  -1.3890
    -1.1096  -0.8318  -0.7393  -0.6058  -0.0142   0.1336   0.5379   1.0651
     1.2816   1.7439   2.2926   2.3916   3.8959   4.1348

          k = 0.0321 0.0186 0.0000 ( 14383 PWs)   bands (ev):

  -112.8699-112.8650-112.8645-112.7634-112.7584-112.7579-112.6980-112.5033
  -112.4979-112.4973-112.4867-112.3161 -70.3667 -70.3358 -70.3337 -70.2412
   -70.2403 -70.2182 -70.2015 -70.1895 -70.1887 -70.1868 -70.1712 -70.1694
   -70.1524 -70.1499 -70.1445 -70.1440 -70.1344 -70.1313 -70.0939 -70.0911
   -70.0893 -69.9546 -69.9489 -69.9477 -69.9057 -69.9055 -69.9020 -69.8886
   -69.8851 -69.8570 -69.8522 -69.8517 -69.8347 -69.7441 -69.7439 -69.6837
   -13.4309  -8.1503  -6.1628  -4.9759  -4.9324  -4.7512  -4.7146  -4.6054
    -4.5362  -4.5161  -4.2914  -4.2345  -4.2290  -4.0858  -4.0735  -4.0542
    -3.7074  -3.6900  -3.5566  -3.3844  -3.3749  -3.3022  -3.1783  -3.1654
    -3.1526  -3.1317  -3.0448  -3.0164  -2.9720  -2.9530  -2.9154  -2.9079
    -2.8455  -2.8323  -2.7514  -2.7186  -2.6323  -2.6036  -2.4434  -2.4318
    -2.3922  -2.3527  -2.2791  -2.2716  -2.1770  -2.1230  -2.1153  -2.0666
    -2.0130  -2.0098  -1.9699  -1.9515  -1.9224  -1.9103  -1.8679  -1.8484
    -1.8480  -1.8211  -1.7938  -1.7652  -1.7063  -1.6830  -1.6447  -1.3890
    -1.1096  -0.8318  -0.7393  -0.6059  -0.0142   0.1336   0.5379   1.0651
     1.2816   1.7439   2.2926   2.3916   3.8959   4.1348

          k = 0.0321 0.0557 0.0000 ( 14335 PWs)   bands (ev):

  -112.8692-112.8655-112.8645-112.7627-112.7589-112.7579-112.6980-112.5025
  -112.4986-112.4973-112.4868-112.3161 -70.3625 -70.3390 -70.3332 -70.2405
   -70.2375 -70.2208 -70.1986 -70.1865 -70.1860 -70.1800 -70.1735 -70.1693
   -70.1556 -70.1493 -70.1452 -70.1440 -70.1400 -70.1326 -70.0944 -70.0937
   -70.0907 -69.9498 -69.9429 -69.9414 -69.9137 -69.9037 -69.9032 -69.8961
   -69.8875 -69.8563 -69.8529 -69.8516 -69.8348 -69.7447 -69.7441 -69.6837
   -13.4147  -7.7493  -5.8406  -5.1375  -5.0838  -4.6887  -4.5700  -4.5338
    -4.4439  -4.3390  -4.2072  -4.1250  -4.0963  -4.0094  -3.9388  -3.8984
    -3.7256  -3.6664  -3.5060  -3.4367  -3.4089  -3.3269  -3.2597  -3.2095
    -3.1461  -3.1399  -3.1293  -3.0923  -3.0036  -2.9733  -2.9324  -2.8897
    -2.8685  -2.8381  -2.8373  -2.7823  -2.7219  -2.6345  -2.5935  -2.5473
    -2.4738  -2.4388  -2.4174  -2.3852  -2.3705  -2.3215  -2.3131  -2.2485
    -2.1801  -2.1542  -2.1075  -2.0738  -2.0409  -2.0198  -1.9895  -1.9601
    -1.9171  -1.8858  -1.8393  -1.8255  -1.8201  -1.7757  -1.7490  -1.4748
    -1.4263  -1.1677  -0.9179  -0.7568  -0.1464   0.2433   0.7645   1.2770
     1.7508   2.1952   2.3928   2.7421   4.1638   4.5396

          k = 0.0321-0.1299 0.0000 ( 14299 PWs)   bands (ev):

  -112.8683-112.8664-112.8646-112.7617-112.7599-112.7580-112.6981-112.5012
  -112.4997-112.4973-112.4869-112.3161 -70.3564 -70.3442 -70.3327 -70.2399
   -70.2333 -70.2250 -70.1941 -70.1864 -70.1813 -70.1760 -70.1709 -70.1653
   -70.1615 -70.1500 -70.1482 -70.1458 -70.1441 -70.1338 -70.0973 -70.0936
   -70.0924 -69.9431 -69.9357 -69.9295 -69.9226 -69.9124 -69.9054 -69.8986
   -69.8914 -69.8552 -69.8539 -69.8516 -69.8349 -69.7452 -69.7445 -69.6837
   -13.3986  -6.9871  -5.9911  -5.2919  -5.1617  -4.7349  -4.4199  -4.2997
    -4.2064  -4.1251  -4.0817  -3.9793  -3.9150  -3.8670  -3.8185  -3.7385
    -3.7130  -3.6077  -3.5496  -3.5232  -3.4691  -3.4501  -3.4059  -3.2857
    -3.2658  -3.2448  -3.1914  -3.1414  -3.0773  -3.0352  -3.0026  -2.9803
    -2.9569  -2.9128  -2.8798  -2.8572  -2.8129  -2.7320  -2.7150  -2.7047
    -2.6547  -2.6423  -2.6055  -2.4810  -2.4646  -2.4253  -2.3867  -2.3522
    -2.3011  -2.2545  -2.2304  -2.1774  -2.1367  -2.0990  -2.0741  -2.0397
    -1.9646  -1.9350  -1.9086  -1.8802  -1.8505  -1.8090  -1.7923  -1.7639
    -1.5809  -1.3688  -0.9932  -0.7542  -0.1868   0.3254   0.9506   1.4313
     1.8312   2.7368   2.8763   3.4519   4.1063   4.7355

          k = 0.0321-0.0928 0.0000 ( 14299 PWs)   bands (ev):

  -112.8683-112.8664-112.8646-112.7617-112.7598-112.7580-112.6981-112.5012
  -112.4997-112.4973-112.4869-112.3161 -70.3564 -70.3441 -70.3327 -70.2399
   -70.2332 -70.2250 -70.1942 -70.1864 -70.1813 -70.1760 -70.1709 -70.1653
   -70.1615 -70.1500 -70.1482 -70.1458 -70.1441 -70.1339 -70.0973 -70.0936
   -70.0924 -69.9431 -69.9357 -69.9295 -69.9226 -69.9124 -69.9053 -69.8986
   -69.8914 -69.8552 -69.8539 -69.8516 -69.8349 -69.7452 -69.7445 -69.6837
   -13.3986  -6.9871  -5.9911  -5.2919  -5.1617  -4.7349  -4.4199  -4.2997
    -4.2064  -4.1251  -4.0817  -3.9793  -3.9149  -3.8670  -3.8185  -3.7385
    -3.7130  -3.6077  -3.5496  -3.5232  -3.4690  -3.4501  -3.4059  -3.2857
    -3.2658  -3.2448  -3.1914  -3.1414  -3.0773  -3.0352  -3.0026  -2.9803
    -2.9569  -2.9128  -2.8798  -2.8572  -2.8130  -2.7320  -2.7150  -2.7047
    -2.6547  -2.6423  -2.6054  -2.4810  -2.4647  -2.4253  -2.3867  -2.3522
    -2.3011  -2.2545  -2.2304  -2.1774  -2.1367  -2.0990  -2.0741  -2.0397
    -1.9646  -1.9350  -1.9086  -1.8802  -1.8505  -1.8090  -1.7923  -1.7639
    -1.5809  -1.3688  -0.9933  -0.7542  -0.1868   0.3254   0.9506   1.4313
     1.8312   2.7368   2.8763   3.4519   4.1063   4.7355

          k = 0.0321-0.0557 0.0000 ( 14335 PWs)   bands (ev):

  -112.8693-112.8654-112.8646-112.7627-112.7588-112.7580-112.6980-112.5025
  -112.4985-112.4973-112.4868-112.3161 -70.3625 -70.3389 -70.3333 -70.2406
   -70.2374 -70.2209 -70.1986 -70.1865 -70.1861 -70.1800 -70.1734 -70.1693
   -70.1556 -70.1493 -70.1451 -70.1441 -70.1399 -70.1327 -70.0944 -70.0937
   -70.0907 -69.9498 -69.9429 -69.9414 -69.9137 -69.9037 -69.9032 -69.8961
   -69.8875 -69.8563 -69.8528 -69.8516 -69.8348 -69.7447 -69.7441 -69.6837
   -13.4147  -7.7493  -5.8406  -5.1375  -5.0838  -4.6887  -4.5700  -4.5338
    -4.4439  -4.3390  -4.2072  -4.1250  -4.0963  -4.0094  -3.9388  -3.8984
    -3.7256  -3.6664  -3.5060  -3.4367  -3.4089  -3.3269  -3.2597  -3.2095
    -3.1461  -3.1399  -3.1293  -3.0923  -3.0036  -2.9733  -2.9324  -2.8897
    -2.8685  -2.8381  -2.8373  -2.7823  -2.7219  -2.6344  -2.5935  -2.5473
    -2.4738  -2.4388  -2.4174  -2.3852  -2.3705  -2.3215  -2.3131  -2.2485
    -2.1801  -2.1542  -2.1075  -2.0738  -2.0409  -2.0198  -1.9895  -1.9601
    -1.9171  -1.8858  -1.8393  -1.8255  -1.8201  -1.7757  -1.7489  -1.4748
    -1.4263  -1.1677  -0.9179  -0.7568  -0.1464   0.2433   0.7645   1.2770
     1.7508   2.1952   2.3928   2.7421   4.1638   4.5396

          k = 0.0643-0.0371 0.0000 ( 14316 PWs)   bands (ev):

  -112.8690-112.8657-112.8646-112.7625-112.7591-112.7580-112.6980-112.5022
  -112.4985-112.4975-112.4868-112.3161 -70.3609 -70.3401 -70.3332 -70.2404
   -70.2363 -70.2220 -70.1974 -70.1873 -70.1831 -70.1790 -70.1722 -70.1692
   -70.1567 -70.1490 -70.1457 -70.1441 -70.1435 -70.1321 -70.0961 -70.0937
   -70.0906 -69.9482 -69.9423 -69.9364 -69.9122 -69.9117 -69.9004 -69.8992
   -69.8880 -69.8561 -69.8528 -69.8519 -69.8348 -69.7450 -69.7441 -69.6837
   -13.4093  -7.5541  -5.7251  -5.5842  -4.7187  -4.5963  -4.5916  -4.5544
    -4.3338  -4.3329  -4.1897  -4.0778  -4.0403  -3.9537  -3.9365  -3.8441
    -3.7066  -3.6569  -3.4892  -3.4524  -3.4229  -3.3755  -3.3091  -3.2476
    -3.1771  -3.1675  -3.1191  -3.0866  -3.0320  -3.0029  -2.9521  -2.8955
    -2.8555  -2.8313  -2.7940  -2.7736  -2.7727  -2.6977  -2.6037  -2.5904
    -2.5340  -2.5164  -2.5031  -2.4400  -2.4285  -2.4023  -2.3108  -2.3029
    -2.2518  -2.1843  -2.1547  -2.1022  -2.0952  -2.0452  -2.0431  -2.0097
    -1.9884  -1.9252  -1.9054  -1.8692  -1.8356  -1.7990  -1.7482  -1.7134
    -1.5797  -0.8991  -0.7868  -0.3843  -0.0448   0.0274   0.3874   1.3078
     1.4282   2.1956   2.5411   3.5639   4.1900   4.7249

          k = 0.0643-0.0000 0.0000 ( 14335 PWs)   bands (ev):

  -112.8692-112.8655-112.8645-112.7627-112.7589-112.7580-112.6980-112.5025
  -112.4981-112.4977-112.4868-112.3161 -70.3625 -70.3390 -70.3332 -70.2406
   -70.2375 -70.2208 -70.1986 -70.1865 -70.1860 -70.1800 -70.1735 -70.1692
   -70.1556 -70.1493 -70.1452 -70.1441 -70.1400 -70.1326 -70.0944 -70.0937
   -70.0907 -69.9499 -69.9426 -69.9416 -69.9135 -69.9039 -69.9033 -69.8961
   -69.8874 -69.8564 -69.8524 -69.8521 -69.8348 -69.7447 -69.7441 -69.6837
   -13.4147  -7.7493  -5.8406  -5.1375  -5.0838  -4.6887  -4.5700  -4.5338
    -4.4439  -4.3390  -4.2072  -4.1250  -4.0963  -4.0093  -3.9388  -3.8984
    -3.7256  -3.6664  -3.5060  -3.4367  -3.4089  -3.3269  -3.2597  -3.2095
    -3.1461  -3.1399  -3.1293  -3.0923  -3.0037  -2.9733  -2.9324  -2.8897
    -2.8685  -2.8382  -2.8373  -2.7823  -2.7219  -2.6345  -2.5934  -2.5473
    -2.4738  -2.4388  -2.4175  -2.3851  -2.3705  -2.3216  -2.3131  -2.2485
    -2.1802  -2.1541  -2.1075  -2.0739  -2.0409  -2.0198  -1.9895  -1.9602
    -1.9171  -1.8859  -1.8392  -1.8256  -1.8200  -1.7757  -1.7489  -1.4747
    -1.4263  -1.1677  -0.9179  -0.7568  -0.1464   0.2433   0.7645   1.2770
     1.7508   2.1952   2.3928   2.7421   4.1638   4.5396

          k = 0.0643 0.0371 0.0000 ( 14316 PWs)   bands (ev):

  -112.8690-112.8658-112.8645-112.7624-112.7592-112.7579-112.6980-112.5022
  -112.4986-112.4975-112.4868-112.3161 -70.3609 -70.3403 -70.3331 -70.2403
   -70.2365 -70.2219 -70.1974 -70.1872 -70.1831 -70.1791 -70.1722 -70.1692
   -70.1567 -70.1490 -70.1458 -70.1440 -70.1436 -70.1320 -70.0961 -70.0937
   -70.0906 -69.9482 -69.9423 -69.9364 -69.9122 -69.9117 -69.9004 -69.8992
   -69.8880 -69.8561 -69.8528 -69.8519 -69.8348 -69.7450 -69.7441 -69.6837
   -13.4093  -7.5541  -5.7251  -5.5842  -4.7186  -4.5963  -4.5916  -4.5544
    -4.3338  -4.3329  -4.1897  -4.0778  -4.0403  -3.9537  -3.9365  -3.8440
    -3.7066  -3.6569  -3.4892  -3.4524  -3.4229  -3.3755  -3.3091  -3.2477
    -3.1771  -3.1675  -3.1191  -3.0866  -3.0320  -3.0030  -2.9521  -2.8956
    -2.8555  -2.8313  -2.7939  -2.7736  -2.7727  -2.6977  -2.6037  -2.5904
    -2.5340  -2.5164  -2.5031  -2.4400  -2.4285  -2.4023  -2.3108  -2.3029
    -2.2518  -2.1843  -2.1546  -2.1023  -2.0952  -2.0452  -2.0431  -2.0097
    -1.9884  -1.9252  -1.9054  -1.8692  -1.8356  -1.7990  -1.7482  -1.7134
    -1.5797  -0.8991  -0.7868  -0.3843  -0.0448   0.0274   0.3874   1.3078
     1.4282   2.1956   2.5411   3.5639   4.1900   4.7249

          k = 0.0643-0.1485 0.0000 ( 14299 PWs)   bands (ev):

  -112.8683-112.8665-112.8645-112.7617-112.7599-112.7580-112.6981-112.5014
  -112.4993-112.4975-112.4869-112.3161 -70.3563 -70.3443 -70.3326 -70.2399
   -70.2334 -70.2249 -70.1941 -70.1865 -70.1813 -70.1760 -70.1709 -70.1653
   -70.1615 -70.1500 -70.1482 -70.1459 -70.1441 -70.1338 -70.0973 -70.0936
   -70.0924 -69.9433 -69.9353 -69.9293 -69.9229 -69.9122 -69.9055 -69.8989
   -69.8912 -69.8554 -69.8535 -69.8518 -69.8349 -69.7452 -69.7445 -69.6837
   -13.3986  -6.9871  -5.9911  -5.2919  -5.1617  -4.7349  -4.4199  -4.2997
    -4.2064  -4.1251  -4.0817  -3.9793  -3.9149  -3.8670  -3.8185  -3.7385
    -3.7130  -3.6077  -3.5495  -3.5232  -3.4691  -3.4501  -3.4059  -3.2857
    -3.2658  -3.2448  -3.1914  -3.1414  -3.0774  -3.0352  -3.0026  -2.9803
    -2.9568  -2.9128  -2.8798  -2.8572  -2.8129  -2.7321  -2.7150  -2.7047
    -2.6547  -2.6423  -2.6054  -2.4809  -2.4646  -2.4252  -2.3867  -2.3521
    -2.3011  -2.2546  -2.2304  -2.1774  -2.1368  -2.0990  -2.0740  -2.0397
    -1.9646  -1.9350  -1.9087  -1.8802  -1.8505  -1.8091  -1.7922  -1.7639
    -1.5809  -1.3688  -0.9932  -0.7542  -0.1868   0.3254   0.9506   1.4313
     1.8312   2.7368   2.8763   3.4519   4.1063   4.7355

          k = 0.0643-0.1114 0.0000 ( 14310 PWs)   bands (ev):

  -112.8674-112.8673-112.8646-112.7608-112.7607-112.7580-112.6981-112.5006
  -112.4999-112.4976-112.4870-112.3161 -70.3506 -70.3498 -70.3324 -70.2397
   -70.2294 -70.2288 -70.1911 -70.1879 -70.1791 -70.1723 -70.1719 -70.1679
   -70.1567 -70.1559 -70.1477 -70.1464 -70.1442 -70.1356 -70.0956 -70.0954
   -70.0936 -69.9353 -69.9347 -69.9250 -69.9236 -69.9235 -69.9036 -69.8967
   -69.8964 -69.8547 -69.8540 -69.8519 -69.8349 -69.7450 -69.7450 -69.6837
   -13.3933  -6.1782  -6.1182  -6.0642  -4.8560  -4.7417  -4.6280  -4.1180
    -4.0704  -4.0020  -3.9307  -3.8791  -3.8515  -3.8379  -3.6931  -3.6872
    -3.6830  -3.6698  -3.6490  -3.6000  -3.5914  -3.4604  -3.4382  -3.3557
    -3.2967  -3.2303  -3.2272  -3.1909  -3.1724  -3.1636  -3.1393  -3.1164
    -3.0480  -3.0063  -2.8701  -2.8352  -2.8113  -2.7983  -2.7745  -2.7542
    -2.7043  -2.6489  -2.5171  -2.4890  -2.4881  -2.4716  -2.3324  -2.3064
    -2.2726  -2.2673  -2.2024  -2.1209  -2.1173  -2.1001  -2.0335  -1.9921
    -1.9324  -1.9143  -1.9123  -1.8908  -1.8680  -1.8602  -1.8449  -1.8400
    -1.6524  -1.5824  -1.4499  -0.7110  -0.3146   0.2068   1.4285   1.4798
     2.2487   3.4732   3.4992   3.8630   3.9516   4.2891

          k = 0.0643-0.0742 0.0000 ( 14299 PWs)   bands (ev):

  -112.8683-112.8663-112.8646-112.7618-112.7598-112.7580-112.6981-112.5014
  -112.4993-112.4976-112.4869-112.3161 -70.3564 -70.3441 -70.3327 -70.2399
   -70.2332 -70.2250 -70.1942 -70.1864 -70.1813 -70.1760 -70.1709 -70.1653
   -70.1615 -70.1500 -70.1482 -70.1458 -70.1441 -70.1339 -70.0973 -70.0936
   -70.0924 -69.9433 -69.9353 -69.9293 -69.9229 -69.9122 -69.9055 -69.8989
   -69.8912 -69.8554 -69.8534 -69.8519 -69.8349 -69.7452 -69.7445 -69.6837
   -13.3986  -6.9871  -5.9911  -5.2919  -5.1617  -4.7350  -4.4199  -4.2997
    -4.2064  -4.1251  -4.0817  -3.9793  -3.9149  -3.8670  -3.8185  -3.7385
    -3.7130  -3.6077  -3.5495  -3.5232  -3.4690  -3.4501  -3.4059  -3.2858
    -3.2658  -3.2448  -3.1914  -3.1414  -3.0774  -3.0352  -3.0026  -2.9803
    -2.9568  -2.9128  -2.8798  -2.8572  -2.8130  -2.7321  -2.7150  -2.7047
    -2.6547  -2.6423  -2.6054  -2.4810  -2.4646  -2.4252  -2.3868  -2.3521
    -2.3011  -2.2546  -2.2304  -2.1773  -2.1367  -2.0990  -2.0740  -2.0397
    -1.9646  -1.9350  -1.9087  -1.8802  -1.8505  -1.8091  -1.7922  -1.7638
    -1.5809  -1.3688  -0.9932  -0.7542  -0.1868   0.3254   0.9506   1.4313
     1.8312   2.7368   2.8763   3.4519   4.1063   4.7355

          k =-0.0964 0.0557 0.0000 ( 14294 PWs)   bands (ev):

  -112.8683-112.8663-112.8646-112.7617-112.7598-112.7580-112.6981-112.5014
  -112.4993-112.4976-112.4869-112.3161 -70.3566 -70.3438 -70.3329 -70.2399
   -70.2332 -70.2250 -70.1940 -70.1876 -70.1796 -70.1790 -70.1681 -70.1634
   -70.1607 -70.1543 -70.1483 -70.1459 -70.1441 -70.1324 -70.0987 -70.0936
   -70.0913 -69.9443 -69.9376 -69.9217 -69.9207 -69.9169 -69.9102 -69.8971
   -69.8901 -69.8554 -69.8533 -69.8519 -69.8349 -69.7454 -69.7443 -69.6837
   -13.3985  -6.6838  -6.5914  -5.1799  -4.9590  -4.5127  -4.4720  -4.2670
    -4.2172  -4.2043  -4.1632  -4.0018  -3.8967  -3.8472  -3.8186  -3.7665
    -3.6572  -3.6540  -3.5947  -3.4745  -3.4594  -3.4327  -3.4047  -3.3049
    -3.2897  -3.2382  -3.1700  -3.1250  -3.0170  -3.0047  -2.9899  -2.9304
    -2.9254  -2.8713  -2.8393  -2.8194  -2.8133  -2.7843  -2.7449  -2.7426
    -2.7233  -2.7012  -2.5367  -2.5055  -2.4669  -2.4243  -2.4032  -2.3818
    -2.3122  -2.3017  -2.2999  -2.2279  -2.1814  -2.1503  -2.1209  -2.0889
    -2.0512  -2.0487  -1.9293  -1.8467  -1.8081  -1.7975  -1.7465  -1.7268
    -1.6987  -0.9312  -0.7991  -0.3613  -0.0330   0.0332   0.6555   1.1503
     1.4766   2.1131   3.1858   3.6129   4.0843   5.2154

          k =-0.0964 0.0928 0.0000 ( 14299 PWs)   bands (ev):

  -112.8683-112.8664-112.8646-112.7617-112.7598-112.7580-112.6981-112.5015
  -112.4990-112.4977-112.4869-112.3161 -70.3564 -70.3442 -70.3327 -70.2399
   -70.2333 -70.2250 -70.1941 -70.1864 -70.1813 -70.1760 -70.1709 -70.1653
   -70.1615 -70.1499 -70.1482 -70.1458 -70.1441 -70.1339 -70.0973 -70.0936
   -70.0924 -69.9434 -69.9353 -69.9294 -69.9224 -69.9127 -69.9054 -69.8988
   -69.8911 -69.8555 -69.8532 -69.8520 -69.8349 -69.7452 -69.7445 -69.6837
   -13.3986  -6.9871  -5.9911  -5.2919  -5.1617  -4.7350  -4.4199  -4.2997
    -4.2064  -4.1251  -4.0817  -3.9793  -3.9149  -3.8670  -3.8186  -3.7385
    -3.7130  -3.6077  -3.5495  -3.5232  -3.4690  -3.4501  -3.4059  -3.2857
    -3.2658  -3.2448  -3.1914  -3.1414  -3.0774  -3.0352  -3.0026  -2.9803
    -2.9568  -2.9129  -2.8798  -2.8572  -2.8129  -2.7320  -2.7151  -2.7047
    -2.6547  -2.6423  -2.6054  -2.4809  -2.4647  -2.4252  -2.3868  -2.3522
    -2.3011  -2.2546  -2.2305  -2.1773  -2.1368  -2.0989  -2.0740  -2.0396
    -1.9646  -1.9350  -1.9087  -1.8802  -1.8505  -1.8091  -1.7922  -1.7638
    -1.5809  -1.3688  -0.9933  -0.7542  -0.1868   0.3254   0.9506   1.4313
     1.8312   2.7368   2.8763   3.4519   4.1063   4.7355

          k =-0.0964 0.1299 0.0000 ( 14299 PWs)   bands (ev):

  -112.8683-112.8665-112.8645-112.7617-112.7599-112.7580-112.6981-112.5014
  -112.4991-112.4977-112.4869-112.3161 -70.3563 -70.3443 -70.3327 -70.2399
   -70.2334 -70.2249 -70.1941 -70.1865 -70.1813 -70.1760 -70.1709 -70.1653
   -70.1615 -70.1500 -70.1482 -70.1459 -70.1441 -70.1338 -70.0973 -70.0936
   -70.0924 -69.9434 -69.9353 -69.9294 -69.9224 -69.9127 -69.9054 -69.8988
   -69.8911 -69.8555 -69.8533 -69.8520 -69.8349 -69.7452 -69.7445 -69.6837
   -13.3986  -6.9871  -5.9911  -5.2919  -5.1617  -4.7349  -4.4199  -4.2997
    -4.2064  -4.1251  -4.0817  -3.9793  -3.9149  -3.8670  -3.8185  -3.7385
    -3.7130  -3.6077  -3.5495  -3.5232  -3.4690  -3.4501  -3.4059  -3.2857
    -3.2658  -3.2448  -3.1915  -3.1414  -3.0774  -3.0352  -3.0026  -2.9803
    -2.9568  -2.9129  -2.8798  -2.8572  -2.8129  -2.7320  -2.7151  -2.7047
    -2.6547  -2.6423  -2.6054  -2.4809  -2.4647  -2.4252  -2.3867  -2.3521
    -2.3011  -2.2546  -2.2305  -2.1774  -2.1368  -2.0989  -2.0741  -2.0396
    -1.9646  -1.9350  -1.9087  -1.8802  -1.8505  -1.8091  -1.7922  -1.7638
    -1.5808  -1.3688  -0.9932  -0.7542  -0.1868   0.3254   0.9506   1.4313
     1.8312   2.7368   2.8763   3.4519   4.1063   4.7355

          k =-0.0964-0.0557 0.0000 ( 14294 PWs)   bands (ev):

  -112.8682-112.8666-112.8645-112.7616-112.7600-112.7579-112.6981-112.5014
  -112.4993-112.4975-112.4869-112.3161 -70.3565 -70.3440 -70.3328 -70.2398
   -70.2334 -70.2249 -70.1939 -70.1876 -70.1796 -70.1790 -70.1682 -70.1633
   -70.1606 -70.1544 -70.1483 -70.1460 -70.1440 -70.1323 -70.0987 -70.0936
   -70.0913 -69.9443 -69.9376 -69.9217 -69.9207 -69.9169 -69.9102 -69.8971
   -69.8901 -69.8554 -69.8534 -69.8519 -69.8349 -69.7454 -69.7443 -69.6837
   -13.3985  -6.6839  -6.5914  -5.1800  -4.9590  -4.5127  -4.4720  -4.2670
    -4.2172  -4.2043  -4.1632  -4.0019  -3.8967  -3.8472  -3.8186  -3.7664
    -3.6572  -3.6540  -3.5947  -3.4746  -3.4594  -3.4327  -3.4047  -3.3049
    -3.2898  -3.2382  -3.1700  -3.1251  -3.0170  -3.0047  -2.9899  -2.9304
    -2.9255  -2.8713  -2.8393  -2.8194  -2.8133  -2.7843  -2.7449  -2.7426
    -2.7233  -2.7012  -2.5367  -2.5054  -2.4669  -2.4243  -2.4031  -2.3818
    -2.3122  -2.3017  -2.2999  -2.2279  -2.1814  -2.1503  -2.1209  -2.0889
    -2.0513  -2.0487  -1.9293  -1.8467  -1.8081  -1.7975  -1.7465  -1.7268
    -1.6988  -0.9312  -0.7991  -0.3613  -0.0330   0.0332   0.6555   1.1503
     1.4765   2.1131   3.1858   3.6129   4.0843   5.2154

     the Fermi energy is    -0.1358 ev

!    total energy              =   -4879.40445050 Ry
     Harris-Foulkes estimate   =   -4879.40443389 Ry
     estimated scf accuracy    <       0.00000134 Ry

     The total energy is the sum of the following terms:

     one-electron contribution =  -37827.21333199 Ry
     hartree contribution      =   18925.12960081 Ry
     xc contribution           =    -485.33937846 Ry
     ewald contribution        =   14508.04692427 Ry
     electric field correction =       0.00047745 Ry
     smearing contrib. (-TS)   =      -0.02874258 Ry

     convergence has been achieved in  34 iterations
 
 BEEF-vdW xc energy contributions
           1 :   -430.023127154567     
           2 :    389.807236225017     
           3 :   -321.687661914119     
           4 :    244.404695566292     
           5 :   -175.008353068915     
           6 :    122.757554528448     
           7 :   -87.6789042058465     
           8 :    63.7188638500367     
           9 :   -44.0291208595704     
          10 :    25.1257986020099     
          11 :   -7.84562386603142     
          12 :   -4.75627697085082     
          13 :    10.5922296203497     
          14 :   -10.5001976383186     
          15 :    7.82773123383487     
          16 :   -6.25053363598198     
          17 :    7.53470604488746     
          18 :   -10.7757632737648     
          19 :    13.4737194475435     
          20 :   -13.5393464247232     
          21 :    10.7879470838010     
          22 :   -6.95871686283806     
          23 :    4.38137096156379     
          24 :   -4.32762832447651     
          25 :    6.21534522410707     
          26 :   -8.15622053284335     
          27 :    8.37104849138495     
          28 :   -6.43369354581273     
          29 :    3.49132225394072     
          30 :   -1.36889529944011     
          31 :   -34.3976700442341     
          32 :   -23.5044859872944     

     Forces acting on atoms (Ry/au):


     negative rho (up, down):  1.217E-03 0.000E+00
     atom    1 type  1   force =    -0.00087691   -0.00050895    0.00359191
     atom    2 type  1   force =     0.00087941   -0.00049320    0.00344041
     atom    3 type  1   force =     0.00000532    0.00101061    0.00366175
     atom    4 type  1   force =    -0.00000555   -0.00000626    0.00129738
     atom    5 type  1   force =    -0.00005084    0.00268020    0.00168411
     atom    6 type  1   force =     0.00005850   -0.00005730   -0.01039031
     atom    7 type  1   force =    -0.00237320   -0.00128838    0.00169514
     atom    8 type  1   force =     0.00236778   -0.00133998    0.00174839
     atom    9 type  1   force =     0.00000006    0.00000592   -0.00311140
     atom   10 type  1   force =    -0.00000251    0.01146066    0.03114892
     atom   11 type  1   force =     0.00991099   -0.00573281    0.03117577
     atom   12 type  1   force =    -0.00991152   -0.00573008    0.03112927
     atom   13 type  2   force =    -0.00000152   -0.00000042   -0.09707135

     Total force =     0.112859     Total SCF correction =     0.005607


     entering subroutine stress ...


     negative rho (up, down):  1.217E-03 0.000E+00
          total   stress  (Ry/bohr**3)                   (kbar)     P=  -29.61
  -0.00020373  -0.00000000   0.00000000        -29.97     -0.00      0.00
  -0.00000000  -0.00020373   0.00000000         -0.00    -29.97      0.00
   0.00000000   0.00000000  -0.00019637          0.00      0.00    -28.89


     BFGS Geometry Optimization

     number of scf cycles    =   1
     number of bfgs steps    =   0

     energy   new            =   -4879.4044505020 Ry

     new trust radius        =       0.0970713454 bohr
     new conv_thr            =       0.0000099958 Ry


ATOMIC_POSITIONS (crystal)
Cu1      0.166666667   0.166666667   0.412653782    0   0   0
Cu1      0.666666667   0.166666667   0.412653782    0   0   0
Cu1      0.166666667   0.666666667   0.412653782    0   0   0
Cu1      0.666666667   0.666666667   0.412653782    0   0   0
Cu1      0.833333333   0.333333333   0.500000000    0   0   0
Cu1      0.333333333   0.333333333   0.500000000    0   0   0
Cu1      0.833333333   0.833333333   0.500000000    0   0   0
Cu1      0.333333333   0.833333333   0.500000000    0   0   0
Cu1     -0.000000343   0.000000697   0.587278276
Cu1      0.499324414   0.001350660   0.588026408
Cu1      0.001349354   0.499324377   0.588026994
Cu1      0.499326053   0.499324699   0.588025979
N1       0.333333203   0.333333284   0.639676167



     Writing output data file calc.save
     Check: negative starting charge=   -0.000128
     NEW-OLD atomic charge density approx. for the potential
     Check: negative starting charge=   -0.000131

     negative rho (up, down):  1.207E-03 0.000E+00
 
     Adding external electric field

     Computed dipole along edir(3) : 
        Dipole               -0.2900 Ry au,         -0.7371 Debye
        Dipole field         -0.0010 Ry au
 
        Potential amp.        0.0855 Ry
        Total length         44.6496 bohr
 

     total cpu time spent up to now is      743.8 secs

     per-process dynamical memory:    90.7 Mb

     Self-consistent Calculation

     iteration #  1     ecut=    36.75 Ry     beta=0.30
     Davidson diagonalization with overlap
     ethr =  1.00E-06,  avg # of iterations =  4.0

     negative rho (up, down):  1.181E-03 0.000E+00
 
     Adding external electric field

     Computed dipole along edir(3) : 
        Dipole               -1.1467 Ry au,         -2.9146 Debye
        Dipole field         -0.0038 Ry au
 
        Potential amp.        0.3380 Ry
        Total length         44.6496 bohr
 

     total cpu time spent up to now is      770.3 secs

     total energy              =   -4879.34982054 Ry
     Harris-Foulkes estimate   =   -4879.41786005 Ry
     estimated scf accuracy    <       0.14511837 Ry

     iteration #  2     ecut=    36.75 Ry     beta=0.30
     Davidson diagonalization with overlap
     ethr =  6.23E-05,  avg # of iterations =  6.0

     negative rho (up, down):  1.163E-03 0.000E+00
 
     Adding external electric field

     Computed dipole along edir(3) : 
        Dipole               -0.3032 Ry au,         -0.7706 Debye
        Dipole field         -0.0010 Ry au
 
        Potential amp.        0.0894 Ry
        Total length         44.6496 bohr
 

     total cpu time spent up to now is      790.0 secs

     total energy              =   -4879.06606667 Ry
     Harris-Foulkes estimate   =   -4879.78371592 Ry
     estimated scf accuracy    <      13.56613312 Ry

     iteration #  3     ecut=    36.75 Ry     beta=0.30
     Davidson diagonalization with overlap
     ethr =  6.23E-05,  avg # of iterations =  4.8

     negative rho (up, down):  1.176E-03 0.000E+00
 
     Adding external electric field

     Computed dipole along edir(3) : 
        Dipole               -0.3467 Ry au,         -0.8811 Debye
        Dipole field         -0.0011 Ry au
 
        Potential amp.        0.1022 Ry
        Total length         44.6496 bohr
 

     total cpu time spent up to now is      809.3 secs

     total energy              =   -4879.41140525 Ry
     Harris-Foulkes estimate   =   -4879.42002330 Ry
     estimated scf accuracy    <       0.06024600 Ry

     iteration #  4     ecut=    36.75 Ry     beta=0.30
     Davidson diagonalization with overlap
     ethr =  2.59E-05,  avg # of iterations =  4.0

     negative rho (up, down):  1.189E-03 0.000E+00
 
     Adding external electric field

     Computed dipole along edir(3) : 
        Dipole               -0.3490 Ry au,         -0.8869 Debye
        Dipole field         -0.0012 Ry au
 
        Potential amp.        0.1029 Ry
        Total length         44.6496 bohr
 

     total cpu time spent up to now is      825.9 secs

     total energy              =   -4879.41541873 Ry
     Harris-Foulkes estimate   =   -4879.41568647 Ry
     estimated scf accuracy    <       0.00151111 Ry

     iteration #  5     ecut=    36.75 Ry     beta=0.30
     Davidson diagonalization with overlap
     ethr =  6.49E-07,  avg # of iterations =  3.7

     negative rho (up, down):  1.196E-03 0.000E+00
 
     Adding external electric field

     Computed dipole along edir(3) : 
        Dipole               -0.3547 Ry au,         -0.9016 Debye
        Dipole field         -0.0012 Ry au
 
        Potential amp.        0.1046 Ry
        Total length         44.6496 bohr
 

     total cpu time spent up to now is      844.4 secs

     total energy              =   -4879.41559723 Ry
     Harris-Foulkes estimate   =   -4879.41569001 Ry
     estimated scf accuracy    <       0.00037566 Ry

     iteration #  6     ecut=    36.75 Ry     beta=0.30
     Davidson diagonalization with overlap
     ethr =  1.61E-07,  avg # of iterations =  2.3

     negative rho (up, down):  1.207E-03 0.000E+00
 
     Adding external electric field

     Computed dipole along edir(3) : 
        Dipole               -0.3504 Ry au,         -0.8907 Debye
        Dipole field         -0.0012 Ry au
 
        Potential amp.        0.1033 Ry
        Total length         44.6496 bohr
 

     total cpu time spent up to now is      860.5 secs

     total energy              =   -4879.41562948 Ry
     Harris-Foulkes estimate   =   -4879.41565718 Ry
     estimated scf accuracy    <       0.00010607 Ry

     iteration #  7     ecut=    36.75 Ry     beta=0.30
     Davidson diagonalization with overlap
     ethr =  4.55E-08,  avg # of iterations =  2.0

     negative rho (up, down):  1.216E-03 0.000E+00
 
     Adding external electric field

     Computed dipole along edir(3) : 
        Dipole               -0.3492 Ry au,         -0.8875 Debye
        Dipole field         -0.0012 Ry au
 
        Potential amp.        0.1029 Ry
        Total length         44.6496 bohr
 

     total cpu time spent up to now is      875.6 secs

     total energy              =   -4879.41563743 Ry
     Harris-Foulkes estimate   =   -4879.41564237 Ry
     estimated scf accuracy    <       0.00003846 Ry

     iteration #  8     ecut=    36.75 Ry     beta=0.30
     Davidson diagonalization with overlap
     ethr =  1.65E-08,  avg # of iterations =  1.6

     negative rho (up, down):  1.241E-03 0.000E+00

     negative rho (up, down):  1.241E-03 0.000E+00

     negative rho (up, down):  1.241E-03 0.000E+00

     negative rho (up, down):  1.241E-03 0.000E+00

     negative rho (up, down):  1.241E-03 0.000E+00

     negative rho (up, down):  1.241E-03 0.000E+00

     negative rho (up, down):  1.241E-03 0.000E+00

     negative rho (up, down):  1.241E-03 0.000E+00

     negative rho (up, down):  1.241E-03 0.000E+00

     negative rho (up, down):  1.241E-03 0.000E+00

     negative rho (up, down):  1.241E-03 0.000E+00

     negative rho (up, down):  1.241E-03 0.000E+00

     negative rho (up, down):  1.241E-03 0.000E+00

     negative rho (up, down):  1.241E-03 0.000E+00

     negative rho (up, down):  1.241E-03 0.000E+00

     negative rho (up, down):  1.241E-03 0.000E+00

     negative rho (up, down):  1.241E-03 0.000E+00

     negative rho (up, down):  1.241E-03 0.000E+00

     negative rho (up, down):  1.241E-03 0.000E+00

     negative rho (up, down):  1.241E-03 0.000E+00

     negative rho (up, down):  1.241E-03 0.000E+00

     negative rho (up, down):  1.241E-03 0.000E+00

     negative rho (up, down):  1.241E-03 0.000E+00

     negative rho (up, down):  1.241E-03 0.000E+00

     negative rho (up, down):  1.241E-03 0.000E+00

     negative rho (up, down):  1.241E-03 0.000E+00

     negative rho (up, down):  1.241E-03 0.000E+00

     negative rho (up, down):  1.241E-03 0.000E+00

     negative rho (up, down):  1.241E-03 0.000E+00

     negative rho (up, down):  1.241E-03 0.000E+00

     negative rho (up, down):  1.241E-03 0.000E+00

     negative rho (up, down):  1.241E-03 0.000E+00

     negative rho (up, down):  1.241E-03 0.000E+00

     negative rho (up, down):  1.241E-03 0.000E+00

     negative rho (up, down):  1.241E-03 0.000E+00
 
     Adding external electric field

     Computed dipole along edir(3) : 
        Dipole               -0.3477 Ry au,         -0.8838 Debye
        Dipole field         -0.0011 Ry au
 
        Potential amp.        0.1025 Ry
        Total length         44.6496 bohr
 

     total cpu time spent up to now is      924.1 secs

     End of self-consistent calculation

          k = 0.0000 0.0000 0.0000 ( 14321 PWs)   bands (ev):

  -112.9003-112.8948-112.8945-112.7212-112.7154-112.7154-112.6598-112.4669
  -112.4609-112.4606-112.4487-112.2890 -70.4155 -70.3792 -70.3789 -70.2632
   -70.2629 -70.2386 -70.2198 -70.1928 -70.1926 -70.1496 -70.1461 -70.1461
   -70.1092 -70.1082 -70.1018 -70.1017 -70.0893 -70.0893 -70.0565 -70.0507
   -70.0507 -69.9208 -69.9145 -69.9144 -69.8663 -69.8662 -69.8661 -69.8469
   -69.8469 -69.8205 -69.8151 -69.8149 -69.7968 -69.7166 -69.7166 -69.6575
   -13.6904  -8.3065  -6.2903  -5.0550  -4.8434  -4.8434  -4.7229  -4.6341
    -4.5735  -4.5735  -4.3118  -4.3118  -4.3038  -4.1040  -4.1040  -4.0995
    -3.7572  -3.7572  -3.5721  -3.3804  -3.3803  -3.3115  -3.1694  -3.1694
    -3.1219  -3.0091  -3.0091  -2.9750  -2.9406  -2.9405  -2.9139  -2.8148
    -2.8148  -2.7742  -2.7742  -2.5824  -2.5477  -2.5477  -2.3875  -2.3013
    -2.3012  -2.2955  -2.2182  -2.2182  -2.0670  -2.0669  -1.9628  -1.9627
    -1.8959  -1.8869  -1.8625  -1.8624  -1.7920  -1.7920  -1.7593  -1.7485
    -1.7485  -1.7455  -1.6650  -1.6649  -1.5283  -1.5239  -1.5238  -1.1880
    -1.0694  -0.7015  -0.7014   0.1524   0.1524   0.3334   0.7006   1.2289
     1.2289   1.3196   1.5875   1.5875   3.7472   3.9591

          k = 0.0000 0.0371 0.0000 ( 14383 PWs)   bands (ev):

  -112.9000-112.8949-112.8946-112.7208-112.7158-112.7154-112.6598-112.4665
  -112.4612-112.4606-112.4488-112.2890 -70.4132 -70.3808 -70.3789 -70.2627
   -70.2615 -70.2400 -70.2184 -70.1945 -70.1929 -70.1468 -70.1436 -70.1432
   -70.1106 -70.1077 -70.1022 -70.1017 -70.0927 -70.0898 -70.0564 -70.0532
   -70.0514 -69.9178 -69.9120 -69.9106 -69.8688 -69.8687 -69.8650 -69.8513
   -69.8480 -69.8201 -69.8154 -69.8149 -69.7968 -69.7170 -69.7168 -69.6575
   -13.6796  -8.1028  -6.1241  -4.9835  -4.9133  -4.7832  -4.7119  -4.6036
    -4.5231  -4.5029  -4.2932  -4.2401  -4.2176  -4.0568  -4.0442  -4.0212
    -3.7547  -3.7373  -3.5403  -3.3882  -3.3857  -3.3046  -3.1655  -3.1378
    -3.1325  -3.1039  -3.0157  -2.9898  -2.9399  -2.9301  -2.8913  -2.8894
    -2.8182  -2.8051  -2.7228  -2.6910  -2.6216  -2.5958  -2.4299  -2.4183
    -2.3741  -2.3393  -2.2505  -2.2404  -2.1466  -2.1016  -2.0967  -2.0619
    -1.9914  -1.9843  -1.9429  -1.9303  -1.8929  -1.8834  -1.8424  -1.8194
    -1.8167  -1.7959  -1.7705  -1.7465  -1.6764  -1.6513  -1.6083  -1.3736
    -1.0616  -0.8005  -0.7417  -0.5951   0.0297   0.1709   0.5878   1.1231
     1.3297   1.7740   2.3238   2.4188   3.9973   4.1635

          k = 0.0000 0.0742 0.0000 ( 14316 PWs)   bands (ev):

  -112.8991-112.8957-112.8947-112.7199-112.7166-112.7154-112.6599-112.4654
  -112.4621-112.4606-112.4489-112.2890 -70.4073 -70.3855 -70.3784 -70.2619
   -70.2577 -70.2436 -70.2147 -70.1991 -70.1932 -70.1426 -70.1371 -70.1330
   -70.1153 -70.1067 -70.1043 -70.1017 -70.1011 -70.0904 -70.0585 -70.0564
   -70.0527 -69.9113 -69.9054 -69.8994 -69.8753 -69.8751 -69.8629 -69.8623
   -69.8509 -69.8191 -69.8163 -69.8149 -69.7969 -69.7178 -69.7170 -69.6575
   -13.6578  -7.5093  -5.7093  -5.5486  -4.7411  -4.6201  -4.6001  -4.5239
    -4.3284  -4.3114  -4.2017  -4.0783  -4.0668  -3.9434  -3.9226  -3.8250
    -3.7267  -3.6570  -3.4720  -3.4329  -3.4140  -3.3751  -3.2857  -3.2212
    -3.1698  -3.1557  -3.0968  -3.0671  -3.0228  -2.9816  -2.9271  -2.8758
    -2.8285  -2.8090  -2.7609  -2.7545  -2.7504  -2.6844  -2.5921  -2.5728
    -2.5141  -2.4916  -2.4848  -2.4177  -2.4095  -2.3715  -2.2832  -2.2764
    -2.2346  -2.1570  -2.1316  -2.0704  -2.0680  -2.0244  -2.0142  -1.9937
    -1.9567  -1.9042  -1.8714  -1.8397  -1.8057  -1.7692  -1.7155  -1.6815
    -1.5531  -0.8560  -0.7903  -0.3584  -0.0016   0.0768   0.4152   1.3608
     1.4811   2.2433   2.5688   3.6010   4.2450   4.7521

          k = 0.0000-0.1114 0.0000 ( 14294 PWs)   bands (ev):

  -112.8985-112.8963-112.8947-112.7192-112.7174-112.7154-112.6599-112.4643
  -112.4631-112.4606-112.4490-112.2890 -70.4029 -70.3894 -70.3782 -70.2615
   -70.2546 -70.2466 -70.2114 -70.2028 -70.1934 -70.1406 -70.1317 -70.1221
   -70.1200 -70.1132 -70.1058 -70.1034 -70.1017 -70.0906 -70.0614 -70.0563
   -70.0535 -69.9073 -69.9007 -69.8855 -69.8837 -69.8800 -69.8724 -69.8602
   -69.8530 -69.8183 -69.8171 -69.8149 -69.7970 -69.7182 -69.7171 -69.6575
   -13.6469  -6.6498  -6.5474  -5.1972  -4.9318  -4.5231  -4.4830  -4.2875
    -4.2407  -4.1781  -4.1311  -4.0556  -3.9203  -3.8177  -3.7992  -3.7860
    -3.6565  -3.6392  -3.5692  -3.4476  -3.4265  -3.4015  -3.3831  -3.2921
    -3.2817  -3.2300  -3.1515  -3.1156  -3.0255  -3.0033  -2.9709  -2.9109
    -2.9074  -2.8488  -2.8155  -2.7888  -2.7798  -2.7574  -2.7109  -2.7101
    -2.6940  -2.6809  -2.5180  -2.4698  -2.4490  -2.4004  -2.3995  -2.3712
    -2.2844  -2.2819  -2.2631  -2.2083  -2.1519  -2.1204  -2.0918  -2.0577
    -2.0264  -2.0251  -1.9083  -1.8180  -1.7787  -1.7682  -1.7130  -1.6823
    -1.6639  -0.9108  -0.8030  -0.3297   0.0099   0.0929   0.6722   1.1947
     1.5310   2.1974   3.1997   3.6327   4.1343   5.3048

          k = 0.0321-0.0186 0.0000 ( 14383 PWs)   bands (ev):

  -112.8999-112.8949-112.8946-112.7208-112.7158-112.7154-112.6598-112.4665
  -112.4610-112.4608-112.4488-112.2890 -70.4132 -70.3808 -70.3788 -70.2627
   -70.2615 -70.2400 -70.2184 -70.1945 -70.1929 -70.1468 -70.1436 -70.1432
   -70.1106 -70.1077 -70.1022 -70.1017 -70.0927 -70.0898 -70.0564 -70.0532
   -70.0514 -69.9178 -69.9118 -69.9107 -69.8688 -69.8686 -69.8651 -69.8514
   -69.8480 -69.8201 -69.8153 -69.8150 -69.7968 -69.7170 -69.7168 -69.6575
   -13.6796  -8.1028  -6.1241  -4.9835  -4.9134  -4.7832  -4.7119  -4.6036
    -4.5231  -4.5029  -4.2932  -4.2401  -4.2176  -4.0568  -4.0442  -4.0212
    -3.7548  -3.7372  -3.5403  -3.3882  -3.3856  -3.3046  -3.1655  -3.1378
    -3.1325  -3.1039  -3.0157  -2.9898  -2.9399  -2.9301  -2.8912  -2.8894
    -2.8182  -2.8051  -2.7228  -2.6910  -2.6216  -2.5958  -2.4299  -2.4183
    -2.3742  -2.3393  -2.2505  -2.2403  -2.1466  -2.1016  -2.0966  -2.0619
    -1.9914  -1.9843  -1.9429  -1.9304  -1.8929  -1.8834  -1.8424  -1.8194
    -1.8167  -1.7959  -1.7705  -1.7465  -1.6765  -1.6512  -1.6083  -1.3736
    -1.0616  -0.8005  -0.7417  -0.5951   0.0297   0.1709   0.5878   1.1231
     1.3297   1.7740   2.3238   2.4188   3.9973   4.1635

          k = 0.0321 0.0186 0.0000 ( 14383 PWs)   bands (ev):

  -112.8999-112.8951-112.8945-112.7208-112.7157-112.7154-112.6598-112.4665
  -112.4611-112.4608-112.4488-112.2890 -70.4131 -70.3810 -70.3786 -70.2625
   -70.2617 -70.2399 -70.2184 -70.1947 -70.1927 -70.1468 -70.1436 -70.1432
   -70.1106 -70.1077 -70.1022 -70.1017 -70.0926 -70.0898 -70.0564 -70.0532
   -70.0514 -69.9178 -69.9119 -69.9107 -69.8688 -69.8686 -69.8651 -69.8514
   -69.8480 -69.8201 -69.8153 -69.8150 -69.7968 -69.7170 -69.7168 -69.6575
   -13.6796  -8.1028  -6.1241  -4.9835  -4.9133  -4.7832  -4.7118  -4.6036
    -4.5230  -4.5030  -4.2932  -4.2401  -4.2176  -4.0568  -4.0442  -4.0212
    -3.7548  -3.7372  -3.5403  -3.3882  -3.3856  -3.3047  -3.1655  -3.1378
    -3.1325  -3.1039  -3.0157  -2.9898  -2.9399  -2.9301  -2.8913  -2.8894
    -2.8182  -2.8051  -2.7227  -2.6910  -2.6216  -2.5958  -2.4298  -2.4183
    -2.3741  -2.3393  -2.2505  -2.2403  -2.1466  -2.1016  -2.0967  -2.0620
    -1.9913  -1.9843  -1.9429  -1.9303  -1.8929  -1.8834  -1.8424  -1.8194
[...]
     1.9317   2.3400   2.5350   2.8826   4.6253   4.7218

          k = 0.0643 0.0371 0.0000 ( 14316 PWs)   bands (ev):

  -112.9360-112.9314-112.9303-112.5905-112.5872-112.5860-112.5028-112.3234
  -112.3195-112.3175-112.3167-112.2191 -70.4953 -70.4647 -70.4564 -70.2743
   -70.2710 -70.2532 -70.2212 -70.2065 -70.2024 -70.0160 -70.0070 -70.0056
   -69.9864 -69.9811 -69.9760 -69.9753 -69.9677 -69.9599 -69.9081 -69.9035
   -69.8931 -69.7680 -69.7679 -69.7595 -69.7359 -69.7329 -69.7251 -69.7210
   -69.7124 -69.6748 -69.6714 -69.6699 -69.6694 -69.6440 -69.6433 -69.5969
   -14.1654  -7.3947  -5.7761  -5.4160  -4.8995  -4.8838  -4.6093  -4.4332
    -4.3059  -4.2320  -4.1622  -4.0614  -4.0381  -3.8577  -3.8563  -3.7626
    -3.7061  -3.6191  -3.4117  -3.3495  -3.3444  -3.3194  -3.2477  -3.1365
    -3.1186  -3.0703  -2.9974  -2.9902  -2.9434  -2.9118  -2.8304  -2.8225
    -2.7324  -2.7257  -2.7029  -2.6907  -2.6513  -2.6141  -2.5119  -2.4834
    -2.4081  -2.3797  -2.3785  -2.3336  -2.2966  -2.2429  -2.1943  -2.1713
    -2.1332  -2.0471  -2.0303  -1.9915  -1.9321  -1.9199  -1.8984  -1.8806
    -1.8094  -1.7987  -1.7358  -1.7024  -1.6757  -1.6413  -1.5873  -1.5512
    -1.4339  -0.8053  -0.6928  -0.2729   0.1969   0.2713   0.4904   1.5741
     1.7018   2.3832   2.6856   3.6935   4.4222   4.9048

          k = 0.0643-0.1485 0.0000 ( 14299 PWs)   bands (ev):

  -112.9356-112.9318-112.9303-112.5898-112.5879-112.5861-112.5028-112.3225
  -112.3199-112.3183-112.3164-112.2191 -70.4910 -70.4687 -70.4561 -70.2741
   -70.2688 -70.2552 -70.2195 -70.2084 -70.2028 -70.0116 -70.0041 -69.9971
   -69.9932 -69.9838 -69.9761 -69.9748 -69.9704 -69.9612 -69.9092 -69.9051
   -69.8931 -69.7646 -69.7597 -69.7519 -69.7456 -69.7351 -69.7290 -69.7209
   -69.7160 -69.6737 -69.6720 -69.6707 -69.6690 -69.6442 -69.6436 -69.5969
   -14.1520  -6.8576  -5.9295  -5.3788  -5.0876  -4.7977  -4.6389  -4.3862
    -4.2533  -4.0913  -4.0128  -3.9397  -3.8783  -3.7925  -3.7498  -3.6712
    -3.6129  -3.5620  -3.4762  -3.4116  -3.3727  -3.3393  -3.3102  -3.2676
    -3.2386  -3.1284  -3.1200  -3.0691  -3.0160  -2.9471  -2.9036  -2.8511
    -2.8186  -2.7765  -2.7590  -2.7280  -2.6923  -2.6251  -2.5805  -2.5626
    -2.5398  -2.5289  -2.4402  -2.3630  -2.3469  -2.2989  -2.2809  -2.2666
    -2.1640  -2.1302  -2.0905  -2.0614  -1.9927  -1.9638  -1.9207  -1.8930
    -1.8411  -1.8046  -1.7472  -1.7238  -1.6925  -1.6508  -1.6205  -1.6057
    -1.3854  -1.2628  -0.8575  -0.5784   0.0260   0.5917   1.1061   1.5833
     2.0376   2.9386   3.0710   3.6264   4.2559   4.9409

          k = 0.0643-0.1114 0.0000 ( 14310 PWs)   bands (ev):

  -112.9353-112.9320-112.9304-112.5889-112.5888-112.5861-112.5029-112.3219
  -112.3195-112.3195-112.3163-112.2191 -70.4881 -70.4716 -70.4559 -70.2740
   -70.2674 -70.2565 -70.2185 -70.2094 -70.2031 -70.0036 -70.0034 -70.0024
   -69.9884 -69.9881 -69.9771 -69.9734 -69.9724 -69.9625 -69.9078 -69.9077
   -69.8931 -69.7569 -69.7563 -69.7492 -69.7491 -69.7450 -69.7232 -69.7216
   -69.7216 -69.6724 -69.6723 -69.6719 -69.6688 -69.6440 -69.6440 -69.5969
   -14.1453  -6.2075  -6.0198  -5.8473  -5.0998  -4.8877  -4.5033  -4.3941
    -4.1910  -4.0720  -3.8520  -3.8092  -3.7526  -3.7027  -3.6739  -3.5927
    -3.5801  -3.5200  -3.5177  -3.4873  -3.4628  -3.4349  -3.3860  -3.3724
    -3.2556  -3.2092  -3.1325  -3.0986  -3.0977  -2.9789  -2.9771  -2.9668
    -2.9598  -2.8940  -2.7349  -2.6947  -2.6867  -2.6660  -2.6584  -2.6552
    -2.5590  -2.5237  -2.4028  -2.3464  -2.3338  -2.3057  -2.2940  -2.2357
    -2.1912  -2.1426  -2.0547  -2.0170  -1.9680  -1.9522  -1.9088  -1.8971
    -1.7787  -1.7771  -1.7621  -1.7355  -1.7089  -1.6884  -1.6796  -1.6735
    -1.5071  -1.4403  -1.1484  -0.6038  -0.1112   0.5727   1.4989   1.6466
     2.5228   3.5745   3.6417   4.0429   4.0951   4.3293

          k = 0.0643-0.0742 0.0000 ( 14299 PWs)   bands (ev):

  -112.9356-112.9317-112.9304-112.5898-112.5879-112.5861-112.5028-112.3225
  -112.3199-112.3183-112.3165-112.2191 -70.4911 -70.4687 -70.4561 -70.2741
   -70.2688 -70.2552 -70.2195 -70.2083 -70.2028 -70.0116 -70.0041 -69.9971
   -69.9932 -69.9838 -69.9761 -69.9748 -69.9704 -69.9612 -69.9092 -69.9051
   -69.8931 -69.7646 -69.7597 -69.7519 -69.7456 -69.7351 -69.7290 -69.7209
   -69.7160 -69.6737 -69.6720 -69.6707 -69.6690 -69.6442 -69.6436 -69.5969
   -14.1520  -6.8576  -5.9295  -5.3788  -5.0876  -4.7977  -4.6389  -4.3862
    -4.2533  -4.0913  -4.0128  -3.9397  -3.8783  -3.7925  -3.7498  -3.6712
    -3.6129  -3.5620  -3.4762  -3.4116  -3.3727  -3.3393  -3.3101  -3.2676
    -3.2386  -3.1284  -3.1200  -3.0691  -3.0160  -2.9471  -2.9036  -2.8511
    -2.8187  -2.7766  -2.7590  -2.7280  -2.6923  -2.6251  -2.5805  -2.5626
    -2.5398  -2.5289  -2.4402  -2.3630  -2.3469  -2.2989  -2.2809  -2.2666
    -2.1640  -2.1302  -2.0904  -2.0614  -1.9927  -1.9638  -1.9207  -1.8930
    -1.8411  -1.8046  -1.7472  -1.7238  -1.6925  -1.6508  -1.6205  -1.6057
    -1.3854  -1.2628  -0.8575  -0.5784   0.0260   0.5916   1.1061   1.5833
     2.0376   2.9386   3.0710   3.6264   4.2559   4.9409

          k =-0.0964 0.0557 0.0000 ( 14294 PWs)   bands (ev):

  -112.9356-112.9317-112.9304-112.5898-112.5880-112.5861-112.5028-112.3223
  -112.3205-112.3177-112.3168-112.2191 -70.4911 -70.4685 -70.4563 -70.2740
   -70.2689 -70.2552 -70.2195 -70.2085 -70.2026 -70.0138 -70.0011 -69.9952
   -69.9916 -69.9895 -69.9752 -69.9747 -69.9710 -69.9601 -69.9104 -69.9041
   -69.8931 -69.7641 -69.7637 -69.7445 -69.7404 -69.7400 -69.7367 -69.7167
   -69.7167 -69.6732 -69.6730 -69.6699 -69.6694 -69.6443 -69.6434 -69.5969
   -14.1519  -6.6399  -6.3943  -5.3743  -4.8082  -4.7916  -4.5665  -4.2965
    -4.2711  -4.0838  -4.0525  -3.9710  -3.9406  -3.8054  -3.7168  -3.6910
    -3.6230  -3.6158  -3.4925  -3.4119  -3.3314  -3.3045  -3.2944  -3.2689
    -3.2513  -3.1363  -3.0896  -3.0706  -2.9966  -2.9073  -2.8721  -2.8453
    -2.8282  -2.7161  -2.7052  -2.6927  -2.6581  -2.6414  -2.6345  -2.6049
    -2.5802  -2.5681  -2.4039  -2.3861  -2.3530  -2.3407  -2.2720  -2.2717
    -2.2367  -2.1580  -2.1347  -2.1162  -2.0367  -1.9798  -1.9641  -1.9238
    -1.9092  -1.9034  -1.8027  -1.6894  -1.6574  -1.6529  -1.5846  -1.5499
    -1.4462  -0.8189  -0.8169  -0.2336   0.2062   0.3412   0.7243   1.3356
     1.7706   2.5329   3.3199   3.5576   4.2997   5.6494

          k =-0.0964 0.0928 0.0000 ( 14299 PWs)   bands (ev):

  -112.9356-112.9318-112.9304-112.5898-112.5879-112.5861-112.5028-112.3225
  -112.3199-112.3183-112.3165-112.2191 -70.4911 -70.4687 -70.4561 -70.2741
   -70.2688 -70.2552 -70.2195 -70.2083 -70.2028 -70.0116 -70.0041 -69.9971
   -69.9932 -69.9838 -69.9761 -69.9748 -69.9704 -69.9612 -69.9092 -69.9051
   -69.8931 -69.7646 -69.7597 -69.7519 -69.7456 -69.7351 -69.7290 -69.7209
   -69.7160 -69.6737 -69.6720 -69.6707 -69.6690 -69.6442 -69.6436 -69.5969
   -14.1520  -6.8576  -5.9295  -5.3788  -5.0876  -4.7977  -4.6389  -4.3862
    -4.2533  -4.0913  -4.0128  -3.9397  -3.8784  -3.7925  -3.7498  -3.6712
    -3.6129  -3.5620  -3.4762  -3.4116  -3.3727  -3.3393  -3.3101  -3.2677
    -3.2386  -3.1284  -3.1200  -3.0691  -3.0160  -2.9471  -2.9036  -2.8511
    -2.8187  -2.7765  -2.7590  -2.7280  -2.6923  -2.6252  -2.5805  -2.5626
    -2.5398  -2.5289  -2.4402  -2.3630  -2.3469  -2.2989  -2.2809  -2.2666
    -2.1640  -2.1302  -2.0905  -2.0614  -1.9927  -1.9638  -1.9207  -1.8930
    -1.8411  -1.8046  -1.7472  -1.7238  -1.6925  -1.6508  -1.6205  -1.6057
    -1.3855  -1.2628  -0.8575  -0.5784   0.0260   0.5917   1.1060   1.5833
     2.0376   2.9385   3.0710   3.6264   4.2559   4.9409

          k =-0.0964 0.1299 0.0000 ( 14299 PWs)   bands (ev):

  -112.9356-112.9318-112.9303-112.5898-112.5879-112.5861-112.5028-112.3225
  -112.3199-112.3183-112.3164-112.2191 -70.4910 -70.4687 -70.4561 -70.2741
   -70.2688 -70.2552 -70.2195 -70.2084 -70.2028 -70.0116 -70.0041 -69.9971
   -69.9932 -69.9838 -69.9761 -69.9748 -69.9704 -69.9612 -69.9092 -69.9051
   -69.8931 -69.7647 -69.7597 -69.7519 -69.7456 -69.7351 -69.7290 -69.7209
   -69.7160 -69.6737 -69.6720 -69.6707 -69.6690 -69.6442 -69.6436 -69.5969
   -14.1520  -6.8576  -5.9295  -5.3788  -5.0876  -4.7977  -4.6389  -4.3862
    -4.2533  -4.0913  -4.0128  -3.9397  -3.8783  -3.7925  -3.7498  -3.6712
    -3.6129  -3.5620  -3.4762  -3.4116  -3.3727  -3.3393  -3.3101  -3.2677
    -3.2386  -3.1284  -3.1200  -3.0691  -3.0160  -2.9471  -2.9036  -2.8511
    -2.8187  -2.7765  -2.7590  -2.7280  -2.6923  -2.6251  -2.5805  -2.5626
    -2.5398  -2.5289  -2.4402  -2.3630  -2.3469  -2.2989  -2.2809  -2.2666
    -2.1640  -2.1302  -2.0905  -2.0614  -1.9927  -1.9638  -1.9207  -1.8930
    -1.8411  -1.8046  -1.7472  -1.7238  -1.6925  -1.6508  -1.6205  -1.6057
    -1.3854  -1.2628  -0.8575  -0.5784   0.0260   0.5917   1.1061   1.5833
     2.0376   2.9386   3.0710   3.6264   4.2559   4.9409

          k =-0.0964-0.0557 0.0000 ( 14294 PWs)   bands (ev):

  -112.9356-112.9318-112.9303-112.5898-112.5880-112.5861-112.5028-112.3223
  -112.3205-112.3177-112.3167-112.2191 -70.4911 -70.4686 -70.4562 -70.2740
   -70.2689 -70.2552 -70.2195 -70.2086 -70.2026 -70.0138 -70.0011 -69.9952
   -69.9916 -69.9895 -69.9752 -69.9747 -69.9710 -69.9601 -69.9104 -69.9041
   -69.8931 -69.7641 -69.7637 -69.7445 -69.7404 -69.7400 -69.7367 -69.7167
   -69.7167 -69.6732 -69.6730 -69.6699 -69.6694 -69.6443 -69.6434 -69.5969
   -14.1519  -6.6398  -6.3943  -5.3742  -4.8082  -4.7916  -4.5664  -4.2965
    -4.2712  -4.0838  -4.0525  -3.9710  -3.9406  -3.8054  -3.7169  -3.6910
    -3.6230  -3.6157  -3.4925  -3.4119  -3.3314  -3.3045  -3.2944  -3.2689
    -3.2513  -3.1363  -3.0896  -3.0706  -2.9967  -2.9073  -2.8722  -2.8453
    -2.8282  -2.7161  -2.7052  -2.6927  -2.6581  -2.6414  -2.6344  -2.6049
    -2.5802  -2.5681  -2.4039  -2.3861  -2.3530  -2.3407  -2.2720  -2.2717
    -2.2367  -2.1580  -2.1347  -2.1162  -2.0368  -1.9798  -1.9641  -1.9238
    -1.9092  -1.9034  -1.8027  -1.6894  -1.6574  -1.6529  -1.5846  -1.5499
    -1.4462  -0.8189  -0.8169  -0.2336   0.2062   0.3411   0.7243   1.3356
     1.7706   2.5328   3.3199   3.5576   4.2997   5.6493

     the Fermi energy is     0.0577 ev

!    total energy              =   -4879.43319506 Ry
     Harris-Foulkes estimate   =   -4879.43319660 Ry
     estimated scf accuracy    <       0.00000006 Ry

     The total energy is the sum of the following terms:

     one-electron contribution =  -37896.40226809 Ry
     hartree contribution      =   18960.50544176 Ry
     xc contribution           =    -485.47020468 Ry
     ewald contribution        =   14541.95902008 Ry
     electric field correction =       0.00020399 Ry
     smearing contrib. (-TS)   =      -0.02538812 Ry

     convergence has been achieved in  11 iterations
 
 BEEF-vdW xc energy contributions
           1 :   -430.166796486401     
           2 :    390.016471591821     
           3 :   -321.953828023127     
           4 :    244.646336073299     
           5 :   -175.131937799067     
           6 :    122.720807873853     
           7 :   -87.5175950850407     
           8 :    63.5228733666869     
           9 :   -43.8864921755306     
          10 :    25.0728455246503     
          11 :   -7.85438729394849     
          12 :   -4.74778733008122     
          13 :    10.6289329010754     
          14 :   -10.5752220294380     
          15 :    7.88902406202840     
          16 :   -6.24136787914006     
          17 :    7.43706918701372     
          18 :   -10.6266959394218     
          19 :    13.3446128828809     
          20 :   -13.4922359120736     
          21 :    10.8373110094682     
          22 :   -7.06314390018298     
          23 :    4.47102444193581     
          24 :   -4.35065892530929     
          25 :    6.17150745808112     
          26 :   -8.09417984458781     
          27 :    8.35168586431547     
          28 :   -6.48420073851815     
          29 :    3.58134301192581     
          30 :   -1.42742544539016     
          31 :   -34.4075695632936     
          32 :   -23.5253105839803     

     Forces acting on atoms (Ry/au):


     negative rho (up, down):  1.300E-03 0.000E+00
     atom    1 type  1   force =    -0.00127807   -0.00073778    0.00301757
     atom    2 type  1   force =     0.00127824   -0.00073781    0.00301766
     atom    3 type  1   force =    -0.00000002    0.00147621    0.00301710
     atom    4 type  1   force =    -0.00000006    0.00000024    0.00029922
     atom    5 type  1   force =     0.00000009    0.00445512   -0.00137346
     atom    6 type  1   force =    -0.00000202   -0.00000366   -0.00587646
     atom    7 type  1   force =    -0.00385976   -0.00222526   -0.00137250
     atom    8 type  1   force =     0.00386064   -0.00222568   -0.00137218
     atom    9 type  1   force =    -0.00000054    0.00000422    0.00144121
     atom   10 type  1   force =    -0.00000765    0.00111105    0.00000988
     atom   11 type  1   force =     0.00096471   -0.00056931    0.00000794
     atom   12 type  1   force =    -0.00094185   -0.00054743   -0.00000535
     atom   13 type  2   force =    -0.00001371    0.00000009   -0.00081063

     Total force =     0.002532     Total SCF correction =     0.001380
     SCF correction compared to forces is large: reduce conv_thr to get better values


     entering subroutine stress ...


     negative rho (up, down):  1.300E-03 0.000E+00
          total   stress  (Ry/bohr**3)                   (kbar)     P=  -16.61
  -0.00012238   0.00000000  -0.00000001        -18.00      0.00     -0.00
   0.00000000  -0.00012237   0.00000000          0.00    -18.00      0.00
  -0.00000001   0.00000000  -0.00009403         -0.00      0.00    -13.83


     bfgs converged in  11 scf cycles and  10 bfgs steps
     (criteria: energy <  1.0E+00, force <  1.9E-03)

     End of BFGS Geometry Optimization

     Final energy   =   -4879.4331950554 Ry
Begin final coordinates

ATOMIC_POSITIONS (crystal)
Cu1      0.166666667   0.166666667   0.412653782    0   0   0
Cu1      0.666666667   0.166666667   0.412653782    0   0   0
Cu1      0.166666667   0.666666667   0.412653782    0   0   0
Cu1      0.666666667   0.666666667   0.412653782    0   0   0
Cu1      0.833333333   0.333333333   0.500000000    0   0   0
Cu1      0.333333333   0.333333333   0.500000000    0   0   0
Cu1      0.833333333   0.833333333   0.500000000    0   0   0
Cu1      0.333333333   0.833333333   0.500000000    0   0   0
Cu1      0.000001798   0.000000153   0.584758775
Cu1      0.506429896  -0.012857941   0.588892780
Cu1     -0.012858863   0.506432980   0.588891815
Cu1      0.506413439   0.506418786   0.588891565
N1       0.333329891   0.333326287   0.629954144
End final coordinates



     Writing output data file calc.save
 
     init_run     :      8.47s CPU      8.78s WALL (       1 calls)
     electrons    :   2784.22s CPU   2930.21s WALL (      11 calls)
     update_pot   :     21.58s CPU     22.85s WALL (      10 calls)
     forces       :    111.73s CPU    119.58s WALL (      11 calls)
     stress       :    352.01s CPU    373.03s WALL (      11 calls)

     Called by init_run:
     wfcinit      :      3.77s CPU      3.85s WALL (       1 calls)
     potinit      :      1.29s CPU      1.38s WALL (       1 calls)

     Called by electrons:
     c_bands      :   1448.94s CPU   1493.92s WALL (     139 calls)
     sum_band     :    457.62s CPU    489.46s WALL (     139 calls)
     v_of_rho     :    152.99s CPU    164.65s WALL (     150 calls)
     newd         :    366.16s CPU    382.19s WALL (     150 calls)
     mix_rho      :      5.67s CPU      5.86s WALL (     139 calls)
     vdW_energy   :     87.89s CPU     96.38s WALL (     546 calls)
     vdW_ffts     :    189.66s CPU    200.92s WALL (    1114 calls)
     vdW_v        :     79.05s CPU     81.94s WALL (     546 calls)

     Called by c_bands:
     init_us_2    :      5.32s CPU      5.34s WALL (    1505 calls)
     cegterg      :   1397.64s CPU   1435.33s WALL (     695 calls)

     Called by *egterg:
     h_psi        :    736.41s CPU    757.38s WALL (    3116 calls)
     s_psi        :     77.51s CPU     77.70s WALL (    3116 calls)
     g_psi        :      5.46s CPU      5.46s WALL (    2416 calls)
     cdiaghg      :    249.89s CPU    251.55s WALL (    3061 calls)

     Called by h_psi:
     add_vuspsi   :     79.64s CPU     79.75s WALL (    3116 calls)

     General routines
     calbec       :    127.08s CPU    130.40s WALL (    3921 calls)
     fft          :    309.63s CPU    342.43s WALL (   33043 calls)
     ffts         :      0.47s CPU      0.52s WALL (     289 calls)
     fftw         :    479.88s CPU    504.60s WALL (  527404 calls)
     interpolate  :      3.29s CPU      3.45s WALL (     289 calls)
     davcio       :      0.00s CPU      0.03s WALL (       5 calls)
 
     Parallel routines
     fft_scatter  :    432.84s CPU    490.57s WALL (  560736 calls)
 
     PWSCF        : 55m 8.10s CPU    58m 8.46s WALL

 
   This run was terminated on:  12:48:58   2May2018            

=------------------------------------------------------------------------------=
   JOB DONE.
=------------------------------------------------------------------------------=
Job  /afs/slac/g/suncat/bin/suncat-tsmpirun -x LD_LIBRARY_PATH -wdir /scratch/qe588454_hRIlO pw.x -npool 4 -in pw.inp

TID   HOST_NAME   COMMAND_LINE            STATUS            TERMINATION_TIME
===== ========== ================  =======================  ===================
00000 suncat0012 pw.x -npool 4 -i  Done                     05/02/2018 12:48:58
00001 suncat0012 pw.x -npool 4 -i  Done                     05/02/2018 12:48:58
00002 suncat0012 pw.x -npool 4 -i  Done                     05/02/2018 12:48:58
00003 suncat0012 pw.x -npool 4 -i  Done                     05/02/2018 12:48:58
00004 suncat0012 pw.x -npool 4 -i  Done                     05/02/2018 12:48:58
00005 suncat0012 pw.x -npool 4 -i  Done                     05/02/2018 12:48:58
00006 suncat0012 pw.x -npool 4 -i  Done                     05/02/2018 12:48:58
00007 suncat0012 pw.x -npool 4 -i  Done                     05/02/2018 12:48:58
00008 suncat0010 pw.x -npool 4 -i  Done                     05/02/2018 12:48:58
00009 suncat0010 pw.x -npool 4 -i  Done                     05/02/2018 12:48:58
00010 suncat0010 pw.x -npool 4 -i  Done                     05/02/2018 12:48:58
00011 suncat0010 pw.x -npool 4 -i  Done                     05/02/2018 12:48:58
00012 suncat0010 pw.x -npool 4 -i  Done                     05/02/2018 12:48:58
00013 suncat0010 pw.x -npool 4 -i  Done                     05/02/2018 12:48:58
00014 suncat0010 pw.x -npool 4 -i  Done                     05/02/2018 12:48:58
00015 suncat0010 pw.x -npool 4 -i  Done                     05/02/2018 12:48:58
00016 suncat0194 pw.x -npool 4 -i  Done                     05/02/2018 12:48:58
00017 suncat0194 pw.x -npool 4 -i  Done                     05/02/2018 12:48:58
00018 suncat0194 pw.x -npool 4 -i  Done                     05/02/2018 12:48:58
00019 suncat0194 pw.x -npool 4 -i  Done                     05/02/2018 12:48:58
00020 suncat0194 pw.x -npool 4 -i  Done                     05/02/2018 12:48:58
00021 suncat0194 pw.x -npool 4 -i  Done                     05/02/2018 12:48:58
00022 suncat0194 pw.x -npool 4 -i  Done                     05/02/2018 12:48:58
00023 suncat0194 pw.x -npool 4 -i  Done                     05/02/2018 12:48:58
00024 suncat0188 pw.x -npool 4 -i  Done                     05/02/2018 12:48:58
00025 suncat0188 pw.x -npool 4 -i  Done                     05/02/2018 12:48:58
00026 suncat0188 pw.x -npool 4 -i  Done                     05/02/2018 12:48:58
00027 suncat0188 pw.x -npool 4 -i  Done                     05/02/2018 12:48:58
00028 suncat0188 pw.x -npool 4 -i  Done                     05/02/2018 12:48:58
00029 suncat0188 pw.x -npool 4 -i  Done                     05/02/2018 12:48:58
00030 suncat0188 pw.x -npool 4 -i  Done                     05/02/2018 12:48:58
00031 suncat0188 pw.x -npool 4 -i  Done                     05/02/2018 12:48:58
