  python dir          : /home/mamunm/src/espresso
  espresso dir        : /home/vossj/suncat/esdld/espresso-dynpy-beef/bin
  pseudo dir          : /home/mamunm/src/pseudo/gbrv1.5pbe
  ase-espresso py git : GITVERSION



     Program PWSCF v.5.1rc2 (svn rev. ) starts on 17Apr2018 at  8:35:47 

     This program is part of the open-source Quantum ESPRESSO suite
     for quantum simulation of materials; please cite
         "P. Giannozzi et al., J. Phys.:Condens. Matter 21 395502 (2009);
          URL http://www.quantum-espresso.org", 
     in publications or presentations arising from this work. More details at
     http://www.quantum-espresso.org/quote

     Parallel version (MPI), running on    16 processors
     R & G space division:  proc/nbgrp/npool/nimage =      16
     Reading input from pw.inp
     Message from routine read_cards :
     DEPRECATED: no units specified in CELL_PARAMETERS card

     Current dimensions of program PWSCF are:
     Max number of different atomic species (ntypx) = 10
     Max number of k-points (npk) =  40000
     Max angular momentum in pseudopotentials (lmaxx) =  3
     Presently stress not available with electric field


     **************************************************************************
     Initializing libbeef V0.1.1 with the BEEF-vdW functional.
     Citation: Wellendorff et al., PRB 85, 235149 (2012).
     **************************************************************************


     IMPORTANT: XC functional enforced from input :
     Exchange-correlation      = BEEF-VDW ( 1  4 27 13 2)
     Any further DFT definition will be discarded
     Please, verify this is what you really want


     Subspace diagonalization in iterative solution of the eigenvalue problem:
     a serial algorithm will be used

 
     Parallelization info
     --------------------
     sticks:   dense  smooth     PW     G-vecs:    dense   smooth      PW
     Min         151      60     18                28279     7123    1152
     Max         152      61     19                28301     7170    1159
     Sum        2419     967    295               452661   114411   18499
 


     bravais-lattice index     =            0
     lattice parameter (alat)  =       1.8897  a.u.
     unit-cell volume          =    3807.2308 (a.u.)^3
     number of atoms/cell      =           14
     number of atomic types    =            3
     number of electrons       =       235.00
     number of Kohn-Sham states=          127
     kinetic-energy cutoff     =      36.7493  Ry
     charge density cutoff     =     367.4932  Ry
     convergence threshold     =      1.0E-05
     mixing beta               =       0.3000
     number of iterations used =           10  plain     mixing
     Exchange-correlation      = BEEF-VDW ( 1  4 27 13 2)
     nstep                     =           50


     celldm(1)=   1.889726  celldm(2)=   0.000000  celldm(3)=   0.000000
     celldm(4)=   0.000000  celldm(5)=   0.000000  celldm(6)=   0.000000

     crystal axes: (cart. coord. in units of alat)
               a(1) = (   5.184823   0.000000   0.000000 )  
               a(2) = (   2.592411   4.490188   0.000000 )  
               a(3) = (   0.000000   0.000000  24.233390 )  

     reciprocal axes: (cart. coord. in units 2 pi/alat)
               b(1) = (  0.192871 -0.111354  0.000000 )  
               b(2) = (  0.000000  0.222708  0.000000 )  
               b(3) = (  0.000000  0.000000  0.041265 )  


     PseudoPot. # 1 for Cu read from file:
     /home/mamunm/src/pseudo/gbrv1.5pbe/Cu.UPF
     MD5 check sum: 6e991ff952a84172a2a52a1c1e996048
     Pseudo is Ultrasoft + core correction, Zval = 19.0
     Generated by new atomic code, or converted to UPF format
     Using radial grid of  867 points,  6 beta functions with: 
                l(1) =   0
                l(2) =   0
                l(3) =   1
                l(4) =   1
                l(5) =   2
                l(6) =   2
     Q(r) pseudized with  8 coefficients,  rinner =    1.150   1.150   1.150
                                                       1.150   1.150

     PseudoPot. # 2 for S  read from file:
     /home/mamunm/src/pseudo/gbrv1.5pbe/S.UPF
     MD5 check sum: 88d86576ff6df21479756cfb9bdac1df
     Pseudo is Ultrasoft + core correction, Zval =  6.0
     Generated by new atomic code, or converted to UPF format
     Using radial grid of  907 points,  6 beta functions with: 
                l(1) =   0
                l(2) =   0
                l(3) =   1
                l(4) =   1
                l(5) =   2
                l(6) =   2
     Q(r) pseudized with  8 coefficients,  rinner =    1.300   1.300   1.300
                                                       1.300   1.300

     PseudoPot. # 3 for H  read from file:
     /home/mamunm/src/pseudo/gbrv1.5pbe/H.UPF
     MD5 check sum: 761ae9a214b05c3daf00ab9f6b793d6f
     Pseudo is Ultrasoft, Zval =  1.0
     Generated by new atomic code, or converted to UPF format
     Using radial grid of  615 points,  2 beta functions with: 
                l(1) =   0
                l(2) =   0
     Q(r) pseudized with  8 coefficients,  rinner =    0.700

     vdW kernel table read from file vdW_kernel_table
     MD5 check sum: 095c7af220d748ca6e76c0b4c6cfb241

     atomic species   valence    mass     pseudopotential
        Cu1           19.00    63.54600     Cu( 1.00)
        S1             6.00    32.06000     S ( 1.00)
        H1             1.00     1.00800     H ( 1.00)

     No symmetry found



   Cartesian axes

     site n.     atom                  positions (alat units)
         1           Cu1 tau(   1) = (   1.2962057   0.7483647  10.0000000  )
         2           Cu1 tau(   2) = (   3.8886170   0.7483647  10.0000000  )
         3           Cu1 tau(   3) = (   2.5924113   2.9934587  10.0000000  )
         4           Cu1 tau(   4) = (   5.1848226   2.9934587  10.0000000  )
         5           Cu1 tau(   5) = (   5.1848226   1.4967294  12.1166950  )
         6           Cu1 tau(   6) = (   2.5924113   1.4967294  12.1166950  )
         7           Cu1 tau(   7) = (   6.4810283   3.7418234  12.1166950  )
         8           Cu1 tau(   8) = (   3.8886170   3.7418234  12.1166950  )
         9           Cu1 tau(   9) = (   0.0000000   0.0000000  14.2333899  )
        10           Cu1 tau(  10) = (   2.5924113   0.0000000  14.2333899  )
        11           Cu1 tau(  11) = (   1.2962057   2.2450940  14.2333899  )
        12           Cu1 tau(  12) = (   3.8886170   2.2450940  14.2333899  )
        13           S1  tau(  13) = (   1.2962057   0.7483647  15.7738899  )
        14           H1  tau(  14) = (   1.2962057   0.7483647  17.0238899  )

     number of k points=    20  Fermi-Dirac smearing, width (Ry)=  0.0110
                       cart. coord. in units 2pi/alat
        k(    1) = (   0.0000000   0.0000000   0.0000000), wk =   0.0555556
        k(    2) = (   0.0000000   0.0371180   0.0000000), wk =   0.1111111
        k(    3) = (   0.0000000   0.0742359   0.0000000), wk =   0.1111111
        k(    4) = (   0.0000000  -0.1113539   0.0000000), wk =   0.0555556
        k(    5) = (   0.0321451  -0.0185590   0.0000000), wk =   0.1111111
        k(    6) = (   0.0321451   0.0185590   0.0000000), wk =   0.1111111
        k(    7) = (   0.0321451   0.0556770   0.0000000), wk =   0.1111111
        k(    8) = (   0.0321451  -0.1299129   0.0000000), wk =   0.1111111
        k(    9) = (   0.0321451  -0.0927949   0.0000000), wk =   0.1111111
        k(   10) = (   0.0321451  -0.0556770   0.0000000), wk =   0.1111111
        k(   11) = (   0.0642902  -0.0371180   0.0000000), wk =   0.1111111
        k(   12) = (   0.0642902  -0.0000000   0.0000000), wk =   0.1111111
        k(   13) = (   0.0642902   0.0371180   0.0000000), wk =   0.1111111
        k(   14) = (   0.0642902  -0.1484719   0.0000000), wk =   0.1111111
        k(   15) = (   0.0642902  -0.1113539   0.0000000), wk =   0.1111111
        k(   16) = (   0.0642902  -0.0742359   0.0000000), wk =   0.1111111
        k(   17) = (  -0.0964353   0.0556770   0.0000000), wk =   0.0555556
        k(   18) = (  -0.0964353   0.0927949   0.0000000), wk =   0.1111111
        k(   19) = (  -0.0964353   0.1299129   0.0000000), wk =   0.1111111
        k(   20) = (  -0.0964353  -0.0556770   0.0000000), wk =   0.0555556

     Dense  grid:   452661 G-vectors     FFT dimensions: (  60,  60, 288)

     Smooth grid:   114411 G-vectors     FFT dimensions: (  40,  40, 180)

     Largest allocated arrays     est. size (Mb)     dimensions
        Kohn-Sham Wavefunctions         1.78 Mb     (     920,  127)
        NL pseudopotentials             3.31 Mb     (     920,  236)
        Each V/rho on FFT grid          0.99 Mb     (   64800)
        Each G-vector array             0.22 Mb     (   28299)
        G-vector shells                 0.09 Mb     (   11246)
     Largest temporary arrays     est. size (Mb)     dimensions
        Auxiliary wavefunctions         7.13 Mb     (     920,  508)
        Each subspace H/S matrix        3.94 Mb     (     508,  508)
        Each <psi_i|beta_j> matrix      0.46 Mb     (     236,  127)
        Arrays for rho mixing           9.89 Mb     (   64800,   10)

     Initial potential from superposition of free atoms

     starting charge  222.99993, renormalised to  235.00000

     negative rho (up, down):  1.045E-04 0.000E+00


     ************************************************************************
     *
     * You are using vdW-DF for exchange-correlation in this calculation.
     * Please cite the following three references that made this development
     * possible:
     *
     *   M. Dion, H. Rydberg, E. Schroder, D. C. Langreth, and
     *   B. I. Lundqvist, Phys. Rev. Lett. 92, 246401 (2004).
     *
     *   T. Thonhauser, V. R. Cooper, S. Li, A. Puzder, P. Hyldgaard, and
     *   D. C. Langreth, Phys. Rev. B 76, 125112 (2007).
     *
     *   G. Roman-Perez and J. M. Soler, Phys. Rev. Lett. 103, 096102 (2009).
     *
     *
     * If you are using vdW-DF2, please also cite:
     *
     *   K. Lee, E. D. Murray, L. Kong, B. I. Lundqvist, and
     *   D. C. Langreth, Phys. Rev. B 82, 081101(R) (2010).
     *
     *
     * If you are calculating the stress with vdW-DF, please also cite:
     *
     *   R. Sabatini, E. Kucukbenli, B. Kolb, T. Thonhauser, and
     *   S. de Gironcoli, J. Phys.: Condens. Matter 24, 424209 (2012).
     *
     ************************************************************************

     Carrying out vdW-DF run using the following parameters:

     Nqs =      20    Nr_points =    1024   r_max =   100.000
     q_mesh =
               0.00001000     0.04494208     0.09755937     0.15916263
               0.23128650     0.31572767     0.41458969     0.53033537
               0.66584808     0.82450364     1.01025438     1.22772762
               1.48234092     1.78043706     2.12944203     2.53805004
               3.01644009     3.57652955     4.23227104     5.00000000

     Gradients computed in reciprocal space

     ************************************************************************


 
     Adding external electric field

     Computed dipole along edir(3) : 
        Dipole               -2.7301 Ry au,         -6.9391 Debye
        Dipole field         -0.0090 Ry au
 
        Potential amp.        0.8047 Ry
        Total length         44.6496 bohr
 
     Starting wfc are  161 randomized atomic wfcs

     total cpu time spent up to now is        7.6 secs

     Self-consistent Calculation

     iteration #  1     ecut=    36.75 Ry     beta=0.30
     Davidson diagonalization with overlap
     ethr =  1.00E-02,  avg # of iterations =  8.2

     negative rho (up, down):  3.839E-05 0.000E+00
 
     Adding external electric field

     Computed dipole along edir(3) : 
        Dipole               77.8066 Ry au,        197.7646 Debye
        Dipole field          0.2568 Ry au
 
        Potential amp.      -22.9332 Ry
        Total length         44.6496 bohr
 

     total cpu time spent up to now is       45.1 secs

     total energy              =   -4506.24128214 Ry
     Harris-Foulkes estimate   =   -4881.03208748 Ry
     estimated scf accuracy    <     788.51106314 Ry

     iteration #  2     ecut=    36.75 Ry     beta=0.30
     Davidson diagonalization with overlap
     ethr =  1.00E-02,  avg # of iterations = 23.6
 
     Adding external electric field

     Computed dipole along edir(3) : 
        Dipole               16.6679 Ry au,         42.3656 Debye
        Dipole field          0.0550 Ry au
 
        Potential amp.       -4.9128 Ry
        Total length         44.6496 bohr
 

     total cpu time spent up to now is      120.0 secs

     total energy              =   -4237.14375932 Ry
     Harris-Foulkes estimate   =   -6092.88761166 Ry
     estimated scf accuracy    <   33727.68538436 Ry

     iteration #  3     ecut=    36.75 Ry     beta=0.30
     Davidson diagonalization with overlap
     ethr =  1.00E-02,  avg # of iterations =  8.8
 
     Adding external electric field

     Computed dipole along edir(3) : 
        Dipole               18.6887 Ry au,         47.5020 Debye
        Dipole field          0.0617 Ry au
 
        Potential amp.       -5.5084 Ry
        Total length         44.6496 bohr
 

     total cpu time spent up to now is      157.3 secs

     total energy              =   -4851.09972126 Ry
     Harris-Foulkes estimate   =   -5146.76104025 Ry
     estimated scf accuracy    <    2459.58156389 Ry

     iteration #  4     ecut=    36.75 Ry     beta=0.30
     Davidson diagonalization with overlap
     ethr =  1.00E-02,  avg # of iterations =  9.7
 
     Adding external electric field

     Computed dipole along edir(3) : 
        Dipole               15.1871 Ry au,         38.6017 Debye
        Dipole field          0.0501 Ry au
 
        Potential amp.       -4.4763 Ry
        Total length         44.6496 bohr
 

     total cpu time spent up to now is      186.8 secs

     total energy              =   -4896.19440993 Ry
     Harris-Foulkes estimate   =   -4915.93426252 Ry
     estimated scf accuracy    <      81.20350840 Ry

     iteration #  5     ecut=    36.75 Ry     beta=0.30
     Davidson diagonalization with overlap
     ethr =  1.00E-02,  avg # of iterations =  3.0
 
     Adding external electric field

     Computed dipole along edir(3) : 
        Dipole               12.8859 Ry au,         32.7528 Debye
        Dipole field          0.0425 Ry au
 
        Potential amp.       -3.7981 Ry
        Total length         44.6496 bohr
 

     total cpu time spent up to now is      199.5 secs

     total energy              =   -4891.70941641 Ry
     Harris-Foulkes estimate   =   -4900.67650269 Ry
     estimated scf accuracy    <     125.67716229 Ry

     iteration #  6     ecut=    36.75 Ry     beta=0.30
     Davidson diagonalization with overlap
     ethr =  1.00E-02,  avg # of iterations =  1.2
 
     Adding external electric field

     Computed dipole along edir(3) : 
        Dipole               10.6921 Ry au,         27.1766 Debye
        Dipole field          0.0353 Ry au
 
        Potential amp.       -3.1515 Ry
        Total length         44.6496 bohr
 

     total cpu time spent up to now is      209.4 secs

     total energy              =   -4890.12932902 Ry
     Harris-Foulkes estimate   =   -4893.77763073 Ry
     estimated scf accuracy    <      28.39518786 Ry

     iteration #  7     ecut=    36.75 Ry     beta=0.30
     Davidson diagonalization with overlap
     ethr =  1.00E-02,  avg # of iterations =  1.0
 
     Adding external electric field

     Computed dipole along edir(3) : 
        Dipole                7.7943 Ry au,         19.8111 Debye
        Dipole field          0.0257 Ry au
 
        Potential amp.       -2.2973 Ry
        Total length         44.6496 bohr
 

     total cpu time spent up to now is      218.9 secs

     total energy              =   -4887.63958501 Ry
     Harris-Foulkes estimate   =   -4890.61750737 Ry
     estimated scf accuracy    <      26.25863682 Ry

     iteration #  8     ecut=    36.75 Ry     beta=0.30
     Davidson diagonalization with overlap
     ethr =  1.00E-02,  avg # of iterations =  1.0
 
     Adding external electric field

     Computed dipole along edir(3) : 
        Dipole                5.1999 Ry au,         13.2168 Debye
        Dipole field          0.0172 Ry au
 
        Potential amp.       -1.5327 Ry
        Total length         44.6496 bohr
 

     total cpu time spent up to now is      228.5 secs

     total energy              =   -4885.66787085 Ry
     Harris-Foulkes estimate   =   -4888.01224537 Ry
     estimated scf accuracy    <      15.68319854 Ry

     iteration #  9     ecut=    36.75 Ry     beta=0.30
     Davidson diagonalization with overlap
     ethr =  6.67E-03,  avg # of iterations =  2.9
 
     Adding external electric field

     Computed dipole along edir(3) : 
        Dipole                5.0125 Ry au,         12.7404 Debye
        Dipole field          0.0165 Ry au
 
        Potential amp.       -1.4774 Ry
        Total length         44.6496 bohr
 

     total cpu time spent up to now is      239.9 secs

     total energy              =   -4885.87424668 Ry
     Harris-Foulkes estimate   =   -4886.02300129 Ry
     estimated scf accuracy    <       5.79181412 Ry

     iteration # 10     ecut=    36.75 Ry     beta=0.30
     Davidson diagonalization with overlap
     ethr =  2.46E-03,  avg # of iterations =  2.4
 
     Adding external electric field

     Computed dipole along edir(3) : 
        Dipole                5.2879 Ry au,         13.4405 Debye
        Dipole field          0.0175 Ry au
 
        Potential amp.       -1.5586 Ry
        Total length         44.6496 bohr
 

     total cpu time spent up to now is      250.8 secs

     total energy              =   -4886.07144203 Ry
     Harris-Foulkes estimate   =   -4885.92718282 Ry
     estimated scf accuracy    <       4.89215269 Ry

     iteration # 11     ecut=    36.75 Ry     beta=0.30
     Davidson diagonalization with overlap
     ethr =  2.08E-03,  avg # of iterations =  1.0
 
     Adding external electric field

     Computed dipole along edir(3) : 
        Dipole                3.9827 Ry au,         10.1231 Debye
        Dipole field          0.0131 Ry au
 
        Potential amp.       -1.1739 Ry
        Total length         44.6496 bohr
 

     total cpu time spent up to now is      260.4 secs

     total energy              =   -4885.53330117 Ry
     Harris-Foulkes estimate   =   -4886.13224569 Ry
     estimated scf accuracy    <       5.39910675 Ry

     iteration # 12     ecut=    36.75 Ry     beta=0.30
     Davidson diagonalization with overlap
     ethr =  2.08E-03,  avg # of iterations =  1.0

     negative rho (up, down):  1.752E-08 0.000E+00
 
     Adding external electric field

     Computed dipole along edir(3) : 
        Dipole               -0.5510 Ry au,         -1.4004 Debye
        Dipole field         -0.0018 Ry au
 
        Potential amp.        0.1624 Ry
        Total length         44.6496 bohr
 

     total cpu time spent up to now is      270.0 secs

     total energy              =   -4884.47846696 Ry
     Harris-Foulkes estimate   =   -4885.61319694 Ry
     estimated scf accuracy    <       3.22594001 Ry

     iteration # 13     ecut=    36.75 Ry     beta=0.30
     Davidson diagonalization with overlap
     ethr =  1.37E-03,  avg # of iterations =  6.5

     negative rho (up, down):  1.643E-08 0.000E+00
 
     Adding external electric field

     Computed dipole along edir(3) : 
        Dipole               -0.4187 Ry au,         -1.0642 Debye
        Dipole field         -0.0014 Ry au
 
        Potential amp.        0.1234 Ry
        Total length         44.6496 bohr
 

     total cpu time spent up to now is      288.2 secs

     total energy              =   -4885.12844187 Ry
     Harris-Foulkes estimate   =   -4885.05361418 Ry
     estimated scf accuracy    <       1.93441227 Ry

     iteration # 14     ecut=    36.75 Ry     beta=0.30
     Davidson diagonalization with overlap
     ethr =  8.23E-04,  avg # of iterations =  2.5

     negative rho (up, down):  2.415E-06 0.000E+00
 
     Adding external electric field

     Computed dipole along edir(3) : 
        Dipole                0.0426 Ry au,          0.1082 Debye
        Dipole field          0.0001 Ry au
 
        Potential amp.       -0.0125 Ry
        Total length         44.6496 bohr
 

     total cpu time spent up to now is      299.2 secs

     total energy              =   -4884.96546585 Ry
     Harris-Foulkes estimate   =   -4885.14313630 Ry
     estimated scf accuracy    <       2.92044564 Ry

     iteration # 15     ecut=    36.75 Ry     beta=0.30
     Davidson diagonalization with overlap
     ethr =  8.23E-04,  avg # of iterations =  2.8
 
     Adding external electric field

     Computed dipole along edir(3) : 
        Dipole                0.0523 Ry au,          0.1329 Debye
        Dipole field          0.0002 Ry au
 
        Potential amp.       -0.0154 Ry
        Total length         44.6496 bohr
 

     total cpu time spent up to now is      310.5 secs

     total energy              =   -4884.98800483 Ry
     Harris-Foulkes estimate   =   -4884.99738988 Ry
     estimated scf accuracy    <       1.54335997 Ry

     iteration # 16     ecut=    36.75 Ry     beta=0.30
     Davidson diagonalization with overlap
     ethr =  6.57E-04,  avg # of iterations =  1.0

     negative rho (up, down):  1.370E-08 0.000E+00
 
     Adding external electric field

     Computed dipole along edir(3) : 
        Dipole                0.1022 Ry au,          0.2598 Debye
        Dipole field          0.0003 Ry au
 
        Potential amp.       -0.0301 Ry
        Total length         44.6496 bohr
 

     total cpu time spent up to now is      320.0 secs

     total energy              =   -4884.93576963 Ry
     Harris-Foulkes estimate   =   -4884.99041674 Ry
     estimated scf accuracy    <       1.39610029 Ry

     iteration # 17     ecut=    36.75 Ry     beta=0.30
     Davidson diagonalization with overlap
     ethr =  5.94E-04,  avg # of iterations =  1.0
 
     Adding external electric field

     Computed dipole along edir(3) : 
        Dipole                0.1788 Ry au,          0.4544 Debye
        Dipole field          0.0006 Ry au
 
        Potential amp.       -0.0527 Ry
        Total length         44.6496 bohr
 

     total cpu time spent up to now is      329.6 secs

     total energy              =   -4884.91567029 Ry
     Harris-Foulkes estimate   =   -4884.94413359 Ry
     estimated scf accuracy    <       1.00368426 Ry

     iteration # 18     ecut=    36.75 Ry     beta=0.30
     Davidson diagonalization with overlap
     ethr =  4.27E-04,  avg # of iterations =  6.5

     negative rho (up, down):  3.391E-05 0.000E+00
 
     Adding external electric field

     Computed dipole along edir(3) : 
        Dipole                0.1968 Ry au,          0.5001 Debye
        Dipole field          0.0006 Ry au
 
        Potential amp.       -0.0580 Ry
        Total length         44.6496 bohr
 

     total cpu time spent up to now is      344.5 secs

     total energy              =   -4884.89416005 Ry
     Harris-Foulkes estimate   =   -4884.92353552 Ry
     estimated scf accuracy    <       0.56029886 Ry

     iteration # 19     ecut=    36.75 Ry     beta=0.30
     Davidson diagonalization with overlap
     ethr =  2.38E-04,  avg # of iterations =  1.9

     negative rho (up, down):  4.624E-02 0.000E+00
 
     Adding external electric field

     Computed dipole along edir(3) : 
        Dipole                0.9200 Ry au,          2.3385 Debye
        Dipole field          0.0030 Ry au
 
        Potential amp.       -0.2712 Ry
        Total length         44.6496 bohr
 

     total cpu time spent up to now is      355.0 secs

     total energy              =   -4884.84933555 Ry
     Harris-Foulkes estimate   =   -4884.89795086 Ry
     estimated scf accuracy    <       0.38119397 Ry

     iteration # 20     ecut=    36.75 Ry     beta=0.30
     Davidson diagonalization with overlap
     ethr =  1.62E-04,  avg # of iterations =  8.4

     negative rho (up, down):  3.930E-02 0.000E+00
 
     Adding external electric field

     Computed dipole along edir(3) : 
        Dipole                1.2851 Ry au,          3.2664 Debye
        Dipole field          0.0042 Ry au
 
        Potential amp.       -0.3788 Ry
        Total length         44.6496 bohr
 

     total cpu time spent up to now is      373.2 secs

     total energy              =   -4884.85548830 Ry
     Harris-Foulkes estimate   =   -4884.86922355 Ry
     estimated scf accuracy    <       0.10224855 Ry

     iteration # 21     ecut=    36.75 Ry     beta=0.30
     Davidson diagonalization with overlap
     ethr =  4.35E-05,  avg # of iterations =  4.6

     negative rho (up, down):  2.747E-02 0.000E+00
 
     Adding external electric field

     Computed dipole along edir(3) : 
        Dipole                1.2444 Ry au,          3.1630 Debye
        Dipole field          0.0041 Ry au
 
        Potential amp.       -0.3668 Ry
        Total length         44.6496 bohr
 

     total cpu time spent up to now is      387.0 secs

     total energy              =   -4884.85455753 Ry
     Harris-Foulkes estimate   =   -4884.86504115 Ry
     estimated scf accuracy    <       0.06329862 Ry

     iteration # 22     ecut=    36.75 Ry     beta=0.30
     Davidson diagonalization with overlap
     ethr =  2.69E-05,  avg # of iterations =  6.3

     negative rho (up, down):  1.093E-02 0.000E+00
 
     Adding external electric field

     Computed dipole along edir(3) : 
        Dipole                0.7921 Ry au,          2.0134 Debye
        Dipole field          0.0026 Ry au
 
        Potential amp.       -0.2335 Ry
        Total length         44.6496 bohr
 

     total cpu time spent up to now is      402.6 secs

     total energy              =   -4884.84905906 Ry
     Harris-Foulkes estimate   =   -4884.86299063 Ry
     estimated scf accuracy    <       0.04031224 Ry

     iteration # 23     ecut=    36.75 Ry     beta=0.30
     Davidson diagonalization with overlap
     ethr =  1.72E-05,  avg # of iterations =  9.4

     negative rho (up, down):  1.633E-03 0.000E+00
 
     Adding external electric field

     Computed dipole along edir(3) : 
        Dipole                0.5078 Ry au,          1.2907 Debye
        Dipole field          0.0017 Ry au
 
        Potential amp.       -0.1497 Ry
        Total length         44.6496 bohr
 

     total cpu time spent up to now is      421.2 secs

     total energy              =   -4884.84844377 Ry
     Harris-Foulkes estimate   =   -4884.85242050 Ry
     estimated scf accuracy    <       0.00811446 Ry

     iteration # 24     ecut=    36.75 Ry     beta=0.30
     Davidson diagonalization with overlap
     ethr =  3.45E-06,  avg # of iterations = 10.4

     negative rho (up, down):  1.342E-03 0.000E+00
 
     Adding external electric field

     Computed dipole along edir(3) : 
        Dipole                0.3850 Ry au,          0.9785 Debye
        Dipole field          0.0013 Ry au
 
        Potential amp.       -0.1135 Ry
        Total length         44.6496 bohr
 

     total cpu time spent up to now is      442.3 secs

     total energy              =   -4884.84865292 Ry
     Harris-Foulkes estimate   =   -4884.84951119 Ry
     estimated scf accuracy    <       0.00290615 Ry

     iteration # 25     ecut=    36.75 Ry     beta=0.30
     Davidson diagonalization with overlap
     ethr =  1.24E-06,  avg # of iterations =  3.9

     negative rho (up, down):  2.267E-03 0.000E+00
 
     Adding external electric field

     Computed dipole along edir(3) : 
        Dipole                0.3195 Ry au,          0.8122 Debye
        Dipole field          0.0011 Ry au
 
        Potential amp.       -0.0942 Ry
        Total length         44.6496 bohr
 

     total cpu time spent up to now is      455.1 secs

     total energy              =   -4884.84873012 Ry
     Harris-Foulkes estimate   =   -4884.84895553 Ry
     estimated scf accuracy    <       0.00040860 Ry

     iteration # 26     ecut=    36.75 Ry     beta=0.30
     Davidson diagonalization with overlap
     ethr =  1.74E-07,  avg # of iterations =  3.8

     negative rho (up, down):  2.032E-03 0.000E+00
 
     Adding external electric field

     Computed dipole along edir(3) : 
        Dipole                0.3098 Ry au,          0.7875 Debye
        Dipole field          0.0010 Ry au
 
        Potential amp.       -0.0913 Ry
        Total length         44.6496 bohr
 

     total cpu time spent up to now is      468.2 secs

     total energy              =   -4884.84877219 Ry
     Harris-Foulkes estimate   =   -4884.84880428 Ry
     estimated scf accuracy    <       0.00005204 Ry

     iteration # 27     ecut=    36.75 Ry     beta=0.30
     Davidson diagonalization with overlap
     ethr =  2.21E-08,  avg # of iterations =  4.1

     negative rho (up, down):  1.393E-03 0.000E+00
 
     Adding external electric field

     Computed dipole along edir(3) : 
        Dipole                0.3127 Ry au,          0.7949 Debye
        Dipole field          0.0010 Ry au
 
        Potential amp.       -0.0922 Ry
        Total length         44.6496 bohr
 

     total cpu time spent up to now is      482.1 secs

     total energy              =   -4884.84876981 Ry
     Harris-Foulkes estimate   =   -4884.84877357 Ry
     estimated scf accuracy    <       0.00001750 Ry

     iteration # 28     ecut=    36.75 Ry     beta=0.30
     Davidson diagonalization with overlap
     ethr =  7.45E-09,  avg # of iterations =  3.5

     negative rho (up, down):  1.237E-03 0.000E+00
 
     Adding external electric field

     Computed dipole along edir(3) : 
        Dipole                0.3126 Ry au,          0.7946 Debye
        Dipole field          0.0010 Ry au
 
        Potential amp.       -0.0921 Ry
        Total length         44.6496 bohr
 

     total cpu time spent up to now is      495.3 secs

     total energy              =   -4884.84877153 Ry
     Harris-Foulkes estimate   =   -4884.84877319 Ry
     estimated scf accuracy    <       0.00001000 Ry

     iteration # 29     ecut=    36.75 Ry     beta=0.30
     Davidson diagonalization with overlap
     ethr =  4.26E-09,  avg # of iterations =  2.4

     negative rho (up, down):  9.588E-04 0.000E+00

     negative rho (up, down):  9.588E-04 0.000E+00

     negative rho (up, down):  9.588E-04 0.000E+00

     negative rho (up, down):  9.588E-04 0.000E+00

     negative rho (up, down):  9.588E-04 0.000E+00

     negative rho (up, down):  9.588E-04 0.000E+00

     negative rho (up, down):  9.588E-04 0.000E+00

     negative rho (up, down):  9.588E-04 0.000E+00

     negative rho (up, down):  9.588E-04 0.000E+00

     negative rho (up, down):  9.588E-04 0.000E+00

     negative rho (up, down):  9.588E-04 0.000E+00

     negative rho (up, down):  9.588E-04 0.000E+00

     negative rho (up, down):  9.588E-04 0.000E+00

     negative rho (up, down):  9.588E-04 0.000E+00

     negative rho (up, down):  9.588E-04 0.000E+00

     negative rho (up, down):  9.588E-04 0.000E+00

     negative rho (up, down):  9.588E-04 0.000E+00

     negative rho (up, down):  9.588E-04 0.000E+00

     negative rho (up, down):  9.588E-04 0.000E+00

     negative rho (up, down):  9.588E-04 0.000E+00

     negative rho (up, down):  9.588E-04 0.000E+00

     negative rho (up, down):  9.588E-04 0.000E+00

     negative rho (up, down):  9.588E-04 0.000E+00

     negative rho (up, down):  9.588E-04 0.000E+00

     negative rho (up, down):  9.588E-04 0.000E+00

     negative rho (up, down):  9.588E-04 0.000E+00

     negative rho (up, down):  9.588E-04 0.000E+00

     negative rho (up, down):  9.588E-04 0.000E+00

     negative rho (up, down):  9.588E-04 0.000E+00

     negative rho (up, down):  9.588E-04 0.000E+00

     negative rho (up, down):  9.588E-04 0.000E+00

     negative rho (up, down):  9.588E-04 0.000E+00

     negative rho (up, down):  9.588E-04 0.000E+00

     negative rho (up, down):  9.588E-04 0.000E+00

     negative rho (up, down):  9.588E-04 0.000E+00
 
     Adding external electric field

     Computed dipole along edir(3) : 
        Dipole                0.3330 Ry au,          0.8464 Debye
        Dipole field          0.0011 Ry au
 
        Potential amp.       -0.0981 Ry
        Total length         44.6496 bohr
 

     total cpu time spent up to now is      518.3 secs

     End of self-consistent calculation

          k = 0.0000 0.0000 0.0000 ( 14321 PWs)   bands (ev):

  -111.6329-111.6273-111.6272-111.4096-111.3370-111.3316-111.3314-111.1197
  -111.0985-111.0930-111.0914-111.0747 -69.1392 -69.0990 -69.0989 -69.0162
   -69.0160 -68.9917 -68.9829 -68.9591 -68.9590 -68.8103 -68.8098 -68.8098
   -68.7752 -68.7344 -68.7334 -68.7334 -68.7280 -68.7278 -68.7072 -68.7046
   -68.7046 -68.5498 -68.5458 -68.5458 -68.5425 -68.5417 -68.4954 -68.4943
   -68.4931 -68.4851 -68.4739 -68.4735 -68.4564 -68.4514 -68.4498 -68.4253
   -14.0450  -7.8989  -6.7085  -4.7870  -4.1800  -4.1800  -3.7116  -3.3354
    -3.3354  -3.3353  -3.1835  -2.9726  -2.9724  -2.9302  -2.9302  -2.8639
    -2.7562  -2.6076  -2.6074  -2.1662  -2.1054  -2.1052  -1.9297  -1.9295
    -1.8991  -1.8166  -1.7727  -1.7727  -1.6607  -1.6607  -1.6238  -1.6139
    -1.5547  -1.5546  -1.4097  -1.4097  -1.2828  -1.2823  -1.2635  -1.0992
    -1.0931  -1.0930  -0.9132  -0.9129  -0.8877  -0.7992  -0.7991  -0.6912
    -0.6912  -0.6870  -0.5328  -0.5323  -0.5222  -0.5105  -0.5105  -0.4655
    -0.4425  -0.4424  -0.3785  -0.3784  -0.3585  -0.2127  -0.2124  -0.1550
    -0.1495  -0.1489   0.1905   1.0520   1.4239   1.4239   1.7950   2.3448
     2.3449   2.6725   2.7783   2.7784   3.0937   4.2884   4.9257

          k = 0.0000 0.0371 0.0000 ( 14383 PWs)   bands (ev):

  -111.6326-111.6276-111.6272-111.4096-111.3367-111.3318-111.3316-111.1197
  -111.0981-111.0933-111.0914-111.0748 -69.1366 -69.1009 -69.0985 -69.0157
   -69.0148 -68.9931 -68.9817 -68.9609 -68.9593 -68.8102 -68.8087 -68.8074
   -68.7720 -68.7352 -68.7341 -68.7323 -68.7282 -68.7280 -68.7086 -68.7085
   -68.7055 -68.5467 -68.5463 -68.5460 -68.5399 -68.5382 -68.4975 -68.4966
   -68.4928 -68.4850 -68.4779 -68.4749 -68.4561 -68.4517 -68.4498 -68.4254
   -14.0370  -7.8198  -6.5506  -4.7241  -4.1751  -4.1553  -3.5875  -3.4473
    -3.2784  -3.2694  -3.1449  -2.9490  -2.9266  -2.8790  -2.8581  -2.8180
    -2.6905  -2.5666  -2.5493  -2.1641  -2.1271  -2.1167  -1.9587  -1.9212
    -1.8951  -1.8167  -1.7978  -1.7392  -1.7303  -1.6540  -1.6110  -1.5801
    -1.5773  -1.5382  -1.4487  -1.4053  -1.3936  -1.3476  -1.3255  -1.1805
    -1.1657  -1.1195  -1.0449  -0.9658  -0.9594  -0.8256  -0.8133  -0.7921
    -0.7464  -0.7314  -0.7201  -0.6193  -0.5966  -0.5784  -0.5718  -0.5371
    -0.5295  -0.4690  -0.4678  -0.4460  -0.4230  -0.3739  -0.3311  -0.2976
    -0.2367  -0.1738   0.2132   0.6265   1.1890   1.2603   1.4664   1.9429
     2.3857   2.9169   3.4852   3.5822   3.6632   4.6034   5.1502

          k = 0.0000 0.0742 0.0000 ( 14316 PWs)   bands (ev):

  -111.6317-111.6285-111.6272-111.4096-111.3359-111.3326-111.3316-111.1197
  -111.0970-111.0942-111.0915-111.0749 -69.1299 -69.1061 -69.0978 -69.0150
   -69.0111 -68.9967 -68.9786 -68.9655 -68.9598 -68.8102 -68.8065 -68.8019
   -68.7643 -68.7384 -68.7332 -68.7293 -68.7292 -68.7279 -68.7187 -68.7124
   -68.7069 -68.5472 -68.5462 -68.5398 -68.5333 -68.5277 -68.5041 -68.5032
   -68.4903 -68.4888 -68.4850 -68.4776 -68.4551 -68.4525 -68.4499 -68.4255
   -14.0209  -7.6607  -6.0711  -4.7221  -4.1538  -4.1023  -3.7713  -3.2449
    -3.1845  -3.1315  -2.9833  -2.8911  -2.8353  -2.7753  -2.6881  -2.6717
    -2.5309  -2.4303  -2.3789  -2.1761  -2.1629  -2.1437  -2.0808  -2.0325
    -1.9417  -1.9373  -1.8800  -1.7594  -1.7449  -1.6809  -1.6469  -1.6342
    -1.5900  -1.5499  -1.5193  -1.5027  -1.4730  -1.4198  -1.3898  -1.3051
    -1.2436  -1.2264  -1.1899  -1.1512  -1.1039  -1.1007  -1.0540  -1.0141
    -0.9546  -0.9400  -0.9147  -0.8713  -0.7796  -0.7577  -0.7073  -0.7004
    -0.6838  -0.6275  -0.6013  -0.5138  -0.4915  -0.4591  -0.4149  -0.4011
    -0.3679  -0.2585  -0.1929   0.5017   1.0571   1.1895   1.4986   2.2012
     2.5472   3.0935   3.5581   4.2948   4.8083   5.0080   5.3532

          k = 0.0000-0.1114 0.0000 ( 14294 PWs)   bands (ev):

  -111.6310-111.6292-111.6272-111.4095-111.3354-111.3332-111.3316-111.1197
  -111.0957-111.0954-111.0915-111.0750 -69.1250 -69.1103 -69.0974 -69.0146
   -69.0082 -68.9996 -68.9756 -68.9691 -68.9600 -68.8101 -68.8054 -68.7988
   -68.7598 -68.7381 -68.7325 -68.7299 -68.7281 -68.7270 -68.7267 -68.7152
   -68.7075 -68.5476 -68.5464 -68.5358 -68.5285 -68.5149 -68.5126 -68.5084
   -68.4968 -68.4885 -68.4850 -68.4795 -68.4539 -68.4536 -68.4499 -68.4255
   -14.0128  -7.5816  -5.4652  -5.1190  -4.3707  -4.0742  -3.5246  -3.3251
    -3.0260  -3.0103  -2.8434  -2.8059  -2.7998  -2.7339  -2.5522  -2.4635
    -2.4321  -2.4008  -2.3365  -2.3255  -2.1949  -2.1059  -2.0723  -2.0686
    -2.0391  -2.0068  -1.9168  -1.9116  -1.8830  -1.7706  -1.6837  -1.6532
    -1.6319  -1.5833  -1.5000  -1.4739  -1.4540  -1.4280  -1.4036  -1.3954
    -1.3812  -1.3483  -1.3256  -1.2670  -1.2561  -1.2019  -1.1434  -1.1099
    -1.0710  -1.0262  -0.9504  -0.9123  -0.9070  -0.8500  -0.8311  -0.7967
    -0.7295  -0.7135  -0.6973  -0.6142  -0.5013  -0.4792  -0.4324  -0.3660
    -0.3613  -0.1991  -0.0648   0.1371   1.1126   1.1950   1.8905   2.1878
     2.6037   2.7432   4.1409   4.7745   4.8281   5.1122   5.2167

          k = 0.0321-0.0186 0.0000 ( 14383 PWs)   bands (ev):

  -111.6326-111.6275-111.6273-111.4096-111.3367-111.3320-111.3314-111.1197
  -111.0981-111.0930-111.0917-111.0748 -69.1366 -69.1008 -69.0986 -69.0158
   -69.0147 -68.9931 -68.9818 -68.9608 -68.9594 -68.8102 -68.8088 -68.8073
   -68.7720 -68.7352 -68.7341 -68.7322 -68.7284 -68.7278 -68.7087 -68.7086
   -68.7054 -68.5469 -68.5463 -68.5460 -68.5391 -68.5387 -68.4977 -68.4957
   -68.4936 -68.4850 -68.4782 -68.4745 -68.4561 -68.4514 -68.4501 -68.4254
   -14.0370  -7.8198  -6.5506  -4.7241  -4.1751  -4.1553  -3.5875  -3.4474
    -3.2784  -3.2694  -3.1449  -2.9490  -2.9265  -2.8790  -2.8581  -2.8180
    -2.6905  -2.5668  -2.5492  -2.1641  -2.1269  -2.1169  -1.9588  -1.9212
    -1.8950  -1.8168  -1.7977  -1.7393  -1.7303  -1.6540  -1.6108  -1.5803
    -1.5772  -1.5383  -1.4487  -1.4051  -1.3938  -1.3476  -1.3254  -1.1805
    -1.1658  -1.1195  -1.0449  -0.9659  -0.9594  -0.8255  -0.8133  -0.7921
    -0.7463  -0.7315  -0.7199  -0.6191  -0.5966  -0.5786  -0.5718  -0.5373
    -0.5294  -0.4693  -0.4675  -0.4463  -0.4226  -0.3739  -0.3313  -0.2972
    -0.2368  -0.1740   0.2132   0.6265   1.1890   1.2602   1.4664   1.9429
     2.3858   2.9168   3.4852   3.5822   3.6632   4.6034   5.1495

          k = 0.0321 0.0186 0.0000 ( 14383 PWs)   bands (ev):

  -111.6326-111.6276-111.6272-111.4096-111.3367-111.3319-111.3315-111.1197
  -111.0981-111.0932-111.0915-111.0748 -69.1366 -69.1009 -69.0986 -69.0157
   -69.0148 -68.9931 -68.9817 -68.9609 -68.9593 -68.8102 -68.8088 -68.8073
   -68.7720 -68.7352 -68.7341 -68.7323 -68.7283 -68.7279 -68.7087 -68.7085
   -68.7054 -68.5467 -68.5463 -68.5460 -68.5398 -68.5383 -68.4976 -68.4964
   -68.4929 -68.4850 -68.4779 -68.4748 -68.4561 -68.4517 -68.4499 -68.4254
   -14.0370  -7.8198  -6.5506  -4.7241  -4.1751  -4.1553  -3.5875  -3.4473
    -3.2784  -3.2694  -3.1449  -2.9490  -2.9266  -2.8790  -2.8581  -2.8180
    -2.6905  -2.5666  -2.5493  -2.1641  -2.1270  -2.1167  -1.9588  -1.9212
    -1.8951  -1.8167  -1.7977  -1.7393  -1.7303  -1.6540  -1.6110  -1.5802
    -1.5773  -1.5382  -1.4487  -1.4053  -1.3937  -1.3476  -1.3254  -1.1805
    -1.1657  -1.1195  -1.0449  -0.9659  -0.9594  -0.8256  -0.8133  -0.7921
    -0.7464  -0.7314  -0.7200  -0.6193  -0.5966  -0.5785  -0.5718  -0.5371
    -0.5295  -0.4691  -0.4677  -0.4460  -0.4229  -0.3739  -0.3311  -0.2975
    -0.2367  -0.1739   0.2132   0.6265   1.1890   1.2602   1.4664   1.9430
     2.3857   2.9169   3.4852   3.5822   3.6632   4.6034   5.1503

          k = 0.0321 0.0557 0.0000 ( 14335 PWs)   bands (ev):

  -111.6320-111.6282-111.6272-111.4096-111.3362-111.3324-111.3316-111.1197
  -111.0973-111.0939-111.0915-111.0749 -69.1318 -69.1046 -69.0979 -69.0152
   -69.0122 -68.9956 -68.9796 -68.9640 -68.9598 -68.8102 -68.8068 -68.8037
   -68.7663 -68.7385 -68.7334 -68.7295 -68.7289 -68.7279 -68.7162 -68.7098
   -68.7077 -68.5469 -68.5462 -68.5416 -68.5340 -68.5323 -68.5054 -68.4953
   -68.4940 -68.4853 -68.4846 -68.4772 -68.4554 -68.4523 -68.4499 -68.4255
   -14.0249  -7.7013  -6.2291  -4.6579  -4.2089  -4.0328  -3.6166  -3.5179
    -3.2632  -3.1295  -3.0097  -2.8819  -2.8629  -2.7782  -2.7531  -2.7179
    -2.5749  -2.4819  -2.4220  -2.1699  -2.1523  -2.1329  -2.0383  -2.0236
    -1.9109  -1.8841  -1.8520  -1.7394  -1.7259  -1.6586  -1.6361  -1.6035
    -1.5884  -1.5543  -1.5119  -1.5102  -1.4675  -1.4375  -1.3499  -1.2672
    -1.2400  -1.2000  -1.1429  -1.0868  -1.0338  -1.0164  -0.9832  -0.9790
    -0.9447  -0.8968  -0.8591  -0.7558  -0.7172  -0.7113  -0.6697  -0.6622
    -0.5963  -0.5487  -0.5314  -0.4895  -0.4723  -0.4464  -0.4372  -0.3771
    -0.3141  -0.2889   0.0601   0.0911   0.9508   1.1442   1.4826   2.4098
     2.9137   3.3294   3.5755   3.8016   3.9760   4.9358   5.3022

          k = 0.0321-0.1299 0.0000 ( 14299 PWs)   bands (ev):

  -111.6310-111.6292-111.6272-111.4095-111.3353-111.3333-111.3316-111.1197
  -111.0960-111.0950-111.0916-111.0750 -69.1248 -69.1107 -69.0972 -69.0146
   -69.0081 -68.9996 -68.9759 -68.9685 -68.9604 -68.8101 -68.8044 -68.8000
   -68.7584 -68.7418 -68.7325 -68.7299 -68.7280 -68.7260 -68.7246 -68.7137
   -68.7096 -68.5474 -68.5466 -68.5348 -68.5265 -68.5212 -68.5145 -68.5034
   -68.4948 -68.4891 -68.4850 -68.4806 -68.4542 -68.4533 -68.4500 -68.4255
   -14.0128  -7.5854  -5.6052  -4.7864  -4.3413  -4.1343  -3.6698  -3.4731
    -3.1199  -2.9296  -2.8829  -2.7633  -2.7257  -2.6724  -2.5780  -2.5266
    -2.4157  -2.3727  -2.3328  -2.2352  -2.2128  -2.1465  -2.1202  -2.1053
    -2.0527  -2.0008  -1.9662  -1.8797  -1.8619  -1.7717  -1.7335  -1.6579
    -1.6158  -1.6046  -1.5684  -1.5018  -1.4845  -1.4572  -1.4284  -1.3742
    -1.3550  -1.3190  -1.2824  -1.2688  -1.2189  -1.1594  -1.1294  -1.0713
    -1.0615  -0.9534  -0.9279  -0.9162  -0.8445  -0.8182  -0.7726  -0.7283
    -0.7068  -0.6664  -0.5993  -0.5392  -0.5239  -0.4756  -0.4631  -0.4409
    -0.4119  -0.3382  -0.0913   0.1411   0.4073   1.1529   1.9589   2.6020
     2.9108   3.5494   3.9793   4.4186   4.9495   5.1345   5.3491

          k = 0.0321-0.0928 0.0000 ( 14299 PWs)   bands (ev):

  -111.6310-111.6291-111.6272-111.4095-111.3353-111.3333-111.3316-111.1197
  -111.0963-111.0946-111.0918-111.0750 -69.1248 -69.1107 -69.0972 -69.0147
   -69.0081 -68.9996 -68.9759 -68.9684 -68.9604 -68.8101 -68.8044 -68.8000
   -68.7584 -68.7418 -68.7324 -68.7300 -68.7280 -68.7261 -68.7246 -68.7136
   -68.7096 -68.5474 -68.5466 -68.5350 -68.5265 -68.5214 -68.5132 -68.5044
   -68.4949 -68.4889 -68.4850 -68.4806 -68.4544 -68.4529 -68.4501 -68.4255
   -14.0128  -7.5854  -5.6052  -4.7864  -4.3413  -4.1343  -3.6698  -3.4731
    -3.1199  -2.9296  -2.8829  -2.7633  -2.7257  -2.6724  -2.5780  -2.5266
    -2.4157  -2.3727  -2.3328  -2.2352  -2.2128  -2.1466  -2.1202  -2.1053
    -2.0528  -2.0008  -1.9663  -1.8797  -1.8619  -1.7717  -1.7335  -1.6578
    -1.6159  -1.6046  -1.5685  -1.5016  -1.4845  -1.4572  -1.4286  -1.3743
    -1.3552  -1.3189  -1.2824  -1.2687  -1.2190  -1.1595  -1.1294  -1.0713
    -1.0614  -0.9534  -0.9279  -0.9162  -0.8445  -0.8183  -0.7725  -0.7283
    -0.7068  -0.6664  -0.5993  -0.5392  -0.5239  -0.4755  -0.4630  -0.4410
    -0.4119  -0.3382  -0.0913   0.1412   0.4073   1.1529   1.9588   2.6021
     2.9108   3.5494   3.9793   4.4186   4.9495   5.1345   5.3491

          k = 0.0321-0.0557 0.0000 ( 14335 PWs)   bands (ev):

  -111.6320-111.6281-111.6272-111.4096-111.3361-111.3325-111.3315-111.1197
  -111.0974-111.0935-111.0918-111.0749 -69.1318 -69.1046 -69.0979 -69.0152
   -69.0121 -68.9956 -68.9796 -68.9639 -68.9599 -68.8102 -68.8068 -68.8037
   -68.7663 -68.7385 -68.7334 -68.7295 -68.7290 -68.7278 -68.7162 -68.7098
   -68.7077 -68.5469 -68.5462 -68.5419 -68.5334 -68.5325 -68.5048 -68.4957
   -68.4944 -68.4853 -68.4846 -68.4769 -68.4555 -68.4518 -68.4502 -68.4254
   -14.0249  -7.7013  -6.2291  -4.6579  -4.2088  -4.0328  -3.6166  -3.5179
    -3.2632  -3.1295  -3.0097  -2.8820  -2.8629  -2.7783  -2.7531  -2.7179
    -2.5749  -2.4820  -2.4220  -2.1700  -2.1522  -2.1330  -2.0383  -2.0236
    -1.9109  -1.8840  -1.8521  -1.7394  -1.7259  -1.6587  -1.6361  -1.6035
    -1.5882  -1.5544  -1.5120  -1.5102  -1.4675  -1.4375  -1.3500  -1.2673
    -1.2402  -1.2001  -1.1429  -1.0867  -1.0337  -1.0166  -0.9831  -0.9789
    -0.9447  -0.8968  -0.8591  -0.7558  -0.7169  -0.7116  -0.6697  -0.6623
    -0.5965  -0.5487  -0.5314  -0.4895  -0.4723  -0.4462  -0.4373  -0.3770
    -0.3142  -0.2889   0.0601   0.0912   0.9508   1.1442   1.4826   2.4098
     2.9137   3.3295   3.5755   3.8015   3.9760   4.9357   5.3022

          k = 0.0643-0.0371 0.0000 ( 14316 PWs)   bands (ev):

  -111.6318-111.6283-111.6273-111.4096-111.3359-111.3328-111.3314-111.1197
  -111.0973-111.0930-111.0924-111.0749 -69.1300 -69.1059 -69.0979 -69.0151
   -69.0110 -68.9967 -68.9786 -68.9653 -68.9599 -68.8102 -68.8065 -68.8019
   -68.7643 -68.7385 -68.7331 -68.7294 -68.7292 -68.7277 -68.7187 -68.7127
   -68.7067 -68.5472 -68.5462 -68.5406 -68.5323 -68.5277 -68.5045 -68.5023
   -68.4913 -68.4891 -68.4850 -68.4770 -68.4554 -68.4514 -68.4507 -68.4255
   -14.0209  -7.6607  -6.0711  -4.7220  -4.1539  -4.1023  -3.7713  -3.2449
    -3.1846  -3.1314  -2.9833  -2.8911  -2.8353  -2.7753  -2.6881  -2.6717
    -2.5309  -2.4305  -2.3788  -2.1762  -2.1626  -2.1439  -2.0807  -2.0325
    -1.9418  -1.9373  -1.8801  -1.7594  -1.7449  -1.6807  -1.6472  -1.6342
    -1.5900  -1.5499  -1.5193  -1.5027  -1.4730  -1.4196  -1.3897  -1.3054
    -1.2437  -1.2264  -1.1899  -1.1508  -1.1041  -1.1007  -1.0542  -1.0142
    -0.9547  -0.9402  -0.9142  -0.8714  -0.7795  -0.7574  -0.7076  -0.7005
    -0.6839  -0.6275  -0.6016  -0.5141  -0.4913  -0.4593  -0.4146  -0.4006
    -0.3683  -0.2586  -0.1930   0.5017   1.0571   1.1893   1.4987   2.2012
     2.5472   3.0936   3.5581   4.2948   4.8084   5.0080   5.3532

          k = 0.0643-0.0000 0.0000 ( 14335 PWs)   bands (ev):

  -111.6320-111.6281-111.6273-111.4096-111.3361-111.3326-111.3315-111.1197
  -111.0975-111.0933-111.0919-111.0749 -69.1318 -69.1045 -69.0980 -69.0152
   -69.0121 -68.9956 -68.9796 -68.9639 -68.9599 -68.8102 -68.8068 -68.8037
   -68.7662 -68.7385 -68.7334 -68.7295 -68.7291 -68.7278 -68.7163 -68.7098
   -68.7077 -68.5469 -68.5462 -68.5420 -68.5332 -68.5327 -68.5047 -68.4957
   -68.4947 -68.4853 -68.4846 -68.4769 -68.4555 -68.4517 -68.4503 -68.4254
   -14.0249  -7.7013  -6.2291  -4.6579  -4.2088  -4.0328  -3.6166  -3.5179
    -3.2632  -3.1295  -3.0097  -2.8820  -2.8629  -2.7783  -2.7531  -2.7179
    -2.5749  -2.4820  -2.4219  -2.1700  -2.1521  -2.1330  -2.0383  -2.0236
    -1.9109  -1.8840  -1.8521  -1.7394  -1.7258  -1.6587  -1.6361  -1.6035
    -1.5882  -1.5544  -1.5120  -1.5102  -1.4675  -1.4375  -1.3500  -1.2673
    -1.2402  -1.2001  -1.1428  -1.0867  -1.0337  -1.0167  -0.9831  -0.9789
    -0.9448  -0.8968  -0.8591  -0.7558  -0.7168  -0.7117  -0.6697  -0.6623
    -0.5966  -0.5487  -0.5314  -0.4894  -0.4723  -0.4461  -0.4373  -0.3770
    -0.3142  -0.2890   0.0601   0.0912   0.9508   1.1442   1.4826   2.4098
     2.9137   3.3295   3.5755   3.8015   3.9761   4.9357   5.3022

          k = 0.0643 0.0371 0.0000 ( 14316 PWs)   bands (ev):

  -111.6317-111.6285-111.6272-111.4096-111.3359-111.3327-111.3315-111.1197
  -111.0971-111.0940-111.0916-111.0749 -69.1300 -69.1060 -69.0978 -69.0150
   -69.0111 -68.9967 -68.9786 -68.9654 -68.9598 -68.8102 -68.8065 -68.8019
   -68.7643 -68.7384 -68.7331 -68.7293 -68.7293 -68.7278 -68.7187 -68.7125
   -68.7068 -68.5472 -68.5462 -68.5400 -68.5331 -68.5277 -68.5043 -68.5029
   -68.4906 -68.4888 -68.4850 -68.4775 -68.4552 -68.4523 -68.4500 -68.4255
   -14.0209  -7.6607  -6.0711  -4.7220  -4.1538  -4.1023  -3.7713  -3.2449
    -3.1845  -3.1315  -2.9833  -2.8911  -2.8353  -2.7753  -2.6881  -2.6717
    -2.5309  -2.4303  -2.3789  -2.1761  -2.1629  -2.1438  -2.0807  -2.0325
    -1.9418  -1.9373  -1.8800  -1.7594  -1.7449  -1.6809  -1.6470  -1.6342
    -1.5900  -1.5499  -1.5193  -1.5027  -1.4730  -1.4197  -1.3898  -1.3052
    -1.2436  -1.2264  -1.1899  -1.1511  -1.1040  -1.1007  -1.0541  -1.0142
    -0.9547  -0.9401  -0.9146  -0.8714  -0.7796  -0.7577  -0.7074  -0.7005
    -0.6838  -0.6275  -0.6014  -0.5139  -0.4914  -0.4592  -0.4148  -0.4010
    -0.3680  -0.2585  -0.1929   0.5017   1.0571   1.1894   1.4987   2.2012
     2.5472   3.0935   3.5581   4.2948   4.8083   5.0080   5.3533

          k = 0.0643-0.1485 0.0000 ( 14299 PWs)   bands (ev):

  -111.6310-111.6292-111.6272-111.4095-111.3353-111.3333-111.3315-111.1197
  -111.0962-111.0947-111.0917-111.0750 -69.1248 -69.1107 -69.0972 -69.0146
   -69.0081 -68.9996 -68.9759 -68.9685 -68.9604 -68.8101 -68.8044 -68.8000
   -68.7584 -68.7418 -68.7324 -68.7300 -68.7280 -68.7259 -68.7247 -68.7138
   -68.7095 -68.5474 -68.5466 -68.5350 -68.5262 -68.5210 -68.5147 -68.5032
   -68.4949 -68.4892 -68.4850 -68.4805 -68.4543 -68.4530 -68.4501 -68.4255
   -14.0128  -7.5854  -5.6052  -4.7864  -4.3413  -4.1343  -3.6698  -3.4731
    -3.1199  -2.9296  -2.8829  -2.7633  -2.7257  -2.6724  -2.5780  -2.5266
    -2.4157  -2.3727  -2.3328  -2.2353  -2.2127  -2.1466  -2.1202  -2.1053
    -2.0527  -2.0008  -1.9663  -1.8797  -1.8619  -1.7717  -1.7335  -1.6579
    -1.6159  -1.6046  -1.5684  -1.5018  -1.4845  -1.4572  -1.4284  -1.3742
    -1.3550  -1.3191  -1.2824  -1.2688  -1.2189  -1.1594  -1.1294  -1.0712
    -1.0615  -0.9534  -0.9279  -0.9162  -0.8445  -0.8181  -0.7726  -0.7282
    -0.7068  -0.6664  -0.5993  -0.5393  -0.5239  -0.4755  -0.4631  -0.4409
    -0.4118  -0.3382  -0.0913   0.1411   0.4073   1.1529   1.9589   2.6020
     2.9108   3.5494   3.9793   4.4186   4.9495   5.1345   5.3491

          k = 0.0643-0.1114 0.0000 ( 14310 PWs)   bands (ev):

  -111.6302-111.6300-111.6272-111.4095-111.3345-111.3342-111.3315-111.1197
  -111.0959-111.0947-111.0920-111.0750 -69.1186 -69.1167 -69.0969 -69.0145
   -69.0043 -69.0034 -68.9727 -68.9715 -68.9610 -68.8101 -68.8013 -68.8012
   -68.7497 -68.7494 -68.7317 -68.7307 -68.7297 -68.7278 -68.7198 -68.7140
   -68.7137 -68.5471 -68.5471 -68.5273 -68.5265 -68.5176 -68.5137 -68.5133
   -68.4954 -68.4860 -68.4855 -68.4848 -68.4541 -68.4530 -68.4503 -68.4255
   -14.0088  -7.5510  -5.0277  -4.9056  -4.6021  -4.1326  -4.0077  -3.1912
    -3.1808  -2.9725  -2.6595  -2.6501  -2.6007  -2.5897  -2.5669  -2.4372
    -2.3845  -2.3399  -2.2860  -2.2768  -2.2551  -2.2228  -2.1722  -2.1652
    -2.1444  -2.0697  -2.0027  -1.8735  -1.8641  -1.8592  -1.8354  -1.7470
    -1.7416  -1.7412  -1.5939  -1.5719  -1.4974  -1.4727  -1.4298  -1.4282
    -1.4132  -1.3483  -1.2774  -1.2737  -1.1832  -1.1161  -1.1154  -1.0535
    -1.0492  -0.9734  -0.8977  -0.8893  -0.8640  -0.7757  -0.7447  -0.7265
    -0.6766  -0.6279  -0.6215  -0.5295  -0.5250  -0.5138  -0.5128  -0.4730
    -0.4420  -0.4358  -0.4140   0.1879   0.3991   0.5622   2.4721   2.5808
     3.0880   4.5418   4.6743   4.6876   5.0210   5.3015   5.4697

          k = 0.0643-0.0742 0.0000 ( 14299 PWs)   bands (ev):

  -111.6311-111.6290-111.6273-111.4095-111.3352-111.3335-111.3315-111.1197
  -111.0966-111.0937-111.0923-111.0750 -69.1248 -69.1106 -69.0973 -69.0147
   -69.0080 -68.9997 -68.9759 -68.9683 -68.9605 -68.8101 -68.8044 -68.8000
   -68.7583 -68.7419 -68.7324 -68.7301 -68.7279 -68.7259 -68.7247 -68.7139
   -68.7094 -68.5474 -68.5466 -68.5357 -68.5255 -68.5208 -68.5143 -68.5037
   -68.4953 -68.4896 -68.4850 -68.4800 -68.4548 -68.4520 -68.4506 -68.4255
   -14.0128  -7.5854  -5.6052  -4.7863  -4.3414  -4.1343  -3.6698  -3.4731
    -3.1199  -2.9296  -2.8829  -2.7633  -2.7257  -2.6724  -2.5780  -2.5266
    -2.4158  -2.3728  -2.3328  -2.2353  -2.2127  -2.1466  -2.1202  -2.1052
    -2.0528  -2.0008  -1.9663  -1.8797  -1.8619  -1.7717  -1.7336  -1.6578
    -1.6159  -1.6045  -1.5686  -1.5017  -1.4844  -1.4571  -1.4285  -1.3743
    -1.3551  -1.3192  -1.2823  -1.2686  -1.2189  -1.1596  -1.1293  -1.0711
    -1.0616  -0.9535  -0.9279  -0.9162  -0.8443  -0.8182  -0.7726  -0.7282
    -0.7069  -0.6664  -0.5994  -0.5396  -0.5238  -0.4751  -0.4631  -0.4411
    -0.4116  -0.3383  -0.0913   0.1411   0.4073   1.1529   1.9588   2.6020
     2.9108   3.5494   3.9793   4.4186   4.9495   5.1344   5.3491

          k =-0.0964 0.0557 0.0000 ( 14294 PWs)   bands (ev):

  -111.6311-111.6290-111.6273-111.4095-111.3352-111.3336-111.3314-111.1197
  -111.0967-111.0930-111.0929-111.0750 -69.1251 -69.1101 -69.0975 -69.0147
   -69.0080 -68.9997 -68.9757 -68.9689 -68.9601 -68.8101 -68.8054 -68.7988
   -68.7596 -68.7385 -68.7323 -68.7302 -68.7279 -68.7268 -68.7265 -68.7155
   -68.7074 -68.5476 -68.5464 -68.5370 -68.5270 -68.5136 -68.5125 -68.5098
   -68.4968 -68.4898 -68.4850 -68.4786 -68.4550 -68.4514 -68.4511 -68.4255
   -14.0128  -7.5816  -5.4653  -5.1188  -4.3708  -4.0742  -3.5244  -3.3252
    -3.0259  -3.0104  -2.8434  -2.8057  -2.7998  -2.7339  -2.5521  -2.4635
    -2.4322  -2.4008  -2.3367  -2.3253  -2.1948  -2.1059  -2.0726  -2.0683
    -2.0394  -2.0064  -1.9168  -1.9115  -1.8831  -1.7706  -1.6839  -1.6532
    -1.6320  -1.5831  -1.4999  -1.4740  -1.4540  -1.4280  -1.4034  -1.3957
    -1.3812  -1.3484  -1.3255  -1.2669  -1.2560  -1.2021  -1.1435  -1.1101
    -1.0706  -1.0261  -0.9505  -0.9123  -0.9072  -0.8495  -0.8308  -0.7969
    -0.7302  -0.7130  -0.6975  -0.6145  -0.5010  -0.4798  -0.4319  -0.3655
    -0.3616  -0.1992  -0.0648   0.1371   1.1126   1.1949   1.8906   2.1877
     2.6036   2.7433   4.1408   4.7744   4.8281   5.1122   5.2167

          k =-0.0964 0.0928 0.0000 ( 14299 PWs)   bands (ev):

  -111.6311-111.6290-111.6273-111.4095-111.3352-111.3335-111.3315-111.1197
  -111.0967-111.0936-111.0924-111.0750 -69.1248 -69.1105 -69.0973 -69.0147
   -69.0080 -68.9997 -68.9759 -68.9683 -68.9605 -68.8101 -68.8044 -68.8000
   -68.7583 -68.7419 -68.7323 -68.7302 -68.7279 -68.7260 -68.7246 -68.7138
   -68.7094 -68.5474 -68.5466 -68.5357 -68.5255 -68.5209 -68.5139 -68.5040
   -68.4954 -68.4895 -68.4850 -68.4800 -68.4549 -68.4519 -68.4507 -68.4255
   -14.0128  -7.5854  -5.6052  -4.7863  -4.3414  -4.1343  -3.6698  -3.4731
    -3.1199  -2.9296  -2.8829  -2.7633  -2.7257  -2.6724  -2.5780  -2.5266
    -2.4158  -2.3728  -2.3328  -2.2353  -2.2127  -2.1466  -2.1202  -2.1052
    -2.0528  -2.0008  -1.9663  -1.8797  -1.8619  -1.7717  -1.7336  -1.6578
    -1.6159  -1.6045  -1.5686  -1.5017  -1.4844  -1.4571  -1.4286  -1.3743
    -1.3551  -1.3191  -1.2823  -1.2686  -1.2189  -1.1596  -1.1293  -1.0711
    -1.0615  -0.9535  -0.9279  -0.9162  -0.8443  -0.8182  -0.7726  -0.7282
    -0.7069  -0.6664  -0.5995  -0.5396  -0.5238  -0.4751  -0.4631  -0.4411
    -0.4116  -0.3383  -0.0913   0.1412   0.4073   1.1529   1.9588   2.6021
     2.9108   3.5494   3.9793   4.4186   4.9495   5.1344   5.3491

          k =-0.0964 0.1299 0.0000 ( 14299 PWs)   bands (ev):

  -111.6310-111.6291-111.6272-111.4095-111.3352-111.3334-111.3315-111.1197
  -111.0964-111.0943-111.0919-111.0750 -69.1248 -69.1106 -69.0972 -69.0147
   -69.0081 -68.9997 -68.9759 -68.9684 -68.9604 -68.8101 -68.8044 -68.8000
   -68.7584 -68.7418 -68.7324 -68.7301 -68.7279 -68.7261 -68.7246 -68.7137
   -68.7095 -68.5474 -68.5466 -68.5352 -68.5263 -68.5213 -68.5131 -68.5046
   -68.4950 -68.4890 -68.4850 -68.4804 -68.4546 -68.4526 -68.4502 -68.4255
   -14.0128  -7.5854  -5.6052  -4.7864  -4.3413  -4.1343  -3.6698  -3.4731
    -3.1198  -2.9296  -2.8829  -2.7633  -2.7257  -2.6724  -2.5780  -2.5266
    -2.4157  -2.3727  -2.3328  -2.2352  -2.2127  -2.1466  -2.1202  -2.1053
    -2.0528  -2.0008  -1.9663  -1.8797  -1.8619  -1.7717  -1.7335  -1.6578
    -1.6159  -1.6045  -1.5686  -1.5016  -1.4844  -1.4572  -1.4286  -1.3743
    -1.3552  -1.3189  -1.2824  -1.2687  -1.2190  -1.1595  -1.1293  -1.0713
    -1.0614  -0.9534  -0.9279  -0.9162  -0.8444  -0.8183  -0.7725  -0.7283
    -0.7069  -0.6664  -0.5994  -0.5393  -0.5239  -0.4754  -0.4630  -0.4410
    -0.4118  -0.3382  -0.0913   0.1412   0.4073   1.1529   1.9588   2.6021
     2.9108   3.5494   3.9793   4.4186   4.9495   5.1345   5.3491

          k =-0.0964-0.0557 0.0000 ( 14294 PWs)   bands (ev):

  -111.6310-111.6292-111.6272-111.4095-111.3353-111.3333-111.3315-111.1197
  -111.0962-111.0947-111.0917-111.0750 -69.1250 -69.1102 -69.0974 -69.0146
   -69.0082 -68.9996 -68.9756 -68.9691 -68.9600 -68.8101 -68.8054 -68.7988
   -68.7597 -68.7383 -68.7324 -68.7300 -68.7280 -68.7270 -68.7266 -68.7153
   -68.7075 -68.5476 -68.5464 -68.5361 -68.5281 -68.5142 -68.5130 -68.5086
   -68.4968 -68.4888 -68.4850 -68.4793 -68.4544 -68.4530 -68.4501 -68.4255
   -14.0128  -7.5816  -5.4652  -5.1190  -4.3707  -4.0742  -3.5245  -3.3251
    -3.0260  -3.0103  -2.8434  -2.8058  -2.7998  -2.7339  -2.5522  -2.4635
    -2.4321  -2.4008  -2.3365  -2.3254  -2.1949  -2.1059  -2.0724  -2.0685
    -2.0392  -2.0067  -1.9168  -1.9116  -1.8830  -1.7706  -1.6838  -1.6532
    -1.6319  -1.5833  -1.5000  -1.4740  -1.4540  -1.4280  -1.4036  -1.3954
    -1.3812  -1.3484  -1.3256  -1.2670  -1.2561  -1.2020  -1.1434  -1.1100
    -1.0709  -1.0262  -0.9504  -0.9123  -0.9070  -0.8498  -0.8310  -0.7967
    -0.7297  -0.7134  -0.6973  -0.6143  -0.5012  -0.4794  -0.4323  -0.3659
    -0.3613  -0.1992  -0.0648   0.1371   1.1126   1.1950   1.8906   2.1878
     2.6036   2.7432   4.1408   4.7745   4.8281   5.1122   5.2167

     the Fermi energy is     1.2367 ev

!    total energy              =   -4884.84876897 Ry
     Harris-Foulkes estimate   =   -4884.84872938 Ry
     estimated scf accuracy    <       0.00000633 Ry

     The total energy is the sum of the following terms:

     one-electron contribution =  -37935.53483166 Ry
     hartree contribution      =   18989.18369450 Ry
     xc contribution           =    -489.86100663 Ry
     ewald contribution        =   14551.39122005 Ry
     electric field correction =       0.00036599 Ry
     smearing contrib. (-TS)   =      -0.02821122 Ry

     convergence has been achieved in  29 iterations
 
 BEEF-vdW xc energy contributions
           1 :   -433.854248858007     
           2 :    393.209829663673     
           3 :   -324.315562359340     
           4 :    246.059090760816     
           5 :   -175.692612032337     
           6 :    122.698278875704     
           7 :   -87.2549912427852     
           8 :    63.3037047071330     
           9 :   -43.8303097071304     
          10 :    25.1200249730048     
          11 :   -7.84682752395827     
          12 :   -4.94500483800846     
          13 :    11.0402991733980     
          14 :   -11.1060280501409     
          15 :    8.38905758548810     
          16 :   -6.59110266740623     
          17 :    7.59639678945695     
          18 :   -10.6226442038262     
          19 :    13.2247677587932     
          20 :   -13.2891429289037     
          21 :    10.5685782247401     
          22 :   -6.75569011753112     
          23 :    4.17728431771172     
          24 :   -4.13494779575132     
          25 :    6.07336304806893     
          26 :   -8.09668226588991     
          27 :    8.38409841207357     
          28 :   -6.46583031686453     
          29 :    3.47971466664103     
          30 :   -1.28713317443749     
          31 :   -34.8694206943819     
          32 :   -23.8430154653236     

     Forces acting on atoms (Ry/au):


     negative rho (up, down):  9.588E-04 0.000E+00
     atom    1 type  1   force =     0.00004006    0.00000827    0.00392085
     atom    2 type  1   force =    -0.00003199    0.00067782    0.00269712
     atom    3 type  1   force =     0.00060510   -0.00038354    0.00292987
     atom    4 type  1   force =    -0.00058929   -0.00032233    0.00287023
     atom    5 type  1   force =     0.00074267   -0.00040919   -0.00001455
     atom    6 type  1   force =    -0.00079649   -0.00016039    0.00006970
     atom    7 type  1   force =     0.00020015   -0.00013370    0.01418614
     atom    8 type  1   force =    -0.00019396    0.00073539   -0.00003781
     atom    9 type  1   force =    -0.04405246   -0.02552159   -0.02945681
     atom   10 type  1   force =     0.04406463   -0.02543888   -0.02936038
     atom   11 type  1   force =     0.00007689    0.05090736   -0.02942261
     atom   12 type  1   force =    -0.00006835    0.00004047   -0.01858990
     atom   13 type  2   force =     0.00000045    0.00000082   -0.05161921
     atom   14 type  3   force =     0.00000257   -0.00000051    0.13182736

     Total force =     0.175375     Total SCF correction =     0.014783


     entering subroutine stress ...


     negative rho (up, down):  9.588E-04 0.000E+00
          total   stress  (Ry/bohr**3)                   (kbar)     P=   -5.90
  -0.00008009  -0.00000000   0.00000000        -11.78     -0.00      0.00
  -0.00000000  -0.00008009   0.00000002         -0.00    -11.78      0.00
   0.00000000   0.00000002   0.00003991          0.00      0.00      5.87


     BFGS Geometry Optimization

     number of scf cycles    =   1
     number of bfgs steps    =   0

     energy   new            =   -4884.8487689667 Ry

     new trust radius        =       0.1318273623 bohr
     new conv_thr            =       0.0000099958 Ry


ATOMIC_POSITIONS (crystal)
Cu1      0.166666667   0.166666667   0.412653782    0   0   0
Cu1      0.666666667   0.166666667   0.412653782    0   0   0
Cu1      0.166666667   0.666666667   0.412653782    0   0   0
Cu1      0.666666667   0.666666667   0.412653782    0   0   0
Cu1      0.833333333   0.333333333   0.500000000    0   0   0
Cu1      0.333333333   0.333333333   0.500000000    0   0   0
Cu1      0.833333333   0.833333333   0.500000000    0   0   0
Cu1      0.333333333   0.833333333   0.500000000    0   0   0
Cu1     -0.002992231  -0.003007768   0.586702979
Cu1      0.505996367  -0.002998021   0.586705084
Cu1     -0.002991917   0.505999530   0.586703726
Cu1      0.499990640   0.500004769   0.586940276
S1       0.166666664   0.166666763   0.649788340
H1       0.166666959   0.166666607   0.705375930



     Writing output data file calc.save
     NEW-OLD atomic charge density approx. for the potential

     negative rho (up, down):  9.487E-04 0.000E+00
 
     Adding external electric field

     Computed dipole along edir(3) : 
        Dipole                0.2262 Ry au,          0.5748 Debye
        Dipole field          0.0007 Ry au
 
        Potential amp.       -0.0667 Ry
        Total length         44.6496 bohr
 

     total cpu time spent up to now is      534.7 secs

     Self-consistent Calculation

     iteration #  1     ecut=    36.75 Ry     beta=0.30
     Davidson diagonalization with overlap
     ethr =  1.00E-06,  avg # of iterations =  8.1

     negative rho (up, down):  9.398E-04 0.000E+00
 
     Adding external electric field

     Computed dipole along edir(3) : 
        Dipole                0.8205 Ry au,          2.0855 Debye
        Dipole field          0.0027 Ry au
 
        Potential amp.       -0.2418 Ry
        Total length         44.6496 bohr
 

     total cpu time spent up to now is      565.6 secs

     total energy              =   -4884.84035959 Ry
     Harris-Foulkes estimate   =   -4884.87224652 Ry
     estimated scf accuracy    <       0.06969116 Ry

     iteration #  2     ecut=    36.75 Ry     beta=0.30
     Davidson diagonalization with overlap
     ethr =  2.97E-05,  avg # of iterations =  6.8

     negative rho (up, down):  9.331E-04 0.000E+00
 
     Adding external electric field

     Computed dipole along edir(3) : 
        Dipole                0.2825 Ry au,          0.7181 Debye
        Dipole field          0.0009 Ry au
 
        Potential amp.       -0.0833 Ry
        Total length         44.6496 bohr
 

     total cpu time spent up to now is      585.1 secs

     total energy              =   -4884.77191168 Ry
     Harris-Foulkes estimate   =   -4884.95279612 Ry
     estimated scf accuracy    <       2.34998113 Ry

     iteration #  3     ecut=    36.75 Ry     beta=0.30
     Davidson diagonalization with overlap
     ethr =  2.97E-05,  avg # of iterations =  5.5

     negative rho (up, down):  9.337E-04 0.000E+00
 
     Adding external electric field

     Computed dipole along edir(3) : 
        Dipole                0.2999 Ry au,          0.7624 Debye
        Dipole field          0.0010 Ry au
 
        Potential amp.       -0.0884 Ry
        Total length         44.6496 bohr
 

     total cpu time spent up to now is      601.8 secs

     total energy              =   -4884.86359346 Ry
     Harris-Foulkes estimate   =   -4884.86992882 Ry
     estimated scf accuracy    <       0.04103176 Ry

     iteration #  4     ecut=    36.75 Ry     beta=0.30
     Davidson diagonalization with overlap
     ethr =  1.75E-05,  avg # of iterations =  2.9

     negative rho (up, down):  9.293E-04 0.000E+00
 
     Adding external electric field

     Computed dipole along edir(3) : 
        Dipole                0.2910 Ry au,          0.7396 Debye
        Dipole field          0.0010 Ry au
 
        Potential amp.       -0.0858 Ry
        Total length         44.6496 bohr
 

     total cpu time spent up to now is      613.3 secs

     total energy              =   -4884.86671643 Ry
     Harris-Foulkes estimate   =   -4884.86732514 Ry
     estimated scf accuracy    <       0.00256489 Ry

     iteration #  5     ecut=    36.75 Ry     beta=0.30
     Davidson diagonalization with overlap
     ethr =  1.09E-06,  avg # of iterations =  4.0

     negative rho (up, down):  9.300E-04 0.000E+00
 
     Adding external electric field

     Computed dipole along edir(3) : 
        Dipole                0.2957 Ry au,          0.7517 Debye
        Dipole field          0.0010 Ry au
 
        Potential amp.       -0.0872 Ry
        Total length         44.6496 bohr
 

     total cpu time spent up to now is      627.7 secs

     total energy              =   -4884.86702071 Ry
     Harris-Foulkes estimate   =   -4884.86712706 Ry
     estimated scf accuracy    <       0.00048047 Ry

     iteration #  6     ecut=    36.75 Ry     beta=0.30
     Davidson diagonalization with overlap
     ethr =  2.04E-07,  avg # of iterations =  2.1

     negative rho (up, down):  9.323E-04 0.000E+00
 
     Adding external electric field

     Computed dipole along edir(3) : 
        Dipole                0.2944 Ry au,          0.7483 Debye
        Dipole field          0.0010 Ry au
 
        Potential amp.       -0.0868 Ry
        Total length         44.6496 bohr
 

     total cpu time spent up to now is      638.7 secs

     total energy              =   -4884.86705202 Ry
     Harris-Foulkes estimate   =   -4884.86708457 Ry
     estimated scf accuracy    <       0.00016247 Ry

     iteration #  7     ecut=    36.75 Ry     beta=0.30
     Davidson diagonalization with overlap
     ethr =  6.91E-08,  avg # of iterations =  2.0

     negative rho (up, down):  9.362E-04 0.000E+00
 
     Adding external electric field

     Computed dipole along edir(3) : 
        Dipole                0.2920 Ry au,          0.7422 Debye
        Dipole field          0.0010 Ry au
 
        Potential amp.       -0.0861 Ry
        Total length         44.6496 bohr
 

     total cpu time spent up to now is      650.4 secs

     total energy              =   -4884.86707170 Ry
     Harris-Foulkes estimate   =   -4884.86708052 Ry
     estimated scf accuracy    <       0.00004539 Ry

     iteration #  8     ecut=    36.75 Ry     beta=0.30
     Davidson diagonalization with overlap
     ethr =  1.93E-08,  avg # of iterations =  2.1

     negative rho (up, down):  9.389E-04 0.000E+00
 
     Adding external electric field

     Computed dipole along edir(3) : 
        Dipole                0.2921 Ry au,          0.7425 Debye
        Dipole field          0.0010 Ry au
 
        Potential amp.       -0.0861 Ry
        Total length         44.6496 bohr
 

     total cpu time spent up to now is      661.6 secs

     total energy              =   -4884.86707571 Ry
     Harris-Foulkes estimate   =   -4884.86707687 Ry
     estimated scf accuracy    <       0.00001446 Ry

     iteration #  9     ecut=    36.75 Ry     beta=0.30
     Davidson diagonalization with overlap
     ethr =  6.15E-09,  avg # of iterations =  2.1

     negative rho (up, down):  9.442E-04 0.000E+00

     negative rho (up, down):  9.442E-04 0.000E+00

     negative rho (up, down):  9.442E-04 0.000E+00

     negative rho (up, down):  9.442E-04 0.000E+00

     negative rho (up, down):  9.442E-04 0.000E+00

     negative rho (up, down):  9.442E-04 0.000E+00

     negative rho (up, down):  9.442E-04 0.000E+00

     negative rho (up, down):  9.442E-04 0.000E+00

     negative rho (up, down):  9.442E-04 0.000E+00

     negative rho (up, down):  9.442E-04 0.000E+00

     negative rho (up, down):  9.442E-04 0.000E+00

     negative rho (up, down):  9.442E-04 0.000E+00

     negative rho (up, down):  9.442E-04 0.000E+00

     negative rho (up, down):  9.442E-04 0.000E+00

     negative rho (up, down):  9.442E-04 0.000E+00

     negative rho (up, down):  9.442E-04 0.000E+00

     negative rho (up, down):  9.442E-04 0.000E+00

     negative rho (up, down):  9.442E-04 0.000E+00

     negative rho (up, down):  9.442E-04 0.000E+00

     negative rho (up, down):  9.442E-04 0.000E+00

     negative rho (up, down):  9.442E-04 0.000E+00

     negative rho (up, down):  9.442E-04 0.000E+00

     negative rho (up, down):  9.442E-04 0.000E+00

     negative rho (up, down):  9.442E-04 0.000E+00

     negative rho (up, down):  9.442E-04 0.000E+00

     negative rho (up, down):  9.442E-04 0.000E+00

     negative rho (up, down):  9.442E-04 0.000E+00

     negative rho (up, down):  9.442E-04 0.000E+00

     negative rho (up, down):  9.442E-04 0.000E+00

     negative rho (up, down):  9.442E-04 0.000E+00

     negative rho (up, down):  9.442E-04 0.000E+00

     negative rho (up, down):  9.442E-04 0.000E+00

     negative rho (up, down):  9.442E-04 0.000E+00

     negative rho (up, down):  9.442E-04 0.000E+00

     negative rho (up, down):  9.442E-04 0.000E+00
 
     Adding external electric field

     Computed dipole along edir(3) : 
        Dipole                0.2925 Ry au,          0.7435 Debye
        Dipole field          0.0010 Ry au
 
        Potential amp.       -0.0862 Ry
        Total length         44.6496 bohr
 

     total cpu time spent up to now is      684.6 secs

     End of self-consistent calculation

          k = 0.0000 0.0000 0.0000 ( 14321 PWs)   bands (ev):

  -111.6634-111.6575-111.6575-111.4686-111.3780-111.3726-111.3725-111.1677
  -111.1361-111.1300-111.1298-111.1187 -69.1686 -69.1269 -69.1269 -69.0465
   -69.0465 -69.0217 -69.0143 -68.9908 -68.9908 -68.8720 -68.8650 -68.8649
   -68.8162 -68.7758 -68.7758 -68.7758 -68.7693 -68.7693 -68.7484 -68.7462
   -68.7462 -68.5934 -68.5934 -68.5872 -68.5823 -68.5822 -68.5345 -68.5339
   -68.5329 -68.5327 -68.5146 -68.5145 -68.4934 -68.4878 -68.4876 -68.4694
   -13.7309  -7.6385  -6.6530  -4.8050  -4.1772  -4.1771  -3.7482  -3.3882
    -3.3882  -3.3749  -3.2304  -3.0089  -3.0089  -2.9743  -2.9743  -2.8992
    -2.8062  -2.6507  -2.6506  -2.1952  -2.1441  -2.1440  -1.9644  -1.9644
    -1.9611  -1.8573  -1.8117  -1.8117  -1.7008  -1.7008  -1.6648  -1.6598
    -1.6004  -1.6003  -1.4500  -1.4500  -1.3369  -1.3369  -1.3119  -1.1312
    -1.1253  -1.1253  -0.9496  -0.9495  -0.9244  -0.8469  -0.8469  -0.7215
    -0.7185  -0.7185  -0.5788  -0.5788  -0.5553  -0.5489  -0.5489  -0.5048
    -0.4817  -0.4817  -0.4243  -0.4243  -0.3987  -0.2324  -0.2324  -0.1931
    -0.1887  -0.1886   0.1336   1.0148   1.3705   1.3705   1.7514   2.3119
     2.3119   2.6195   2.7479   2.7479   2.8997   4.2747   4.8841

          k = 0.0000 0.0371 0.0000 ( 14383 PWs)   bands (ev):

  -111.6631-111.6578-111.6575-111.4686-111.3777-111.3729-111.3725-111.1677
  -111.1357-111.1304-111.1298-111.1188 -69.1660 -69.1288 -69.1265 -69.0461
   -69.0451 -69.0231 -69.0132 -68.9926 -68.9911 -68.8720 -68.8641 -68.8628
   -68.8130 -68.7774 -68.7754 -68.7745 -68.7697 -68.7693 -68.7501 -68.7499
   -68.7470 -68.5938 -68.5935 -68.5842 -68.5797 -68.5784 -68.5362 -68.5354
   -68.5344 -68.5320 -68.5190 -68.5157 -68.4930 -68.4881 -68.4876 -68.4694
   -13.7213  -7.5305  -6.5175  -4.7465  -4.1806  -4.1491  -3.6294  -3.4913
    -3.3303  -3.3101  -3.1897  -2.9903  -2.9683  -2.9193  -2.8999  -2.8570
    -2.7385  -2.6129  -2.5927  -2.1983  -2.1715  -2.1608  -2.0020  -1.9633
    -1.9272  -1.8624  -1.8363  -1.7772  -1.7736  -1.7002  -1.6539  -1.6228
    -1.6200  -1.5800  -1.4896  -1.4534  -1.4451  -1.3880  -1.3653  -1.2273
    -1.2036  -1.1523  -1.0828  -1.0042  -0.9965  -0.8644  -0.8538  -0.8264
    -0.7899  -0.7606  -0.7598  -0.6598  -0.6337  -0.6161  -0.6107  -0.5776
    -0.5695  -0.5117  -0.5083  -0.4851  -0.4641  -0.4066  -0.3681  -0.3378
    -0.2766  -0.1970   0.1719   0.5753   1.1408   1.2161   1.4324   1.9088
     2.3558   2.8100   3.3982   3.5495   3.5895   4.5950   5.0546

          k = 0.0000 0.0742 0.0000 ( 14316 PWs)   bands (ev):

  -111.6622-111.6587-111.6575-111.4685-111.3769-111.3737-111.3726-111.1677
  -111.1346-111.1313-111.1298-111.1189 -69.1594 -69.1339 -69.1257 -69.0454
   -69.0417 -69.0266 -69.0102 -68.9969 -68.9916 -68.8719 -68.8623 -68.8583
   -68.8053 -68.7799 -68.7745 -68.7709 -68.7706 -68.7692 -68.7601 -68.7543
   -68.7481 -68.5948 -68.5938 -68.5778 -68.5733 -68.5668 -68.5426 -68.5416
   -68.5345 -68.5309 -68.5291 -68.5186 -68.4920 -68.4890 -68.4876 -68.4695
   -13.7022  -7.3088  -6.0905  -4.7589  -4.1871  -4.0880  -3.7921  -3.2927
    -3.2173  -3.1812  -3.0267  -2.9390  -2.8897  -2.8112  -2.7385  -2.7112
    -2.5784  -2.4808  -2.4258  -2.2136  -2.2102  -2.1941  -2.1284  -2.0724
    -1.9828  -1.9779  -1.9214  -1.8048  -1.7803  -1.7312  -1.6874  -1.6830
    -1.6278  -1.5890  -1.5587  -1.5450  -1.5098  -1.4676  -1.4280  -1.3398
    -1.2849  -1.2653  -1.2253  -1.1887  -1.1403  -1.1377  -1.0933  -1.0436
    -0.9900  -0.9784  -0.9509  -0.9173  -0.8142  -0.7991  -0.7442  -0.7435
    -0.7243  -0.6626  -0.6396  -0.5550  -0.5308  -0.5010  -0.4538  -0.4457
    -0.4045  -0.2981  -0.2137   0.4591   1.0163   1.1514   1.4521   2.1522
     2.5248   3.0459   3.4719   4.1772   4.7890   4.9715   5.2330

          k = 0.0000-0.1114 0.0000 ( 14294 PWs)   bands (ev):

  -111.6616-111.6593-111.6575-111.4685-111.3763-111.3744-111.3726-111.1677
  -111.1336-111.1322-111.1298-111.1190 -69.1546 -69.1379 -69.1253 -69.0450
   -69.0389 -69.0294 -69.0076 -69.0002 -68.9918 -68.8719 -68.8613 -68.8558
   -68.8007 -68.7793 -68.7737 -68.7714 -68.7692 -68.7680 -68.7678 -68.7576
   -68.7486 -68.5952 -68.5940 -68.5739 -68.5687 -68.5516 -68.5511 -68.5472
   -68.5407 -68.5343 -68.5267 -68.5211 -68.4912 -68.4898 -68.4876 -68.4696
   -13.6925  -7.1981  -5.5344  -5.1515  -4.3882  -4.0550  -3.5547  -3.3548
    -3.0732  -3.0673  -2.8876  -2.8635  -2.8431  -2.7804  -2.5931  -2.5137
    -2.4969  -2.4372  -2.3881  -2.3675  -2.2297  -2.1558  -2.1159  -2.1151
    -2.0904  -2.0501  -1.9630  -1.9577  -1.9096  -1.8206  -1.7362  -1.6787
    -1.6767  -1.6261  -1.5358  -1.5133  -1.4905  -1.4680  -1.4435  -1.4268
    -1.4169  -1.3724  -1.3603  -1.3111  -1.2892  -1.2419  -1.1842  -1.1425
    -1.1099  -1.0737  -0.9920  -0.9545  -0.9418  -0.8891  -0.8691  -0.8303
    -0.7683  -0.7524  -0.7355  -0.6516  -0.5403  -0.5228  -0.4703  -0.4098
    -0.3981  -0.2187  -0.1129   0.1025   1.0662   1.1584   1.8450   2.1729
     2.5839   2.6438   4.1144   4.5514   4.7517   5.0768   5.2141

          k = 0.0321-0.0186 0.0000 ( 14383 PWs)   bands (ev):

  -111.6631-111.6578-111.6575-111.4686-111.3777-111.3729-111.3725-111.1677
  -111.1357-111.1301-111.1300-111.1188 -69.1660 -69.1288 -69.1265 -69.0461
   -69.0451 -69.0231 -69.0132 -68.9926 -68.9911 -68.8720 -68.8641 -68.8628
   -68.8130 -68.7774 -68.7754 -68.7745 -68.7697 -68.7693 -68.7501 -68.7499
   -68.7470 -68.5938 -68.5935 -68.5842 -68.5796 -68.5784 -68.5362 -68.5352
   -68.5344 -68.5321 -68.5191 -68.5157 -68.4930 -68.4879 -68.4878 -68.4694
   -13.7213  -7.5305  -6.5175  -4.7465  -4.1806  -4.1491  -3.6294  -3.4913
    -3.3303  -3.3101  -3.1897  -2.9903  -2.9682  -2.9193  -2.8999  -2.8570
    -2.7385  -2.6129  -2.5927  -2.1983  -2.1714  -2.1608  -2.0021  -1.9633
    -1.9272  -1.8624  -1.8363  -1.7772  -1.7736  -1.7002  -1.6538  -1.6229
    -1.6200  -1.5800  -1.4896  -1.4534  -1.4451  -1.3880  -1.3653  -1.2273
    -1.2036  -1.1523  -1.0828  -1.0042  -0.9965  -0.8644  -0.8538  -0.8264
    -0.7899  -0.7606  -0.7598  -0.6598  -0.6337  -0.6162  -0.6107  -0.5776
    -0.5695  -0.5117  -0.5082  -0.4852  -0.4641  -0.4066  -0.3682  -0.3378
    -0.2766  -0.1970   0.1719   0.5753   1.1408   1.2161   1.4324   1.9088
     2.3558   2.8100   3.3982   3.5495   3.5895   4.5950   5.0546

          k = 0.0321 0.0186 0.0000 ( 14383 PWs)   bands (ev):

  -111.6631-111.6578-111.6575-111.4686-111.3777-111.3729-111.3726-111.1677
  -111.1357-111.1303-111.1299-111.1188 -69.1660 -69.1288 -69.1265 -69.0461
   -69.0451 -69.0231 -69.0132 -68.9926 -68.9911 -68.8720 -68.8641 -68.8628
   -68.8130 -68.7774 -68.7754 -68.7745 -68.7697 -68.7693 -68.7501 -68.7499
   -68.7470 -68.5938 -68.5935 -68.5842 -68.5797 -68.5784 -68.5362 -68.5354
   -68.5344 -68.5320 -68.5190 -68.5157 -68.4930 -68.4881 -68.4877 -68.4694
   -13.7213  -7.5305  -6.5175  -4.7465  -4.1806  -4.1491  -3.6294  -3.4913
    -3.3303  -3.3101  -3.1897  -2.9903  -2.9683  -2.9193  -2.8999  -2.8570
    -2.7385  -2.6129  -2.5927  -2.1983  -2.1715  -2.1608  -2.0021  -1.9633
    -1.9272  -1.8624  -1.8363  -1.7772  -1.7736  -1.7002  -1.6539  -1.6228
    -1.6200  -1.5800  -1.4896  -1.4534  -1.4451  -1.3880  -1.3653  -1.2273
    -1.2036  -1.1523  -1.0828  -1.0042  -0.9965  -0.8644  -0.8538  -0.8264
    -0.7899  -0.7606  -0.7598  -0.6598  -0.6337  -0.6161  -0.6107  -0.5776
    -0.5695  -0.5117  -0.5083  -0.4851  -0.4641  -0.4066  -0.3682  -0.3378
    -0.2766  -0.1970   0.1719   0.5753   1.1408   1.2161   1.4324   1.9088
     2.3558   2.8100   3.3982   3.5495   3.5895   4.5950   5.0546

          k = 0.0321 0.0557 0.0000 ( 14335 PWs)   bands (ev):

  -111.6625-111.6584-111.6575-111.4685-111.3772-111.3735-111.3726-111.1677
  -111.1349-111.1310-111.1299-111.1189 -69.1612 -69.1325 -69.1258 -69.0456
   -69.0426 -69.0256 -69.0112 -68.9955 -68.9916 -68.8720 -68.8624 -68.8598
   -68.8073 -68.7801 -68.7748 -68.7714 -68.7703 -68.7693 -68.7577 -68.7510
   -68.7493 -68.5945 -68.5938 -68.5796 -68.5734 -68.5721 -68.5439 -68.5344
   -68.5337 -68.5332 -68.5267 -68.5181 -68.4923 -68.4887 -68.4876 -68.4695
   -13.7070  -7.3659  -6.2335  -4.6864  -4.2156  -4.0419  -3.6577  -3.5622
    -3.2973  -3.1599  -3.0637  -2.9281  -2.9148  -2.8186  -2.7891  -2.7662
    -2.6212  -2.5327  -2.4657  -2.2074  -2.2040  -2.1845  -2.0849  -2.0537
    -1.9459  -1.9338  -1.8915  -1.7786  -1.7691  -1.7086  -1.6811  -1.6415
    -1.6312  -1.5963  -1.5561  -1.5479  -1.5079  -1.4797  -1.3937  -1.3044
    -1.2794  -1.2427  -1.1779  -1.1208  -1.0708  -1.0532  -1.0229  -1.0150
    -0.9779  -0.9327  -0.8930  -0.7972  -0.7602  -0.7529  -0.7152  -0.6980
    -0.6336  -0.5901  -0.5713  -0.5276  -0.5087  -0.4904  -0.4726  -0.4167
    -0.3543  -0.3192   0.0243   0.0543   0.9038   1.1264   1.4240   2.3622
     2.8747   3.2804   3.5272   3.6601   3.9452   4.9194   5.1924

          k = 0.0321-0.1299 0.0000 ( 14299 PWs)   bands (ev):

  -111.6616-111.6593-111.6575-111.4685-111.3763-111.3744-111.3725-111.1677
  -111.1337-111.1320-111.1300-111.1190 -69.1544 -69.1383 -69.1251 -69.0451
   -69.0388 -69.0294 -69.0077 -68.9997 -68.9922 -68.8719 -68.8605 -68.8568
   -68.7994 -68.7829 -68.7738 -68.7714 -68.7693 -68.7673 -68.7660 -68.7555
   -68.7507 -68.5950 -68.5942 -68.5731 -68.5662 -68.5597 -68.5530 -68.5427
[...]
    -0.7716  -0.7189  -0.6882  -0.6828  -0.6265  -0.6193  -0.5969  -0.5486
    -0.4846  -0.3934  -0.1292  -0.1059   0.7586   0.9449   1.1650   2.2939
     2.7833   3.1918   3.3734   3.5502   3.7824   4.8128   5.1497

          k = 0.0643-0.0371 0.0000 ( 14316 PWs)   bands (ev):

  -111.6157-111.5860-111.5818-111.5807-111.5558-111.5526-111.5515-111.3571
  -111.2987-111.2952-111.2940-111.2866 -69.0559 -69.0247 -69.0223 -69.0127
   -69.0055 -69.0051 -68.9901 -68.9874 -68.9852 -68.9735 -68.9669 -68.9604
   -68.9550 -68.9517 -68.9494 -68.9417 -68.9338 -68.9327 -68.9291 -68.9269
   -68.9247 -68.7776 -68.7756 -68.7413 -68.7378 -68.7310 -68.7264 -68.7065
   -68.7055 -68.6958 -68.6930 -68.6833 -68.6567 -68.6535 -68.6523 -68.6405
   -13.0369  -6.8821  -6.0968  -4.6364  -4.3061  -3.6595  -3.5400  -3.4004
    -3.3230  -3.2955  -3.1408  -3.0074  -2.9476  -2.8653  -2.8208  -2.7920
    -2.6714  -2.5692  -2.4978  -2.3346  -2.3247  -2.2727  -2.2429  -2.1344
    -2.1179  -2.0459  -2.0175  -1.9403  -1.8701  -1.8344  -1.7936  -1.7353
    -1.7302  -1.6764  -1.6676  -1.6561  -1.6556  -1.6170  -1.5244  -1.4113
    -1.3807  -1.3694  -1.3302  -1.3176  -1.2881  -1.2345  -1.2236  -1.1754
    -1.1153  -1.0757  -1.0755  -0.9923  -0.9414  -0.9166  -0.8940  -0.8847
    -0.8441  -0.7790  -0.7746  -0.7077  -0.6624  -0.6476  -0.5959  -0.5903
    -0.5448  -0.4483  -0.2701   0.2576   0.8998   0.9928   1.2375   2.0598
     2.3323   2.8547   3.3691   4.1157   4.6445   4.8783   5.2921

          k = 0.0643-0.0000 0.0000 ( 14335 PWs)   bands (ev):

  -111.6157-111.5862-111.5816-111.5807-111.5560-111.5524-111.5515-111.3570
  -111.2991-111.2949-111.2940-111.2865 -69.0573 -69.0252 -69.0225 -69.0135
   -69.0073 -69.0058 -68.9897 -68.9875 -68.9867 -68.9726 -68.9673 -68.9596
   -68.9544 -68.9511 -68.9501 -68.9399 -68.9334 -68.9299 -68.9297 -68.9272
   -68.9245 -68.7770 -68.7756 -68.7432 -68.7376 -68.7365 -68.7265 -68.7078
   -68.6975 -68.6972 -68.6916 -68.6826 -68.6570 -68.6532 -68.6524 -68.6405
   -13.0413  -7.0050  -6.1924  -4.5953  -4.0284  -3.9075  -3.5827  -3.5137
    -3.3822  -3.2329  -3.2114  -3.0023  -2.9830  -2.8811  -2.8683  -2.8278
    -2.7204  -2.6105  -2.5301  -2.3276  -2.3149  -2.2763  -2.1787  -2.0824
    -2.0567  -2.0261  -1.9730  -1.9079  -1.8586  -1.8321  -1.8185  -1.7487
    -1.7126  -1.7000  -1.6771  -1.6564  -1.6357  -1.6015  -1.4839  -1.4065
    -1.3783  -1.3312  -1.2358  -1.2227  -1.1993  -1.1867  -1.1621  -1.1507
    -1.0956  -1.0454  -0.9889  -0.9336  -0.8898  -0.8799  -0.8552  -0.8289
    -0.7716  -0.7189  -0.6882  -0.6828  -0.6265  -0.6193  -0.5969  -0.5486
    -0.4846  -0.3934  -0.1292  -0.1059   0.7586   0.9449   1.1650   2.2939
     2.7833   3.1918   3.3734   3.5502   3.7824   4.8128   5.1497

          k = 0.0643 0.0371 0.0000 ( 14316 PWs)   bands (ev):

  -111.6157-111.5860-111.5818-111.5807-111.5558-111.5526-111.5515-111.3571
  -111.2987-111.2952-111.2940-111.2866 -69.0559 -69.0247 -69.0224 -69.0127
   -69.0055 -69.0051 -68.9901 -68.9874 -68.9852 -68.9735 -68.9669 -68.9604
   -68.9550 -68.9517 -68.9494 -68.9417 -68.9338 -68.9327 -68.9291 -68.9269
   -68.9247 -68.7776 -68.7756 -68.7413 -68.7378 -68.7310 -68.7264 -68.7065
   -68.7055 -68.6958 -68.6930 -68.6833 -68.6567 -68.6535 -68.6523 -68.6405
   -13.0369  -6.8821  -6.0968  -4.6364  -4.3061  -3.6595  -3.5400  -3.4004
    -3.3230  -3.2955  -3.1408  -3.0074  -2.9476  -2.8653  -2.8208  -2.7919
    -2.6714  -2.5692  -2.4978  -2.3346  -2.3247  -2.2727  -2.2429  -2.1344
    -2.1179  -2.0459  -2.0175  -1.9403  -1.8700  -1.8344  -1.7936  -1.7353
    -1.7302  -1.6764  -1.6676  -1.6561  -1.6556  -1.6170  -1.5244  -1.4113
    -1.3807  -1.3693  -1.3302  -1.3176  -1.2881  -1.2345  -1.2236  -1.1754
    -1.1153  -1.0757  -1.0755  -0.9923  -0.9414  -0.9166  -0.8940  -0.8847
    -0.8441  -0.7790  -0.7746  -0.7077  -0.6624  -0.6476  -0.5959  -0.5903
    -0.5448  -0.4483  -0.2701   0.2576   0.8998   0.9928   1.2375   2.0598
     2.3323   2.8547   3.3691   4.1157   4.6446   4.8783   5.2921

          k = 0.0643-0.1485 0.0000 ( 14299 PWs)   bands (ev):

  -111.6156-111.5855-111.5822-111.5807-111.5552-111.5533-111.5515-111.3571
  -111.2978-111.2959-111.2941-111.2867 -69.0525 -69.0262 -69.0193 -69.0116
   -69.0048 -69.0016 -68.9911 -68.9862 -68.9794 -68.9763 -68.9656 -68.9635
   -68.9580 -68.9531 -68.9485 -68.9435 -68.9359 -68.9334 -68.9297 -68.9277
   -68.9258 -68.7781 -68.7763 -68.7368 -68.7306 -68.7265 -68.7235 -68.7170
   -68.7068 -68.7000 -68.6930 -68.6867 -68.6559 -68.6541 -68.6524 -68.6406
   -13.0280  -6.6520  -5.7370  -4.8522  -4.2107  -4.0042  -3.5776  -3.3694
    -3.1517  -3.0616  -3.0009  -2.9041  -2.8738  -2.7746  -2.7349  -2.6763
    -2.5606  -2.5230  -2.4951  -2.3720  -2.3521  -2.3249  -2.3095  -2.2471
    -2.1963  -2.1209  -2.0907  -2.0076  -1.9458  -1.9074  -1.8855  -1.8269
    -1.7732  -1.7433  -1.7207  -1.6769  -1.6548  -1.6075  -1.5674  -1.5416
    -1.5148  -1.4632  -1.4399  -1.4172  -1.3764  -1.2872  -1.2474  -1.2279
    -1.1722  -1.1121  -1.0870  -1.0588  -1.0291  -1.0017  -0.9458  -0.8997
    -0.8545  -0.8173  -0.7774  -0.7188  -0.6982  -0.6590  -0.6415  -0.6116
    -0.5905  -0.4348  -0.2960  -0.0568   0.1654   0.9294   1.6862   2.4243
     2.6699   3.3362   3.8538   4.1498   4.8254   5.0254   5.2956

          k = 0.0643-0.1114 0.0000 ( 14310 PWs)   bands (ev):

  -111.6156-111.5852-111.5825-111.5807-111.5543-111.5542-111.5515-111.3571
  -111.2967-111.2967-111.2943-111.2867 -69.0504 -69.0275 -69.0169 -69.0111
   -69.0054 -69.0003 -68.9912 -68.9839 -68.9793 -68.9710 -68.9700 -68.9647
   -68.9591 -68.9567 -68.9485 -68.9407 -68.9367 -68.9328 -68.9325 -68.9281
   -68.9262 -68.7776 -68.7774 -68.7288 -68.7284 -68.7265 -68.7199 -68.7184
   -68.7184 -68.6961 -68.6921 -68.6921 -68.6550 -68.6549 -68.6525 -68.6406
   -13.0236  -6.5621  -5.0931  -5.0454  -4.7652  -3.8111  -3.7739  -3.3067
    -3.1436  -2.9406  -2.8126  -2.7914  -2.7260  -2.7096  -2.6783  -2.6522
    -2.5676  -2.5117  -2.4854  -2.4627  -2.4546  -2.3465  -2.3033  -2.2776
    -2.2469  -2.1484  -2.1011  -2.0371  -2.0114  -2.0096  -1.9709  -1.9379
    -1.9336  -1.9293  -1.6859  -1.6806  -1.6659  -1.6318  -1.6219  -1.5944
    -1.5566  -1.4715  -1.4620  -1.4461  -1.3135  -1.2637  -1.2085  -1.1928
    -1.1552  -1.1172  -1.1048  -1.0314  -1.0200  -0.9623  -0.8788  -0.8705
    -0.8106  -0.7789  -0.7756  -0.7208  -0.7108  -0.6987  -0.6907  -0.6491
    -0.6352  -0.5970  -0.5958  -0.0223   0.2058   0.2498   2.2822   2.3486
     2.6647   4.3967   4.6220   4.6542   4.9588   4.9644   5.2197

          k = 0.0643-0.0742 0.0000 ( 14299 PWs)   bands (ev):

  -111.6156-111.5855-111.5823-111.5807-111.5552-111.5533-111.5515-111.3571
  -111.2978-111.2959-111.2941-111.2867 -69.0525 -69.0262 -69.0193 -69.0116
   -69.0048 -69.0016 -68.9911 -68.9862 -68.9794 -68.9763 -68.9656 -68.9635
   -68.9580 -68.9531 -68.9485 -68.9435 -68.9359 -68.9334 -68.9297 -68.9277
   -68.9258 -68.7781 -68.7763 -68.7368 -68.7306 -68.7265 -68.7235 -68.7170
   -68.7068 -68.7000 -68.6930 -68.6867 -68.6559 -68.6541 -68.6524 -68.6406
   -13.0280  -6.6520  -5.7370  -4.8522  -4.2107  -4.0042  -3.5776  -3.3694
    -3.1517  -3.0616  -3.0009  -2.9042  -2.8738  -2.7746  -2.7349  -2.6763
    -2.5606  -2.5230  -2.4951  -2.3720  -2.3521  -2.3249  -2.3095  -2.2471
    -2.1963  -2.1210  -2.0907  -2.0076  -1.9458  -1.9074  -1.8855  -1.8269
    -1.7732  -1.7433  -1.7207  -1.6769  -1.6548  -1.6075  -1.5674  -1.5416
    -1.5148  -1.4633  -1.4399  -1.4172  -1.3764  -1.2872  -1.2474  -1.2279
    -1.1722  -1.1121  -1.0870  -1.0588  -1.0291  -1.0017  -0.9458  -0.8997
    -0.8545  -0.8173  -0.7774  -0.7188  -0.6982  -0.6590  -0.6415  -0.6116
    -0.5905  -0.4348  -0.2960  -0.0568   0.1654   0.9294   1.6862   2.4243
     2.6699   3.3362   3.8538   4.1498   4.8254   5.0255   5.2956

          k =-0.0964 0.0557 0.0000 ( 14294 PWs)   bands (ev):

  -111.6156-111.5855-111.5823-111.5807-111.5552-111.5533-111.5515-111.3571
  -111.2977-111.2962-111.2940-111.2867 -69.0527 -69.0252 -69.0207 -69.0113
   -69.0025 -69.0025 -68.9911 -68.9876 -68.9809 -68.9758 -68.9654 -68.9606
   -68.9590 -68.9514 -68.9484 -68.9469 -68.9358 -68.9346 -68.9290 -68.9267
   -68.9256 -68.7785 -68.7759 -68.7374 -68.7333 -68.7265 -68.7150 -68.7148
   -68.7110 -68.7065 -68.6903 -68.6860 -68.6558 -68.6543 -68.6523 -68.6406
   -13.0280  -6.6277  -5.6026  -5.2828  -4.1799  -3.6685  -3.4645  -3.3579
    -3.1282  -3.1147  -3.0004  -2.9860  -2.9625  -2.8002  -2.6988  -2.6141
    -2.5974  -2.5504  -2.4802  -2.4616  -2.3111  -2.2841  -2.2643  -2.2204
    -2.2180  -2.1616  -2.0246  -1.9637  -1.9620  -1.9007  -1.8811  -1.7901
    -1.7638  -1.6982  -1.6640  -1.6502  -1.6245  -1.6239  -1.6110  -1.5631
    -1.5550  -1.4512  -1.4353  -1.4302  -1.3758  -1.3470  -1.2910  -1.2292
    -1.2256  -1.1375  -1.1223  -1.0857  -1.0541  -1.0304  -1.0109  -0.9673
    -0.9177  -0.8850  -0.8732  -0.7876  -0.6680  -0.6609  -0.6103  -0.5511
    -0.5397  -0.2823  -0.2680  -0.1065   0.9490   0.9964   1.7438   1.9422
     2.3779   2.3848   4.0932   4.4484   4.5517   5.0137   5.2983

          k =-0.0964 0.0928 0.0000 ( 14299 PWs)   bands (ev):

  -111.6156-111.5855-111.5823-111.5807-111.5552-111.5533-111.5515-111.3571
  -111.2978-111.2959-111.2941-111.2867 -69.0525 -69.0262 -69.0193 -69.0116
   -69.0048 -69.0016 -68.9911 -68.9862 -68.9794 -68.9763 -68.9656 -68.9635
   -68.9580 -68.9531 -68.9485 -68.9435 -68.9359 -68.9334 -68.9297 -68.9277
   -68.9258 -68.7781 -68.7763 -68.7368 -68.7306 -68.7265 -68.7235 -68.7170
   -68.7068 -68.7000 -68.6930 -68.6867 -68.6559 -68.6541 -68.6524 -68.6406
   -13.0280  -6.6520  -5.7370  -4.8522  -4.2107  -4.0042  -3.5776  -3.3694
    -3.1517  -3.0616  -3.0009  -2.9042  -2.8738  -2.7746  -2.7349  -2.6763
    -2.5606  -2.5230  -2.4951  -2.3720  -2.3521  -2.3249  -2.3095  -2.2471
    -2.1963  -2.1210  -2.0907  -2.0076  -1.9458  -1.9074  -1.8855  -1.8269
    -1.7732  -1.7433  -1.7207  -1.6769  -1.6548  -1.6075  -1.5674  -1.5416
    -1.5148  -1.4633  -1.4399  -1.4172  -1.3764  -1.2872  -1.2474  -1.2279
    -1.1722  -1.1121  -1.0870  -1.0588  -1.0291  -1.0017  -0.9458  -0.8997
    -0.8545  -0.8173  -0.7774  -0.7188  -0.6982  -0.6590  -0.6415  -0.6116
    -0.5905  -0.4348  -0.2960  -0.0568   0.1654   0.9294   1.6862   2.4243
     2.6699   3.3362   3.8538   4.1498   4.8254   5.0255   5.2956

          k =-0.0964 0.1299 0.0000 ( 14299 PWs)   bands (ev):

  -111.6156-111.5855-111.5822-111.5807-111.5552-111.5533-111.5515-111.3571
  -111.2978-111.2959-111.2941-111.2867 -69.0525 -69.0262 -69.0193 -69.0116
   -69.0048 -69.0016 -68.9911 -68.9862 -68.9794 -68.9763 -68.9656 -68.9635
   -68.9580 -68.9531 -68.9485 -68.9435 -68.9359 -68.9334 -68.9297 -68.9277
   -68.9258 -68.7781 -68.7763 -68.7368 -68.7306 -68.7265 -68.7235 -68.7170
   -68.7068 -68.7000 -68.6930 -68.6867 -68.6559 -68.6541 -68.6524 -68.6406
   -13.0280  -6.6520  -5.7370  -4.8522  -4.2107  -4.0042  -3.5776  -3.3694
    -3.1517  -3.0616  -3.0009  -2.9042  -2.8738  -2.7746  -2.7349  -2.6763
    -2.5606  -2.5230  -2.4951  -2.3720  -2.3521  -2.3249  -2.3095  -2.2471
    -2.1963  -2.1209  -2.0907  -2.0076  -1.9458  -1.9074  -1.8855  -1.8269
    -1.7732  -1.7433  -1.7207  -1.6769  -1.6548  -1.6075  -1.5674  -1.5416
    -1.5148  -1.4632  -1.4399  -1.4172  -1.3764  -1.2872  -1.2474  -1.2279
    -1.1722  -1.1121  -1.0870  -1.0588  -1.0291  -1.0017  -0.9458  -0.8997
    -0.8545  -0.8173  -0.7774  -0.7188  -0.6982  -0.6590  -0.6415  -0.6116
    -0.5905  -0.4348  -0.2960  -0.0569   0.1654   0.9294   1.6862   2.4243
     2.6699   3.3362   3.8538   4.1498   4.8254   5.0255   5.2956

          k =-0.0964-0.0557 0.0000 ( 14294 PWs)   bands (ev):

  -111.6156-111.5855-111.5823-111.5807-111.5552-111.5533-111.5515-111.3571
  -111.2977-111.2962-111.2940-111.2867 -69.0527 -69.0252 -69.0207 -69.0113
   -69.0025 -69.0025 -68.9911 -68.9876 -68.9809 -68.9758 -68.9654 -68.9606
   -68.9590 -68.9514 -68.9484 -68.9469 -68.9358 -68.9346 -68.9290 -68.9267
   -68.9257 -68.7785 -68.7759 -68.7374 -68.7333 -68.7265 -68.7150 -68.7148
   -68.7110 -68.7065 -68.6903 -68.6860 -68.6558 -68.6543 -68.6523 -68.6406
   -13.0280  -6.6277  -5.6027  -5.2828  -4.1799  -3.6685  -3.4646  -3.3579
    -3.1282  -3.1148  -3.0004  -2.9860  -2.9625  -2.8002  -2.6988  -2.6141
    -2.5974  -2.5504  -2.4802  -2.4616  -2.3111  -2.2841  -2.2643  -2.2204
    -2.2180  -2.1616  -2.0247  -1.9637  -1.9620  -1.9006  -1.8811  -1.7901
    -1.7638  -1.6982  -1.6640  -1.6503  -1.6245  -1.6239  -1.6110  -1.5631
    -1.5550  -1.4512  -1.4353  -1.4301  -1.3758  -1.3470  -1.2911  -1.2292
    -1.2256  -1.1375  -1.1223  -1.0857  -1.0541  -1.0304  -1.0109  -0.9673
    -0.9177  -0.8850  -0.8732  -0.7876  -0.6680  -0.6609  -0.6103  -0.5511
    -0.5397  -0.2823  -0.2680  -0.1065   0.9490   0.9964   1.7438   1.9422
     2.3779   2.3848   4.0933   4.4484   4.5516   5.0137   5.2983

     the Fermi energy is     1.0302 ev

!    total energy              =   -4884.88462899 Ry
     Harris-Foulkes estimate   =   -4884.88462867 Ry
     estimated scf accuracy    <       0.00000003 Ry

     The total energy is the sum of the following terms:

     one-electron contribution =  -37997.56793116 Ry
     hartree contribution      =   19019.33160316 Ry
     xc contribution           =    -489.71602830 Ry
     ewald contribution        =   14583.09703500 Ry
     electric field correction =       0.00014920 Ry
     smearing contrib. (-TS)   =      -0.02945690 Ry

     convergence has been achieved in   7 iterations
 
 BEEF-vdW xc energy contributions
           1 :   -433.707443791173     
           2 :    393.011714909396     
           3 :   -324.059080586484     
           4 :    245.784361661142     
           5 :   -175.455772078489     
           6 :    122.536086061975     
           7 :   -87.1676906741531     
           8 :    63.2638790013258     
           9 :   -43.8078888785857     
          10 :    25.1045006346325     
          11 :   -7.85132439545237     
          12 :   -4.89875195962293     
          13 :    10.9428311637206     
          14 :   -10.9710540613257     
          15 :    8.24749353008349     
          16 :   -6.47422479065176     
          17 :    7.52145767913100     
          18 :   -10.5900619744913     
          19 :    13.2252632975270     
          20 :   -13.3123726617280     
          21 :    10.6061813271666     
          22 :   -6.79922361784315     
          23 :    4.21664951957615     
          24 :   -4.16104888534466     
          25 :    6.08347729919194     
          26 :   -8.09728544618503     
          27 :    8.38684437579752     
          28 :   -6.47834158547204     
          29 :    3.49870990614011     
          30 :   -1.30091739893965     
          31 :   -34.8591470512175     
          32 :   -23.8198697210328     

     Forces acting on atoms (Ry/au):


     negative rho (up, down):  9.438E-04 0.000E+00
     atom    1 type  1   force =     0.00000002    0.00000013    0.00345914
     atom    2 type  1   force =     0.00000003    0.00090883    0.00189959
     atom    3 type  1   force =     0.00078707   -0.00045441    0.00190007
     atom    4 type  1   force =    -0.00078698   -0.00045447    0.00189962
     atom    5 type  1   force =     0.00432518   -0.00249711   -0.00468531
     atom    6 type  1   force =    -0.00432458   -0.00249698   -0.00468975
     atom    7 type  1   force =    -0.00000091    0.00000004    0.00553495
     atom    8 type  1   force =     0.00000018    0.00499394   -0.00468987
     atom    9 type  1   force =     0.00027275    0.00017013   -0.00097306
     atom   10 type  1   force =    -0.00026664    0.00015345   -0.00097646
     atom   11 type  1   force =    -0.00001140   -0.00031958   -0.00097377
     atom   12 type  1   force =     0.00000841   -0.00000527    0.00107384
     atom   13 type  2   force =    -0.00000441    0.00000168    0.00083862
     atom   14 type  3   force =     0.00000129   -0.00000039    0.00038239

     Total force =     0.002270     Total SCF correction =     0.000370
     SCF correction compared to forces is large: reduce conv_thr to get better values


     entering subroutine stress ...


     negative rho (up, down):  9.438E-04 0.000E+00
          total   stress  (Ry/bohr**3)                   (kbar)     P=  -15.30
  -0.00010928   0.00000000  -0.00000000        -16.08      0.00     -0.00
   0.00000000  -0.00010928   0.00000000          0.00    -16.08      0.00
  -0.00000000   0.00000000  -0.00009352         -0.00      0.00    -13.76


     bfgs converged in  16 scf cycles and  14 bfgs steps
     (criteria: energy <  1.0E+00, force <  1.9E-03)

     End of BFGS Geometry Optimization

     Final energy   =   -4884.8846289877 Ry
Begin final coordinates

ATOMIC_POSITIONS (crystal)
Cu1      0.166666667   0.166666667   0.412653782    0   0   0
Cu1      0.666666667   0.166666667   0.412653782    0   0   0
Cu1      0.166666667   0.666666667   0.412653782    0   0   0
Cu1      0.666666667   0.666666667   0.412653782    0   0   0
Cu1      0.833333333   0.333333333   0.500000000    0   0   0
Cu1      0.333333333   0.333333333   0.500000000    0   0   0
Cu1      0.833333333   0.833333333   0.500000000    0   0   0
Cu1      0.333333333   0.833333333   0.500000000    0   0   0
Cu1     -0.005641288  -0.005650255   0.586690752
Cu1      0.511281128  -0.005640526   0.586691204
Cu1     -0.005639984   0.511289121   0.586690911
Cu1      0.499997067   0.500001865   0.582929207
S1       0.166666229   0.166666329   0.657957994
H1       0.166670198   0.166666027   0.714277717
End final coordinates



     Writing output data file calc.save
 
     init_run     :      4.82s CPU      7.15s WALL (       1 calls)
     electrons    :   2599.57s CPU   2850.93s WALL (      16 calls)
     update_pot   :     15.90s CPU     17.76s WALL (      15 calls)
     forces       :     45.16s CPU     48.21s WALL (      16 calls)
     stress       :    164.13s CPU    172.86s WALL (      16 calls)

     Called by init_run:
     wfcinit      :      3.19s CPU      5.19s WALL (       1 calls)
     potinit      :      0.52s CPU      0.68s WALL (       1 calls)

     Called by electrons:
     c_bands      :   2029.06s CPU   2196.89s WALL (     179 calls)
     sum_band     :    280.35s CPU    290.83s WALL (     179 calls)
     v_of_rho     :     56.42s CPU     75.00s WALL (     194 calls)
     newd         :    102.95s CPU    106.56s WALL (     194 calls)
     mix_rho      :      1.90s CPU      1.96s WALL (     179 calls)
     vdW_energy   :     48.06s CPU     61.93s WALL (     770 calls)
     vdW_ffts     :     64.34s CPU     90.55s WALL (    1572 calls)
     vdW_v        :     28.08s CPU     33.84s WALL (     770 calls)

     Called by c_bands:
     init_us_2    :      9.49s CPU      9.92s WALL (    7820 calls)
     cegterg      :   1957.32s CPU   2123.37s WALL (    3600 calls)

     Called by *egterg:
     h_psi        :    861.54s CPU    900.22s WALL (   16355 calls)
     s_psi        :     71.43s CPU     73.40s WALL (   16355 calls)
     g_psi        :      8.80s CPU      9.10s WALL (   12735 calls)
     cdiaghg      :    658.71s CPU    674.25s WALL (   16015 calls)

     Called by h_psi:
     add_vuspsi   :     71.07s CPU     72.87s WALL (   16355 calls)

     General routines
     calbec       :    119.69s CPU    123.29s WALL (   20575 calls)
     fft          :    104.18s CPU    143.31s WALL (   46471 calls)
     ffts         :      0.24s CPU      0.26s WALL (     373 calls)
     fftw         :    714.85s CPU    747.56s WALL ( 2775286 calls)
     interpolate  :      1.29s CPU      1.38s WALL (     373 calls)
     davcio       :      0.00s CPU      0.06s WALL (      20 calls)
 
     Parallel routines
     fft_scatter  :    453.06s CPU    484.94s WALL ( 2822130 calls)
 
     PWSCF        : 47m22.44s CPU    51m57.66s WALL

 
   This run was terminated on:   9:27:45  17Apr2018            

=------------------------------------------------------------------------------=
   JOB DONE.
=------------------------------------------------------------------------------=
