  python dir          : /home/mamunm/src/espresso
  espresso dir        : /home/vossj/suncat/esdld/espresso-dynpy-beef/bin
  pseudo dir          : /home/mamunm/src/pseudo/gbrv1.5pbe
  ase-espresso py git : GITVERSION



     Program PWSCF v.5.1rc2 (svn rev. ) starts on 18Apr2018 at  1:23:18 

     This program is part of the open-source Quantum ESPRESSO suite
     for quantum simulation of materials; please cite
         "P. Giannozzi et al., J. Phys.:Condens. Matter 21 395502 (2009);
          URL http://www.quantum-espresso.org", 
     in publications or presentations arising from this work. More details at
     http://www.quantum-espresso.org/quote

     Parallel version (MPI), running on    16 processors
     R & G space division:  proc/nbgrp/npool/nimage =      16
     Reading input from pw.inp
     Message from routine read_cards :
     DEPRECATED: no units specified in CELL_PARAMETERS card

     Current dimensions of program PWSCF are:
     Max number of different atomic species (ntypx) = 10
     Max number of k-points (npk) =  40000
     Max angular momentum in pseudopotentials (lmaxx) =  3
     Presently stress not available with electric field


     **************************************************************************
     Initializing libbeef V0.1.1 with the BEEF-vdW functional.
     Citation: Wellendorff et al., PRB 85, 235149 (2012).
     **************************************************************************


     IMPORTANT: XC functional enforced from input :
     Exchange-correlation      = BEEF-VDW ( 1  4 27 13 2)
     Any further DFT definition will be discarded
     Please, verify this is what you really want


     Subspace diagonalization in iterative solution of the eigenvalue problem:
     a serial algorithm will be used

 
     Parallelization info
     --------------------
     sticks:   dense  smooth     PW     G-vecs:    dense   smooth      PW
     Min         229      92     27                44757    11310    1747
     Max         230      93     28                44782    11361    1763
     Sum        3679    1483    433               716469   181389   28035
 


     bravais-lattice index     =            0
     lattice parameter (alat)  =       1.8897  a.u.
     unit-cell volume          =    6024.3322 (a.u.)^3
     number of atoms/cell      =           14
     number of atomic types    =            3
     number of electrons       =       149.00
     number of Kohn-Sham states=           84
     kinetic-energy cutoff     =      36.7493  Ry
     charge density cutoff     =     367.4932  Ry
     convergence threshold     =      1.0E-05
     mixing beta               =       0.3000
     number of iterations used =           10  plain     mixing
     Exchange-correlation      = BEEF-VDW ( 1  4 27 13 2)
     nstep                     =           50


     celldm(1)=   1.889726  celldm(2)=   0.000000  celldm(3)=   0.000000
     celldm(4)=   0.000000  celldm(5)=   0.000000  celldm(6)=   0.000000

     crystal axes: (cart. coord. in units of alat)
               a(1) = (   6.393197   0.000000   0.000000 )  
               a(2) = (   3.196599   5.536671   0.000000 )  
               a(3) = (   0.000000   0.000000  25.220024 )  

     reciprocal axes: (cart. coord. in units 2 pi/alat)
               b(1) = (  0.156416 -0.090307  0.000000 )  
               b(2) = (  0.000000  0.180614  0.000000 )  
               b(3) = (  0.000000  0.000000  0.039651 )  


     PseudoPot. # 1 for Hf read from file:
     /home/mamunm/src/pseudo/gbrv1.5pbe/Hf.UPF
     MD5 check sum: 8ee9378dfe14276e333edf04c5e4aa26
     Pseudo is Ultrasoft + core correction, Zval = 12.0
     Generated by new atomic code, or converted to UPF format
     Using radial grid of  921 points,  8 beta functions with: 
                l(1) =   0
                l(2) =   0
                l(3) =   0
                l(4) =   1
                l(5) =   1
                l(6) =   2
                l(7) =   2
                l(8) =   3
     Q(r) pseudized with  6 coefficients,  rinner =    1.200   1.200   1.200
                                                       1.200   1.200   1.200
                                                       1.200

     PseudoPot. # 2 for C  read from file:
     /home/mamunm/src/pseudo/gbrv1.5pbe/C.UPF
     MD5 check sum: d1aef80898a10debaa0f26306b886e00
     Pseudo is Ultrasoft + core correction, Zval =  4.0
     Generated by new atomic code, or converted to UPF format
     Using radial grid of  721 points,  4 beta functions with: 
                l(1) =   0
                l(2) =   0
                l(3) =   1
                l(4) =   1
     Q(r) pseudized with  8 coefficients,  rinner =    1.100   1.100   1.100


     PseudoPot. # 3 for H  read from file:
     /home/mamunm/src/pseudo/gbrv1.5pbe/H.UPF
     MD5 check sum: 761ae9a214b05c3daf00ab9f6b793d6f
     Pseudo is Ultrasoft, Zval =  1.0
     Generated by new atomic code, or converted to UPF format
     Using radial grid of  615 points,  2 beta functions with: 
                l(1) =   0
                l(2) =   0
     Q(r) pseudized with  8 coefficients,  rinner =    0.700

     vdW kernel table read from file vdW_kernel_table
     MD5 check sum: 095c7af220d748ca6e76c0b4c6cfb241

     atomic species   valence    mass     pseudopotential
        Hf1           12.00   178.49000     Hf( 1.00)
        C1             4.00    12.01100     C ( 1.00)
        H1             1.00     1.00800     H ( 1.00)

     No symmetry found



   Cartesian axes

     site n.     atom                  positions (alat units)
         1           Hf1 tau(   1) = (   1.5982993   0.9227785  10.0000000  )
         2           Hf1 tau(   2) = (   4.7948978   0.9227785  10.0000000  )
         3           Hf1 tau(   3) = (   3.1965986   3.6911141  10.0000000  )
         4           Hf1 tau(   4) = (   6.3931971   3.6911141  10.0000000  )
         5           Hf1 tau(   5) = (   6.3931971   1.8455570  12.6100118  )
         6           Hf1 tau(   6) = (   3.1965986   1.8455570  12.6100118  )
         7           Hf1 tau(   7) = (   7.9914964   4.6138926  12.6100118  )
         8           Hf1 tau(   8) = (   4.7948978   4.6138926  12.6100118  )
         9           Hf1 tau(   9) = (   0.0000000   0.0000000  15.2200236  )
        10           Hf1 tau(  10) = (   3.1965986   0.0000000  15.2200236  )
        11           Hf1 tau(  11) = (   1.5982993   2.7683356  15.2200236  )
        12           Hf1 tau(  12) = (   4.7948978   2.7683356  15.2200236  )
        13           C1  tau(  13) = (   3.1965986   1.8455570  16.8515236  )
        14           H1  tau(  14) = (   3.1965986   1.8455570  17.9515236  )

     number of k points=    20  Fermi-Dirac smearing, width (Ry)=  0.0110
                       cart. coord. in units 2pi/alat
        k(    1) = (   0.0000000   0.0000000   0.0000000), wk =   0.0555556
        k(    2) = (   0.0000000   0.0301023   0.0000000), wk =   0.1111111
        k(    3) = (   0.0000000   0.0602046   0.0000000), wk =   0.1111111
        k(    4) = (   0.0000000  -0.0903070   0.0000000), wk =   0.0555556
        k(    5) = (   0.0260694  -0.0150512   0.0000000), wk =   0.1111111
        k(    6) = (   0.0260694   0.0150512   0.0000000), wk =   0.1111111
        k(    7) = (   0.0260694   0.0451535   0.0000000), wk =   0.1111111
        k(    8) = (   0.0260694  -0.1053581   0.0000000), wk =   0.1111111
        k(    9) = (   0.0260694  -0.0752558   0.0000000), wk =   0.1111111
        k(   10) = (   0.0260694  -0.0451535   0.0000000), wk =   0.1111111
        k(   11) = (   0.0521388  -0.0301023   0.0000000), wk =   0.1111111
        k(   12) = (   0.0521388   0.0000000   0.0000000), wk =   0.1111111
        k(   13) = (   0.0521388   0.0301023   0.0000000), wk =   0.1111111
        k(   14) = (   0.0521388  -0.1204093   0.0000000), wk =   0.1111111
        k(   15) = (   0.0521388  -0.0903070   0.0000000), wk =   0.1111111
        k(   16) = (   0.0521388  -0.0602046   0.0000000), wk =   0.1111111
        k(   17) = (  -0.0782081   0.0451535   0.0000000), wk =   0.0555556
        k(   18) = (  -0.0782081   0.0752558   0.0000000), wk =   0.1111111
        k(   19) = (  -0.0782081   0.1053581   0.0000000), wk =   0.1111111
        k(   20) = (  -0.0782081  -0.0451535   0.0000000), wk =   0.0555556

     Dense  grid:   716469 G-vectors     FFT dimensions: (  75,  75, 300)

     Smooth grid:   181389 G-vectors     FFT dimensions: (  48,  48, 192)

     Largest allocated arrays     est. size (Mb)     dimensions
        Kohn-Sham Wavefunctions         1.86 Mb     (    1455,   84)
        NL pseudopotentials             7.15 Mb     (    1455,  322)
        Each V/rho on FFT grid          1.63 Mb     (  106875)
        Each G-vector array             0.34 Mb     (   44782)
        G-vector shells                 0.13 Mb     (   17151)
     Largest temporary arrays     est. size (Mb)     dimensions
        Auxiliary wavefunctions         7.46 Mb     (    1455,  336)
        Each subspace H/S matrix        1.72 Mb     (     336,  336)
        Each <psi_i|beta_j> matrix      0.41 Mb     (     322,   84)
        Arrays for rho mixing          16.31 Mb     (  106875,   10)

     Check: negative/imaginary core charge=   -0.000003    0.000000

     Initial potential from superposition of free atoms
     Check: negative starting charge=   -1.301310

     starting charge  124.99993, renormalised to  149.00000

     negative rho (up, down):  1.551E+00 0.000E+00


     ************************************************************************
     *
     * You are using vdW-DF for exchange-correlation in this calculation.
     * Please cite the following three references that made this development
     * possible:
     *
     *   M. Dion, H. Rydberg, E. Schroder, D. C. Langreth, and
     *   B. I. Lundqvist, Phys. Rev. Lett. 92, 246401 (2004).
     *
     *   T. Thonhauser, V. R. Cooper, S. Li, A. Puzder, P. Hyldgaard, and
     *   D. C. Langreth, Phys. Rev. B 76, 125112 (2007).
     *
     *   G. Roman-Perez and J. M. Soler, Phys. Rev. Lett. 103, 096102 (2009).
     *
     *
     * If you are using vdW-DF2, please also cite:
     *
     *   K. Lee, E. D. Murray, L. Kong, B. I. Lundqvist, and
     *   D. C. Langreth, Phys. Rev. B 82, 081101(R) (2010).
     *
     *
     * If you are calculating the stress with vdW-DF, please also cite:
     *
     *   R. Sabatini, E. Kucukbenli, B. Kolb, T. Thonhauser, and
     *   S. de Gironcoli, J. Phys.: Condens. Matter 24, 424209 (2012).
     *
     ************************************************************************

     Carrying out vdW-DF run using the following parameters:

     Nqs =      20    Nr_points =    1024   r_max =   100.000
     q_mesh =
               0.00001000     0.04494208     0.09755937     0.15916263
               0.23128650     0.31572767     0.41458969     0.53033537
               0.66584808     0.82450364     1.01025438     1.22772762
               1.48234092     1.78043706     2.12944203     2.53805004
               3.01644009     3.57652955     4.23227104     5.00000000

     Gradients computed in reciprocal space

     ************************************************************************


 
     Adding external electric field

     Computed dipole along edir(3) : 
        Dipole               -8.0933 Ry au,        -20.5712 Debye
        Dipole field         -0.0169 Ry au
 
        Potential amp.        1.5689 Ry
        Total length         46.4675 bohr
 
     Starting wfc are  161 randomized atomic wfcs

     total cpu time spent up to now is       12.5 secs

     Self-consistent Calculation

     iteration #  1     ecut=    36.75 Ry     beta=0.30
     Davidson diagonalization with overlap
     ethr =  1.00E-02,  avg # of iterations =  8.8

     negative rho (up, down):  1.437E+00 0.000E+00
 
     Adding external electric field

     Computed dipole along edir(3) : 
        Dipole              145.7447 Ry au,        370.4461 Debye
        Dipole field          0.3040 Ry au
 
        Potential amp.      -28.2535 Ry
        Total length         46.4675 bohr
 

     total cpu time spent up to now is       44.9 secs

     total energy              =   -1352.84371768 Ry
     Harris-Foulkes estimate   =   -1929.13207434 Ry
     estimated scf accuracy    <    1238.03262214 Ry

     iteration #  2     ecut=    36.75 Ry     beta=0.30
     Davidson diagonalization with overlap
     c_bands:  4 eigenvalues not converged
     c_bands:  3 eigenvalues not converged
     ethr =  1.00E-02,  avg # of iterations = 21.4

     negative rho (up, down):  1.384E+00 0.000E+00
 
     Adding external electric field

     Computed dipole along edir(3) : 
        Dipole               44.0747 Ry au,        112.0268 Debye
        Dipole field          0.0919 Ry au
 
        Potential amp.       -8.5442 Ry
        Total length         46.4675 bohr
 

     total cpu time spent up to now is      139.4 secs

     total energy              =   -1464.05628454 Ry
     Harris-Foulkes estimate   =   -2980.78131491 Ry
     estimated scf accuracy    <   14738.62371770 Ry

     iteration #  3     ecut=    36.75 Ry     beta=0.30
     Davidson diagonalization with overlap
     ethr =  1.00E-02,  avg # of iterations = 14.5

     negative rho (up, down):  1.337E+00 0.000E+00
 
     Adding external electric field

     Computed dipole along edir(3) : 
        Dipole               37.9887 Ry au,         96.5577 Debye
        Dipole field          0.0792 Ry au
 
        Potential amp.       -7.3644 Ry
        Total length         46.4675 bohr
 

     total cpu time spent up to now is      200.8 secs

     total energy              =   -1876.66526950 Ry
     Harris-Foulkes estimate   =   -2224.23749906 Ry
     estimated scf accuracy    <    2244.92515155 Ry

     iteration #  4     ecut=    36.75 Ry     beta=0.30
     Davidson diagonalization with overlap
     ethr =  1.00E-02,  avg # of iterations = 12.0

     negative rho (up, down):  1.332E+00 0.000E+00
 
     Adding external electric field

     Computed dipole along edir(3) : 
        Dipole               30.2162 Ry au,         76.8018 Debye
        Dipole field          0.0630 Ry au
 
        Potential amp.       -5.8576 Ry
        Total length         46.4675 bohr
 

     total cpu time spent up to now is      247.2 secs

     total energy              =   -1959.62925204 Ry
     Harris-Foulkes estimate   =   -2003.28439321 Ry
     estimated scf accuracy    <     183.47718822 Ry

     iteration #  5     ecut=    36.75 Ry     beta=0.30
     Davidson diagonalization with overlap
     ethr =  1.00E-02,  avg # of iterations =  8.5

     negative rho (up, down):  1.357E+00 0.000E+00
 
     Adding external electric field

     Computed dipole along edir(3) : 
        Dipole               26.5796 Ry au,         67.5585 Debye
        Dipole field          0.0554 Ry au
 
        Potential amp.       -5.1526 Ry
        Total length         46.4675 bohr
 

     total cpu time spent up to now is      278.5 secs

     total energy              =   -1946.35274414 Ry
     Harris-Foulkes estimate   =   -1981.11295804 Ry
     estimated scf accuracy    <     396.58717914 Ry

     iteration #  6     ecut=    36.75 Ry     beta=0.30
     Davidson diagonalization with overlap
     ethr =  1.00E-02,  avg # of iterations =  7.2

     negative rho (up, down):  1.363E+00 0.000E+00
 
     Adding external electric field

     Computed dipole along edir(3) : 
        Dipole               22.8568 Ry au,         58.0961 Debye
        Dipole field          0.0477 Ry au
 
        Potential amp.       -4.4309 Ry
        Total length         46.4675 bohr
 

     total cpu time spent up to now is      304.4 secs

     total energy              =   -1951.72473984 Ry
     Harris-Foulkes estimate   =   -1959.62250319 Ry
     estimated scf accuracy    <      60.13922474 Ry

     iteration #  7     ecut=    36.75 Ry     beta=0.30
     Davidson diagonalization with overlap
     ethr =  1.00E-02,  avg # of iterations =  1.9

     negative rho (up, down):  1.378E+00 0.000E+00
 
     Adding external electric field

     Computed dipole along edir(3) : 
        Dipole               17.6341 Ry au,         44.8214 Debye
        Dipole field          0.0368 Ry au
 
        Potential amp.       -3.4185 Ry
        Total length         46.4675 bohr
 

     total cpu time spent up to now is      320.9 secs

     total energy              =   -1945.11575058 Ry
     Harris-Foulkes estimate   =   -1953.16301377 Ry
     estimated scf accuracy    <      34.06727598 Ry

     iteration #  8     ecut=    36.75 Ry     beta=0.30
     Davidson diagonalization with overlap
     ethr =  1.00E-02,  avg # of iterations =  2.2

     negative rho (up, down):  1.383E+00 0.000E+00
 
     Adding external electric field

     Computed dipole along edir(3) : 
        Dipole               12.5498 Ry au,         31.8985 Debye
        Dipole field          0.0262 Ry au
 
        Potential amp.       -2.4329 Ry
        Total length         46.4675 bohr
 

     total cpu time spent up to now is      337.8 secs

     total energy              =   -1941.98470793 Ry
     Harris-Foulkes estimate   =   -1946.10160722 Ry
     estimated scf accuracy    <      17.01622267 Ry

     iteration #  9     ecut=    36.75 Ry     beta=0.30
     Davidson diagonalization with overlap
     ethr =  1.00E-02,  avg # of iterations =  1.4

     negative rho (up, down):  1.596E+00 0.000E+00
 
     Adding external electric field

     Computed dipole along edir(3) : 
        Dipole                1.2243 Ry au,          3.1119 Debye
        Dipole field          0.0026 Ry au
 
        Potential amp.       -0.2373 Ry
        Total length         46.4675 bohr
 

     total cpu time spent up to now is      354.4 secs

     total energy              =   -1936.20890408 Ry
     Harris-Foulkes estimate   =   -1942.58168293 Ry
     estimated scf accuracy    <      12.21492859 Ry

     iteration # 10     ecut=    36.75 Ry     beta=0.30
     Davidson diagonalization with overlap
     ethr =  8.20E-03,  avg # of iterations =  7.0

     negative rho (up, down):  1.609E+00 0.000E+00
 
     Adding external electric field

     Computed dipole along edir(3) : 
        Dipole                1.0693 Ry au,          2.7179 Debye
        Dipole field          0.0022 Ry au
 
        Potential amp.       -0.2073 Ry
        Total length         46.4675 bohr
 

     total cpu time spent up to now is      381.2 secs

     total energy              =   -1948.75145162 Ry
     Harris-Foulkes estimate   =   -1947.92326698 Ry
     estimated scf accuracy    <     428.91050963 Ry

     iteration # 11     ecut=    36.75 Ry     beta=0.30
     Davidson diagonalization with overlap
     ethr =  8.20E-03,  avg # of iterations =  2.5

     negative rho (up, down):  1.570E+00 0.000E+00
 
     Adding external electric field

     Computed dipole along edir(3) : 
        Dipole                1.0123 Ry au,          2.5730 Debye
        Dipole field          0.0021 Ry au
 
        Potential amp.       -0.1962 Ry
        Total length         46.4675 bohr
 

     total cpu time spent up to now is      398.1 secs

     total energy              =   -1949.00209776 Ry
     Harris-Foulkes estimate   =   -1948.86567539 Ry
     estimated scf accuracy    <     457.34415721 Ry

     iteration # 12     ecut=    36.75 Ry     beta=0.30
     Davidson diagonalization with overlap
     ethr =  8.20E-03,  avg # of iterations =  1.2

     negative rho (up, down):  1.647E+00 0.000E+00
 
     Adding external electric field

     Computed dipole along edir(3) : 
        Dipole               -0.1738 Ry au,         -0.4418 Debye
        Dipole field         -0.0004 Ry au
 
        Potential amp.        0.0337 Ry
        Total length         46.4675 bohr
 

     total cpu time spent up to now is      414.6 secs

     total energy              =   -1953.25104187 Ry
     Harris-Foulkes estimate   =   -1949.25884170 Ry
     estimated scf accuracy    <     501.08883702 Ry

     iteration # 13     ecut=    36.75 Ry     beta=0.30
     Davidson diagonalization with overlap
     ethr =  8.20E-03,  avg # of iterations =  4.4

     negative rho (up, down):  1.408E+00 0.000E+00
 
     Adding external electric field

     Computed dipole along edir(3) : 
        Dipole                5.6996 Ry au,         14.4870 Debye
        Dipole field          0.0119 Ry au
 
        Potential amp.       -1.1049 Ry
        Total length         46.4675 bohr
 

     total cpu time spent up to now is      433.4 secs

     total energy              =   -1929.56379919 Ry
     Harris-Foulkes estimate   =   -1954.01831471 Ry
     estimated scf accuracy    <     743.80708595 Ry

     iteration # 14     ecut=    36.75 Ry     beta=0.30
     Davidson diagonalization with overlap
     ethr =  8.20E-03,  avg # of iterations =  6.8

     negative rho (up, down):  1.386E+00 0.000E+00
 
     Adding external electric field

     Computed dipole along edir(3) : 
        Dipole                6.6892 Ry au,         17.0022 Debye
        Dipole field          0.0140 Ry au
 
        Potential amp.       -1.2967 Ry
        Total length         46.4675 bohr
 

     total cpu time spent up to now is      457.4 secs

     total energy              =   -1939.23066636 Ry
     Harris-Foulkes estimate   =   -1941.73883442 Ry
     estimated scf accuracy    <     105.85770158 Ry

     iteration # 15     ecut=    36.75 Ry     beta=0.30
     Davidson diagonalization with overlap
     ethr =  8.20E-03,  avg # of iterations =  3.5

     negative rho (up, down):  1.384E+00 0.000E+00
 
     Adding external electric field

     Computed dipole along edir(3) : 
        Dipole                7.3258 Ry au,         18.6203 Debye
        Dipole field          0.0153 Ry au
 
        Potential amp.       -1.4202 Ry
        Total length         46.4675 bohr
 

     total cpu time spent up to now is      475.5 secs

     total energy              =   -1940.00967698 Ry
     Harris-Foulkes estimate   =   -1940.04581696 Ry
     estimated scf accuracy    <      21.46885261 Ry

     iteration # 16     ecut=    36.75 Ry     beta=0.30
     Davidson diagonalization with overlap
     ethr =  8.20E-03,  avg # of iterations =  2.0

     negative rho (up, down):  1.391E+00 0.000E+00
 
     Adding external electric field

     Computed dipole along edir(3) : 
        Dipole                6.2945 Ry au,         15.9991 Debye
        Dipole field          0.0131 Ry au
 
        Potential amp.       -1.2202 Ry
        Total length         46.4675 bohr
 

     total cpu time spent up to now is      492.2 secs

     total energy              =   -1940.21387744 Ry
     Harris-Foulkes estimate   =   -1940.18058044 Ry
     estimated scf accuracy    <      10.91506918 Ry

     iteration # 17     ecut=    36.75 Ry     beta=0.30
     Davidson diagonalization with overlap
     ethr =  7.33E-03,  avg # of iterations =  1.2

     negative rho (up, down):  1.377E+00 0.000E+00
 
     Adding external electric field

     Computed dipole along edir(3) : 
        Dipole                8.8328 Ry au,         22.4507 Debye
        Dipole field          0.0184 Ry au
 
        Potential amp.       -1.7123 Ry
        Total length         46.4675 bohr
 

     total cpu time spent up to now is      508.7 secs

     total energy              =   -1940.31443397 Ry
     Harris-Foulkes estimate   =   -1940.32393744 Ry
     estimated scf accuracy    <      27.76342254 Ry

     iteration # 18     ecut=    36.75 Ry     beta=0.30
     Davidson diagonalization with overlap
     ethr =  7.33E-03,  avg # of iterations =  3.6

     negative rho (up, down):  1.379E+00 0.000E+00
 
     Adding external electric field

     Computed dipole along edir(3) : 
        Dipole                8.6726 Ry au,         22.0435 Debye
        Dipole field          0.0181 Ry au
 
        Potential amp.       -1.6812 Ry
        Total length         46.4675 bohr
 

     total cpu time spent up to now is      526.6 secs

     total energy              =   -1941.17676777 Ry
     Harris-Foulkes estimate   =   -1941.16017357 Ry
     estimated scf accuracy    <       3.48596821 Ry

     iteration # 19     ecut=    36.75 Ry     beta=0.30
     Davidson diagonalization with overlap
     ethr =  2.34E-03,  avg # of iterations =  8.9

     negative rho (up, down):  1.379E+00 0.000E+00
 
     Adding external electric field

     Computed dipole along edir(3) : 
        Dipole                8.7684 Ry au,         22.2872 Debye
        Dipole field          0.0183 Ry au
 
        Potential amp.       -1.6998 Ry
        Total length         46.4675 bohr
 

     total cpu time spent up to now is      550.3 secs

     total energy              =   -1941.52330976 Ry
     Harris-Foulkes estimate   =   -1941.57342707 Ry
     estimated scf accuracy    <       8.31484525 Ry

     iteration # 20     ecut=    36.75 Ry     beta=0.30
     Davidson diagonalization with overlap
     ethr =  2.34E-03,  avg # of iterations =  1.5

     negative rho (up, down):  1.380E+00 0.000E+00
 
     Adding external electric field

     Computed dipole along edir(3) : 
        Dipole                8.7131 Ry au,         22.1464 Debye
        Dipole field          0.0182 Ry au
 
        Potential amp.       -1.6891 Ry
        Total length         46.4675 bohr
 

     total cpu time spent up to now is      566.7 secs

     total energy              =   -1941.57463589 Ry
     Harris-Foulkes estimate   =   -1941.56185303 Ry
     estimated scf accuracy    <       4.57822607 Ry

     iteration # 21     ecut=    36.75 Ry     beta=0.30
     Davidson diagonalization with overlap
     ethr =  2.34E-03,  avg # of iterations =  1.0

     negative rho (up, down):  1.383E+00 0.000E+00
 
     Adding external electric field

     Computed dipole along edir(3) : 
        Dipole                8.3760 Ry au,         21.2897 Debye
        Dipole field          0.0175 Ry au
 
        Potential amp.       -1.6237 Ry
        Total length         46.4675 bohr
 

     total cpu time spent up to now is      582.8 secs

     total energy              =   -1941.50012886 Ry
     Harris-Foulkes estimate   =   -1941.59414263 Ry
     estimated scf accuracy    <       4.29539563 Ry

     iteration # 22     ecut=    36.75 Ry     beta=0.30
     Davidson diagonalization with overlap
     ethr =  2.34E-03,  avg # of iterations =  1.0

     negative rho (up, down):  1.384E+00 0.000E+00
 
     Adding external electric field

     Computed dipole along edir(3) : 
        Dipole                7.9619 Ry au,         20.2371 Debye
        Dipole field          0.0166 Ry au
 
        Potential amp.       -1.5435 Ry
        Total length         46.4675 bohr
 

     total cpu time spent up to now is      599.1 secs

     total energy              =   -1941.43181196 Ry
     Harris-Foulkes estimate   =   -1941.52056519 Ry
     estimated scf accuracy    <       3.96405841 Ry

     iteration # 23     ecut=    36.75 Ry     beta=0.30
     Davidson diagonalization with overlap
     ethr =  2.34E-03,  avg # of iterations =  1.0

     negative rho (up, down):  1.382E+00 0.000E+00
 
     Adding external electric field

     Computed dipole along edir(3) : 
        Dipole                7.0455 Ry au,         17.9078 Debye
        Dipole field          0.0147 Ry au
 
        Potential amp.       -1.3658 Ry
        Total length         46.4675 bohr
 

     total cpu time spent up to now is      615.2 secs

     total energy              =   -1941.00251187 Ry
     Harris-Foulkes estimate   =   -1941.46419353 Ry
     estimated scf accuracy    <       3.59091400 Ry

     iteration # 24     ecut=    36.75 Ry     beta=0.30
     Davidson diagonalization with overlap
     ethr =  2.34E-03,  avg # of iterations =  1.0

     negative rho (up, down):  1.600E+00 0.000E+00
 
     Adding external electric field

     Computed dipole along edir(3) : 
        Dipole               -1.2059 Ry au,         -3.0650 Debye
        Dipole field         -0.0025 Ry au
 
        Potential amp.        0.2338 Ry
        Total length         46.4675 bohr
 

     total cpu time spent up to now is      631.6 secs

     total energy              =   -1939.15496942 Ry
     Harris-Foulkes estimate   =   -1941.11573763 Ry
     estimated scf accuracy    <       3.73739026 Ry

     iteration # 25     ecut=    36.75 Ry     beta=0.30
     Davidson diagonalization with overlap
     ethr =  2.34E-03,  avg # of iterations =  3.6

     negative rho (up, down):  1.509E+00 0.000E+00
 
     Adding external electric field

     Computed dipole along edir(3) : 
        Dipole                0.0160 Ry au,          0.0407 Debye
        Dipole field          0.0000 Ry au
 
        Potential amp.       -0.0031 Ry
        Total length         46.4675 bohr
 

     total cpu time spent up to now is      650.7 secs

     total energy              =   -1939.33183150 Ry
     Harris-Foulkes estimate   =   -1939.52700307 Ry
     estimated scf accuracy    <       0.86968009 Ry

     iteration # 26     ecut=    36.75 Ry     beta=0.30
     Davidson diagonalization with overlap
     ethr =  5.84E-04,  avg # of iterations =  4.7

     negative rho (up, down):  1.492E+00 0.000E+00
 
     Adding external electric field

     Computed dipole along edir(3) : 
        Dipole                0.3428 Ry au,          0.8714 Debye
        Dipole field          0.0007 Ry au
 
        Potential amp.       -0.0665 Ry
        Total length         46.4675 bohr
 

     total cpu time spent up to now is      671.3 secs

     total energy              =   -1939.33849536 Ry
     Harris-Foulkes estimate   =   -1939.58797149 Ry
     estimated scf accuracy    <      12.17463518 Ry

     iteration # 27     ecut=    36.75 Ry     beta=0.30
     Davidson diagonalization with overlap
     ethr =  5.84E-04,  avg # of iterations =  2.2

     negative rho (up, down):  1.459E+00 0.000E+00
 
     Adding external electric field

     Computed dipole along edir(3) : 
        Dipole                0.3785 Ry au,          0.9620 Debye
        Dipole field          0.0008 Ry au
 
        Potential amp.       -0.0734 Ry
        Total length         46.4675 bohr
 

     total cpu time spent up to now is      688.4 secs

     total energy              =   -1939.39436613 Ry
     Harris-Foulkes estimate   =   -1939.44002452 Ry
     estimated scf accuracy    <       1.15359862 Ry

     iteration # 28     ecut=    36.75 Ry     beta=0.30
     Davidson diagonalization with overlap
     ethr =  5.84E-04,  avg # of iterations =  1.0

     negative rho (up, down):  1.445E+00 0.000E+00
 
     Adding external electric field

     Computed dipole along edir(3) : 
        Dipole                0.2681 Ry au,          0.6815 Debye
        Dipole field          0.0006 Ry au
 
        Potential amp.       -0.0520 Ry
        Total length         46.4675 bohr
 

     total cpu time spent up to now is      704.5 secs

     total energy              =   -1939.39206736 Ry
     Harris-Foulkes estimate   =   -1939.40960764 Ry
     estimated scf accuracy    <       0.26208392 Ry

     iteration # 29     ecut=    36.75 Ry     beta=0.30
     Davidson diagonalization with overlap
     ethr =  1.76E-04,  avg # of iterations =  5.9

     negative rho (up, down):  1.411E+00 0.000E+00
 
     Adding external electric field

     Computed dipole along edir(3) : 
        Dipole                0.1552 Ry au,          0.3946 Debye
        Dipole field          0.0003 Ry au
 
        Potential amp.       -0.0301 Ry
        Total length         46.4675 bohr
 

     total cpu time spent up to now is      725.2 secs

     total energy              =   -1939.40291242 Ry
     Harris-Foulkes estimate   =   -1939.40675624 Ry
     estimated scf accuracy    <       0.01132598 Ry

     iteration # 30     ecut=    36.75 Ry     beta=0.30
     Davidson diagonalization with overlap
     ethr =  7.60E-06,  avg # of iterations =  7.3

     negative rho (up, down):  1.405E+00 0.000E+00
 
     Adding external electric field

     Computed dipole along edir(3) : 
        Dipole                0.0813 Ry au,          0.2066 Debye
        Dipole field          0.0002 Ry au
 
        Potential amp.       -0.0158 Ry
        Total length         46.4675 bohr
 

     total cpu time spent up to now is      749.4 secs

     total energy              =   -1939.40394486 Ry
     Harris-Foulkes estimate   =   -1939.40496418 Ry
     estimated scf accuracy    <       0.00987226 Ry

     iteration # 31     ecut=    36.75 Ry     beta=0.30
     Davidson diagonalization with overlap
     ethr =  6.63E-06,  avg # of iterations =  1.1

     negative rho (up, down):  1.385E+00 0.000E+00
 
     Adding external electric field

     Computed dipole along edir(3) : 
        Dipole                0.0166 Ry au,          0.0423 Debye
        Dipole field          0.0000 Ry au
 
        Potential amp.       -0.0032 Ry
        Total length         46.4675 bohr
 

     total cpu time spent up to now is      765.6 secs

     total energy              =   -1939.40360801 Ry
     Harris-Foulkes estimate   =   -1939.40422736 Ry
     estimated scf accuracy    <       0.00303368 Ry

     iteration # 32     ecut=    36.75 Ry     beta=0.30
     Davidson diagonalization with overlap
     ethr =  2.04E-06,  avg # of iterations =  3.0

     negative rho (up, down):  1.383E+00 0.000E+00
 
     Adding external electric field

     Computed dipole along edir(3) : 
        Dipole                0.0213 Ry au,          0.0541 Debye
        Dipole field          0.0000 Ry au
 
        Potential amp.       -0.0041 Ry
        Total length         46.4675 bohr
 

     total cpu time spent up to now is      783.5 secs

     total energy              =   -1939.40368253 Ry
     Harris-Foulkes estimate   =   -1939.40377355 Ry
     estimated scf accuracy    <       0.00043910 Ry

     iteration # 33     ecut=    36.75 Ry     beta=0.30
     Davidson diagonalization with overlap
     ethr =  2.95E-07,  avg # of iterations =  4.6

     negative rho (up, down):  1.382E+00 0.000E+00
 
     Adding external electric field

     Computed dipole along edir(3) : 
        Dipole                0.0173 Ry au,          0.0441 Debye
        Dipole field          0.0000 Ry au
 
        Potential amp.       -0.0034 Ry
        Total length         46.4675 bohr
 

     total cpu time spent up to now is      804.6 secs

     total energy              =   -1939.40370032 Ry
     Harris-Foulkes estimate   =   -1939.40374823 Ry
     estimated scf accuracy    <       0.00032279 Ry

     iteration # 34     ecut=    36.75 Ry     beta=0.30
     Davidson diagonalization with overlap
     ethr =  2.17E-07,  avg # of iterations =  4.2

     negative rho (up, down):  1.381E+00 0.000E+00
 
     Adding external electric field

     Computed dipole along edir(3) : 
        Dipole                0.0083 Ry au,          0.0212 Debye
        Dipole field          0.0000 Ry au
 
        Potential amp.       -0.0016 Ry
        Total length         46.4675 bohr
 

     total cpu time spent up to now is      823.9 secs

     total energy              =   -1939.40373393 Ry
     Harris-Foulkes estimate   =   -1939.40374287 Ry
     estimated scf accuracy    <       0.00012171 Ry

     iteration # 35     ecut=    36.75 Ry     beta=0.30
     Davidson diagonalization with overlap
     ethr =  8.17E-08,  avg # of iterations =  2.4

     negative rho (up, down):  1.381E+00 0.000E+00
 
     Adding external electric field

     Computed dipole along edir(3) : 
        Dipole                0.0125 Ry au,          0.0318 Debye
        Dipole field          0.0000 Ry au
 
        Potential amp.       -0.0024 Ry
        Total length         46.4675 bohr
 

     total cpu time spent up to now is      841.0 secs

     total energy              =   -1939.40373738 Ry
     Harris-Foulkes estimate   =   -1939.40373954 Ry
     estimated scf accuracy    <       0.00002438 Ry

     iteration # 36     ecut=    36.75 Ry     beta=0.30
     Davidson diagonalization with overlap
     ethr =  1.64E-08,  avg # of iterations =  4.6

     negative rho (up, down):  1.380E+00 0.000E+00
 
     Adding external electric field

     Computed dipole along edir(3) : 
        Dipole                0.0152 Ry au,          0.0387 Debye
        Dipole field          0.0000 Ry au
 
        Potential amp.       -0.0030 Ry
        Total length         46.4675 bohr
 

     total cpu time spent up to now is      861.5 secs

     total energy              =   -1939.40373919 Ry
     Harris-Foulkes estimate   =   -1939.40374051 Ry
     estimated scf accuracy    <       0.00001286 Ry

     iteration # 37     ecut=    36.75 Ry     beta=0.30
     Davidson diagonalization with overlap
     ethr =  8.63E-09,  avg # of iterations =  3.0

     negative rho (up, down):  1.380E+00 0.000E+00

     negative rho (up, down):  1.380E+00 0.000E+00

     negative rho (up, down):  1.380E+00 0.000E+00

     negative rho (up, down):  1.380E+00 0.000E+00

     negative rho (up, down):  1.380E+00 0.000E+00

     negative rho (up, down):  1.380E+00 0.000E+00

     negative rho (up, down):  1.380E+00 0.000E+00

     negative rho (up, down):  1.380E+00 0.000E+00

     negative rho (up, down):  1.380E+00 0.000E+00

     negative rho (up, down):  1.380E+00 0.000E+00

     negative rho (up, down):  1.380E+00 0.000E+00

     negative rho (up, down):  1.380E+00 0.000E+00

     negative rho (up, down):  1.380E+00 0.000E+00

     negative rho (up, down):  1.380E+00 0.000E+00

     negative rho (up, down):  1.380E+00 0.000E+00

     negative rho (up, down):  1.380E+00 0.000E+00

     negative rho (up, down):  1.380E+00 0.000E+00

     negative rho (up, down):  1.380E+00 0.000E+00

     negative rho (up, down):  1.380E+00 0.000E+00

     negative rho (up, down):  1.380E+00 0.000E+00

     negative rho (up, down):  1.380E+00 0.000E+00

     negative rho (up, down):  1.380E+00 0.000E+00

     negative rho (up, down):  1.380E+00 0.000E+00

     negative rho (up, down):  1.380E+00 0.000E+00

     negative rho (up, down):  1.380E+00 0.000E+00

     negative rho (up, down):  1.380E+00 0.000E+00

     negative rho (up, down):  1.380E+00 0.000E+00

     negative rho (up, down):  1.380E+00 0.000E+00

     negative rho (up, down):  1.380E+00 0.000E+00

     negative rho (up, down):  1.380E+00 0.000E+00

     negative rho (up, down):  1.380E+00 0.000E+00

     negative rho (up, down):  1.380E+00 0.000E+00

     negative rho (up, down):  1.380E+00 0.000E+00

     negative rho (up, down):  1.380E+00 0.000E+00

     negative rho (up, down):  1.380E+00 0.000E+00
 
     Adding external electric field

     Computed dipole along edir(3) : 
        Dipole                0.0199 Ry au,          0.0506 Debye
        Dipole field          0.0000 Ry au
 
        Potential amp.       -0.0039 Ry
        Total length         46.4675 bohr
 

     total cpu time spent up to now is      900.4 secs

     End of self-consistent calculation

          k = 0.0000 0.0000 0.0000 ( 22729 PWs)   bands (ev):

   -61.3169 -61.2060 -61.1743 -61.1738 -61.1645 -61.0776 -61.0529 -61.0522
   -60.7938 -60.7662 -60.7654 -60.7172 -29.9835 -29.9671 -29.9669 -29.9583
   -29.9397 -29.9395 -29.8599 -29.8400 -29.7740 -29.7736 -29.7532 -29.6614
   -29.6355 -29.6351 -29.5444 -29.5428 -29.5425 -29.5132 -29.5131 -29.4857
   -29.4612 -29.4609 -29.4552 -29.4148 -29.4147 -29.3153 -29.3150 -29.2499
   -29.2460 -29.2453 -29.1914 -29.1583 -29.1353 -29.1349 -29.0201 -29.0201
    -8.9912  -5.0908  -3.9892  -2.9331  -2.1694  -1.7066  -1.7066  -1.5801
    -1.3610  -1.3609  -1.1775  -1.0554  -1.0554  -0.3800  -0.2924  -0.2923
    -0.2678   0.1935   0.1936   0.6643   0.8536   0.8536   1.4340   1.6135
     1.8249   1.8249   1.8384   1.9412   2.1909   2.1909   2.3106   2.3950
     2.6238   2.6240   2.6354   2.7607

          k = 0.0000 0.0301 0.0000 ( 22708 PWs)   bands (ev):

   -61.3168 -61.2037 -61.1758 -61.1740 -61.1651 -61.0761 -61.0545 -61.0522
   -60.7919 -60.7675 -60.7656 -60.7176 -29.9802 -29.9499 -29.9417 -29.9320
   -29.9220 -29.9101 -29.8475 -29.8231 -29.7695 -29.7677 -29.7501 -29.6582
   -29.6404 -29.6354 -29.5647 -29.5637 -29.5360 -29.5348 -29.5132 -29.4702
   -29.4656 -29.4526 -29.4504 -29.4484 -29.4232 -29.3502 -29.3222 -29.2479
   -29.2433 -29.2398 -29.1888 -29.1728 -29.1541 -29.1319 -29.0548 -29.0280
    -8.9840  -4.8989  -3.8321  -2.8236  -2.0527  -1.8741  -1.6068  -1.5456
    -1.3902  -1.2542  -1.0938  -0.8503  -0.8307  -0.2954  -0.1812  -0.1805
    -0.1506   0.2037   0.2119   0.6649   0.8575   0.8614   1.4181   1.5195
     1.6752   1.7445   1.7678   1.8369   2.1064   2.1331   2.2695   2.3246
     2.3752   2.3984   2.4430   2.5194

          k = 0.0000 0.0602 0.0000 ( 22648 PWs)   bands (ev):

   -61.3165 -61.1977 -61.1809 -61.1741 -61.1660 -61.0725 -61.0584 -61.0522
   -60.7869 -60.7716 -60.7657 -60.7184 -29.9735 -29.9107 -29.8920 -29.8785
   -29.8559 -29.8282 -29.8219 -29.7785 -29.7633 -29.7554 -29.7436 -29.6570
   -29.6459 -29.6419 -29.6137 -29.6102 -29.5871 -29.5536 -29.5316 -29.5113
   -29.4690 -29.4611 -29.4468 -29.4230 -29.4209 -29.3770 -29.3374 -29.2449
   -29.2436 -29.2329 -29.2137 -29.2008 -29.1841 -29.1463 -29.1124 -29.0498
    -8.9700  -4.3585  -3.4587  -2.7120  -2.4226  -1.7288  -1.4391  -1.3818
    -1.2855  -0.9569  -0.8607  -0.5174  -0.4025  -0.0004   0.0824   0.1146
     0.1599   0.2881   0.2919   0.7068   0.8522   0.9275   1.1237   1.3241
     1.3530   1.4037   1.4379   1.5138   1.7839   1.8282   1.8770   1.9620
     1.9795   2.0901   2.1326   2.3209

          k = 0.0000-0.0903 0.0000 ( 22668 PWs)   bands (ev):

   -61.3163 -61.1912 -61.1871 -61.1741 -61.1663 -61.0695 -61.0616 -61.0522
   -60.7825 -60.7756 -60.7657 -60.7188 -29.9702 -29.8878 -29.8597 -29.8483
   -29.8082 -29.7979 -29.7707 -29.7623 -29.7488 -29.7376 -29.6966 -29.6956
   -29.6641 -29.6635 -29.6520 -29.6397 -29.6250 -29.5803 -29.5487 -29.5302
   -29.4827 -29.4760 -29.4639 -29.4050 -29.3975 -29.3448 -29.2834 -29.2720
   -29.2615 -29.2412 -29.2304 -29.2271 -29.2179 -29.1826 -29.0902 -29.0727
    -8.9631  -3.6913  -3.4935  -3.0545  -2.3443  -1.8574  -1.2472  -1.2283
    -1.0235  -0.7513  -0.7066  -0.5686  -0.2004   0.1714   0.3435   0.3583
     0.4749   0.4907   0.5922   0.6128   0.8867   0.9264   0.9792   0.9898
     1.0115   1.1178   1.3058   1.3860   1.3927   1.4469   1.6122   1.7476
     1.7868   1.8508   2.0191   2.2002

          k = 0.0261-0.0151 0.0000 ( 22708 PWs)   bands (ev):

   -61.3168 -61.2037 -61.1760 -61.1738 -61.1652 -61.0762 -61.0540 -61.0526
   -60.7919 -60.7669 -60.7662 -60.7176 -29.9802 -29.9499 -29.9416 -29.9321
   -29.9220 -29.9101 -29.8475 -29.8231 -29.7697 -29.7675 -29.7501 -29.6583
   -29.6402 -29.6356 -29.5646 -29.5639 -29.5361 -29.5348 -29.5133 -29.4703
   -29.4654 -29.4526 -29.4503 -29.4484 -29.4232 -29.3500 -29.3225 -29.2475
   -29.2436 -29.2398 -29.1888 -29.1729 -29.1539 -29.1321 -29.0548 -29.0280
    -8.9840  -4.8989  -3.8321  -2.8236  -2.0527  -1.8741  -1.6068  -1.5455
    -1.3902  -1.2541  -1.0938  -0.8503  -0.8307  -0.2954  -0.1812  -0.1805
    -0.1506   0.2037   0.2119   0.6649   0.8576   0.8614   1.4181   1.5195
     1.6752   1.7445   1.7678   1.8369   2.1063   2.1331   2.2694   2.3246
     2.3752   2.3984   2.4430   2.5194

          k = 0.0261 0.0151 0.0000 ( 22708 PWs)   bands (ev):

   -61.3168 -61.2037 -61.1755 -61.1743 -61.1651 -61.0762 -61.0539 -61.0527
   -60.7918 -60.7677 -60.7654 -60.7176 -29.9802 -29.9497 -29.9418 -29.9320
   -29.9218 -29.9103 -29.8475 -29.8231 -29.7693 -29.7679 -29.7501 -29.6583
   -29.6399 -29.6358 -29.5648 -29.5636 -29.5361 -29.5348 -29.5133 -29.4701
   -29.4654 -29.4526 -29.4506 -29.4482 -29.4232 -29.3499 -29.3225 -29.2481
   -29.2431 -29.2398 -29.1888 -29.1727 -29.1543 -29.1318 -29.0547 -29.0280
    -8.9840  -4.8989  -3.8321  -2.8236  -2.0527  -1.8741  -1.6067  -1.5456
    -1.3902  -1.2542  -1.0937  -0.8503  -0.8307  -0.2954  -0.1811  -0.1805
    -0.1506   0.2037   0.2119   0.6649   0.8575   0.8614   1.4181   1.5195
     1.6752   1.7445   1.7678   1.8369   2.1063   2.1331   2.2695   2.3246
     2.3752   2.3985   2.4430   2.5194

          k = 0.0261 0.0452 0.0000 ( 22675 PWs)   bands (ev):

   -61.3165 -61.1996 -61.1781 -61.1754 -61.1655 -61.0736 -61.0570 -61.0524
   -60.7883 -60.7704 -60.7656 -60.7182 -29.9752 -29.9212 -29.9016 -29.8888
   -29.8743 -29.8617 -29.8311 -29.7889 -29.7649 -29.7600 -29.7452 -29.6538
   -29.6480 -29.6416 -29.6222 -29.5829 -29.5459 -29.5446 -29.5209 -29.5067
   -29.4851 -29.4453 -29.4417 -29.4365 -29.4192 -29.3869 -29.3382 -29.2461
   -29.2414 -29.2345 -29.2205 -29.1857 -29.1509 -29.1379 -29.1151 -29.0453
    -8.9734  -4.5313  -3.5612  -2.6616  -2.0781  -2.0302  -1.7050  -1.4117
    -1.2288  -1.0515  -0.8304  -0.5899  -0.4871  -0.1244   0.0014   0.0345
     0.0627   0.2366   0.2634   0.6761   0.8615   0.9329   1.2863   1.3417
     1.4425   1.4751   1.5481   1.5875   1.8652   1.9504   1.9685   2.0740
     2.0814   2.1783   2.2635   2.3173

          k = 0.0261-0.1054 0.0000 ( 22643 PWs)   bands (ev):

   -61.3163 -61.1927 -61.1838 -61.1767 -61.1654 -61.0695 -61.0615 -61.0522
   -60.7829 -60.7748 -60.7661 -60.7188 -29.9702 -29.8780 -29.8569 -29.8278
   -29.8157 -29.8040 -29.7838 -29.7593 -29.7556 -29.7414 -29.7346 -29.7071
   -29.6748 -29.6484 -29.6336 -29.6283 -29.6086 -29.5745 -29.5467 -29.5130
   -29.4946 -29.4742 -29.4671 -29.4117 -29.3776 -29.3556 -29.3329 -29.2896
   -29.2430 -29.2371 -29.2317 -29.2176 -29.1837 -29.1670 -29.1138 -29.0755
    -8.9631  -3.8756  -3.2753  -2.8476  -2.3230  -2.0677  -1.6867  -1.2381
    -0.9877  -0.6373  -0.4871  -0.3693  -0.1678   0.1513   0.2199   0.2855
     0.3750   0.4096   0.5005   0.7206   0.8451   0.8872   1.0003   1.0657
     1.1181   1.1477   1.2404   1.3083   1.4474   1.5528   1.6113   1.6602
     1.6922   1.8264   2.0600   2.1313

          k = 0.0261-0.0753 0.0000 ( 22643 PWs)   bands (ev):

   -61.3163 -61.1926 -61.1840 -61.1766 -61.1654 -61.0695 -61.0616 -61.0522
   -60.7831 -60.7744 -60.7663 -60.7188 -29.9702 -29.8780 -29.8569 -29.8278
   -29.8157 -29.8039 -29.7838 -29.7596 -29.7554 -29.7414 -29.7346 -29.7071
   -29.6748 -29.6485 -29.6334 -29.6283 -29.6085 -29.5744 -29.5469 -29.5130
   -29.4946 -29.4742 -29.4670 -29.4118 -29.3775 -29.3556 -29.3330 -29.2893
   -29.2431 -29.2371 -29.2319 -29.2178 -29.1837 -29.1670 -29.1138 -29.0754
    -8.9631  -3.8756  -3.2754  -2.8476  -2.3230  -2.0677  -1.6866  -1.2381
    -0.9878  -0.6373  -0.4871  -0.3693  -0.1677   0.1513   0.2200   0.2855
     0.3750   0.4095   0.5005   0.7207   0.8451   0.8872   1.0002   1.0656
     1.1181   1.1478   1.2404   1.3083   1.4474   1.5529   1.6114   1.6602
     1.6922   1.8265   2.0599   2.1313

          k = 0.0261-0.0452 0.0000 ( 22675 PWs)   bands (ev):

   -61.3165 -61.1996 -61.1786 -61.1749 -61.1656 -61.0736 -61.0571 -61.0523
   -60.7884 -60.7697 -60.7663 -60.7182 -29.9752 -29.9213 -29.9015 -29.8887
   -29.8745 -29.8616 -29.8311 -29.7889 -29.7652 -29.7596 -29.7453 -29.6538
   -29.6480 -29.6415 -29.6222 -29.5828 -29.5460 -29.5444 -29.5209 -29.5068
   -29.4852 -29.4455 -29.4418 -29.4366 -29.4188 -29.3870 -29.3381 -29.2456
   -29.2417 -29.2348 -29.2204 -29.1857 -29.1508 -29.1382 -29.1151 -29.0452
    -8.9734  -4.5313  -3.5612  -2.6616  -2.0780  -2.0302  -1.7051  -1.4117
    -1.2288  -1.0515  -0.8305  -0.5899  -0.4871  -0.1244   0.0014   0.0345
     0.0627   0.2366   0.2634   0.6762   0.8615   0.9329   1.2863   1.3417
     1.4425   1.4750   1.5481   1.5875   1.8652   1.9505   1.9684   2.0740
     2.0815   2.1782   2.2635   2.3173

          k = 0.0521-0.0301 0.0000 ( 22648 PWs)   bands (ev):

   -61.3165 -61.1977 -61.1811 -61.1738 -61.1661 -61.0727 -61.0578 -61.0526
   -60.7870 -60.7710 -60.7662 -60.7184 -29.9735 -29.9106 -29.8918 -29.8787
   -29.8560 -29.8282 -29.8220 -29.7786 -29.7634 -29.7552 -29.7437 -29.6566
   -29.6461 -29.6421 -29.6138 -29.6101 -29.5871 -29.5536 -29.5320 -29.5113
   -29.4685 -29.4610 -29.4468 -29.4229 -29.4208 -29.3770 -29.3377 -29.2444
   -29.2440 -29.2329 -29.2140 -29.2005 -29.1840 -29.1464 -29.1125 -29.0497
    -8.9700  -4.3585  -3.4587  -2.7120  -2.4226  -1.7288  -1.4391  -1.3819
    -1.2855  -0.9569  -0.8608  -0.5174  -0.4025  -0.0005   0.0824   0.1146
     0.1598   0.2881   0.2920   0.7068   0.8522   0.9275   1.1236   1.3242
     1.3530   1.4036   1.4379   1.5138   1.7840   1.8282   1.8771   1.9620
     1.9795   2.0901   2.1326   2.3208

          k = 0.0521 0.0000 0.0000 ( 22675 PWs)   bands (ev):

   -61.3165 -61.1996 -61.1784 -61.1751 -61.1655 -61.0737 -61.0565 -61.0528
   -60.7884 -60.7700 -60.7660 -60.7182 -29.9752 -29.9212 -29.9015 -29.8888
   -29.8744 -29.8617 -29.8311 -29.7890 -29.7651 -29.7598 -29.7453 -29.6537
   -29.6479 -29.6417 -29.6223 -29.5831 -29.5459 -29.5445 -29.5209 -29.5066
   -29.4848 -29.4454 -29.4417 -29.4365 -29.4191 -29.3869 -29.3384 -29.2458
   -29.2416 -29.2346 -29.2204 -29.1857 -29.1508 -29.1381 -29.1151 -29.0453
    -8.9734  -4.5313  -3.5612  -2.6616  -2.0780  -2.0302  -1.7050  -1.4117
    -1.2288  -1.0515  -0.8304  -0.5899  -0.4871  -0.1244   0.0014   0.0345
     0.0627   0.2366   0.2634   0.6762   0.8615   0.9329   1.2863   1.3417
     1.4425   1.4751   1.5481   1.5876   1.8652   1.9504   1.9685   2.0740
     2.0815   2.1782   2.2636   2.3173

          k = 0.0521 0.0301 0.0000 ( 22648 PWs)   bands (ev):

   -61.3165 -61.1977 -61.1807 -61.1743 -61.1659 -61.0727 -61.0576 -61.0528
   -60.7868 -60.7719 -60.7655 -60.7184 -29.9735 -29.9105 -29.8921 -29.8784
   -29.8560 -29.8283 -29.8219 -29.7785 -29.7632 -29.7556 -29.7435 -29.6564
   -29.6462 -29.6423 -29.6135 -29.6104 -29.5871 -29.5536 -29.5321 -29.5113
   -29.4684 -29.4608 -29.4467 -29.4226 -29.4212 -29.3769 -29.3378 -29.2451
   -29.2434 -29.2328 -29.2136 -29.2010 -29.1841 -29.1463 -29.1123 -29.0499
    -8.9700  -4.3585  -3.4587  -2.7119  -2.4226  -1.7287  -1.4391  -1.3818
    -1.2856  -0.9570  -0.8607  -0.5174  -0.4025  -0.0004   0.0824   0.1145
     0.1599   0.2882   0.2919   0.7068   0.8523   0.9275   1.1236   1.3241
     1.3530   1.4037   1.4379   1.5138   1.7839   1.8282   1.8770   1.9620
     1.9795   2.0901   2.1327   2.3209

          k = 0.0521-0.1204 0.0000 ( 22643 PWs)   bands (ev):

   -61.3163 -61.1927 -61.1837 -61.1769 -61.1654 -61.0698 -61.0610 -61.0525
   -60.7828 -60.7750 -60.7660 -60.7188 -29.9702 -29.8778 -29.8569 -29.8278
   -29.8157 -29.8040 -29.7838 -29.7594 -29.7556 -29.7416 -29.7346 -29.7071
   -29.6744 -29.6488 -29.6336 -29.6285 -29.6084 -29.5745 -29.5472 -29.5130
   -29.4942 -29.4742 -29.4666 -29.4118 -29.3775 -29.3559 -29.3329 -29.2895
   -29.2433 -29.2369 -29.2317 -29.2177 -29.1837 -29.1670 -29.1137 -29.0755
    -8.9631  -3.8756  -3.2753  -2.8476  -2.3230  -2.0677  -1.6867  -1.2381
    -0.9877  -0.6373  -0.4871  -0.3693  -0.1678   0.1514   0.2199   0.2855
     0.3750   0.4096   0.5005   0.7206   0.8452   0.8872   1.0003   1.0656
     1.1180   1.1477   1.2404   1.3083   1.4474   1.5529   1.6113   1.6602
     1.6922   1.8264   2.0600   2.1313

          k = 0.0521-0.0903 0.0000 ( 22614 PWs)   bands (ev):

   -61.3162 -61.1872 -61.1866 -61.1800 -61.1648 -61.0659 -61.0652 -61.0523
   -60.7788 -60.7780 -60.7669 -60.7189 -29.9686 -29.8305 -29.8254 -29.7996
   -29.7896 -29.7869 -29.7861 -29.7793 -29.7324 -29.7319 -29.7295 -29.7281
   -29.7040 -29.6854 -29.6465 -29.6257 -29.6102 -29.5972 -29.5255 -29.5217
   -29.5198 -29.4753 -29.4716 -29.3994 -29.3635 -29.3485 -29.3132 -29.3006
   -29.2962 -29.2415 -29.2362 -29.2261 -29.1827 -29.1274 -29.1185 -29.1180
    -8.9598  -3.4475  -3.0088  -3.0001  -2.7188  -1.9030  -1.8791  -1.4210
    -0.6001  -0.4916  -0.1164  -0.0319  -0.0233  -0.0167   0.0933   0.3222
     0.5338   0.5531   0.6220   0.6770   0.7836   0.8719   0.8791   0.9057
     0.9292   1.0479   1.0985   1.3347   1.3488   1.3550   1.4844   1.5035
     1.5842   1.6213   1.8721   2.0693

          k = 0.0521-0.0602 0.0000 ( 22643 PWs)   bands (ev):

   -61.3163 -61.1926 -61.1842 -61.1764 -61.1655 -61.0697 -61.0611 -61.0524
   -60.7832 -60.7740 -60.7666 -60.7187 -29.9702 -29.8779 -29.8568 -29.8279
   -29.8157 -29.8039 -29.7839 -29.7595 -29.7554 -29.7415 -29.7346 -29.7071
   -29.6745 -29.6487 -29.6335 -29.6284 -29.6084 -29.5745 -29.5473 -29.5130
   -29.4944 -29.4743 -29.4667 -29.4118 -29.3775 -29.3558 -29.3329 -29.2894
   -29.2427 -29.2373 -29.2320 -29.2176 -29.1838 -29.1670 -29.1140 -29.0753
    -8.9631  -3.8756  -3.2754  -2.8475  -2.3230  -2.0677  -1.6866  -1.2381
    -0.9878  -0.6373  -0.4871  -0.3692  -0.1677   0.1513   0.2199   0.2855
     0.3750   0.4095   0.5005   0.7207   0.8451   0.8872   1.0002   1.0656
     1.1181   1.1478   1.2404   1.3083   1.4474   1.5529   1.6114   1.6602
     1.6921   1.8265   2.0599   2.1313

          k =-0.0782 0.0452 0.0000 ( 22668 PWs)   bands (ev):

   -61.3163 -61.1909 -61.1875 -61.1738 -61.1664 -61.0700 -61.0607 -61.0526
   -60.7830 -60.7747 -60.7662 -60.7188 -29.9702 -29.8877 -29.8595 -29.8485
   -29.8082 -29.7979 -29.7708 -29.7626 -29.7485 -29.7377 -29.6965 -29.6958
   -29.6637 -29.6634 -29.6522 -29.6397 -29.6252 -29.5806 -29.5491 -29.5296
   -29.4824 -29.4762 -29.4634 -29.4052 -29.3973 -29.3452 -29.2838 -29.2714
   -29.2619 -29.2408 -29.2303 -29.2275 -29.2179 -29.1825 -29.0906 -29.0723
    -8.9631  -3.6913  -3.4936  -3.0544  -2.3443  -1.8574  -1.2473  -1.2282
    -1.0235  -0.7512  -0.7066  -0.5687  -0.2003   0.1714   0.3434   0.3584
     0.4749   0.4907   0.5923   0.6128   0.8867   0.9264   0.9792   0.9898
     1.0115   1.1177   1.3059   1.3860   1.3927   1.4469   1.6123   1.7476
     1.7868   1.8507   2.0192   2.2001

          k =-0.0782 0.0753 0.0000 ( 22643 PWs)   bands (ev):

   -61.3163 -61.1926 -61.1841 -61.1764 -61.1655 -61.0699 -61.0608 -61.0525
   -60.7832 -60.7741 -60.7665 -60.7187 -29.9702 -29.8779 -29.8568 -29.8279
   -29.8157 -29.8039 -29.7839 -29.7594 -29.7555 -29.7416 -29.7347 -29.7071
   -29.6745 -29.6485 -29.6338 -29.6284 -29.6088 -29.5745 -29.5466 -29.5130
   -29.4943 -29.4743 -29.4668 -29.4118 -29.3775 -29.3558 -29.3329 -29.2896
   -29.2427 -29.2373 -29.2319 -29.2175 -29.1838 -29.1670 -29.1140 -29.0753
    -8.9631  -3.8756  -3.2754  -2.8475  -2.3230  -2.0677  -1.6866  -1.2381
    -0.9878  -0.6373  -0.4871  -0.3692  -0.1677   0.1513   0.2199   0.2856
     0.3750   0.4095   0.5005   0.7207   0.8451   0.8872   1.0003   1.0656
     1.1181   1.1477   1.2404   1.3083   1.4474   1.5529   1.6114   1.6602
     1.6922   1.8264   2.0600   2.1313

          k =-0.0782 0.1054 0.0000 ( 22643 PWs)   bands (ev):

   -61.3163 -61.1927 -61.1838 -61.1768 -61.1654 -61.0699 -61.0607 -61.0526
   -60.7829 -60.7748 -60.7661 -60.7188 -29.9702 -29.8778 -29.8569 -29.8277
   -29.8157 -29.8040 -29.7838 -29.7595 -29.7554 -29.7416 -29.7347 -29.7071
   -29.6744 -29.6487 -29.6338 -29.6284 -29.6087 -29.5745 -29.5467 -29.5130
   -29.4942 -29.4742 -29.4667 -29.4118 -29.3775 -29.3560 -29.3330 -29.2893
   -29.2433 -29.2369 -29.2317 -29.2178 -29.1837 -29.1670 -29.1137 -29.0755
    -8.9631  -3.8756  -3.2753  -2.8476  -2.3230  -2.0677  -1.6867  -1.2381
    -0.9877  -0.6373  -0.4871  -0.3693  -0.1677   0.1514   0.2200   0.2855
     0.3750   0.4095   0.5005   0.7207   0.8451   0.8872   1.0003   1.0656
     1.1180   1.1477   1.2404   1.3083   1.4474   1.5529   1.6114   1.6602
     1.6922   1.8264   2.0600   2.1313

          k =-0.0782-0.0452 0.0000 ( 22668 PWs)   bands (ev):

   -61.3163 -61.1914 -61.1868 -61.1743 -61.1662 -61.0701 -61.0604 -61.0528
   -60.7822 -60.7761 -60.7655 -60.7188 -29.9702 -29.8875 -29.8599 -29.8481
   -29.8083 -29.7980 -29.7706 -29.7627 -29.7490 -29.7375 -29.6967 -29.6954
   -29.6637 -29.6636 -29.6523 -29.6394 -29.6255 -29.5807 -29.5492 -29.5293
   -29.4829 -29.4758 -29.4632 -29.4047 -29.3979 -29.3453 -29.2832 -29.2724
   -29.2613 -29.2414 -29.2303 -29.2269 -29.2180 -29.1826 -29.0899 -29.0729
    -8.9631  -3.6914  -3.4934  -3.0546  -2.3443  -1.8575  -1.2472  -1.2283
    -1.0234  -0.7513  -0.7066  -0.5686  -0.2004   0.1714   0.3436   0.3583
     0.4750   0.4906   0.5922   0.6128   0.8867   0.9266   0.9791   0.9898
     1.0114   1.1177   1.3058   1.3860   1.3927   1.4469   1.6122   1.7475
     1.7868   1.8508   2.0192   2.2001

     the Fermi energy is     1.4309 ev

!    total energy              =   -1939.40374106 Ry
     Harris-Foulkes estimate   =   -1939.40373967 Ry
     estimated scf accuracy    <       0.00000147 Ry

     The total energy is the sum of the following terms:

     one-electron contribution =   -8509.22717445 Ry
     hartree contribution      =    4239.45341782 Ry
     xc contribution           =    -932.03248607 Ry
     ewald contribution        =    3262.51194531 Ry
     electric field correction =       0.00000083 Ry
     smearing contrib. (-TS)   =      -0.10944450 Ry

     convergence has been achieved in  37 iterations
 
 BEEF-vdW xc energy contributions
           1 :   -842.643357253266     
           2 :    783.100704306775     
           3 :   -677.626703854956     
           4 :    548.055600197570     
           5 :   -416.937656475342     
           6 :    301.221065145803     
           7 :   -209.498121855385     
           8 :    142.930685021418     
           9 :   -98.3011083076976     
          10 :    70.9841599887754     
          11 :   -56.4974066725460     
          12 :    50.5814120890818     
          13 :   -48.7883829718701     
          14 :    46.5627509090120     
          15 :   -40.1581917909768     
          16 :    27.8808479278732     
          17 :   -10.8100996287269     
          18 :   -7.61557416271080     
          19 :    23.0570293510229     
          20 :   -32.0863223176759     
          21 :    33.4551506968301     
          22 :   -28.2915493011603     
          23 :    19.3014615039311     
          24 :   -9.56216893015767     
          25 :    1.56105508729354     
          26 :    3.17785670316266     
          27 :   -4.00244197907170     
          28 :   0.933971437395257     
          29 :    5.36588450401996     
          30 :   -13.5032371673576     
          31 :   -60.6950496550928     
          32 :   -43.6463256096297     

     Forces acting on atoms (Ry/au):


     negative rho (up, down):  1.380E+00 0.000E+00
     atom    1 type  1   force =    -0.00046056   -0.00021544    0.02354510
     atom    2 type  1   force =     0.00046079   -0.00032188    0.02362995
     atom    3 type  1   force =    -0.00009096    0.00053211    0.02358335
     atom    4 type  1   force =     0.00009132   -0.00000191    0.02489434
     atom    5 type  1   force =    -0.00004950   -0.00204608   -0.00377521
     atom    6 type  1   force =     0.00004429   -0.00005223   -0.00785839
     atom    7 type  1   force =     0.00172533    0.00107676   -0.00376455
     atom    8 type  1   force =    -0.00172347    0.00102603   -0.00376062
     atom    9 type  1   force =    -0.00012088    0.00002332   -0.02671832
     atom   10 type  1   force =     0.00012423    0.04280139    0.02379919
     atom   11 type  1   force =     0.03704679   -0.02133700    0.02378251
     atom   12 type  1   force =    -0.03704561   -0.02147915    0.02385181
     atom   13 type  2   force =    -0.00000150   -0.00000679   -0.11449070
     atom   14 type  3   force =    -0.00000027    0.00000085   -0.00671846

     Total force =     0.145126     Total SCF correction =     0.001670


     entering subroutine stress ...


     negative rho (up, down):  1.380E+00 0.000E+00
          total   stress  (Ry/bohr**3)                   (kbar)     P=  -27.75
  -0.00016769  -0.00000001   0.00000000        -24.67     -0.00      0.00
  -0.00000001  -0.00016770  -0.00000001         -0.00    -24.67     -0.00
   0.00000000  -0.00000001  -0.00023060          0.00     -0.00    -33.92


     BFGS Geometry Optimization

     number of scf cycles    =   1
     number of bfgs steps    =   0

     energy   new            =   -1939.4037410590 Ry

     new trust radius        =       0.1144907048 bohr
     new conv_thr            =       0.0000099958 Ry


ATOMIC_POSITIONS (crystal)
Hf1      0.166666667   0.166666667   0.396510335    0   0   0
Hf1      0.666666667   0.166666667   0.396510335    0   0   0
Hf1      0.166666667   0.666666667   0.396510335    0   0   0
Hf1      0.666666667   0.666666667   0.396510335    0   0   0
Hf1      0.833333333   0.333333333   0.500000000    0   0   0
Hf1      0.333333333   0.333333333   0.500000000    0   0   0
Hf1      0.833333333   0.833333333   0.500000000    0   0   0
Hf1      0.333333333   0.833333333   0.500000000    0   0   0
Hf1     -0.000011120   0.000002229   0.602929050
Hf1      0.497964873   0.004090819   0.603989030
Hf1      0.004086095   0.497960678   0.603988680
Hf1      0.497960117   0.497947092   0.603990134
C1       0.333333534   0.333332684   0.665778034
H1       0.333333270   0.333333415   0.711655494



     Writing output data file calc.save
     Check: negative starting charge=   -1.301310
     NEW-OLD atomic charge density approx. for the potential

     Check: negative/imaginary core charge=   -0.000003    0.000000
     Check: negative starting charge=   -1.299586

     negative rho (up, down):  1.378E+00 0.000E+00
 
     Adding external electric field

     Computed dipole along edir(3) : 
        Dipole                0.1093 Ry au,          0.2779 Debye
        Dipole field          0.0002 Ry au
 
        Potential amp.       -0.0212 Ry
        Total length         46.4675 bohr
 

     total cpu time spent up to now is      940.4 secs

     Self-consistent Calculation

     iteration #  1     ecut=    36.75 Ry     beta=0.30
     Davidson diagonalization with overlap
     ethr =  1.00E-06,  avg # of iterations = 14.8

     negative rho (up, down):  1.378E+00 0.000E+00
 
     Adding external electric field

     Computed dipole along edir(3) : 
        Dipole               -1.5829 Ry au,         -4.0234 Debye
        Dipole field         -0.0033 Ry au
 
        Potential amp.        0.3069 Ry
        Total length         46.4675 bohr
 

     total cpu time spent up to now is      977.6 secs

     total energy              =   -1939.29923634 Ry
     Harris-Foulkes estimate   =   -1939.42107777 Ry
     estimated scf accuracy    <       0.25442329 Ry

     iteration #  2     ecut=    36.75 Ry     beta=0.30
     Davidson diagonalization with overlap
     ethr =  1.71E-04,  avg # of iterations =  7.5

     negative rho (up, down):  1.378E+00 0.000E+00
 
     Adding external electric field

     Computed dipole along edir(3) : 
        Dipole                0.0333 Ry au,          0.0847 Debye
        Dipole field          0.0001 Ry au
 
        Potential amp.       -0.0065 Ry
        Total length         46.4675 bohr
 

     total cpu time spent up to now is     1003.8 secs

     total energy              =   -1938.11861214 Ry
     Harris-Foulkes estimate   =   -1940.96210443 Ry
     estimated scf accuracy    <     107.60982115 Ry

     iteration #  3     ecut=    36.75 Ry     beta=0.30
     Davidson diagonalization with overlap
     ethr =  1.71E-04,  avg # of iterations =  6.8

     negative rho (up, down):  1.378E+00 0.000E+00
 
     Adding external electric field

     Computed dipole along edir(3) : 
        Dipole                0.0278 Ry au,          0.0706 Debye
        Dipole field          0.0001 Ry au
 
        Potential amp.       -0.0054 Ry
        Total length         46.4675 bohr
 

     total cpu time spent up to now is     1029.8 secs

     total energy              =   -1939.40889283 Ry
     Harris-Foulkes estimate   =   -1939.42669391 Ry
     estimated scf accuracy    <       0.16122570 Ry

     iteration #  4     ecut=    36.75 Ry     beta=0.30
     Davidson diagonalization with overlap
     ethr =  1.08E-04,  avg # of iterations =  3.2

     negative rho (up, down):  1.378E+00 0.000E+00
 
     Adding external electric field

     Computed dipole along edir(3) : 
        Dipole                0.0609 Ry au,          0.1547 Debye
        Dipole field          0.0001 Ry au
 
        Potential amp.       -0.0118 Ry
        Total length         46.4675 bohr
 

     total cpu time spent up to now is     1047.7 secs

     total energy              =   -1939.41808315 Ry
     Harris-Foulkes estimate   =   -1939.41969011 Ry
     estimated scf accuracy    <       0.01502293 Ry

     iteration #  5     ecut=    36.75 Ry     beta=0.30
     Davidson diagonalization with overlap
     ethr =  1.01E-05,  avg # of iterations =  4.7

     negative rho (up, down):  1.378E+00 0.000E+00
 
     Adding external electric field

     Computed dipole along edir(3) : 
        Dipole                0.0523 Ry au,          0.1329 Debye
        Dipole field          0.0001 Ry au
 
        Potential amp.       -0.0101 Ry
        Total length         46.4675 bohr
 

     total cpu time spent up to now is     1067.9 secs

     total energy              =   -1939.41954091 Ry
     Harris-Foulkes estimate   =   -1939.41972762 Ry
     estimated scf accuracy    <       0.00130480 Ry

     iteration #  6     ecut=    36.75 Ry     beta=0.30
     Davidson diagonalization with overlap
     ethr =  8.76E-07,  avg # of iterations =  5.8

     negative rho (up, down):  1.378E+00 0.000E+00
 
     Adding external electric field

     Computed dipole along edir(3) : 
        Dipole                0.0472 Ry au,          0.1199 Debye
        Dipole field          0.0001 Ry au
 
        Potential amp.       -0.0091 Ry
        Total length         46.4675 bohr
 

     total cpu time spent up to now is     1089.1 secs

     total energy              =   -1939.41964256 Ry
     Harris-Foulkes estimate   =   -1939.41968591 Ry
     estimated scf accuracy    <       0.00028787 Ry

     iteration #  7     ecut=    36.75 Ry     beta=0.30
     Davidson diagonalization with overlap
     ethr =  1.93E-07,  avg # of iterations =  4.4

     negative rho (up, down):  1.379E+00 0.000E+00
 
     Adding external electric field

     Computed dipole along edir(3) : 
        Dipole                0.0439 Ry au,          0.1117 Debye
        Dipole field          0.0001 Ry au
 
        Potential amp.       -0.0085 Ry
        Total length         46.4675 bohr
 

     total cpu time spent up to now is     1109.7 secs

     total energy              =   -1939.41967257 Ry
     Harris-Foulkes estimate   =   -1939.41968153 Ry
     estimated scf accuracy    <       0.00011093 Ry

     iteration #  8     ecut=    36.75 Ry     beta=0.30
     Davidson diagonalization with overlap
     ethr =  7.45E-08,  avg # of iterations =  3.5

     negative rho (up, down):  1.379E+00 0.000E+00
 
     Adding external electric field

     Computed dipole along edir(3) : 
        Dipole                0.0424 Ry au,          0.1077 Debye
        Dipole field          0.0001 Ry au
 
        Potential amp.       -0.0082 Ry
        Total length         46.4675 bohr
 

     total cpu time spent up to now is     1129.0 secs

     total energy              =   -1939.41968273 Ry
     Harris-Foulkes estimate   =   -1939.41968572 Ry
     estimated scf accuracy    <       0.00003963 Ry

     iteration #  9     ecut=    36.75 Ry     beta=0.30
     Davidson diagonalization with overlap
     ethr =  2.66E-08,  avg # of iterations =  3.0

     negative rho (up, down):  1.379E+00 0.000E+00
 
     Adding external electric field

     Computed dipole along edir(3) : 
        Dipole                0.0426 Ry au,          0.1082 Debye
        Dipole field          0.0001 Ry au
 
        Potential amp.       -0.0083 Ry
        Total length         46.4675 bohr
 

     total cpu time spent up to now is     1147.0 secs

     total energy              =   -1939.41968573 Ry
     Harris-Foulkes estimate   =   -1939.41968560 Ry
     estimated scf accuracy    <       0.00002071 Ry

     iteration # 10     ecut=    36.75 Ry     beta=0.30
     Davidson diagonalization with overlap
     ethr =  1.39E-08,  avg # of iterations =  3.8

     negative rho (up, down):  1.379E+00 0.000E+00

     negative rho (up, down):  1.379E+00 0.000E+00

     negative rho (up, down):  1.379E+00 0.000E+00

     negative rho (up, down):  1.379E+00 0.000E+00

     negative rho (up, down):  1.379E+00 0.000E+00

     negative rho (up, down):  1.379E+00 0.000E+00

     negative rho (up, down):  1.379E+00 0.000E+00

     negative rho (up, down):  1.379E+00 0.000E+00

     negative rho (up, down):  1.379E+00 0.000E+00

     negative rho (up, down):  1.379E+00 0.000E+00

     negative rho (up, down):  1.379E+00 0.000E+00

     negative rho (up, down):  1.379E+00 0.000E+00

     negative rho (up, down):  1.379E+00 0.000E+00

     negative rho (up, down):  1.379E+00 0.000E+00

     negative rho (up, down):  1.379E+00 0.000E+00

     negative rho (up, down):  1.379E+00 0.000E+00

     negative rho (up, down):  1.379E+00 0.000E+00

     negative rho (up, down):  1.379E+00 0.000E+00

     negative rho (up, down):  1.379E+00 0.000E+00

     negative rho (up, down):  1.379E+00 0.000E+00

     negative rho (up, down):  1.379E+00 0.000E+00

     negative rho (up, down):  1.379E+00 0.000E+00

     negative rho (up, down):  1.379E+00 0.000E+00

     negative rho (up, down):  1.379E+00 0.000E+00

     negative rho (up, down):  1.379E+00 0.000E+00

     negative rho (up, down):  1.379E+00 0.000E+00

     negative rho (up, down):  1.379E+00 0.000E+00

     negative rho (up, down):  1.379E+00 0.000E+00

     negative rho (up, down):  1.379E+00 0.000E+00

     negative rho (up, down):  1.379E+00 0.000E+00

     negative rho (up, down):  1.379E+00 0.000E+00

     negative rho (up, down):  1.379E+00 0.000E+00

     negative rho (up, down):  1.379E+00 0.000E+00

     negative rho (up, down):  1.379E+00 0.000E+00

     negative rho (up, down):  1.379E+00 0.000E+00
 
     Adding external electric field

     Computed dipole along edir(3) : 
        Dipole                0.0310 Ry au,          0.0788 Debye
        Dipole field          0.0001 Ry au
 
        Potential amp.       -0.0060 Ry
        Total length         46.4675 bohr
 

     total cpu time spent up to now is     1186.7 secs

     End of self-consistent calculation

          k = 0.0000 0.0000 0.0000 ( 22729 PWs)   bands (ev):

   -61.2551 -61.1795 -61.1475 -61.1474 -61.1386 -61.0315 -61.0061 -61.0061
   -60.7722 -60.7446 -60.7445 -60.6864 -29.9346 -29.9319 -29.9318 -29.9314
   -29.8964 -29.8964 -29.8282 -29.8089 -29.7461 -29.7459 -29.7250 -29.6219
   -29.5993 -29.5993 -29.5181 -29.5162 -29.5161 -29.4675 -29.4675 -29.4597
   -29.4304 -29.4303 -29.4103 -29.3884 -29.3884 -29.2705 -29.2705 -29.2286
   -29.2231 -29.2229 -29.1575 -29.1369 -29.1096 -29.1096 -28.9953 -28.9953
    -8.8322  -5.0442  -3.9430  -2.9344  -2.1569  -1.7040  -1.7040  -1.5502
    -1.3354  -1.3354  -1.1474  -1.0494  -1.0494  -0.3173  -0.2671  -0.2671
    -0.2364   0.1731   0.1732   0.7104   0.8657   0.8658   1.4589   1.6508
     1.8539   1.8540   1.8604   1.9973   2.2139   2.2139   2.3379   2.4155
     2.6323   2.6324   2.6661   2.7891

          k = 0.0000 0.0301 0.0000 ( 22708 PWs)   bands (ev):

   -61.2550 -61.1772 -61.1491 -61.1475 -61.1392 -61.0301 -61.0076 -61.0061
   -60.7703 -60.7461 -60.7446 -60.6867 -29.9307 -29.9132 -29.9120 -29.8988
   -29.8799 -29.8678 -29.8174 -29.7912 -29.7420 -29.7401 -29.7224 -29.6180
   -29.6032 -29.5993 -29.5382 -29.5371 -29.5083 -29.4886 -29.4663 -29.4436
   -29.4264 -29.4256 -29.4210 -29.4168 -29.3969 -29.3065 -29.2778 -29.2263
   -29.2204 -29.2165 -29.1551 -29.1510 -29.1285 -29.1069 -29.0299 -29.0032
    -8.8227  -4.8536  -3.7902  -2.8259  -2.0336  -1.8578  -1.6020  -1.5285
    -1.3675  -1.2328  -1.0701  -0.8495  -0.8157  -0.2443  -0.1575  -0.1558
    -0.1180   0.1875   0.1955   0.7061   0.8768   0.8812   1.4422   1.5494
     1.7089   1.7723   1.7971   1.8773   2.1349   2.1512   2.2898   2.3549
     2.4035   2.4256   2.4613   2.5406

          k = 0.0000 0.0602 0.0000 ( 22648 PWs)   bands (ev):

   -61.2546 -61.1711 -61.1543 -61.1475 -61.1400 -61.0267 -61.0113 -61.0061
   -60.7654 -60.7502 -60.7446 -60.6875 -29.9223 -29.8682 -29.8647 -29.8412
   -29.8137 -29.7974 -29.7895 -29.7490 -29.7337 -29.7283 -29.7156 -29.6179
   -29.6081 -29.6049 -29.5860 -29.5804 -29.5410 -29.5266 -29.4869 -29.4849
   -29.4255 -29.4214 -29.4202 -29.3944 -29.3907 -29.3499 -29.2931 -29.2226
   -29.2207 -29.2096 -29.1917 -29.1752 -29.1511 -29.1207 -29.0882 -29.0248
    -8.8040  -4.3166  -3.4301  -2.6950  -2.4075  -1.7101  -1.4225  -1.3694
    -1.2607  -0.9509  -0.8458  -0.4897  -0.4277   0.0113   0.0941   0.1390
     0.1808   0.2959   0.3163   0.7438   0.8780   0.9689   1.1470   1.3556
     1.3753   1.4345   1.4717   1.5428   1.8064   1.8584   1.8828   1.9773
     2.0027   2.1114   2.1790   2.3644

          k = 0.0000-0.0903 0.0000 ( 22668 PWs)   bands (ev):

   -61.2545 -61.1646 -61.1606 -61.1475 -61.1403 -61.0241 -61.0141 -61.0061
   -60.7613 -60.7540 -60.7446 -60.6878 -29.9181 -29.8398 -29.8330 -29.8155
   -29.7790 -29.7697 -29.7298 -29.7255 -29.7219 -29.7018 -29.6686 -29.6671
   -29.6345 -29.6319 -29.6180 -29.6031 -29.5899 -29.5397 -29.5055 -29.4843
   -29.4561 -29.4497 -29.4143 -29.3782 -29.3714 -29.3012 -29.2614 -29.2468
   -29.2394 -29.2194 -29.2071 -29.2046 -29.1890 -29.1496 -29.0673 -29.0464
    -8.7949  -3.6513  -3.4647  -3.0387  -2.3230  -1.8436  -1.2276  -1.2128
    -0.9997  -0.7654  -0.6879  -0.5395  -0.2423   0.1352   0.3725   0.3848
     0.5028   0.5216   0.6286   0.6410   0.9208   0.9586   1.0077   1.0233
     1.0376   1.1605   1.3360   1.4108   1.4266   1.4783   1.6106   1.7595
     1.8229   1.8614   2.0714   2.2445

          k = 0.0261-0.0151 0.0000 ( 22708 PWs)   bands (ev):

   -61.2550 -61.1772 -61.1491 -61.1475 -61.1392 -61.0301 -61.0076 -61.0061
   -60.7703 -60.7461 -60.7445 -60.6867 -29.9307 -29.9132 -29.9120 -29.8988
   -29.8799 -29.8678 -29.8174 -29.7912 -29.7420 -29.7401 -29.7224 -29.6180
   -29.6032 -29.5993 -29.5382 -29.5371 -29.5083 -29.4886 -29.4663 -29.4435
   -29.4264 -29.4257 -29.4210 -29.4168 -29.3969 -29.3065 -29.2778 -29.2263
   -29.2204 -29.2165 -29.1551 -29.1510 -29.1286 -29.1069 -29.0299 -29.0032
    -8.8227  -4.8536  -3.7902  -2.8259  -2.0336  -1.8578  -1.6020  -1.5285
    -1.3675  -1.2328  -1.0702  -0.8495  -0.8157  -0.2443  -0.1575  -0.1558
    -0.1180   0.1875   0.1955   0.7061   0.8768   0.8812   1.4422   1.5494
     1.7089   1.7723   1.7971   1.8773   2.1348   2.1513   2.2898   2.3550
     2.4035   2.4256   2.4613   2.5406

          k = 0.0261 0.0151 0.0000 ( 22708 PWs)   bands (ev):

   -61.2550 -61.1772 -61.1492 -61.1474 -61.1392 -61.0301 -61.0076 -61.0061
   -60.7703 -60.7460 -60.7446 -60.6867 -29.9307 -29.9132 -29.9119 -29.8989
   -29.8800 -29.8678 -29.8174 -29.7912 -29.7421 -29.7400 -29.7224 -29.6180
   -29.6032 -29.5993 -29.5382 -29.5372 -29.5083 -29.4886 -29.4663 -29.4436
   -29.4264 -29.4256 -29.4210 -29.4169 -29.3969 -29.3065 -29.2777 -29.2262
   -29.2205 -29.2165 -29.1551 -29.1511 -29.1285 -29.1069 -29.0299 -29.0032
    -8.8227  -4.8536  -3.7902  -2.8259  -2.0336  -1.8578  -1.6020  -1.5285
    -1.3675  -1.2328  -1.0701  -0.8495  -0.8157  -0.2443  -0.1575  -0.1558
    -0.1180   0.1876   0.1954   0.7061   0.8768   0.8812   1.4422   1.5494
     1.7089   1.7723   1.7971   1.8773   2.1349   2.1512   2.2898   2.3549
     2.4036   2.4256   2.4613   2.5406

          k = 0.0261 0.0452 0.0000 ( 22675 PWs)   bands (ev):

   -61.2547 -61.1731 -61.1518 -61.1485 -61.1396 -61.0277 -61.0104 -61.0060
   -60.7669 -60.7487 -60.7448 -60.6873 -29.9244 -29.8872 -29.8599 -29.8534
   -29.8440 -29.8185 -29.8021 -29.7577 -29.7380 -29.7324 -29.7178 -29.6140
   -29.6110 -29.6074 -29.5895 -29.5360 -29.5195 -29.5172 -29.4944 -29.4609
   -29.4388 -29.4183 -29.4153 -29.4046 -29.3935 -29.3490 -29.2941 -29.2233
   -29.2187 -29.2112 -29.1972 -29.1524 -29.1276 -29.1130 -29.0895 -29.0204
    -8.8086  -4.4884  -3.5283  -2.6592  -2.0598  -2.0039  -1.6806  -1.4023
    -1.2224  -1.0325  -0.8137  -0.5838  -0.4826  -0.0908   0.0088   0.0632
     0.0869   0.2352   0.2687   0.7134   0.8950   0.9585   1.3119   1.3660
     1.4715   1.5063   1.5775   1.6215   1.8821   1.9704   1.9871   2.0887
     2.1117   2.2133   2.2875   2.3483

          k = 0.0261-0.1054 0.0000 ( 22643 PWs)   bands (ev):

   -61.2544 -61.1661 -61.1574 -61.1501 -61.1393 -61.0240 -61.0143 -61.0060
   -60.7617 -60.7532 -60.7450 -60.6878 -29.9182 -29.8377 -29.8187 -29.7979
   -29.7829 -29.7696 -29.7457 -29.7321 -29.7281 -29.7129 -29.7037 -29.6802
   -29.6358 -29.6140 -29.5964 -29.5903 -29.5678 -29.5462 -29.5046 -29.4864
   -29.4492 -29.4472 -29.4202 -29.3846 -29.3505 -29.3156 -29.3075 -29.2649
   -29.2209 -29.2132 -29.2084 -29.1944 -29.1512 -29.1408 -29.0897 -29.0502
    -8.7949  -3.8365  -3.2541  -2.8224  -2.3064  -2.0451  -1.6711  -1.2263
    -0.9691  -0.6415  -0.4723  -0.3603  -0.1827   0.1311   0.2406   0.3096
     0.3984   0.4356   0.5379   0.7623   0.8751   0.9158   1.0277   1.0975
     1.1515   1.1721   1.2685   1.3308   1.4735   1.5542   1.6303   1.6971
     1.7212   1.8657   2.0921   2.1824

          k = 0.0261-0.0753 0.0000 ( 22643 PWs)   bands (ev):

   -61.2544 -61.1661 -61.1573 -61.1502 -61.1393 -61.0240 -61.0143 -61.0060
   -60.7617 -60.7532 -60.7450 -60.6878 -29.9182 -29.8377 -29.8187 -29.7979
   -29.7830 -29.7696 -29.7457 -29.7320 -29.7281 -29.7129 -29.7037 -29.6802
   -29.6358 -29.6140 -29.5964 -29.5903 -29.5678 -29.5462 -29.5045 -29.4864
   -29.4492 -29.4472 -29.4202 -29.3846 -29.3505 -29.3156 -29.3075 -29.2649
   -29.2209 -29.2132 -29.2084 -29.1943 -29.1512 -29.1409 -29.0897 -29.0502
    -8.7949  -3.8365  -3.2541  -2.8224  -2.3064  -2.0451  -1.6711  -1.2263
    -0.9691  -0.6415  -0.4723  -0.3603  -0.1827   0.1311   0.2406   0.3096
     0.3984   0.4355   0.5379   0.7623   0.8751   0.9158   1.0277   1.0975
     1.1514   1.1721   1.2685   1.3308   1.4735   1.5541   1.6302   1.6971
     1.7212   1.8657   2.0920   2.1824

          k = 0.0261-0.0452 0.0000 ( 22675 PWs)   bands (ev):

   -61.2547 -61.1731 -61.1517 -61.1487 -61.1395 -61.0277 -61.0103 -61.0060
   -60.7669 -60.7488 -60.7447 -60.6873 -29.9244 -29.8872 -29.8599 -29.8535
   -29.8440 -29.8185 -29.8021 -29.7577 -29.7379 -29.7325 -29.7178 -29.6140
   -29.6110 -29.6075 -29.5895 -29.5360 -29.5195 -29.5173 -29.4944 -29.4609
   -29.4388 -29.4183 -29.4153 -29.4045 -29.3936 -29.3490 -29.2941 -29.2234
   -29.2187 -29.2112 -29.1972 -29.1524 -29.1276 -29.1129 -29.0895 -29.0204
    -8.8086  -4.4884  -3.5283  -2.6592  -2.0598  -2.0039  -1.6806  -1.4023
    -1.2224  -1.0325  -0.8137  -0.5838  -0.4826  -0.0908   0.0088   0.0632
     0.0869   0.2352   0.2687   0.7134   0.8950   0.9585   1.3119   1.3660
     1.4715   1.5063   1.5775   1.6215   1.8820   1.9704   1.9871   2.0887
     2.1117   2.2134   2.2876   2.3482

          k = 0.0521-0.0301 0.0000 ( 22648 PWs)   bands (ev):

   -61.2546 -61.1712 -61.1543 -61.1475 -61.1400 -61.0267 -61.0114 -61.0061
   -60.7654 -60.7503 -60.7445 -60.6875 -29.9223 -29.8682 -29.8648 -29.8412
   -29.8137 -29.7974 -29.7895 -29.7490 -29.7337 -29.7283 -29.7156 -29.6179
   -29.6081 -29.6049 -29.5859 -29.5804 -29.5410 -29.5266 -29.4869 -29.4849
   -29.4255 -29.4214 -29.4202 -29.3944 -29.3907 -29.3499 -29.2931 -29.2227
   -29.2207 -29.2096 -29.1916 -29.1753 -29.1511 -29.1207 -29.0881 -29.0248
    -8.8040  -4.3166  -3.4301  -2.6950  -2.4075  -1.7101  -1.4224  -1.3694
    -1.2607  -0.9509  -0.8458  -0.4897  -0.4277   0.0113   0.0941   0.1390
     0.1808   0.2959   0.3163   0.7438   0.8780   0.9689   1.1470   1.3556
     1.3753   1.4345   1.4717   1.5428   1.8064   1.8584   1.8829   1.9774
     2.0026   2.1113   2.1790   2.3644

          k = 0.0521 0.0000 0.0000 ( 22675 PWs)   bands (ev):

   -61.2547 -61.1731 -61.1518 -61.1486 -61.1396 -61.0277 -61.0104 -61.0060
   -60.7669 -60.7488 -60.7447 -60.6873 -29.9244 -29.8872 -29.8599 -29.8535
   -29.8440 -29.8185 -29.8021 -29.7577 -29.7379 -29.7324 -29.7178 -29.6140
   -29.6110 -29.6075 -29.5895 -29.5360 -29.5195 -29.5172 -29.4944 -29.4609
   -29.4388 -29.4183 -29.4153 -29.4045 -29.3936 -29.3490 -29.2941 -29.2234
   -29.2187 -29.2112 -29.1972 -29.1524 -29.1276 -29.1129 -29.0895 -29.0204
    -8.8086  -4.4884  -3.5283  -2.6592  -2.0598  -2.0039  -1.6806  -1.4023
    -1.2224  -1.0325  -0.8137  -0.5838  -0.4826  -0.0908   0.0088   0.0632
[...]

          k = 0.0261 0.0151 0.0000 ( 22708 PWs)   bands (ev):

   -61.1059 -61.0773 -61.0756 -61.0703 -60.9544 -60.7641 -60.7407 -60.7391
   -60.5773 -60.5533 -60.5518 -60.5058 -29.8376 -29.8339 -29.8212 -29.7652
   -29.6948 -29.6623 -29.6612 -29.6553 -29.6503 -29.6250 -29.5878 -29.4672
   -29.4671 -29.4568 -29.4362 -29.4356 -29.4334 -29.3532 -29.3248 -29.2666
   -29.2420 -29.2288 -29.2126 -29.2090 -29.1911 -29.0841 -29.0547 -29.0288
   -29.0133 -29.0069 -28.9746 -28.9652 -28.9452 -28.9238 -28.8502 -28.8235
    -9.2815  -4.8294  -3.8642  -2.8990  -1.9998  -1.8553  -1.7198  -1.5428
    -1.3429  -1.2441  -1.0265  -0.8655  -0.7932  -0.1731  -0.1576  -0.1312
     0.1267   0.1562   0.1866   0.7497   0.9363   0.9454   1.5491   1.6859
     1.7631   1.8314   1.8556   2.0280   2.2258   2.2543   2.4102   2.4758
     2.5596   2.5823   2.6257   2.6920

          k = 0.0261 0.0452 0.0000 ( 22675 PWs)   bands (ev):

   -61.1017 -61.0799 -61.0773 -61.0702 -60.9541 -60.7616 -60.7436 -60.7390
   -60.5739 -60.5559 -60.5520 -60.5064 -29.8106 -29.7771 -29.7748 -29.7477
   -29.6854 -29.6624 -29.6551 -29.6365 -29.6289 -29.5944 -29.5511 -29.5302
   -29.4541 -29.4495 -29.4431 -29.4276 -29.4229 -29.4137 -29.3427 -29.3135
   -29.2377 -29.2210 -29.2062 -29.1942 -29.1917 -29.1296 -29.0690 -29.0261
   -29.0209 -29.0033 -29.0008 -28.9713 -28.9432 -28.9296 -28.9087 -28.8406
    -9.2608  -4.4801  -3.6406  -2.6976  -2.1050  -1.9640  -1.5928  -1.4508
    -1.2897  -0.9894  -0.8420  -0.5886  -0.4725  -0.0441  -0.0091   0.0734
     0.2142   0.2215   0.3497   0.7612   0.9620   1.0084   1.4157   1.5042
     1.5226   1.5702   1.6130   1.7041   1.9091   1.9979   2.0587   2.1812
     2.2023   2.3300   2.3702   2.5648

          k = 0.0261-0.1054 0.0000 ( 22643 PWs)   bands (ev):

   -61.0945 -61.0859 -61.0790 -61.0696 -60.9537 -60.7578 -60.7478 -60.7389
   -60.5686 -60.5603 -60.5523 -60.5070 -29.7606 -29.7293 -29.7202 -29.6943
   -29.6699 -29.6596 -29.6533 -29.6350 -29.6107 -29.5834 -29.5439 -29.5245
   -29.4995 -29.4781 -29.4380 -29.4162 -29.4125 -29.4020 -29.3751 -29.3632
   -29.2907 -29.2380 -29.1983 -29.1780 -29.1427 -29.1185 -29.0958 -29.0679
   -29.0259 -29.0155 -29.0054 -28.9914 -28.9690 -28.9578 -28.9071 -28.8702
    -9.2403  -3.8952  -3.3738  -2.8003  -2.2935  -2.0252  -1.6403  -1.2511
    -0.9223  -0.7358  -0.4940  -0.3493  -0.1700   0.0343   0.2795   0.3353
     0.4121   0.5014   0.6218   0.8062   0.9044   1.0015   1.0564   1.1836
     1.2179   1.2556   1.3352   1.4142   1.5532   1.5694   1.7091   1.7744
     1.8145   1.9463   2.1650   2.2777

          k = 0.0261-0.0753 0.0000 ( 22643 PWs)   bands (ev):

   -61.0945 -61.0859 -61.0790 -61.0696 -60.9537 -60.7578 -60.7479 -60.7389
   -60.5686 -60.5603 -60.5523 -60.5070 -29.7606 -29.7293 -29.7202 -29.6943
   -29.6699 -29.6596 -29.6533 -29.6350 -29.6107 -29.5834 -29.5439 -29.5245
   -29.4995 -29.4781 -29.4380 -29.4162 -29.4125 -29.4020 -29.3751 -29.3632
   -29.2907 -29.2380 -29.1983 -29.1780 -29.1427 -29.1185 -29.0958 -29.0679
   -29.0259 -29.0155 -29.0054 -28.9914 -28.9690 -28.9578 -28.9071 -28.8702
    -9.2403  -3.8952  -3.3738  -2.8003  -2.2936  -2.0251  -1.6403  -1.2511
    -0.9223  -0.7358  -0.4940  -0.3493  -0.1700   0.0343   0.2795   0.3353
     0.4121   0.5014   0.6218   0.8061   0.9044   1.0015   1.0564   1.1836
     1.2179   1.2556   1.3352   1.4142   1.5532   1.5694   1.7091   1.7744
     1.8145   1.9463   2.1650   2.2777

          k = 0.0261-0.0452 0.0000 ( 22675 PWs)   bands (ev):

   -61.1017 -61.0799 -61.0773 -61.0702 -60.9541 -60.7616 -60.7436 -60.7390
   -60.5739 -60.5559 -60.5520 -60.5064 -29.8106 -29.7771 -29.7748 -29.7477
   -29.6854 -29.6624 -29.6551 -29.6365 -29.6289 -29.5944 -29.5511 -29.5302
   -29.4541 -29.4495 -29.4431 -29.4276 -29.4229 -29.4137 -29.3427 -29.3135
   -29.2376 -29.2210 -29.2062 -29.1942 -29.1917 -29.1296 -29.0690 -29.0261
   -29.0209 -29.0033 -29.0008 -28.9713 -28.9432 -28.9296 -28.9087 -28.8406
    -9.2608  -4.4801  -3.6406  -2.6976  -2.1050  -1.9640  -1.5928  -1.4508
    -1.2897  -0.9894  -0.8420  -0.5886  -0.4726  -0.0441  -0.0091   0.0734
     0.2143   0.2215   0.3497   0.7612   0.9620   1.0083   1.4157   1.5042
     1.5226   1.5702   1.6130   1.7041   1.9091   1.9979   2.0587   2.1812
     2.2023   2.3300   2.3702   2.5647

          k = 0.0521-0.0301 0.0000 ( 22648 PWs)   bands (ev):

   -61.0997 -61.0828 -61.0756 -61.0709 -60.9540 -60.7606 -60.7447 -60.7391
   -60.5724 -60.5574 -60.5518 -60.5066 -29.7906 -29.7865 -29.7415 -29.7302
   -29.6827 -29.6655 -29.6503 -29.6367 -29.6225 -29.5764 -29.5335 -29.5181
   -29.5144 -29.4624 -29.4327 -29.4211 -29.4200 -29.4122 -29.3481 -29.3229
   -29.2681 -29.2173 -29.2024 -29.1801 -29.1763 -29.1493 -29.0657 -29.0262
   -29.0229 -29.0027 -28.9959 -28.9887 -28.9708 -28.9388 -28.9051 -28.8447
    -9.2539  -4.3190  -3.5592  -2.7111  -2.3753  -1.7151  -1.4613  -1.3964
    -1.1733  -1.0005  -0.8453  -0.5055  -0.4111  -0.0489   0.1291   0.1627
     0.2673   0.3053   0.4090   0.7989   0.9375   1.0214   1.2684   1.3968
     1.4801   1.4821   1.5430   1.6135   1.8612   1.8856   1.9054   2.0531
     2.0871   2.2090   2.2924   2.5157

          k = 0.0521 0.0000 0.0000 ( 22675 PWs)   bands (ev):

   -61.1017 -61.0799 -61.0773 -61.0702 -60.9541 -60.7616 -60.7436 -60.7390
   -60.5739 -60.5559 -60.5520 -60.5064 -29.8106 -29.7771 -29.7748 -29.7477
   -29.6854 -29.6624 -29.6551 -29.6365 -29.6289 -29.5944 -29.5511 -29.5302
   -29.4541 -29.4495 -29.4431 -29.4276 -29.4229 -29.4137 -29.3427 -29.3135
   -29.2376 -29.2210 -29.2062 -29.1942 -29.1917 -29.1296 -29.0690 -29.0261
   -29.0209 -29.0033 -29.0008 -28.9713 -28.9432 -28.9296 -28.9087 -28.8406
    -9.2608  -4.4801  -3.6406  -2.6976  -2.1050  -1.9640  -1.5928  -1.4508
    -1.2897  -0.9894  -0.8420  -0.5886  -0.4726  -0.0441  -0.0091   0.0734
     0.2143   0.2215   0.3497   0.7612   0.9620   1.0084   1.4157   1.5042
     1.5226   1.5702   1.6130   1.7041   1.9091   1.9979   2.0587   2.1812
     2.2023   2.3300   2.3702   2.5647

          k = 0.0521 0.0301 0.0000 ( 22648 PWs)   bands (ev):

   -61.0997 -61.0828 -61.0756 -61.0709 -60.9540 -60.7606 -60.7446 -60.7391
   -60.5724 -60.5574 -60.5518 -60.5066 -29.7906 -29.7865 -29.7415 -29.7302
   -29.6827 -29.6655 -29.6503 -29.6367 -29.6225 -29.5764 -29.5335 -29.5181
   -29.5144 -29.4624 -29.4327 -29.4211 -29.4200 -29.4122 -29.3481 -29.3229
   -29.2681 -29.2173 -29.2024 -29.1801 -29.1762 -29.1493 -29.0657 -29.0262
   -29.0229 -29.0027 -28.9959 -28.9887 -28.9708 -28.9388 -28.9051 -28.8447
    -9.2539  -4.3190  -3.5592  -2.7111  -2.3753  -1.7150  -1.4613  -1.3964
    -1.1733  -1.0005  -0.8453  -0.5055  -0.4111  -0.0489   0.1291   0.1627
     0.2673   0.3053   0.4090   0.7989   0.9375   1.0214   1.2684   1.3968
     1.4801   1.4821   1.5430   1.6135   1.8612   1.8857   1.9054   2.0531
     2.0871   2.2090   2.2924   2.5157

          k = 0.0521-0.1204 0.0000 ( 22643 PWs)   bands (ev):

   -61.0945 -61.0859 -61.0790 -61.0696 -60.9537 -60.7578 -60.7478 -60.7390
   -60.5686 -60.5603 -60.5523 -60.5070 -29.7606 -29.7293 -29.7202 -29.6943
   -29.6699 -29.6596 -29.6533 -29.6350 -29.6107 -29.5834 -29.5439 -29.5245
   -29.4995 -29.4781 -29.4380 -29.4162 -29.4125 -29.4020 -29.3751 -29.3632
   -29.2907 -29.2380 -29.1983 -29.1779 -29.1427 -29.1185 -29.0958 -29.0679
   -29.0259 -29.0155 -29.0054 -28.9914 -28.9690 -28.9578 -28.9071 -28.8702
    -9.2403  -3.8952  -3.3738  -2.8003  -2.2936  -2.0252  -1.6403  -1.2511
    -0.9223  -0.7358  -0.4940  -0.3493  -0.1700   0.0343   0.2795   0.3353
     0.4121   0.5014   0.6218   0.8062   0.9044   1.0015   1.0564   1.1836
     1.2179   1.2556   1.3352   1.4142   1.5532   1.5694   1.7091   1.7744
     1.8145   1.9463   2.1650   2.2777

          k = 0.0521-0.0903 0.0000 ( 22614 PWs)   bands (ev):

   -61.0884 -61.0884 -61.0836 -61.0687 -60.9536 -60.7550 -60.7509 -60.7388
   -60.5641 -60.5641 -60.5529 -60.5071 -29.7072 -29.7024 -29.6893 -29.6883
   -29.6867 -29.6643 -29.6336 -29.6319 -29.6293 -29.6264 -29.5340 -29.5300
   -29.4970 -29.4425 -29.4252 -29.4211 -29.4185 -29.4097 -29.3819 -29.3608
   -29.3587 -29.2151 -29.1994 -29.1582 -29.1566 -29.0996 -29.0957 -29.0797
   -29.0733 -29.0259 -28.9992 -28.9927 -28.9693 -28.9203 -28.9139 -28.9117
    -9.2336  -3.6207  -2.9906  -2.9442  -2.6559  -1.9312  -1.8083  -1.3183
    -0.7421  -0.5329  -0.1331  -0.0701  -0.0615   0.1377   0.1939   0.2437
     0.5397   0.6410   0.7255   0.7360   0.8793   0.9442   0.9572   0.9728
     1.0169   1.1251   1.1592   1.4588   1.5009   1.5111   1.5532   1.6300
     1.6998   1.7225   2.0025   2.1997

          k = 0.0521-0.0602 0.0000 ( 22643 PWs)   bands (ev):

   -61.0945 -61.0859 -61.0791 -61.0696 -60.9537 -60.7578 -60.7479 -60.7389
   -60.5686 -60.5603 -60.5523 -60.5070 -29.7606 -29.7293 -29.7202 -29.6943
   -29.6699 -29.6596 -29.6533 -29.6350 -29.6107 -29.5834 -29.5439 -29.5245
   -29.4994 -29.4781 -29.4380 -29.4162 -29.4125 -29.4020 -29.3751 -29.3631
   -29.2907 -29.2380 -29.1983 -29.1780 -29.1427 -29.1185 -29.0958 -29.0679
   -29.0259 -29.0155 -29.0054 -28.9914 -28.9690 -28.9578 -28.9071 -28.8702
    -9.2403  -3.8952  -3.3738  -2.8003  -2.2935  -2.0252  -1.6403  -1.2511
    -0.9223  -0.7358  -0.4940  -0.3493  -0.1700   0.0343   0.2795   0.3353
     0.4121   0.5014   0.6218   0.8062   0.9044   1.0015   1.0564   1.1836
     1.2180   1.2556   1.3352   1.4142   1.5532   1.5694   1.7091   1.7744
     1.8145   1.9463   2.1650   2.2777

          k =-0.0782 0.0452 0.0000 ( 22668 PWs)   bands (ev):

   -61.0927 -61.0897 -61.0756 -61.0711 -60.9537 -60.7579 -60.7476 -60.7391
   -60.5682 -60.5613 -60.5518 -60.5070 -29.7589 -29.7542 -29.7173 -29.6993
   -29.6680 -29.6463 -29.6413 -29.6013 -29.5957 -29.5908 -29.5516 -29.5511
   -29.5246 -29.4831 -29.4370 -29.4149 -29.4142 -29.3834 -29.3773 -29.3339
   -29.2936 -29.2841 -29.1804 -29.1719 -29.1621 -29.0756 -29.0746 -29.0602
   -29.0520 -29.0237 -29.0105 -29.0009 -28.9901 -28.9680 -28.8834 -28.8670
    -9.2403  -3.7892  -3.4482  -3.0662  -2.2982  -1.8008  -1.2908  -1.2338
    -0.9306  -0.8779  -0.6480  -0.4275  -0.3305   0.0019   0.3909   0.4057
     0.5338   0.5918   0.6985   0.7232   0.9559   1.0233   1.0301   1.0891
     1.1241   1.2533   1.4325   1.4642   1.4998   1.5396   1.7064   1.8197
     1.8740   1.8913   2.0988   2.4798

          k =-0.0782 0.0753 0.0000 ( 22643 PWs)   bands (ev):

   -61.0945 -61.0859 -61.0791 -61.0696 -60.9537 -60.7578 -60.7479 -60.7389
   -60.5686 -60.5603 -60.5523 -60.5070 -29.7606 -29.7293 -29.7202 -29.6943
   -29.6699 -29.6596 -29.6533 -29.6350 -29.6107 -29.5834 -29.5439 -29.5245
   -29.4994 -29.4781 -29.4380 -29.4162 -29.4125 -29.4020 -29.3751 -29.3632
   -29.2907 -29.2380 -29.1983 -29.1780 -29.1427 -29.1185 -29.0958 -29.0679
   -29.0259 -29.0155 -29.0054 -28.9914 -28.9690 -28.9578 -28.9071 -28.8702
    -9.2403  -3.8952  -3.3738  -2.8003  -2.2935  -2.0252  -1.6403  -1.2511
    -0.9223  -0.7358  -0.4940  -0.3493  -0.1700   0.0343   0.2795   0.3353
     0.4121   0.5014   0.6218   0.8062   0.9044   1.0015   1.0564   1.1836
     1.2180   1.2556   1.3352   1.4142   1.5532   1.5694   1.7091   1.7744
     1.8145   1.9463   2.1650   2.2777

          k =-0.0782 0.1054 0.0000 ( 22643 PWs)   bands (ev):

   -61.0945 -61.0859 -61.0791 -61.0696 -60.9537 -60.7578 -60.7478 -60.7390
   -60.5686 -60.5603 -60.5523 -60.5070 -29.7606 -29.7293 -29.7202 -29.6943
   -29.6699 -29.6596 -29.6533 -29.6350 -29.6107 -29.5834 -29.5439 -29.5245
   -29.4995 -29.4781 -29.4380 -29.4162 -29.4125 -29.4020 -29.3751 -29.3632
   -29.2907 -29.2380 -29.1982 -29.1780 -29.1427 -29.1185 -29.0958 -29.0679
   -29.0259 -29.0155 -29.0054 -28.9914 -28.9690 -28.9578 -28.9071 -28.8702
    -9.2403  -3.8952  -3.3738  -2.8003  -2.2936  -2.0251  -1.6403  -1.2511
    -0.9223  -0.7358  -0.4940  -0.3493  -0.1700   0.0343   0.2795   0.3353
     0.4121   0.5014   0.6218   0.8061   0.9044   1.0015   1.0564   1.1836
     1.2179   1.2556   1.3352   1.4142   1.5532   1.5694   1.7091   1.7744
     1.8145   1.9463   2.1650   2.2777

          k =-0.0782-0.0452 0.0000 ( 22668 PWs)   bands (ev):

   -61.0927 -61.0897 -61.0756 -61.0711 -60.9537 -60.7580 -60.7475 -60.7391
   -60.5682 -60.5612 -60.5518 -60.5070 -29.7588 -29.7542 -29.7173 -29.6993
   -29.6680 -29.6463 -29.6413 -29.6013 -29.5957 -29.5908 -29.5516 -29.5511
   -29.5246 -29.4832 -29.4370 -29.4149 -29.4142 -29.3834 -29.3773 -29.3339
   -29.2936 -29.2841 -29.1804 -29.1719 -29.1621 -29.0757 -29.0746 -29.0601
   -29.0520 -29.0237 -29.0105 -29.0009 -28.9901 -28.9680 -28.8834 -28.8670
    -9.2403  -3.7892  -3.4482  -3.0662  -2.2982  -1.8008  -1.2908  -1.2338
    -0.9306  -0.8779  -0.6480  -0.4275  -0.3306   0.0019   0.3909   0.4057
     0.5339   0.5918   0.6985   0.7232   0.9559   1.0233   1.0301   1.0891
     1.1241   1.2533   1.4325   1.4642   1.4998   1.5396   1.7064   1.8198
     1.8740   1.8913   2.0988   2.4798

     the Fermi energy is     1.5315 ev

!    total energy              =   -1939.46558696 Ry
     Harris-Foulkes estimate   =   -1939.46558707 Ry
     estimated scf accuracy    <       0.00000008 Ry

     The total energy is the sum of the following terms:

     one-electron contribution =   -8726.51285838 Ry
     hartree contribution      =    4349.07239719 Ry
     xc contribution           =    -932.51068593 Ry
     ewald contribution        =    3370.59502186 Ry
     electric field correction =       0.00003253 Ry
     smearing contrib. (-TS)   =      -0.10949422 Ry

     convergence has been achieved in  10 iterations
 
 BEEF-vdW xc energy contributions
           1 :   -843.117816159224     
           2 :    783.694278894220     
           3 :   -678.331709796054     
           4 :    548.725094380008     
           5 :   -417.381887452466     
           6 :    301.333717054035     
           7 :   -209.325827613729     
           8 :    142.639952680950     
           9 :   -98.0682872847959     
          10 :    70.8885333388287     
          11 :   -56.4889605409317     
          12 :    50.5398055734504     
          13 :   -48.6263606844757     
          14 :    46.2988921114876     
          15 :   -39.9077828583681     
          16 :    27.7745623692366     
          17 :   -10.9014240512374     
          18 :   -7.38767907322813     
          19 :    22.8254308635645     
          20 :   -31.9652002707786     
          21 :    33.4677062364012     
          22 :   -28.3657547517098     
          23 :    19.3323438428827     
          24 :   -9.49215219841903     
          25 :    1.41880322048382     
          26 :    3.30692097978795     
          27 :   -4.04834335268811     
          28 :   0.898807257926478     
          29 :    5.41199938273644     
          30 :   -13.4827080048881     
          31 :   -60.7280557901488     
          32 :   -43.6994217351506     

     Forces acting on atoms (Ry/au):


     negative rho (up, down):  1.380E+00 0.000E+00
     atom    1 type  1   force =    -0.00043042   -0.00024936    0.02050693
     atom    2 type  1   force =     0.00043041   -0.00024886    0.02050600
     atom    3 type  1   force =     0.00000040    0.00049759    0.02050719
     atom    4 type  1   force =    -0.00000038    0.00000057    0.02041488
     atom    5 type  1   force =     0.00000039    0.00071946   -0.01741865
     atom    6 type  1   force =    -0.00000139    0.00000024   -0.02758546
     atom    7 type  1   force =    -0.00062286   -0.00036031   -0.01741885
     atom    8 type  1   force =     0.00062111   -0.00035889   -0.01741452
     atom    9 type  1   force =     0.00000633   -0.00000434   -0.00106848
     atom   10 type  1   force =    -0.00000522    0.00062641   -0.00075530
     atom   11 type  1   force =     0.00054896   -0.00031680   -0.00074899
     atom   12 type  1   force =    -0.00054176   -0.00030657   -0.00075550
     atom   13 type  2   force =    -0.00000536    0.00000042    0.00166849
     atom   14 type  3   force =    -0.00000021    0.00000045   -0.00043774

     Total force =     0.002646     Total SCF correction =     0.000807
     SCF correction compared to forces is large: reduce conv_thr to get better values


     entering subroutine stress ...


     negative rho (up, down):  1.380E+00 0.000E+00
          total   stress  (Ry/bohr**3)                   (kbar)     P=  -14.83
  -0.00010507   0.00000000  -0.00000000        -15.46      0.00     -0.00
   0.00000000  -0.00010507   0.00000000          0.00    -15.46      0.00
  -0.00000000   0.00000000  -0.00009240         -0.00      0.00    -13.59


     bfgs converged in  15 scf cycles and  14 bfgs steps
     (criteria: energy <  1.0E+00, force <  1.9E-03)

     End of BFGS Geometry Optimization

     Final energy   =   -1939.4655869554 Ry
Begin final coordinates

ATOMIC_POSITIONS (crystal)
Hf1      0.166666667   0.166666667   0.396510335    0   0   0
Hf1      0.666666667   0.166666667   0.396510335    0   0   0
Hf1      0.166666667   0.666666667   0.396510335    0   0   0
Hf1      0.666666667   0.666666667   0.396510335    0   0   0
Hf1      0.833333333   0.333333333   0.500000000    0   0   0
Hf1      0.333333333   0.333333333   0.500000000    0   0   0
Hf1      0.833333333   0.833333333   0.500000000    0   0   0
Hf1      0.333333333   0.833333333   0.500000000    0   0   0
Hf1     -0.000005776   0.000002368   0.595301465
Hf1      0.498278203   0.003446786   0.599938045
Hf1      0.003443039   0.498278142   0.599937265
Hf1      0.498277067   0.498273110   0.599937882
C1       0.333333583   0.333333480   0.649381117
H1       0.333330748   0.333332089   0.693171124
End final coordinates



     Writing output data file calc.save
 
     init_run     :      8.92s CPU     12.01s WALL (       1 calls)
     electrons    :   4237.96s CPU   5473.59s WALL (      15 calls)
     update_pot   :     22.42s CPU     25.49s WALL (      14 calls)
     forces       :    128.39s CPU    134.89s WALL (      15 calls)
     stress       :    381.93s CPU    401.75s WALL (      15 calls)

     Called by init_run:
     wfcinit      :      5.68s CPU      8.12s WALL (       1 calls)
     potinit      :      0.82s CPU      1.01s WALL (       1 calls)

     Called by electrons:
     c_bands      :   2811.85s CPU   3698.76s WALL (     239 calls)
     sum_band     :    680.73s CPU    841.15s WALL (     239 calls)
     v_of_rho     :    129.79s CPU    173.56s WALL (     254 calls)
     newd         :    405.25s CPU    468.05s WALL (     254 calls)
     mix_rho      :      4.50s CPU      6.15s WALL (     239 calls)
     vdW_energy   :     81.61s CPU    105.39s WALL (     794 calls)
     vdW_ffts     :    127.03s CPU    174.72s WALL (    1618 calls)
     vdW_v        :     52.27s CPU     62.32s WALL (     794 calls)

     Called by c_bands:
     init_us_2    :     30.24s CPU     35.60s WALL (   10180 calls)
     cegterg      :   2552.69s CPU   3430.60s WALL (    4798 calls)

     Called by *egterg:
     h_psi        :   1520.45s CPU   2261.71s WALL (   27007 calls)
     s_psi        :    164.62s CPU    172.68s WALL (   27007 calls)
     g_psi        :     12.92s CPU     13.34s WALL (   22189 calls)
     cdiaghg      :    463.60s CPU    473.65s WALL (   26707 calls)

     Called by h_psi:
     add_vuspsi   :    167.37s CPU    175.04s WALL (   27007 calls)

     General routines
     calbec       :    219.23s CPU    224.29s WALL (   32387 calls)
     fft          :    196.64s CPU    268.94s WALL (   48323 calls)
     ffts         :      0.39s CPU      0.62s WALL (     493 calls)
     fftw         :   1112.00s CPU   1965.79s WALL ( 2571694 calls)
     interpolate  :      2.32s CPU      4.11s WALL (     493 calls)
     davcio       :      0.01s CPU      0.31s WALL (      20 calls)
 
     Parallel routines
     fft_scatter  :    755.88s CPU   1262.96s WALL ( 2620510 calls)
 
     PWSCF        :     1h20m CPU        1h41m WALL

 
   This run was terminated on:   3: 4:43  18Apr2018            

=------------------------------------------------------------------------------=
   JOB DONE.
=------------------------------------------------------------------------------=
