  python dir          : /u/if/mamunm/src/espresso
  espresso dir        : /nfs/slac/g/suncatfs/sw/espv18/espresso-dynpy-beef/bin
  pseudo dir          : /u/if/mamunm/psp/gbrv1.5pbe
  ase-espresso py git : GITVERSION



     Program PWSCF v.5.1rc2 (svn rev. 11289) starts on 25Apr2018 at  4:39:17 

     This program is part of the open-source Quantum ESPRESSO suite
     for quantum simulation of materials; please cite
         "P. Giannozzi et al., J. Phys.:Condens. Matter 21 395502 (2009);
          URL http://www.quantum-espresso.org", 
     in publications or presentations arising from this work. More details at
     http://www.quantum-espresso.org/quote

     Parallel version (MPI), running on    32 processors
     K-points division:     npool     =       4
     R & G space division:  proc/nbgrp/npool/nimage =       8
     Reading input from pw.inp
     Message from routine read_cards :
     DEPRECATED: no units specified in CELL_PARAMETERS card

     Current dimensions of program PWSCF are:
     Max number of different atomic species (ntypx) = 10
     Max number of k-points (npk) =  40000
     Max angular momentum in pseudopotentials (lmaxx) =  3
     Presently stress not available with electric field


     **************************************************************************
     Initializing libbeef V0.1.1 with the BEEF-vdW functional.
     Citation: Wellendorff et al., PRB 85, 235149 (2012).
     **************************************************************************


     IMPORTANT: XC functional enforced from input :
     Exchange-correlation      = BEEF-VDW ( 1  4 27 13 2)
     Any further DFT definition will be discarded
     Please, verify this is what you really want


     Subspace diagonalization in iterative solution of the eigenvalue problem:
     a serial algorithm will be used

 
     Parallelization info
     --------------------
     sticks:   dense  smooth     PW     G-vecs:    dense   smooth      PW
     Min         354     143     40                67132    16991    2682
     Max         355     144     43                67159    17028    2691
     Sum        2839    1147    337               537229   136073   21493
 


     bravais-lattice index     =            0
     lattice parameter (alat)  =       1.8897  a.u.
     unit-cell volume          =    4515.4205 (a.u.)^3
     number of atoms/cell      =           14
     number of atomic types    =            3
     number of electrons       =       247.00
     number of Kohn-Sham states=          133
     kinetic-energy cutoff     =      36.7493  Ry
     charge density cutoff     =     367.4932  Ry
     convergence threshold     =      1.0E-05
     mixing beta               =       0.3000
     number of iterations used =           10  plain     mixing
     Exchange-correlation      = BEEF-VDW ( 1  4 27 13 2)
     nstep                     =           50


     celldm(1)=   1.889726  celldm(2)=   0.000000  celldm(3)=   0.000000
     celldm(4)=   0.000000  celldm(5)=   0.000000  celldm(6)=   0.000000

     crystal axes: (cart. coord. in units of alat)
               a(1) = (   5.606773   0.000000   0.000000 )  
               a(2) = (   2.803387   4.855608   0.000000 )  
               a(3) = (   0.000000   0.000000  24.577911 )  

     reciprocal axes: (cart. coord. in units 2 pi/alat)
               b(1) = (  0.178356 -0.102974  0.000000 )  
               b(2) = (  0.000000  0.205947  0.000000 )  
               b(3) = (  0.000000  0.000000  0.040687 )  


     PseudoPot. # 1 for Zn read from file:
     /u/if/mamunm/psp/gbrv1.5pbe/Zn.UPF
     MD5 check sum: df62231357ef9e81f77b2b3087fa5675
     Pseudo is Ultrasoft, Zval = 20.0
     Generated by new atomic code, or converted to UPF format
     Using radial grid of  943 points,  6 beta functions with: 
                l(1) =   0
                l(2) =   0
                l(3) =   1
                l(4) =   1
                l(5) =   2
                l(6) =   2
     Q(r) pseudized with  8 coefficients,  rinner =    1.100   1.100   1.100
                                                       1.100   1.100

     PseudoPot. # 2 for S  read from file:
     /u/if/mamunm/psp/gbrv1.5pbe/S.UPF
     MD5 check sum: 88d86576ff6df21479756cfb9bdac1df
     Pseudo is Ultrasoft + core correction, Zval =  6.0
     Generated by new atomic code, or converted to UPF format
     Using radial grid of  907 points,  6 beta functions with: 
                l(1) =   0
                l(2) =   0
                l(3) =   1
                l(4) =   1
                l(5) =   2
                l(6) =   2
     Q(r) pseudized with  8 coefficients,  rinner =    1.300   1.300   1.300
                                                       1.300   1.300

     PseudoPot. # 3 for H  read from file:
     /u/if/mamunm/psp/gbrv1.5pbe/H.UPF
     MD5 check sum: 761ae9a214b05c3daf00ab9f6b793d6f
     Pseudo is Ultrasoft, Zval =  1.0
     Generated by new atomic code, or converted to UPF format
     Using radial grid of  615 points,  2 beta functions with: 
                l(1) =   0
                l(2) =   0
     Q(r) pseudized with  8 coefficients,  rinner =    0.700

     vdW kernel table read from file vdW_kernel_table
     MD5 check sum: 095c7af220d748ca6e76c0b4c6cfb241

     atomic species   valence    mass     pseudopotential
        Zn1           20.00    65.38000     Zn( 1.00)
        S1             6.00    32.06000     S ( 1.00)
        H1             1.00     1.00800     H ( 1.00)

     No symmetry found



   Cartesian axes

     site n.     atom                  positions (alat units)
         1           Zn1 tau(   1) = (   1.4016933   0.8092680  10.0000000  )
         2           Zn1 tau(   2) = (   4.2050800   0.8092680  10.0000000  )
         3           Zn1 tau(   3) = (   2.8033867   3.2370721  10.0000000  )
         4           Zn1 tau(   4) = (   5.6067733   3.2370721  10.0000000  )
         5           Zn1 tau(   5) = (   5.6067733   1.6185360  12.2889556  )
         6           Zn1 tau(   6) = (   2.8033867   1.6185360  12.2889556  )
         7           Zn1 tau(   7) = (   7.0084667   4.0463401  12.2889556  )
         8           Zn1 tau(   8) = (   4.2050800   4.0463401  12.2889556  )
         9           Zn1 tau(   9) = (   0.0000000   0.0000000  14.5779113  )
        10           Zn1 tau(  10) = (   2.8033867   0.0000000  14.5779113  )
        11           Zn1 tau(  11) = (   1.4016933   2.4278041  14.5779113  )
        12           Zn1 tau(  12) = (   4.2050800   2.4278041  14.5779113  )
        13           S1  tau(  13) = (   1.4016933   0.8092680  16.0534113  )
        14           H1  tau(  14) = (   1.4016933   0.8092680  17.3034113  )

     number of k points=    20  Fermi-Dirac smearing, width (Ry)=  0.0110
                       cart. coord. in units 2pi/alat
        k(    1) = (   0.0000000   0.0000000   0.0000000), wk =   0.0555556
        k(    2) = (   0.0000000   0.0343246   0.0000000), wk =   0.1111111
        k(    3) = (   0.0000000   0.0686491   0.0000000), wk =   0.1111111
        k(    4) = (   0.0000000  -0.1029737   0.0000000), wk =   0.0555556
        k(    5) = (   0.0297260  -0.0171623   0.0000000), wk =   0.1111111
        k(    6) = (   0.0297260   0.0171623   0.0000000), wk =   0.1111111
        k(    7) = (   0.0297260   0.0514869   0.0000000), wk =   0.1111111
        k(    8) = (   0.0297260  -0.1201360   0.0000000), wk =   0.1111111
        k(    9) = (   0.0297260  -0.0858114   0.0000000), wk =   0.1111111
        k(   10) = (   0.0297260  -0.0514869   0.0000000), wk =   0.1111111
        k(   11) = (   0.0594519  -0.0343246   0.0000000), wk =   0.1111111
        k(   12) = (   0.0594519   0.0000000   0.0000000), wk =   0.1111111
        k(   13) = (   0.0594519   0.0343246   0.0000000), wk =   0.1111111
        k(   14) = (   0.0594519  -0.1372983   0.0000000), wk =   0.1111111
        k(   15) = (   0.0594519  -0.1029737   0.0000000), wk =   0.1111111
        k(   16) = (   0.0594519  -0.0686491   0.0000000), wk =   0.1111111
        k(   17) = (  -0.0891779   0.0514869   0.0000000), wk =   0.0555556
        k(   18) = (  -0.0891779   0.0858114   0.0000000), wk =   0.1111111
        k(   19) = (  -0.0891779   0.1201360   0.0000000), wk =   0.1111111
        k(   20) = (  -0.0891779  -0.0514869   0.0000000), wk =   0.0555556

     Dense  grid:   537229 G-vectors     FFT dimensions: (  72,  72, 288)

     Smooth grid:   136073 G-vectors     FFT dimensions: (  45,  45, 180)

     Largest allocated arrays     est. size (Mb)     dimensions
        Kohn-Sham Wavefunctions         4.39 Mb     (    2163,  133)
        NL pseudopotentials             7.79 Mb     (    2163,  236)
        Each V/rho on FFT grid          2.85 Mb     (  186624)
        Each G-vector array             0.51 Mb     (   67157)
        G-vector shells                 0.14 Mb     (   17773)
     Largest temporary arrays     est. size (Mb)     dimensions
        Auxiliary wavefunctions        17.56 Mb     (    2163,  532)
        Each subspace H/S matrix        4.32 Mb     (     532,  532)
        Each <psi_i|beta_j> matrix      0.48 Mb     (     236,  133)
        Arrays for rho mixing          28.48 Mb     (  186624,   10)

     Initial potential from superposition of free atoms
     Check: negative starting charge=   -0.000739

     starting charge  246.99826, renormalised to  247.00000

     negative rho (up, down):  7.386E-04 0.000E+00


     ************************************************************************
     *
     * You are using vdW-DF for exchange-correlation in this calculation.
     * Please cite the following three references that made this development
     * possible:
     *
     *   M. Dion, H. Rydberg, E. Schroder, D. C. Langreth, and
     *   B. I. Lundqvist, Phys. Rev. Lett. 92, 246401 (2004).
     *
     *   T. Thonhauser, V. R. Cooper, S. Li, A. Puzder, P. Hyldgaard, and
     *   D. C. Langreth, Phys. Rev. B 76, 125112 (2007).
     *
     *   G. Roman-Perez and J. M. Soler, Phys. Rev. Lett. 103, 096102 (2009).
     *
     *
     * If you are using vdW-DF2, please also cite:
     *
     *   K. Lee, E. D. Murray, L. Kong, B. I. Lundqvist, and
     *   D. C. Langreth, Phys. Rev. B 82, 081101(R) (2010).
     *
     *
     * If you are calculating the stress with vdW-DF, please also cite:
     *
     *   R. Sabatini, E. Kucukbenli, B. Kolb, T. Thonhauser, and
     *   S. de Gironcoli, J. Phys.: Condens. Matter 24, 424209 (2012).
     *
     ************************************************************************

     Carrying out vdW-DF run using the following parameters:

     Nqs =      20    Nr_points =    1024   r_max =   100.000
     q_mesh =
               0.00001000     0.04494208     0.09755937     0.15916263
               0.23128650     0.31572767     0.41458969     0.53033537
               0.66584808     0.82450364     1.01025438     1.22772762
               1.48234092     1.78043706     2.12944203     2.53805004
               3.01644009     3.57652955     4.23227104     5.00000000

     Gradients computed in reciprocal space

     ************************************************************************


 
     Adding external electric field

     Computed dipole along edir(3) : 
        Dipole               -0.0000 Ry au,         -0.0001 Debye
        Dipole field         -0.0000 Ry au
 
        Potential amp.        0.0000 Ry
        Total length         45.2844 bohr
 
     Starting wfc are  161 randomized atomic wfcs

     total cpu time spent up to now is       12.8 secs

     per-process dynamical memory:    93.4 Mb

     Self-consistent Calculation

     iteration #  1     ecut=    36.75 Ry     beta=0.30
     Davidson diagonalization with overlap
     ethr =  1.00E-02,  avg # of iterations =  3.2

     Threshold (ethr) on eigenvalues was too large:
     Diagonalizing with lowered threshold

     Davidson diagonalization with overlap
     ethr =  1.05E-04,  avg # of iterations =  5.0

     negative rho (up, down):  8.044E-04 0.000E+00
 
     Adding external electric field

     Computed dipole along edir(3) : 
        Dipole               -0.0966 Ry au,         -0.2455 Debye
        Dipole field         -0.0003 Ry au
 
        Potential amp.        0.0243 Ry
        Total length         45.2844 bohr
 

     total cpu time spent up to now is       56.1 secs

     total energy              =   -5578.77900302 Ry
     Harris-Foulkes estimate   =   -5578.85746324 Ry
     estimated scf accuracy    <       0.28873687 Ry

     iteration #  2     ecut=    36.75 Ry     beta=0.30
     Davidson diagonalization with overlap
     ethr =  1.17E-04,  avg # of iterations =  3.0

     negative rho (up, down):  8.685E-04 0.000E+00
 
     Adding external electric field

     Computed dipole along edir(3) : 
        Dipole                0.6669 Ry au,          1.6950 Debye
        Dipole field          0.0019 Ry au
 
        Potential amp.       -0.1681 Ry
        Total length         45.2844 bohr
 

     total cpu time spent up to now is       80.8 secs

     total energy              =   -5578.77887997 Ry
     Harris-Foulkes estimate   =   -5578.82051006 Ry
     estimated scf accuracy    <       0.15687074 Ry

     iteration #  3     ecut=    36.75 Ry     beta=0.30
     Davidson diagonalization with overlap
     ethr =  6.35E-05,  avg # of iterations =  6.0

     negative rho (up, down):  9.127E-04 0.000E+00
 
     Adding external electric field

     Computed dipole along edir(3) : 
        Dipole                0.1761 Ry au,          0.4476 Debye
        Dipole field          0.0005 Ry au
 
        Potential amp.       -0.0444 Ry
        Total length         45.2844 bohr
 

     total cpu time spent up to now is      106.7 secs

     total energy              =   -5578.74347267 Ry
     Harris-Foulkes estimate   =   -5578.87541073 Ry
     estimated scf accuracy    <       1.47767467 Ry

     iteration #  4     ecut=    36.75 Ry     beta=0.30
     Davidson diagonalization with overlap
     ethr =  6.35E-05,  avg # of iterations =  4.5

     negative rho (up, down):  9.067E-04 0.000E+00
 
     Adding external electric field

     Computed dipole along edir(3) : 
        Dipole                0.2863 Ry au,          0.7277 Debye
        Dipole field          0.0008 Ry au
 
        Potential amp.       -0.0722 Ry
        Total length         45.2844 bohr
 

     total cpu time spent up to now is      131.5 secs

     total energy              =   -5578.80885859 Ry
     Harris-Foulkes estimate   =   -5578.81228570 Ry
     estimated scf accuracy    <       0.02717926 Ry

     iteration #  5     ecut=    36.75 Ry     beta=0.30
     Davidson diagonalization with overlap
     ethr =  1.10E-05,  avg # of iterations =  3.6

     negative rho (up, down):  9.300E-04 0.000E+00
 
     Adding external electric field

     Computed dipole along edir(3) : 
        Dipole                0.3458 Ry au,          0.8789 Debye
        Dipole field          0.0010 Ry au
 
        Potential amp.       -0.0872 Ry
        Total length         45.2844 bohr
 

     total cpu time spent up to now is      155.4 secs

     total energy              =   -5578.81021013 Ry
     Harris-Foulkes estimate   =   -5578.81155643 Ry
     estimated scf accuracy    <       0.01005544 Ry

     iteration #  6     ecut=    36.75 Ry     beta=0.30
     Davidson diagonalization with overlap
     ethr =  4.07E-06,  avg # of iterations =  6.2

     negative rho (up, down):  9.358E-04 0.000E+00
 
     Adding external electric field

     Computed dipole along edir(3) : 
        Dipole                0.3433 Ry au,          0.8725 Debye
        Dipole field          0.0010 Ry au
 
        Potential amp.       -0.0865 Ry
        Total length         45.2844 bohr
 

     total cpu time spent up to now is      181.7 secs

     total energy              =   -5578.81126707 Ry
     Harris-Foulkes estimate   =   -5578.81119713 Ry
     estimated scf accuracy    <       0.00065151 Ry

     iteration #  7     ecut=    36.75 Ry     beta=0.30
     Davidson diagonalization with overlap
     ethr =  2.64E-07,  avg # of iterations =  2.5

     negative rho (up, down):  9.363E-04 0.000E+00
 
     Adding external electric field

     Computed dipole along edir(3) : 
        Dipole                0.3395 Ry au,          0.8630 Debye
        Dipole field          0.0009 Ry au
 
        Potential amp.       -0.0856 Ry
        Total length         45.2844 bohr
 

     total cpu time spent up to now is      204.2 secs

     total energy              =   -5578.81135234 Ry
     Harris-Foulkes estimate   =   -5578.81132755 Ry
     estimated scf accuracy    <       0.00007667 Ry

     iteration #  8     ecut=    36.75 Ry     beta=0.30
     Davidson diagonalization with overlap
     ethr =  3.10E-08,  avg # of iterations =  2.2

     negative rho (up, down):  9.368E-04 0.000E+00
 
     Adding external electric field

     Computed dipole along edir(3) : 
        Dipole                0.3369 Ry au,          0.8562 Debye
        Dipole field          0.0009 Ry au
 
        Potential amp.       -0.0849 Ry
        Total length         45.2844 bohr
 

     total cpu time spent up to now is      226.8 secs

     total energy              =   -5578.81136866 Ry
     Harris-Foulkes estimate   =   -5578.81136494 Ry
     estimated scf accuracy    <       0.00001582 Ry

     iteration #  9     ecut=    36.75 Ry     beta=0.30
     Davidson diagonalization with overlap
     ethr =  6.41E-09,  avg # of iterations =  2.8

     negative rho (up, down):  9.465E-04 0.000E+00

     negative rho (up, down):  9.465E-04 0.000E+00

     negative rho (up, down):  9.465E-04 0.000E+00

     negative rho (up, down):  9.465E-04 0.000E+00

     negative rho (up, down):  9.465E-04 0.000E+00

     negative rho (up, down):  9.465E-04 0.000E+00

     negative rho (up, down):  9.465E-04 0.000E+00

     negative rho (up, down):  9.465E-04 0.000E+00

     negative rho (up, down):  9.465E-04 0.000E+00

     negative rho (up, down):  9.465E-04 0.000E+00

     negative rho (up, down):  9.465E-04 0.000E+00

     negative rho (up, down):  9.465E-04 0.000E+00

     negative rho (up, down):  9.465E-04 0.000E+00

     negative rho (up, down):  9.465E-04 0.000E+00

     negative rho (up, down):  9.465E-04 0.000E+00

     negative rho (up, down):  9.465E-04 0.000E+00

     negative rho (up, down):  9.465E-04 0.000E+00

     negative rho (up, down):  9.465E-04 0.000E+00

     negative rho (up, down):  9.465E-04 0.000E+00

     negative rho (up, down):  9.465E-04 0.000E+00

     negative rho (up, down):  9.465E-04 0.000E+00

     negative rho (up, down):  9.465E-04 0.000E+00

     negative rho (up, down):  9.465E-04 0.000E+00

     negative rho (up, down):  9.465E-04 0.000E+00

     negative rho (up, down):  9.465E-04 0.000E+00

     negative rho (up, down):  9.465E-04 0.000E+00

     negative rho (up, down):  9.465E-04 0.000E+00

     negative rho (up, down):  9.465E-04 0.000E+00

     negative rho (up, down):  9.465E-04 0.000E+00

     negative rho (up, down):  9.465E-04 0.000E+00

     negative rho (up, down):  9.465E-04 0.000E+00

     negative rho (up, down):  9.465E-04 0.000E+00

     negative rho (up, down):  9.465E-04 0.000E+00

     negative rho (up, down):  9.465E-04 0.000E+00

     negative rho (up, down):  9.465E-04 0.000E+00
 
     Adding external electric field

     Computed dipole along edir(3) : 
        Dipole                0.3340 Ry au,          0.8489 Debye
        Dipole field          0.0009 Ry au
 
        Potential amp.       -0.0842 Ry
        Total length         45.2844 bohr
 

     total cpu time spent up to now is      301.6 secs

     End of self-consistent calculation

          k = 0.0000 0.0000 0.0000 ( 16931 PWs)   bands (ev):

  -125.7550-125.7541-125.7541-125.5363-125.4946-125.4937-125.4936-125.3022
  -125.3013-125.3013-125.2774-125.2459 -79.9755 -79.9653 -79.9653 -79.9203
   -79.9203 -79.9197 -79.9167 -79.9167 -79.9151 -79.7214 -79.7124 -79.7124
   -79.6752 -79.6752 -79.6751 -79.6705 -79.6693 -79.6684 -79.6684 -79.6628
   -79.6628 -79.4924 -79.4915 -79.4915 -79.4820 -79.4782 -79.4782 -79.4704
   -79.4693 -79.4693 -79.4561 -79.4526 -79.4526 -79.4307 -79.4175 -79.4175
   -14.8172  -9.0047  -8.0818  -7.3532  -7.3532  -7.2461  -7.1789  -7.1149
    -7.1149  -7.0784  -7.0784  -7.0494  -7.0215  -6.8954  -6.8954  -6.8612
    -6.8057  -6.8057  -6.8010  -6.6684  -6.6684  -6.6244  -6.6244  -6.5916
    -6.5729  -6.5549  -6.5549  -6.5146  -6.4843  -6.4843  -6.4182  -6.4182
    -6.3623  -6.3338  -6.3338  -6.3136  -6.3136  -6.2728  -6.1905  -6.1637
    -6.1637  -6.0923  -6.0879  -6.0879  -6.0094  -6.0045  -6.0045  -5.9558
    -5.9555  -5.9555  -5.9427  -5.9427  -5.9198  -5.9198  -5.9065  -5.8995
    -5.8995  -5.8715  -5.8715  -5.8515  -5.7197  -5.7124  -5.7124  -5.0781
    -3.4711  -3.4711  -2.5565  -1.3809  -1.3809  -1.2523  -0.8906  -0.8406
    -0.8406  -0.2007   0.2182   0.2182   0.4445   1.1657   1.1657   1.7828
     3.0018   3.0030   3.0030   3.1170   3.3427

          k = 0.0000 0.0343 0.0000 ( 16966 PWs)   bands (ev):

  -125.7550-125.7541-125.7541-125.5363-125.4945-125.4937-125.4937-125.3022
  -125.3013-125.3013-125.2774-125.2459 -79.9748 -79.9659 -79.9653 -79.9202
   -79.9201 -79.9198 -79.9169 -79.9169 -79.9155 -79.7214 -79.7123 -79.7122
   -79.6753 -79.6749 -79.6743 -79.6710 -79.6695 -79.6685 -79.6684 -79.6636
   -79.6630 -79.4926 -79.4915 -79.4915 -79.4813 -79.4777 -79.4776 -79.4709
   -79.4700 -79.4695 -79.4561 -79.4530 -79.4527 -79.4308 -79.4176 -79.4176
   -14.8122  -8.9444  -7.9489  -7.3455  -7.3123  -7.1953  -7.1368  -7.0908
    -7.0809  -7.0564  -7.0347  -6.9828  -6.9761  -6.8947  -6.8760  -6.8333
    -6.8051  -6.7817  -6.7614  -6.6631  -6.6505  -6.6409  -6.6038  -6.5885
    -6.5808  -6.5664  -6.5391  -6.5080  -6.4903  -6.4627  -6.4299  -6.4100
    -6.3905  -6.3542  -6.3351  -6.3116  -6.3016  -6.2815  -6.2494  -6.2115
    -6.1590  -6.1396  -6.0955  -6.0946  -6.0404  -6.0310  -6.0308  -5.9952
    -5.9944  -5.9779  -5.9680  -5.9555  -5.9407  -5.9329  -5.9246  -5.9225
    -5.9049  -5.8884  -5.8782  -5.8321  -5.7694  -5.7622  -5.7524  -4.9907
    -3.8293  -3.5802  -2.9665  -2.3086  -1.9302  -1.8731  -1.1558  -0.3587
    -0.2240   0.1096   0.2856   0.5854   1.1187   1.6584   1.7147   2.2119
     2.7379   2.9352   3.0806   3.3134   4.1586

          k = 0.0000 0.0686 0.0000 ( 16996 PWs)   bands (ev):

  -125.7548-125.7543-125.7541-125.5363-125.4944-125.4938-125.4937-125.3020
  -125.3015-125.3013-125.2774-125.2459 -79.9733 -79.9674 -79.9653 -79.9203
   -79.9193 -79.9193 -79.9177 -79.9172 -79.9161 -79.7215 -79.7122 -79.7118
   -79.6758 -79.6741 -79.6724 -79.6718 -79.6693 -79.6687 -79.6685 -79.6657
   -79.6633 -79.4924 -79.4918 -79.4915 -79.4800 -79.4766 -79.4762 -79.4722
   -79.4720 -79.4696 -79.4562 -79.4538 -79.4530 -79.4308 -79.4177 -79.4176
   -14.8024  -8.8225  -7.5899  -7.3174  -7.2173  -7.1120  -7.0457  -7.0181
    -6.9914  -6.9900  -6.9228  -6.9154  -6.8721  -6.8524  -6.8080  -6.7714
    -6.7673  -6.7220  -6.7007  -6.6873  -6.6414  -6.6250  -6.5883  -6.5830
    -6.5719  -6.5352  -6.5234  -6.5230  -6.4895  -6.4394  -6.4364  -6.4148
    -6.4082  -6.3940  -6.3700  -6.3312  -6.3084  -6.2892  -6.2713  -6.2608
    -6.2198  -6.1970  -6.1783  -6.1227  -6.1093  -6.0930  -6.0703  -6.0612
    -6.0562  -6.0314  -6.0287  -6.0164  -6.0078  -5.9980  -5.9870  -5.9526
    -5.9300  -5.9281  -5.8878  -5.8512  -5.8328  -5.8264  -5.7551  -5.1637
    -4.4830  -3.8257  -3.7687  -2.6996  -2.3404  -2.2685  -1.5682  -0.7330
    -0.4124   0.3417   1.0283   1.7101   1.7444   2.2636   2.3622   3.2661
     3.5021   3.5580   3.8204   4.2522   4.7835

          k = 0.0000-0.1030 0.0000 ( 17028 PWs)   bands (ev):

  -125.7547-125.7544-125.7541-125.5363-125.4943-125.4940-125.4937-125.3019
  -125.3016-125.3013-125.2774-125.2459 -79.9722 -79.9687 -79.9653 -79.9203
   -79.9188 -79.9184 -79.9184 -79.9180 -79.9163 -79.7215 -79.7121 -79.7117
   -79.6761 -79.6731 -79.6729 -79.6706 -79.6693 -79.6689 -79.6684 -79.6677
   -79.6633 -79.4924 -79.4919 -79.4915 -79.4793 -79.4748 -79.4748 -79.4743
   -79.4738 -79.4695 -79.4562 -79.4544 -79.4531 -79.4308 -79.4178 -79.4176
   -14.7975  -8.7607  -7.4225  -7.1598  -7.1427  -7.0621  -7.0575  -6.9679
    -6.9216  -6.9203  -6.8752  -6.8743  -6.8332  -6.8011  -6.7856  -6.7448
    -6.7310  -6.6954  -6.6928  -6.6498  -6.6371  -6.6339  -6.5966  -6.5845
    -6.5639  -6.5462  -6.5112  -6.4985  -6.4846  -6.4809  -6.4542  -6.4215
    -6.3720  -6.3650  -6.3456  -6.3155  -6.3127  -6.2935  -6.2806  -6.2582
    -6.2460  -6.2380  -6.1973  -6.1671  -6.1576  -6.1523  -6.1354  -6.0871
    -6.0817  -6.0790  -6.0622  -6.0572  -6.0317  -6.0235  -5.9969  -5.9891
    -5.9582  -5.9560  -5.9218  -5.9059  -5.8818  -5.8410  -5.8310  -5.4459
    -4.8684  -3.8500  -3.6744  -3.1176  -2.6441  -2.4698  -1.3360  -0.7143
    -0.5039  -0.2078   1.4023   2.1713   2.2212   2.9593   3.5879   3.6241
     3.6250   3.7932   4.2138   4.5865   4.6890

          k = 0.0297-0.0172 0.0000 ( 16966 PWs)   bands (ev):

  -125.7550-125.7541-125.7541-125.5363-125.4945-125.4937-125.4937-125.3022
  -125.3013-125.3013-125.2774-125.2459 -79.9748 -79.9659 -79.9653 -79.9202
   -79.9201 -79.9197 -79.9169 -79.9169 -79.9155 -79.7214 -79.7123 -79.7122
   -79.6753 -79.6749 -79.6743 -79.6710 -79.6695 -79.6685 -79.6684 -79.6636
   -79.6630 -79.4926 -79.4915 -79.4915 -79.4813 -79.4777 -79.4776 -79.4709
   -79.4700 -79.4695 -79.4561 -79.4530 -79.4527 -79.4308 -79.4176 -79.4176
   -14.8122  -8.9444  -7.9489  -7.3455  -7.3123  -7.1953  -7.1368  -7.0908
    -7.0809  -7.0564  -7.0347  -6.9828  -6.9761  -6.8947  -6.8760  -6.8333
    -6.8051  -6.7817  -6.7614  -6.6631  -6.6505  -6.6409  -6.6038  -6.5885
    -6.5808  -6.5664  -6.5391  -6.5080  -6.4903  -6.4627  -6.4299  -6.4100
    -6.3905  -6.3542  -6.3351  -6.3116  -6.3016  -6.2815  -6.2494  -6.2115
    -6.1590  -6.1396  -6.0955  -6.0946  -6.0404  -6.0310  -6.0308  -5.9952
    -5.9944  -5.9779  -5.9680  -5.9555  -5.9407  -5.9329  -5.9246  -5.9225
    -5.9049  -5.8884  -5.8782  -5.8321  -5.7694  -5.7622  -5.7524  -4.9907
    -3.8293  -3.5802  -2.9665  -2.3086  -1.9302  -1.8731  -1.1558  -0.3587
    -0.2240   0.1096   0.2856   0.5854   1.1187   1.6584   1.7147   2.2119
     2.7379   2.9352   3.0806   3.3134   4.1586

          k = 0.0297 0.0172 0.0000 ( 16966 PWs)   bands (ev):

  -125.7550-125.7541-125.7541-125.5363-125.4945-125.4937-125.4937-125.3022
  -125.3013-125.3013-125.2774-125.2459 -79.9748 -79.9659 -79.9653 -79.9202
   -79.9201 -79.9197 -79.9169 -79.9169 -79.9155 -79.7214 -79.7123 -79.7122
   -79.6753 -79.6749 -79.6743 -79.6710 -79.6695 -79.6685 -79.6684 -79.6636
   -79.6630 -79.4926 -79.4915 -79.4915 -79.4813 -79.4777 -79.4776 -79.4709
   -79.4700 -79.4695 -79.4561 -79.4530 -79.4527 -79.4308 -79.4176 -79.4176
   -14.8122  -8.9444  -7.9489  -7.3455  -7.3123  -7.1953  -7.1368  -7.0908
    -7.0809  -7.0564  -7.0347  -6.9828  -6.9761  -6.8947  -6.8760  -6.8333
    -6.8051  -6.7817  -6.7614  -6.6631  -6.6505  -6.6409  -6.6038  -6.5885
    -6.5808  -6.5664  -6.5391  -6.5080  -6.4903  -6.4627  -6.4299  -6.4100
    -6.3905  -6.3542  -6.3351  -6.3116  -6.3016  -6.2815  -6.2494  -6.2115
    -6.1590  -6.1396  -6.0955  -6.0946  -6.0404  -6.0310  -6.0308  -5.9952
    -5.9944  -5.9779  -5.9680  -5.9555  -5.9407  -5.9329  -5.9246  -5.9225
    -5.9049  -5.8884  -5.8782  -5.8321  -5.7694  -5.7622  -5.7524  -4.9907
    -3.8293  -3.5802  -2.9665  -2.3086  -1.9302  -1.8731  -1.1558  -0.3587
    -0.2240   0.1096   0.2856   0.5854   1.1187   1.6584   1.7147   2.2119
     2.7379   2.9352   3.0806   3.3134   4.1586

          k = 0.0297 0.0515 0.0000 ( 16978 PWs)   bands (ev):

  -125.7549-125.7542-125.7541-125.5363-125.4944-125.4938-125.4937-125.3021
  -125.3014-125.3013-125.2774-125.2459 -79.9738 -79.9670 -79.9653 -79.9202
   -79.9197 -79.9193 -79.9175 -79.9169 -79.9161 -79.7214 -79.7122 -79.7120
   -79.6755 -79.6747 -79.6729 -79.6716 -79.6693 -79.6686 -79.6685 -79.6649
   -79.6632 -79.4924 -79.4917 -79.4915 -79.4804 -79.4772 -79.4766 -79.4721
   -79.4706 -79.4699 -79.4562 -79.4535 -79.4530 -79.4308 -79.4177 -79.4176
   -14.8049  -8.8535  -7.6957  -7.3262  -7.2505  -7.1245  -7.0640  -7.0441
    -7.0151  -7.0011  -6.9706  -6.9187  -6.9038  -6.8562  -6.8364  -6.7845
    -6.7661  -6.7562  -6.7060  -6.6779  -6.6440  -6.6337  -6.6053  -6.5929
    -6.5727  -6.5427  -6.5246  -6.5215  -6.4752  -6.4497  -6.4236  -6.4214
    -6.3998  -6.3917  -6.3714  -6.3362  -6.3046  -6.2885  -6.2694  -6.2614
    -6.2082  -6.1652  -6.1441  -6.1196  -6.1026  -6.0812  -6.0634  -6.0374
    -6.0264  -6.0212  -6.0142  -6.0104  -5.9755  -5.9657  -5.9548  -5.9409
    -5.9302  -5.8982  -5.8895  -5.8598  -5.8229  -5.8153  -5.7711  -4.9617
    -4.1948  -3.9517  -3.4838  -3.4073  -1.9363  -1.7366  -1.4113  -0.6323
    -0.3678   0.4479   0.6462   1.0920   1.4722   1.9778   2.6997   2.7762
     3.4121   3.5496   3.7754   3.9781   4.3346

          k = 0.0297-0.1201 0.0000 ( 16986 PWs)   bands (ev):

  -125.7547-125.7544-125.7541-125.5363-125.4943-125.4940-125.4937-125.3019
  -125.3016-125.3013-125.2774-125.2459 -79.9721 -79.9686 -79.9652 -79.9201
   -79.9192 -79.9184 -79.9183 -79.9174 -79.9165 -79.7215 -79.7120 -79.7117
   -79.6757 -79.6739 -79.6726 -79.6707 -79.6692 -79.6688 -79.6685 -79.6671
   -79.6635 -79.4923 -79.4919 -79.4915 -79.4790 -79.4762 -79.4747 -79.4741
   -79.4722 -79.4701 -79.4562 -79.4541 -79.4532 -79.4308 -79.4178 -79.4176
   -14.7975  -8.7623  -7.4231  -7.1888  -7.1675  -7.0498  -6.9989  -6.9617
    -6.9258  -6.9072  -6.8946  -6.8792  -6.8211  -6.8099  -6.7706  -6.7396
    -6.7161  -6.6999  -6.6881  -6.6797  -6.6591  -6.6249  -6.6110  -6.5846
    -6.5723  -6.5513  -6.5248  -6.5039  -6.4901  -6.4743  -6.4563  -6.4255
    -6.4052  -6.3775  -6.3603  -6.3403  -6.3126  -6.2973  -6.2919  -6.2844
    -6.2509  -6.2325  -6.2098  -6.1615  -6.1498  -6.1388  -6.1115  -6.0989
    -6.0905  -6.0699  -6.0509  -6.0451  -6.0239  -6.0124  -5.9902  -5.9569
    -5.9503  -5.9346  -5.9228  -5.8917  -5.8791  -5.8497  -5.7105  -5.2893
    -4.7419  -4.3749  -3.7148  -3.4889  -2.7434  -1.9254  -1.1177  -0.7645
    -0.2177   0.7424   0.9829   1.2638   2.0075   2.8347   3.0030   3.3642
     3.6891   4.0367   4.0540   4.5540   4.8604

          k = 0.0297-0.0858 0.0000 ( 16986 PWs)   bands (ev):

  -125.7547-125.7544-125.7541-125.5363-125.4943-125.4940-125.4937-125.3019
  -125.3016-125.3013-125.2774-125.2459 -79.9721 -79.9686 -79.9652 -79.9201
   -79.9192 -79.9184 -79.9183 -79.9174 -79.9165 -79.7215 -79.7120 -79.7117
   -79.6757 -79.6739 -79.6726 -79.6707 -79.6692 -79.6688 -79.6685 -79.6671
   -79.6635 -79.4923 -79.4919 -79.4915 -79.4790 -79.4762 -79.4747 -79.4741
   -79.4722 -79.4701 -79.4562 -79.4541 -79.4532 -79.4308 -79.4178 -79.4176
   -14.7975  -8.7623  -7.4231  -7.1888  -7.1675  -7.0498  -6.9989  -6.9617
    -6.9258  -6.9072  -6.8946  -6.8792  -6.8211  -6.8099  -6.7706  -6.7396
    -6.7161  -6.6999  -6.6881  -6.6797  -6.6591  -6.6249  -6.6110  -6.5846
    -6.5723  -6.5513  -6.5248  -6.5039  -6.4901  -6.4743  -6.4563  -6.4255
    -6.4052  -6.3775  -6.3603  -6.3403  -6.3126  -6.2973  -6.2919  -6.2844
    -6.2509  -6.2325  -6.2098  -6.1615  -6.1498  -6.1388  -6.1115  -6.0989
    -6.0905  -6.0699  -6.0509  -6.0451  -6.0239  -6.0124  -5.9902  -5.9569
    -5.9503  -5.9346  -5.9228  -5.8917  -5.8791  -5.8497  -5.7105  -5.2893
    -4.7419  -4.3749  -3.7148  -3.4889  -2.7434  -1.9254  -1.1177  -0.7645
    -0.2177   0.7424   0.9829   1.2638   2.0075   2.8347   3.0030   3.3642
     3.6891   4.0367   4.0540   4.5540   4.8604

          k = 0.0297-0.0515 0.0000 ( 16978 PWs)   bands (ev):

  -125.7549-125.7542-125.7541-125.5363-125.4944-125.4938-125.4937-125.3021
  -125.3014-125.3013-125.2774-125.2459 -79.9738 -79.9670 -79.9653 -79.9202
   -79.9197 -79.9193 -79.9175 -79.9169 -79.9161 -79.7214 -79.7122 -79.7120
   -79.6755 -79.6747 -79.6729 -79.6716 -79.6693 -79.6686 -79.6685 -79.6649
   -79.6632 -79.4924 -79.4917 -79.4915 -79.4804 -79.4772 -79.4766 -79.4721
   -79.4706 -79.4699 -79.4562 -79.4535 -79.4530 -79.4308 -79.4177 -79.4176
   -14.8049  -8.8535  -7.6957  -7.3262  -7.2505  -7.1245  -7.0640  -7.0441
    -7.0151  -7.0011  -6.9706  -6.9187  -6.9038  -6.8562  -6.8364  -6.7845
    -6.7661  -6.7562  -6.7060  -6.6779  -6.6440  -6.6337  -6.6053  -6.5929
    -6.5727  -6.5427  -6.5246  -6.5215  -6.4752  -6.4497  -6.4236  -6.4214
    -6.3998  -6.3917  -6.3714  -6.3362  -6.3046  -6.2885  -6.2694  -6.2614
    -6.2082  -6.1652  -6.1441  -6.1196  -6.1026  -6.0812  -6.0634  -6.0374
    -6.0264  -6.0212  -6.0142  -6.0104  -5.9755  -5.9657  -5.9548  -5.9409
    -5.9302  -5.8982  -5.8895  -5.8598  -5.8229  -5.8153  -5.7711  -4.9617
    -4.1948  -3.9517  -3.4838  -3.4073  -1.9363  -1.7366  -1.4113  -0.6323
    -0.3678   0.4479   0.6462   1.0920   1.4722   1.9778   2.6997   2.7762
     3.4121   3.5496   3.7754   3.9781   4.3346

          k = 0.0595-0.0343 0.0000 ( 16996 PWs)   bands (ev):

  -125.7548-125.7543-125.7541-125.5363-125.4944-125.4938-125.4937-125.3020
  -125.3015-125.3013-125.2774-125.2459 -79.9733 -79.9674 -79.9653 -79.9203
   -79.9193 -79.9193 -79.9177 -79.9172 -79.9161 -79.7215 -79.7122 -79.7118
   -79.6758 -79.6741 -79.6724 -79.6718 -79.6693 -79.6687 -79.6685 -79.6657
   -79.6633 -79.4924 -79.4918 -79.4915 -79.4800 -79.4766 -79.4762 -79.4722
   -79.4720 -79.4696 -79.4562 -79.4538 -79.4530 -79.4308 -79.4177 -79.4176
   -14.8024  -8.8225  -7.5899  -7.3174  -7.2173  -7.1120  -7.0457  -7.0181
    -6.9914  -6.9900  -6.9228  -6.9154  -6.8721  -6.8524  -6.8080  -6.7714
    -6.7673  -6.7220  -6.7007  -6.6873  -6.6414  -6.6250  -6.5883  -6.5830
    -6.5719  -6.5352  -6.5234  -6.5230  -6.4895  -6.4394  -6.4364  -6.4148
    -6.4082  -6.3940  -6.3700  -6.3312  -6.3084  -6.2892  -6.2713  -6.2608
    -6.2198  -6.1970  -6.1783  -6.1227  -6.1093  -6.0930  -6.0703  -6.0612
    -6.0562  -6.0314  -6.0287  -6.0164  -6.0078  -5.9980  -5.9870  -5.9526
    -5.9300  -5.9281  -5.8878  -5.8512  -5.8328  -5.8264  -5.7551  -5.1637
    -4.4830  -3.8257  -3.7687  -2.6996  -2.3404  -2.2685  -1.5682  -0.7330
    -0.4124   0.3417   1.0283   1.7101   1.7444   2.2636   2.3622   3.2661
     3.5021   3.5580   3.8204   4.2522   4.7835

          k = 0.0595 0.0000 0.0000 ( 16978 PWs)   bands (ev):

  -125.7549-125.7542-125.7541-125.5363-125.4944-125.4938-125.4937-125.3021
  -125.3014-125.3013-125.2774-125.2459 -79.9738 -79.9670 -79.9653 -79.9202
   -79.9197 -79.9193 -79.9175 -79.9169 -79.9161 -79.7214 -79.7122 -79.7120
   -79.6755 -79.6747 -79.6729 -79.6716 -79.6693 -79.6686 -79.6685 -79.6649
   -79.6632 -79.4924 -79.4917 -79.4915 -79.4804 -79.4772 -79.4766 -79.4721
   -79.4706 -79.4699 -79.4562 -79.4535 -79.4530 -79.4308 -79.4177 -79.4176
   -14.8049  -8.8535  -7.6957  -7.3262  -7.2505  -7.1245  -7.0640  -7.0441
    -7.0151  -7.0011  -6.9706  -6.9187  -6.9038  -6.8562  -6.8364  -6.7845
    -6.7661  -6.7562  -6.7060  -6.6779  -6.6440  -6.6337  -6.6053  -6.5929
    -6.5727  -6.5427  -6.5246  -6.5215  -6.4752  -6.4497  -6.4236  -6.4214
    -6.3998  -6.3917  -6.3714  -6.3362  -6.3046  -6.2885  -6.2694  -6.2614
    -6.2082  -6.1652  -6.1441  -6.1196  -6.1026  -6.0812  -6.0634  -6.0374
    -6.0264  -6.0212  -6.0142  -6.0104  -5.9755  -5.9657  -5.9548  -5.9409
    -5.9302  -5.8982  -5.8895  -5.8598  -5.8229  -5.8153  -5.7711  -4.9617
    -4.1948  -3.9517  -3.4838  -3.4073  -1.9363  -1.7366  -1.4113  -0.6323
    -0.3678   0.4479   0.6462   1.0920   1.4722   1.9778   2.6997   2.7762
     3.4121   3.5496   3.7754   3.9781   4.3346

          k = 0.0595 0.0343 0.0000 ( 16996 PWs)   bands (ev):

  -125.7548-125.7543-125.7541-125.5363-125.4944-125.4938-125.4937-125.3020
  -125.3015-125.3013-125.2774-125.2459 -79.9733 -79.9674 -79.9653 -79.9203
   -79.9193 -79.9193 -79.9177 -79.9172 -79.9161 -79.7215 -79.7122 -79.7118
   -79.6758 -79.6741 -79.6724 -79.6718 -79.6693 -79.6687 -79.6685 -79.6657
   -79.6633 -79.4924 -79.4918 -79.4915 -79.4800 -79.4766 -79.4762 -79.4722
   -79.4720 -79.4696 -79.4562 -79.4538 -79.4530 -79.4308 -79.4177 -79.4176
   -14.8024  -8.8225  -7.5899  -7.3174  -7.2173  -7.1120  -7.0457  -7.0181
    -6.9914  -6.9900  -6.9228  -6.9154  -6.8721  -6.8524  -6.8080  -6.7714
    -6.7673  -6.7220  -6.7007  -6.6873  -6.6414  -6.6250  -6.5883  -6.5830
    -6.5719  -6.5352  -6.5234  -6.5230  -6.4895  -6.4394  -6.4364  -6.4148
    -6.4082  -6.3940  -6.3700  -6.3312  -6.3084  -6.2892  -6.2713  -6.2608
    -6.2198  -6.1970  -6.1783  -6.1227  -6.1093  -6.0930  -6.0703  -6.0612
    -6.0562  -6.0314  -6.0287  -6.0164  -6.0078  -5.9980  -5.9870  -5.9526
    -5.9300  -5.9281  -5.8878  -5.8512  -5.8328  -5.8264  -5.7551  -5.1637
    -4.4830  -3.8257  -3.7687  -2.6996  -2.3404  -2.2685  -1.5682  -0.7330
    -0.4124   0.3417   1.0283   1.7101   1.7444   2.2636   2.3622   3.2661
     3.5021   3.5580   3.8204   4.2522   4.7835

          k = 0.0595-0.1373 0.0000 ( 16986 PWs)   bands (ev):

  -125.7547-125.7544-125.7541-125.5363-125.4943-125.4940-125.4937-125.3019
  -125.3016-125.3013-125.2774-125.2459 -79.9721 -79.9686 -79.9652 -79.9201
   -79.9192 -79.9184 -79.9183 -79.9174 -79.9165 -79.7215 -79.7120 -79.7117
   -79.6757 -79.6739 -79.6726 -79.6707 -79.6692 -79.6688 -79.6685 -79.6671
   -79.6635 -79.4923 -79.4919 -79.4915 -79.4790 -79.4762 -79.4747 -79.4741
   -79.4722 -79.4701 -79.4562 -79.4541 -79.4532 -79.4308 -79.4178 -79.4176
   -14.7975  -8.7623  -7.4231  -7.1888  -7.1675  -7.0498  -6.9989  -6.9617
    -6.9258  -6.9072  -6.8946  -6.8792  -6.8211  -6.8099  -6.7706  -6.7396
    -6.7161  -6.6999  -6.6881  -6.6797  -6.6591  -6.6249  -6.6110  -6.5846
    -6.5723  -6.5513  -6.5248  -6.5039  -6.4901  -6.4743  -6.4563  -6.4255
    -6.4052  -6.3775  -6.3603  -6.3403  -6.3127  -6.2973  -6.2919  -6.2844
    -6.2509  -6.2325  -6.2098  -6.1615  -6.1498  -6.1388  -6.1115  -6.0989
    -6.0905  -6.0699  -6.0509  -6.0451  -6.0239  -6.0124  -5.9902  -5.9569
    -5.9503  -5.9346  -5.9228  -5.8917  -5.8791  -5.8497  -5.7105  -5.2893
    -4.7419  -4.3749  -3.7148  -3.4889  -2.7434  -1.9254  -1.1177  -0.7645
    -0.2177   0.7424   0.9829   1.2638   2.0075   2.8347   3.0030   3.3642
     3.6891   4.0367   4.0540   4.5540   4.8604

          k = 0.0595-0.1030 0.0000 ( 17004 PWs)   bands (ev):

  -125.7546-125.7545-125.7541-125.5363-125.4941-125.4941-125.4937-125.3017
  -125.3017-125.3013-125.2774-125.2459 -79.9707 -79.9701 -79.9653 -79.9200
   -79.9190 -79.9190 -79.9175 -79.9174 -79.9174 -79.7214 -79.7119 -79.7119
   -79.6753 -79.6737 -79.6736 -79.6692 -79.6691 -79.6687 -79.6687 -79.6685
   -79.6639 -79.4920 -79.4920 -79.4915 -79.4774 -79.4773 -79.4752 -79.4728
   -79.4728 -79.4711 -79.4562 -79.4539 -79.4539 -79.4308 -79.4178 -79.4178
   -14.7951  -8.7331  -7.3939  -7.1845  -6.9990  -6.9790  -6.9405  -6.9378
    -6.8903  -6.8665  -6.8649  -6.8026  -6.7941  -6.7763  -6.7720  -6.7289
    -6.7074  -6.7045  -6.6976  -6.6478  -6.6466  -6.6407  -6.6228  -6.6166
    -6.5957  -6.5852  -6.5650  -6.5189  -6.5106  -6.4996  -6.4649  -6.3827
    -6.3827  -6.3685  -6.3650  -6.3435  -6.3415  -6.3095  -6.3041  -6.3028
    -6.3009  -6.2687  -6.2133  -6.2037  -6.2009  -6.1344  -6.1223  -6.1217
    -6.1089  -6.0687  -6.0598  -6.0236  -6.0232  -5.9772  -5.9713  -5.9619
    -5.9536  -5.9358  -5.9306  -5.9198  -5.8967  -5.8309  -5.5377  -5.4387
    -5.0001  -4.4491  -4.4192  -2.9052  -2.8734  -2.7130  -0.5275  -0.4406
     0.1531   1.1045   1.1122   1.1460   2.2107   2.4193   2.5338   3.1028
     3.3480   3.6250   4.4451   4.6262   4.6874

          k = 0.0595-0.0686 0.0000 ( 16986 PWs)   bands (ev):

  -125.7547-125.7544-125.7541-125.5363-125.4943-125.4940-125.4937-125.3019
  -125.3016-125.3013-125.2774-125.2459 -79.9721 -79.9686 -79.9652 -79.9201
   -79.9192 -79.9184 -79.9183 -79.9174 -79.9165 -79.7215 -79.7120 -79.7117
   -79.6757 -79.6739 -79.6726 -79.6707 -79.6692 -79.6688 -79.6685 -79.6671
   -79.6635 -79.4923 -79.4919 -79.4915 -79.4790 -79.4762 -79.4747 -79.4741
   -79.4722 -79.4701 -79.4562 -79.4541 -79.4532 -79.4308 -79.4178 -79.4176
   -14.7975  -8.7623  -7.4231  -7.1888  -7.1675  -7.0498  -6.9989  -6.9617
    -6.9258  -6.9072  -6.8946  -6.8792  -6.8211  -6.8099  -6.7706  -6.7396
    -6.7161  -6.6999  -6.6881  -6.6797  -6.6591  -6.6249  -6.6110  -6.5846
    -6.5723  -6.5513  -6.5248  -6.5039  -6.4901  -6.4743  -6.4563  -6.4255
    -6.4052  -6.3775  -6.3603  -6.3403  -6.3126  -6.2973  -6.2919  -6.2844
    -6.2509  -6.2325  -6.2098  -6.1615  -6.1498  -6.1388  -6.1115  -6.0989
    -6.0905  -6.0699  -6.0509  -6.0451  -6.0239  -6.0124  -5.9902  -5.9569
    -5.9503  -5.9346  -5.9228  -5.8917  -5.8791  -5.8497  -5.7105  -5.2893
    -4.7419  -4.3749  -3.7148  -3.4889  -2.7434  -1.9254  -1.1177  -0.7645
    -0.2177   0.7424   0.9829   1.2638   2.0075   2.8347   3.0030   3.3642
     3.6891   4.0367   4.0540   4.5540   4.8604

          k =-0.0892 0.0515 0.0000 ( 17028 PWs)   bands (ev):

  -125.7547-125.7544-125.7541-125.5363-125.4943-125.4940-125.4937-125.3019
  -125.3016-125.3013-125.2774-125.2459 -79.9722 -79.9687 -79.9653 -79.9203
   -79.9188 -79.9184 -79.9183 -79.9180 -79.9163 -79.7215 -79.7121 -79.7117
   -79.6761 -79.6731 -79.6729 -79.6706 -79.6693 -79.6689 -79.6684 -79.6677
   -79.6633 -79.4923 -79.4919 -79.4915 -79.4793 -79.4748 -79.4748 -79.4743
   -79.4738 -79.4695 -79.4562 -79.4544 -79.4531 -79.4308 -79.4178 -79.4176
   -14.7975  -8.7607  -7.4225  -7.1598  -7.1427  -7.0621  -7.0575  -6.9679
    -6.9216  -6.9203  -6.8752  -6.8743  -6.8332  -6.8011  -6.7856  -6.7448
    -6.7310  -6.6954  -6.6928  -6.6498  -6.6371  -6.6339  -6.5966  -6.5845
    -6.5639  -6.5462  -6.5112  -6.4985  -6.4846  -6.4809  -6.4542  -6.4215
    -6.3720  -6.3650  -6.3456  -6.3155  -6.3127  -6.2935  -6.2806  -6.2582
    -6.2460  -6.2380  -6.1973  -6.1671  -6.1576  -6.1523  -6.1354  -6.0871
    -6.0817  -6.0790  -6.0622  -6.0572  -6.0317  -6.0235  -5.9969  -5.9891
    -5.9582  -5.9560  -5.9218  -5.9059  -5.8818  -5.8410  -5.8310  -5.4459
    -4.8684  -3.8500  -3.6744  -3.1176  -2.6441  -2.4698  -1.3360  -0.7143
    -0.5039  -0.2078   1.4023   2.1713   2.2212   2.9593   3.5879   3.6241
     3.6250   3.7932   4.2138   4.5865   4.6890

          k =-0.0892 0.0858 0.0000 ( 16986 PWs)   bands (ev):

  -125.7547-125.7544-125.7541-125.5363-125.4943-125.4940-125.4937-125.3019
  -125.3016-125.3013-125.2774-125.2459 -79.9721 -79.9686 -79.9652 -79.9201
   -79.9192 -79.9184 -79.9183 -79.9174 -79.9165 -79.7215 -79.7120 -79.7117
   -79.6757 -79.6739 -79.6726 -79.6707 -79.6692 -79.6688 -79.6685 -79.6671
   -79.6635 -79.4923 -79.4919 -79.4915 -79.4790 -79.4762 -79.4747 -79.4742
   -79.4722 -79.4701 -79.4562 -79.4541 -79.4532 -79.4308 -79.4178 -79.4176
   -14.7975  -8.7623  -7.4231  -7.1888  -7.1675  -7.0498  -6.9989  -6.9617
    -6.9258  -6.9072  -6.8946  -6.8792  -6.8211  -6.8099  -6.7706  -6.7396
    -6.7161  -6.6999  -6.6881  -6.6797  -6.6591  -6.6249  -6.6110  -6.5846
    -6.5723  -6.5513  -6.5248  -6.5039  -6.4901  -6.4743  -6.4563  -6.4255
    -6.4052  -6.3775  -6.3603  -6.3403  -6.3126  -6.2973  -6.2919  -6.2844
    -6.2509  -6.2325  -6.2098  -6.1615  -6.1498  -6.1388  -6.1115  -6.0989
    -6.0905  -6.0699  -6.0509  -6.0451  -6.0239  -6.0124  -5.9902  -5.9569
    -5.9503  -5.9346  -5.9228  -5.8917  -5.8791  -5.8497  -5.7105  -5.2893
    -4.7419  -4.3749  -3.7148  -3.4889  -2.7434  -1.9254  -1.1177  -0.7645
    -0.2177   0.7424   0.9829   1.2638   2.0075   2.8347   3.0030   3.3642
     3.6891   4.0367   4.0540   4.5540   4.8604

          k =-0.0892 0.1201 0.0000 ( 16986 PWs)   bands (ev):

  -125.7547-125.7544-125.7541-125.5363-125.4943-125.4940-125.4937-125.3019
  -125.3016-125.3013-125.2774-125.2459 -79.9721 -79.9686 -79.9652 -79.9201
   -79.9192 -79.9184 -79.9183 -79.9174 -79.9165 -79.7215 -79.7120 -79.7117
   -79.6757 -79.6739 -79.6726 -79.6707 -79.6692 -79.6688 -79.6685 -79.6671
   -79.6635 -79.4923 -79.4919 -79.4915 -79.4790 -79.4762 -79.4747 -79.4742
   -79.4722 -79.4701 -79.4562 -79.4541 -79.4532 -79.4308 -79.4178 -79.4176
   -14.7975  -8.7623  -7.4231  -7.1888  -7.1675  -7.0498  -6.9989  -6.9617
    -6.9258  -6.9072  -6.8946  -6.8792  -6.8211  -6.8099  -6.7706  -6.7396
    -6.7161  -6.6999  -6.6881  -6.6797  -6.6591  -6.6249  -6.6110  -6.5846
    -6.5723  -6.5513  -6.5248  -6.5039  -6.4901  -6.4743  -6.4563  -6.4255
    -6.4052  -6.3775  -6.3603  -6.3403  -6.3127  -6.2973  -6.2919  -6.2844
    -6.2509  -6.2325  -6.2098  -6.1615  -6.1498  -6.1388  -6.1115  -6.0989
    -6.0905  -6.0699  -6.0509  -6.0451  -6.0239  -6.0124  -5.9902  -5.9569
    -5.9503  -5.9346  -5.9228  -5.8917  -5.8791  -5.8497  -5.7105  -5.2893
    -4.7419  -4.3749  -3.7148  -3.4889  -2.7434  -1.9254  -1.1177  -0.7645
    -0.2177   0.7424   0.9829   1.2638   2.0075   2.8347   3.0030   3.3642
     3.6891   4.0367   4.0540   4.5540   4.8604

          k =-0.0892-0.0515 0.0000 ( 17028 PWs)   bands (ev):

  -125.7547-125.7544-125.7541-125.5363-125.4943-125.4940-125.4937-125.3019
  -125.3016-125.3013-125.2774-125.2459 -79.9722 -79.9687 -79.9653 -79.9203
   -79.9188 -79.9184 -79.9183 -79.9180 -79.9163 -79.7215 -79.7121 -79.7117
   -79.6761 -79.6731 -79.6729 -79.6706 -79.6693 -79.6689 -79.6684 -79.6677
   -79.6633 -79.4923 -79.4919 -79.4915 -79.4793 -79.4748 -79.4748 -79.4743
   -79.4738 -79.4695 -79.4562 -79.4544 -79.4531 -79.4308 -79.4178 -79.4176
   -14.7975  -8.7607  -7.4225  -7.1598  -7.1427  -7.0621  -7.0575  -6.9679
    -6.9216  -6.9203  -6.8752  -6.8743  -6.8332  -6.8011  -6.7856  -6.7448
    -6.7310  -6.6954  -6.6928  -6.6498  -6.6371  -6.6339  -6.5966  -6.5845
    -6.5639  -6.5462  -6.5112  -6.4985  -6.4846  -6.4809  -6.4542  -6.4215
    -6.3720  -6.3650  -6.3456  -6.3155  -6.3127  -6.2935  -6.2806  -6.2582
    -6.2460  -6.2380  -6.1973  -6.1671  -6.1576  -6.1523  -6.1354  -6.0871
    -6.0817  -6.0790  -6.0622  -6.0572  -6.0317  -6.0235  -5.9969  -5.9891
    -5.9582  -5.9560  -5.9218  -5.9059  -5.8818  -5.8410  -5.8310  -5.4459
    -4.8684  -3.8500  -3.6744  -3.1176  -2.6441  -2.4698  -1.3360  -0.7143
    -0.5039  -0.2078   1.4023   2.1713   2.2212   2.9593   3.5879   3.6241
     3.6250   3.7932   4.2138   4.5865   4.6890

     the Fermi energy is     1.2198 ev

!    total energy              =   -5578.81137404 Ry
     Harris-Foulkes estimate   =   -5578.81137590 Ry
     estimated scf accuracy    <       0.00000319 Ry

     The total energy is the sum of the following terms:

     one-electron contribution =  -36201.60777311 Ry
     hartree contribution      =   18086.78218383 Ry
     xc contribution           =    -530.70706901 Ry
     ewald contribution        =   13066.74681952 Ry
     electric field correction =       0.00031044 Ry
     smearing contrib. (-TS)   =      -0.02584572 Ry

     convergence has been achieved in   9 iterations
 
 BEEF-vdW xc energy contributions
           1 :   -471.181615102907     
           2 :    426.865729149807     
           3 :   -352.520861289639     
           4 :    269.649979025272     
           5 :   -197.291843621250     
           6 :    144.961767387752     
           7 :   -111.353156520998     
           8 :    88.5359916624433     
           9 :   -68.4366139737145     
          10 :    47.5476136916599     
          11 :   -27.5271560460653     
          12 :    12.2441051147006     
          13 :   -3.96985395837970     
          14 :    1.48420251369214     
          15 :   -1.08844547854227     
          16 :  -0.666801116027898     
          17 :    4.75845044364343     
          18 :   -9.52156970297119     
          19 :    12.3977117114912     
          20 :   -12.0955950185998     
          21 :    9.53323827697835     
          22 :   -7.00675510126899     
          23 :    6.39219147681257     
          24 :   -7.82276668637638     
          25 :    9.78671829201670     
          26 :   -10.4442313136658     
          27 :    9.06641949975943     
          28 :   -6.50645902157493     
          29 :    4.43178692167839     
          30 :   -4.00245832688074     
          31 :   -36.7900220397561     
          32 :   -25.1143244111919     

     Forces acting on atoms (Ry/au):


     negative rho (up, down):  9.465E-04 0.000E+00
     atom    1 type  1   force =    -0.00000108    0.00000036   -0.00313513
     atom    2 type  1   force =     0.00000257   -0.00123742   -0.00939353
     atom    3 type  1   force =    -0.00107341    0.00062134   -0.00939425
     atom    4 type  1   force =     0.00107354    0.00061873   -0.00939506
     atom    5 type  1   force =     0.00490552   -0.00283099    0.00511364
     atom    6 type  1   force =    -0.00490529   -0.00283175    0.00511257
     atom    7 type  1   force =    -0.00000020    0.00000244   -0.00230850
     atom    8 type  1   force =    -0.00000063    0.00566046    0.00511130
     atom    9 type  1   force =    -0.07271915   -0.04198661   -0.04316867
     atom   10 type  1   force =     0.07271920   -0.04198596   -0.04317017
     atom   11 type  1   force =     0.00000009    0.08396654   -0.04316909
     atom   12 type  1   force =    -0.00000189    0.00000227   -0.00868502
     atom   13 type  2   force =     0.00000023    0.00000022    0.01411609
     atom   14 type  3   force =     0.00000050    0.00000037    0.14236583

     Total force =     0.217453     Total SCF correction =     0.003615


     entering subroutine stress ...


     negative rho (up, down):  9.465E-04 0.000E+00
          total   stress  (Ry/bohr**3)                   (kbar)     P=    2.16
  -0.00005970  -0.00000000   0.00000000         -8.78     -0.00      0.00
  -0.00000000  -0.00005970  -0.00000000         -0.00     -8.78     -0.00
   0.00000000  -0.00000000   0.00016352          0.00     -0.00     24.05


     BFGS Geometry Optimization

     number of scf cycles    =   1
     number of bfgs steps    =   0

     energy   new            =   -5578.8113740438 Ry

     new trust radius        =       0.1423658273 bohr
     new conv_thr            =       0.0000099958 Ry


ATOMIC_POSITIONS (crystal)
Zn1      0.166666667   0.166666667   0.406869400    0   0   0
Zn1      0.666666667   0.166666667   0.406869400    0   0   0
Zn1      0.166666667   0.666666667   0.406869400    0   0   0
Zn1      0.666666667   0.666666667   0.406869400    0   0   0
Zn1      0.833333333   0.333333333   0.500000000    0   0   0
Zn1      0.333333333   0.333333333   0.500000000    0   0   0
Zn1      0.833333333   0.833333333   0.500000000    0   0   0
Zn1      0.333333333   0.833333333   0.500000000    0   0   0
Zn1     -0.004575456  -0.004575814   0.592201153
Zn1      0.509151239  -0.004575743   0.592201121
Zn1     -0.004575441   0.509150899   0.592201144
Zn1      0.499999698   0.500000247   0.592943607
S1       0.166666677   0.166666691   0.653468108
H1       0.166666693   0.166666708   0.707088077



     Writing output data file calc.save
     Check: negative starting charge=   -0.000739
     NEW-OLD atomic charge density approx. for the potential
     Check: negative starting charge=   -0.000727

     negative rho (up, down):  9.107E-04 0.000E+00
 
     Adding external electric field

     Computed dipole along edir(3) : 
        Dipole                0.3340 Ry au,          0.8489 Debye
        Dipole field          0.0009 Ry au
 
        Potential amp.       -0.0842 Ry
        Total length         45.2844 bohr
 

     total cpu time spent up to now is      365.1 secs

     per-process dynamical memory:   116.3 Mb

     Self-consistent Calculation

     iteration #  1     ecut=    36.75 Ry     beta=0.30
     Davidson diagonalization with overlap
     ethr =  1.00E-06,  avg # of iterations =  5.4

     negative rho (up, down):  9.049E-04 0.000E+00
 
     Adding external electric field

     Computed dipole along edir(3) : 
        Dipole                0.2408 Ry au,          0.6120 Debye
        Dipole field          0.0007 Ry au
 
        Potential amp.       -0.0607 Ry
        Total length         45.2844 bohr
 

     total cpu time spent up to now is      403.1 secs

     total energy              =   -5578.84794901 Ry
     Harris-Foulkes estimate   =   -5578.84874320 Ry
     estimated scf accuracy    <       0.00238098 Ry

     iteration #  2     ecut=    36.75 Ry     beta=0.30
     Davidson diagonalization with overlap
     ethr =  9.64E-07,  avg # of iterations =  4.8

     negative rho (up, down):  9.156E-04 0.000E+00
 
     Adding external electric field

     Computed dipole along edir(3) : 
        Dipole                0.3152 Ry au,          0.8012 Debye
        Dipole field          0.0009 Ry au
 
        Potential amp.       -0.0795 Ry
        Total length         45.2844 bohr
 

     total cpu time spent up to now is      428.8 secs

     total energy              =   -5578.84712860 Ry
     Harris-Foulkes estimate   =   -5578.84908316 Ry
     estimated scf accuracy    <       0.02094395 Ry

     iteration #  3     ecut=    36.75 Ry     beta=0.30
     Davidson diagonalization with overlap
     ethr =  9.64E-07,  avg # of iterations =  4.3

     negative rho (up, down):  9.119E-04 0.000E+00
 
     Adding external electric field

     Computed dipole along edir(3) : 
        Dipole                0.2964 Ry au,          0.7533 Debye
        Dipole field          0.0008 Ry au
 
        Potential amp.       -0.0747 Ry
        Total length         45.2844 bohr
 

     total cpu time spent up to now is      453.6 secs

     total energy              =   -5578.84817220 Ry
     Harris-Foulkes estimate   =   -5578.84837443 Ry
     estimated scf accuracy    <       0.00141422 Ry

     iteration #  4     ecut=    36.75 Ry     beta=0.30
     Davidson diagonalization with overlap
     ethr =  5.73E-07,  avg # of iterations =  2.2

     negative rho (up, down):  9.153E-04 0.000E+00
 
     Adding external electric field

     Computed dipole along edir(3) : 
        Dipole                0.2932 Ry au,          0.7453 Debye
        Dipole field          0.0008 Ry au
 
        Potential amp.       -0.0739 Ry
        Total length         45.2844 bohr
 

     total cpu time spent up to now is      476.5 secs

     total energy              =   -5578.84821947 Ry
     Harris-Foulkes estimate   =   -5578.84829634 Ry
     estimated scf accuracy    <       0.00039016 Ry

     iteration #  5     ecut=    36.75 Ry     beta=0.30
     Davidson diagonalization with overlap
     ethr =  1.58E-07,  avg # of iterations =  2.4

     negative rho (up, down):  9.219E-04 0.000E+00
 
     Adding external electric field

     Computed dipole along edir(3) : 
        Dipole                0.2947 Ry au,          0.7491 Debye
        Dipole field          0.0008 Ry au
 
        Potential amp.       -0.0743 Ry
        Total length         45.2844 bohr
 

     total cpu time spent up to now is      499.6 secs

     total energy              =   -5578.84826224 Ry
     Harris-Foulkes estimate   =   -5578.84825562 Ry
     estimated scf accuracy    <       0.00002333 Ry

     iteration #  6     ecut=    36.75 Ry     beta=0.30
     Davidson diagonalization with overlap
     ethr =  9.45E-09,  avg # of iterations =  2.3

     negative rho (up, down):  9.279E-04 0.000E+00

     negative rho (up, down):  9.279E-04 0.000E+00

     negative rho (up, down):  9.279E-04 0.000E+00

     negative rho (up, down):  9.279E-04 0.000E+00

     negative rho (up, down):  9.279E-04 0.000E+00

     negative rho (up, down):  9.279E-04 0.000E+00

     negative rho (up, down):  9.279E-04 0.000E+00

     negative rho (up, down):  9.279E-04 0.000E+00

     negative rho (up, down):  9.279E-04 0.000E+00

     negative rho (up, down):  9.279E-04 0.000E+00

     negative rho (up, down):  9.279E-04 0.000E+00

     negative rho (up, down):  9.279E-04 0.000E+00

     negative rho (up, down):  9.279E-04 0.000E+00

     negative rho (up, down):  9.279E-04 0.000E+00

     negative rho (up, down):  9.279E-04 0.000E+00

     negative rho (up, down):  9.279E-04 0.000E+00

     negative rho (up, down):  9.279E-04 0.000E+00

     negative rho (up, down):  9.279E-04 0.000E+00

     negative rho (up, down):  9.279E-04 0.000E+00

     negative rho (up, down):  9.279E-04 0.000E+00

     negative rho (up, down):  9.279E-04 0.000E+00

     negative rho (up, down):  9.279E-04 0.000E+00

     negative rho (up, down):  9.279E-04 0.000E+00

     negative rho (up, down):  9.279E-04 0.000E+00

     negative rho (up, down):  9.279E-04 0.000E+00

     negative rho (up, down):  9.279E-04 0.000E+00

     negative rho (up, down):  9.279E-04 0.000E+00

     negative rho (up, down):  9.279E-04 0.000E+00

     negative rho (up, down):  9.279E-04 0.000E+00

     negative rho (up, down):  9.279E-04 0.000E+00

     negative rho (up, down):  9.279E-04 0.000E+00

     negative rho (up, down):  9.279E-04 0.000E+00

     negative rho (up, down):  9.279E-04 0.000E+00

     negative rho (up, down):  9.279E-04 0.000E+00

     negative rho (up, down):  9.279E-04 0.000E+00
 
     Adding external electric field

     Computed dipole along edir(3) : 
        Dipole                0.2995 Ry au,          0.7613 Debye
        Dipole field          0.0008 Ry au
 
        Potential amp.       -0.0755 Ry
        Total length         45.2844 bohr
 

     total cpu time spent up to now is      573.3 secs

     End of self-consistent calculation

          k = 0.0000 0.0000 0.0000 ( 16931 PWs)   bands (ev):

  -125.7564-125.7554-125.7554-125.6235-125.5597-125.5588-125.5588-125.3671
  -125.3662-125.3662-125.3445-125.3089 -79.9697 -79.9588 -79.9588 -79.9254
   -79.9254 -79.9236 -79.9209 -79.9209 -79.9202 -79.8096 -79.7984 -79.7984
   -79.7406 -79.7406 -79.7399 -79.7356 -79.7348 -79.7339 -79.7339 -79.7276
   -79.7276 -79.5571 -79.5561 -79.5561 -79.5471 -79.5430 -79.5430 -79.5350
   -79.5344 -79.5344 -79.5236 -79.5192 -79.5192 -79.4940 -79.4808 -79.4808
   -14.3675  -8.7183  -8.0570  -7.3121  -7.3121  -7.2672  -7.2027  -7.1724
    -7.1724  -7.1184  -7.1117  -7.1117  -7.0850  -6.9335  -6.9335  -6.9104
    -6.8466  -6.8374  -6.8374  -6.6968  -6.6968  -6.6490  -6.6490  -6.6404
    -6.6064  -6.6064  -6.5992  -6.5778  -6.5406  -6.5406  -6.4509  -6.4509
    -6.4040  -6.3914  -6.3914  -6.3645  -6.3645  -6.3147  -6.2283  -6.2283
    -6.1921  -6.1608  -6.1462  -6.1462  -6.0697  -6.0697  -6.0688  -6.0181
    -6.0181  -6.0181  -6.0026  -6.0026  -5.9865  -5.9865  -5.9697  -5.9578
    -5.9578  -5.9303  -5.9303  -5.9137  -5.7844  -5.7778  -5.7778  -5.1524
    -3.3434  -3.3434  -2.6567  -1.4872  -1.4872  -1.3216  -0.9690  -0.8988
    -0.8988  -0.2647   0.1716   0.1716   0.3245   1.0967   1.0967   1.6970
     2.9062   2.9491   2.9491   3.1582   3.2585

          k = 0.0000 0.0343 0.0000 ( 16966 PWs)   bands (ev):

  -125.7563-125.7555-125.7554-125.6235-125.5597-125.5589-125.5588-125.3671
  -125.3663-125.3662-125.3445-125.3089 -79.9691 -79.9594 -79.9589 -79.9253
   -79.9252 -79.9237 -79.9211 -79.9210 -79.9206 -79.8097 -79.7984 -79.7983
   -79.7406 -79.7403 -79.7391 -79.7360 -79.7350 -79.7339 -79.7339 -79.7284
   -79.7279 -79.5572 -79.5562 -79.5562 -79.5465 -79.5426 -79.5425 -79.5357
   -79.5351 -79.5345 -79.5237 -79.5196 -79.5194 -79.4941 -79.4809 -79.4808
   -14.3617  -8.6203  -7.9476  -7.3001  -7.2665  -7.2147  -7.1641  -7.1401
    -7.1302  -7.0923  -7.0758  -7.0492  -7.0434  -6.9364  -6.9072  -6.8812
    -6.8486  -6.8147  -6.8051  -6.6970  -6.6878  -6.6692  -6.6302  -6.6274
    -6.6128  -6.6106  -6.5814  -6.5695  -6.5482  -6.5225  -6.4726  -6.4452
    -6.4434  -6.4184  -6.3857  -6.3604  -6.3502  -6.3229  -6.2793  -6.2711
    -6.2166  -6.1989  -6.1616  -6.1477  -6.0999  -6.0941  -6.0933  -6.0558
    -6.0557  -6.0420  -6.0331  -6.0174  -5.9961  -5.9950  -5.9898  -5.9794
    -5.9676  -5.9509  -5.9406  -5.8853  -5.8340  -5.8275  -5.8176  -5.0642
    -3.7799  -3.4706  -3.0177  -2.3888  -1.9990  -1.9465  -1.2292  -0.4004
    -0.3030   0.0257   0.2362   0.5189   1.0350   1.5882   1.6490   2.1159
     2.6429   2.8899   3.0425   3.3427   4.0979

          k = 0.0000 0.0686 0.0000 ( 16996 PWs)   bands (ev):

  -125.7562-125.7556-125.7554-125.6235-125.5595-125.5590-125.5588-125.3669
  -125.3664-125.3662-125.3445-125.3089 -79.9677 -79.9608 -79.9588 -79.9254
   -79.9245 -79.9234 -79.9217 -79.9216 -79.9208 -79.8097 -79.7983 -79.7980
   -79.7410 -79.7394 -79.7372 -79.7369 -79.7348 -79.7342 -79.7339 -79.7306
   -79.7281 -79.5571 -79.5564 -79.5562 -79.5451 -79.5415 -79.5411 -79.5370
   -79.5370 -79.5345 -79.5237 -79.5206 -79.5196 -79.4941 -79.4810 -79.4809
   -14.3501  -8.4169  -7.6229  -7.2809  -7.1566  -7.1311  -7.0804  -7.0538
    -7.0280  -7.0269  -6.9817  -6.9687  -6.9338  -6.8769  -6.8615  -6.8262
    -6.8156  -6.7629  -6.7328  -6.7285  -6.6838  -6.6729  -6.6382  -6.6179
    -6.6151  -6.5770  -6.5626  -6.5479  -6.5466  -6.4994  -6.4755  -6.4729
    -6.4613  -6.4493  -6.4259  -6.3836  -6.3625  -6.3373  -6.3350  -6.3174
    -6.2761  -6.2435  -6.2380  -6.1865  -6.1736  -6.1581  -6.1327  -6.1186
    -6.1184  -6.0960  -6.0856  -6.0731  -6.0711  -6.0606  -6.0514  -6.0159
    -5.9930  -5.9863  -5.9518  -5.9159  -5.8967  -5.8917  -5.7874  -5.2324
    -4.5446  -3.8132  -3.6856  -2.8030  -2.3888  -2.3052  -1.6311  -0.8037
    -0.4680   0.2899   0.9747   1.6424   1.6689   2.2024   2.2723   3.1694
     3.4719   3.5218   3.7887   4.1906   4.7242

          k = 0.0000-0.1030 0.0000 ( 17028 PWs)   bands (ev):

  -125.7561-125.7557-125.7554-125.6235-125.5594-125.5591-125.5588-125.3668
  -125.3665-125.3662-125.3445-125.3089 -79.9667 -79.9619 -79.9588 -79.9254
   -79.9240 -79.9232 -79.9222 -79.9221 -79.9208 -79.8097 -79.7982 -79.7980
   -79.7411 -79.7384 -79.7379 -79.7355 -79.7348 -79.7343 -79.7339 -79.7326
   -79.7282 -79.5570 -79.5566 -79.5562 -79.5443 -79.5399 -79.5396 -79.5391
   -79.5386 -79.5344 -79.5238 -79.5212 -79.5197 -79.4941 -79.4811 -79.4809
   -14.3443  -8.3125  -7.4027  -7.1822  -7.1081  -7.0836  -7.0728  -7.0064
    -6.9643  -6.9588  -6.9012  -6.8973  -6.8850  -6.8463  -6.8443  -6.7985
    -6.7838  -6.7572  -6.7324  -6.6919  -6.6778  -6.6728  -6.6557  -6.6341
    -6.6203  -6.5742  -6.5623  -6.5441  -6.5392  -6.5202  -6.4971  -6.4716
    -6.4282  -6.4137  -6.3943  -6.3808  -6.3738  -6.3532  -6.3353  -6.3197
    -6.2945  -6.2933  -6.2568  -6.2333  -6.2217  -6.2188  -6.2006  -6.1496
    -6.1429  -6.1327  -6.1225  -6.1180  -6.0906  -6.0868  -6.0615  -6.0543
    -6.0248  -6.0187  -5.9871  -5.9656  -5.9450  -5.9047  -5.8970  -5.4697
    -4.8953  -3.7766  -3.7736  -3.1113  -2.7135  -2.5122  -1.4250  -0.7622
    -0.5561  -0.2674   1.3548   2.1180   2.1484   2.8306   3.5076   3.5764
     3.5831   3.7022   4.1969   4.5313   4.7071

          k = 0.0297-0.0172 0.0000 ( 16966 PWs)   bands (ev):

  -125.7563-125.7555-125.7554-125.6235-125.5597-125.5589-125.5588-125.3671
  -125.3663-125.3662-125.3445-125.3089 -79.9691 -79.9594 -79.9589 -79.9253
   -79.9252 -79.9237 -79.9211 -79.9210 -79.9206 -79.8097 -79.7984 -79.7983
   -79.7406 -79.7403 -79.7391 -79.7360 -79.7350 -79.7339 -79.7339 -79.7284
   -79.7279 -79.5572 -79.5562 -79.5562 -79.5465 -79.5426 -79.5425 -79.5357
   -79.5351 -79.5345 -79.5237 -79.5196 -79.5194 -79.4941 -79.4809 -79.4808
   -14.3617  -8.6203  -7.9476  -7.3001  -7.2665  -7.2147  -7.1641  -7.1401
    -7.1302  -7.0923  -7.0758  -7.0492  -7.0434  -6.9364  -6.9072  -6.8812
    -6.8486  -6.8147  -6.8051  -6.6970  -6.6878  -6.6692  -6.6302  -6.6274
    -6.6128  -6.6106  -6.5814  -6.5695  -6.5482  -6.5225  -6.4726  -6.4452
    -6.4434  -6.4184  -6.3857  -6.3604  -6.3502  -6.3229  -6.2793  -6.2711
    -6.2166  -6.1989  -6.1616  -6.1477  -6.0999  -6.0941  -6.0933  -6.0558
    -6.0557  -6.0420  -6.0331  -6.0174  -5.9961  -5.9950  -5.9898  -5.9794
    -5.9676  -5.9509  -5.9406  -5.8853  -5.8340  -5.8275  -5.8176  -5.0642
    -3.7799  -3.4706  -3.0177  -2.3888  -1.9990  -1.9465  -1.2292  -0.4004
    -0.3030   0.0257   0.2362   0.5189   1.0350   1.5882   1.6490   2.1159
     2.6429   2.8899   3.0425   3.3427   4.0979

          k = 0.0297 0.0172 0.0000 ( 16966 PWs)   bands (ev):

  -125.7563-125.7555-125.7554-125.6235-125.5597-125.5589-125.5588-125.3671
  -125.3663-125.3662-125.3445-125.3089 -79.9691 -79.9594 -79.9589 -79.9253
   -79.9252 -79.9237 -79.9211 -79.9210 -79.9206 -79.8097 -79.7984 -79.7983
   -79.7406 -79.7403 -79.7391 -79.7360 -79.7350 -79.7339 -79.7339 -79.7284
   -79.7279 -79.5572 -79.5562 -79.5562 -79.5465 -79.5426 -79.5425 -79.5357
   -79.5351 -79.5345 -79.5237 -79.5196 -79.5194 -79.4941 -79.4809 -79.4808
   -14.3617  -8.6203  -7.9476  -7.3001  -7.2665  -7.2147  -7.1641  -7.1401
    -7.1302  -7.0923  -7.0758  -7.0492  -7.0434  -6.9364  -6.9072  -6.8812
    -6.8486  -6.8147  -6.8051  -6.6970  -6.6878  -6.6692  -6.6302  -6.6274
    -6.6128  -6.6106  -6.5814  -6.5695  -6.5482  -6.5225  -6.4726  -6.4452
    -6.4434  -6.4184  -6.3857  -6.3604  -6.3502  -6.3228  -6.2793  -6.2711
    -6.2166  -6.1989  -6.1616  -6.1477  -6.0999  -6.0941  -6.0933  -6.0558
    -6.0557  -6.0420  -6.0331  -6.0174  -5.9961  -5.9950  -5.9898  -5.9794
    -5.9676  -5.9509  -5.9406  -5.8853  -5.8340  -5.8275  -5.8176  -5.0642
    -3.7799  -3.4706  -3.0177  -2.3888  -1.9990  -1.9465  -1.2292  -0.4004
    -0.3030   0.0257   0.2362   0.5189   1.0350   1.5882   1.6490   2.1159
     2.6429   2.8899   3.0425   3.3427   4.0979

          k = 0.0297 0.0515 0.0000 ( 16978 PWs)   bands (ev):

  -125.7562-125.7555-125.7554-125.6235-125.5596-125.5590-125.5588-125.3670
  -125.3664-125.3662-125.3445-125.3089 -79.9681 -79.9604 -79.9588 -79.9253
   -79.9247 -79.9234 -79.9216 -79.9211 -79.9210 -79.8097 -79.7983 -79.7981
   -79.7407 -79.7399 -79.7378 -79.7367 -79.7348 -79.7341 -79.7339 -79.7298
   -79.7281 -79.5570 -79.5564 -79.5562 -79.5455 -79.5420 -79.5414 -79.5370
   -79.5355 -79.5350 -79.5237 -79.5202 -79.5196 -79.4941 -79.4809 -79.4809
   -14.3530  -8.4693  -7.7247  -7.2826  -7.1935  -7.1400  -7.0920  -7.0864
    -7.0549  -7.0461  -7.0169  -6.9859  -6.9641  -6.8901  -6.8820  -6.8332
    -6.8169  -6.7902  -6.7500  -6.7044  -6.6903  -6.6800  -6.6513  -6.6233
    -6.6051  -6.5810  -6.5642  -6.5594  -6.5367  -6.5093  -6.4873  -6.4767
    -6.4542  -6.4248  -6.4216  -6.3895  -6.3504  -6.3409  -6.3232  -6.3216
    -6.2643  -6.2230  -6.1994  -6.1823  -6.1642  -6.1417  -6.1231  -6.0995
    -6.0890  -6.0838  -6.0774  -6.0671  -6.0375  -6.0277  -6.0174  -6.0030
    -5.9918  -5.9619  -5.9535  -5.9234  -5.8874  -5.8803  -5.8087  -5.0256
    -4.2379  -3.9584  -3.4823  -3.3733  -2.0360  -1.7692  -1.4734  -0.7075
    -0.4344   0.3707   0.6191   1.0408   1.4012   1.8851   2.6036   2.7054
     3.3568   3.5548   3.7353   3.9185   4.2498

          k = 0.0297-0.1201 0.0000 ( 16986 PWs)   bands (ev):

  -125.7561-125.7557-125.7554-125.6235-125.5594-125.5591-125.5588-125.3668
  -125.3665-125.3662-125.3445-125.3089 -79.9666 -79.9619 -79.9587 -79.9253
   -79.9241 -79.9232 -79.9222 -79.9217 -79.9211 -79.8097 -79.7982 -79.7980
   -79.7408 -79.7390 -79.7377 -79.7356 -79.7347 -79.7343 -79.7339 -79.7320
   -79.7284 -79.5569 -79.5565 -79.5562 -79.5440 -79.5412 -79.5395 -79.5390
   -79.5371 -79.5350 -79.5237 -79.5209 -79.5199 -79.4941 -79.4811 -79.4809
   -14.3443  -8.3159  -7.4148  -7.2004  -7.1124  -7.0648  -7.0296  -7.0069
    -6.9659  -6.9470  -6.9382  -6.9106  -6.8673  -6.8583  -6.8143  -6.7938
    -6.7699  -6.7544  -6.7415  -6.7212  -6.6885  -6.6776  -6.6609  -6.6313
    -6.6175  -6.5919  -6.5673  -6.5430  -6.5331  -6.5293  -6.5103  -6.4739
    -6.4594  -6.4328  -6.4205  -6.3935  -6.3730  -6.3576  -6.3511  -6.3384
    -6.3029  -6.2806  -6.2686  -6.2271  -6.2151  -6.2013  -6.1737  -6.1619
    -6.1473  -6.1289  -6.1116  -6.1082  -6.0861  -6.0754  -6.0540  -6.0199
    -6.0134  -5.9945  -5.9866  -5.9559  -5.9432  -5.9148  -5.7488  -5.3445
    -4.7882  -4.4085  -3.7260  -3.4764  -2.7654  -1.9743  -1.1944  -0.8262
    -0.2838   0.6843   0.9257   1.2059   1.9369   2.7728   2.9217   3.3027
     3.5796   3.9518   4.0784   4.5247   4.8105

          k = 0.0297-0.0858 0.0000 ( 16986 PWs)   bands (ev):

  -125.7561-125.7557-125.7554-125.6235-125.5594-125.5591-125.5588-125.3668
  -125.3665-125.3662-125.3445-125.3089 -79.9666 -79.9619 -79.9587 -79.9253
   -79.9241 -79.9232 -79.9222 -79.9217 -79.9211 -79.8097 -79.7982 -79.7980
   -79.7408 -79.7390 -79.7377 -79.7356 -79.7347 -79.7343 -79.7339 -79.7320
   -79.7284 -79.5569 -79.5565 -79.5562 -79.5440 -79.5412 -79.5395 -79.5390
   -79.5371 -79.5350 -79.5237 -79.5209 -79.5199 -79.4941 -79.4811 -79.4809
   -14.3443  -8.3159  -7.4148  -7.2004  -7.1124  -7.0648  -7.0296  -7.0069
    -6.9659  -6.9470  -6.9382  -6.9106  -6.8673  -6.8583  -6.8143  -6.7938
    -6.7699  -6.7544  -6.7415  -6.7212  -6.6885  -6.6776  -6.6609  -6.6313
    -6.6175  -6.5919  -6.5673  -6.5430  -6.5331  -6.5293  -6.5103  -6.4739
    -6.4594  -6.4328  -6.4205  -6.3935  -6.3730  -6.3576  -6.3511  -6.3384
    -6.3029  -6.2806  -6.2686  -6.2271  -6.2151  -6.2013  -6.1737  -6.1619
    -6.1473  -6.1289  -6.1116  -6.1082  -6.0861  -6.0754  -6.0540  -6.0199
    -6.0134  -5.9945  -5.9866  -5.9559  -5.9432  -5.9148  -5.7488  -5.3445
    -4.7882  -4.4086  -3.7260  -3.4764  -2.7654  -1.9743  -1.1944  -0.8262
    -0.2838   0.6843   0.9257   1.2059   1.9369   2.7728   2.9217   3.3027
     3.5796   3.9518   4.0784   4.5247   4.8105

          k = 0.0297-0.0515 0.0000 ( 16978 PWs)   bands (ev):

  -125.7562-125.7555-125.7554-125.6235-125.5596-125.5590-125.5588-125.3670
  -125.3664-125.3662-125.3445-125.3089 -79.9681 -79.9604 -79.9588 -79.9253
   -79.9247 -79.9234 -79.9216 -79.9211 -79.9210 -79.8097 -79.7983 -79.7981
   -79.7407 -79.7399 -79.7378 -79.7367 -79.7348 -79.7341 -79.7339 -79.7298
   -79.7281 -79.5570 -79.5564 -79.5562 -79.5455 -79.5420 -79.5414 -79.5370
   -79.5355 -79.5350 -79.5237 -79.5202 -79.5196 -79.4941 -79.4809 -79.4809
   -14.3530  -8.4693  -7.7247  -7.2826  -7.1935  -7.1400  -7.0920  -7.0864
    -7.0549  -7.0461  -7.0169  -6.9859  -6.9641  -6.8901  -6.8820  -6.8332
    -6.8169  -6.7902  -6.7500  -6.7044  -6.6903  -6.6800  -6.6513  -6.6233
    -6.6051  -6.5810  -6.5642  -6.5594  -6.5367  -6.5093  -6.4873  -6.4767
    -6.4542  -6.4248  -6.4216  -6.3895  -6.3504  -6.3409  -6.3232  -6.3216
    -6.2643  -6.2230  -6.1994  -6.1823  -6.1642  -6.1417  -6.1231  -6.0995
    -6.0890  -6.0838  -6.0774  -6.0671  -6.0375  -6.0277  -6.0174  -6.0030
    -5.9918  -5.9619  -5.9535  -5.9234  -5.8874  -5.8803  -5.8087  -5.0256
    -4.2379  -3.9584  -3.4823  -3.3733  -2.0360  -1.7692  -1.4734  -0.7075
    -0.4344   0.3707   0.6191   1.0408   1.4012   1.8851   2.6036   2.7054
     3.3568   3.5548   3.7353   3.9185   4.2498

          k = 0.0595-0.0343 0.0000 ( 16996 PWs)   bands (ev):

  -125.7562-125.7556-125.7554-125.6235-125.5595-125.5590-125.5588-125.3669
  -125.3664-125.3662-125.3445-125.3089 -79.9677 -79.9608 -79.9588 -79.9254
   -79.9245 -79.9234 -79.9217 -79.9216 -79.9208 -79.8097 -79.7983 -79.7980
   -79.7410 -79.7394 -79.7372 -79.7369 -79.7348 -79.7342 -79.7339 -79.7306
   -79.7281 -79.5571 -79.5564 -79.5562 -79.5451 -79.5415 -79.5410 -79.5370
   -79.5370 -79.5345 -79.5237 -79.5206 -79.5196 -79.4941 -79.4810 -79.4809
   -14.3501  -8.4169  -7.6229  -7.2809  -7.1566  -7.1311  -7.0804  -7.0538
    -7.0280  -7.0269  -6.9817  -6.9687  -6.9338  -6.8769  -6.8615  -6.8262
    -6.8156  -6.7629  -6.7328  -6.7285  -6.6838  -6.6729  -6.6382  -6.6179
    -6.6151  -6.5770  -6.5626  -6.5479  -6.5466  -6.4994  -6.4755  -6.4729
    -6.4613  -6.4493  -6.4259  -6.3836  -6.3625  -6.3373  -6.3350  -6.3174
    -6.2761  -6.2435  -6.2380  -6.1865  -6.1736  -6.1581  -6.1327  -6.1186
    -6.1184  -6.0960  -6.0856  -6.0731  -6.0711  -6.0606  -6.0514  -6.0159
    -5.9930  -5.9863  -5.9518  -5.9159  -5.8967  -5.8917  -5.7874  -5.2324
    -4.5446  -3.8132  -3.6856  -2.8030  -2.3888  -2.3052  -1.6311  -0.8037
    -0.4680   0.2899   0.9747   1.6424   1.6689   2.2024   2.2723   3.1694
     3.4719   3.5218   3.7887   4.1906   4.7242

          k = 0.0595 0.0000 0.0000 ( 16978 PWs)   bands (ev):

  -125.7562-125.7555-125.7554-125.6235-125.5596-125.5590-125.5588-125.3670
  -125.3664-125.3662-125.3445-125.3089 -79.9681 -79.9604 -79.9588 -79.9253
   -79.9247 -79.9234 -79.9216 -79.9211 -79.9210 -79.8097 -79.7983 -79.7981
   -79.7407 -79.7399 -79.7378 -79.7367 -79.7348 -79.7341 -79.7339 -79.7298
   -79.7281 -79.5570 -79.5564 -79.5562 -79.5455 -79.5420 -79.5414 -79.5370
   -79.5355 -79.5350 -79.5237 -79.5202 -79.5196 -79.4941 -79.4809 -79.4809
   -14.3530  -8.4693  -7.7247  -7.2826  -7.1935  -7.1400  -7.0920  -7.0864
    -7.0549  -7.0461  -7.0169  -6.9859  -6.9641  -6.8901  -6.8820  -6.8332
    -6.8169  -6.7902  -6.7500  -6.7044  -6.6903  -6.6800  -6.6513  -6.6233
    -6.6051  -6.5810  -6.5642  -6.5594  -6.5367  -6.5093  -6.4873  -6.4767
    -6.4542  -6.4248  -6.4216  -6.3895  -6.3504  -6.3409  -6.3232  -6.3216
    -6.2643  -6.2230  -6.1994  -6.1823  -6.1642  -6.1417  -6.1231  -6.0995
    -6.0890  -6.0838  -6.0774  -6.0671  -6.0375  -6.0277  -6.0174  -6.0030
    -5.9918  -5.9619  -5.9535  -5.9234  -5.8874  -5.8803  -5.8087  -5.0256
    -4.2379  -3.9584  -3.4823  -3.3733  -2.0360  -1.7692  -1.4734  -0.7075
    -0.4344   0.3707   0.6191   1.0408   1.4012   1.8851   2.6036   2.7054
     3.3568   3.5548   3.7353   3.9185   4.2498

          k = 0.0595 0.0343 0.0000 ( 16996 PWs)   bands (ev):

  -125.7562-125.7556-125.7554-125.6235-125.5595-125.5590-125.5588-125.3669
  -125.3664-125.3662-125.3445-125.3089 -79.9677 -79.9608 -79.9588 -79.9254
   -79.9245 -79.9234 -79.9217 -79.9216 -79.9208 -79.8097 -79.7983 -79.7980
   -79.7410 -79.7394 -79.7372 -79.7369 -79.7348 -79.7342 -79.7339 -79.7306
   -79.7281 -79.5571 -79.5564 -79.5562 -79.5451 -79.5415 -79.5410 -79.5370
   -79.5370 -79.5345 -79.5237 -79.5206 -79.5196 -79.4941 -79.4810 -79.4809
   -14.3501  -8.4169  -7.6229  -7.2809  -7.1566  -7.1311  -7.0804  -7.0538
    -7.0280  -7.0269  -6.9817  -6.9687  -6.9338  -6.8769  -6.8615  -6.8262
    -6.8156  -6.7629  -6.7328  -6.7285  -6.6838  -6.6729  -6.6382  -6.6179
    -6.6151  -6.5770  -6.5626  -6.5479  -6.5466  -6.4994  -6.4755  -6.4729
    -6.4613  -6.4493  -6.4259  -6.3836  -6.3625  -6.3373  -6.3350  -6.3174
    -6.2761  -6.2435  -6.2380  -6.1865  -6.1736  -6.1581  -6.1327  -6.1186
    -6.1184  -6.0960  -6.0856  -6.0731  -6.0711  -6.0606  -6.0514  -6.0159
    -5.9930  -5.9863  -5.9518  -5.9159  -5.8967  -5.8917  -5.7874  -5.2324
    -4.5446  -3.8132  -3.6856  -2.8030  -2.3888  -2.3052  -1.6311  -0.8037
    -0.4680   0.2899   0.9747   1.6424   1.6689   2.2024   2.2723   3.1694
     3.4719   3.5218   3.7887   4.1906   4.7242

          k = 0.0595-0.1373 0.0000 ( 16986 PWs)   bands (ev):

  -125.7561-125.7557-125.7554-125.6235-125.5594-125.5591-125.5588-125.3668
  -125.3665-125.3662-125.3445-125.3089 -79.9666 -79.9619 -79.9587 -79.9253
   -79.9241 -79.9232 -79.9222 -79.9217 -79.9211 -79.8097 -79.7982 -79.7980
   -79.7408 -79.7390 -79.7377 -79.7356 -79.7347 -79.7343 -79.7339 -79.7320
   -79.7284 -79.5569 -79.5565 -79.5562 -79.5440 -79.5412 -79.5395 -79.5390
   -79.5371 -79.5350 -79.5237 -79.5209 -79.5199 -79.4941 -79.4811 -79.4809
   -14.3443  -8.3159  -7.4148  -7.2004  -7.1124  -7.0648  -7.0296  -7.0069
    -6.9659  -6.9470  -6.9382  -6.9106  -6.8673  -6.8583  -6.8143  -6.7938
    -6.7699  -6.7544  -6.7415  -6.7212  -6.6885  -6.6776  -6.6609  -6.6313
    -6.6175  -6.5919  -6.5673  -6.5430  -6.5331  -6.5293  -6.5103  -6.4739
    -6.4594  -6.4328  -6.4205  -6.3935  -6.3730  -6.3576  -6.3511  -6.3384
    -6.3029  -6.2806  -6.2686  -6.2271  -6.2151  -6.2013  -6.1737  -6.1619
    -6.1473  -6.1289  -6.1116  -6.1082  -6.0861  -6.0754  -6.0540  -6.0199
    -6.0134  -5.9945  -5.9866  -5.9559  -5.9432  -5.9148  -5.7488  -5.3445
    -4.7882  -4.4085  -3.7260  -3.4764  -2.7654  -1.9743  -1.1944  -0.8262
    -0.2838   0.6843   0.9257   1.2059   1.9369   2.7728   2.9217   3.3027
     3.5796   3.9518   4.0784   4.5247   4.8105

          k = 0.0595-0.1030 0.0000 ( 17004 PWs)   bands (ev):

  -125.7561-125.7557-125.7554-125.6235-125.5593-125.5593-125.5588-125.3667
  -125.3667-125.3662-125.3445-125.3089 -79.9659 -79.9627 -79.9588 -79.9253
   -79.9240 -79.9232 -79.9220 -79.9219 -79.9214 -79.8097 -79.7981 -79.7981
   -79.7404 -79.7388 -79.7387 -79.7345 -79.7344 -79.7339 -79.7337 -79.7337
   -79.7288 -79.5567 -79.5567 -79.5562 -79.5424 -79.5424 -79.5399 -79.5376
   -79.5376 -79.5362 -79.5237 -79.5206 -79.5206 -79.4941 -79.4811 -79.4811
   -14.3414  -8.2668  -7.3810  -7.0944  -7.0174  -6.9968  -6.9855  -6.9739
    -6.9422  -6.9081  -6.8923  -6.8391  -6.8341  -6.8208  -6.8127  -6.7930
    -6.7649  -6.7641  -6.7503  -6.7052  -6.6899  -6.6812  -6.6750  -6.6724
    -6.6385  -6.6330  -6.6326  -6.5652  -6.5503  -6.5383  -6.5015  -6.4463
    -6.4391  -6.4237  -6.4068  -6.4044  -6.3921  -6.3715  -6.3677  -6.3608
    -6.3595  -6.3175  -6.2783  -6.2639  -6.2555  -6.1927  -6.1867  -6.1865
    -6.1647  -6.1304  -6.1246  -6.0846  -6.0841  -6.0420  -6.0303  -6.0229
    -6.0141  -6.0000  -5.9963  -5.9850  -5.9609  -5.8736  -5.5954  -5.5336
    -5.0414  -4.4656  -4.4185  -2.9290  -2.9278  -2.6919  -0.5579  -0.5393
     0.0688   1.0474   1.0505   1.0663   2.1583   2.3824   2.5096   3.0102
     3.2970   3.4465   4.4453   4.5585   4.7093

          k = 0.0595-0.0686 0.0000 ( 16986 PWs)   bands (ev):

  -125.7561-125.7557-125.7554-125.6235-125.5594-125.5591-125.5588-125.3668
  -125.3665-125.3662-125.3445-125.3089 -79.9666 -79.9619 -79.9587 -79.9253
   -79.9241 -79.9232 -79.9222 -79.9217 -79.9211 -79.8097 -79.7982 -79.7980
   -79.7408 -79.7390 -79.7377 -79.7356 -79.7347 -79.7343 -79.7339 -79.7320
   -79.7284 -79.5569 -79.5565 -79.5562 -79.5440 -79.5412 -79.5395 -79.5390
   -79.5371 -79.5350 -79.5237 -79.5209 -79.5199 -79.4941 -79.4811 -79.4809
   -14.3443  -8.3159  -7.4148  -7.2004  -7.1124  -7.0648  -7.0296  -7.0069
    -6.9659  -6.9470  -6.9382  -6.9106  -6.8673  -6.8583  -6.8143  -6.7938
    -6.7699  -6.7544  -6.7415  -6.7212  -6.6885  -6.6776  -6.6609  -6.6313
    -6.6175  -6.5919  -6.5673  -6.5430  -6.5331  -6.5293  -6.5103  -6.4739
    -6.4594  -6.4328  -6.4205  -6.3935  -6.3730  -6.3576  -6.3511  -6.3384
    -6.3029  -6.2806  -6.2686  -6.2271  -6.2151  -6.2013  -6.1737  -6.1619
    -6.1473  -6.1289  -6.1116  -6.1082  -6.0861  -6.0754  -6.0540  -6.0199
    -6.0134  -5.9945  -5.9866  -5.9559  -5.9432  -5.9148  -5.7488  -5.3445
    -4.7882  -4.4085  -3.7260  -3.4764  -2.7654  -1.9743  -1.1944  -0.8262
    -0.2838   0.6844   0.9257   1.2059   1.9369   2.7728   2.9217   3.3027
     3.5796   3.9518   4.0784   4.5247   4.8105

          k =-0.0892 0.0515 0.0000 ( 17028 PWs)   bands (ev):

  -125.7561-125.7557-125.7554-125.6235-125.5594-125.5591-125.5588-125.3668
  -125.3665-125.3662-125.3445-125.3089 -79.9667 -79.9619 -79.9588 -79.9254
   -79.9240 -79.9232 -79.9222 -79.9221 -79.9208 -79.8097 -79.7982 -79.7980
   -79.7411 -79.7384 -79.7379 -79.7355 -79.7348 -79.7343 -79.7339 -79.7326
   -79.7282 -79.5570 -79.5566 -79.5562 -79.5443 -79.5399 -79.5396 -79.5391
   -79.5386 -79.5344 -79.5238 -79.5212 -79.5197 -79.4941 -79.4811 -79.4809
   -14.3443  -8.3125  -7.4027  -7.1822  -7.1081  -7.0836  -7.0728  -7.0064
    -6.9643  -6.9588  -6.9012  -6.8973  -6.8850  -6.8463  -6.8443  -6.7985
    -6.7838  -6.7572  -6.7324  -6.6919  -6.6778  -6.6728  -6.6557  -6.6341
    -6.6203  -6.5742  -6.5623  -6.5441  -6.5392  -6.5202  -6.4971  -6.4716
    -6.4282  -6.4137  -6.3943  -6.3808  -6.3739  -6.3532  -6.3353  -6.3197
    -6.2945  -6.2933  -6.2568  -6.2333  -6.2217  -6.2188  -6.2006  -6.1496
    -6.1429  -6.1327  -6.1225  -6.1180  -6.0906  -6.0868  -6.0615  -6.0543
    -6.0248  -6.0187  -5.9871  -5.9656  -5.9450  -5.9047  -5.8970  -5.4697
    -4.8953  -3.7766  -3.7736  -3.1113  -2.7135  -2.5122  -1.4250  -0.7622
    -0.5561  -0.2674   1.3548   2.1180   2.1484   2.8306   3.5076   3.5764
     3.5831   3.7022   4.1969   4.5313   4.7071

          k =-0.0892 0.0858 0.0000 ( 16986 PWs)   bands (ev):

  -125.7561-125.7557-125.7554-125.6235-125.5594-125.5591-125.5588-125.3668
  -125.3665-125.3662-125.3445-125.3089 -79.9666 -79.9619 -79.9587 -79.9253
   -79.9241 -79.9232 -79.9222 -79.9217 -79.9211 -79.8097 -79.7982 -79.7980
   -79.7408 -79.7390 -79.7377 -79.7356 -79.7347 -79.7343 -79.7339 -79.7320
   -79.7284 -79.5569 -79.5565 -79.5562 -79.5440 -79.5412 -79.5395 -79.5390
   -79.5371 -79.5350 -79.5237 -79.5209 -79.5199 -79.4941 -79.4811 -79.4809
   -14.3443  -8.3159  -7.4148  -7.2004  -7.1124  -7.0648  -7.0296  -7.0069
[...]
    -7.2442  -7.2351  -7.2069  -7.1659  -7.1521  -7.0885  -7.0507  -7.0134
    -7.0059  -6.9777  -6.9460  -6.9365  -6.9072  -6.8947  -6.8700  -6.8511
    -6.8399  -6.8278  -6.8096  -6.7896  -6.7652  -6.7641  -6.7201  -6.7191
    -6.7000  -6.6763  -6.6627  -6.6166  -6.6154  -6.5763  -6.5683  -6.5548
    -6.5331  -6.5289  -6.5169  -6.5008  -6.4847  -6.4829  -6.4619  -6.4599
    -6.4530  -6.4459  -6.4295  -6.4277  -6.3954  -6.3858  -6.3733  -6.3391
    -6.3208  -6.3049  -6.2846  -6.2771  -6.2636  -6.2606  -5.9303  -5.2959
    -4.7836  -3.6475  -2.9801  -2.9659  -2.5279  -2.2768  -1.8091  -1.1353
    -0.7062  -0.3127   0.6575   1.2673   1.3855   1.7230   1.7460   2.8848
     3.1812   3.2517   3.8207   3.9481   4.4579

          k = 0.0595-0.1373 0.0000 ( 16986 PWs)   bands (ev):

  -125.9350-125.9107-125.9104-125.9101-125.7708-125.7705-125.7702-125.7598
  -125.7589-125.7587-125.7401-125.6544 -80.1218 -80.1096 -80.1090 -80.0910
   -80.0892 -80.0882 -80.0878 -80.0874 -80.0873 -80.0868 -80.0850 -80.0819
   -79.9628 -79.9625 -79.9621 -79.9607 -79.9514 -79.9490 -79.9457 -79.9440
   -79.9425 -79.9419 -79.9397 -79.9373 -79.9367 -79.9363 -79.9331 -79.9311
   -79.9300 -79.9299 -79.9239 -79.9147 -79.9141 -79.8453 -79.8238 -79.8235
   -12.8510  -7.5091  -7.3126  -7.2850  -7.2146  -7.2087  -7.1925  -7.1865
    -7.1726  -7.1535  -7.1327  -7.1284  -7.0984  -7.0429  -7.0358  -7.0101
    -6.9953  -6.9686  -6.9460  -6.9002  -6.8875  -6.8786  -6.8736  -6.8574
    -6.8485  -6.8385  -6.8188  -6.7914  -6.7739  -6.7673  -6.7564  -6.7428
    -6.7277  -6.7011  -6.6670  -6.6487  -6.6323  -6.6180  -6.6122  -6.5971
    -6.5839  -6.5715  -6.5596  -6.5358  -6.5198  -6.5077  -6.4908  -6.4866
    -6.4686  -6.4538  -6.4478  -6.4278  -6.4190  -6.3985  -6.3785  -6.3661
    -6.3591  -6.3399  -6.3224  -6.3029  -6.2929  -6.2786  -5.8201  -5.5446
    -4.8616  -4.4953  -3.8291  -3.1269  -2.5528  -1.8827  -1.5715  -1.1047
    -0.7957   0.0388   0.6055   1.0184   1.4409   2.3719   2.6097   3.0152
     3.2548   3.4763   4.2781   4.3735   4.6468

          k = 0.0595-0.1030 0.0000 ( 17004 PWs)   bands (ev):

  -125.9350-125.9106-125.9106-125.9101-125.7706-125.7706-125.7702-125.7598
  -125.7589-125.7587-125.7401-125.6544 -80.1218 -80.1092 -80.1092 -80.0894
   -80.0894 -80.0894 -80.0879 -80.0879 -80.0874 -80.0856 -80.0856 -80.0826
   -79.9626 -79.9626 -79.9622 -79.9604 -79.9518 -79.9489 -79.9442 -79.9442
   -79.9437 -79.9407 -79.9406 -79.9374 -79.9374 -79.9363 -79.9334 -79.9310
   -79.9301 -79.9299 -79.9239 -79.9146 -79.9146 -79.8453 -79.8237 -79.8237
   -12.8486  -7.2364  -7.1871  -7.1807  -7.1789  -7.1538  -7.1468  -7.1401
    -7.1253  -7.1054  -7.1029  -7.1008  -7.0847  -7.0788  -7.0786  -7.0602
    -7.0028  -6.9635  -6.9523  -6.9433  -6.9286  -6.8635  -6.8588  -6.8546
    -6.8486  -6.8173  -6.8138  -6.8028  -6.7978  -6.7859  -6.7686  -6.7600
    -6.7400  -6.7197  -6.6964  -6.6840  -6.6697  -6.6679  -6.6573  -6.6415
    -6.6252  -6.6003  -6.5521  -6.5349  -6.5306  -6.5018  -6.5011  -6.4989
    -6.4836  -6.4759  -6.4427  -6.4245  -6.3962  -6.3827  -6.3827  -6.3763
    -6.3750  -6.3407  -6.3372  -6.3317  -6.2978  -5.9357  -5.7734  -5.7497
    -5.3210  -4.5051  -4.3387  -3.2840  -2.4821  -2.3843  -0.9664  -0.8893
    -0.8067   0.8080   0.8178   0.9630   1.8768   2.1430   2.4841   2.4900
     2.7530   2.7959   4.3710   4.4947   4.7620

          k = 0.0595-0.0686 0.0000 ( 16986 PWs)   bands (ev):

  -125.9350-125.9107-125.9104-125.9101-125.7708-125.7705-125.7702-125.7598
  -125.7589-125.7587-125.7401-125.6544 -80.1218 -80.1096 -80.1090 -80.0910
   -80.0892 -80.0882 -80.0878 -80.0874 -80.0873 -80.0868 -80.0850 -80.0819
   -79.9628 -79.9625 -79.9621 -79.9607 -79.9514 -79.9490 -79.9457 -79.9440
   -79.9425 -79.9419 -79.9397 -79.9373 -79.9367 -79.9363 -79.9331 -79.9311
   -79.9300 -79.9299 -79.9239 -79.9147 -79.9141 -79.8453 -79.8238 -79.8235
   -12.8510  -7.5091  -7.3126  -7.2850  -7.2146  -7.2087  -7.1925  -7.1865
    -7.1726  -7.1535  -7.1327  -7.1284  -7.0984  -7.0429  -7.0358  -7.0101
    -6.9953  -6.9686  -6.9460  -6.9002  -6.8875  -6.8786  -6.8736  -6.8574
    -6.8485  -6.8385  -6.8188  -6.7914  -6.7739  -6.7673  -6.7564  -6.7428
    -6.7277  -6.7011  -6.6670  -6.6487  -6.6323  -6.6180  -6.6122  -6.5971
    -6.5839  -6.5715  -6.5596  -6.5358  -6.5198  -6.5077  -6.4908  -6.4866
    -6.4686  -6.4538  -6.4478  -6.4278  -6.4190  -6.3985  -6.3785  -6.3661
    -6.3591  -6.3399  -6.3224  -6.3029  -6.2929  -6.2786  -5.8201  -5.5446
    -4.8616  -4.4953  -3.8291  -3.1269  -2.5528  -1.8827  -1.5715  -1.1047
    -0.7957   0.0388   0.6055   1.0184   1.4409   2.3719   2.6097   3.0152
     3.2548   3.4763   4.2781   4.3735   4.6468

          k =-0.0892 0.0515 0.0000 ( 17028 PWs)   bands (ev):

  -125.9350-125.9107-125.9104-125.9101-125.7708-125.7705-125.7702-125.7598
  -125.7589-125.7587-125.7401-125.6544 -80.1218 -80.1098 -80.1088 -80.0916
   -80.0883 -80.0878 -80.0877 -80.0874 -80.0873 -80.0867 -80.0863 -80.0816
   -79.9629 -79.9625 -79.9621 -79.9607 -79.9514 -79.9491 -79.9462 -79.9430
   -79.9423 -79.9417 -79.9411 -79.9373 -79.9364 -79.9363 -79.9331 -79.9312
   -79.9301 -79.9298 -79.9239 -79.9149 -79.9139 -79.8453 -79.8238 -79.8235
   -12.8510  -7.4347  -7.4071  -7.3117  -7.2179  -7.2155  -7.2087  -7.1872
    -7.1418  -7.1406  -7.1261  -7.1063  -7.1020  -7.0693  -7.0133  -6.9869
    -6.9796  -6.9792  -6.9249  -6.9182  -6.8944  -6.8733  -6.8669  -6.8558
    -6.8517  -6.8233  -6.8038  -6.7678  -6.7479  -6.7465  -6.7420  -6.7234
    -6.7104  -6.6591  -6.6567  -6.6399  -6.6213  -6.6149  -6.6136  -6.5940
    -6.5883  -6.5829  -6.5743  -6.5432  -6.5292  -6.5162  -6.5136  -6.4728
    -6.4676  -6.4608  -6.4529  -6.4494  -6.4455  -6.4017  -6.3693  -6.3656
    -6.3593  -6.3206  -6.3043  -6.2844  -6.2791  -6.2700  -6.2571  -5.6187
    -4.9585  -4.0440  -3.1356  -2.9749  -2.8101  -2.3715  -1.8173  -1.1118
    -0.9145  -0.7890   0.9430   1.4197   1.6945   2.0331   3.3938   3.4626
     3.5469   3.6272   4.2911   4.5104   4.6731

          k =-0.0892 0.0858 0.0000 ( 16986 PWs)   bands (ev):

  -125.9350-125.9107-125.9104-125.9101-125.7708-125.7705-125.7702-125.7598
  -125.7589-125.7587-125.7401-125.6544 -80.1218 -80.1096 -80.1090 -80.0910
   -80.0892 -80.0882 -80.0878 -80.0874 -80.0873 -80.0868 -80.0850 -80.0819
   -79.9628 -79.9625 -79.9621 -79.9607 -79.9514 -79.9490 -79.9457 -79.9440
   -79.9425 -79.9419 -79.9397 -79.9373 -79.9367 -79.9363 -79.9331 -79.9311
   -79.9300 -79.9299 -79.9239 -79.9147 -79.9141 -79.8453 -79.8238 -79.8235
   -12.8510  -7.5091  -7.3126  -7.2850  -7.2146  -7.2087  -7.1925  -7.1865
    -7.1726  -7.1535  -7.1327  -7.1284  -7.0984  -7.0429  -7.0358  -7.0101
    -6.9953  -6.9686  -6.9460  -6.9002  -6.8875  -6.8786  -6.8736  -6.8574
    -6.8485  -6.8385  -6.8188  -6.7914  -6.7739  -6.7673  -6.7564  -6.7428
    -6.7277  -6.7011  -6.6670  -6.6487  -6.6323  -6.6180  -6.6122  -6.5971
    -6.5839  -6.5715  -6.5596  -6.5358  -6.5198  -6.5077  -6.4908  -6.4866
    -6.4686  -6.4538  -6.4478  -6.4278  -6.4190  -6.3985  -6.3785  -6.3661
    -6.3591  -6.3399  -6.3224  -6.3029  -6.2929  -6.2786  -5.8201  -5.5446
    -4.8616  -4.4953  -3.8291  -3.1269  -2.5528  -1.8827  -1.5715  -1.1047
    -0.7957   0.0388   0.6055   1.0184   1.4409   2.3719   2.6097   3.0152
     3.2548   3.4763   4.2781   4.3735   4.6468

          k =-0.0892 0.1201 0.0000 ( 16986 PWs)   bands (ev):

  -125.9350-125.9107-125.9104-125.9101-125.7708-125.7705-125.7702-125.7598
  -125.7589-125.7587-125.7401-125.6544 -80.1218 -80.1096 -80.1090 -80.0910
   -80.0892 -80.0882 -80.0878 -80.0874 -80.0873 -80.0868 -80.0850 -80.0819
   -79.9628 -79.9625 -79.9621 -79.9607 -79.9514 -79.9490 -79.9457 -79.9440
   -79.9425 -79.9419 -79.9397 -79.9373 -79.9367 -79.9363 -79.9331 -79.9311
   -79.9300 -79.9299 -79.9239 -79.9147 -79.9141 -79.8453 -79.8238 -79.8235
   -12.8510  -7.5091  -7.3126  -7.2850  -7.2146  -7.2087  -7.1925  -7.1865
    -7.1726  -7.1535  -7.1327  -7.1284  -7.0984  -7.0429  -7.0358  -7.0101
    -6.9953  -6.9686  -6.9460  -6.9002  -6.8875  -6.8786  -6.8736  -6.8574
    -6.8485  -6.8385  -6.8188  -6.7914  -6.7739  -6.7673  -6.7564  -6.7428
    -6.7277  -6.7011  -6.6670  -6.6487  -6.6323  -6.6180  -6.6122  -6.5971
    -6.5839  -6.5715  -6.5596  -6.5358  -6.5198  -6.5077  -6.4908  -6.4866
    -6.4686  -6.4538  -6.4478  -6.4278  -6.4190  -6.3985  -6.3785  -6.3661
    -6.3591  -6.3399  -6.3224  -6.3029  -6.2929  -6.2786  -5.8201  -5.5446
    -4.8616  -4.4953  -3.8291  -3.1269  -2.5528  -1.8827  -1.5715  -1.1047
    -0.7957   0.0388   0.6055   1.0184   1.4409   2.3719   2.6097   3.0152
     3.2548   3.4763   4.2781   4.3735   4.6468

          k =-0.0892-0.0515 0.0000 ( 17028 PWs)   bands (ev):

  -125.9350-125.9107-125.9104-125.9101-125.7708-125.7705-125.7702-125.7598
  -125.7589-125.7587-125.7401-125.6544 -80.1218 -80.1098 -80.1088 -80.0916
   -80.0883 -80.0878 -80.0877 -80.0874 -80.0873 -80.0867 -80.0863 -80.0816
   -79.9629 -79.9625 -79.9621 -79.9607 -79.9514 -79.9491 -79.9462 -79.9430
   -79.9423 -79.9417 -79.9411 -79.9373 -79.9364 -79.9363 -79.9331 -79.9312
   -79.9301 -79.9298 -79.9239 -79.9149 -79.9139 -79.8453 -79.8238 -79.8235
   -12.8510  -7.4347  -7.4071  -7.3117  -7.2179  -7.2155  -7.2087  -7.1872
    -7.1418  -7.1406  -7.1261  -7.1063  -7.1020  -7.0693  -7.0133  -6.9869
    -6.9796  -6.9792  -6.9249  -6.9182  -6.8944  -6.8733  -6.8669  -6.8558
    -6.8517  -6.8233  -6.8038  -6.7678  -6.7479  -6.7465  -6.7420  -6.7234
    -6.7104  -6.6591  -6.6567  -6.6399  -6.6213  -6.6149  -6.6136  -6.5940
    -6.5883  -6.5829  -6.5743  -6.5432  -6.5292  -6.5162  -6.5136  -6.4728
    -6.4676  -6.4608  -6.4529  -6.4494  -6.4455  -6.4017  -6.3693  -6.3656
    -6.3593  -6.3206  -6.3043  -6.2844  -6.2791  -6.2700  -6.2571  -5.6187
    -4.9585  -4.0440  -3.1356  -2.9749  -2.8101  -2.3715  -1.8173  -1.1118
    -0.9145  -0.7890   0.9430   1.4197   1.6945   2.0331   3.3938   3.4626
     3.5469   3.6272   4.2911   4.5104   4.6731

     the Fermi energy is     0.8308 ev

!    total energy              =   -5578.90284859 Ry
     Harris-Foulkes estimate   =   -5578.90284848 Ry
     estimated scf accuracy    <       0.00000007 Ry

     The total energy is the sum of the following terms:

     one-electron contribution =  -35108.61158856 Ry
     hartree contribution      =   17538.22760888 Ry
     xc contribution           =    -530.34896393 Ry
     ewald contribution        =   12521.85551505 Ry
     electric field correction =       0.00000341 Ry
     smearing contrib. (-TS)   =      -0.02542343 Ry

     convergence has been achieved in   8 iterations
 
 BEEF-vdW xc energy contributions
           1 :   -470.800815147754     
           2 :    426.270450087854     
           3 :   -351.693320214219     
           4 :    268.783549308290     
           5 :   -196.636813363889     
           6 :    144.639693687499     
           7 :   -111.278957066743     
           8 :    88.5035740202500     
           9 :   -68.2930341698959     
          10 :    47.3143596590215     
          11 :   -27.3712408956569     
          12 :    12.3235403411575     
          13 :   -4.28158726882185     
          14 :    1.84211951910027     
          15 :   -1.25475835403671     
          16 :  -0.798705856986146     
          17 :    5.07794672003223     
          18 :   -9.78408150170463     
          19 :    12.4133522380706     
          20 :   -11.8741125002081     
          21 :    9.27097447850292     
          22 :   -6.92628975027600     
          23 :    6.56227502473115     
          24 :   -8.10183737146667     
          25 :    9.93509450243886     
          26 :   -10.3157916863136     
          27 :    8.72816055571428     
          28 :   -6.19224445061491     
          29 :    4.36788446508103     
          30 :   -4.24147375645060     
          31 :   -36.7589936778710     
          32 :   -25.0330495744206     

     Forces acting on atoms (Ry/au):


     negative rho (up, down):  8.570E-04 0.000E+00
     atom    1 type  1   force =     0.00000001    0.00000002   -0.00663503
     atom    2 type  1   force =    -0.00000000   -0.00086823   -0.01081818
     atom    3 type  1   force =    -0.00075199    0.00043417   -0.01081824
     atom    4 type  1   force =     0.00075198    0.00043417   -0.01081825
     atom    5 type  1   force =     0.00513435   -0.00296434    0.01211209
     atom    6 type  1   force =    -0.00513437   -0.00296435    0.01211203
     atom    7 type  1   force =    -0.00000001   -0.00000018    0.00306798
     atom    8 type  1   force =     0.00000001    0.00592859    0.01211219
     atom    9 type  1   force =    -0.00114625   -0.00066246   -0.00100048
     atom   10 type  1   force =     0.00114620   -0.00066254   -0.00100041
     atom   11 type  1   force =    -0.00000010    0.00132540   -0.00100101
     atom   12 type  1   force =     0.00000014    0.00000039   -0.00097612
     atom   13 type  2   force =     0.00000002   -0.00000103    0.00193218
     atom   14 type  3   force =     0.00000002    0.00000037    0.00173125

     Total force =     0.003994     Total SCF correction =     0.001125
     SCF correction compared to forces is large: reduce conv_thr to get better values


     entering subroutine stress ...


     negative rho (up, down):  8.570E-04 0.000E+00
          total   stress  (Ry/bohr**3)                   (kbar)     P=  -15.36
  -0.00015001   0.00000000   0.00000000        -22.07      0.00      0.00
   0.00000000  -0.00015001  -0.00000000          0.00    -22.07     -0.00
   0.00000000  -0.00000000  -0.00001316          0.00     -0.00     -1.94


     bfgs converged in  17 scf cycles and  16 bfgs steps
     (criteria: energy <  1.0E+00, force <  1.9E-03)

     End of BFGS Geometry Optimization

     Final energy   =   -5578.9028485871 Ry
Begin final coordinates

ATOMIC_POSITIONS (crystal)
Zn1      0.166666667   0.166666667   0.406869400    0   0   0
Zn1      0.666666667   0.166666667   0.406869400    0   0   0
Zn1      0.166666667   0.666666667   0.406869400    0   0   0
Zn1      0.666666667   0.666666667   0.406869400    0   0   0
Zn1      0.833333333   0.333333333   0.500000000    0   0   0
Zn1      0.333333333   0.333333333   0.500000000    0   0   0
Zn1      0.833333333   0.833333333   0.500000000    0   0   0
Zn1      0.333333333   0.833333333   0.500000000    0   0   0
Zn1     -0.009579851  -0.009579525   0.602667672
Zn1      0.519159289  -0.009579296   0.602667670
Zn1     -0.009578527   0.519156999   0.602667934
Zn1      0.499999955   0.499999684   0.592883895
S1       0.166666391   0.166667008   0.679530271
H1       0.166666447   0.166667547   0.735021965
End final coordinates



     Writing output data file calc.save
 
     init_run     :     11.46s CPU     11.89s WALL (       1 calls)
     electrons    :   4553.65s CPU   4846.49s WALL (      17 calls)
     update_pot   :     46.41s CPU     50.31s WALL (      16 calls)
     forces       :    275.06s CPU    280.98s WALL (      17 calls)
     stress       :    840.19s CPU    872.47s WALL (      17 calls)

     Called by init_run:
     wfcinit      :      4.97s CPU      5.06s WALL (       1 calls)
     potinit      :      1.98s CPU      2.24s WALL (       1 calls)

     Called by electrons:
     c_bands      :   1966.77s CPU   2068.37s WALL (     138 calls)
     sum_band     :    814.46s CPU    847.09s WALL (     138 calls)
     v_of_rho     :    373.28s CPU    463.57s WALL (     151 calls)
     newd         :    729.23s CPU    739.01s WALL (     151 calls)
     mix_rho      :      7.69s CPU      8.05s WALL (     138 calls)
     vdW_energy   :    150.84s CPU    168.61s WALL (     763 calls)
     vdW_ffts     :    386.32s CPU    405.93s WALL (    1560 calls)
     vdW_v        :    149.63s CPU    157.43s WALL (     763 calls)

     Called by c_bands:
     init_us_2    :      8.76s CPU      8.81s WALL (    1555 calls)
     cegterg      :   1781.67s CPU   1821.71s WALL (     690 calls)

     Called by *egterg:
     h_psi        :   1118.27s CPU   1144.44s WALL (    2869 calls)
     s_psi        :     89.13s CPU     89.39s WALL (    2869 calls)
     g_psi        :      5.60s CPU      5.61s WALL (    2174 calls)
     cdiaghg      :    206.93s CPU    208.77s WALL (    2764 calls)

     Called by h_psi:
     add_vuspsi   :     91.75s CPU     91.97s WALL (    2869 calls)

     General routines
     calbec       :    150.95s CPU    154.13s WALL (    3729 calls)
     fft          :    597.60s CPU    646.81s WALL (   45749 calls)
     ffts         :      0.51s CPU      0.54s WALL (     289 calls)
     fftw         :    710.16s CPU    743.65s WALL (  528562 calls)
     interpolate  :      5.23s CPU      5.36s WALL (     289 calls)
     davcio       :      0.00s CPU      0.03s WALL (       5 calls)
 
     Parallel routines
     fft_scatter  :    752.51s CPU    832.09s WALL (  574600 calls)
 
     PWSCF        :     1h36m CPU        1h42m WALL

 
   This run was terminated on:   6:21:53  25Apr2018            

=------------------------------------------------------------------------------=
   JOB DONE.
=------------------------------------------------------------------------------=
Job  /afs/slac/g/suncat/bin/suncat-tsmpirun -x LD_LIBRARY_PATH -wdir /scratch/qe317402_W92UA pw.x -npool 4 -in pw.inp

TID   HOST_NAME   COMMAND_LINE            STATUS            TERMINATION_TIME
===== ========== ================  =======================  ===================
00000 suncat0273 pw.x -npool 4 -i  Done                     04/25/2018 06:21:53
00001 suncat0273 pw.x -npool 4 -i  Done                     04/25/2018 06:21:53
00002 suncat0273 pw.x -npool 4 -i  Done                     04/25/2018 06:21:53
00003 suncat0273 pw.x -npool 4 -i  Done                     04/25/2018 06:21:53
00004 suncat0273 pw.x -npool 4 -i  Done                     04/25/2018 06:21:53
00005 suncat0273 pw.x -npool 4 -i  Done                     04/25/2018 06:21:53
00006 suncat0273 pw.x -npool 4 -i  Done                     04/25/2018 06:21:53
00007 suncat0273 pw.x -npool 4 -i  Done                     04/25/2018 06:21:53
00008 suncat0247 pw.x -npool 4 -i  Done                     04/25/2018 06:21:53
00009 suncat0247 pw.x -npool 4 -i  Done                     04/25/2018 06:21:53
00010 suncat0247 pw.x -npool 4 -i  Done                     04/25/2018 06:21:53
00011 suncat0247 pw.x -npool 4 -i  Done                     04/25/2018 06:21:53
00012 suncat0247 pw.x -npool 4 -i  Done                     04/25/2018 06:21:53
00013 suncat0247 pw.x -npool 4 -i  Done                     04/25/2018 06:21:53
00014 suncat0247 pw.x -npool 4 -i  Done                     04/25/2018 06:21:53
00015 suncat0247 pw.x -npool 4 -i  Done                     04/25/2018 06:21:53
00016 suncat0242 pw.x -npool 4 -i  Done                     04/25/2018 06:21:53
00017 suncat0242 pw.x -npool 4 -i  Done                     04/25/2018 06:21:53
00018 suncat0242 pw.x -npool 4 -i  Done                     04/25/2018 06:21:53
00019 suncat0242 pw.x -npool 4 -i  Done                     04/25/2018 06:21:53
00020 suncat0242 pw.x -npool 4 -i  Done                     04/25/2018 06:21:53
00021 suncat0242 pw.x -npool 4 -i  Done                     04/25/2018 06:21:53
00022 suncat0242 pw.x -npool 4 -i  Done                     04/25/2018 06:21:53
00023 suncat0242 pw.x -npool 4 -i  Done                     04/25/2018 06:21:53
00024 suncat0226 pw.x -npool 4 -i  Done                     04/25/2018 06:21:53
00025 suncat0226 pw.x -npool 4 -i  Done                     04/25/2018 06:21:53
00026 suncat0226 pw.x -npool 4 -i  Done                     04/25/2018 06:21:53
00027 suncat0226 pw.x -npool 4 -i  Done                     04/25/2018 06:21:53
00028 suncat0226 pw.x -npool 4 -i  Done                     04/25/2018 06:21:53
00029 suncat0226 pw.x -npool 4 -i  Done                     04/25/2018 06:21:53
00030 suncat0226 pw.x -npool 4 -i  Done                     04/25/2018 06:21:53
00031 suncat0226 pw.x -npool 4 -i  Done                     04/25/2018 06:21:53
