  python dir          : /u/if/mamunm/src/espresso
  espresso dir        : /nfs/slac/g/suncatfs/sw/espv18/espresso-dynpy-beef/bin
  pseudo dir          : /u/if/mamunm/psp/gbrv1.5pbe
  ase-espresso py git : GITVERSION



     Program PWSCF v.5.1rc2 (svn rev. 11289) starts on 16Apr2018 at 10: 6: 9 

     This program is part of the open-source Quantum ESPRESSO suite
     for quantum simulation of materials; please cite
         "P. Giannozzi et al., J. Phys.:Condens. Matter 21 395502 (2009);
          URL http://www.quantum-espresso.org", 
     in publications or presentations arising from this work. More details at
     http://www.quantum-espresso.org/quote

     Parallel version (MPI), running on    32 processors
     K-points division:     npool     =       4
     R & G space division:  proc/nbgrp/npool/nimage =       8
     Reading input from pw.inp
     Message from routine read_cards :
     DEPRECATED: no units specified in CELL_PARAMETERS card

     Current dimensions of program PWSCF are:
     Max number of different atomic species (ntypx) = 10
     Max number of k-points (npk) =  40000
     Max angular momentum in pseudopotentials (lmaxx) =  3
     Presently stress not available with electric field


     **************************************************************************
     Initializing libbeef V0.1.1 with the BEEF-vdW functional.
     Citation: Wellendorff et al., PRB 85, 235149 (2012).
     **************************************************************************


     IMPORTANT: XC functional enforced from input :
     Exchange-correlation      = BEEF-VDW ( 1  4 27 13 2)
     Any further DFT definition will be discarded
     Please, verify this is what you really want


     Subspace diagonalization in iterative solution of the eigenvalue problem:
     a serial algorithm will be used

 
     Parallelization info
     --------------------
     sticks:   dense  smooth     PW     G-vecs:    dense   smooth      PW
     Min         402     160     45                76958    19469    3023
     Max         403     161     46                76979    19511    3040
     Sum        3217    1285    367               615719   155893   24283
 


     bravais-lattice index     =            0
     lattice parameter (alat)  =       1.8897  a.u.
     unit-cell volume          =    5174.6160 (a.u.)^3
     number of atoms/cell      =           15
     number of atomic types    =            3
     number of electrons       =       234.00
     number of Kohn-Sham states=          127
     kinetic-energy cutoff     =      36.7493  Ry
     charge density cutoff     =     367.4932  Ry
     convergence threshold     =      1.0E-05
     mixing beta               =       0.3000
     number of iterations used =           10  plain     mixing
     Exchange-correlation      = BEEF-VDW ( 1  4 27 13 2)
     nstep                     =           50


     celldm(1)=   1.889726  celldm(2)=   0.000000  celldm(3)=   0.000000
     celldm(4)=   0.000000  celldm(5)=   0.000000  celldm(6)=   0.000000

     crystal axes: (cart. coord. in units of alat)
               a(1) = (   5.966546   0.000000   0.000000 )  
               a(2) = (   2.983273   5.167181   0.000000 )  
               a(3) = (   0.000000   0.000000  24.871665 )  

     reciprocal axes: (cart. coord. in units 2 pi/alat)
               b(1) = (  0.167601 -0.096765  0.000000 )  
               b(2) = (  0.000000  0.193529  0.000000 )  
               b(3) = (  0.000000  0.000000  0.040206 )  


     PseudoPot. # 1 for Ag read from file:
     /u/if/mamunm/psp/gbrv1.5pbe/Ag.UPF
     MD5 check sum: d66d668201baa78d5eb5b04ef7011058
     Pseudo is Ultrasoft + core correction, Zval = 19.0
     Generated by new atomic code, or converted to UPF format
     Using radial grid of  887 points,  6 beta functions with: 
                l(1) =   0
                l(2) =   0
                l(3) =   1
                l(4) =   1
                l(5) =   2
                l(6) =   2
     Q(r) pseudized with  6 coefficients,  rinner =    1.300   1.300   1.300
                                                       1.300   1.300

     PseudoPot. # 2 for C  read from file:
     /u/if/mamunm/psp/gbrv1.5pbe/C.UPF
     MD5 check sum: d1aef80898a10debaa0f26306b886e00
     Pseudo is Ultrasoft + core correction, Zval =  4.0
     Generated by new atomic code, or converted to UPF format
     Using radial grid of  721 points,  4 beta functions with: 
                l(1) =   0
                l(2) =   0
                l(3) =   1
                l(4) =   1
     Q(r) pseudized with  8 coefficients,  rinner =    1.100   1.100   1.100


     PseudoPot. # 3 for H  read from file:
     /u/if/mamunm/psp/gbrv1.5pbe/H.UPF
     MD5 check sum: 761ae9a214b05c3daf00ab9f6b793d6f
     Pseudo is Ultrasoft, Zval =  1.0
     Generated by new atomic code, or converted to UPF format
     Using radial grid of  615 points,  2 beta functions with: 
                l(1) =   0
                l(2) =   0
     Q(r) pseudized with  8 coefficients,  rinner =    0.700

     vdW kernel table read from file vdW_kernel_table
     MD5 check sum: 095c7af220d748ca6e76c0b4c6cfb241

     atomic species   valence    mass     pseudopotential
        Ag1           19.00   107.86820     Ag( 1.00)
        C1             4.00    12.01100     C ( 1.00)
        H1             1.00     1.00800     H ( 1.00)

     No symmetry found



   Cartesian axes

     site n.     atom                  positions (alat units)
         1           Ag1 tau(   1) = (   1.4916366   0.8611968  10.0000000  )
         2           Ag1 tau(   2) = (   4.4749098   0.8611968  10.0000000  )
         3           Ag1 tau(   3) = (   2.9832732   3.4447871  10.0000000  )
         4           Ag1 tau(   4) = (   5.9665464   3.4447871  10.0000000  )
         5           Ag1 tau(   5) = (   5.9665464   1.7223936  12.4358324  )
         6           Ag1 tau(   6) = (   2.9832732   1.7223936  12.4358324  )
         7           Ag1 tau(   7) = (   7.4581830   4.3059839  12.4358324  )
         8           Ag1 tau(   8) = (   4.4749098   4.3059839  12.4358324  )
         9           Ag1 tau(   9) = (   0.0000000   0.0000000  14.8716647  )
        10           Ag1 tau(  10) = (   2.9832732   0.0000000  14.8716647  )
        11           Ag1 tau(  11) = (   1.4916366   2.5835904  14.8716647  )
        12           Ag1 tau(  12) = (   4.4749098   2.5835904  14.8716647  )
        13           C1  tau(  13) = (   0.0000000   0.0000000  16.7501647  )
        14           H1  tau(  14) = (   0.6300000   0.6300000  17.3801647  )
        15           H1  tau(  15) = (   8.3198195   4.5371807  17.3801647  )

     number of k points=    20  Fermi-Dirac smearing, width (Ry)=  0.0110
                       cart. coord. in units 2pi/alat
        k(    1) = (   0.0000000   0.0000000   0.0000000), wk =   0.0555556
        k(    2) = (   0.0000000   0.0322549   0.0000000), wk =   0.1111111
        k(    3) = (   0.0000000   0.0645097   0.0000000), wk =   0.1111111
        k(    4) = (   0.0000000  -0.0967646   0.0000000), wk =   0.0555556
        k(    5) = (   0.0279335  -0.0161274   0.0000000), wk =   0.1111111
        k(    6) = (   0.0279335   0.0161274   0.0000000), wk =   0.1111111
        k(    7) = (   0.0279335   0.0483823   0.0000000), wk =   0.1111111
        k(    8) = (   0.0279335  -0.1128920   0.0000000), wk =   0.1111111
        k(    9) = (   0.0279335  -0.0806371   0.0000000), wk =   0.1111111
        k(   10) = (   0.0279335  -0.0483823   0.0000000), wk =   0.1111111
        k(   11) = (   0.0558670  -0.0322549   0.0000000), wk =   0.1111111
        k(   12) = (   0.0558670   0.0000000   0.0000000), wk =   0.1111111
        k(   13) = (   0.0558670   0.0322549   0.0000000), wk =   0.1111111
        k(   14) = (   0.0558670  -0.1290194   0.0000000), wk =   0.1111111
        k(   15) = (   0.0558670  -0.0967646   0.0000000), wk =   0.1111111
        k(   16) = (   0.0558670  -0.0645097   0.0000000), wk =   0.1111111
        k(   17) = (  -0.0838006   0.0483823   0.0000000), wk =   0.0555556
        k(   18) = (  -0.0838006   0.0806371   0.0000000), wk =   0.1111111
        k(   19) = (  -0.0838006   0.1128920   0.0000000), wk =   0.1111111
        k(   20) = (  -0.0838006  -0.0483823   0.0000000), wk =   0.0555556

     Dense  grid:   615719 G-vectors     FFT dimensions: (  72,  72, 288)

     Smooth grid:   155893 G-vectors     FFT dimensions: (  45,  45, 192)

     Largest allocated arrays     est. size (Mb)     dimensions
        Kohn-Sham Wavefunctions         4.79 Mb     (    2474,  127)
        NL pseudopotentials             8.61 Mb     (    2474,  228)
        Each V/rho on FFT grid          2.85 Mb     (  186624)
        Each G-vector array             0.59 Mb     (   76979)
        G-vector shells                 0.16 Mb     (   20444)
     Largest temporary arrays     est. size (Mb)     dimensions
        Auxiliary wavefunctions        19.18 Mb     (    2474,  508)
        Each subspace H/S matrix        3.94 Mb     (     508,  508)
        Each <psi_i|beta_j> matrix      0.44 Mb     (     228,  127)
        Arrays for rho mixing          28.48 Mb     (  186624,   10)

     Initial potential from superposition of free atoms
     Check: negative starting charge=   -0.001939

     starting charge  227.99937, renormalised to  234.00000

     negative rho (up, down):  1.990E-03 0.000E+00


     ************************************************************************
     *
     * You are using vdW-DF for exchange-correlation in this calculation.
     * Please cite the following three references that made this development
     * possible:
     *
     *   M. Dion, H. Rydberg, E. Schroder, D. C. Langreth, and
     *   B. I. Lundqvist, Phys. Rev. Lett. 92, 246401 (2004).
     *
     *   T. Thonhauser, V. R. Cooper, S. Li, A. Puzder, P. Hyldgaard, and
     *   D. C. Langreth, Phys. Rev. B 76, 125112 (2007).
     *
     *   G. Roman-Perez and J. M. Soler, Phys. Rev. Lett. 103, 096102 (2009).
     *
     *
     * If you are using vdW-DF2, please also cite:
     *
     *   K. Lee, E. D. Murray, L. Kong, B. I. Lundqvist, and
     *   D. C. Langreth, Phys. Rev. B 82, 081101(R) (2010).
     *
     *
     * If you are calculating the stress with vdW-DF, please also cite:
     *
     *   R. Sabatini, E. Kucukbenli, B. Kolb, T. Thonhauser, and
     *   S. de Gironcoli, J. Phys.: Condens. Matter 24, 424209 (2012).
     *
     ************************************************************************

     Carrying out vdW-DF run using the following parameters:

     Nqs =      20    Nr_points =    1024   r_max =   100.000
     q_mesh =
               0.00001000     0.04494208     0.09755937     0.15916263
               0.23128650     0.31572767     0.41458969     0.53033537
               0.66584808     0.82450364     1.01025438     1.22772762
               1.48234092     1.78043706     2.12944203     2.53805004
               3.01644009     3.57652955     4.23227104     5.00000000

     Gradients computed in reciprocal space

     ************************************************************************


 
     Adding external electric field

     Computed dipole along edir(3) : 
        Dipole               -1.3496 Ry au,         -3.4303 Debye
        Dipole field         -0.0033 Ry au
 
        Potential amp.        0.3004 Ry
        Total length         45.8256 bohr
 
     Starting wfc are  162 randomized atomic wfcs

     total cpu time spent up to now is       13.4 secs

     per-process dynamical memory:   100.0 Mb

     Self-consistent Calculation

     iteration #  1     ecut=    36.75 Ry     beta=0.30
     Davidson diagonalization with overlap
     ethr =  1.00E-02,  avg # of iterations =  5.6

     negative rho (up, down):  9.389E-04 0.000E+00
 
     Adding external electric field

     Computed dipole along edir(3) : 
        Dipole               10.7282 Ry au,         27.2685 Debye
        Dipole field          0.0261 Ry au
 
        Potential amp.       -2.3878 Ry
        Total length         45.8256 bohr
 

     total cpu time spent up to now is       40.3 secs

     total energy              =   -3562.67491739 Ry
     Harris-Foulkes estimate   =   -3577.07866177 Ry
     estimated scf accuracy    <      31.08623824 Ry

     iteration #  2     ecut=    36.75 Ry     beta=0.30
     Davidson diagonalization with overlap
     ethr =  1.00E-02,  avg # of iterations =  9.3

     negative rho (up, down):  3.705E-06 0.000E+00
 
     Adding external electric field

     Computed dipole along edir(3) : 
        Dipole               -0.9842 Ry au,         -2.5016 Debye
        Dipole field         -0.0024 Ry au
 
        Potential amp.        0.2191 Ry
        Total length         45.8256 bohr
 

     total cpu time spent up to now is       81.6 secs

     total energy              =   -3532.57125428 Ry
     Harris-Foulkes estimate   =   -3623.70052399 Ry
     estimated scf accuracy    <    2735.89860916 Ry

     iteration #  3     ecut=    36.75 Ry     beta=0.30
     Davidson diagonalization with overlap
     ethr =  1.00E-02,  avg # of iterations =  7.4

     negative rho (up, down):  1.253E-05 0.000E+00
 
     Adding external electric field

     Computed dipole along edir(3) : 
        Dipole                0.1829 Ry au,          0.4648 Debye
        Dipole field          0.0004 Ry au
 
        Potential amp.       -0.0407 Ry
        Total length         45.8256 bohr
 

     total cpu time spent up to now is      117.3 secs

     total energy              =   -3571.23436897 Ry
     Harris-Foulkes estimate   =   -3575.67632276 Ry
     estimated scf accuracy    <      21.07296057 Ry

     iteration #  4     ecut=    36.75 Ry     beta=0.30
     Davidson diagonalization with overlap
     ethr =  9.01E-03,  avg # of iterations =  2.9

     negative rho (up, down):  1.502E-02 0.000E+00
 
     Adding external electric field

     Computed dipole along edir(3) : 
        Dipole                0.4957 Ry au,          1.2599 Debye
        Dipole field          0.0012 Ry au
 
        Potential amp.       -0.1103 Ry
        Total length         45.8256 bohr
 

     total cpu time spent up to now is      140.4 secs

     total energy              =   -3572.74275020 Ry
     Harris-Foulkes estimate   =   -3573.26903093 Ry
     estimated scf accuracy    <       3.55107850 Ry

     iteration #  5     ecut=    36.75 Ry     beta=0.30
     Davidson diagonalization with overlap
     ethr =  1.52E-03,  avg # of iterations =  4.8

     negative rho (up, down):  3.413E-05 0.000E+00
 
     Adding external electric field

     Computed dipole along edir(3) : 
        Dipole                0.0020 Ry au,          0.0050 Debye
        Dipole field          0.0000 Ry au
 
        Potential amp.       -0.0004 Ry
        Total length         45.8256 bohr
 

     total cpu time spent up to now is      170.4 secs

     total energy              =   -3573.56598993 Ry
     Harris-Foulkes estimate   =   -3573.72419670 Ry
     estimated scf accuracy    <       2.31205053 Ry

     iteration #  6     ecut=    36.75 Ry     beta=0.30
     Davidson diagonalization with overlap
     ethr =  9.88E-04,  avg # of iterations =  1.4

     negative rho (up, down):  4.382E-05 0.000E+00
 
     Adding external electric field

     Computed dipole along edir(3) : 
        Dipole               -0.4187 Ry au,         -1.0643 Debye
        Dipole field         -0.0010 Ry au
 
        Potential amp.        0.0932 Ry
        Total length         45.8256 bohr
 

     total cpu time spent up to now is      193.0 secs

     total energy              =   -3573.61877850 Ry
     Harris-Foulkes estimate   =   -3573.65274400 Ry
     estimated scf accuracy    <       0.25289573 Ry

     iteration #  7     ecut=    36.75 Ry     beta=0.30
     Davidson diagonalization with overlap
     ethr =  1.08E-04,  avg # of iterations =  4.3

     negative rho (up, down):  1.019E-04 0.000E+00
 
     Adding external electric field

     Computed dipole along edir(3) : 
        Dipole               -0.6698 Ry au,         -1.7025 Debye
        Dipole field         -0.0016 Ry au
 
        Potential amp.        0.1491 Ry
        Total length         45.8256 bohr
 

     total cpu time spent up to now is      217.6 secs

     total energy              =   -3573.63921634 Ry
     Harris-Foulkes estimate   =   -3573.65521953 Ry
     estimated scf accuracy    <       0.08139468 Ry

     iteration #  8     ecut=    36.75 Ry     beta=0.30
     Davidson diagonalization with overlap
     ethr =  3.48E-05,  avg # of iterations =  7.7

     negative rho (up, down):  1.788E-04 0.000E+00
 
     Adding external electric field

     Computed dipole along edir(3) : 
        Dipole               -0.5603 Ry au,         -1.4241 Debye
        Dipole field         -0.0014 Ry au
 
        Potential amp.        0.1247 Ry
        Total length         45.8256 bohr
 

     total cpu time spent up to now is      244.6 secs

     total energy              =   -3573.63988471 Ry
     Harris-Foulkes estimate   =   -3573.64455375 Ry
     estimated scf accuracy    <       0.01683258 Ry

     iteration #  9     ecut=    36.75 Ry     beta=0.30
     Davidson diagonalization with overlap
     ethr =  7.19E-06,  avg # of iterations =  5.7

     negative rho (up, down):  2.996E-04 0.000E+00
 
     Adding external electric field

     Computed dipole along edir(3) : 
        Dipole               -0.4736 Ry au,         -1.2037 Debye
        Dipole field         -0.0012 Ry au
 
        Potential amp.        0.1054 Ry
        Total length         45.8256 bohr
 

     total cpu time spent up to now is      270.2 secs

     total energy              =   -3573.63958656 Ry
     Harris-Foulkes estimate   =   -3573.64109633 Ry
     estimated scf accuracy    <       0.02103883 Ry

     iteration # 10     ecut=    36.75 Ry     beta=0.30
     Davidson diagonalization with overlap
     ethr =  7.19E-06,  avg # of iterations =  5.9

     negative rho (up, down):  4.834E-04 0.000E+00
 
     Adding external electric field

     Computed dipole along edir(3) : 
        Dipole               -0.3997 Ry au,         -1.0159 Debye
        Dipole field         -0.0010 Ry au
 
        Potential amp.        0.0890 Ry
        Total length         45.8256 bohr
 

     total cpu time spent up to now is      295.2 secs

     total energy              =   -3573.63886421 Ry
     Harris-Foulkes estimate   =   -3573.63993439 Ry
     estimated scf accuracy    <       0.00956389 Ry

     iteration # 11     ecut=    36.75 Ry     beta=0.30
     Davidson diagonalization with overlap
     ethr =  4.09E-06,  avg # of iterations =  5.6

     negative rho (up, down):  7.210E-04 0.000E+00
 
     Adding external electric field

     Computed dipole along edir(3) : 
        Dipole               -0.2843 Ry au,         -0.7225 Debye
        Dipole field         -0.0007 Ry au
 
        Potential amp.        0.0633 Ry
        Total length         45.8256 bohr
 

     total cpu time spent up to now is      320.0 secs

     total energy              =   -3573.63829091 Ry
     Harris-Foulkes estimate   =   -3573.63912902 Ry
     estimated scf accuracy    <       0.00662998 Ry

     iteration # 12     ecut=    36.75 Ry     beta=0.30
     Davidson diagonalization with overlap
     ethr =  2.83E-06,  avg # of iterations =  5.5

     negative rho (up, down):  7.797E-04 0.000E+00
 
     Adding external electric field

     Computed dipole along edir(3) : 
        Dipole               -0.2021 Ry au,         -0.5136 Debye
        Dipole field         -0.0005 Ry au
 
        Potential amp.        0.0450 Ry
        Total length         45.8256 bohr
 

     total cpu time spent up to now is      344.5 secs

     total energy              =   -3573.63817114 Ry
     Harris-Foulkes estimate   =   -3573.63844969 Ry
     estimated scf accuracy    <       0.00256080 Ry

     iteration # 13     ecut=    36.75 Ry     beta=0.30
     Davidson diagonalization with overlap
     ethr =  1.09E-06,  avg # of iterations =  4.0

     negative rho (up, down):  1.793E-03 0.000E+00
 
     Adding external electric field

     Computed dipole along edir(3) : 
        Dipole                0.0075 Ry au,          0.0189 Debye
        Dipole field          0.0000 Ry au
 
        Potential amp.       -0.0017 Ry
        Total length         45.8256 bohr
 

     total cpu time spent up to now is      367.8 secs

     total energy              =   -3573.63800856 Ry
     Harris-Foulkes estimate   =   -3573.63828572 Ry
     estimated scf accuracy    <       0.00202319 Ry

     iteration # 14     ecut=    36.75 Ry     beta=0.30
     Davidson diagonalization with overlap
     ethr =  8.65E-07,  avg # of iterations =  6.3

     negative rho (up, down):  2.139E-03 0.000E+00
 
     Adding external electric field

     Computed dipole along edir(3) : 
        Dipole                0.0220 Ry au,          0.0559 Debye
        Dipole field          0.0001 Ry au
 
        Potential amp.       -0.0049 Ry
        Total length         45.8256 bohr
 

     total cpu time spent up to now is      393.8 secs

     total energy              =   -3573.63811249 Ry
     Harris-Foulkes estimate   =   -3573.63811560 Ry
     estimated scf accuracy    <       0.00002924 Ry

     iteration # 15     ecut=    36.75 Ry     beta=0.30
     Davidson diagonalization with overlap
     ethr =  1.25E-08,  avg # of iterations =  2.9

     negative rho (up, down):  1.992E-03 0.000E+00
 
     Adding external electric field

     Computed dipole along edir(3) : 
        Dipole                0.0213 Ry au,          0.0541 Debye
        Dipole field          0.0001 Ry au
 
        Potential amp.       -0.0047 Ry
        Total length         45.8256 bohr
 

     total cpu time spent up to now is      418.9 secs

     total energy              =   -3573.63811675 Ry
     Harris-Foulkes estimate   =   -3573.63811756 Ry
     estimated scf accuracy    <       0.00001281 Ry

     iteration # 16     ecut=    36.75 Ry     beta=0.30
     Davidson diagonalization with overlap
     ethr =  5.47E-09,  avg # of iterations =  2.0

     negative rho (up, down):  1.983E-03 0.000E+00

     negative rho (up, down):  1.983E-03 0.000E+00

     negative rho (up, down):  1.983E-03 0.000E+00

     negative rho (up, down):  1.983E-03 0.000E+00

     negative rho (up, down):  1.983E-03 0.000E+00

     negative rho (up, down):  1.983E-03 0.000E+00

     negative rho (up, down):  1.983E-03 0.000E+00

     negative rho (up, down):  1.983E-03 0.000E+00

     negative rho (up, down):  1.983E-03 0.000E+00

     negative rho (up, down):  1.983E-03 0.000E+00

     negative rho (up, down):  1.983E-03 0.000E+00

     negative rho (up, down):  1.983E-03 0.000E+00

     negative rho (up, down):  1.983E-03 0.000E+00

     negative rho (up, down):  1.983E-03 0.000E+00

     negative rho (up, down):  1.983E-03 0.000E+00

     negative rho (up, down):  1.983E-03 0.000E+00

     negative rho (up, down):  1.983E-03 0.000E+00

     negative rho (up, down):  1.983E-03 0.000E+00

     negative rho (up, down):  1.983E-03 0.000E+00

     negative rho (up, down):  1.983E-03 0.000E+00

     negative rho (up, down):  1.983E-03 0.000E+00

     negative rho (up, down):  1.983E-03 0.000E+00

     negative rho (up, down):  1.983E-03 0.000E+00

     negative rho (up, down):  1.983E-03 0.000E+00

     negative rho (up, down):  1.983E-03 0.000E+00

     negative rho (up, down):  1.983E-03 0.000E+00

     negative rho (up, down):  1.983E-03 0.000E+00

     negative rho (up, down):  1.983E-03 0.000E+00

     negative rho (up, down):  1.983E-03 0.000E+00

     negative rho (up, down):  1.983E-03 0.000E+00

     negative rho (up, down):  1.983E-03 0.000E+00

     negative rho (up, down):  1.983E-03 0.000E+00

     negative rho (up, down):  1.983E-03 0.000E+00

     negative rho (up, down):  1.983E-03 0.000E+00

     negative rho (up, down):  1.983E-03 0.000E+00
 
     Adding external electric field

     Computed dipole along edir(3) : 
        Dipole                0.0282 Ry au,          0.0718 Debye
        Dipole field          0.0001 Ry au
 
        Potential amp.       -0.0063 Ry
        Total length         45.8256 bohr
 

     total cpu time spent up to now is      492.1 secs

     End of self-consistent calculation

          k = 0.0000 0.0000 0.0000 ( 19435 PWs)   bands (ev):

   -91.2650 -90.6126 -90.5996 -90.5955 -90.5927 -90.4419 -90.4022 -90.3960
   -90.3909 -90.3907 -90.3808 -90.3722 -54.9387 -54.6703 -54.6209 -54.1438
   -54.1420 -54.1342 -54.1142 -54.0983 -54.0923 -54.0873 -54.0791 -54.0786
   -54.0749 -54.0556 -54.0544 -53.9669 -53.9640 -53.9475 -53.9407 -53.9237
   -53.9057 -53.8998 -53.8978 -53.8950 -53.8850 -53.8802 -53.8725 -53.8676
   -53.8673 -53.8661 -53.8646 -53.8626 -53.8616 -53.8606 -53.8594 -53.8553
   -10.6796  -5.1611  -5.0200  -4.9606  -4.4104  -4.3579  -4.3386  -4.2885
    -4.2847  -4.2466  -4.2416  -4.1919  -4.1182  -4.0730  -4.0134  -4.0110
    -3.9991  -3.8939  -3.7329  -3.3491  -3.3006  -3.2942  -3.2302  -3.1964
    -3.1658  -3.1645  -3.0909  -3.0888  -3.0806  -3.0148  -3.0016  -2.9543
    -2.9360  -2.9357  -2.5783  -2.4661  -2.4209  -2.4184  -2.4154  -2.3428
    -2.3400  -2.2965  -2.1740  -2.1315  -2.1234  -2.0786  -2.0459  -1.9546
    -1.9023  -1.8970  -1.8372  -1.8098  -1.8086  -1.7728  -1.7697  -1.7074
    -1.7062  -1.6776  -1.6463  -1.6432  -1.5102  -1.5079  -1.5048  -1.4851
    -0.3623   0.9344   1.2223   1.9032   1.9521   2.1006   2.5064   2.6607
     2.7230   2.8894   3.0798   3.1626   3.6810   4.8702   5.0477

          k = 0.0000 0.0323 0.0000 ( 19455 PWs)   bands (ev):

   -91.2650 -90.6125 -90.5994 -90.5957 -90.5928 -90.4419 -90.4020 -90.3960
   -90.3908 -90.3908 -90.3808 -90.3723 -54.9387 -54.6701 -54.6207 -54.1406
   -54.1379 -54.1304 -54.1138 -54.0982 -54.0926 -54.0876 -54.0823 -54.0796
   -54.0756 -54.0606 -54.0560 -53.9641 -53.9607 -53.9441 -53.9371 -53.9237
   -53.9050 -53.9025 -53.8978 -53.8938 -53.8865 -53.8799 -53.8727 -53.8714
   -53.8678 -53.8671 -53.8654 -53.8649 -53.8625 -53.8612 -53.8608 -53.8562
   -10.6775  -5.1051  -5.0142  -4.8277  -4.3439  -4.2794  -4.2439  -4.2254
    -4.1981  -4.1816  -4.1613  -4.0874  -4.0434  -4.0240  -3.9465  -3.9225
    -3.9065  -3.8081  -3.7050  -3.3430  -3.2867  -3.2610  -3.2130  -3.2102
    -3.1867  -3.1500  -3.0905  -3.0848  -3.0331  -3.0111  -2.9990  -2.9610
    -2.9538  -2.8590  -2.6330  -2.6062  -2.5166  -2.4851  -2.4651  -2.3685
    -2.3282  -2.3135  -2.2324  -2.1979  -2.1553  -2.1196  -2.0931  -2.0445
    -1.9384  -1.9307  -1.8956  -1.8683  -1.8678  -1.8326  -1.8131  -1.7849
    -1.7810  -1.7695  -1.7391  -1.7117  -1.6375  -1.6277  -1.6003  -1.5835
    -0.2537   0.2976   0.8834   1.3515   1.5265   1.6938   2.0192   2.5824
     2.9274   3.0127   3.7243   3.8637   4.1867   5.0487   5.3907

          k = 0.0000 0.0645 0.0000 ( 19481 PWs)   bands (ev):

   -91.2650 -90.6122 -90.5991 -90.5961 -90.5930 -90.4418 -90.4018 -90.3962
   -90.3910 -90.3906 -90.3809 -90.3724 -54.9387 -54.6697 -54.6202 -54.1338
   -54.1272 -54.1191 -54.1129 -54.0979 -54.0943 -54.0902 -54.0877 -54.0853
   -54.0748 -54.0730 -54.0592 -53.9591 -53.9509 -53.9361 -53.9289 -53.9235
   -53.9089 -53.9039 -53.8982 -53.8895 -53.8885 -53.8842 -53.8795 -53.8737
   -53.8723 -53.8702 -53.8671 -53.8667 -53.8651 -53.8626 -53.8613 -53.8571
   -10.6735  -5.0502  -4.9981  -4.4185  -4.2061  -4.1308  -4.0745  -4.0108
    -4.0014  -3.9673  -3.9520  -3.9070  -3.8819  -3.8487  -3.7865  -3.6859
    -3.6716  -3.6097  -3.5505  -3.3773  -3.3514  -3.3099  -3.2751  -3.1793
    -3.1234  -3.0949  -3.0833  -3.0568  -2.9840  -2.9380  -2.9239  -2.8798
    -2.8477  -2.8291  -2.7976  -2.7507  -2.6525  -2.6439  -2.5373  -2.4825
    -2.4373  -2.4248  -2.3708  -2.3406  -2.3297  -2.2910  -2.2740  -2.2423
    -2.2009  -2.1560  -2.1310  -2.1221  -2.0596  -2.0577  -1.9964  -1.9679
    -1.9241  -1.9000  -1.8133  -1.7558  -1.7501  -1.6859  -1.6218  -1.5285
    -1.2622  -0.2774   0.3716   1.0324   1.2135   1.5198   1.8059   2.5470
     2.7824   3.2013   3.6531   4.7756   4.8339   5.4429   5.7179

          k = 0.0000-0.0968 0.0000 ( 19500 PWs)   bands (ev):

   -91.2650 -90.6121 -90.5988 -90.5964 -90.5931 -90.4418 -90.4016 -90.3963
   -90.3911 -90.3905 -90.3809 -90.3725 -54.9386 -54.6695 -54.6200 -54.1298
   -54.1197 -54.1125 -54.1077 -54.0995 -54.0956 -54.0938 -54.0906 -54.0873
   -54.0867 -54.0710 -54.0616 -53.9565 -53.9427 -53.9314 -53.9274 -53.9235
   -53.9068 -53.9033 -53.8987 -53.8970 -53.8886 -53.8857 -53.8796 -53.8784
   -53.8724 -53.8717 -53.8715 -53.8665 -53.8651 -53.8629 -53.8616 -53.8574
   -10.6715  -5.0312  -4.9910  -4.1532  -4.1026  -4.0108  -3.9867  -3.9354
    -3.9081  -3.8529  -3.7948  -3.7349  -3.7024  -3.6654  -3.6491  -3.5980
    -3.5591  -3.5567  -3.4967  -3.4282  -3.2658  -3.2432  -3.2280  -3.2195
    -3.1933  -3.1587  -3.0889  -3.0094  -2.9506  -2.8931  -2.8739  -2.8451
    -2.8172  -2.7960  -2.7867  -2.6791  -2.6342  -2.6107  -2.5921  -2.5778
    -2.5664  -2.5547  -2.5378  -2.4896  -2.4165  -2.4106  -2.3861  -2.3722
    -2.3218  -2.3030  -2.2914  -2.2648  -2.2409  -2.2287  -2.1537  -2.1483
    -2.0791  -2.0279  -1.9391  -1.8224  -1.7664  -1.7591  -1.6814  -1.6211
    -1.1941  -0.8564   0.4224   0.9224   1.1450   1.3888   2.0156   2.1960
     2.8485   3.0802   4.3400   4.3670   4.8844   5.5719   5.8672

          k = 0.0279-0.0161 0.0000 ( 19455 PWs)   bands (ev):

   -91.2650 -90.6125 -90.5995 -90.5955 -90.5929 -90.4419 -90.4021 -90.3959
   -90.3909 -90.3908 -90.3808 -90.3723 -54.9387 -54.6701 -54.6207 -54.1396
   -54.1388 -54.1305 -54.1138 -54.0983 -54.0923 -54.0879 -54.0821 -54.0807
   -54.0746 -54.0607 -54.0559 -53.9632 -53.9616 -53.9444 -53.9373 -53.9237
   -53.9038 -53.9027 -53.8981 -53.8947 -53.8857 -53.8800 -53.8725 -53.8708
   -53.8684 -53.8673 -53.8652 -53.8640 -53.8627 -53.8616 -53.8609 -53.8567
   -10.6779  -5.1051  -5.0122  -4.8291  -4.3475  -4.2629  -4.2457  -4.2351
    -4.1965  -4.1788  -4.1616  -4.0848  -4.0433  -4.0241  -3.9498  -3.9225
    -3.9021  -3.8087  -3.7003  -3.3413  -3.2917  -3.2619  -3.2104  -3.2055
    -3.1838  -3.1667  -3.0902  -3.0868  -3.0247  -3.0109  -2.9946  -2.9615
    -2.9530  -2.8590  -2.6526  -2.6075  -2.5066  -2.4879  -2.4621  -2.3671
    -2.3252  -2.3170  -2.2365  -2.1968  -2.1472  -2.1295  -2.0900  -2.0464
    -1.9349  -1.9302  -1.8947  -1.8677  -1.8668  -1.8351  -1.8117  -1.7857
    -1.7838  -1.7692  -1.7393  -1.7122  -1.6361  -1.6272  -1.6001  -1.5839
    -0.2519   0.2219   0.8852   1.4571   1.5425   1.6079   2.1323   2.6573
     2.8287   2.9504   3.7284   3.7974   4.2222   5.0600   5.3871

          k = 0.0279 0.0161 0.0000 ( 19455 PWs)   bands (ev):

   -91.2650 -90.6125 -90.5994 -90.5958 -90.5927 -90.4419 -90.4020 -90.3962
   -90.3908 -90.3907 -90.3809 -90.3723 -54.9387 -54.6702 -54.6206 -54.1410
   -54.1376 -54.1303 -54.1138 -54.0980 -54.0928 -54.0874 -54.0819 -54.0791
   -54.0764 -54.0598 -54.0568 -53.9649 -53.9600 -53.9436 -53.9370 -53.9237
   -53.9068 -53.9011 -53.8989 -53.8928 -53.8869 -53.8799 -53.8728 -53.8721
   -53.8674 -53.8667 -53.8650 -53.8644 -53.8625 -53.8614 -53.8604 -53.8570
   -10.6773  -5.1051  -5.0152  -4.8263  -4.3381  -4.2956  -4.2407  -4.2195
    -4.1997  -4.1846  -4.1608  -4.0890  -4.0435  -4.0244  -3.9429  -3.9213
    -3.9122  -3.8074  -3.7095  -3.3435  -3.2811  -3.2604  -3.2188  -3.2106
    -3.1883  -3.1348  -3.0909  -3.0818  -3.0458  -3.0084  -3.0036  -2.9607
    -2.9546  -2.8589  -2.6177  -2.5976  -2.5260  -2.4833  -2.4694  -2.3697
    -2.3300  -2.3120  -2.2281  -2.1987  -2.1612  -2.1111  -2.0990  -2.0426
    -1.9412  -1.9317  -1.8963  -1.8688  -1.8682  -1.8305  -1.8144  -1.7845
    -1.7786  -1.7699  -1.7385  -1.7115  -1.6385  -1.6286  -1.6006  -1.5834
    -0.2556   0.3834   0.8835   1.2396   1.5220   1.7799   1.8929   2.5692
     2.9131   3.1072   3.7190   3.9797   4.1008   5.0394   5.3857

          k = 0.0279 0.0484 0.0000 ( 19453 PWs)   bands (ev):

   -91.2650 -90.6123 -90.5990 -90.5963 -90.5928 -90.4418 -90.4017 -90.3964
   -90.3908 -90.3906 -90.3810 -90.3723 -54.9387 -54.6700 -54.6201 -54.1363
   -54.1292 -54.1232 -54.1132 -54.0978 -54.0940 -54.0892 -54.0873 -54.0790
   -54.0777 -54.0689 -54.0593 -53.9609 -53.9535 -53.9368 -53.9303 -53.9236
   -53.9084 -53.9062 -53.8982 -53.8906 -53.8888 -53.8797 -53.8791 -53.8728
   -53.8710 -53.8693 -53.8667 -53.8650 -53.8632 -53.8627 -53.8609 -53.8588
   -10.6740  -5.0609  -5.0019  -4.5377  -4.2413  -4.1577  -4.1191  -4.0755
    -4.0643  -4.0419  -4.0030  -3.9577  -3.9245  -3.9081  -3.8081  -3.7732
    -3.7370  -3.6722  -3.6083  -3.3560  -3.3053  -3.2901  -3.2647  -3.1981
    -3.1686  -3.1305  -3.0938  -3.0573  -3.0075  -2.9947  -2.9508  -2.9240
    -2.8804  -2.7993  -2.7189  -2.6945  -2.6642  -2.5962  -2.5281  -2.4266
    -2.4153  -2.4046  -2.3393  -2.3013  -2.2466  -2.2184  -2.1786  -2.1620
    -2.1462  -2.1053  -2.0592  -2.0324  -2.0114  -1.9856  -1.9786  -1.9271
    -1.8487  -1.8286  -1.8085  -1.7747  -1.7354  -1.7079  -1.6730  -1.5877
    -0.2795  -0.2311  -0.0564   0.7810   1.0546   1.7356   1.9093   2.9175
     3.0802   3.3786   3.6675   4.1487   4.3448   5.2888   5.5042

          k = 0.0279-0.1129 0.0000 ( 19479 PWs)   bands (ev):

   -91.2650 -90.6121 -90.5987 -90.5966 -90.5930 -90.4418 -90.4015 -90.3964
   -90.3910 -90.3905 -90.3810 -90.3725 -54.9387 -54.6695 -54.6199 -54.1287
   -54.1182 -54.1127 -54.1118 -54.1014 -54.0976 -54.0930 -54.0884 -54.0874
   -54.0798 -54.0734 -54.0632 -53.9552 -53.9458 -53.9292 -53.9237 -53.9231
   -53.9094 -53.9082 -53.9034 -53.8928 -53.8863 -53.8841 -53.8792 -53.8777
   -53.8732 -53.8725 -53.8687 -53.8663 -53.8651 -53.8632 -53.8614 -53.8597
   -10.6712  -5.0309  -4.9902  -4.1445  -4.0926  -3.9709  -3.9476  -3.8942
    -3.8697  -3.8403  -3.8239  -3.7828  -3.7526  -3.6795  -3.6330  -3.6219
    -3.5402  -3.5052  -3.4801  -3.4363  -3.3817  -3.2993  -3.2444  -3.1787
    -3.1601  -3.1449  -3.0715  -3.0359  -3.0038  -2.9809  -2.9438  -2.9319
    -2.8968  -2.8435  -2.8235  -2.7592  -2.6971  -2.6407  -2.6077  -2.5906
    -2.5736  -2.5364  -2.5191  -2.4726  -2.4372  -2.4125  -2.3698  -2.3405
    -2.3014  -2.2559  -2.2357  -2.1947  -2.1529  -2.1298  -2.0835  -2.0154
    -1.9743  -1.9352  -1.8512  -1.8104  -1.8019  -1.7517  -1.7009  -1.5103
    -1.2358  -0.4789  -0.3472   0.3210   1.0517   1.4275   2.0986   2.7581
     3.0797   3.6139   4.2443   4.4602   5.0353   5.3681   5.7613

          k = 0.0279-0.0806 0.0000 ( 19479 PWs)   bands (ev):

   -91.2650 -90.6121 -90.5990 -90.5962 -90.5932 -90.4418 -90.4017 -90.3962
   -90.3911 -90.3906 -90.3808 -90.3726 -54.9387 -54.6694 -54.6201 -54.1280
   -54.1184 -54.1126 -54.1118 -54.1030 -54.0971 -54.0932 -54.0890 -54.0864
   -54.0799 -54.0734 -54.0627 -53.9545 -53.9459 -53.9313 -53.9241 -53.9234
   -53.9141 -53.9037 -53.8970 -53.8918 -53.8884 -53.8859 -53.8798 -53.8787
   -53.8736 -53.8722 -53.8680 -53.8665 -53.8652 -53.8628 -53.8616 -53.8597
   -10.6719  -5.0311  -4.9904  -4.1505  -4.0559  -3.9728  -3.9488  -3.8980
    -3.8766  -3.8520  -3.8028  -3.7853  -3.7583  -3.6645  -3.6321  -3.6039
    -3.5390  -3.5172  -3.4931  -3.4337  -3.3830  -3.2613  -3.2380  -3.1951
    -3.1625  -3.1514  -3.1165  -3.0518  -2.9912  -2.9752  -2.9443  -2.9211
    -2.8929  -2.8673  -2.8213  -2.7757  -2.6724  -2.6411  -2.6120  -2.5954
    -2.5750  -2.5343  -2.5189  -2.4791  -2.4443  -2.3975  -2.3668  -2.3459
    -2.2967  -2.2649  -2.2368  -2.2059  -2.1435  -2.1246  -2.0768  -2.0203
    -1.9752  -1.9341  -1.8501  -1.8115  -1.8015  -1.7516  -1.7015  -1.4916
    -1.2600  -0.5351  -0.3034   0.4140   0.8037   1.6173   2.1553   2.7340
     2.9928   3.7827   4.1095   4.4634   5.0110   5.3137   5.8066

          k = 0.0279-0.0484 0.0000 ( 19453 PWs)   bands (ev):

   -91.2650 -90.6123 -90.5994 -90.5956 -90.5931 -90.4418 -90.4020 -90.3959
   -90.3910 -90.3908 -90.3807 -90.3725 -54.9387 -54.6696 -54.6205 -54.1346
   -54.1303 -54.1234 -54.1131 -54.0981 -54.0937 -54.0911 -54.0872 -54.0786
   -54.0769 -54.0697 -54.0584 -53.9586 -53.9553 -53.9392 -53.9312 -53.9236
   -53.9098 -53.9011 -53.8955 -53.8928 -53.8880 -53.8798 -53.8792 -53.8724
   -53.8719 -53.8708 -53.8670 -53.8652 -53.8633 -53.8620 -53.8615 -53.8585
   -10.6752  -5.0608  -5.0012  -4.5385  -4.2283  -4.1377  -4.1198  -4.0771
    -4.0615  -4.0441  -4.0043  -3.9671  -3.9201  -3.8904  -3.8080  -3.7645
    -3.7350  -3.6543  -3.6190  -3.3701  -3.3083  -3.3019  -3.2557  -3.2008
    -3.1678  -3.1299  -3.1147  -3.0339  -3.0068  -2.9826  -2.9479  -2.9245
    -2.8895  -2.7992  -2.7632  -2.6951  -2.6743  -2.6144  -2.4796  -2.4538
    -2.4171  -2.4036  -2.3380  -2.2935  -2.2512  -2.2151  -2.1848  -2.1627
    -2.1343  -2.1113  -2.0533  -2.0382  -2.0065  -1.9878  -1.9665  -1.9290
    -1.8480  -1.8281  -1.8078  -1.7721  -1.7334  -1.7094  -1.6759  -1.6106
    -0.3595  -0.1919  -0.0551   0.6265   1.1477   1.8424   2.0315   2.8781
     3.2118   3.3641   3.5210   4.0367   4.2802   5.3326   5.4996

          k = 0.0559-0.0323 0.0000 ( 19481 PWs)   bands (ev):

   -91.2650 -90.6122 -90.5994 -90.5955 -90.5933 -90.4418 -90.4020 -90.3958
   -90.3912 -90.3907 -90.3806 -90.3726 -54.9387 -54.6695 -54.6205 -54.1326
   -54.1279 -54.1195 -54.1129 -54.0981 -54.0924 -54.0921 -54.0873 -54.0870
   -54.0745 -54.0718 -54.0593 -53.9575 -53.9521 -53.9377 -53.9298 -53.9235
   -53.9088 -53.9000 -53.8988 -53.8927 -53.8857 -53.8832 -53.8797 -53.8739
   -53.8723 -53.8715 -53.8669 -53.8656 -53.8652 -53.8623 -53.8616 -53.8586
   -10.6747  -5.0506  -4.9965  -4.4193  -4.2051  -4.1153  -4.0632  -4.0155
    -3.9992  -3.9608  -3.9522  -3.8895  -3.8815  -3.8573  -3.7861  -3.6787
    -3.6543  -3.6257  -3.5481  -3.3696  -3.3491  -3.3271  -3.3041  -3.1731
    -3.1238  -3.0956  -3.0839  -3.0446  -2.9842  -2.9287  -2.9248  -2.8793
    -2.8470  -2.8394  -2.8037  -2.7443  -2.6811  -2.6503  -2.5404  -2.4749
    -2.4369  -2.4195  -2.3635  -2.3496  -2.3306  -2.2845  -2.2754  -2.2395
    -2.2042  -2.1528  -2.1318  -2.1228  -2.0616  -2.0583  -1.9832  -1.9667
    -1.9229  -1.8999  -1.8127  -1.7533  -1.7483  -1.6865  -1.6228  -1.5416
    -1.2969  -0.3069   0.3152   1.1221   1.2608   1.4660   1.9372   2.5498
     2.6357   3.2719   3.6024   4.6774   4.8771   5.4189   5.7305

          k = 0.0559 0.0000 0.0000 ( 19453 PWs)   bands (ev):

   -91.2650 -90.6123 -90.5992 -90.5959 -90.5930 -90.4418 -90.4018 -90.3962
   -90.3909 -90.3907 -90.3809 -90.3724 -54.9387 -54.6698 -54.6203 -54.1356
   -54.1297 -54.1233 -54.1132 -54.0981 -54.0931 -54.0910 -54.0870 -54.0794
   -54.0765 -54.0692 -54.0591 -53.9601 -53.9541 -53.9378 -53.9308 -53.9236
   -53.9077 -53.9060 -53.8979 -53.8903 -53.8884 -53.8799 -53.8793 -53.8726
   -53.8699 -53.8690 -53.8667 -53.8651 -53.8644 -53.8628 -53.8610 -53.8593
   -10.6748  -5.0611  -5.0004  -4.5382  -4.2340  -4.1499  -4.1183  -4.0757
    -4.0638  -4.0421  -4.0036  -3.9624  -3.9206  -3.9009  -3.8077  -3.7692
    -3.7363  -3.6651  -3.6122  -3.3610  -3.3061  -3.2982  -3.2591  -3.1993
    -3.1683  -3.1304  -3.1067  -3.0427  -3.0072  -2.9894  -2.9502  -2.9242
    -2.8835  -2.7993  -2.7397  -2.6949  -2.6696  -2.6085  -2.5021  -2.4377
    -2.4160  -2.4041  -2.3395  -2.2954  -2.2506  -2.2166  -2.1827  -2.1625
    -2.1401  -2.1083  -2.0562  -2.0350  -2.0091  -1.9868  -1.9732  -1.9278
    -1.8484  -1.8283  -1.8083  -1.7737  -1.7344  -1.7086  -1.6746  -1.5989
    -0.3261  -0.2064  -0.0556   0.6855   1.1113   1.8179   1.9422   2.8979
     3.1295   3.3657   3.6214   4.0758   4.3189   5.3129   5.5029

          k = 0.0559 0.0323 0.0000 ( 19481 PWs)   bands (ev):

   -91.2650 -90.6122 -90.5987 -90.5966 -90.5928 -90.4418 -90.4015 -90.3966
   -90.3908 -90.3905 -90.3811 -90.3723 -54.9387 -54.6700 -54.6199 -54.1347
   -54.1273 -54.1186 -54.1130 -54.0979 -54.0939 -54.0900 -54.0878 -54.0842
   -54.0744 -54.0739 -54.0600 -53.9606 -53.9498 -53.9333 -53.9279 -53.9235
   -53.9110 -53.9078 -53.8976 -53.8910 -53.8863 -53.8854 -53.8793 -53.8730
   -53.8709 -53.8688 -53.8672 -53.8663 -53.8649 -53.8635 -53.8607 -53.8586
   -10.6728  -5.0503  -4.9966  -4.4178  -4.2080  -4.1523  -4.0799  -4.0056
    -4.0033  -3.9736  -3.9517  -3.9159  -3.8819  -3.8451  -3.7872  -3.6953
    -3.6754  -3.6028  -3.5523  -3.3795  -3.3517  -3.3086  -3.2296  -3.1947
    -3.1234  -3.0921  -3.0829  -3.0705  -2.9831  -2.9439  -2.9229  -2.8804
    -2.8481  -2.8253  -2.7907  -2.7551  -2.6510  -2.5949  -2.5338  -2.5013
    -2.4365  -2.4324  -2.3749  -2.3356  -2.3215  -2.3034  -2.2726  -2.2478
    -2.1972  -2.1600  -2.1297  -2.1222  -2.0602  -2.0550  -2.0076  -1.9684
    -1.9259  -1.9001  -1.8140  -1.7585  -1.7515  -1.6864  -1.6213  -1.5194
    -1.2291  -0.2469   0.4787   0.8499   1.2012   1.5894   1.6788   2.5412
     2.9440   3.0888   3.6923   4.7882   4.8757   5.4421   5.6947

          k = 0.0559-0.1290 0.0000 ( 19479 PWs)   bands (ev):

   -91.2650 -90.6121 -90.5983 -90.5971 -90.5929 -90.4418 -90.4014 -90.3967
   -90.3909 -90.3904 -90.3812 -90.3724 -54.9387 -54.6697 -54.6197 -54.1294
   -54.1185 -54.1130 -54.1109 -54.1019 -54.0959 -54.0941 -54.0877 -54.0870
   -54.0794 -54.0743 -54.0635 -53.9564 -53.9450 -53.9250 -53.9235 -53.9216
   -53.9154 -53.9107 -53.9010 -53.8949 -53.8877 -53.8811 -53.8790 -53.8774
   -53.8728 -53.8719 -53.8680 -53.8659 -53.8650 -53.8639 -53.8612 -53.8608
   -10.6708  -5.0306  -4.9891  -4.1402  -4.1052  -3.9855  -3.9514  -3.8959
    -3.8733  -3.8510  -3.8175  -3.7873  -3.7538  -3.6774  -3.6305  -3.6198
    -3.5381  -3.5026  -3.4741  -3.4495  -3.3824  -3.2709  -3.2391  -3.1848
    -3.1607  -3.1446  -3.0745  -3.0422  -3.0060  -2.9800  -2.9413  -2.9325
    -2.8931  -2.8465  -2.8158  -2.7494  -2.6854  -2.6412  -2.6098  -2.5959
    -2.5799  -2.5386  -2.5203  -2.4725  -2.4348  -2.4071  -2.3727  -2.3409
    -2.3020  -2.2481  -2.2352  -2.2007  -2.1489  -2.1295  -2.0799  -2.0281
    -1.9739  -1.9367  -1.8497  -1.8128  -1.8028  -1.7529  -1.7000  -1.4953
    -1.2276  -0.4203  -0.3786   0.3350   0.8904   1.6535   1.9294   2.7643
     3.0789   3.6637   4.2488   4.4593   5.0359   5.4009   5.7261

          k = 0.0559-0.0968 0.0000 ( 19479 PWs)   bands (ev):

   -91.2650 -90.6120 -90.5986 -90.5966 -90.5931 -90.4417 -90.4015 -90.3964
   -90.3911 -90.3905 -90.3809 -90.3725 -54.9386 -54.6694 -54.6198 -54.1199
   -54.1177 -54.1123 -54.1059 -54.1041 -54.1025 -54.0959 -54.0924 -54.0873
   -54.0756 -54.0744 -54.0676 -53.9496 -53.9471 -53.9251 -53.9235 -53.9154
   -53.9131 -53.9113 -53.9102 -53.8900 -53.8865 -53.8833 -53.8790 -53.8773
   -53.8771 -53.8724 -53.8670 -53.8661 -53.8655 -53.8645 -53.8635 -53.8612
   -10.6707  -5.0222  -4.9858  -4.0837  -3.8688  -3.8280  -3.7963  -3.7729
    -3.7342  -3.7226  -3.6978  -3.6653  -3.6583  -3.6520  -3.6300  -3.6197
    -3.6064  -3.4825  -3.4489  -3.3859  -3.3555  -3.3156  -3.2992  -3.1912
    -3.1790  -3.1563  -3.1185  -3.0325  -3.0187  -3.0157  -3.0080  -2.9991
    -2.9732  -2.9001  -2.8663  -2.7921  -2.7883  -2.7772  -2.7668  -2.7556
    -2.7373  -2.7184  -2.6314  -2.4985  -2.4244  -2.3565  -2.3525  -2.3299
    -2.3062  -2.2921  -2.1701  -2.1453  -2.0935  -2.0796  -2.0003  -1.9785
    -1.9315  -1.9186  -1.8944  -1.8516  -1.8360  -1.8090  -1.5099  -1.4840
    -1.4624  -0.8907  -0.4178  -0.2253   0.8422   1.4073   2.1890   2.6078
     3.4901   4.7201   4.7853   4.8084   4.9408   5.0956   5.6130

          k = 0.0559-0.0645 0.0000 ( 19479 PWs)   bands (ev):

   -91.2650 -90.6121 -90.5992 -90.5957 -90.5934 -90.4418 -90.4018 -90.3959
   -90.3913 -90.3907 -90.3807 -90.3726 -54.9387 -54.6692 -54.6202 -54.1270
   -54.1188 -54.1129 -54.1122 -54.1025 -54.0975 -54.0929 -54.0894 -54.0875
   -54.0797 -54.0722 -54.0630 -53.9532 -53.9469 -53.9327 -53.9253 -53.9235
   -53.9132 -53.9004 -53.8992 -53.8904 -53.8865 -53.8859 -53.8813 -53.8792
   -53.8751 -53.8720 -53.8666 -53.8659 -53.8652 -53.8628 -53.8618 -53.8611
   -10.6727  -5.0319  -4.9893  -4.1514  -4.0561  -3.9598  -3.9345  -3.8952
    -3.8715  -3.8464  -3.8039  -3.7755  -3.7587  -3.6564  -3.6373  -3.6053
    -3.5533  -3.5194  -3.4929  -3.4203  -3.3828  -3.3040  -3.2472  -3.1786
    -3.1600  -3.1517  -3.1097  -3.0506  -2.9899  -2.9705  -2.9488  -2.9136
    -2.9059  -2.8669  -2.8276  -2.7787  -2.6821  -2.6409  -2.6108  -2.5925
    -2.5698  -2.5315  -2.5127  -2.4817  -2.4467  -2.4017  -2.3642  -2.3460
    -2.2948  -2.2757  -2.2370  -2.2017  -2.1463  -2.1255  -2.0812  -2.0068
    -1.9760  -1.9328  -1.8520  -1.8095  -1.8005  -1.7508  -1.7028  -1.5101
    -1.2676  -0.5594  -0.3009   0.3842   0.9346   1.4799   2.2715   2.7455
     2.9630   3.7293   4.0965   4.4700   5.0141   5.2581   5.8769

          k =-0.0838 0.0484 0.0000 ( 19500 PWs)   bands (ev):

   -91.2650 -90.6121 -90.5993 -90.5955 -90.5936 -90.4418 -90.4019 -90.3958
   -90.3913 -90.3907 -90.3806 -90.3727 -54.9386 -54.6691 -54.6204 -54.1283
   -54.1203 -54.1126 -54.1083 -54.0998 -54.0952 -54.0930 -54.0919 -54.0904
   -54.0846 -54.0692 -54.0621 -53.9548 -53.9437 -53.9340 -53.9292 -53.9235
   -53.9071 -53.9011 -53.8953 -53.8948 -53.8882 -53.8847 -53.8835 -53.8793
   -53.8739 -53.8719 -53.8681 -53.8666 -53.8653 -53.8622 -53.8622 -53.8591
   -10.6731  -5.0325  -4.9888  -4.1569  -4.1040  -3.9875  -3.9661  -3.9195
    -3.9093  -3.8138  -3.7943  -3.7343  -3.6948  -3.6709  -3.6525  -3.6098
    -3.5562  -3.5509  -3.5212  -3.4155  -3.3024  -3.2438  -3.2287  -3.2187
    -3.2084  -3.1616  -3.0852  -2.9782  -2.9578  -2.8907  -2.8754  -2.8452
    -2.8261  -2.8146  -2.7869  -2.6851  -2.6310  -2.6057  -2.5949  -2.5775
    -2.5688  -2.5391  -2.5374  -2.5110  -2.4158  -2.3995  -2.3889  -2.3720
    -2.3354  -2.3018  -2.2972  -2.2773  -2.2462  -2.2290  -2.1573  -2.1462
    -2.0775  -2.0122  -1.9374  -1.8215  -1.7652  -1.7560  -1.6806  -1.6224
    -1.1909  -0.9390   0.4181   1.0756   1.1472   1.2464   2.1535   2.3035
     2.6349   3.0759   4.2936   4.4535   4.7753   5.5038   6.0330

          k =-0.0838 0.0806 0.0000 ( 19479 PWs)   bands (ev):

   -91.2650 -90.6121 -90.5991 -90.5959 -90.5933 -90.4418 -90.4017 -90.3961
   -90.3912 -90.3906 -90.3807 -90.3726 -54.9387 -54.6693 -54.6202 -54.1275
   -54.1186 -54.1128 -54.1123 -54.1019 -54.0978 -54.0924 -54.0896 -54.0875
   -54.0796 -54.0721 -54.0634 -53.9538 -53.9466 -53.9317 -53.9251 -53.9234
   -53.9104 -53.9037 -53.9030 -53.8901 -53.8861 -53.8855 -53.8794 -53.8779
   -53.8748 -53.8721 -53.8672 -53.8665 -53.8652 -53.8631 -53.8618 -53.8609
   -10.6724  -5.0320  -4.9884  -4.1496  -4.0701  -3.9610  -3.9366  -3.8934
    -3.8675  -3.8360  -3.8163  -3.7763  -3.7534  -3.6685  -3.6391  -3.6184
    -3.5459  -3.5120  -3.4888  -3.4206  -3.3819  -3.3206  -3.2464  -3.1770
    -3.1597  -3.1457  -3.0866  -3.0459  -2.9918  -2.9748  -2.9489  -2.9249
    -2.9017  -2.8527  -2.8313  -2.7740  -2.6910  -2.6411  -2.6092  -2.5901
    -2.5675  -2.5323  -2.5138  -2.4776  -2.4438  -2.4087  -2.3664  -2.3422
    -2.3001  -2.2688  -2.2367  -2.1974  -2.1501  -2.1284  -2.0838  -2.0053
    -1.9757  -1.9333  -1.8525  -1.8090  -1.8007  -1.7509  -1.7025  -1.5194
    -1.2548  -0.5386  -0.3174   0.3421   1.0890   1.3533   2.2298   2.7571
     3.0163   3.6409   4.1601   4.4723   5.0176   5.2883   5.8536

          k =-0.0838 0.1129 0.0000 ( 19479 PWs)   bands (ev):

   -91.2650 -90.6121 -90.5985 -90.5968 -90.5930 -90.4418 -90.4014 -90.3966
   -90.3909 -90.3905 -90.3811 -90.3724 -54.9387 -54.6696 -54.6198 -54.1291
   -54.1185 -54.1129 -54.1109 -54.1027 -54.0962 -54.0937 -54.0886 -54.0858
   -54.0795 -54.0743 -54.0635 -53.9561 -53.9449 -53.9267 -53.9235 -53.9220
   -53.9131 -53.9126 -53.8993 -53.8926 -53.8896 -53.8830 -53.8790 -53.8744
   -53.8728 -53.8720 -53.8696 -53.8660 -53.8650 -53.8639 -53.8612 -53.8609
   -10.6712  -5.0310  -4.9884  -4.1463  -4.0817  -3.9899  -3.9518  -3.8975
    -3.8759  -3.8538  -3.8096  -3.7890  -3.7558  -3.6718  -3.6310  -3.6128
    -3.5363  -3.5042  -3.4846  -3.4462  -3.3830  -3.2567  -3.2212  -3.2019
    -3.1616  -3.1456  -3.0996  -3.0509  -2.9970  -2.9783  -2.9416  -2.9285
    -2.8903  -2.8552  -2.8161  -2.7626  -2.6667  -2.6437  -2.6135  -2.5976
    -2.5793  -2.5377  -2.5205  -2.4752  -2.4391  -2.3983  -2.3723  -2.3429
    -2.3010  -2.2511  -2.2364  -2.2075  -2.1434  -2.1273  -2.0753  -2.0320
    -1.9746  -1.9361  -1.8492  -1.8135  -1.8026  -1.7528  -1.7004  -1.4861
    -1.2388  -0.4738  -0.3332   0.3851   0.7843   1.7550   1.9213   2.7550
     3.0412   3.7418   4.1774   4.4673   5.0178   5.3740   5.7502

          k =-0.0838-0.0484 0.0000 ( 19500 PWs)   bands (ev):

   -91.2650 -90.6121 -90.5980 -90.5974 -90.5929 -90.4418 -90.4013 -90.3969
   -90.3908 -90.3904 -90.3813 -90.3723 -54.9386 -54.6699 -54.6196 -54.1309
   -54.1201 -54.1127 -54.1066 -54.0991 -54.0965 -54.0914 -54.0899 -54.0882
   -54.0859 -54.0723 -54.0622 -53.9582 -53.9418 -53.9257 -53.9236 -53.9223
   -53.9180 -53.9027 -53.9026 -53.8965 -53.8925 -53.8789 -53.8779 -53.8770
   -53.8739 -53.8725 -53.8699 -53.8657 -53.8650 -53.8642 -53.8608 -53.8589
   -10.6706  -5.0306  -4.9887  -4.1450  -4.1024  -4.0706  -3.9864  -3.9429
    -3.9085  -3.8645  -3.7964  -3.7356  -3.7032  -3.6645  -3.6491  -3.5916
    -3.5632  -3.5578  -3.4815  -3.4378  -3.2503  -3.2392  -3.2287  -3.2191
    -3.1706  -3.1378  -3.1031  -3.0343  -2.9477  -2.8925  -2.8716  -2.8443
    -2.8187  -2.7892  -2.7707  -2.6653  -2.6455  -2.6157  -2.5900  -2.5779
    -2.5645  -2.5582  -2.5384  -2.4741  -2.4209  -2.4151  -2.3836  -2.3726
    -2.3143  -2.3045  -2.2861  -2.2550  -2.2287  -2.2268  -2.1555  -2.1501
    -2.0817  -2.0464  -1.9415  -1.8236  -1.7676  -1.7631  -1.6826  -1.6202
    -1.1980  -0.7664   0.4265   0.7985   1.1421   1.5335   1.7708   2.2226
     2.9712   3.0815   4.2641   4.4015   4.9620   5.6195   5.7677

     the Fermi energy is     1.4339 ev

!    total energy              =   -3573.63811778 Ry
     Harris-Foulkes estimate   =   -3573.63811714 Ry
     estimated scf accuracy    <       0.00000085 Ry

     The total energy is the sum of the following terms:

     one-electron contribution =  -26063.00678878 Ry
     hartree contribution      =   13025.38459907 Ry
     xc contribution           =    -366.13170255 Ry
     ewald contribution        =    9830.14206509 Ry
     electric field correction =       0.00000194 Ry
     smearing contrib. (-TS)   =      -0.02629254 Ry

     convergence has been achieved in  16 iterations
 
 BEEF-vdW xc energy contributions
           1 :   -317.111277968919     
           2 :    286.953494488921     
           3 :   -236.733784289464     
           4 :    181.671985839673     
           5 :   -135.489650863238     
           6 :    105.514577547511     
           7 :   -91.3768618800922     
           8 :    87.2260590208168     
           9 :   -85.8081972086542     
          10 :    82.1065627074549     
          11 :   -74.8965639624822     
          12 :    65.9361028766647     
          13 :   -57.8360145717519     
          14 :    52.1397620814708     
          15 :   -48.6619059184196     
          16 :    46.1277139691854     
          17 :   -43.3542271504136     
          18 :    40.0428851766814     
          19 :   -36.7346051445871     
          20 :    34.1462979920670     
          21 :   -32.5010802126538     
          22 :    31.3510030588641     
          23 :   -29.9574929695536     
          24 :    27.8794736870419     
          25 :   -25.3146324909677     
          26 :    22.9555406789145     
          27 :   -21.4896746398355     
          28 :    21.1148067818527     
          29 :   -21.4120879664879     
          30 :    21.6464706198922     
          31 :   -31.7799815581164     
          32 :   -23.0964952342764     

     Forces acting on atoms (Ry/au):


     negative rho (up, down):  1.983E-03 0.000E+00
     atom    1 type  1   force =    -0.00107336   -0.00077422   -0.00021940
     atom    2 type  1   force =     0.00104737   -0.00026214   -0.00001059
     atom    3 type  1   force =     0.00042845    0.00114297   -0.00018393
     atom    4 type  1   force =    -0.00042906   -0.00008655    0.00170772
     atom    5 type  1   force =    -0.00012295   -0.00236232    0.00043876
     atom    6 type  1   force =    -0.00009057   -0.00006418    0.00185327
     atom    7 type  1   force =     0.00177343    0.00116334   -0.00006487
     atom    8 type  1   force =    -0.00218475    0.00126120    0.00080387
     atom    9 type  1   force =     0.00072508    0.00003176   -0.11387042
     atom   10 type  1   force =    -0.00025530    0.00018864   -0.00204765
     atom   11 type  1   force =     0.00015450   -0.00025616   -0.00843884
     atom   12 type  1   force =    -0.00014994    0.00004562    0.00383088
     atom   13 type  2   force =     0.00017490   -0.00004607    0.12203218
     atom   14 type  3   force =     0.00211577    0.00195473   -0.00292783
     atom   15 type  3   force =    -0.00211358   -0.00193663   -0.00290314

     Total force =     0.167280     Total SCF correction =     0.002351


     entering subroutine stress ...


     negative rho (up, down):  1.983E-03 0.000E+00
          total   stress  (Ry/bohr**3)                   (kbar)     P=   -2.11
  -0.00005107   0.00000783   0.00000074         -7.51      1.15      0.11
   0.00000783  -0.00005135  -0.00000005          1.15     -7.55     -0.01
   0.00000074  -0.00000005   0.00005936          0.11     -0.01      8.73


     BFGS Geometry Optimization

     number of scf cycles    =   1
     number of bfgs steps    =   0

     energy   new            =   -3573.6381177788 Ry

     new trust radius        =       0.1220323177 bohr
     new conv_thr            =       0.0000099958 Ry


ATOMIC_POSITIONS (crystal)
Ag1      0.166666667   0.166666667   0.402063960    0   0   0
Ag1      0.666666667   0.166666667   0.402063960    0   0   0
Ag1      0.166666667   0.666666667   0.402063960    0   0   0
Ag1      0.666666667   0.666666667   0.402063960    0   0   0
Ag1      0.833333333   0.333333333   0.500000000    0   0   0
Ag1      0.333333333   0.333333333   0.500000000    0   0   0
Ag1      0.833333333   0.833333333   0.500000000    0   0   0
Ag1      0.333333333   0.833333333   0.500000000    0   0   0
Ag1      0.000062681   0.000003253   0.595513298
Ag1      0.499967698   0.000019319   0.597892474
Ag1      0.000026819   0.499973766   0.597756493
Ag1      0.499984366   0.500004672   0.598017547
C1       0.000017871  -0.000004718   0.676060149
H1       0.044714601   0.122123539   0.698731491
H1       0.955284667   0.877878315   0.698732016



     Writing output data file calc.save
     Check: negative starting charge=   -0.001939
     NEW-OLD atomic charge density approx. for the potential
     Check: negative starting charge=   -0.001945

     negative rho (up, down):  1.957E-03 0.000E+00
 
     Adding external electric field

     Computed dipole along edir(3) : 
        Dipole               -0.0320 Ry au,         -0.0814 Debye
        Dipole field         -0.0001 Ry au
 
        Potential amp.        0.0071 Ry
        Total length         45.8256 bohr
 

     total cpu time spent up to now is      564.9 secs

     per-process dynamical memory:   127.5 Mb

     Self-consistent Calculation

     iteration #  1     ecut=    36.75 Ry     beta=0.30
     Davidson diagonalization with overlap
     ethr =  1.00E-06,  avg # of iterations =  5.8

     negative rho (up, down):  1.967E-03 0.000E+00
 
     Adding external electric field

     Computed dipole along edir(3) : 
        Dipole                0.1936 Ry au,          0.4921 Debye
        Dipole field          0.0005 Ry au
 
        Potential amp.       -0.0431 Ry
        Total length         45.8256 bohr
 

     total cpu time spent up to now is      603.8 secs

     total energy              =   -3573.64810303 Ry
     Harris-Foulkes estimate   =   -3573.65199508 Ry
     estimated scf accuracy    <       0.00928517 Ry

     iteration #  2     ecut=    36.75 Ry     beta=0.30
     Davidson diagonalization with overlap
     ethr =  3.97E-06,  avg # of iterations =  5.3

     negative rho (up, down):  1.982E-03 0.000E+00
 
     Adding external electric field

     Computed dipole along edir(3) : 
        Dipole               -0.0210 Ry au,         -0.0533 Debye
        Dipole field         -0.0001 Ry au
 
        Potential amp.        0.0047 Ry
        Total length         45.8256 bohr
 

     total cpu time spent up to now is      632.7 secs

     total energy              =   -3573.63972068 Ry
     Harris-Foulkes estimate   =   -3573.66132784 Ry
     estimated scf accuracy    <       0.31975653 Ry

     iteration #  3     ecut=    36.75 Ry     beta=0.30
     Davidson diagonalization with overlap
     ethr =  3.97E-06,  avg # of iterations =  5.5

     negative rho (up, down):  1.987E-03 0.000E+00
 
     Adding external electric field

     Computed dipole along edir(3) : 
        Dipole                0.0066 Ry au,          0.0168 Debye
        Dipole field          0.0000 Ry au
 
        Potential amp.       -0.0015 Ry
        Total length         45.8256 bohr
 

     total cpu time spent up to now is      659.8 secs

     total energy              =   -3573.65073806 Ry
     Harris-Foulkes estimate   =   -3573.65123582 Ry
     estimated scf accuracy    <       0.00458067 Ry

     iteration #  4     ecut=    36.75 Ry     beta=0.30
     Davidson diagonalization with overlap
     ethr =  1.96E-06,  avg # of iterations =  5.1

     negative rho (up, down):  1.991E-03 0.000E+00
 
     Adding external electric field

     Computed dipole along edir(3) : 
        Dipole               -0.0043 Ry au,         -0.0109 Debye
        Dipole field         -0.0000 Ry au
 
        Potential amp.        0.0010 Ry
        Total length         45.8256 bohr
 

     total cpu time spent up to now is      685.8 secs

     total energy              =   -3573.65091915 Ry
     Harris-Foulkes estimate   =   -3573.65109159 Ry
     estimated scf accuracy    <       0.00099942 Ry

     iteration #  5     ecut=    36.75 Ry     beta=0.30
     Davidson diagonalization with overlap
     ethr =  4.27E-07,  avg # of iterations =  3.4

     negative rho (up, down):  1.990E-03 0.000E+00
 
     Adding external electric field

     Computed dipole along edir(3) : 
        Dipole               -0.0006 Ry au,         -0.0015 Debye
        Dipole field         -0.0000 Ry au
 
        Potential amp.        0.0001 Ry
        Total length         45.8256 bohr
 

     total cpu time spent up to now is      710.5 secs

     total energy              =   -3573.65102462 Ry
     Harris-Foulkes estimate   =   -3573.65103116 Ry
     estimated scf accuracy    <       0.00022889 Ry

     iteration #  6     ecut=    36.75 Ry     beta=0.30
     Davidson diagonalization with overlap
     ethr =  9.78E-08,  avg # of iterations =  2.0

     negative rho (up, down):  1.993E-03 0.000E+00
 
     Adding external electric field

     Computed dipole along edir(3) : 
        Dipole                0.0022 Ry au,          0.0057 Debye
        Dipole field          0.0000 Ry au
 
        Potential amp.       -0.0005 Ry
        Total length         45.8256 bohr
 

     total cpu time spent up to now is      733.7 secs

     total energy              =   -3573.65104744 Ry
     Harris-Foulkes estimate   =   -3573.65104340 Ry
     estimated scf accuracy    <       0.00001826 Ry

     iteration #  7     ecut=    36.75 Ry     beta=0.30
     Davidson diagonalization with overlap
     ethr =  7.80E-09,  avg # of iterations =  2.1

     negative rho (up, down):  1.998E-03 0.000E+00

     negative rho (up, down):  1.998E-03 0.000E+00

     negative rho (up, down):  1.998E-03 0.000E+00

     negative rho (up, down):  1.998E-03 0.000E+00

     negative rho (up, down):  1.998E-03 0.000E+00

     negative rho (up, down):  1.998E-03 0.000E+00

     negative rho (up, down):  1.998E-03 0.000E+00

     negative rho (up, down):  1.998E-03 0.000E+00

     negative rho (up, down):  1.998E-03 0.000E+00

     negative rho (up, down):  1.998E-03 0.000E+00

     negative rho (up, down):  1.998E-03 0.000E+00

     negative rho (up, down):  1.998E-03 0.000E+00

     negative rho (up, down):  1.998E-03 0.000E+00

     negative rho (up, down):  1.998E-03 0.000E+00

     negative rho (up, down):  1.998E-03 0.000E+00

     negative rho (up, down):  1.998E-03 0.000E+00

     negative rho (up, down):  1.998E-03 0.000E+00

     negative rho (up, down):  1.998E-03 0.000E+00

     negative rho (up, down):  1.998E-03 0.000E+00

     negative rho (up, down):  1.998E-03 0.000E+00

     negative rho (up, down):  1.998E-03 0.000E+00

     negative rho (up, down):  1.998E-03 0.000E+00

     negative rho (up, down):  1.998E-03 0.000E+00

     negative rho (up, down):  1.998E-03 0.000E+00

     negative rho (up, down):  1.998E-03 0.000E+00

     negative rho (up, down):  1.998E-03 0.000E+00

     negative rho (up, down):  1.998E-03 0.000E+00

     negative rho (up, down):  1.998E-03 0.000E+00

     negative rho (up, down):  1.998E-03 0.000E+00

     negative rho (up, down):  1.998E-03 0.000E+00

     negative rho (up, down):  1.998E-03 0.000E+00

     negative rho (up, down):  1.998E-03 0.000E+00

     negative rho (up, down):  1.998E-03 0.000E+00

     negative rho (up, down):  1.998E-03 0.000E+00

     negative rho (up, down):  1.998E-03 0.000E+00
 
     Adding external electric field

     Computed dipole along edir(3) : 
        Dipole                0.0011 Ry au,          0.0028 Debye
        Dipole field          0.0000 Ry au
 
        Potential amp.       -0.0002 Ry
        Total length         45.8256 bohr
 

     total cpu time spent up to now is      806.4 secs

     End of self-consistent calculation

          k = 0.0000 0.0000 0.0000 ( 19435 PWs)   bands (ev):

   -91.0093 -90.6461 -90.6328 -90.6284 -90.6250 -90.4711 -90.4295 -90.4231
   -90.4177 -90.4035 -90.3959 -90.3907 -54.5992 -54.4445 -54.4127 -54.1771
   -54.1750 -54.1669 -54.1472 -54.1314 -54.1253 -54.1199 -54.1122 -54.1117
   -54.1076 -54.0882 -54.0875 -53.9955 -53.9925 -53.9684 -53.9617 -53.9536
   -53.9275 -53.9255 -53.9198 -53.9122 -53.9096 -53.9077 -53.9000 -53.8946
   -53.8937 -53.8918 -53.8837 -53.8785 -53.8775 -53.8766 -53.8753 -53.8702
   -10.6746  -5.1022  -5.0392  -4.6333  -4.4053  -4.3801  -4.3651  -4.2995
    -4.2574  -4.2541  -4.2299  -4.1982  -4.1374  -4.1233  -4.0098  -4.0095
    -3.9872  -3.8096  -3.5973  -3.3713  -3.3399  -3.3062  -3.2662  -3.2548
    -3.1986  -3.1986  -3.0970  -3.0840  -3.0831  -3.0353  -3.0301  -2.9842
    -2.9514  -2.9512  -2.5094  -2.4442  -2.4440  -2.4399  -2.4380  -2.3657
    -2.3618  -2.3180  -2.1812  -2.1551  -2.1298  -2.1021  -2.0787  -1.9776
    -1.9152  -1.9074  -1.8631  -1.8274  -1.8259  -1.7822  -1.7782  -1.7292
    -1.7284  -1.7090  -1.6331  -1.6307  -1.5376  -1.5353  -1.5280  -1.5047
    -0.3686   0.9849   1.1750   1.8808   1.9240   2.0684   2.4582   2.6365
     2.6939   2.8512   3.0592   3.1470   3.5764   4.8841   5.0368

          k = 0.0000 0.0323 0.0000 ( 19455 PWs)   bands (ev):

   -91.0093 -90.6460 -90.6327 -90.6285 -90.6251 -90.4711 -90.4294 -90.4232
   -90.4178 -90.4034 -90.3959 -90.3908 -54.5992 -54.4442 -54.4123 -54.1738
   -54.1710 -54.1631 -54.1469 -54.1313 -54.1256 -54.1203 -54.1154 -54.1126
   -54.1084 -54.0933 -54.0889 -53.9926 -53.9893 -53.9647 -53.9583 -53.9535
   -53.9303 -53.9254 -53.9192 -53.9137 -53.9086 -53.9075 -53.9002 -53.8985
   -53.8949 -53.8926 -53.8835 -53.8807 -53.8785 -53.8774 -53.8765 -53.8715
   -10.6726  -5.0414  -4.9385  -4.5800  -4.3334  -4.2908  -4.2668  -4.2222
    -4.1955  -4.1882  -4.1629  -4.0920  -4.0685  -4.0632  -3.9479  -3.9048
    -3.8935  -3.7581  -3.5766  -3.3683  -3.3319  -3.2704  -3.2457  -3.2319
    -3.2179  -3.1762  -3.1238  -3.1003  -3.0496  -3.0241  -3.0125  -2.9818
    -2.9690  -2.8719  -2.6379  -2.5657  -2.5276  -2.5005  -2.4593  -2.3897
    -2.3471  -2.3328  -2.2478  -2.2138  -2.1731  -2.1414  -2.1183  -2.0647
    -1.9556  -1.9469  -1.9115  -1.8702  -1.8676  -1.8532  -1.8321  -1.8107
    -1.7960  -1.7926  -1.7470  -1.7139  -1.6590  -1.6509  -1.6265  -1.6055
    -0.2606   0.2904   0.8920   1.3152   1.5047   1.6611   1.9814   2.5574
     2.8968   2.9514   3.7006   3.8384   4.1379   5.0535   5.3763

          k = 0.0000 0.0645 0.0000 ( 19481 PWs)   bands (ev):

   -91.0093 -90.6457 -90.6324 -90.6289 -90.6253 -90.4710 -90.4291 -90.4233
   -90.4180 -90.4031 -90.3960 -90.3910 -54.5991 -54.4436 -54.4116 -54.1670
   -54.1603 -54.1521 -54.1460 -54.1311 -54.1274 -54.1232 -54.1204 -54.1179
   -54.1073 -54.1060 -54.0921 -53.9877 -53.9797 -53.9564 -53.9534 -53.9501
   -53.9364 -53.9256 -53.9186 -53.9160 -53.9113 -53.9073 -53.9045 -53.8999
   -53.8974 -53.8930 -53.8892 -53.8829 -53.8815 -53.8786 -53.8775 -53.8730
   -10.6686  -5.0380  -4.6121  -4.3923  -4.1801  -4.0962  -4.0745  -4.0327
    -4.0196  -3.9903  -3.9735  -3.9418  -3.9041  -3.8396  -3.7803  -3.6711
    -3.6416  -3.5589  -3.5359  -3.4051  -3.3693  -3.3378  -3.2848  -3.1829
    -3.1452  -3.1094  -3.1016  -3.0931  -2.9994  -2.9595  -2.9219  -2.9102
    -2.8638  -2.8469  -2.8071  -2.7755  -2.6502  -2.6344  -2.5443  -2.4831
    -2.4458  -2.4377  -2.3840  -2.3555  -2.3330  -2.3112  -2.2968  -2.2705
    -2.2244  -2.1624  -2.1563  -2.1403  -2.0810  -2.0683  -2.0117  -1.9759
    -1.9351  -1.9236  -1.8261  -1.7788  -1.7725  -1.7042  -1.6475  -1.5459
    -1.2837  -0.2855   0.3600   1.0231   1.1918   1.4782   1.7634   2.5285
     2.7350   3.1623   3.6213   4.7520   4.8205   5.4509   5.6922

          k = 0.0000-0.0968 0.0000 ( 19500 PWs)   bands (ev):

   -91.0093 -90.6456 -90.6322 -90.6290 -90.6254 -90.4710 -90.4290 -90.4234
   -90.4181 -90.4030 -90.3960 -90.3912 -54.5991 -54.4433 -54.4113 -54.1630
   -54.1526 -54.1457 -54.1413 -54.1328 -54.1286 -54.1268 -54.1233 -54.1197
   -54.1190 -54.1041 -54.0944 -53.9852 -53.9719 -53.9549 -53.9533 -53.9450
   -53.9341 -53.9257 -53.9240 -53.9185 -53.9161 -53.9071 -53.9010 -53.8999
   -53.8988 -53.8947 -53.8928 -53.8857 -53.8825 -53.8788 -53.8778 -53.8734
   -10.6666  -5.0363  -4.5276  -4.1301  -4.0954  -3.9923  -3.9690  -3.9590
    -3.9198  -3.8767  -3.8220  -3.7404  -3.7009  -3.6928  -3.6797  -3.5951
    -3.5644  -3.5529  -3.5006  -3.3771  -3.2766  -3.2700  -3.2415  -3.2359
    -3.2164  -3.1701  -3.0926  -2.9929  -2.9468  -2.9209  -2.8942  -2.8748
    -2.8468  -2.8111  -2.7897  -2.6595  -2.6519  -2.6267  -2.6130  -2.5982
    -2.5875  -2.5789  -2.5676  -2.4787  -2.4297  -2.4137  -2.3978  -2.3860
    -2.3332  -2.3160  -2.3128  -2.2896  -2.2626  -2.2531  -2.1672  -2.1554
    -2.1035  -2.0511  -1.9542  -1.8298  -1.7916  -1.7830  -1.6996  -1.6470
    -1.1992  -0.8816   0.3969   0.9185   1.1244   1.3539   1.9920   2.1693
     2.7776   3.0375   4.3284   4.3492   4.8667   5.5556   5.9183

          k = 0.0279-0.0161 0.0000 ( 19455 PWs)   bands (ev):

   -91.0093 -90.6460 -90.6327 -90.6284 -90.6251 -90.4711 -90.4294 -90.4231
   -90.4179 -90.4034 -90.3958 -90.3909 -54.5992 -54.4441 -54.4125 -54.1728
   -54.1718 -54.1632 -54.1468 -54.1314 -54.1253 -54.1206 -54.1151 -54.1137
   -54.1074 -54.0933 -54.0889 -53.9917 -53.9902 -53.9649 -53.9586 -53.9535
   -53.9305 -53.9258 -53.9180 -53.9129 -53.9096 -53.9076 -53.9000 -53.8979
   -53.8956 -53.8929 -53.8834 -53.8798 -53.8788 -53.8780 -53.8768 -53.8712
   -10.6730  -5.0358  -4.9403  -4.5815  -4.3385  -4.2809  -4.2681  -4.2238
    -4.1959  -4.1812  -4.1719  -4.0836  -4.0716  -4.0640  -3.9486  -3.9042
    -3.8928  -3.7588  -3.5660  -3.3630  -3.3457  -3.2723  -3.2389  -3.2307
    -3.2234  -3.1787  -3.1242  -3.1023  -3.0429  -3.0240  -3.0120  -2.9811
    -2.9693  -2.8719  -2.6406  -2.5770  -2.5223  -2.5060  -2.4531  -2.3885
    -2.3440  -2.3365  -2.2524  -2.2153  -2.1680  -2.1431  -2.1179  -2.0663
    -1.9527  -1.9456  -1.9106  -1.8687  -1.8673  -1.8557  -1.8304  -1.8104
    -1.7984  -1.7944  -1.7470  -1.7142  -1.6582  -1.6504  -1.6264  -1.6059
    -0.2589   0.2264   0.8808   1.4208   1.5182   1.5770   2.0866   2.6269
     2.7863   2.9164   3.7037   3.7795   4.1717   5.0647   5.3777

          k = 0.0279 0.0161 0.0000 ( 19455 PWs)   bands (ev):

   -91.0093 -90.6460 -90.6326 -90.6287 -90.6250 -90.4711 -90.4293 -90.4233
   -90.4177 -90.4033 -90.3961 -90.3907 -54.5992 -54.4443 -54.4122 -54.1744
   -54.1705 -54.1630 -54.1469 -54.1312 -54.1257 -54.1201 -54.1150 -54.1120
   -54.1093 -54.0928 -54.0894 -53.9934 -53.9886 -53.9646 -53.9579 -53.9535
   -53.9288 -53.9267 -53.9209 -53.9142 -53.9076 -53.9074 -53.9003 -53.8993
   -53.8943 -53.8923 -53.8835 -53.8798 -53.8786 -53.8772 -53.8768 -53.8721
   -10.6723  -5.0456  -4.9369  -4.5786  -4.3238  -4.3058  -4.2642  -4.2216
    -4.1950  -4.1922  -4.1572  -4.0953  -4.0687  -4.0630  -3.9475  -3.9051
    -3.8942  -3.7573  -3.5859  -3.3697  -3.3225  -3.2668  -3.2537  -3.2318
    -3.2150  -3.1728  -3.1234  -3.0979  -3.0572  -3.0239  -3.0127  -2.9826
    -2.9688  -2.8718  -2.6360  -2.5535  -2.5298  -2.4937  -2.4690  -2.3905
    -2.3489  -2.3314  -2.2435  -2.2108  -2.1796  -2.1405  -2.1190  -2.0630
    -1.9576  -1.9487  -1.9125  -1.8698  -1.8684  -1.8516  -1.8337  -1.8107
    -1.7959  -1.7898  -1.7467  -1.7137  -1.6594  -1.6519  -1.6268  -1.6053
    -0.2624   0.3590   0.9185   1.1976   1.5004   1.7460   1.8606   2.5435
     2.8821   3.0400   3.6958   3.9402   4.0598   5.0446   5.3691

          k = 0.0279 0.0484 0.0000 ( 19453 PWs)   bands (ev):

   -91.0093 -90.6458 -90.6322 -90.6291 -90.6251 -90.4711 -90.4290 -90.4236
   -90.4178 -90.4031 -90.3962 -90.3908 -54.5991 -54.4440 -54.4115 -54.1695
   -54.1623 -54.1560 -54.1463 -54.1311 -54.1269 -54.1220 -54.1199 -54.1123
   -54.1106 -54.1017 -54.0919 -53.9895 -53.9823 -53.9577 -53.9535 -53.9511
   -53.9338 -53.9259 -53.9226 -53.9179 -53.9073 -53.9063 -53.9035 -53.9002
   -53.8965 -53.8927 -53.8860 -53.8831 -53.8787 -53.8781 -53.8777 -53.8745
   -10.6690  -5.0441  -4.6815  -4.4623  -4.1851  -4.1687  -4.1271  -4.0855
    -4.0722  -4.0483  -4.0322  -4.0052  -3.9462  -3.8846  -3.8006  -3.7740
    -3.7150  -3.6192  -3.5640  -3.3744  -3.3306  -3.3140  -3.2860  -3.1962
    -3.1878  -3.1482  -3.1359  -3.0811  -3.0178  -3.0118  -2.9726  -2.9543
    -2.8914  -2.8175  -2.7240  -2.7069  -2.6770  -2.5878  -2.5175  -2.4343
    -2.4251  -2.4148  -2.3583  -2.3131  -2.2719  -2.2365  -2.1978  -2.1753
    -2.1553  -2.1262  -2.0674  -2.0444  -2.0303  -2.0052  -1.9901  -1.9525
    -1.8746  -1.8440  -1.8233  -1.7898  -1.7537  -1.7293  -1.6984  -1.6079
    -0.2886  -0.2462  -0.0809   0.7895   1.0248   1.7000   1.8617   2.8867
     3.0603   3.3548   3.6304   4.1090   4.3004   5.2924   5.4832

          k = 0.0279-0.1129 0.0000 ( 19479 PWs)   bands (ev):

   -91.0093 -90.6456 -90.6320 -90.6293 -90.6253 -90.4710 -90.4289 -90.4236
   -90.4180 -90.4029 -90.3962 -90.3911 -54.5991 -54.4433 -54.4111 -54.1619
   -54.1513 -54.1459 -54.1450 -54.1342 -54.1308 -54.1256 -54.1217 -54.1200
   -54.1123 -54.1063 -54.0959 -53.9840 -53.9748 -53.9534 -53.9507 -53.9431
   -53.9364 -53.9308 -53.9236 -53.9202 -53.9134 -53.9070 -53.9003 -53.9001
   -53.8986 -53.8938 -53.8927 -53.8835 -53.8825 -53.8788 -53.8778 -53.8758
   -10.6663  -5.0383  -4.5245  -4.1231  -4.0316  -3.9835  -3.9545  -3.9039
    -3.8947  -3.8790  -3.8472  -3.8043  -3.7697  -3.6739  -3.6351  -3.6118
    -3.5579  -3.4978  -3.4690  -3.4163  -3.3950  -3.3097  -3.2479  -3.1952
    -3.1817  -3.1663  -3.0742  -3.0294  -3.0040  -2.9923  -2.9650  -2.9552
    -2.9154  -2.8739  -2.8481  -2.7836  -2.6935  -2.6530  -2.6318  -2.6020
    -2.5822  -2.5571  -2.5310  -2.4828  -2.4435  -2.4087  -2.3846  -2.3488
    -2.3227  -2.2819  -2.2589  -2.2136  -2.1681  -2.1433  -2.1068  -2.0369
    -1.9907  -1.9518  -1.8621  -1.8314  -1.8228  -1.7706  -1.7267  -1.5257
    -1.2508  -0.4918  -0.3656   0.3031   1.0268   1.3943   2.0540   2.7352
     3.0372   3.5899   4.2108   4.4309   5.0087   5.3518   5.7853

          k = 0.0279-0.0806 0.0000 ( 19479 PWs)   bands (ev):

   -91.0093 -90.6456 -90.6323 -90.6289 -90.6255 -90.4710 -90.4290 -90.4233
   -90.4182 -90.4030 -90.3959 -90.3912 -54.5991 -54.4431 -54.4114 -54.1612
   -54.1514 -54.1457 -54.1450 -54.1363 -54.1303 -54.1261 -54.1216 -54.1186
   -54.1127 -54.1064 -54.0956 -53.9832 -53.9749 -53.9534 -53.9513 -53.9449
   -53.9414 -53.9241 -53.9191 -53.9190 -53.9158 -53.9072 -53.9012 -53.9007
   -53.8998 -53.8951 -53.8929 -53.8826 -53.8822 -53.8793 -53.8774 -53.8756
   -10.6670  -5.0334  -4.5245  -4.1246  -4.0241  -3.9660  -3.9527  -3.9202
    -3.9004  -3.8786  -3.8346  -3.8065  -3.7710  -3.6759  -3.6189  -3.6080
    -3.5583  -3.5047  -3.4758  -3.4204  -3.3914  -3.2596  -3.2526  -3.2032
    -3.1897  -3.1728  -3.1066  -3.0533  -3.0010  -2.9881  -2.9636  -2.9377
    -2.9187  -2.8925  -2.8431  -2.7887  -2.6747  -2.6469  -2.6329  -2.6135
    -2.5823  -2.5569  -2.5280  -2.4868  -2.4613  -2.4038  -2.3737  -2.3560
    -2.3183  -2.2931  -2.2582  -2.2191  -2.1594  -2.1397  -2.1012  -2.0397
    -1.9926  -1.9498  -1.8612  -1.8317  -1.8225  -1.7700  -1.7274  -1.5122
    -1.2725  -0.5363  -0.3307   0.3853   0.7938   1.5708   2.1087   2.7033
     2.9594   3.7558   4.0808   4.4463   4.9909   5.2958   5.8284

          k = 0.0279-0.0484 0.0000 ( 19453 PWs)   bands (ev):

   -91.0093 -90.6458 -90.6326 -90.6285 -90.6254 -90.4710 -90.4293 -90.4231
   -90.4181 -90.4033 -90.3958 -90.3911 -54.5991 -54.4435 -54.4121 -54.1677
   -54.1635 -54.1562 -54.1462 -54.1312 -54.1269 -54.1241 -54.1198 -54.1116
   -54.1095 -54.1023 -54.0915 -53.9873 -53.9840 -53.9586 -53.9536 -53.9528
   -53.9374 -53.9230 -53.9155 -53.9152 -53.9085 -53.9074 -53.9063 -53.8998
   -53.8980 -53.8931 -53.8877 -53.8829 -53.8792 -53.8786 -53.8769 -53.8734
   -10.6703  -5.0323  -4.6807  -4.4668  -4.2023  -4.1471  -4.0951  -4.0883
    -4.0759  -4.0673  -4.0338  -4.0052  -3.9361  -3.8828  -3.7978  -3.7737
    -3.7125  -3.6179  -3.5328  -3.4033  -3.3303  -3.3215  -3.2825  -3.2076
    -3.1806  -3.1476  -3.1408  -3.0636  -3.0175  -3.0107  -2.9719  -2.9541
    -2.8947  -2.8170  -2.7465  -2.7070  -2.6823  -2.6151  -2.4836  -2.4653
    -2.4232  -2.4149  -2.3552  -2.3101  -2.2681  -2.2415  -2.1971  -2.1729
    -2.1516  -2.1298  -2.0654  -2.0501  -2.0244  -2.0056  -1.9787  -1.9531
    -1.8745  -1.8433  -1.8220  -1.7887  -1.7500  -1.7307  -1.7015  -1.6294
    -0.3533  -0.2161  -0.0784   0.6263   1.1237   1.7931   1.9612   2.8529
     3.1934   3.3416   3.4962   4.0161   4.2482   5.3404   5.4792

          k = 0.0559-0.0323 0.0000 ( 19481 PWs)   bands (ev):

   -91.0093 -90.6457 -90.6327 -90.6284 -90.6255 -90.4710 -90.4293 -90.4230
   -90.4182 -90.4032 -90.3957 -90.3912 -54.5991 -54.4432 -54.4121 -54.1657
   -54.1612 -54.1524 -54.1460 -54.1313 -54.1256 -54.1251 -54.1200 -54.1196
   -54.1069 -54.1046 -54.0924 -53.9862 -53.9808 -53.9573 -53.9534 -53.9513
   -53.9363 -53.9273 -53.9133 -53.9130 -53.9102 -53.9087 -53.9072 -53.9000
   -53.8987 -53.8932 -53.8892 -53.8826 -53.8820 -53.8797 -53.8769 -53.8726
   -10.6699  -5.0279  -4.6119  -4.3944  -4.1845  -4.0896  -4.0607  -4.0367
    -4.0240  -3.9878  -3.9745  -3.9258  -3.9048  -3.8429  -3.7794  -3.6715
    -3.6358  -3.5586  -3.5135  -3.4016  -3.3760  -3.3439  -3.3155  -3.1849
    -3.1449  -3.1054  -3.1021  -3.0811  -2.9985  -2.9582  -2.9231  -2.9087
    -2.8610  -2.8498  -2.8055  -2.7752  -2.6692  -2.6494  -2.5495  -2.4742
    -2.4471  -2.4363  -2.3779  -2.3662  -2.3319  -2.3088  -2.2965  -2.2688
    -2.2255  -2.1604  -2.1567  -2.1407  -2.0801  -2.0724  -1.9977  -1.9757
    -1.9346  -1.9235  -1.8244  -1.7766  -1.7709  -1.7049  -1.6486  -1.5585
    -1.3101  -0.3098   0.3034   1.1058   1.2307   1.4223   1.8774   2.5306
     2.6044   3.2401   3.5758   4.6678   4.8551   5.4280   5.7101

          k = 0.0559 0.0000 0.0000 ( 19453 PWs)   bands (ev):

   -91.0093 -90.6458 -90.6324 -90.6288 -90.6252 -90.4711 -90.4291 -90.4234
   -90.4179 -90.4032 -90.3960 -90.3909 -54.5991 -54.4437 -54.4118 -54.1688
   -54.1628 -54.1561 -54.1462 -54.1312 -54.1261 -54.1240 -54.1196 -54.1126
   -54.1093 -54.1019 -54.0919 -53.9888 -53.9828 -53.9582 -53.9535 -53.9519
   -53.9352 -53.9256 -53.9204 -53.9156 -53.9075 -53.9066 -53.9049 -53.9001
   -53.8970 -53.8929 -53.8854 -53.8828 -53.8798 -53.8791 -53.8771 -53.8740
   -10.6699  -5.0367  -4.6811  -4.4646  -4.1964  -4.1547  -4.1151  -4.0869
    -4.0734  -4.0548  -4.0332  -4.0044  -3.9408  -3.8843  -3.7991  -3.7739
    -3.7138  -3.6181  -3.5509  -3.3853  -3.3307  -3.3186  -3.2840  -3.2027
    -3.1837  -3.1474  -3.1392  -3.0716  -3.0176  -3.0114  -2.9727  -2.9542
    -2.8927  -2.8173  -2.7345  -2.7067  -2.6790  -2.6041  -2.5002  -2.4484
    -2.4232  -2.4151  -2.3575  -2.3097  -2.2716  -2.2390  -2.1976  -2.1745
    -2.1534  -2.1281  -2.0663  -2.0476  -2.0269  -2.0054  -1.9849  -1.9527
    -1.8746  -1.8436  -1.8227  -1.7895  -1.7519  -1.7299  -1.7000  -1.6185
    -0.3261  -0.2272  -0.0795   0.6884   1.0863   1.7699   1.8896   2.8693
     3.1111   3.3428   3.5869   4.0493   4.2791   5.3183   5.4824

          k = 0.0559 0.0323 0.0000 ( 19481 PWs)   bands (ev):

   -91.0093 -90.6458 -90.6320 -90.6294 -90.6251 -90.4710 -90.4288 -90.4238
   -90.4178 -90.4029 -90.3964 -90.3908 -54.5991 -54.4439 -54.4112 -54.1681
   -54.1599 -54.1516 -54.1461 -54.1312 -54.1266 -54.1231 -54.1204 -54.1168
   -54.1077 -54.1069 -54.0924 -53.9892 -53.9786 -53.9553 -53.9534 -53.9480
   -53.9353 -53.9252 -53.9248 -53.9184 -53.9126 -53.9070 -53.9012 -53.9003
   -53.8959 -53.8926 -53.8869 -53.8829 -53.8819 -53.8785 -53.8776 -53.8744
   -10.6679  -5.0438  -4.6126  -4.3904  -4.1743  -4.1129  -4.0775  -4.0322
    -4.0123  -3.9940  -3.9735  -3.9524  -3.9044  -3.8370  -3.7815  -3.6703
    -3.6476  -3.5574  -3.5506  -3.4063  -3.3680  -3.3360  -3.2530  -3.1777
    -3.1463  -3.1240  -3.1007  -3.0981  -3.0000  -2.9605  -2.9210  -2.9117
    -2.8653  -2.8455  -2.8070  -2.7764  -2.6499  -2.5966  -2.5301  -2.5024
    -2.4446  -2.4408  -2.3878  -2.3420  -2.3336  -2.3196  -2.2953  -2.2763
    -2.2225  -2.1643  -2.1564  -2.1403  -2.0820  -2.0643  -2.0246  -1.9761
    -1.9364  -1.9238  -1.8278  -1.7811  -1.7736  -1.7047  -1.6467  -1.5364
    -1.2582  -0.2614   0.4570   0.8681   1.1817   1.5504   1.6406   2.5230
     2.8920   3.0403   3.6565   4.7810   4.8393   5.4484   5.6661

          k = 0.0559-0.1290 0.0000 ( 19479 PWs)   bands (ev):

   -91.0093 -90.6456 -90.6317 -90.6298 -90.6252 -90.4710 -90.4287 -90.4239
   -90.4179 -90.4028 -90.3965 -90.3909 -54.5991 -54.4436 -54.4109 -54.1628
   -54.1512 -54.1460 -54.1442 -54.1351 -54.1289 -54.1268 -54.1206 -54.1197
   -54.1123 -54.1075 -54.0959 -53.9851 -53.9740 -53.9534 -53.9489 -53.9398
   -53.9378 -53.9295 -53.9283 -53.9224 -53.9149 -53.9068 -53.9005 -53.8989
   -53.8960 -53.8930 -53.8923 -53.8834 -53.8824 -53.8787 -53.8778 -53.8771
   -10.6659  -5.0415  -4.5243  -4.1219  -4.0212  -4.0014  -3.9577  -3.9048
    -3.9012  -3.8844  -3.8437  -3.8092  -3.7699  -3.6747  -3.6319  -3.6125
    -3.5584  -3.5008  -3.4646  -3.4269  -3.3963  -3.2815  -3.2455  -3.1972
    -3.1833  -3.1658  -3.0719  -3.0395  -3.0078  -2.9938  -2.9597  -2.9557
    -2.9144  -2.8765  -2.8424  -2.7748  -2.6867  -2.6550  -2.6308  -2.6058
    -2.5844  -2.5605  -2.5315  -2.4811  -2.4445  -2.3999  -2.3831  -2.3503
    -2.3235  -2.2748  -2.2580  -2.2177  -2.1656  -2.1434  -2.1040  -2.0492
    -1.9910  -1.9524  -1.8620  -1.8334  -1.8236  -1.7712  -1.7256  -1.5140
    -1.2444  -0.4439  -0.3899   0.3195   0.8764   1.6177   1.8912   2.7370
     3.0357   3.6409   4.2065   4.4268   5.0079   5.3760   5.7554

          k = 0.0559-0.0968 0.0000 ( 19479 PWs)   bands (ev):

   -91.0093 -90.6455 -90.6320 -90.6293 -90.6254 -90.4710 -90.4288 -90.4235
   -90.4181 -90.4029 -90.3961 -90.3912 -54.5991 -54.4430 -54.4111 -54.1532
   -54.1510 -54.1455 -54.1393 -54.1368 -54.1353 -54.1291 -54.1250 -54.1198
   -54.1087 -54.1070 -54.1003 -53.9785 -53.9760 -53.9533 -53.9427 -53.9405
   -53.9379 -53.9377 -53.9270 -53.9174 -53.9138 -53.9069 -53.9042 -53.9001
   -53.8969 -53.8945 -53.8929 -53.8822 -53.8813 -53.8808 -53.8796 -53.8773
   -10.6659  -5.0337  -4.4934  -3.9566  -3.8828  -3.8614  -3.8205  -3.7707
    -3.7642  -3.7515  -3.7279  -3.6921  -3.6875  -3.6809  -3.6586  -3.6405
    -3.6328  -3.4906  -3.4209  -3.3264  -3.3112  -3.3034  -3.2911  -3.2126
    -3.2021  -3.1648  -3.1212  -3.0497  -3.0389  -3.0377  -3.0345  -3.0025
    -2.9717  -2.9139  -2.8473  -2.8195  -2.8119  -2.8050  -2.7978  -2.7824
    -2.7601  -2.7564  -2.6356  -2.4834  -2.4315  -2.3807  -2.3779  -2.3333
    -2.3270  -2.3104  -2.1934  -2.1668  -2.1227  -2.0989  -2.0092  -1.9869
[...]
   -54.1789 -54.1726 -54.1701 -54.1597 -54.1487 -54.1435 -54.1371 -54.1340
   -54.1312 -54.1267 -54.1081 -54.0087 -53.9992 -53.9772 -53.9748 -53.9732
   -53.9559 -53.9462 -53.9410 -53.9379 -53.9360 -53.9330 -53.9247 -53.9235
   -53.9213 -53.9185 -53.9161 -53.9053 -53.8976 -53.8964 -53.8638 -53.8510
   -10.3828  -4.7131  -4.5464  -4.3405  -4.1842  -4.1013  -4.0814  -4.0537
    -4.0373  -4.0252  -3.9685  -3.9599  -3.9365  -3.8232  -3.7848  -3.6680
    -3.6367  -3.5672  -3.5277  -3.4361  -3.3874  -3.3560  -3.2496  -3.2041
    -3.1790  -3.1256  -3.1226  -3.0825  -3.0165  -2.9608  -2.9517  -2.9229
    -2.8808  -2.8526  -2.8165  -2.7833  -2.6557  -2.6050  -2.5369  -2.5132
    -2.4543  -2.4395  -2.4170  -2.3567  -2.3409  -2.3258  -2.3091  -2.2963
    -2.2369  -2.1831  -2.1756  -2.1408  -2.1005  -2.0628  -2.0507  -1.9840
    -1.9426  -1.9379  -1.8481  -1.7946  -1.7772  -1.7244  -1.6572  -1.5547
    -1.2740  -0.2842   0.4419   0.8817   1.1627   1.5195   1.6087   2.4959
     2.8777   2.9980   3.6272   4.7806   4.7936   5.4128   5.6501

          k = 0.0559-0.1290 0.0000 ( 19479 PWs)   bands (ev):

   -90.9120 -90.6692 -90.6603 -90.6489 -90.6379 -90.4911 -90.4467 -90.4452
   -90.4435 -90.4414 -90.4142 -90.3774 -54.4688 -54.3613 -54.3329 -54.1888
   -54.1727 -54.1686 -54.1647 -54.1597 -54.1544 -54.1456 -54.1437 -54.1353
   -54.1316 -54.1284 -54.1113 -54.0047 -53.9943 -53.9733 -53.9719 -53.9700
   -53.9588 -53.9482 -53.9421 -53.9417 -53.9364 -53.9353 -53.9243 -53.9226
   -53.9215 -53.9209 -53.9167 -53.9040 -53.9023 -53.8972 -53.8652 -53.8510
   -10.3807  -4.7034  -4.3701  -4.1381  -4.0222  -3.9924  -3.9682  -3.9235
    -3.9140  -3.9017  -3.8653  -3.8290  -3.7909  -3.6789  -3.6342  -3.6121
    -3.5814  -3.5155  -3.4786  -3.4266  -3.4051  -3.2854  -3.2639  -3.2268
    -3.1905  -3.1741  -3.0762  -3.0433  -3.0307  -3.0079  -2.9917  -2.9523
    -2.9127  -2.8781  -2.8545  -2.7765  -2.7060  -2.6654  -2.6466  -2.6230
    -2.5951  -2.5662  -2.5475  -2.4871  -2.4568  -2.4204  -2.3858  -2.3558
    -2.3347  -2.2945  -2.2632  -2.2284  -2.1770  -2.1513  -2.1174  -2.0732
    -1.9984  -1.9621  -1.8841  -1.8481  -1.8262  -1.7896  -1.7320  -1.5267
    -1.2643  -0.4566  -0.3995   0.2950   0.8633   1.6060   1.8545   2.7073
     2.9987   3.6276   4.1666   4.4136   4.9929   5.3383   5.7329

          k = 0.0559-0.0968 0.0000 ( 19479 PWs)   bands (ev):

   -90.9120 -90.6691 -90.6606 -90.6487 -90.6380 -90.4911 -90.4469 -90.4447
   -90.4435 -90.4417 -90.4143 -90.3774 -54.4688 -54.3607 -54.3332 -54.1788
   -54.1737 -54.1682 -54.1635 -54.1601 -54.1566 -54.1540 -54.1438 -54.1330
   -54.1313 -54.1241 -54.1178 -53.9983 -53.9965 -53.9732 -53.9632 -53.9620
   -53.9611 -53.9592 -53.9433 -53.9374 -53.9362 -53.9353 -53.9311 -53.9255
   -53.9245 -53.9211 -53.9172 -53.9082 -53.8978 -53.8963 -53.8649 -53.8509
   -10.3806  -4.6959  -4.3119  -3.9345  -3.9030  -3.8836  -3.8420  -3.8073
    -3.7749  -3.7702  -3.7510  -3.7218  -3.7130  -3.6963  -3.6786  -3.6609
    -3.6407  -3.4980  -3.4303  -3.3278  -3.3067  -3.2939  -3.2819  -3.2327
    -3.2200  -3.1708  -3.1282  -3.1004  -3.0618  -3.0534  -3.0429  -2.9826
    -2.9701  -2.9180  -2.8740  -2.8384  -2.8267  -2.8227  -2.8060  -2.7798
    -2.7728  -2.7370  -2.6410  -2.4829  -2.4369  -2.4016  -2.3907  -2.3516
    -2.3302  -2.3189  -2.2105  -2.1791  -2.1421  -2.1111  -2.0179  -1.9998
    -1.9677  -1.9567  -1.9031  -1.8945  -1.8709  -1.8338  -1.5324  -1.5140
    -1.5012  -0.9163  -0.4337  -0.2657   0.7417   1.3535   2.1666   2.5472
     3.3549   4.7127   4.7635   4.7879   4.9119   5.0420   5.5678

          k = 0.0559-0.0645 0.0000 ( 19479 PWs)   bands (ev):

   -90.9121 -90.6690 -90.6608 -90.6485 -90.6380 -90.4911 -90.4474 -90.4438
   -90.4435 -90.4421 -90.4144 -90.3773 -54.4688 -54.3604 -54.3341 -54.1811
   -54.1756 -54.1713 -54.1669 -54.1632 -54.1581 -54.1474 -54.1382 -54.1345
   -54.1279 -54.1228 -54.1176 -54.0028 -53.9958 -53.9733 -53.9721 -53.9603
   -53.9589 -53.9477 -53.9449 -53.9400 -53.9359 -53.9357 -53.9348 -53.9250
   -53.9223 -53.9204 -53.9175 -53.9123 -53.8975 -53.8914 -53.8629 -53.8509
   -10.3827  -4.6951  -4.3687  -4.1353  -4.0456  -3.9901  -3.9486  -3.9284
    -3.9077  -3.8885  -3.8722  -3.8084  -3.7675  -3.6932  -3.6330  -3.6256
    -3.5693  -3.5057  -3.4680  -3.4183  -3.3866  -3.3067  -3.2667  -3.2315
    -3.1874  -3.1761  -3.1175  -3.0519  -3.0249  -3.0094  -2.9740  -2.9544
    -2.9345  -2.8942  -2.8505  -2.7879  -2.6908  -2.6714  -2.6471  -2.6138
    -2.5834  -2.5648  -2.5300  -2.4996  -2.4588  -2.4129  -2.3915  -2.3665
    -2.3261  -2.3124  -2.2774  -2.2195  -2.1695  -2.1530  -2.1218  -2.0401
    -2.0006  -1.9635  -1.8698  -1.8455  -1.8375  -1.7731  -1.7508  -1.5371
    -1.2916  -0.5840  -0.3464   0.3032   0.8987   1.4147   2.1801   2.7005
     2.9174   3.6678   4.0962   4.4222   4.9731   5.2520   5.8696

          k =-0.0838 0.0484 0.0000 ( 19500 PWs)   bands (ev):

   -90.9121 -90.6690 -90.6608 -90.6485 -90.6380 -90.4911 -90.4475 -90.4435
   -90.4434 -90.4423 -90.4144 -90.3773 -54.4688 -54.3603 -54.3343 -54.1810
   -54.1781 -54.1711 -54.1646 -54.1627 -54.1550 -54.1492 -54.1403 -54.1369
   -54.1282 -54.1198 -54.1178 -54.0045 -53.9927 -53.9761 -53.9732 -53.9564
   -53.9530 -53.9486 -53.9480 -53.9453 -53.9355 -53.9352 -53.9343 -53.9250
   -53.9212 -53.9199 -53.9176 -53.9138 -53.8975 -53.8919 -53.8619 -53.8509
   -10.3831  -4.6928  -4.3770  -4.1417  -4.1164  -4.0333  -3.9653  -3.9537
    -3.9121  -3.8659  -3.8252  -3.7498  -3.7347  -3.7009  -3.6949  -3.6035
    -3.5693  -3.5644  -3.4980  -3.3417  -3.3300  -3.3054  -3.2546  -3.2485
    -3.2198  -3.1893  -3.1167  -2.9571  -2.9535  -2.9398  -2.9336  -2.9092
    -2.8490  -2.8173  -2.8107  -2.6707  -2.6503  -2.6421  -2.6241  -2.6201
    -2.6015  -2.5799  -2.5741  -2.4860  -2.4505  -2.4293  -2.3957  -2.3792
    -2.3629  -2.3376  -2.3126  -2.3065  -2.2710  -2.2627  -2.1862  -2.1539
    -2.1165  -2.0367  -1.9678  -1.8245  -1.8143  -1.7996  -1.7071  -1.6701
    -1.2112  -0.9673   0.3050   1.0229   1.1211   1.2065   2.1283   2.2402
     2.5560   2.9890   4.2843   4.4507   4.7764   5.4382   6.0706

          k =-0.0838 0.0806 0.0000 ( 19479 PWs)   bands (ev):

   -90.9121 -90.6691 -90.6606 -90.6486 -90.6380 -90.4911 -90.4473 -90.4440
   -90.4435 -90.4419 -90.4143 -90.3773 -54.4688 -54.3606 -54.3339 -54.1831
   -54.1757 -54.1710 -54.1671 -54.1612 -54.1538 -54.1485 -54.1432 -54.1339
   -54.1279 -54.1235 -54.1161 -54.0031 -53.9955 -53.9733 -53.9720 -53.9631
   -53.9590 -53.9491 -53.9416 -53.9399 -53.9358 -53.9349 -53.9340 -53.9248
   -53.9224 -53.9206 -53.9173 -53.9111 -53.8975 -53.8936 -53.8628 -53.8509
   -10.3825  -4.6957  -4.3693  -4.1358  -4.0443  -3.9924  -3.9586  -3.9223
    -3.9098  -3.8860  -3.8622  -3.8110  -3.7815  -3.6857  -3.6367  -3.6245
    -3.5694  -3.5033  -3.4723  -3.4203  -3.3767  -3.3340  -3.2727  -3.2243
    -3.1916  -3.1668  -3.0952  -3.0471  -3.0231  -3.0019  -2.9794  -2.9662
    -2.9178  -2.8984  -2.8600  -2.7926  -2.7042  -2.6701  -2.6495  -2.6145
    -2.5800  -2.5640  -2.5323  -2.5034  -2.4470  -2.4092  -2.3886  -2.3577
    -2.3327  -2.3103  -2.2754  -2.2161  -2.1754  -2.1543  -2.1208  -2.0387
    -2.0014  -1.9632  -1.8640  -1.8513  -1.8384  -1.7738  -1.7497  -1.5430
    -1.2833  -0.5632  -0.3574   0.2680   1.0574   1.2835   2.1378   2.7274
     2.9530   3.5936   4.1304   4.4312   4.9790   5.2715   5.8450

          k =-0.0838 0.1129 0.0000 ( 19479 PWs)   bands (ev):

   -90.9120 -90.6692 -90.6603 -90.6489 -90.6379 -90.4911 -90.4469 -90.4449
   -90.4435 -90.4415 -90.4143 -90.3774 -54.4688 -54.3611 -54.3331 -54.1885
   -54.1725 -54.1677 -54.1655 -54.1598 -54.1574 -54.1447 -54.1424 -54.1342
   -54.1316 -54.1292 -54.1115 -54.0045 -53.9944 -53.9733 -53.9717 -53.9697
   -53.9598 -53.9471 -53.9413 -53.9391 -53.9366 -53.9357 -53.9270 -53.9244
   -53.9218 -53.9210 -53.9168 -53.9067 -53.8990 -53.8971 -53.8646 -53.8510
   -10.3811  -4.7012  -4.3695  -4.1382  -4.0243  -3.9841  -3.9680  -3.9344
    -3.9148  -3.8964  -3.8661  -3.8314  -3.7823  -3.6834  -3.6308  -3.6123
    -3.5830  -3.5188  -3.4727  -3.4277  -3.3980  -3.2778  -3.2526  -3.2370
    -3.1861  -3.1731  -3.0964  -3.0581  -3.0377  -3.0061  -2.9708  -2.9530
    -2.9167  -2.8895  -2.8665  -2.7828  -2.6869  -2.6670  -2.6521  -2.6225
    -2.6038  -2.5571  -2.5414  -2.4868  -2.4641  -2.4295  -2.3661  -2.3532
    -2.3288  -2.2925  -2.2661  -2.2328  -2.1708  -2.1477  -2.1161  -2.0725
    -2.0022  -1.9611  -1.8849  -1.8463  -1.8267  -1.7895  -1.7331  -1.5228
    -1.2733  -0.4918  -0.3752   0.3381   0.7650   1.6795   1.8719   2.6821
     2.9738   3.6981   4.1238   4.4095   4.9760   5.3175   5.7547

          k =-0.0838-0.0484 0.0000 ( 19500 PWs)   bands (ev):

   -90.9121 -90.6693 -90.6602 -90.6490 -90.6379 -90.4911 -90.4464 -90.4455
   -90.4435 -90.4414 -90.4142 -90.3774 -54.4688 -54.3614 -54.3327 -54.1910
   -54.1712 -54.1682 -54.1629 -54.1597 -54.1513 -54.1472 -54.1448 -54.1355
   -54.1327 -54.1315 -54.1092 -54.0064 -53.9912 -53.9753 -53.9735 -53.9725
   -53.9512 -53.9481 -53.9466 -53.9394 -53.9386 -53.9357 -53.9242 -53.9221
   -53.9198 -53.9194 -53.9165 -53.9071 -53.9018 -53.8972 -53.8654 -53.8510
   -10.3805  -4.7038  -4.3766  -4.1679  -4.0623  -4.0085  -3.9860  -3.9762
    -3.9159  -3.8968  -3.8671  -3.7720  -3.7176  -3.6998  -3.6795  -3.6122
    -3.5630  -3.5527  -3.5343  -3.3612  -3.3242  -3.2769  -3.2707  -3.2529
    -3.1970  -3.1517  -3.0792  -3.0294  -2.9888  -2.9443  -2.8984  -2.8596
    -2.8564  -2.8403  -2.7580  -2.6770  -2.6684  -2.6419  -2.6295  -2.6151
    -2.6133  -2.5988  -2.5782  -2.4631  -2.4536  -2.4268  -2.4151  -2.3808
    -2.3379  -2.3163  -2.3010  -2.2798  -2.2703  -2.2661  -2.1751  -2.1600
    -2.1235  -2.0948  -1.9601  -1.8541  -1.7998  -1.7933  -1.7206  -1.6563
    -1.2254  -0.8126   0.3698   0.8273   1.0984   1.4834   1.7410   2.1648
     2.8626   2.9633   4.2624   4.3680   4.8853   5.5420   5.7931

     the Fermi energy is     1.3797 ev

!    total energy              =   -3573.65669917 Ry
     Harris-Foulkes estimate   =   -3573.65669918 Ry
     estimated scf accuracy    <       0.00000002 Ry

     The total energy is the sum of the following terms:

     one-electron contribution =  -26090.37878886 Ry
     hartree contribution      =   13039.00226128 Ry
     xc contribution           =    -366.08786760 Ry
     ewald contribution        =    9843.83507980 Ry
     electric field correction =       0.00000031 Ry
     smearing contrib. (-TS)   =      -0.02738409 Ry

     convergence has been achieved in   7 iterations
 
 BEEF-vdW xc energy contributions
           1 :   -317.060712901342     
           2 :    286.870816118463     
           3 :   -236.614685721621     
           4 :    181.541258452207     
           5 :   -135.382054029392     
           6 :    105.454199979983     
           7 :   -91.3661346333117     
           8 :    87.2470237560860     
           9 :   -85.8327402569285     
          10 :    82.1098562095463     
          11 :   -74.8682379138941     
          12 :    65.8846040238484     
          13 :   -57.7843304999711     
          14 :    52.1138627886660     
          15 :   -48.6774337265372     
          16 :    46.1820148796892     
          17 :   -43.4271204455787     
          18 :    40.1055492917689     
          19 :   -36.7626285939664     
          20 :    34.1310669310895     
          21 :   -32.4533788853957     
          22 :    31.2945505912464     
          23 :   -29.9161870553081     
          24 :    27.8655130140058     
          25 :   -25.3235944815066     
          26 :    22.9708873863993     
          27 :   -21.4936364592088     
          28 :    21.0987088463526     
          29 :   -21.3797273895926     
          30 :    21.6097272532305     
          31 :   -31.7761630075509     
          32 :   -23.0854998080840     

     Forces acting on atoms (Ry/au):


     negative rho (up, down):  1.976E-03 0.000E+00
     atom    1 type  1   force =    -0.00100742   -0.00074780   -0.00056264
     atom    2 type  1   force =     0.00099324   -0.00026870    0.00012972
     atom    3 type  1   force =     0.00040672    0.00109266   -0.00018664
     atom    4 type  1   force =    -0.00041130   -0.00006317    0.00194805
     atom    5 type  1   force =    -0.00318748   -0.00128697   -0.00201789
     atom    6 type  1   force =     0.00303731   -0.00017301    0.00066054
     atom    7 type  1   force =     0.00088322    0.00251470   -0.00457189
     atom    8 type  1   force =    -0.00103088   -0.00107182    0.00064522
     atom    9 type  1   force =     0.00004475    0.00000496    0.00178711
     atom   10 type  1   force =     0.00003447    0.00002248    0.00007666
     atom   11 type  1   force =     0.00007822   -0.00002690    0.00157143
     atom   12 type  1   force =     0.00005874    0.00000754   -0.00015137
     atom   13 type  2   force =    -0.00005708   -0.00007448   -0.00068922
     atom   14 type  3   force =    -0.00123379   -0.00149381    0.00071031
     atom   15 type  3   force =     0.00139128    0.00156432    0.00065062

     Total force =     0.003906     Total SCF correction =     0.000455
     SCF correction compared to forces is large: reduce conv_thr to get better values


     entering subroutine stress ...


     negative rho (up, down):  1.976E-03 0.000E+00
          total   stress  (Ry/bohr**3)                   (kbar)     P=   -6.47
  -0.00005636   0.00000555   0.00000041         -8.29      0.82      0.06
   0.00000555  -0.00005747  -0.00000001          0.82     -8.45     -0.00
   0.00000041  -0.00000001  -0.00001808          0.06     -0.00     -2.66


     bfgs converged in  16 scf cycles and  15 bfgs steps
     (criteria: energy <  1.0E+00, force <  1.9E-03)

     End of BFGS Geometry Optimization

     Final energy   =   -3573.6566991680 Ry
Begin final coordinates

ATOMIC_POSITIONS (crystal)
Ag1      0.166666667   0.166666667   0.402063960    0   0   0
Ag1      0.666666667   0.166666667   0.402063960    0   0   0
Ag1      0.166666667   0.666666667   0.402063960    0   0   0
Ag1      0.666666667   0.666666667   0.402063960    0   0   0
Ag1      0.833333333   0.333333333   0.500000000    0   0   0
Ag1      0.333333333   0.333333333   0.500000000    0   0   0
Ag1      0.833333333   0.833333333   0.500000000    0   0   0
Ag1      0.333333333   0.833333333   0.500000000    0   0   0
Ag1      0.000872405   0.000007827   0.595248931
Ag1      0.500072353   0.000252362   0.597388362
Ag1      0.000456780   0.499834403   0.594414770
Ag1      0.500135466   0.499916726   0.601201019
C1       0.000523443  -0.000116849   0.678254763
H1       0.046512623   0.124420655   0.702328618
H1       0.953826530   0.875682482   0.702272892
End final coordinates



     Writing output data file calc.save
 
     init_run     :     12.51s CPU     12.84s WALL (       1 calls)
     electrons    :   4015.75s CPU   4262.86s WALL (      16 calls)
     update_pot   :     49.59s CPU     51.90s WALL (      15 calls)
     forces       :    264.91s CPU    281.81s WALL (      16 calls)
     stress       :    765.74s CPU    808.05s WALL (      16 calls)

     Called by init_run:
     wfcinit      :      5.34s CPU      5.43s WALL (       1 calls)
     potinit      :      2.00s CPU      2.10s WALL (       1 calls)

     Called by electrons:
     c_bands      :   1713.06s CPU   1780.86s WALL (     128 calls)
     sum_band     :    717.25s CPU    763.53s WALL (     128 calls)
     v_of_rho     :    239.30s CPU    272.12s WALL (     139 calls)
     newd         :    593.60s CPU    610.33s WALL (     139 calls)
     mix_rho      :      7.01s CPU      7.23s WALL (     128 calls)
     vdW_energy   :    154.20s CPU    169.54s WALL (     715 calls)
     vdW_ffts     :    398.69s CPU    418.96s WALL (    1462 calls)
     vdW_v        :    147.51s CPU    152.40s WALL (     715 calls)

     Called by c_bands:
     init_us_2    :      7.94s CPU      8.02s WALL (    1445 calls)
     cegterg      :   1616.96s CPU   1655.45s WALL (     640 calls)

     Called by *egterg:
     h_psi        :    969.31s CPU    991.06s WALL (    2961 calls)
     s_psi        :     86.66s CPU     86.86s WALL (    2961 calls)
     g_psi        :      5.61s CPU      5.65s WALL (    2316 calls)
     cdiaghg      :    213.55s CPU    215.17s WALL (    2856 calls)

     Called by h_psi:
     add_vuspsi   :     88.54s CPU     88.65s WALL (    2961 calls)

     General routines
     calbec       :    144.57s CPU    148.09s WALL (    3761 calls)
     fft          :    612.02s CPU    659.58s WALL (   42857 calls)
     ffts         :      0.52s CPU      0.56s WALL (     267 calls)
     fftw         :    624.86s CPU    650.02s WALL (  466768 calls)
     interpolate  :      5.04s CPU      5.21s WALL (     267 calls)
     davcio       :      0.00s CPU      0.05s WALL (       5 calls)
 
     Parallel routines
     fft_scatter  :    726.86s CPU    793.60s WALL (  509892 calls)
 
     PWSCF        :     1h26m CPU        1h31m WALL

 
   This run was terminated on:  11:37:42  16Apr2018            

=------------------------------------------------------------------------------=
   JOB DONE.
=------------------------------------------------------------------------------=
Job  /afs/slac/g/suncat/bin/suncat-tsmpirun -x LD_LIBRARY_PATH -wdir /scratch/qe103561_NGkLz pw.x -npool 4 -in pw.inp

TID   HOST_NAME   COMMAND_LINE            STATUS            TERMINATION_TIME
===== ========== ================  =======================  ===================
00000 suncat0079 pw.x -npool 4 -i  Done                     04/16/2018 11:37:42
00001 suncat0079 pw.x -npool 4 -i  Done                     04/16/2018 11:37:42
00002 suncat0079 pw.x -npool 4 -i  Done                     04/16/2018 11:37:42
00003 suncat0079 pw.x -npool 4 -i  Done                     04/16/2018 11:37:42
00004 suncat0079 pw.x -npool 4 -i  Done                     04/16/2018 11:37:42
00005 suncat0079 pw.x -npool 4 -i  Done                     04/16/2018 11:37:42
00006 suncat0079 pw.x -npool 4 -i  Done                     04/16/2018 11:37:42
00007 suncat0079 pw.x -npool 4 -i  Done                     04/16/2018 11:37:42
00008 suncat0078 pw.x -npool 4 -i  Done                     04/16/2018 11:37:42
00009 suncat0078 pw.x -npool 4 -i  Done                     04/16/2018 11:37:42
00010 suncat0078 pw.x -npool 4 -i  Done                     04/16/2018 11:37:42
00011 suncat0078 pw.x -npool 4 -i  Done                     04/16/2018 11:37:42
00012 suncat0078 pw.x -npool 4 -i  Done                     04/16/2018 11:37:42
00013 suncat0078 pw.x -npool 4 -i  Done                     04/16/2018 11:37:42
00014 suncat0078 pw.x -npool 4 -i  Done                     04/16/2018 11:37:42
00015 suncat0078 pw.x -npool 4 -i  Done                     04/16/2018 11:37:42
00016 suncat0048 pw.x -npool 4 -i  Done                     04/16/2018 11:37:42
00017 suncat0048 pw.x -npool 4 -i  Done                     04/16/2018 11:37:42
00018 suncat0048 pw.x -npool 4 -i  Done                     04/16/2018 11:37:42
00019 suncat0048 pw.x -npool 4 -i  Done                     04/16/2018 11:37:42
00020 suncat0048 pw.x -npool 4 -i  Done                     04/16/2018 11:37:42
00021 suncat0048 pw.x -npool 4 -i  Done                     04/16/2018 11:37:42
00022 suncat0048 pw.x -npool 4 -i  Done                     04/16/2018 11:37:42
00023 suncat0048 pw.x -npool 4 -i  Done                     04/16/2018 11:37:42
00024 suncat0029 pw.x -npool 4 -i  Done                     04/16/2018 11:37:42
00025 suncat0029 pw.x -npool 4 -i  Done                     04/16/2018 11:37:42
00026 suncat0029 pw.x -npool 4 -i  Done                     04/16/2018 11:37:42
00027 suncat0029 pw.x -npool 4 -i  Done                     04/16/2018 11:37:42
00028 suncat0029 pw.x -npool 4 -i  Done                     04/16/2018 11:37:42
00029 suncat0029 pw.x -npool 4 -i  Done                     04/16/2018 11:37:42
00030 suncat0029 pw.x -npool 4 -i  Done                     04/16/2018 11:37:42
00031 suncat0029 pw.x -npool 4 -i  Done                     04/16/2018 11:37:42
