  python dir          : /u/if/mamunm/src/espresso
  espresso dir        : /nfs/slac/g/suncatfs/sw/espv18/espresso-dynpy-beef/bin
  pseudo dir          : /u/if/mamunm/psp/gbrv1.5pbe
  ase-espresso py git : GITVERSION



     Program PWSCF v.5.1rc2 (svn rev. 11289) starts on  5Jul2018 at 23:26:40 

     This program is part of the open-source Quantum ESPRESSO suite
     for quantum simulation of materials; please cite
         "P. Giannozzi et al., J. Phys.:Condens. Matter 21 395502 (2009);
          URL http://www.quantum-espresso.org", 
     in publications or presentations arising from this work. More details at
     http://www.quantum-espresso.org/quote

     Parallel version (MPI), running on    32 processors
     K-points division:     npool     =       4
     R & G space division:  proc/nbgrp/npool/nimage =       8
     Reading input from pw.inp
     Message from routine read_cards :
     DEPRECATED: no units specified in CELL_PARAMETERS card

     Current dimensions of program PWSCF are:
     Max number of different atomic species (ntypx) = 10
     Max number of k-points (npk) =  40000
     Max angular momentum in pseudopotentials (lmaxx) =  3
     Presently stress not available with electric field


     **************************************************************************
     Initializing libbeef V0.1.1 with the BEEF-vdW functional.
     Citation: Wellendorff et al., PRB 85, 235149 (2012).
     **************************************************************************


     IMPORTANT: XC functional enforced from input :
     Exchange-correlation      = BEEF-VDW ( 1  4 27 13 2)
     Any further DFT definition will be discarded
     Please, verify this is what you really want


     Subspace diagonalization in iterative solution of the eigenvalue problem:
     a serial algorithm will be used

 
     Parallelization info
     --------------------
     sticks:   dense  smooth     PW     G-vecs:    dense   smooth      PW
     Min         299     119     35                55725    14089    2269
     Max         300     120     36                55746    14124    2282
     Sum        2395     955    283               445881   112839   18187
 
     Generating pointlists ...
     new r_m :   0.4125 (alat units)  0.7795 (a.u.) for type    1
     new r_m :   0.4125 (alat units)  0.7795 (a.u.) for type    2
     new r_m :   0.4125 (alat units)  0.7795 (a.u.) for type    3


     bravais-lattice index     =            0
     lattice parameter (alat)  =       1.8897  a.u.
     unit-cell volume          =    3747.1846 (a.u.)^3
     number of atoms/cell      =           16
     number of atomic types    =            3
     number of electrons       =       187.00
     number of Kohn-Sham states=          103
     kinetic-energy cutoff     =      36.7493  Ry
     charge density cutoff     =     367.4932  Ry
     convergence threshold     =      1.0E-05
     mixing beta               =       0.3000
     number of iterations used =           10  plain     mixing
     Exchange-correlation      = BEEF-VDW ( 1  4 27 13 2)
     nstep                     =           50


     celldm(1)=   1.889726  celldm(2)=   0.000000  celldm(3)=   0.000000
     celldm(4)=   0.000000  celldm(5)=   0.000000  celldm(6)=   0.000000

     crystal axes: (cart. coord. in units of alat)
               a(1) = (   5.147050   0.000000   0.000000 )  
               a(2) = (   2.573525   4.457476   0.000000 )  
               a(3) = (   0.000000   0.000000  24.202549 )  

     reciprocal axes: (cart. coord. in units 2 pi/alat)
               b(1) = (  0.194286 -0.112171  0.000000 )  
               b(2) = (  0.000000  0.224342  0.000000 )  
               b(3) = (  0.000000  0.000000  0.041318 )  


     PseudoPot. # 1 for Mn read from file:
     /u/if/mamunm/psp/gbrv1.5pbe/Mn.UPF
     MD5 check sum: 82ef2b46521d7a7d9e736dc3972e4928
     Pseudo is Ultrasoft + core correction, Zval = 15.0
     Generated by new atomic code, or converted to UPF format
     Using radial grid of  859 points,  6 beta functions with: 
                l(1) =   0
                l(2) =   0
                l(3) =   1
                l(4) =   1
                l(5) =   2
                l(6) =   2
     Q(r) pseudized with  8 coefficients,  rinner =    0.950   0.950   0.950
                                                       0.950   0.950

     PseudoPot. # 2 for C  read from file:
     /u/if/mamunm/psp/gbrv1.5pbe/C.UPF
     MD5 check sum: d1aef80898a10debaa0f26306b886e00
     Pseudo is Ultrasoft + core correction, Zval =  4.0
     Generated by new atomic code, or converted to UPF format
     Using radial grid of  721 points,  4 beta functions with: 
                l(1) =   0
                l(2) =   0
                l(3) =   1
                l(4) =   1
     Q(r) pseudized with  8 coefficients,  rinner =    1.100   1.100   1.100


     PseudoPot. # 3 for H  read from file:
     /u/if/mamunm/psp/gbrv1.5pbe/H.UPF
     MD5 check sum: 761ae9a214b05c3daf00ab9f6b793d6f
     Pseudo is Ultrasoft, Zval =  1.0
     Generated by new atomic code, or converted to UPF format
     Using radial grid of  615 points,  2 beta functions with: 
                l(1) =   0
                l(2) =   0
     Q(r) pseudized with  8 coefficients,  rinner =    0.700

     vdW kernel table read from file vdW_kernel_table
     MD5 check sum: 095c7af220d748ca6e76c0b4c6cfb241

     atomic species   valence    mass     pseudopotential
        Mn1           15.00    54.93804     Mn( 1.00)
        C1             4.00    12.01100     C ( 1.00)
        H1             1.00     1.00800     H ( 1.00)

     Starting magnetic structure 
     atomic species   magnetization
        Mn1          0.133
        C1           0.000
        H1           0.000

     No symmetry found



   Cartesian axes

     site n.     atom                  positions (alat units)
         1           Mn1 tau(   1) = (   1.2867625   0.7429127  10.0000000  )
         2           Mn1 tau(   2) = (   3.8602874   0.7429127  10.0000000  )
         3           Mn1 tau(   3) = (   2.5735249   2.9716506  10.0000000  )
         4           Mn1 tau(   4) = (   5.1470499   2.9716506  10.0000000  )
         5           Mn1 tau(   5) = (   5.1470499   1.4858253  12.1012743  )
         6           Mn1 tau(   6) = (   2.5735249   1.4858253  12.1012743  )
         7           Mn1 tau(   7) = (   6.4338123   3.7145633  12.1012743  )
         8           Mn1 tau(   8) = (   3.8602874   3.7145633  12.1012743  )
         9           Mn1 tau(   9) = (   0.0000000   0.0000000  14.2025486  )
        10           Mn1 tau(  10) = (   2.5735249   0.0000000  14.2025486  )
        11           Mn1 tau(  11) = (   1.2867625   2.2287380  14.2025486  )
        12           Mn1 tau(  12) = (   3.8602874   2.2287380  14.2025486  )
        13           C1  tau(  13) = (   0.0000000   0.0000000  16.0300486  )
        14           H1  tau(  14) = (   1.0900000   0.0000000  16.6600486  )
        15           H1  tau(  15) = (   4.6970499   0.8895000  16.6600486  )
        16           H1  tau(  16) = (   2.1235249   3.5679759  16.6600486  )

     number of k points=    40  Fermi-Dirac smearing, width (Ry)=  0.0110
                       cart. coord. in units 2pi/alat
        k(    1) = (   0.0000000   0.0000000   0.0000000), wk =   0.0277778
        k(    2) = (   0.0000000   0.0373904   0.0000000), wk =   0.0555556
        k(    3) = (   0.0000000   0.0747807   0.0000000), wk =   0.0555556
        k(    4) = (   0.0000000  -0.1121711   0.0000000), wk =   0.0277778
        k(    5) = (   0.0323810  -0.0186952   0.0000000), wk =   0.0555556
        k(    6) = (   0.0323810   0.0186952   0.0000000), wk =   0.0555556
        k(    7) = (   0.0323810   0.0560856   0.0000000), wk =   0.0555556
        k(    8) = (   0.0323810  -0.1308663   0.0000000), wk =   0.0555556
        k(    9) = (   0.0323810  -0.0934759   0.0000000), wk =   0.0555556
        k(   10) = (   0.0323810  -0.0560856   0.0000000), wk =   0.0555556
        k(   11) = (   0.0647620  -0.0373904   0.0000000), wk =   0.0555556
        k(   12) = (   0.0647620   0.0000000   0.0000000), wk =   0.0555556
        k(   13) = (   0.0647620   0.0373904   0.0000000), wk =   0.0555556
        k(   14) = (   0.0647620  -0.1495615   0.0000000), wk =   0.0555556
        k(   15) = (   0.0647620  -0.1121711   0.0000000), wk =   0.0555556
        k(   16) = (   0.0647620  -0.0747807   0.0000000), wk =   0.0555556
        k(   17) = (  -0.0971430   0.0560856   0.0000000), wk =   0.0277778
        k(   18) = (  -0.0971430   0.0934759   0.0000000), wk =   0.0555556
        k(   19) = (  -0.0971430   0.1308663   0.0000000), wk =   0.0555556
        k(   20) = (  -0.0971430  -0.0560856   0.0000000), wk =   0.0277778
        k(   21) = (   0.0000000   0.0000000   0.0000000), wk =   0.0277778
        k(   22) = (   0.0000000   0.0373904   0.0000000), wk =   0.0555556
        k(   23) = (   0.0000000   0.0747807   0.0000000), wk =   0.0555556
        k(   24) = (   0.0000000  -0.1121711   0.0000000), wk =   0.0277778
        k(   25) = (   0.0323810  -0.0186952   0.0000000), wk =   0.0555556
        k(   26) = (   0.0323810   0.0186952   0.0000000), wk =   0.0555556
        k(   27) = (   0.0323810   0.0560856   0.0000000), wk =   0.0555556
        k(   28) = (   0.0323810  -0.1308663   0.0000000), wk =   0.0555556
        k(   29) = (   0.0323810  -0.0934759   0.0000000), wk =   0.0555556
        k(   30) = (   0.0323810  -0.0560856   0.0000000), wk =   0.0555556
        k(   31) = (   0.0647620  -0.0373904   0.0000000), wk =   0.0555556
        k(   32) = (   0.0647620   0.0000000   0.0000000), wk =   0.0555556
        k(   33) = (   0.0647620   0.0373904   0.0000000), wk =   0.0555556
        k(   34) = (   0.0647620  -0.1495615   0.0000000), wk =   0.0555556
        k(   35) = (   0.0647620  -0.1121711   0.0000000), wk =   0.0555556
        k(   36) = (   0.0647620  -0.0747807   0.0000000), wk =   0.0555556
        k(   37) = (  -0.0971430   0.0560856   0.0000000), wk =   0.0277778
        k(   38) = (  -0.0971430   0.0934759   0.0000000), wk =   0.0555556
        k(   39) = (  -0.0971430   0.1308663   0.0000000), wk =   0.0555556
        k(   40) = (  -0.0971430  -0.0560856   0.0000000), wk =   0.0277778

     Dense  grid:   445881 G-vectors     FFT dimensions: (  60,  60, 288)

     Smooth grid:   112839 G-vectors     FFT dimensions: (  40,  40, 180)

     Largest allocated arrays     est. size (Mb)     dimensions
        Kohn-Sham Wavefunctions         2.83 Mb     (    1798,  103)
        NL pseudopotentials             6.31 Mb     (    1798,  230)
        Each V/rho on FFT grid          3.96 Mb     (  129600,   2)
        Each G-vector array             0.43 Mb     (   55727)
        G-vector shells                 0.11 Mb     (   14790)
     Largest temporary arrays     est. size (Mb)     dimensions
        Auxiliary wavefunctions        11.30 Mb     (    1798,  412)
        Each subspace H/S matrix        2.59 Mb     (     412,  412)
        Each <psi_i|beta_j> matrix      0.36 Mb     (     230,  103)
        Arrays for rho mixing          19.78 Mb     (  129600,   10)

     Check: negative/imaginary core charge=   -0.000010    0.000000

     Initial potential from superposition of free atoms
     Check: negative starting charge=(component1):   -0.001387
     Check: negative starting charge=(component2):   -0.001050

     starting charge  180.99891, renormalised to  187.00000

     negative rho (up, down):  1.433E-03 1.084E-03


     ************************************************************************
     *
     * You are using vdW-DF for exchange-correlation in this calculation.
     * Please cite the following three references that made this development
     * possible:
     *
     *   M. Dion, H. Rydberg, E. Schroder, D. C. Langreth, and
     *   B. I. Lundqvist, Phys. Rev. Lett. 92, 246401 (2004).
     *
     *   T. Thonhauser, V. R. Cooper, S. Li, A. Puzder, P. Hyldgaard, and
     *   D. C. Langreth, Phys. Rev. B 76, 125112 (2007).
     *
     *   G. Roman-Perez and J. M. Soler, Phys. Rev. Lett. 103, 096102 (2009).
     *
     *
     * If you are using vdW-DF2, please also cite:
     *
     *   K. Lee, E. D. Murray, L. Kong, B. I. Lundqvist, and
     *   D. C. Langreth, Phys. Rev. B 82, 081101(R) (2010).
     *
     *
     * If you are calculating the stress with vdW-DF, please also cite:
     *
     *   R. Sabatini, E. Kucukbenli, B. Kolb, T. Thonhauser, and
     *   S. de Gironcoli, J. Phys.: Condens. Matter 24, 424209 (2012).
     *
     ************************************************************************

     Carrying out vdW-DF run using the following parameters:

     Nqs =      20    Nr_points =    1024   r_max =   100.000
     q_mesh =
               0.00001000     0.04494208     0.09755937     0.15916263
               0.23128650     0.31572767     0.41458969     0.53033537
               0.66584808     0.82450364     1.01025438     1.22772762
               1.48234092     1.78043706     2.12944203     2.53805004
               3.01644009     3.57652955     4.23227104     5.00000000

     Gradients computed in reciprocal space

     ************************************************************************


 
     Adding external electric field

     Computed dipole along edir(3) : 
        Dipole               -1.8410 Ry au,         -4.6792 Debye
        Dipole field         -0.0062 Ry au
 
        Potential amp.        0.5506 Ry
        Total length         44.5928 bohr
 
 
     Adding external electric field

     Computed dipole along edir(3) : 
        Dipole               -1.8410 Ry au,         -4.6792 Debye
        Dipole field         -0.0062 Ry au
 
        Potential amp.        0.5506 Ry
        Total length         44.5928 bohr
 
     Starting wfc are  163 randomized atomic wfcs

     total cpu time spent up to now is       14.6 secs

     per-process dynamical memory:    92.4 Mb

     Self-consistent Calculation

     iteration #  1     ecut=    36.75 Ry     beta=0.30
     Davidson diagonalization with overlap
     ethr =  1.00E-02,  avg # of iterations =  2.0

     negative rho (up, down):  1.294E-03 1.024E-03
 
     Adding external electric field

     Computed dipole along edir(3) : 
        Dipole               33.1605 Ry au,         84.2856 Debye
        Dipole field          0.1112 Ry au
 
        Potential amp.       -9.9179 Ry
        Total length         44.5928 bohr
 
 
     Adding external electric field

     Computed dipole along edir(3) : 
        Dipole               33.1605 Ry au,         84.2856 Debye
        Dipole field          0.1112 Ry au
 
        Potential amp.       -9.9179 Ry
        Total length         44.5928 bohr
 
 
     Magnetic moment per site:
     atom:    1    charge:    6.2033    magn:    0.7534    constr:    0.0000
     atom:    2    charge:    6.2032    magn:    0.7534    constr:    0.0000
     atom:    3    charge:    6.2033    magn:    0.7534    constr:    0.0000
     atom:    4    charge:    6.2030    magn:    0.7535    constr:    0.0000
     atom:    5    charge:    6.0461    magn:    0.7349    constr:    0.0000
     atom:    6    charge:    6.0452    magn:    0.7365    constr:    0.0000
     atom:    7    charge:    6.0461    magn:    0.7349    constr:    0.0000
     atom:    8    charge:    6.0461    magn:    0.7350    constr:    0.0000
     atom:    9    charge:    5.7064    magn:    0.6460    constr:    0.0000
     atom:   10    charge:    5.6654    magn:    0.6405    constr:    0.0000
     atom:   11    charge:    5.6654    magn:    0.6406    constr:    0.0000
     atom:   12    charge:    5.6652    magn:    0.6405    constr:    0.0000
     atom:   13    charge:    0.6620    magn:   -0.0013    constr:    0.0000
     atom:   14    charge:    0.2836    magn:   -0.0003    constr:    0.0000
     atom:   15    charge:    0.3070    magn:   -0.0002    constr:    0.0000
     atom:   16    charge:    0.3070    magn:   -0.0002    constr:    0.0000

     total cpu time spent up to now is       39.4 secs

     total energy              =   -2453.72126747 Ry
     Harris-Foulkes estimate   =   -2561.77984522 Ry
     estimated scf accuracy    <     222.76798572 Ry

     total magnetization       =    13.88 Bohr mag/cell
     absolute magnetization    =    14.18 Bohr mag/cell

     iteration #  2     ecut=    36.75 Ry     beta=0.30
     Davidson diagonalization with overlap
     ethr =  1.00E-02,  avg # of iterations = 17.1

     negative rho (up, down):  5.923E-04 4.584E-04
 
     Adding external electric field

     Computed dipole along edir(3) : 
        Dipole               -4.8286 Ry au,        -12.2731 Debye
        Dipole field         -0.0162 Ry au
 
        Potential amp.        1.4442 Ry
        Total length         44.5928 bohr
 
 
     Adding external electric field

     Computed dipole along edir(3) : 
        Dipole               -4.8286 Ry au,        -12.2731 Debye
        Dipole field         -0.0162 Ry au
 
        Potential amp.        1.4442 Ry
        Total length         44.5928 bohr
 
 
     Magnetic moment per site:
     atom:    1    charge:    6.0559    magn:    0.7355    constr:    0.0000
     atom:    2    charge:    6.0558    magn:    0.7355    constr:    0.0000
     atom:    3    charge:    6.0559    magn:    0.7355    constr:    0.0000
     atom:    4    charge:    6.0556    magn:    0.7356    constr:    0.0000
     atom:    5    charge:    5.9278    magn:    0.7175    constr:    0.0000
     atom:    6    charge:    5.9270    magn:    0.7191    constr:    0.0000
     atom:    7    charge:    5.9278    magn:    0.7176    constr:    0.0000
     atom:    8    charge:    5.9278    magn:    0.7176    constr:    0.0000
     atom:    9    charge:    5.7813    magn:    0.6323    constr:    0.0000
     atom:   10    charge:    5.7450    magn:    0.6268    constr:    0.0000
     atom:   11    charge:    5.7449    magn:    0.6269    constr:    0.0000
     atom:   12    charge:    5.7447    magn:    0.6268    constr:    0.0000
     atom:   13    charge:    0.6860    magn:   -0.0013    constr:    0.0000
     atom:   14    charge:    0.2969    magn:   -0.0002    constr:    0.0000
     atom:   15    charge:    0.3198    magn:   -0.0002    constr:    0.0000
     atom:   16    charge:    0.3198    magn:   -0.0002    constr:    0.0000

     total cpu time spent up to now is      118.2 secs

     total energy              =   -2231.20860050 Ry
     Harris-Foulkes estimate   =   -3107.30667364 Ry
     estimated scf accuracy    <   18864.89277438 Ry

     total magnetization       =     1.28 Bohr mag/cell
     absolute magnetization    =     1.42 Bohr mag/cell

     iteration #  3     ecut=    36.75 Ry     beta=0.30
     Davidson diagonalization with overlap
     ethr =  1.00E-02,  avg # of iterations =  9.8

     negative rho (up, down):  6.625E-04 5.303E-04
 
     Adding external electric field

     Computed dipole along edir(3) : 
        Dipole               -1.3803 Ry au,         -3.5084 Debye
        Dipole field         -0.0046 Ry au
 
        Potential amp.        0.4128 Ry
        Total length         44.5928 bohr
 
 
     Adding external electric field

     Computed dipole along edir(3) : 
        Dipole               -1.3803 Ry au,         -3.5084 Debye
        Dipole field         -0.0046 Ry au
 
        Potential amp.        0.4128 Ry
        Total length         44.5928 bohr
 
 
     Magnetic moment per site:
     atom:    1    charge:    5.9844    magn:    0.6897    constr:    0.0000
     atom:    2    charge:    5.9844    magn:    0.6896    constr:    0.0000
     atom:    3    charge:    5.9844    magn:    0.6897    constr:    0.0000
     atom:    4    charge:    5.9841    magn:    0.6897    constr:    0.0000
     atom:    5    charge:    5.9594    magn:    0.7179    constr:    0.0000
     atom:    6    charge:    5.9663    magn:    0.7209    constr:    0.0000
     atom:    7    charge:    5.9591    magn:    0.7177    constr:    0.0000
     atom:    8    charge:    5.9592    magn:    0.7180    constr:    0.0000
     atom:    9    charge:    5.9909    magn:    0.5956    constr:    0.0000
     atom:   10    charge:    5.9638    magn:    0.5903    constr:    0.0000
     atom:   11    charge:    5.9638    magn:    0.5903    constr:    0.0000
     atom:   12    charge:    5.9637    magn:    0.5902    constr:    0.0000
     atom:   13    charge:    0.6619    magn:   -0.0001    constr:    0.0000
     atom:   14    charge:    0.2751    magn:    0.0001    constr:    0.0000
     atom:   15    charge:    0.2994    magn:    0.0001    constr:    0.0000
     atom:   16    charge:    0.2994    magn:    0.0001    constr:    0.0000

     total cpu time spent up to now is      177.6 secs

     total energy              =   -2559.91209517 Ry
     Harris-Foulkes estimate   =   -2666.01278199 Ry
     estimated scf accuracy    <    1340.48694203 Ry

     total magnetization       =     6.79 Bohr mag/cell
     absolute magnetization    =     7.07 Bohr mag/cell

     iteration #  4     ecut=    36.75 Ry     beta=0.30
     Davidson diagonalization with overlap
     ethr =  1.00E-02,  avg # of iterations =  4.4

     negative rho (up, down):  7.171E-04 7.631E-04
 
     Adding external electric field

     Computed dipole along edir(3) : 
        Dipole               -1.6425 Ry au,         -4.1748 Debye
        Dipole field         -0.0055 Ry au
 
        Potential amp.        0.4913 Ry
        Total length         44.5928 bohr
 
 
     Adding external electric field

     Computed dipole along edir(3) : 
        Dipole               -1.6425 Ry au,         -4.1748 Debye
        Dipole field         -0.0055 Ry au
 
        Potential amp.        0.4913 Ry
        Total length         44.5928 bohr
 
 
     Magnetic moment per site:
     atom:    1    charge:    5.9624    magn:    0.6795    constr:    0.0000
     atom:    2    charge:    5.9623    magn:    0.6795    constr:    0.0000
     atom:    3    charge:    5.9623    magn:    0.6796    constr:    0.0000
     atom:    4    charge:    5.9620    magn:    0.6795    constr:    0.0000
     atom:    5    charge:    5.9970    magn:    0.7182    constr:    0.0000
     atom:    6    charge:    5.9968    magn:    0.7230    constr:    0.0000
     atom:    7    charge:    5.9970    magn:    0.7178    constr:    0.0000
     atom:    8    charge:    5.9970    magn:    0.7181    constr:    0.0000
     atom:    9    charge:    5.9883    magn:    0.5898    constr:    0.0000
     atom:   10    charge:    5.9708    magn:    0.5832    constr:    0.0000
     atom:   11    charge:    5.9708    magn:    0.5832    constr:    0.0000
     atom:   12    charge:    5.9707    magn:    0.5831    constr:    0.0000
     atom:   13    charge:    0.6647    magn:   -0.0004    constr:    0.0000
     atom:   14    charge:    0.2794    magn:   -0.0000    constr:    0.0000
     atom:   15    charge:    0.3038    magn:   -0.0000    constr:    0.0000
     atom:   16    charge:    0.3038    magn:   -0.0000    constr:    0.0000

     total cpu time spent up to now is      208.1 secs

     total energy              =   -2566.05833752 Ry
     Harris-Foulkes estimate   =   -2573.60385661 Ry
     estimated scf accuracy    <     625.14840747 Ry

     total magnetization       =     6.37 Bohr mag/cell
     absolute magnetization    =     6.92 Bohr mag/cell

     iteration #  5     ecut=    36.75 Ry     beta=0.30
     Davidson diagonalization with overlap
     ethr =  1.00E-02,  avg # of iterations =  1.9

     negative rho (up, down):  7.903E-04 9.749E-04
 
     Adding external electric field

     Computed dipole along edir(3) : 
        Dipole               -1.1955 Ry au,         -3.0386 Debye
        Dipole field         -0.0040 Ry au
 
        Potential amp.        0.3576 Ry
        Total length         44.5928 bohr
 
 
     Adding external electric field

     Computed dipole along edir(3) : 
        Dipole               -1.1955 Ry au,         -3.0386 Debye
        Dipole field         -0.0040 Ry au
 
        Potential amp.        0.3576 Ry
        Total length         44.5928 bohr
 
 
     Magnetic moment per site:
     atom:    1    charge:    5.9238    magn:    0.6517    constr:    0.0000
     atom:    2    charge:    5.9244    magn:    0.6529    constr:    0.0000
     atom:    3    charge:    5.9234    magn:    0.6516    constr:    0.0000
     atom:    4    charge:    5.9230    magn:    0.6524    constr:    0.0000
     atom:    5    charge:    5.9747    magn:    0.7176    constr:    0.0000
     atom:    6    charge:    5.9968    magn:    0.7031    constr:    0.0000
     atom:    7    charge:    5.9751    magn:    0.7182    constr:    0.0000
     atom:    8    charge:    5.9754    magn:    0.7187    constr:    0.0000
     atom:    9    charge:    6.0197    magn:    0.5685    constr:    0.0000
     atom:   10    charge:    6.0168    magn:    0.5558    constr:    0.0000
     atom:   11    charge:    6.0167    magn:    0.5558    constr:    0.0000
     atom:   12    charge:    6.0166    magn:    0.5558    constr:    0.0000
     atom:   13    charge:    0.6732    magn:   -0.0009    constr:    0.0000
     atom:   14    charge:    0.2933    magn:   -0.0003    constr:    0.0000
     atom:   15    charge:    0.3176    magn:   -0.0003    constr:    0.0000
     atom:   16    charge:    0.3176    magn:   -0.0003    constr:    0.0000

     total cpu time spent up to now is      231.1 secs

     total energy              =   -2549.89215129 Ry
     Harris-Foulkes estimate   =   -2566.59416509 Ry
     estimated scf accuracy    <     551.73945014 Ry

     total magnetization       =     7.12 Bohr mag/cell
     absolute magnetization    =     7.50 Bohr mag/cell

     iteration #  6     ecut=    36.75 Ry     beta=0.30
     Davidson diagonalization with overlap
     ethr =  1.00E-02,  avg # of iterations =  5.6

     negative rho (up, down):  7.396E-04 7.741E-04
 
     Adding external electric field

     Computed dipole along edir(3) : 
        Dipole               -0.8361 Ry au,         -2.1251 Debye
        Dipole field         -0.0028 Ry au
 
        Potential amp.        0.2501 Ry
        Total length         44.5928 bohr
 
 
     Adding external electric field

     Computed dipole along edir(3) : 
        Dipole               -0.8361 Ry au,         -2.1251 Debye
        Dipole field         -0.0028 Ry au
 
        Potential amp.        0.2501 Ry
        Total length         44.5928 bohr
 
 
     Magnetic moment per site:
     atom:    1    charge:    6.0176    magn:    0.5743    constr:    0.0000
     atom:    2    charge:    6.0169    magn:    0.5741    constr:    0.0000
     atom:    3    charge:    6.0182    magn:    0.5742    constr:    0.0000
     atom:    4    charge:    6.0185    magn:    0.5738    constr:    0.0000
     atom:    5    charge:    6.0194    magn:    0.6790    constr:    0.0000
     atom:    6    charge:    5.9550    magn:    0.6758    constr:    0.0000
     atom:    7    charge:    6.0199    magn:    0.6779    constr:    0.0000
     atom:    8    charge:    6.0189    magn:    0.6774    constr:    0.0000
     atom:    9    charge:    5.9728    magn:    0.5388    constr:    0.0000
     atom:   10    charge:    6.0725    magn:    0.5471    constr:    0.0000
     atom:   11    charge:    6.0734    magn:    0.5470    constr:    0.0000
     atom:   12    charge:    6.0738    magn:    0.5469    constr:    0.0000
     atom:   13    charge:    0.6662    magn:   -0.0015    constr:    0.0000
     atom:   14    charge:    0.2965    magn:    0.0003    constr:    0.0000
     atom:   15    charge:    0.3223    magn:    0.0003    constr:    0.0000
     atom:   16    charge:    0.3223    magn:    0.0003    constr:    0.0000

     total cpu time spent up to now is      268.5 secs

     total energy              =   -2557.51516457 Ry
     Harris-Foulkes estimate   =   -2564.34474614 Ry
     estimated scf accuracy    <     160.39707021 Ry

     total magnetization       =    10.50 Bohr mag/cell
     absolute magnetization    =    10.71 Bohr mag/cell

     iteration #  7     ecut=    36.75 Ry     beta=0.30
     Davidson diagonalization with overlap
     ethr =  1.00E-02,  avg # of iterations =  3.2

     negative rho (up, down):  8.541E-04 8.794E-04
 
     Adding external electric field

     Computed dipole along edir(3) : 
        Dipole               -0.8541 Ry au,         -2.1710 Debye
        Dipole field         -0.0029 Ry au
 
        Potential amp.        0.2555 Ry
        Total length         44.5928 bohr
 
 
     Adding external electric field

     Computed dipole along edir(3) : 
        Dipole               -0.8541 Ry au,         -2.1710 Debye
        Dipole field         -0.0029 Ry au
 
        Potential amp.        0.2555 Ry
        Total length         44.5928 bohr
 
 
     Magnetic moment per site:
     atom:    1    charge:    6.0355    magn:    0.5658    constr:    0.0000
     atom:    2    charge:    6.0362    magn:    0.5645    constr:    0.0000
     atom:    3    charge:    6.0347    magn:    0.5664    constr:    0.0000
     atom:    4    charge:    6.0269    magn:    0.5667    constr:    0.0000
     atom:    5    charge:    6.0067    magn:    0.6382    constr:    0.0000
     atom:    6    charge:    5.9823    magn:    0.6691    constr:    0.0000
     atom:    7    charge:    6.0067    magn:    0.6367    constr:    0.0000
     atom:    8    charge:    6.0058    magn:    0.6357    constr:    0.0000
     atom:    9    charge:    6.0379    magn:    0.4984    constr:    0.0000
     atom:   10    charge:    6.0399    magn:    0.5348    constr:    0.0000
     atom:   11    charge:    6.0384    magn:    0.5355    constr:    0.0000
     atom:   12    charge:    6.0372    magn:    0.5347    constr:    0.0000
     atom:   13    charge:    0.6617    magn:   -0.0023    constr:    0.0000
     atom:   14    charge:    0.3012    magn:   -0.0001    constr:    0.0000
     atom:   15    charge:    0.3276    magn:   -0.0001    constr:    0.0000
     atom:   16    charge:    0.3276    magn:   -0.0001    constr:    0.0000

     total cpu time spent up to now is      293.5 secs

     total energy              =   -2558.73310126 Ry
     Harris-Foulkes estimate   =   -2560.03607430 Ry
     estimated scf accuracy    <      24.24240720 Ry

     total magnetization       =    12.94 Bohr mag/cell
     absolute magnetization    =    13.21 Bohr mag/cell

     iteration #  8     ecut=    36.75 Ry     beta=0.30
     Davidson diagonalization with overlap
     ethr =  1.00E-02,  avg # of iterations =  3.2

     negative rho (up, down):  9.298E-04 8.750E-04
 
     Adding external electric field

     Computed dipole along edir(3) : 
        Dipole               -0.8485 Ry au,         -2.1566 Debye
        Dipole field         -0.0028 Ry au
 
        Potential amp.        0.2538 Ry
        Total length         44.5928 bohr
 
 
     Adding external electric field

     Computed dipole along edir(3) : 
        Dipole               -0.8485 Ry au,         -2.1566 Debye
        Dipole field         -0.0028 Ry au
 
        Potential amp.        0.2538 Ry
        Total length         44.5928 bohr
 
 
     Magnetic moment per site:
     atom:    1    charge:    6.0349    magn:    0.5622    constr:    0.0000
     atom:    2    charge:    6.0336    magn:    0.5601    constr:    0.0000
     atom:    3    charge:    6.0358    magn:    0.5633    constr:    0.0000
     atom:    4    charge:    6.0421    magn:    0.5642    constr:    0.0000
     atom:    5    charge:    5.9968    magn:    0.6041    constr:    0.0000
     atom:    6    charge:    5.9899    magn:    0.6500    constr:    0.0000
     atom:    7    charge:    5.9970    magn:    0.6024    constr:    0.0000
     atom:    8    charge:    5.9957    magn:    0.6016    constr:    0.0000
     atom:    9    charge:    6.0194    magn:    0.4824    constr:    0.0000
     atom:   10    charge:    6.0331    magn:    0.5146    constr:    0.0000
     atom:   11    charge:    6.0330    magn:    0.5150    constr:    0.0000
     atom:   12    charge:    6.0324    magn:    0.5130    constr:    0.0000
     atom:   13    charge:    0.6581    magn:   -0.0029    constr:    0.0000
     atom:   14    charge:    0.3039    magn:   -0.0003    constr:    0.0000
     atom:   15    charge:    0.3307    magn:   -0.0002    constr:    0.0000
     atom:   16    charge:    0.3308    magn:   -0.0002    constr:    0.0000

     total cpu time spent up to now is      317.4 secs

     total energy              =   -2560.05300217 Ry
     Harris-Foulkes estimate   =   -2560.01120303 Ry
     estimated scf accuracy    <      15.11916723 Ry

     total magnetization       =     9.15 Bohr mag/cell
     absolute magnetization    =     9.92 Bohr mag/cell

     iteration #  9     ecut=    36.75 Ry     beta=0.30
     Davidson diagonalization with overlap
     ethr =  8.09E-03,  avg # of iterations =  5.3

     negative rho (up, down):  9.706E-04 8.793E-04
 
     Adding external electric field

     Computed dipole along edir(3) : 
        Dipole               -0.9425 Ry au,         -2.3957 Debye
        Dipole field         -0.0032 Ry au
 
        Potential amp.        0.2819 Ry
        Total length         44.5928 bohr
 
 
     Adding external electric field

     Computed dipole along edir(3) : 
        Dipole               -0.9425 Ry au,         -2.3957 Debye
        Dipole field         -0.0032 Ry au
 
        Potential amp.        0.2819 Ry
        Total length         44.5928 bohr
 
 
     Magnetic moment per site:
     atom:    1    charge:    6.0375    magn:    0.5511    constr:    0.0000
     atom:    2    charge:    6.0382    magn:    0.5498    constr:    0.0000
     atom:    3    charge:    6.0364    magn:    0.5513    constr:    0.0000
     atom:    4    charge:    6.0285    magn:    0.5478    constr:    0.0000
     atom:    5    charge:    5.9951    magn:    0.6087    constr:    0.0000
     atom:    6    charge:    5.9963    magn:    0.6497    constr:    0.0000
     atom:    7    charge:    5.9951    magn:    0.6067    constr:    0.0000
     atom:    8    charge:    5.9951    magn:    0.6062    constr:    0.0000
     atom:    9    charge:    6.0093    magn:    0.4851    constr:    0.0000
     atom:   10    charge:    6.0275    magn:    0.5206    constr:    0.0000
     atom:   11    charge:    6.0272    magn:    0.5214    constr:    0.0000
     atom:   12    charge:    6.0270    magn:    0.5190    constr:    0.0000
     atom:   13    charge:    0.6568    magn:   -0.0029    constr:    0.0000
     atom:   14    charge:    0.3054    magn:   -0.0000    constr:    0.0000
     atom:   15    charge:    0.3323    magn:   -0.0000    constr:    0.0000
     atom:   16    charge:    0.3323    magn:   -0.0000    constr:    0.0000

     total cpu time spent up to now is      347.1 secs

     total energy              =   -2561.11259070 Ry
     Harris-Foulkes estimate   =   -2561.35813590 Ry
     estimated scf accuracy    <      86.52852364 Ry

     total magnetization       =    12.25 Bohr mag/cell
     absolute magnetization    =    12.53 Bohr mag/cell

     iteration # 10     ecut=    36.75 Ry     beta=0.30
     Davidson diagonalization with overlap
     ethr =  8.09E-03,  avg # of iterations =  1.3

     negative rho (up, down):  1.059E-03 9.594E-04
 
     Adding external electric field

     Computed dipole along edir(3) : 
        Dipole               -1.1685 Ry au,         -2.9700 Debye
        Dipole field         -0.0039 Ry au
 
        Potential amp.        0.3495 Ry
        Total length         44.5928 bohr
 
 
     Adding external electric field

     Computed dipole along edir(3) : 
        Dipole               -1.1685 Ry au,         -2.9700 Debye
        Dipole field         -0.0039 Ry au
 
        Potential amp.        0.3495 Ry
        Total length         44.5928 bohr
 
 
     Magnetic moment per site:
     atom:    1    charge:    6.0274    magn:    0.5238    constr:    0.0000
     atom:    2    charge:    6.0259    magn:    0.5236    constr:    0.0000
     atom:    3    charge:    6.0294    magn:    0.5235    constr:    0.0000
     atom:    4    charge:    6.0271    magn:    0.5072    constr:    0.0000
     atom:    5    charge:    5.9958    magn:    0.6248    constr:    0.0000
     atom:    6    charge:    5.9958    magn:    0.6486    constr:    0.0000
     atom:    7    charge:    5.9963    magn:    0.6227    constr:    0.0000
     atom:    8    charge:    5.9963    magn:    0.6222    constr:    0.0000
     atom:    9    charge:    6.0034    magn:    0.4917    constr:    0.0000
     atom:   10    charge:    6.0174    magn:    0.5439    constr:    0.0000
     atom:   11    charge:    6.0172    magn:    0.5454    constr:    0.0000
     atom:   12    charge:    6.0176    magn:    0.5433    constr:    0.0000
     atom:   13    charge:    0.6548    magn:   -0.0026    constr:    0.0000
     atom:   14    charge:    0.3083    magn:    0.0008    constr:    0.0000
     atom:   15    charge:    0.3353    magn:    0.0007    constr:    0.0000
     atom:   16    charge:    0.3353    magn:    0.0006    constr:    0.0000

     total cpu time spent up to now is      369.6 secs

     total energy              =   -2560.37491583 Ry
     Harris-Foulkes estimate   =   -2561.24281513 Ry
     estimated scf accuracy    <      80.32998163 Ry

     total magnetization       =    12.53 Bohr mag/cell
     absolute magnetization    =    12.80 Bohr mag/cell

     iteration # 11     ecut=    36.75 Ry     beta=0.30
     Davidson diagonalization with overlap
     ethr =  8.09E-03,  avg # of iterations =  1.1

     negative rho (up, down):  9.843E-04 9.662E-04
 
     Adding external electric field

     Computed dipole along edir(3) : 
        Dipole               -1.2601 Ry au,         -3.2028 Debye
        Dipole field         -0.0042 Ry au
 
        Potential amp.        0.3769 Ry
        Total length         44.5928 bohr
 
 
     Adding external electric field

     Computed dipole along edir(3) : 
        Dipole               -1.2601 Ry au,         -3.2028 Debye
        Dipole field         -0.0042 Ry au
 
        Potential amp.        0.3769 Ry
        Total length         44.5928 bohr
 
 
     Magnetic moment per site:
     atom:    1    charge:    6.0010    magn:    0.4503    constr:    0.0000
     atom:    2    charge:    6.0073    magn:    0.4507    constr:    0.0000
     atom:    3    charge:    5.9916    magn:    0.4528    constr:    0.0000
     atom:    4    charge:    5.9988    magn:    0.4103    constr:    0.0000
     atom:    5    charge:    5.9877    magn:    0.6128    constr:    0.0000
     atom:    6    charge:    5.9911    magn:    0.6316    constr:    0.0000
     atom:    7    charge:    5.9876    magn:    0.6120    constr:    0.0000
     atom:    8    charge:    5.9846    magn:    0.6109    constr:    0.0000
     atom:    9    charge:    5.9965    magn:    0.4911    constr:    0.0000
     atom:   10    charge:    6.0025    magn:    0.5689    constr:    0.0000
     atom:   11    charge:    6.0063    magn:    0.5713    constr:    0.0000
     atom:   12    charge:    6.0022    magn:    0.5709    constr:    0.0000
     atom:   13    charge:    0.6492    magn:   -0.0023    constr:    0.0000
     atom:   14    charge:    0.3170    magn:    0.0029    constr:    0.0000
     atom:   15    charge:    0.3453    magn:    0.0024    constr:    0.0000
     atom:   16    charge:    0.3453    magn:    0.0023    constr:    0.0000

     total cpu time spent up to now is      391.4 secs

     total energy              =   -2559.78062605 Ry
     Harris-Foulkes estimate   =   -2560.54573155 Ry
     estimated scf accuracy    <      37.63777268 Ry

     total magnetization       =    12.99 Bohr mag/cell
     absolute magnetization    =    13.22 Bohr mag/cell

     iteration # 12     ecut=    36.75 Ry     beta=0.30
     Davidson diagonalization with overlap
     ethr =  8.09E-03,  avg # of iterations =  1.1

     negative rho (up, down):  9.824E-04 8.960E-04
 
     Adding external electric field

     Computed dipole along edir(3) : 
        Dipole               -1.1901 Ry au,         -3.0250 Debye
        Dipole field         -0.0040 Ry au
 
        Potential amp.        0.3560 Ry
        Total length         44.5928 bohr
 
 
     Adding external electric field

     Computed dipole along edir(3) : 
        Dipole               -1.1901 Ry au,         -3.0250 Debye
        Dipole field         -0.0040 Ry au
 
        Potential amp.        0.3560 Ry
        Total length         44.5928 bohr
 
 
     Magnetic moment per site:
     atom:    1    charge:    5.9972    magn:    0.4264    constr:    0.0000
     atom:    2    charge:    5.9935    magn:    0.4303    constr:    0.0000
     atom:    3    charge:    6.0008    magn:    0.4248    constr:    0.0000
     atom:    4    charge:    5.9916    magn:    0.3837    constr:    0.0000
     atom:    5    charge:    5.9851    magn:    0.6050    constr:    0.0000
     atom:    6    charge:    5.9863    magn:    0.6310    constr:    0.0000
     atom:    7    charge:    5.9852    magn:    0.6044    constr:    0.0000
     atom:    8    charge:    5.9862    magn:    0.6034    constr:    0.0000
     atom:    9    charge:    5.9955    magn:    0.4901    constr:    0.0000
     atom:   10    charge:    6.0035    magn:    0.5678    constr:    0.0000
     atom:   11    charge:    6.0001    magn:    0.5709    constr:    0.0000
     atom:   12    charge:    6.0036    magn:    0.5700    constr:    0.0000
     atom:   13    charge:    0.6485    magn:   -0.0024    constr:    0.0000
     atom:   14    charge:    0.3185    magn:    0.0033    constr:    0.0000
     atom:   15    charge:    0.3470    magn:    0.0027    constr:    0.0000
     atom:   16    charge:    0.3469    magn:    0.0026    constr:    0.0000

     total cpu time spent up to now is      413.8 secs

     total energy              =   -2560.07717548 Ry
     Harris-Foulkes estimate   =   -2560.06012851 Ry
     estimated scf accuracy    <       5.02303942 Ry

     total magnetization       =    11.39 Bohr mag/cell
     absolute magnetization    =    12.11 Bohr mag/cell

     iteration # 13     ecut=    36.75 Ry     beta=0.30
     Davidson diagonalization with overlap
     ethr =  2.69E-03,  avg # of iterations =  2.0

     negative rho (up, down):  8.581E-04 8.566E-04
 
     Adding external electric field

     Computed dipole along edir(3) : 
        Dipole               -0.5893 Ry au,         -1.4978 Debye
        Dipole field         -0.0020 Ry au
 
        Potential amp.        0.1762 Ry
        Total length         44.5928 bohr
 
 
     Adding external electric field

     Computed dipole along edir(3) : 
        Dipole               -0.5893 Ry au,         -1.4978 Debye
        Dipole field         -0.0020 Ry au
 
        Potential amp.        0.1762 Ry
        Total length         44.5928 bohr
 
 
     Magnetic moment per site:
     atom:    1    charge:    5.9676    magn:    0.2957    constr:    0.0000
     atom:    2    charge:    5.9702    magn:    0.2992    constr:    0.0000
     atom:    3    charge:    5.9771    magn:    0.2979    constr:    0.0000
     atom:    4    charge:    5.9674    magn:    0.2217    constr:    0.0000
     atom:    5    charge:    5.9803    magn:    0.5758    constr:    0.0000
     atom:    6    charge:    5.9811    magn:    0.6287    constr:    0.0000
     atom:    7    charge:    5.9785    magn:    0.5761    constr:    0.0000
     atom:    8    charge:    5.9770    magn:    0.5750    constr:    0.0000
     atom:    9    charge:    5.9905    magn:    0.4894    constr:    0.0000
     atom:   10    charge:    5.9944    magn:    0.5789    constr:    0.0000
     atom:   11    charge:    6.0158    magn:    0.5804    constr:    0.0000
     atom:   12    charge:    5.9944    magn:    0.5846    constr:    0.0000
     atom:   13    charge:    0.6448    magn:   -0.0025    constr:    0.0000
     atom:   14    charge:    0.3291    magn:    0.0058    constr:    0.0000
     atom:   15    charge:    0.3589    magn:    0.0048    constr:    0.0000
     atom:   16    charge:    0.3589    magn:    0.0046    constr:    0.0000

     total cpu time spent up to now is      437.7 secs

     total energy              =   -2559.88960511 Ry
     Harris-Foulkes estimate   =   -2560.15015486 Ry
     estimated scf accuracy    <       6.86262263 Ry

     total magnetization       =    11.91 Bohr mag/cell
     absolute magnetization    =    12.27 Bohr mag/cell

     iteration # 14     ecut=    36.75 Ry     beta=0.30
     Davidson diagonalization with overlap
     ethr =  2.69E-03,  avg # of iterations =  3.4

     negative rho (up, down):  8.140E-04 8.098E-04
 
     Adding external electric field

     Computed dipole along edir(3) : 
        Dipole               -0.5267 Ry au,         -1.3387 Debye
        Dipole field         -0.0018 Ry au
 
        Potential amp.        0.1575 Ry
        Total length         44.5928 bohr
 
 
     Adding external electric field

     Computed dipole along edir(3) : 
        Dipole               -0.5267 Ry au,         -1.3387 Debye
        Dipole field         -0.0018 Ry au
 
        Potential amp.        0.1575 Ry
        Total length         44.5928 bohr
 
 
     Magnetic moment per site:
     atom:    1    charge:    5.9658    magn:    0.2419    constr:    0.0000
     atom:    2    charge:    5.9704    magn:    0.2462    constr:    0.0000
     atom:    3    charge:    5.9645    magn:    0.2460    constr:    0.0000
     atom:    4    charge:    5.9668    magn:    0.1547    constr:    0.0000
     atom:    5    charge:    5.9756    magn:    0.5610    constr:    0.0000
     atom:    6    charge:    5.9779    magn:    0.6250    constr:    0.0000
     atom:    7    charge:    5.9750    magn:    0.5622    constr:    0.0000
     atom:    8    charge:    5.9733    magn:    0.5610    constr:    0.0000
     atom:    9    charge:    5.9828    magn:    0.4893    constr:    0.0000
     atom:   10    charge:    5.9927    magn:    0.5832    constr:    0.0000
     atom:   11    charge:    5.9905    magn:    0.5795    constr:    0.0000
     atom:   12    charge:    5.9930    magn:    0.5903    constr:    0.0000
     atom:   13    charge:    0.6423    magn:   -0.0025    constr:    0.0000
     atom:   14    charge:    0.3332    magn:    0.0070    constr:    0.0000
     atom:   15    charge:    0.3634    magn:    0.0058    constr:    0.0000
     atom:   16    charge:    0.3633    magn:    0.0057    constr:    0.0000

     total cpu time spent up to now is      465.7 secs

     total energy              =   -2560.07535076 Ry
     Harris-Foulkes estimate   =   -2560.29009216 Ry
     estimated scf accuracy    <      10.69980942 Ry

     total magnetization       =    11.55 Bohr mag/cell
     absolute magnetization    =    12.02 Bohr mag/cell

     iteration # 15     ecut=    36.75 Ry     beta=0.30
     Davidson diagonalization with overlap
     ethr =  2.69E-03,  avg # of iterations =  1.1

     negative rho (up, down):  8.291E-04 7.657E-04
 
     Adding external electric field

     Computed dipole along edir(3) : 
        Dipole               -0.4685 Ry au,         -1.1908 Debye
        Dipole field         -0.0016 Ry au
 
        Potential amp.        0.1401 Ry
        Total length         44.5928 bohr
 
 
     Adding external electric field

     Computed dipole along edir(3) : 
        Dipole               -0.4685 Ry au,         -1.1908 Debye
        Dipole field         -0.0016 Ry au
 
        Potential amp.        0.1401 Ry
        Total length         44.5928 bohr
 
 
     Magnetic moment per site:
     atom:    1    charge:    5.9761    magn:    0.2377    constr:    0.0000
     atom:    2    charge:    5.9755    magn:    0.2433    constr:    0.0000
     atom:    3    charge:    5.9775    magn:    0.2345    constr:    0.0000
     atom:    4    charge:    5.9736    magn:    0.1376    constr:    0.0000
     atom:    5    charge:    5.9765    magn:    0.5408    constr:    0.0000
     atom:    6    charge:    5.9738    magn:    0.6096    constr:    0.0000
     atom:    7    charge:    5.9789    magn:    0.5438    constr:    0.0000
     atom:    8    charge:    5.9744    magn:    0.5429    constr:    0.0000
     atom:    9    charge:    5.9825    magn:    0.4788    constr:    0.0000
     atom:   10    charge:    5.9855    magn:    0.5791    constr:    0.0000
     atom:   11    charge:    5.9837    magn:    0.5374    constr:    0.0000
     atom:   12    charge:    5.9835    magn:    0.5869    constr:    0.0000
     atom:   13    charge:    0.6389    magn:   -0.0030    constr:    0.0000
     atom:   14    charge:    0.3386    magn:    0.0073    constr:    0.0000
     atom:   15    charge:    0.3686    magn:    0.0060    constr:    0.0000
     atom:   16    charge:    0.3686    magn:    0.0058    constr:    0.0000

     total cpu time spent up to now is      487.8 secs

     total energy              =   -2560.17053012 Ry
     Harris-Foulkes estimate   =   -2560.19188915 Ry
     estimated scf accuracy    <       1.06522873 Ry

     total magnetization       =    11.07 Bohr mag/cell
     absolute magnetization    =    11.36 Bohr mag/cell

     iteration # 16     ecut=    36.75 Ry     beta=0.30
     Davidson diagonalization with overlap
     ethr =  5.70E-04,  avg # of iterations =  5.9

     negative rho (up, down):  8.914E-04 7.525E-04
 
     Adding external electric field

     Computed dipole along edir(3) : 
        Dipole               -0.4003 Ry au,         -1.0175 Debye
        Dipole field         -0.0013 Ry au
 
        Potential amp.        0.1197 Ry
        Total length         44.5928 bohr
 
 
     Adding external electric field

     Computed dipole along edir(3) : 
        Dipole               -0.4003 Ry au,         -1.0175 Debye
        Dipole field         -0.0013 Ry au
 
        Potential amp.        0.1197 Ry
        Total length         44.5928 bohr
 
 
     Magnetic moment per site:
     atom:    1    charge:    5.9746    magn:    0.2235    constr:    0.0000
     atom:    2    charge:    5.9786    magn:    0.2311    constr:    0.0000
     atom:    3    charge:    5.9774    magn:    0.2206    constr:    0.0000
     atom:    4    charge:    5.9753    magn:    0.1187    constr:    0.0000
     atom:    5    charge:    5.9769    magn:    0.5378    constr:    0.0000
     atom:    6    charge:    5.9772    magn:    0.6092    constr:    0.0000
     atom:    7    charge:    5.9734    magn:    0.5389    constr:    0.0000
     atom:    8    charge:    5.9792    magn:    0.5404    constr:    0.0000
     atom:    9    charge:    5.9842    magn:    0.4789    constr:    0.0000
     atom:   10    charge:    5.9868    magn:    0.5906    constr:    0.0000
     atom:   11    charge:    5.9863    magn:    0.5517    constr:    0.0000
     atom:   12    charge:    5.9898    magn:    0.5997    constr:    0.0000
     atom:   13    charge:    0.6384    magn:   -0.0029    constr:    0.0000
     atom:   14    charge:    0.3402    magn:    0.0078    constr:    0.0000
     atom:   15    charge:    0.3702    magn:    0.0064    constr:    0.0000
     atom:   16    charge:    0.3702    magn:    0.0062    constr:    0.0000

     total cpu time spent up to now is      517.3 secs

     total energy              =   -2560.25415712 Ry
     Harris-Foulkes estimate   =   -2560.27329387 Ry
     estimated scf accuracy    <       1.42110187 Ry

     total magnetization       =    11.71 Bohr mag/cell
     absolute magnetization    =    11.95 Bohr mag/cell

     iteration # 17     ecut=    36.75 Ry     beta=0.30
     Davidson diagonalization with overlap
     ethr =  5.70E-04,  avg # of iterations =  1.0

     negative rho (up, down):  9.574E-04 7.761E-04
 
     Adding external electric field

     Computed dipole along edir(3) : 
        Dipole               -0.4056 Ry au,         -1.0309 Debye
        Dipole field         -0.0014 Ry au
 
        Potential amp.        0.1213 Ry
        Total length         44.5928 bohr
 
 
     Adding external electric field

     Computed dipole along edir(3) : 
        Dipole               -0.4056 Ry au,         -1.0309 Debye
        Dipole field         -0.0014 Ry au
 
        Potential amp.        0.1213 Ry
        Total length         44.5928 bohr
 
 
     Magnetic moment per site:
     atom:    1    charge:    5.9858    magn:    0.2425    constr:    0.0000
     atom:    2    charge:    5.9851    magn:    0.2553    constr:    0.0000
     atom:    3    charge:    5.9819    magn:    0.2421    constr:    0.0000
     atom:    4    charge:    5.9812    magn:    0.1436    constr:    0.0000
     atom:    5    charge:    5.9799    magn:    0.5494    constr:    0.0000
     atom:    6    charge:    5.9793    magn:    0.6105    constr:    0.0000
     atom:    7    charge:    5.9799    magn:    0.5476    constr:    0.0000
     atom:    8    charge:    5.9800    magn:    0.5524    constr:    0.0000
     atom:    9    charge:    5.9873    magn:    0.4817    constr:    0.0000
     atom:   10    charge:    5.9953    magn:    0.6013    constr:    0.0000
     atom:   11    charge:    5.9898    magn:    0.5691    constr:    0.0000
     atom:   12    charge:    5.9931    magn:    0.6129    constr:    0.0000
     atom:   13    charge:    0.6392    magn:   -0.0027    constr:    0.0000
     atom:   14    charge:    0.3385    magn:    0.0075    constr:    0.0000
     atom:   15    charge:    0.3680    magn:    0.0062    constr:    0.0000
     atom:   16    charge:    0.3680    magn:    0.0060    constr:    0.0000

     total cpu time spent up to now is      539.1 secs

     total energy              =   -2560.25831531 Ry
     Harris-Foulkes estimate   =   -2560.26398295 Ry
     estimated scf accuracy    <       1.18496269 Ry

     total magnetization       =    11.61 Bohr mag/cell
     absolute magnetization    =    11.88 Bohr mag/cell

     iteration # 18     ecut=    36.75 Ry     beta=0.30
     Davidson diagonalization with overlap
     ethr =  5.70E-04,  avg # of iterations =  1.1

     negative rho (up, down):  9.125E-04 7.753E-04
 
     Adding external electric field

     Computed dipole along edir(3) : 
        Dipole               -0.2834 Ry au,         -0.7202 Debye
        Dipole field         -0.0010 Ry au
 
        Potential amp.        0.0847 Ry
        Total length         44.5928 bohr
 
 
     Adding external electric field

     Computed dipole along edir(3) : 
        Dipole               -0.2834 Ry au,         -0.7202 Debye
        Dipole field         -0.0010 Ry au
 
        Potential amp.        0.0847 Ry
        Total length         44.5928 bohr
 
 
     Magnetic moment per site:
     atom:    1    charge:    5.9903    magn:    0.2377    constr:    0.0000
     atom:    2    charge:    5.9917    magn:    0.2569    constr:    0.0000
     atom:    3    charge:    5.9911    magn:    0.2362    constr:    0.0000
     atom:    4    charge:    5.9902    magn:    0.1368    constr:    0.0000
     atom:    5    charge:    5.9802    magn:    0.5401    constr:    0.0000
     atom:    6    charge:    5.9860    magn:    0.6037    constr:    0.0000
     atom:    7    charge:    5.9815    magn:    0.5339    constr:    0.0000
     atom:    8    charge:    5.9796    magn:    0.5442    constr:    0.0000
     atom:    9    charge:    5.9879    magn:    0.4776    constr:    0.0000
     atom:   10    charge:    5.9923    magn:    0.6111    constr:    0.0000
     atom:   11    charge:    5.9950    magn:    0.5805    constr:    0.0000
     atom:   12    charge:    5.9950    magn:    0.6248    constr:    0.0000
     atom:   13    charge:    0.6389    magn:   -0.0028    constr:    0.0000
     atom:   14    charge:    0.3404    magn:    0.0077    constr:    0.0000
     atom:   15    charge:    0.3696    magn:    0.0063    constr:    0.0000
     atom:   16    charge:    0.3697    magn:    0.0061    constr:    0.0000

     total cpu time spent up to now is      561.0 secs

     total energy              =   -2560.22611691 Ry
     Harris-Foulkes estimate   =   -2560.27215405 Ry
     estimated scf accuracy    <       2.06262239 Ry

     total magnetization       =    11.79 Bohr mag/cell
     absolute magnetization    =    12.08 Bohr mag/cell

     iteration # 19     ecut=    36.75 Ry     beta=0.30
     Davidson diagonalization with overlap
     ethr =  5.70E-04,  avg # of iterations =  1.0

     negative rho (up, down):  1.013E-03 8.375E-04
 
     Adding external electric field

     Computed dipole along edir(3) : 
        Dipole               -0.3740 Ry au,         -0.9506 Debye
        Dipole field         -0.0013 Ry au
 
        Potential amp.        0.1119 Ry
        Total length         44.5928 bohr
 
 
     Adding external electric field

     Computed dipole along edir(3) : 
        Dipole               -0.3740 Ry au,         -0.9506 Debye
        Dipole field         -0.0013 Ry au
 
        Potential amp.        0.1119 Ry
        Total length         44.5928 bohr
 
 
     Magnetic moment per site:
     atom:    1    charge:    5.9847    magn:    0.2627    constr:    0.0000
     atom:    2    charge:    5.9825    magn:    0.2784    constr:    0.0000
     atom:    3    charge:    5.9808    magn:    0.2665    constr:    0.0000
     atom:    4    charge:    5.9892    magn:    0.1753    constr:    0.0000
     atom:    5    charge:    5.9754    magn:    0.5356    constr:    0.0000
     atom:    6    charge:    5.9742    magn:    0.5987    constr:    0.0000
     atom:    7    charge:    5.9748    magn:    0.5304    constr:    0.0000
     atom:    8    charge:    5.9737    magn:    0.5378    constr:    0.0000
     atom:    9    charge:    5.9882    magn:    0.4738    constr:    0.0000
     atom:   10    charge:    5.9951    magn:    0.5888    constr:    0.0000
     atom:   11    charge:    5.9892    magn:    0.5714    constr:    0.0000
     atom:   12    charge:    5.9918    magn:    0.6002    constr:    0.0000
     atom:   13    charge:    0.6409    magn:   -0.0030    constr:    0.0000
     atom:   14    charge:    0.3369    magn:    0.0068    constr:    0.0000
     atom:   15    charge:    0.3661    magn:    0.0056    constr:    0.0000
     atom:   16    charge:    0.3662    magn:    0.0055    constr:    0.0000

     total cpu time spent up to now is      582.8 secs

     total energy              =   -2560.19405580 Ry
     Harris-Foulkes estimate   =   -2560.24164201 Ry
     estimated scf accuracy    <       0.84237020 Ry

     total magnetization       =    11.79 Bohr mag/cell
     absolute magnetization    =    12.06 Bohr mag/cell

     iteration # 20     ecut=    36.75 Ry     beta=0.30
     Davidson diagonalization with overlap
     ethr =  4.50E-04,  avg # of iterations =  4.8

     negative rho (up, down):  8.316E-04 7.780E-04
 
     Adding external electric field

     Computed dipole along edir(3) : 
        Dipole               -0.1303 Ry au,         -0.3313 Debye
        Dipole field         -0.0004 Ry au
 
        Potential amp.        0.0390 Ry
        Total length         44.5928 bohr
 
 
     Adding external electric field

     Computed dipole along edir(3) : 
        Dipole               -0.1303 Ry au,         -0.3313 Debye
        Dipole field         -0.0004 Ry au
 
        Potential amp.        0.0390 Ry
        Total length         44.5928 bohr
 
 
     Magnetic moment per site:
     atom:    1    charge:    5.9914    magn:    0.2452    constr:    0.0000
     atom:    2    charge:    5.9899    magn:    0.2671    constr:    0.0000
     atom:    3    charge:    5.9898    magn:    0.2508    constr:    0.0000
     atom:    4    charge:    5.9887    magn:    0.1524    constr:    0.0000
     atom:    5    charge:    5.9794    magn:    0.5062    constr:    0.0000
     atom:    6    charge:    5.9775    magn:    0.5766    constr:    0.0000
     atom:    7    charge:    5.9773    magn:    0.4974    constr:    0.0000
     atom:    8    charge:    5.9815    magn:    0.5102    constr:    0.0000
     atom:    9    charge:    5.9835    magn:    0.4616    constr:    0.0000
     atom:   10    charge:    5.9937    magn:    0.5959    constr:    0.0000
     atom:   11    charge:    5.9958    magn:    0.5709    constr:    0.0000
     atom:   12    charge:    5.9926    magn:    0.6125    constr:    0.0000
     atom:   13    charge:    0.6387    magn:   -0.0031    constr:    0.0000
     atom:   14    charge:    0.3413    magn:    0.0076    constr:    0.0000
     atom:   15    charge:    0.3704    magn:    0.0062    constr:    0.0000
     atom:   16    charge:    0.3705    magn:    0.0061    constr:    0.0000

     total cpu time spent up to now is      609.8 secs

     total energy              =   -2560.21695755 Ry
     Harris-Foulkes estimate   =   -2560.25508697 Ry
     estimated scf accuracy    <       1.25220431 Ry

     total magnetization       =    11.77 Bohr mag/cell
     absolute magnetization    =    12.03 Bohr mag/cell

     iteration # 21     ecut=    36.75 Ry     beta=0.30
     Davidson diagonalization with overlap
     ethr =  4.50E-04,  avg # of iterations =  1.4

     negative rho (up, down):  8.248E-04 7.441E-04
 
     Adding external electric field

     Computed dipole along edir(3) : 
        Dipole               -0.0544 Ry au,         -0.1383 Debye
        Dipole field         -0.0002 Ry au
 
        Potential amp.        0.0163 Ry
        Total length         44.5928 bohr
 
 
     Adding external electric field

     Computed dipole along edir(3) : 
        Dipole               -0.0544 Ry au,         -0.1383 Debye
        Dipole field         -0.0002 Ry au
 
        Potential amp.        0.0163 Ry
        Total length         44.5928 bohr
 
 
     Magnetic moment per site:
     atom:    1    charge:    5.9832    magn:    0.2293    constr:    0.0000
     atom:    2    charge:    5.9851    magn:    0.2512    constr:    0.0000
     atom:    3    charge:    5.9856    magn:    0.2373    constr:    0.0000
     atom:    4    charge:    5.9844    magn:    0.1253    constr:    0.0000
     atom:    5    charge:    5.9800    magn:    0.4890    constr:    0.0000
     atom:    6    charge:    5.9783    magn:    0.5611    constr:    0.0000
     atom:    7    charge:    5.9814    magn:    0.4796    constr:    0.0000
     atom:    8    charge:    5.9790    magn:    0.4944    constr:    0.0000
     atom:    9    charge:    5.9845    magn:    0.4542    constr:    0.0000
     atom:   10    charge:    5.9916    magn:    0.5964    constr:    0.0000
     atom:   11    charge:    5.9921    magn:    0.5712    constr:    0.0000
     atom:   12    charge:    5.9943    magn:    0.6147    constr:    0.0000
     atom:   13    charge:    0.6372    magn:   -0.0032    constr:    0.0000
     atom:   14    charge:    0.3433    magn:    0.0079    constr:    0.0000
     atom:   15    charge:    0.3726    magn:    0.0065    constr:    0.0000
     atom:   16    charge:    0.3727    magn:    0.0064    constr:    0.0000

     total cpu time spent up to now is      632.1 secs

     total energy              =   -2560.23063868 Ry
     Harris-Foulkes estimate   =   -2560.24445261 Ry
     estimated scf accuracy    <       0.38575442 Ry

     total magnetization       =    11.50 Bohr mag/cell
     absolute magnetization    =    11.77 Bohr mag/cell

     iteration # 22     ecut=    36.75 Ry     beta=0.30
     Davidson diagonalization with overlap
     ethr =  2.06E-04,  avg # of iterations =  2.1

     negative rho (up, down):  8.250E-04 7.383E-04
 
     Adding external electric field

     Computed dipole along edir(3) : 
        Dipole               -0.0110 Ry au,         -0.0279 Debye
        Dipole field         -0.0000 Ry au
 
        Potential amp.        0.0033 Ry
        Total length         44.5928 bohr
 
 
     Adding external electric field

     Computed dipole along edir(3) : 
        Dipole               -0.0110 Ry au,         -0.0279 Debye
        Dipole field         -0.0000 Ry au
 
        Potential amp.        0.0033 Ry
        Total length         44.5928 bohr
 
 
     Magnetic moment per site:
     atom:    1    charge:    5.9843    magn:    0.2205    constr:    0.0000
     atom:    2    charge:    5.9829    magn:    0.2451    constr:    0.0000
     atom:    3    charge:    5.9842    magn:    0.2316    constr:    0.0000
     atom:    4    charge:    5.9842    magn:    0.1115    constr:    0.0000
     atom:    5    charge:    5.9798    magn:    0.4776    constr:    0.0000
     atom:    6    charge:    5.9820    magn:    0.5510    constr:    0.0000
     atom:    7    charge:    5.9792    magn:    0.4679    constr:    0.0000
     atom:    8    charge:    5.9804    magn:    0.4836    constr:    0.0000
     atom:    9    charge:    5.9852    magn:    0.4501    constr:    0.0000
     atom:   10    charge:    5.9923    magn:    0.5983    constr:    0.0000
     atom:   11    charge:    5.9929    magn:    0.5735    constr:    0.0000
     atom:   12    charge:    5.9917    magn:    0.6176    constr:    0.0000
     atom:   13    charge:    0.6364    magn:   -0.0033    constr:    0.0000
     atom:   14    charge:    0.3443    magn:    0.0081    constr:    0.0000
     atom:   15    charge:    0.3737    magn:    0.0066    constr:    0.0000
     atom:   16    charge:    0.3738    magn:    0.0065    constr:    0.0000

     total cpu time spent up to now is      656.8 secs

     total energy              =   -2560.23739761 Ry
     Harris-Foulkes estimate   =   -2560.24066822 Ry
     estimated scf accuracy    <       0.14906692 Ry

     total magnetization       =    11.39 Bohr mag/cell
     absolute magnetization    =    11.65 Bohr mag/cell

     iteration # 23     ecut=    36.75 Ry     beta=0.30
     Davidson diagonalization with overlap
     ethr =  7.97E-05,  avg # of iterations =  5.1

     negative rho (up, down):  8.235E-04 7.368E-04
 
     Adding external electric field

     Computed dipole along edir(3) : 
        Dipole                0.0328 Ry au,          0.0835 Debye
        Dipole field          0.0001 Ry au
 
        Potential amp.       -0.0098 Ry
        Total length         44.5928 bohr
 
 
     Adding external electric field

     Computed dipole along edir(3) : 
        Dipole                0.0328 Ry au,          0.0835 Debye
        Dipole field          0.0001 Ry au
 
        Potential amp.       -0.0098 Ry
        Total length         44.5928 bohr
 
 
     Magnetic moment per site:
     atom:    1    charge:    5.9836    magn:    0.2117    constr:    0.0000
     atom:    2    charge:    5.9866    magn:    0.2380    constr:    0.0000
     atom:    3    charge:    5.9835    magn:    0.2248    constr:    0.0000
     atom:    4    charge:    5.9828    magn:    0.0956    constr:    0.0000
     atom:    5    charge:    5.9809    magn:    0.4625    constr:    0.0000
     atom:    6    charge:    5.9813    magn:    0.5375    constr:    0.0000
     atom:    7    charge:    5.9804    magn:    0.4521    constr:    0.0000
     atom:    8    charge:    5.9804    magn:    0.4691    constr:    0.0000
     atom:    9    charge:    5.9869    magn:    0.4469    constr:    0.0000
     atom:   10    charge:    5.9922    magn:    0.6043    constr:    0.0000
     atom:   11    charge:    5.9931    magn:    0.5803    constr:    0.0000
     atom:   12    charge:    5.9914    magn:    0.6245    constr:    0.0000
     atom:   13    charge:    0.6357    magn:   -0.0033    constr:    0.0000
     atom:   14    charge:    0.3454    magn:    0.0083    constr:    0.0000
     atom:   15    charge:    0.3748    magn:    0.0068    constr:    0.0000
     atom:   16    charge:    0.3749    magn:    0.0067    constr:    0.0000

     total cpu time spent up to now is      685.2 secs

     total energy              =   -2560.24202984 Ry
     Harris-Foulkes estimate   =   -2560.24303859 Ry
     estimated scf accuracy    <       0.12621572 Ry

     total magnetization       =    11.31 Bohr mag/cell
     absolute magnetization    =    11.57 Bohr mag/cell

     iteration # 24     ecut=    36.75 Ry     beta=0.30
     Davidson diagonalization with overlap
     ethr =  6.75E-05,  avg # of iterations =  2.3

     negative rho (up, down):  8.250E-04 7.427E-04
 
     Adding external electric field

     Computed dipole along edir(3) : 
        Dipole                0.0429 Ry au,          0.1090 Debye
        Dipole field          0.0001 Ry au
 
        Potential amp.       -0.0128 Ry
        Total length         44.5928 bohr
 
 
     Adding external electric field

     Computed dipole along edir(3) : 
        Dipole                0.0429 Ry au,          0.1090 Debye
        Dipole field          0.0001 Ry au
 
        Potential amp.       -0.0128 Ry
        Total length         44.5928 bohr
 
 
     Magnetic moment per site:
     atom:    1    charge:    5.9839    magn:    0.2046    constr:    0.0000
     atom:    2    charge:    5.9840    magn:    0.2339    constr:    0.0000
     atom:    3    charge:    5.9838    magn:    0.2196    constr:    0.0000
     atom:    4    charge:    5.9844    magn:    0.0796    constr:    0.0000
     atom:    5    charge:    5.9814    magn:    0.4482    constr:    0.0000
     atom:    6    charge:    5.9812    magn:    0.5235    constr:    0.0000
     atom:    7    charge:    5.9808    magn:    0.4379    constr:    0.0000
     atom:    8    charge:    5.9813    magn:    0.4544    constr:    0.0000
     atom:    9    charge:    5.9859    magn:    0.4463    constr:    0.0000
     atom:   10    charge:    5.9926    magn:    0.6128    constr:    0.0000
     atom:   11    charge:    5.9933    magn:    0.5903    constr:    0.0000
     atom:   12    charge:    5.9930    magn:    0.6329    constr:    0.0000
     atom:   13    charge:    0.6354    magn:   -0.0033    constr:    0.0000
     atom:   14    charge:    0.3456    magn:    0.0085    constr:    0.0000
     atom:   15    charge:    0.3750    magn:    0.0069    constr:    0.0000
     atom:   16    charge:    0.3751    magn:    0.0068    constr:    0.0000

     total cpu time spent up to now is      710.1 secs

     total energy              =   -2560.24417545 Ry
     Harris-Foulkes estimate   =   -2560.24526623 Ry
     estimated scf accuracy    <       0.05505088 Ry

     total magnetization       =    11.18 Bohr mag/cell
     absolute magnetization    =    11.48 Bohr mag/cell

     iteration # 25     ecut=    36.75 Ry     beta=0.30
     Davidson diagonalization with overlap
     c_bands:  1 eigenvalues not converged
     ethr =  2.94E-05,  avg # of iterations =  8.3

     negative rho (up, down):  8.458E-04 7.580E-04
 
     Adding external electric field

     Computed dipole along edir(3) : 
        Dipole                0.0761 Ry au,          0.1934 Debye
        Dipole field          0.0003 Ry au
 
        Potential amp.       -0.0228 Ry
        Total length         44.5928 bohr
 
 
     Adding external electric field

     Computed dipole along edir(3) : 
        Dipole                0.0761 Ry au,          0.1934 Debye
        Dipole field          0.0003 Ry au
 
        Potential amp.       -0.0228 Ry
        Total length         44.5928 bohr
 
 
     Magnetic moment per site:
     atom:    1    charge:    5.9837    magn:    0.1972    constr:    0.0000
     atom:    2    charge:    5.9832    magn:    0.2288    constr:    0.0000
     atom:    3    charge:    5.9865    magn:    0.2133    constr:    0.0000
     atom:    4    charge:    5.9815    magn:    0.0640    constr:    0.0000
     atom:    5    charge:    5.9801    magn:    0.4334    constr:    0.0000
     atom:    6    charge:    5.9820    magn:    0.5104    constr:    0.0000
     atom:    7    charge:    5.9802    magn:    0.4227    constr:    0.0000
     atom:    8    charge:    5.9807    magn:    0.4399    constr:    0.0000
     atom:    9    charge:    5.9868    magn:    0.4444    constr:    0.0000
     atom:   10    charge:    5.9935    magn:    0.6207    constr:    0.0000
     atom:   11    charge:    5.9921    magn:    0.5978    constr:    0.0000
     atom:   12    charge:    5.9931    magn:    0.6415    constr:    0.0000
     atom:   13    charge:    0.6351    magn:   -0.0032    constr:    0.0000
     atom:   14    charge:    0.3462    magn:    0.0088    constr:    0.0000
     atom:   15    charge:    0.3757    magn:    0.0071    constr:    0.0000
     atom:   16    charge:    0.3758    magn:    0.0070    constr:    0.0000

     total cpu time spent up to now is      742.6 secs

     total energy              =   -2560.24912861 Ry
     Harris-Foulkes estimate   =   -2560.24856357 Ry
     estimated scf accuracy    <       0.04224143 Ry

     total magnetization       =    11.08 Bohr mag/cell
     absolute magnetization    =    11.42 Bohr mag/cell

     iteration # 26     ecut=    36.75 Ry     beta=0.30
     Davidson diagonalization with overlap
     ethr =  2.26E-05,  avg # of iterations =  4.0

     negative rho (up, down):  8.796E-04 7.829E-04
 
     Adding external electric field

     Computed dipole along edir(3) : 
        Dipole                0.0979 Ry au,          0.2489 Debye
        Dipole field          0.0003 Ry au
 
        Potential amp.       -0.0293 Ry
        Total length         44.5928 bohr
 
 
     Adding external electric field

     Computed dipole along edir(3) : 
        Dipole                0.0979 Ry au,          0.2489 Debye
        Dipole field          0.0003 Ry au
 
        Potential amp.       -0.0293 Ry
        Total length         44.5928 bohr
 
 
     Magnetic moment per site:
     atom:    1    charge:    5.9839    magn:    0.1935    constr:    0.0000
     atom:    2    charge:    5.9842    magn:    0.2259    constr:    0.0000
     atom:    3    charge:    5.9836    magn:    0.2113    constr:    0.0000
     atom:    4    charge:    5.9837    magn:    0.0556    constr:    0.0000
     atom:    5    charge:    5.9807    magn:    0.4263    constr:    0.0000
     atom:    6    charge:    5.9822    magn:    0.5045    constr:    0.0000
     atom:    7    charge:    5.9806    magn:    0.4155    constr:    0.0000
     atom:    8    charge:    5.9805    magn:    0.4330    constr:    0.0000
     atom:    9    charge:    5.9859    magn:    0.4433    constr:    0.0000
     atom:   10    charge:    5.9935    magn:    0.6236    constr:    0.0000
     atom:   11    charge:    5.9924    magn:    0.6004    constr:    0.0000
     atom:   12    charge:    5.9934    magn:    0.6448    constr:    0.0000
     atom:   13    charge:    0.6350    magn:   -0.0032    constr:    0.0000
     atom:   14    charge:    0.3465    magn:    0.0089    constr:    0.0000
     atom:   15    charge:    0.3760    magn:    0.0072    constr:    0.0000
     atom:   16    charge:    0.3761    magn:    0.0071    constr:    0.0000

     total cpu time spent up to now is      770.0 secs

     total energy              =   -2560.24966866 Ry
     Harris-Foulkes estimate   =   -2560.25140359 Ry
     estimated scf accuracy    <       0.08099563 Ry

     total magnetization       =    10.99 Bohr mag/cell
     absolute magnetization    =    11.49 Bohr mag/cell

     iteration # 27     ecut=    36.75 Ry     beta=0.30
     Davidson diagonalization with overlap
     ethr =  2.26E-05,  avg # of iterations =  1.0

     negative rho (up, down):  1.684E-03 1.546E-03
 
     Adding external electric field

     Computed dipole along edir(3) : 
        Dipole                0.1921 Ry au,          0.4882 Debye
        Dipole field          0.0006 Ry au
 
        Potential amp.       -0.0574 Ry
        Total length         44.5928 bohr
 
 
     Adding external electric field

     Computed dipole along edir(3) : 
        Dipole                0.1921 Ry au,          0.4882 Debye
        Dipole field          0.0006 Ry au
 
        Potential amp.       -0.0574 Ry
        Total length         44.5928 bohr
 
 
     Magnetic moment per site:
     atom:    1    charge:    5.9826    magn:    0.1722    constr:    0.0000
     atom:    2    charge:    5.9854    magn:    0.2128    constr:    0.0000
     atom:    3    charge:    5.9837    magn:    0.1932    constr:    0.0000
     atom:    4    charge:    5.9843    magn:   -0.0028    constr:    0.0000
     atom:    5    charge:    5.9790    magn:    0.3687    constr:    0.0000
     atom:    6    charge:    5.9816    magn:    0.4569    constr:    0.0000
     atom:    7    charge:    5.9770    magn:    0.3570    constr:    0.0000
     atom:    8    charge:    5.9819    magn:    0.3759    constr:    0.0000
     atom:    9    charge:    5.9844    magn:    0.4364    constr:    0.0000
     atom:   10    charge:    5.9949    magn:    0.6517    constr:    0.0000
     atom:   11    charge:    5.9928    magn:    0.6265    constr:    0.0000
     atom:   12    charge:    5.9957    magn:    0.6750    constr:    0.0000
     atom:   13    charge:    0.6347    magn:   -0.0031    constr:    0.0000
     atom:   14    charge:    0.3475    magn:    0.0097    constr:    0.0000
     atom:   15    charge:    0.3771    magn:    0.0078    constr:    0.0000
     atom:   16    charge:    0.3772    magn:    0.0078    constr:    0.0000

     total cpu time spent up to now is      792.3 secs

     total energy              =   -2560.25365175 Ry
     Harris-Foulkes estimate   =   -2560.25094632 Ry
     estimated scf accuracy    <       0.02692699 Ry

     total magnetization       =    10.92 Bohr mag/cell
     absolute magnetization    =    11.37 Bohr mag/cell

     iteration # 28     ecut=    36.75 Ry     beta=0.30
     Davidson diagonalization with overlap
     ethr =  1.44E-05,  avg # of iterations =  7.6

     negative rho (up, down):  1.873E-03 1.722E-03
 
     Adding external electric field

     Computed dipole along edir(3) : 
        Dipole                0.1967 Ry au,          0.5001 Debye
        Dipole field          0.0007 Ry au
 
        Potential amp.       -0.0588 Ry
        Total length         44.5928 bohr
 
 
     Adding external electric field

     Computed dipole along edir(3) : 
        Dipole                0.1967 Ry au,          0.5001 Debye
        Dipole field          0.0007 Ry au
 
        Potential amp.       -0.0588 Ry
        Total length         44.5928 bohr
 
 
     Magnetic moment per site:
     atom:    1    charge:    5.9843    magn:    0.1701    constr:    0.0000
     atom:    2    charge:    5.9845    magn:    0.2108    constr:    0.0000
     atom:    3    charge:    5.9840    magn:    0.1919    constr:    0.0000
     atom:    4    charge:    5.9841    magn:   -0.0065    constr:    0.0000
     atom:    5    charge:    5.9802    magn:    0.3671    constr:    0.0000
     atom:    6    charge:    5.9816    magn:    0.4550    constr:    0.0000
     atom:    7    charge:    5.9790    magn:    0.3558    constr:    0.0000
     atom:    8    charge:    5.9807    magn:    0.3741    constr:    0.0000
     atom:    9    charge:    5.9865    magn:    0.4360    constr:    0.0000
     atom:   10    charge:    5.9936    magn:    0.6518    constr:    0.0000
     atom:   11    charge:    5.9922    magn:    0.6262    constr:    0.0000
     atom:   12    charge:    5.9947    magn:    0.6748    constr:    0.0000
     atom:   13    charge:    0.6345    magn:   -0.0031    constr:    0.0000
     atom:   14    charge:    0.3478    magn:    0.0097    constr:    0.0000
     atom:   15    charge:    0.3774    magn:    0.0078    constr:    0.0000
     atom:   16    charge:    0.3775    magn:    0.0078    constr:    0.0000

     total cpu time spent up to now is      824.8 secs

     total energy              =   -2560.25609999 Ry
     Harris-Foulkes estimate   =   -2560.26027208 Ry
     estimated scf accuracy    <       0.09285791 Ry

     total magnetization       =    10.51 Bohr mag/cell
     absolute magnetization    =    11.35 Bohr mag/cell

     iteration # 29     ecut=    36.75 Ry     beta=0.30
     Davidson diagonalization with overlap
     ethr =  1.44E-05,  avg # of iterations =  1.4

     negative rho (up, down):  1.717E-03 1.555E-03
 
     Adding external electric field

     Computed dipole along edir(3) : 
        Dipole                0.1829 Ry au,          0.4648 Debye
        Dipole field          0.0006 Ry au
 
[...]
    -1.2393  -1.0897  -0.8955  -0.6629  -0.6343  -0.5966  -0.4898  -0.3576
    -0.3468  -0.2157  -0.0451  -0.0289   0.2021   0.2497   0.3691   0.4254
     0.5353   0.5678   0.7535   0.8004   0.9712   1.1534   1.2859   1.3006
     1.4264   1.4517   1.5756   1.6741   1.7035   1.7225   1.8691   2.0450
     2.1182   2.2577   2.3115   2.3447   2.4238   2.5234   2.6165

          k = 0.0648 0.0000 0.0000 ( 14095 PWs)   bands (ev):

   -79.5262 -78.9950 -78.7322 -78.7025 -78.6880 -76.4083 -76.3590 -76.3362
   -76.3248 -76.1131 -76.0793 -76.0707 -48.2362 -48.2298 -48.2271 -47.8132
   -47.7261 -47.7029 -47.6063 -47.5267 -47.5061 -47.4276 -47.4171 -47.3716
   -47.3380 -47.2522 -47.2081 -45.3447 -45.3194 -45.3004 -45.1324 -45.1004
   -45.0756 -45.0708 -45.0627 -45.0594 -45.0554 -45.0522 -45.0324 -44.9797
   -44.9757 -44.9395 -44.8434 -44.8340 -44.8154 -44.8081 -44.7830 -44.7396
   -10.8584  -5.2244  -4.0254  -3.8894  -3.2938  -2.7630  -2.7260  -2.3990
    -2.3674  -2.3355  -2.2907  -2.0986  -1.8148  -1.7617  -1.5762  -1.3207
    -1.1913  -1.1105  -0.8860  -0.6946  -0.6225  -0.5068  -0.4419  -0.3250
    -0.1801  -0.1189   0.0031   0.0482   0.1339   0.1947   0.3594   0.4306
     0.4917   0.5835   0.7409   0.8366   1.0935   1.1778   1.2149   1.3729
     1.4708   1.5879   1.7212   1.7518   1.8909   1.9117   1.9739   2.0257
     2.1064   2.1733   2.3008   2.3457   2.4165   2.4877   2.6976

          k = 0.0648 0.0374 0.0000 ( 14106 PWs)   bands (ev):

   -79.5262 -78.9947 -78.7325 -78.6976 -78.6929 -76.4060 -76.3615 -76.3316
   -76.3292 -76.1108 -76.0818 -76.0705 -48.2361 -48.2300 -48.2256 -47.8129
   -47.7224 -47.6871 -47.6017 -47.5202 -47.5144 -47.4463 -47.4016 -47.3775
   -47.3353 -47.2641 -47.2140 -45.3325 -45.3156 -45.2740 -45.1311 -45.1120
   -45.0969 -45.0757 -45.0600 -45.0572 -45.0528 -45.0477 -45.0401 -44.9834
   -44.9610 -44.9328 -44.8414 -44.8397 -44.8189 -44.8108 -44.8080 -44.7360
   -10.8528  -5.0162  -4.0645  -3.8848  -3.1788  -3.1070  -2.4267  -2.3432
    -2.2691  -2.2114  -2.1520  -2.1043  -1.7992  -1.6810  -1.5600  -1.2773
    -1.2336  -1.0878  -0.9061  -0.6623  -0.6360  -0.5982  -0.4949  -0.3640
    -0.3286  -0.2120  -0.0476  -0.0351   0.2006   0.2536   0.3656   0.4283
     0.5347   0.5696   0.7477   0.8038   0.9710   1.1522   1.2835   1.3040
     1.4283   1.4517   1.5760   1.6630   1.7050   1.7161   1.8824   2.0430
     2.1243   2.2419   2.3110   2.3411   2.4241   2.5215   2.6223

          k = 0.0648-0.1496 0.0000 ( 14076 PWs)   bands (ev):

   -79.5261 -78.9942 -78.7292 -78.7021 -78.6923 -76.4016 -76.3617 -76.3390
   -76.3261 -76.1046 -76.0881 -76.0705 -48.2359 -48.2285 -48.2245 -47.8123
   -47.7040 -47.6664 -47.5861 -47.5335 -47.5105 -47.4577 -47.4032 -47.3696
   -47.3400 -47.2920 -47.2239 -45.3064 -45.2711 -45.2339 -45.1862 -45.1293
   -45.0892 -45.0819 -45.0753 -45.0641 -45.0521 -45.0413 -45.0175 -45.0021
   -44.9535 -44.8922 -44.8905 -44.8362 -44.8305 -44.8218 -44.8081 -44.7507
   -10.8414  -4.4333  -4.0712  -3.9418  -3.4210  -2.7197  -2.6389  -2.3529
    -2.1981  -1.9987  -1.8544  -1.7131  -1.6264  -1.5569  -1.4683  -1.3339
    -1.1988  -1.1294  -0.9265  -0.8885  -0.8032  -0.7440  -0.6038  -0.5365
    -0.4560  -0.3156  -0.1142  -0.0830   0.1394   0.2525   0.3839   0.5301
     0.5815   0.6117   0.7375   0.7809   0.8814   0.9668   1.0592   1.2268
     1.2548   1.3339   1.3844   1.4363   1.5651   1.5981   1.7725   1.9746
     2.1127   2.1317   2.2519   2.3283   2.4186   2.4657   2.5916

          k = 0.0648-0.1122 0.0000 ( 14088 PWs)   bands (ev):

   -79.5261 -78.9940 -78.7235 -78.7115 -78.6889 -76.3998 -76.3561 -76.3491
   -76.3234 -76.0965 -76.0960 -76.0707 -48.2358 -48.2262 -48.2254 -47.8121
   -47.6773 -47.6765 -47.5650 -47.5542 -47.5056 -47.4524 -47.3983 -47.3917
   -47.3219 -47.3167 -47.2287 -45.2611 -45.2590 -45.2067 -45.1978 -45.1970
   -45.0825 -45.0784 -45.0727 -45.0542 -45.0514 -45.0486 -45.0246 -44.9653
   -44.9647 -44.9459 -44.8462 -44.8458 -44.8293 -44.8289 -44.8083 -44.7689
   -10.8357  -4.0627  -4.0492  -3.5208  -3.5104  -3.4926  -2.3369  -2.3227
    -2.2757  -1.7395  -1.6023  -1.5534  -1.4615  -1.4264  -1.3827  -1.2900
    -1.2770  -1.2182  -1.1610  -1.1077  -0.8269  -0.6968  -0.6875  -0.6733
    -0.5764  -0.4201  -0.0548  -0.0376  -0.0082   0.2818   0.3740   0.4309
     0.4857   0.5720   0.7275   0.8103   0.8292   1.0130   1.0905   1.1954
     1.2363   1.2861   1.3486   1.4154   1.4683   1.5500   1.6428   1.8124
     2.0021   2.0952   2.2512   2.2608   2.4010   2.4259   2.6220

          k = 0.0648-0.0748 0.0000 ( 14076 PWs)   bands (ev):

   -79.5261 -78.9943 -78.7226 -78.7143 -78.6867 -76.4022 -76.3562 -76.3468
   -76.3232 -76.1049 -76.0874 -76.0708 -48.2359 -48.2277 -48.2252 -47.8124
   -47.7055 -47.6675 -47.5792 -47.5473 -47.5038 -47.4477 -47.3963 -47.3699
   -47.3514 -47.3044 -47.2141 -45.3093 -45.2693 -45.2327 -45.1835 -45.1299
   -45.0905 -45.0829 -45.0712 -45.0672 -45.0521 -45.0448 -45.0182 -44.9996
   -44.9536 -44.8915 -44.8896 -44.8365 -44.8305 -44.8214 -44.8083 -44.7514
   -10.8414  -4.4335  -4.0708  -3.9422  -3.4215  -2.7193  -2.6385  -2.3529
    -2.1982  -1.9970  -1.8549  -1.7148  -1.6300  -1.5571  -1.4682  -1.3328
    -1.2023  -1.1355  -0.9221  -0.8838  -0.8035  -0.7375  -0.6029  -0.5330
    -0.4538  -0.3347  -0.1062  -0.0769   0.1319   0.2507   0.3920   0.5371
     0.5769   0.6144   0.7353   0.7811   0.8805   0.9692   1.0610   1.2236
     1.2483   1.3302   1.3962   1.4344   1.5631   1.5887   1.7782   1.9766
     2.1099   2.1424   2.2497   2.3381   2.4139   2.4663   2.5916

          k =-0.0971 0.0561 0.0000 ( 14098 PWs)   bands (ev):

   -79.5261 -78.9943 -78.7194 -78.7179 -78.6862 -76.4020 -76.3580 -76.3446
   -76.3238 -76.1050 -76.0873 -76.0709 -48.2358 -48.2287 -48.2244 -47.8124
   -47.7135 -47.6552 -47.5834 -47.5458 -47.5040 -47.4578 -47.3739 -47.3634
   -47.3538 -47.3292 -47.2073 -45.3149 -45.2810 -45.2036 -45.1606 -45.1383
   -45.1269 -45.0879 -45.0772 -45.0632 -45.0533 -45.0335 -45.0323 -44.9926
   -44.9098 -44.8910 -44.8827 -44.8790 -44.8365 -44.8217 -44.8083 -44.7400
   -10.8413  -4.2369  -4.0402  -3.9774  -3.8977  -2.6203  -2.5171  -2.1493
    -2.0433  -1.9604  -1.9494  -1.7783  -1.7249  -1.5669  -1.5152  -1.2702
    -1.1904  -1.1280  -0.9712  -0.8423  -0.8079  -0.8060  -0.7048  -0.4624
    -0.4303  -0.3670  -0.1382  -0.1023   0.1723   0.3414   0.4693   0.6081
     0.6141   0.7170   0.7496   0.7902   0.8372   0.9395   1.0175   1.1183
     1.1581   1.2675   1.3852   1.4397   1.4887   1.5053   1.7545   2.1017
     2.1532   2.1919   2.3245   2.3409   2.4225   2.4911   2.5741

          k =-0.0971 0.0935 0.0000 ( 14076 PWs)   bands (ev):

   -79.5261 -78.9942 -78.7243 -78.7119 -78.6873 -76.4021 -76.3573 -76.3454
   -76.3236 -76.1048 -76.0876 -76.0708 -48.2359 -48.2279 -48.2250 -47.8124
   -47.7054 -47.6670 -47.5805 -47.5454 -47.5046 -47.4488 -47.4010 -47.3663
   -47.3486 -47.3042 -47.2153 -45.3089 -45.2692 -45.2326 -45.1856 -45.1284
   -45.0904 -45.0822 -45.0716 -45.0673 -45.0524 -45.0446 -45.0182 -44.9996
   -44.9533 -44.8923 -44.8895 -44.8364 -44.8302 -44.8215 -44.8082 -44.7514
   -10.8414  -4.4341  -4.0727  -3.9393  -3.4216  -2.7192  -2.6383  -2.3538
    -2.1980  -1.9970  -1.8552  -1.7154  -1.6293  -1.5559  -1.4680  -1.3341
    -1.2019  -1.1325  -0.9236  -0.8857  -0.8048  -0.7364  -0.6004  -0.5333
    -0.4575  -0.3321  -0.1053  -0.0793   0.1337   0.2509   0.3882   0.5341
     0.5795   0.6152   0.7318   0.7846   0.8832   0.9676   1.0596   1.2252
     1.2496   1.3322   1.3917   1.4350   1.5662   1.5901   1.7783   1.9762
     2.1108   2.1393   2.2493   2.3334   2.4161   2.4661   2.5915

          k =-0.0971 0.1309 0.0000 ( 14076 PWs)   bands (ev):

   -79.5261 -78.9942 -78.7285 -78.7043 -78.6908 -76.4017 -76.3609 -76.3403
   -76.3254 -76.1046 -76.0880 -76.0706 -48.2359 -48.2284 -48.2245 -47.8123
   -47.7040 -47.6670 -47.5853 -47.5358 -47.5088 -47.4567 -47.3973 -47.3767
   -47.3401 -47.2931 -47.2224 -45.3065 -45.2714 -45.2339 -45.1839 -45.1317
   -45.0898 -45.0813 -45.0745 -45.0650 -45.0518 -45.0412 -45.0175 -45.0020
   -44.9539 -44.8915 -44.8904 -44.8363 -44.8308 -44.8217 -44.8081 -44.7508
   -10.8414  -4.4339  -4.0730  -3.9389  -3.4211  -2.7203  -2.6389  -2.3520
    -2.1981  -1.9985  -1.8544  -1.7125  -1.6270  -1.5580  -1.4686  -1.3320
    -1.1993  -1.1337  -0.9245  -0.8877  -0.8016  -0.7455  -0.6055  -0.5359
    -0.4530  -0.3185  -0.1152  -0.0809   0.1381   0.2513   0.3891   0.5345
     0.5790   0.6104   0.7404   0.7748   0.8810   0.9696   1.0628   1.2279
     1.2501   1.3310   1.3882   1.4357   1.5669   1.5940   1.7722   1.9756
     2.1126   2.1360   2.2516   2.3344   2.4117   2.4665   2.5913

          k =-0.0971-0.0561 0.0000 ( 14098 PWs)   bands (ev):

   -79.5261 -78.9942 -78.7300 -78.6970 -78.6966 -76.4012 -76.3638 -76.3338
   -76.3296 -76.1045 -76.0881 -76.0705 -48.2359 -48.2293 -48.2237 -47.8123
   -47.7114 -47.6543 -47.5915 -47.5253 -47.5154 -47.4693 -47.3836 -47.3742
   -47.3393 -47.3043 -47.2188 -45.3104 -45.2851 -45.2034 -45.1670 -45.1339
   -45.1280 -45.0843 -45.0827 -45.0579 -45.0561 -45.0315 -45.0272 -44.9970
   -44.9096 -44.8918 -44.8838 -44.8788 -44.8362 -44.8223 -44.8080 -44.7392
   -10.8414  -4.2361  -4.0433  -3.9747  -3.8972  -2.6271  -2.5097  -2.1456
    -2.0495  -1.9640  -1.9499  -1.7645  -1.7264  -1.5631  -1.5198  -1.2701
    -1.1853  -1.1244  -0.9714  -0.8493  -0.8166  -0.8131  -0.7087  -0.4669
    -0.4288  -0.3393  -0.1402  -0.1164   0.1708   0.3510   0.4684   0.6004
     0.6111   0.7121   0.7621   0.7813   0.8450   0.9306   1.0160   1.1221
     1.1560   1.2768   1.3807   1.4350   1.4977   1.5111   1.7448   2.0877
     2.1504   2.1986   2.3205   2.3466   2.4229   2.4955   2.5720

     the Fermi energy is     1.4471 ev

!    total energy              =   -2560.50755704 Ry
     Harris-Foulkes estimate   =   -2560.50755702 Ry
     estimated scf accuracy    <       0.00000003 Ry

     The total energy is the sum of the following terms:

     one-electron contribution =  -23095.59594270 Ry
     hartree contribution      =   11547.79154072 Ry
     xc contribution           =    -336.76054103 Ry
     ewald contribution        =    9324.16071469 Ry
     electric field correction =       0.00000448 Ry
     smearing contrib. (-TS)   =      -0.10333320 Ry

     total magnetization       =     7.89 Bohr mag/cell
     absolute magnetization    =    28.62 Bohr mag/cell

     convergence has been achieved in  26 iterations
 
 BEEF-vdW xc energy contributions
           1 :   -293.510230181544     
           2 :    264.999574768015     
           3 :   -217.470606032949     
           4 :    164.978358671762     
           5 :   -119.828827165012     
           6 :    88.3320989901618     
           7 :   -70.0826573458584     
           8 :    60.2431321636565     
           9 :   -53.0900362672601     
          10 :    44.8902258092049     
          11 :   -34.9379146219430     
          12 :    24.7360225275535     
          13 :   -16.2781059500450     
          14 :    10.6336444236288     
          15 :   -7.53571898543044     
          16 :    5.87108070197974     
          17 :   -4.49240967263552     
          18 :    2.79119924788120     
          19 :  -0.803957918590186     
          20 :   -1.05319873216263     
          21 :    2.35766037420763     
          22 :   -2.93227713201912     
          23 :    2.89304581400665     
          24 :   -2.55211493401259     
          25 :    2.26877199633208     
          26 :   -2.30972133069019     
          27 :    2.74540218381094     
          28 :   -3.41955361250967     
          29 :    4.02368920266576     
          30 :   -4.26312347958901     
          31 :   -27.1331430706945     
          32 :   -19.2665379064553     

     Forces acting on atoms (Ry/au):


     negative rho (up, down):  1.810E-03 1.706E-03
     atom    1 type  1   force =     0.00124963    0.00082470    0.00390560
     atom    2 type  1   force =    -0.00144852    0.00073122    0.00394794
     atom    3 type  1   force =    -0.00008183   -0.00154665    0.00391670
     atom    4 type  1   force =     0.00020678    0.00000086   -0.00959723
     atom    5 type  1   force =    -0.00031783   -0.00709939    0.00511357
     atom    6 type  1   force =    -0.00001982   -0.00012801   -0.01774682
     atom    7 type  1   force =     0.00562166    0.00355664    0.00466791
     atom    8 type  1   force =    -0.00649586    0.00367981    0.00582770
     atom    9 type  1   force =     0.00016723   -0.00005718   -0.00028420
     atom   10 type  1   force =    -0.00064641   -0.00017910    0.00008559
     atom   11 type  1   force =     0.00025327    0.00071233    0.00004466
     atom   12 type  1   force =     0.00050796   -0.00048212    0.00002442
     atom   13 type  2   force =     0.00021822    0.00000530   -0.00017545
     atom   14 type  3   force =    -0.00053971    0.00000181   -0.00018850
     atom   15 type  3   force =     0.00064280    0.00023936    0.00023705
     atom   16 type  3   force =     0.00068244   -0.00025959    0.00022105

     Total force =     0.001774     Total SCF correction =     0.000086


     entering subroutine stress ...


     negative rho (up, down):  1.810E-03 1.706E-03
          total   stress  (Ry/bohr**3)                   (kbar)     P=   -9.03
  -0.00008349   0.00000086   0.00000258        -12.28      0.13      0.38
   0.00000086  -0.00008220  -0.00000006          0.13    -12.09     -0.01
   0.00000258  -0.00000006  -0.00001855          0.38     -0.01     -2.73


     bfgs converged in  21 scf cycles and  20 bfgs steps
     (criteria: energy <  1.0E+00, force <  1.9E-03)

     End of BFGS Geometry Optimization

     Final energy   =   -2560.5075570447 Ry
Begin final coordinates

ATOMIC_POSITIONS (crystal)
Mn1      0.166666667   0.166666667   0.413179627    0   0   0
Mn1      0.666666667   0.166666667   0.413179627    0   0   0
Mn1      0.166666667   0.666666667   0.413179627    0   0   0
Mn1      0.666666667   0.666666667   0.413179627    0   0   0
Mn1      0.833333333   0.333333333   0.500000000    0   0   0
Mn1      0.333333333   0.333333333   0.500000000    0   0   0
Mn1      0.833333333   0.833333333   0.500000000    0   0   0
Mn1      0.333333333   0.833333333   0.500000000    0   0   0
Mn1     -0.000548087   0.000039441   0.589273669
Mn1      0.498560493  -0.001020702   0.581143905
Mn1     -0.002380402   0.501154711   0.580988769
Mn1      0.499714579   0.500043570   0.581116039
C1       0.013268406  -0.000120370   0.674128771
H1       0.211347019   0.000073740   0.690834329
H1       0.813638026   0.198383834   0.690397112
H1       0.012203689   0.801438045   0.690442912
End final coordinates



     Writing output data file calc.save
 
     init_run     :     13.45s CPU     13.86s WALL (       1 calls)
     electrons    :  23748.35s CPU  25106.34s WALL (      21 calls)
     update_pot   :     48.91s CPU     52.66s WALL (      20 calls)
     forces       :    413.03s CPU    435.39s WALL (      21 calls)
     stress       :   1345.14s CPU   1404.41s WALL (      21 calls)

     Called by init_run:
     wfcinit      :      7.24s CPU      7.36s WALL (       1 calls)
     potinit      :      1.70s CPU      1.88s WALL (       1 calls)

     Called by electrons:
     c_bands      :  13670.12s CPU  14349.17s WALL (     787 calls)
     sum_band     :   5265.00s CPU   5549.02s WALL (     787 calls)
     v_of_rho     :   1017.36s CPU   1134.94s WALL (     808 calls)
     newd         :   2678.39s CPU   2711.91s WALL (     808 calls)
     mix_rho      :     71.42s CPU     73.37s WALL (     787 calls)
     vdW_energy   :    231.50s CPU    256.71s WALL (    1564 calls)
     vdW_ffts     :    525.50s CPU    551.86s WALL (    3170 calls)
     vdW_v        :    220.11s CPU    227.08s WALL (    1564 calls)

     Called by c_bands:
     init_us_2    :     71.78s CPU     72.28s WALL (   16170 calls)
     cegterg      :  12563.14s CPU  12872.01s WALL (    7870 calls)

     Called by *egterg:
     h_psi        :   6969.57s CPU   7136.62s WALL (   49760 calls)
     s_psi        :    725.44s CPU    727.43s WALL (   49760 calls)
     g_psi        :     44.36s CPU     44.57s WALL (   41880 calls)
     cdiaghg      :   2286.84s CPU   2303.58s WALL (   49550 calls)

     Called by h_psi:
     add_vuspsi   :    754.42s CPU    756.90s WALL (   49760 calls)

     General routines
     calbec       :   1139.91s CPU   1159.14s WALL (   58050 calls)
     fft          :   1096.46s CPU   1225.85s WALL (  114882 calls)
     ffts         :      4.36s CPU      4.75s WALL (    3190 calls)
     fftw         :   4190.06s CPU   4384.92s WALL ( 4829846 calls)
     interpolate  :     38.86s CPU     39.89s WALL (    3190 calls)
     davcio       :      0.00s CPU      0.05s WALL (      10 calls)
 
     Parallel routines
     fft_scatter  :   2835.81s CPU   3130.17s WALL ( 4947918 calls)
 
     PWSCF        :     7h 7m CPU        7h31m WALL

 
   This run was terminated on:   6:58:16   6Jul2018            

=------------------------------------------------------------------------------=
   JOB DONE.
=------------------------------------------------------------------------------=
Job  /afs/slac/g/suncat/bin/suncat-tsmpirun -x LD_LIBRARY_PATH -wdir /scratch/qe287392_iDQfQ pw.x -npool 4 -in pw.inp

TID   HOST_NAME   COMMAND_LINE            STATUS            TERMINATION_TIME
===== ========== ================  =======================  ===================
00000 suncat0087 pw.x -npool 4 -i  Done                     07/06/2018 06:58:16
00001 suncat0087 pw.x -npool 4 -i  Done                     07/06/2018 06:58:16
00002 suncat0087 pw.x -npool 4 -i  Done                     07/06/2018 06:58:16
00003 suncat0087 pw.x -npool 4 -i  Done                     07/06/2018 06:58:16
00004 suncat0087 pw.x -npool 4 -i  Done                     07/06/2018 06:58:16
00005 suncat0087 pw.x -npool 4 -i  Done                     07/06/2018 06:58:16
00006 suncat0087 pw.x -npool 4 -i  Done                     07/06/2018 06:58:16
00007 suncat0087 pw.x -npool 4 -i  Done                     07/06/2018 06:58:16
00008 suncat0086 pw.x -npool 4 -i  Done                     07/06/2018 06:58:16
00009 suncat0086 pw.x -npool 4 -i  Done                     07/06/2018 06:58:16
00010 suncat0086 pw.x -npool 4 -i  Done                     07/06/2018 06:58:16
00011 suncat0086 pw.x -npool 4 -i  Done                     07/06/2018 06:58:16
00012 suncat0086 pw.x -npool 4 -i  Done                     07/06/2018 06:58:16
00013 suncat0086 pw.x -npool 4 -i  Done                     07/06/2018 06:58:16
00014 suncat0086 pw.x -npool 4 -i  Done                     07/06/2018 06:58:16
00015 suncat0086 pw.x -npool 4 -i  Done                     07/06/2018 06:58:16
00016 suncat0031 pw.x -npool 4 -i  Done                     07/06/2018 06:58:16
00017 suncat0031 pw.x -npool 4 -i  Done                     07/06/2018 06:58:16
00018 suncat0031 pw.x -npool 4 -i  Done                     07/06/2018 06:58:16
00019 suncat0031 pw.x -npool 4 -i  Done                     07/06/2018 06:58:16
00020 suncat0031 pw.x -npool 4 -i  Done                     07/06/2018 06:58:16
00021 suncat0031 pw.x -npool 4 -i  Done                     07/06/2018 06:58:16
00022 suncat0031 pw.x -npool 4 -i  Done                     07/06/2018 06:58:16
00023 suncat0031 pw.x -npool 4 -i  Done                     07/06/2018 06:58:16
00024 suncat0028 pw.x -npool 4 -i  Done                     07/06/2018 06:58:16
00025 suncat0028 pw.x -npool 4 -i  Done                     07/06/2018 06:58:16
00026 suncat0028 pw.x -npool 4 -i  Done                     07/06/2018 06:58:16
00027 suncat0028 pw.x -npool 4 -i  Done                     07/06/2018 06:58:16
00028 suncat0028 pw.x -npool 4 -i  Done                     07/06/2018 06:58:16
00029 suncat0028 pw.x -npool 4 -i  Done                     07/06/2018 06:58:16
00030 suncat0028 pw.x -npool 4 -i  Done                     07/06/2018 06:58:16
00031 suncat0028 pw.x -npool 4 -i  Done                     07/06/2018 06:58:16
