  python dir          : /nfs/slac/g/suncatfs/sw/espv20/lib/python2.7/site-packages/espresso
  espresso dir        : /nfs/slac/g/suncatfs/sw/espv18/espresso-dynpy-beef/bin
  pseudo dir          : /afs/slac.stanford.edu/u/if/mamunm/psp/gbrv1.5pbe
  ase-espresso py git : ffa2778-git



     Program PWSCF v.5.1rc2 (svn rev. 11289) starts on 14Jan2018 at  5:22:23 

     This program is part of the open-source Quantum ESPRESSO suite
     for quantum simulation of materials; please cite
         "P. Giannozzi et al., J. Phys.:Condens. Matter 21 395502 (2009);
          URL http://www.quantum-espresso.org", 
     in publications or presentations arising from this work. More details at
     http://www.quantum-espresso.org/quote

     Parallel version (MPI), running on    32 processors
     R & G space division:  proc/nbgrp/npool/nimage =      32
     Reading input from pw.inp
     Message from routine read_cards :
     DEPRECATED: no units specified in CELL_PARAMETERS card

     Current dimensions of program PWSCF are:
     Max number of different atomic species (ntypx) = 10
     Max number of k-points (npk) =  40000
     Max angular momentum in pseudopotentials (lmaxx) =  3
     Presently stress not available with electric field


     **************************************************************************
     Initializing libbeef V0.1.1 with the BEEF-vdW functional.
     Citation: Wellendorff et al., PRB 85, 235149 (2012).
     **************************************************************************


     IMPORTANT: XC functional enforced from input :
     Exchange-correlation      = BEEF-VDW ( 1  4 27 13 2)
     Any further DFT definition will be discarded
     Please, verify this is what you really want


     Subspace diagonalization in iterative solution of the eigenvalue problem:
     a serial algorithm will be used

 
     Parallelization info
     --------------------
     sticks:   dense  smooth     PW     G-vecs:    dense   smooth      PW
     Min          84      33      9                16000     4018     623
     Max          85      34     10                16029     4064     652
     Sum        2713    1075    313               512659   129281   20533
 


     bravais-lattice index     =            0
     lattice parameter (alat)  =       1.8897  a.u.
     unit-cell volume          =    4306.9643 (a.u.)^3
     number of atoms/cell      =           13
     number of atomic types    =            2
     number of electrons       =       181.00
     number of Kohn-Sham states=          100
     kinetic-energy cutoff     =      36.7493  Ry
     charge density cutoff     =     367.4932  Ry
     convergence threshold     =      1.0E-05
     mixing beta               =       0.3000
     number of iterations used =           10  plain     mixing
     Exchange-correlation      = BEEF-VDW ( 1  4 27 13 2)
     nstep                     =           50


     celldm(1)=   1.889726  celldm(2)=   0.000000  celldm(3)=   0.000000
     celldm(4)=   0.000000  celldm(5)=   0.000000  celldm(6)=   0.000000

     crystal axes: (cart. coord. in units of alat)
               a(1) = (   5.486772   0.000000   0.000000 )  
               a(2) = (   2.743386   4.751684   0.000000 )  
               a(3) = (   0.000000   0.000000  24.479931 )  

     reciprocal axes: (cart. coord. in units 2 pi/alat)
               b(1) = (  0.182257 -0.105226  0.000000 )  
               b(2) = (  0.000000  0.210452  0.000000 )  
               b(3) = (  0.000000  0.000000  0.040850 )  


     PseudoPot. # 1 for Re read from file:
     /afs/slac.stanford.edu/u/if/mamunm/psp/gbrv1.5pbe/Re.UPF
     MD5 check sum: 85f993410f3e006da9d71c142b4ad953
     Pseudo is Ultrasoft + core correction, Zval = 15.0
     Generated by new atomic code, or converted to UPF format
     Using radial grid of  981 points,  8 beta functions with: 
                l(1) =   0
                l(2) =   0
                l(3) =   1
                l(4) =   1
                l(5) =   2
                l(6) =   2
                l(7) =   3
                l(8) =   3
     Q(r) pseudized with  8 coefficients,  rinner =    1.150   1.150   1.150
                                                       1.150   1.150   1.150
                                                       1.150

     PseudoPot. # 2 for H  read from file:
     /afs/slac.stanford.edu/u/if/mamunm/psp/gbrv1.5pbe/H.UPF
     MD5 check sum: 761ae9a214b05c3daf00ab9f6b793d6f
     Pseudo is Ultrasoft, Zval =  1.0
     Generated by new atomic code, or converted to UPF format
     Using radial grid of  615 points,  2 beta functions with: 
                l(1) =   0
                l(2) =   0
     Q(r) pseudized with  8 coefficients,  rinner =    0.700

     vdW kernel table read from file vdW_kernel_table
     MD5 check sum: 095c7af220d748ca6e76c0b4c6cfb241

     atomic species   valence    mass     pseudopotential
        Re1           15.00   186.20700     Re( 1.00)
        H1             1.00     1.00800     H ( 1.00)

     No symmetry found



   Cartesian axes

     site n.     atom                  positions (alat units)
         1           Re1 tau(   1) = (   1.3716930   0.7919474  10.0000000  )
         2           Re1 tau(   2) = (   4.1150791   0.7919474  10.0000000  )
         3           Re1 tau(   3) = (   2.7433861   3.1677894  10.0000000  )
         4           Re1 tau(   4) = (   5.4867722   3.1677894  10.0000000  )
         5           Re1 tau(   5) = (   5.4867722   1.5838947  12.2399654  )
         6           Re1 tau(   6) = (   2.7433861   1.5838947  12.2399654  )
         7           Re1 tau(   7) = (   6.8584652   3.9597368  12.2399654  )
         8           Re1 tau(   8) = (   4.1150791   3.9597368  12.2399654  )
         9           Re1 tau(   9) = (   0.0000000   0.0000000  14.4799307  )
        10           Re1 tau(  10) = (   2.7433861   0.0000000  14.4799307  )
        11           Re1 tau(  11) = (   1.3716930   2.3758421  14.4799307  )
        12           Re1 tau(  12) = (   4.1150791   2.3758421  14.4799307  )
        13           H1  tau(  13) = (   1.3716930   0.7919474  16.2999307  )

     number of k points=    20  Fermi-Dirac smearing, width (Ry)=  0.0110
                       cart. coord. in units 2pi/alat
        k(    1) = (   0.0000000   0.0000000   0.0000000), wk =   0.0555556
        k(    2) = (   0.0000000   0.0350753   0.0000000), wk =   0.1111111
        k(    3) = (   0.0000000   0.0701506   0.0000000), wk =   0.1111111
        k(    4) = (   0.0000000  -0.1052259   0.0000000), wk =   0.0555556
        k(    5) = (   0.0303761  -0.0175376   0.0000000), wk =   0.1111111
        k(    6) = (   0.0303761   0.0175376   0.0000000), wk =   0.1111111
        k(    7) = (   0.0303761   0.0526129   0.0000000), wk =   0.1111111
        k(    8) = (   0.0303761  -0.1227635   0.0000000), wk =   0.1111111
        k(    9) = (   0.0303761  -0.0876882   0.0000000), wk =   0.1111111
        k(   10) = (   0.0303761  -0.0526129   0.0000000), wk =   0.1111111
        k(   11) = (   0.0607522  -0.0350753   0.0000000), wk =   0.1111111
        k(   12) = (   0.0607522   0.0000000   0.0000000), wk =   0.1111111
        k(   13) = (   0.0607522   0.0350753   0.0000000), wk =   0.1111111
        k(   14) = (   0.0607522  -0.1403011   0.0000000), wk =   0.1111111
        k(   15) = (   0.0607522  -0.1052259   0.0000000), wk =   0.1111111
        k(   16) = (   0.0607522  -0.0701506   0.0000000), wk =   0.1111111
        k(   17) = (  -0.0911283   0.0526129   0.0000000), wk =   0.0555556
        k(   18) = (  -0.0911283   0.0876882   0.0000000), wk =   0.1111111
        k(   19) = (  -0.0911283   0.1227635   0.0000000), wk =   0.1111111
        k(   20) = (  -0.0911283  -0.0526129   0.0000000), wk =   0.0555556

     Dense  grid:   512659 G-vectors     FFT dimensions: (  64,  64, 288)

     Smooth grid:   129281 G-vectors     FFT dimensions: (  45,  45, 180)

     Largest allocated arrays     est. size (Mb)     dimensions
        Kohn-Sham Wavefunctions         0.79 Mb     (     516,  100)
        NL pseudopotentials             3.04 Mb     (     516,  386)
        Each V/rho on FFT grid          0.56 Mb     (   36864)
        Each G-vector array             0.12 Mb     (   16029)
        G-vector shells                 0.06 Mb     (    7603)
     Largest temporary arrays     est. size (Mb)     dimensions
        Auxiliary wavefunctions         3.15 Mb     (     516,  400)
        Each subspace H/S matrix        2.44 Mb     (     400,  400)
        Each <psi_i|beta_j> matrix      0.59 Mb     (     386,  100)
        Arrays for rho mixing           5.62 Mb     (   36864,   10)

     Initial potential from superposition of free atoms
     Check: negative starting charge=   -1.539600

     starting charge  174.99945, renormalised to  181.00000

     negative rho (up, down):  1.592E+00 0.000E+00


     ************************************************************************
     *
     * You are using vdW-DF for exchange-correlation in this calculation.
     * Please cite the following three references that made this development
     * possible:
     *
     *   M. Dion, H. Rydberg, E. Schroder, D. C. Langreth, and
     *   B. I. Lundqvist, Phys. Rev. Lett. 92, 246401 (2004).
     *
     *   T. Thonhauser, V. R. Cooper, S. Li, A. Puzder, P. Hyldgaard, and
     *   D. C. Langreth, Phys. Rev. B 76, 125112 (2007).
     *
     *   G. Roman-Perez and J. M. Soler, Phys. Rev. Lett. 103, 096102 (2009).
     *
     *
     * If you are using vdW-DF2, please also cite:
     *
     *   K. Lee, E. D. Murray, L. Kong, B. I. Lundqvist, and
     *   D. C. Langreth, Phys. Rev. B 82, 081101(R) (2010).
     *
     *
     * If you are calculating the stress with vdW-DF, please also cite:
     *
     *   R. Sabatini, E. Kucukbenli, B. Kolb, T. Thonhauser, and
     *   S. de Gironcoli, J. Phys.: Condens. Matter 24, 424209 (2012).
     *
     ************************************************************************

     Carrying out vdW-DF run using the following parameters:

     Nqs =      20    Nr_points =    1024   r_max =   100.000
     q_mesh =
               0.00001000     0.04494208     0.09755937     0.15916263
               0.23128650     0.31572767     0.41458969     0.53033537
               0.66584808     0.82450364     1.01025438     1.22772762
               1.48234092     1.78043706     2.12944203     2.53805004
               3.01644009     3.57652955     4.23227104     5.00000000

     Gradients computed in reciprocal space

     ************************************************************************


 
     Adding external electric field

     Computed dipole along edir(3) : 
        Dipole               -0.2630 Ry au,         -0.6685 Debye
        Dipole field         -0.0008 Ry au
 
        Potential amp.        0.0692 Ry
        Total length         45.1039 bohr
 
     Starting wfc are  157 randomized atomic wfcs

     total cpu time spent up to now is       22.3 secs

     per-process dynamical memory:    48.8 Mb

     Self-consistent Calculation

     iteration #  1     ecut=    36.75 Ry     beta=0.30
     Davidson diagonalization with overlap
     ethr =  1.00E-02,  avg # of iterations =  2.0

     negative rho (up, down):  1.614E+00 0.000E+00
 
     Adding external electric field

     Computed dipole along edir(3) : 
        Dipole                3.0686 Ry au,          7.7996 Debye
        Dipole field          0.0090 Ry au
 
        Potential amp.       -0.8077 Ry
        Total length         45.1039 bohr
 

     total cpu time spent up to now is       62.1 secs

     total energy              =   -2306.25178122 Ry
     Harris-Foulkes estimate   =   -2307.77521228 Ry
     estimated scf accuracy    <       3.58382449 Ry

     iteration #  2     ecut=    36.75 Ry     beta=0.30
     Davidson diagonalization with overlap
     ethr =  1.98E-03,  avg # of iterations =  9.8

     negative rho (up, down):  1.614E+00 0.000E+00
 
     Adding external electric field

     Computed dipole along edir(3) : 
        Dipole               -0.6021 Ry au,         -1.5304 Debye
        Dipole field         -0.0018 Ry au
 
        Potential amp.        0.1585 Ry
        Total length         45.1039 bohr
 

     total cpu time spent up to now is      138.3 secs

     total energy              =   -2298.82490209 Ry
     Harris-Foulkes estimate   =   -2315.56459195 Ry
     estimated scf accuracy    <     533.18628486 Ry

     iteration #  3     ecut=    36.75 Ry     beta=0.30
     Davidson diagonalization with overlap
     ethr =  1.98E-03,  avg # of iterations =  6.9

     negative rho (up, down):  1.620E+00 0.000E+00
 
     Adding external electric field

     Computed dipole along edir(3) : 
        Dipole               -0.4149 Ry au,         -1.0546 Debye
        Dipole field         -0.0012 Ry au
 
        Potential amp.        0.1092 Ry
        Total length         45.1039 bohr
 

     total cpu time spent up to now is      204.0 secs

     total energy              =   -2306.80531016 Ry
     Harris-Foulkes estimate   =   -2307.24400573 Ry
     estimated scf accuracy    <       2.50207388 Ry

     iteration #  4     ecut=    36.75 Ry     beta=0.30
     Davidson diagonalization with overlap
     ethr =  1.38E-03,  avg # of iterations =  4.1

     negative rho (up, down):  1.625E+00 0.000E+00
 
     Adding external electric field

     Computed dipole along edir(3) : 
        Dipole               -0.3908 Ry au,         -0.9932 Debye
        Dipole field         -0.0011 Ry au
 
        Potential amp.        0.1028 Ry
        Total length         45.1039 bohr
 

     total cpu time spent up to now is      246.9 secs

     total energy              =   -2306.76766830 Ry
     Harris-Foulkes estimate   =   -2307.28326561 Ry
     estimated scf accuracy    <       3.48822356 Ry

     iteration #  5     ecut=    36.75 Ry     beta=0.30
     Davidson diagonalization with overlap
     ethr =  1.38E-03,  avg # of iterations =  3.7

     negative rho (up, down):  1.626E+00 0.000E+00
 
     Adding external electric field

     Computed dipole along edir(3) : 
        Dipole               -0.3996 Ry au,         -1.0157 Debye
        Dipole field         -0.0012 Ry au
 
        Potential amp.        0.1052 Ry
        Total length         45.1039 bohr
 

     total cpu time spent up to now is      284.4 secs

     total energy              =   -2306.94553136 Ry
     Harris-Foulkes estimate   =   -2306.97400459 Ry
     estimated scf accuracy    <       0.46494932 Ry

     iteration #  6     ecut=    36.75 Ry     beta=0.30
     Davidson diagonalization with overlap
     ethr =  2.57E-04,  avg # of iterations =  5.0

     negative rho (up, down):  1.624E+00 0.000E+00
 
     Adding external electric field

     Computed dipole along edir(3) : 
        Dipole               -0.2713 Ry au,         -0.6895 Debye
        Dipole field         -0.0008 Ry au
 
        Potential amp.        0.0714 Ry
        Total length         45.1039 bohr
 

     total cpu time spent up to now is      326.3 secs

     total energy              =   -2306.99030667 Ry
     Harris-Foulkes estimate   =   -2306.99870318 Ry
     estimated scf accuracy    <       0.08024812 Ry

     iteration #  7     ecut=    36.75 Ry     beta=0.30
     Davidson diagonalization with overlap
     ethr =  4.43E-05,  avg # of iterations =  3.8

     negative rho (up, down):  1.622E+00 0.000E+00
 
     Adding external electric field

     Computed dipole along edir(3) : 
        Dipole               -0.1764 Ry au,         -0.4485 Debye
        Dipole field         -0.0005 Ry au
 
        Potential amp.        0.0464 Ry
        Total length         45.1039 bohr
 

     total cpu time spent up to now is      364.3 secs

     total energy              =   -2306.99301501 Ry
     Harris-Foulkes estimate   =   -2306.99655424 Ry
     estimated scf accuracy    <       0.02816944 Ry

     iteration #  8     ecut=    36.75 Ry     beta=0.30
     Davidson diagonalization with overlap
     ethr =  1.56E-05,  avg # of iterations =  4.8

     negative rho (up, down):  1.619E+00 0.000E+00
 
     Adding external electric field

     Computed dipole along edir(3) : 
        Dipole               -0.0690 Ry au,         -0.1753 Debye
        Dipole field         -0.0002 Ry au
 
        Potential amp.        0.0182 Ry
        Total length         45.1039 bohr
 

     total cpu time spent up to now is      404.8 secs

     total energy              =   -2306.99542651 Ry
     Harris-Foulkes estimate   =   -2306.99581992 Ry
     estimated scf accuracy    <       0.00471914 Ry

     iteration #  9     ecut=    36.75 Ry     beta=0.30
     Davidson diagonalization with overlap
     ethr =  2.61E-06,  avg # of iterations =  8.5

     negative rho (up, down):  1.619E+00 0.000E+00
 
     Adding external electric field

     Computed dipole along edir(3) : 
        Dipole               -0.0365 Ry au,         -0.0929 Debye
        Dipole field         -0.0001 Ry au
 
        Potential amp.        0.0096 Ry
        Total length         45.1039 bohr
 

     total cpu time spent up to now is      456.2 secs

     total energy              =   -2306.99595448 Ry
     Harris-Foulkes estimate   =   -2306.99608464 Ry
     estimated scf accuracy    <       0.00220566 Ry

     iteration # 10     ecut=    36.75 Ry     beta=0.30
     Davidson diagonalization with overlap
     ethr =  1.22E-06,  avg # of iterations =  1.6

     negative rho (up, down):  1.619E+00 0.000E+00
 
     Adding external electric field

     Computed dipole along edir(3) : 
        Dipole               -0.0208 Ry au,         -0.0528 Debye
        Dipole field         -0.0001 Ry au
 
        Potential amp.        0.0055 Ry
        Total length         45.1039 bohr
 

     total cpu time spent up to now is      490.1 secs

     total energy              =   -2306.99598612 Ry
     Harris-Foulkes estimate   =   -2306.99603966 Ry
     estimated scf accuracy    <       0.00095311 Ry

     iteration # 11     ecut=    36.75 Ry     beta=0.30
     Davidson diagonalization with overlap
     ethr =  5.27E-07,  avg # of iterations =  4.2

     negative rho (up, down):  1.619E+00 0.000E+00
 
     Adding external electric field

     Computed dipole along edir(3) : 
        Dipole               -0.0068 Ry au,         -0.0172 Debye
        Dipole field         -0.0000 Ry au
 
        Potential amp.        0.0018 Ry
        Total length         45.1039 bohr
 

     total cpu time spent up to now is      527.7 secs

     total energy              =   -2306.99603993 Ry
     Harris-Foulkes estimate   =   -2306.99603698 Ry
     estimated scf accuracy    <       0.00014706 Ry

     iteration # 12     ecut=    36.75 Ry     beta=0.30
     Davidson diagonalization with overlap
     ethr =  8.12E-08,  avg # of iterations =  5.0

     negative rho (up, down):  1.619E+00 0.000E+00
 
     Adding external electric field

     Computed dipole along edir(3) : 
        Dipole                0.0029 Ry au,          0.0075 Debye
        Dipole field          0.0000 Ry au
 
        Potential amp.       -0.0008 Ry
        Total length         45.1039 bohr
 

     total cpu time spent up to now is      576.5 secs

     total energy              =   -2306.99608095 Ry
     Harris-Foulkes estimate   =   -2306.99607797 Ry
     estimated scf accuracy    <       0.00008482 Ry

     iteration # 13     ecut=    36.75 Ry     beta=0.30
     Davidson diagonalization with overlap
     ethr =  4.69E-08,  avg # of iterations =  2.1

     negative rho (up, down):  1.619E+00 0.000E+00
 
     Adding external electric field

     Computed dipole along edir(3) : 
        Dipole                0.0074 Ry au,          0.0187 Debye
        Dipole field          0.0000 Ry au
 
        Potential amp.       -0.0019 Ry
        Total length         45.1039 bohr
 

     total cpu time spent up to now is      611.3 secs

     total energy              =   -2306.99607871 Ry
     Harris-Foulkes estimate   =   -2306.99608576 Ry
     estimated scf accuracy    <       0.00006098 Ry

     iteration # 14     ecut=    36.75 Ry     beta=0.30
     Davidson diagonalization with overlap
     ethr =  3.37E-08,  avg # of iterations =  3.5

     negative rho (up, down):  1.619E+00 0.000E+00

     negative rho (up, down):  1.619E+00 0.000E+00

     negative rho (up, down):  1.619E+00 0.000E+00

     negative rho (up, down):  1.619E+00 0.000E+00

     negative rho (up, down):  1.619E+00 0.000E+00

     negative rho (up, down):  1.619E+00 0.000E+00

     negative rho (up, down):  1.619E+00 0.000E+00

     negative rho (up, down):  1.619E+00 0.000E+00

     negative rho (up, down):  1.619E+00 0.000E+00

     negative rho (up, down):  1.619E+00 0.000E+00

     negative rho (up, down):  1.619E+00 0.000E+00

     negative rho (up, down):  1.619E+00 0.000E+00

     negative rho (up, down):  1.619E+00 0.000E+00

     negative rho (up, down):  1.619E+00 0.000E+00

     negative rho (up, down):  1.619E+00 0.000E+00

     negative rho (up, down):  1.619E+00 0.000E+00

     negative rho (up, down):  1.619E+00 0.000E+00

     negative rho (up, down):  1.619E+00 0.000E+00

     negative rho (up, down):  1.619E+00 0.000E+00

     negative rho (up, down):  1.619E+00 0.000E+00

     negative rho (up, down):  1.619E+00 0.000E+00

     negative rho (up, down):  1.619E+00 0.000E+00

     negative rho (up, down):  1.619E+00 0.000E+00

     negative rho (up, down):  1.619E+00 0.000E+00

     negative rho (up, down):  1.619E+00 0.000E+00

     negative rho (up, down):  1.619E+00 0.000E+00

     negative rho (up, down):  1.619E+00 0.000E+00

     negative rho (up, down):  1.619E+00 0.000E+00

     negative rho (up, down):  1.619E+00 0.000E+00

     negative rho (up, down):  1.619E+00 0.000E+00

     negative rho (up, down):  1.619E+00 0.000E+00

     negative rho (up, down):  1.619E+00 0.000E+00

     negative rho (up, down):  1.619E+00 0.000E+00

     negative rho (up, down):  1.619E+00 0.000E+00

     negative rho (up, down):  1.619E+00 0.000E+00
 
     Adding external electric field

     Computed dipole along edir(3) : 
        Dipole               -0.0121 Ry au,         -0.0309 Debye
        Dipole field         -0.0000 Ry au
 
        Potential amp.        0.0032 Ry
        Total length         45.1039 bohr
 

     total cpu time spent up to now is      703.0 secs

     End of self-consistent calculation

          k = 0.0000 0.0000 0.0000 ( 16091 PWs)   bands (ev):

   -77.7098 -77.6291 -77.6256 -77.6253 -77.5876 -77.5705 -77.5700 -77.5500
   -77.4898 -77.4802 -77.4799 -77.4794 -39.9628 -39.9555 -39.9554 -39.8525
   -39.7961 -39.7596 -39.7594 -39.6464 -39.6317 -39.6315 -39.4269 -39.3361
   -39.3357 -39.2814 -39.2725 -39.2724 -39.2643 -39.2062 -39.1964 -39.1963
   -39.0838 -39.0837 -39.0579 -38.9913 -38.9797 -38.9794 -38.9754 -38.9513
   -38.9513 -38.8985 -38.8969 -38.8968 -38.7575 -38.7574 -38.6958 -38.6958
    -6.3170  -4.4169  -3.8004  -3.4018  -3.3799  -3.3799  -3.0934  -3.0650
    -3.0649  -2.4863  -2.3808  -2.3808  -2.2158  -2.1852  -2.1851  -1.0545
    -0.6485  -0.6484  -0.0249   0.4074   0.4074   0.4421   0.7215   0.9140
     1.0744   1.0744   1.5269   1.5269   1.5661   1.5668   1.5668   1.5890
     1.5891   1.6502   1.8408   1.8408   2.6284   3.1558   3.1559   3.2152
     3.5717   3.5718   3.5795   4.1473   4.1473   4.3610   4.6365   4.6365
     4.7063   4.7063   4.9260   5.0164

          k = 0.0000 0.0351 0.0000 ( 16151 PWs)   bands (ev):

   -77.7039 -77.6302 -77.6256 -77.6248 -77.5898 -77.5723 -77.5703 -77.5454
   -77.4908 -77.4846 -77.4800 -77.4797 -39.9281 -39.9223 -39.9016 -39.8327
   -39.7640 -39.7320 -39.7260 -39.6132 -39.5998 -39.5795 -39.4278 -39.3698
   -39.3571 -39.3299 -39.2736 -39.2554 -39.2424 -39.2109 -39.2030 -39.1828
   -39.1017 -39.0888 -39.0542 -39.0192 -39.0053 -38.9983 -38.9860 -38.9759
   -38.9572 -38.9310 -38.9296 -38.8843 -38.8130 -38.7711 -38.7554 -38.7097
    -6.0359  -4.1361  -3.5097  -3.3595  -3.1618  -3.1455  -2.9895  -2.8765
    -2.8611  -2.3310  -2.2650  -2.2194  -2.0660  -1.9168  -1.8860  -1.0187
    -0.6103  -0.5730  -0.0621   0.4306   0.5124   0.5205   0.6741   0.7262
     0.8352   1.0204   1.0580   1.3153   1.3574   1.4799   1.6501   1.6957
     1.7066   1.7319   1.7514   2.0931   2.3014   2.7533   2.7574   2.8139
     3.3688   3.3776   3.5963   3.6448   3.8148   3.8315   3.8991   3.9493
     4.5994   4.7565   4.8883   5.0625

          k = 0.0000 0.0702 0.0000 ( 16185 PWs)   bands (ev):

   -77.6882 -77.6438 -77.6256 -77.6151 -77.5936 -77.5784 -77.5703 -77.5327
   -77.4977 -77.4924 -77.4800 -77.4797 -39.8473 -39.8400 -39.7796 -39.7533
   -39.6951 -39.6705 -39.6696 -39.5433 -39.5232 -39.4531 -39.4317 -39.4255
   -39.4145 -39.3636 -39.2653 -39.2423 -39.2290 -39.2156 -39.2055 -39.1612
   -39.1521 -39.1400 -39.1396 -39.0760 -39.0545 -39.0386 -39.0176 -39.0166
   -38.9902 -38.9848 -38.9563 -38.9264 -38.8873 -38.8484 -38.8062 -38.7471
    -5.2682  -3.5480  -3.4112  -2.7822  -2.7262  -2.5854  -2.5680  -2.3858
    -2.3724  -2.0721  -1.7923  -1.7386  -1.6719  -1.2210  -1.1233  -0.9386
    -0.5356  -0.4194  -0.3179  -0.0474   0.1665   0.2213   0.3255   0.5705
     0.7192   0.9012   0.9111   1.1550   1.1787   1.3410   1.3543   1.5270
     1.7268   1.8733   1.9076   1.9647   1.9963   2.1231   2.1503   2.2521
     2.3427   2.3520   2.8272   2.9704   2.9785   3.4551   3.5586   3.7441
     3.9022   4.1784   4.2600   4.2935

          k = 0.0000-0.1052 0.0000 ( 16164 PWs)   bands (ev):

   -77.6713 -77.6600 -77.6257 -77.6075 -77.5964 -77.5831 -77.5703 -77.5157
   -77.5148 -77.4934 -77.4800 -77.4797 -39.7917 -39.7821 -39.7141 -39.7096
   -39.6543 -39.6332 -39.5621 -39.5560 -39.5003 -39.4928 -39.4687 -39.4576
   -39.2965 -39.2647 -39.2541 -39.2514 -39.2199 -39.2114 -39.2087 -39.2039
   -39.1961 -39.1722 -39.1560 -39.1528 -39.1158 -39.0989 -39.0854 -39.0729
   -39.0060 -38.9948 -38.9700 -38.9654 -38.8965 -38.8384 -38.7980 -38.7964
    -4.2894  -4.2608  -2.8368  -2.6845  -2.1568  -2.1260  -2.1183  -2.1107
    -2.0761  -2.0211  -1.3723  -1.2869  -1.2022  -0.9624  -0.7989  -0.7841
    -0.7658  -0.4043  -0.3608  -0.3325  -0.1561   0.0654   0.1540   0.5694
     0.6717   0.8767   0.9331   0.9792   1.0037   1.0265   1.0442   1.1108
     1.3906   1.4129   1.4167   1.5363   1.5478   1.5562   2.1166   2.1205
     2.4264   2.7798   2.9818   2.9901   3.0062   3.0762   3.4178   3.4290
     3.4605   3.8826   3.9314   3.9674

          k = 0.0304-0.0175 0.0000 ( 16151 PWs)   bands (ev):

   -77.7039 -77.6303 -77.6254 -77.6248 -77.5898 -77.5727 -77.5700 -77.5454
   -77.4908 -77.4846 -77.4800 -77.4797 -39.9280 -39.9223 -39.9016 -39.8327
   -39.7640 -39.7321 -39.7260 -39.6132 -39.5999 -39.5795 -39.4278 -39.3699
   -39.3569 -39.3299 -39.2735 -39.2555 -39.2424 -39.2108 -39.2031 -39.1828
   -39.1016 -39.0890 -39.0542 -39.0193 -39.0053 -38.9982 -38.9861 -38.9758
   -38.9572 -38.9310 -38.9296 -38.8843 -38.8129 -38.7712 -38.7554 -38.7097
    -6.0359  -4.1361  -3.5097  -3.3595  -3.1618  -3.1455  -2.9895  -2.8765
    -2.8611  -2.3310  -2.2650  -2.2195  -2.0660  -1.9168  -1.8860  -1.0187
    -0.6104  -0.5730  -0.0621   0.4306   0.5124   0.5205   0.6741   0.7262
     0.8352   1.0205   1.0580   1.3153   1.3574   1.4799   1.6501   1.6957
     1.7066   1.7319   1.7514   2.0931   2.3014   2.7533   2.7575   2.8139
     3.3688   3.3776   3.5963   3.6448   3.8148   3.8314   3.8991   3.9493
     4.5994   4.7565   4.8883   5.0625

          k = 0.0304 0.0175 0.0000 ( 16151 PWs)   bands (ev):

   -77.7039 -77.6304 -77.6254 -77.6248 -77.5898 -77.5723 -77.5704 -77.5454
   -77.4908 -77.4846 -77.4802 -77.4795 -39.9280 -39.9224 -39.9015 -39.8327
   -39.7640 -39.7319 -39.7261 -39.6133 -39.5998 -39.5795 -39.4278 -39.3697
   -39.3572 -39.3298 -39.2736 -39.2554 -39.2424 -39.2109 -39.2030 -39.1828
   -39.1017 -39.0889 -39.0542 -39.0192 -39.0053 -38.9983 -38.9859 -38.9759
   -38.9573 -38.9311 -38.9295 -38.8843 -38.8130 -38.7711 -38.7554 -38.7097
    -6.0359  -4.1361  -3.5097  -3.3595  -3.1618  -3.1455  -2.9895  -2.8765
    -2.8611  -2.3310  -2.2650  -2.2194  -2.0660  -1.9168  -1.8860  -1.0187
    -0.6103  -0.5731  -0.0621   0.4306   0.5124   0.5205   0.6740   0.7262
     0.8352   1.0204   1.0581   1.3153   1.3574   1.4799   1.6501   1.6958
     1.7066   1.7318   1.7515   2.0931   2.3014   2.7533   2.7574   2.8140
     3.3688   3.3777   3.5963   3.6448   3.8148   3.8315   3.8991   3.9493
     4.5994   4.7565   4.8883   5.0625

          k = 0.0304 0.0526 0.0000 ( 16230 PWs)   bands (ev):

   -77.6931 -77.6371 -77.6288 -77.6174 -77.5921 -77.5759 -77.5711 -77.5367
   -77.4924 -77.4887 -77.4884 -77.4757 -39.8821 -39.8256 -39.8243 -39.7960
   -39.7122 -39.6833 -39.6812 -39.5720 -39.5134 -39.5015 -39.4367 -39.4142
   -39.3957 -39.3756 -39.2722 -39.2394 -39.2280 -39.2153 -39.1855 -39.1830
   -39.1716 -39.1002 -39.0746 -39.0660 -39.0515 -39.0500 -39.0082 -38.9999
   -38.9692 -38.9674 -38.9094 -38.9013 -38.8995 -38.8485 -38.7991 -38.7401
    -5.5073  -3.6259  -3.1793  -3.1653  -2.9688  -2.7117  -2.6908  -2.6325
    -2.3906  -2.0516  -2.0393  -1.8635  -1.7200  -1.6126  -1.2548  -0.9826
    -0.5554  -0.4717  -0.2180   0.1039   0.3719   0.4252   0.4995   0.5217
     0.7183   0.7297   0.9703   1.0366   1.3317   1.4246   1.5114   1.6056
     1.6140   1.7795   1.8809   2.1274   2.1529   2.1732   2.3246   2.5420
     2.5684   2.6202   2.9347   3.0592   3.2991   3.3469   3.4653   3.9063
     4.1369   4.2735   4.4728   4.7349

          k = 0.0304-0.1228 0.0000 ( 16218 PWs)   bands (ev):

   -77.6751 -77.6518 -77.6324 -77.6072 -77.5943 -77.5817 -77.5719 -77.5216
   -77.5041 -77.4935 -77.4908 -77.4733 -39.7959 -39.7425 -39.7335 -39.6846
   -39.6525 -39.6454 -39.6313 -39.5567 -39.5028 -39.4724 -39.4390 -39.4004
   -39.3622 -39.3143 -39.2939 -39.2527 -39.2327 -39.2190 -39.2134 -39.2021
   -39.1825 -39.1711 -39.1577 -39.1222 -39.0990 -39.0808 -39.0467 -39.0450
   -39.0072 -38.9979 -38.9444 -38.9358 -38.9226 -38.8530 -38.8449 -38.7925
    -4.5931  -3.6478  -2.8703  -2.8129  -2.4897  -2.2293  -2.1236  -2.0884
    -1.7978  -1.7690  -1.4970  -1.3705  -1.2245  -1.0524  -0.9665  -0.7621
    -0.5964  -0.4333  -0.3675  -0.2991  -0.2073   0.0008   0.1657   0.3158
     0.4712   0.7292   0.8324   0.9154   0.9430   0.9963   1.0885   1.1477
     1.2751   1.3437   1.4968   1.7060   1.8228   1.9265   2.0839   2.1669
     2.3112   2.6799   2.8968   2.9896   3.0425   3.1618   3.3131   3.3664
     3.6610   3.8364   3.9267   4.2263

          k = 0.0304-0.0877 0.0000 ( 16218 PWs)   bands (ev):

   -77.6751 -77.6517 -77.6324 -77.6072 -77.5944 -77.5818 -77.5717 -77.5216
   -77.5041 -77.4935 -77.4908 -77.4733 -39.7959 -39.7424 -39.7335 -39.6846
   -39.6525 -39.6454 -39.6313 -39.5567 -39.5027 -39.4724 -39.4390 -39.4004
   -39.3622 -39.3143 -39.2941 -39.2527 -39.2327 -39.2189 -39.2134 -39.2021
   -39.1825 -39.1711 -39.1577 -39.1222 -39.0990 -39.0808 -39.0466 -39.0449
   -39.0072 -38.9979 -38.9444 -38.9358 -38.9227 -38.8531 -38.8449 -38.7925
    -4.5931  -3.6478  -2.8703  -2.8129  -2.4897  -2.2293  -2.1236  -2.0884
    -1.7978  -1.7690  -1.4970  -1.3705  -1.2245  -1.0524  -0.9665  -0.7621
    -0.5964  -0.4333  -0.3675  -0.2991  -0.2073   0.0008   0.1656   0.3158
     0.4712   0.7293   0.8324   0.9154   0.9430   0.9963   1.0886   1.1477
     1.2751   1.3437   1.4968   1.7061   1.8228   1.9265   2.0839   2.1669
     2.3112   2.6798   2.8968   2.9896   3.0425   3.1618   3.3132   3.3664
     3.6610   3.8364   3.9267   4.2262

          k = 0.0304-0.0526 0.0000 ( 16230 PWs)   bands (ev):

   -77.6931 -77.6371 -77.6288 -77.6174 -77.5922 -77.5763 -77.5707 -77.5367
   -77.4924 -77.4887 -77.4884 -77.4757 -39.8821 -39.8256 -39.8244 -39.7961
   -39.7121 -39.6835 -39.6811 -39.5719 -39.5135 -39.5015 -39.4367 -39.4141
   -39.3959 -39.3755 -39.2721 -39.2395 -39.2280 -39.2153 -39.1854 -39.1831
   -39.1716 -39.1002 -39.0747 -39.0660 -39.0515 -39.0500 -39.0081 -38.9998
   -38.9692 -38.9673 -38.9094 -38.9014 -38.8995 -38.8485 -38.7991 -38.7401
    -5.5073  -3.6259  -3.1793  -3.1653  -2.9688  -2.7118  -2.6908  -2.6324
    -2.3906  -2.0516  -2.0393  -1.8635  -1.7200  -1.6126  -1.2548  -0.9826
    -0.5555  -0.4717  -0.2179   0.1039   0.3719   0.4252   0.4995   0.5218
     0.7183   0.7296   0.9703   1.0366   1.3317   1.4246   1.5114   1.6055
     1.6140   1.7795   1.8809   2.1275   2.1528   2.1732   2.3246   2.5419
     2.5685   2.6201   2.9346   3.0592   3.2991   3.3469   3.4653   3.9064
     4.1369   4.2736   4.4727   4.7349

          k = 0.0608-0.0351 0.0000 ( 16185 PWs)   bands (ev):

   -77.6882 -77.6439 -77.6255 -77.6152 -77.5937 -77.5787 -77.5700 -77.5327
   -77.4977 -77.4924 -77.4800 -77.4797 -39.8472 -39.8401 -39.7796 -39.7533
   -39.6950 -39.6705 -39.6696 -39.5432 -39.5234 -39.4531 -39.4317 -39.4254
   -39.4146 -39.3636 -39.2651 -39.2424 -39.2291 -39.2155 -39.2055 -39.1610
   -39.1522 -39.1401 -39.1396 -39.0761 -39.0544 -39.0386 -39.0176 -39.0166
   -38.9902 -38.9849 -38.9563 -38.9263 -38.8873 -38.8484 -38.8063 -38.7471
    -5.2682  -3.5480  -3.4112  -2.7821  -2.7263  -2.5854  -2.5680  -2.3858
    -2.3724  -2.0721  -1.7923  -1.7386  -1.6720  -1.2210  -1.1234  -0.9386
    -0.5357  -0.4194  -0.3179  -0.0475   0.1665   0.2213   0.3255   0.5705
     0.7192   0.9012   0.9111   1.1550   1.1787   1.3410   1.3543   1.5270
     1.7268   1.8733   1.9076   1.9647   1.9963   2.1231   2.1503   2.2521
     2.3427   2.3520   2.8272   2.9703   2.9786   3.4551   3.5586   3.7441
     3.9022   4.1784   4.2601   4.2934

          k = 0.0608 0.0000 0.0000 ( 16230 PWs)   bands (ev):

   -77.6931 -77.6373 -77.6285 -77.6175 -77.5922 -77.5762 -77.5707 -77.5367
   -77.4924 -77.4888 -77.4884 -77.4757 -39.8821 -39.8256 -39.8243 -39.7960
   -39.7122 -39.6833 -39.6812 -39.5720 -39.5135 -39.5015 -39.4367 -39.4142
   -39.3959 -39.3756 -39.2721 -39.2394 -39.2280 -39.2153 -39.1855 -39.1830
   -39.1716 -39.1002 -39.0747 -39.0661 -39.0514 -39.0499 -39.0082 -38.9998
   -38.9693 -38.9673 -38.9094 -38.9013 -38.8995 -38.8485 -38.7991 -38.7401
    -5.5073  -3.6259  -3.1793  -3.1654  -2.9688  -2.7118  -2.6907  -2.6324
    -2.3906  -2.0516  -2.0393  -1.8635  -1.7200  -1.6126  -1.2548  -0.9826
    -0.5554  -0.4717  -0.2180   0.1039   0.3719   0.4252   0.4994   0.5218
     0.7183   0.7297   0.9703   1.0366   1.3317   1.4246   1.5114   1.6055
     1.6140   1.7795   1.8809   2.1275   2.1528   2.1732   2.3246   2.5420
     2.5685   2.6201   2.9346   3.0592   3.2991   3.3469   3.4653   3.9064
     4.1369   4.2735   4.4728   4.7348

          k = 0.0608 0.0351 0.0000 ( 16185 PWs)   bands (ev):

   -77.6882 -77.6440 -77.6254 -77.6152 -77.5936 -77.5783 -77.5704 -77.5327
   -77.4977 -77.4924 -77.4802 -77.4795 -39.8471 -39.8402 -39.7796 -39.7533
   -39.6951 -39.6705 -39.6695 -39.5434 -39.5232 -39.4531 -39.4317 -39.4255
   -39.4146 -39.3636 -39.2653 -39.2423 -39.2291 -39.2157 -39.2054 -39.1612
   -39.1520 -39.1401 -39.1396 -39.0761 -39.0545 -39.0385 -39.0176 -39.0167
   -38.9903 -38.9847 -38.9563 -38.9265 -38.8873 -38.8484 -38.8062 -38.7471
    -5.2682  -3.5480  -3.4112  -2.7822  -2.7262  -2.5854  -2.5680  -2.3857
    -2.3724  -2.0721  -1.7923  -1.7386  -1.6720  -1.2211  -1.1233  -0.9386
    -0.5356  -0.4194  -0.3179  -0.0475   0.1665   0.2213   0.3255   0.5705
     0.7193   0.9012   0.9111   1.1550   1.1788   1.3410   1.3543   1.5271
     1.7267   1.8733   1.9076   1.9647   1.9963   2.1231   2.1504   2.2521
     2.3427   2.3520   2.8272   2.9704   2.9785   3.4551   3.5586   3.7441
     3.9022   4.1784   4.2600   4.2935

          k = 0.0608-0.1403 0.0000 ( 16218 PWs)   bands (ev):

   -77.6750 -77.6519 -77.6322 -77.6073 -77.5943 -77.5817 -77.5719 -77.5216
   -77.5041 -77.4935 -77.4908 -77.4733 -39.7959 -39.7425 -39.7335 -39.6846
   -39.6526 -39.6454 -39.6312 -39.5567 -39.5028 -39.4725 -39.4390 -39.4004
   -39.3622 -39.3143 -39.2939 -39.2527 -39.2327 -39.2190 -39.2133 -39.2022
   -39.1826 -39.1711 -39.1577 -39.1222 -39.0991 -39.0808 -39.0467 -39.0450
   -39.0071 -38.9979 -38.9444 -38.9358 -38.9227 -38.8530 -38.8449 -38.7925
    -4.5931  -3.6478  -2.8703  -2.8129  -2.4897  -2.2293  -2.1236  -2.0884
    -1.7979  -1.7690  -1.4970  -1.3705  -1.2244  -1.0524  -0.9665  -0.7621
    -0.5964  -0.4333  -0.3675  -0.2991  -0.2073   0.0008   0.1657   0.3158
     0.4712   0.7292   0.8325   0.9154   0.9430   0.9963   1.0885   1.1477
     1.2751   1.3437   1.4968   1.7060   1.8228   1.9265   2.0839   2.1669
     2.3112   2.6799   2.8968   2.9896   3.0425   3.1618   3.3131   3.3664
     3.6610   3.8364   3.9266   4.2262

          k = 0.0608-0.1052 0.0000 ( 16272 PWs)   bands (ev):

   -77.6613 -77.6584 -77.6411 -77.6015 -77.5948 -77.5833 -77.5736 -77.5071
   -77.5064 -77.5058 -77.4936 -77.4710 -39.6938 -39.6879 -39.6807 -39.6786
   -39.6727 -39.6134 -39.6100 -39.6040 -39.5803 -39.4186 -39.3826 -39.3384
   -39.3350 -39.3294 -39.3173 -39.2766 -39.2632 -39.2594 -39.2254 -39.2196
   -39.2190 -39.2003 -39.1665 -39.1139 -39.1071 -39.1020 -39.0728 -39.0196
   -39.0119 -38.9928 -38.9574 -38.9139 -38.9099 -38.8671 -38.8662 -38.8648
    -3.6637  -3.6356  -3.6322  -2.4015  -2.2005  -2.1970  -1.6268  -1.5622
    -1.4641  -1.3685  -1.2534  -1.2483  -1.2025  -1.0062  -1.0042  -0.9162
    -0.6511  -0.6429  -0.3677  -0.3579  -0.3132  -0.1100  -0.1036   0.1937
     0.2766   0.3041   0.3551   0.4988   0.5017   0.7127   0.9938   1.1742
     1.2850   1.2977   1.5622   1.7400   1.7704   2.0089   2.0327   2.0388
     2.2603   2.5860   2.6056   2.8955   3.1979   3.2116   3.3717   3.4058
     3.6993   3.9135   3.9185   4.5432

          k = 0.0608-0.0702 0.0000 ( 16218 PWs)   bands (ev):

   -77.6750 -77.6519 -77.6323 -77.6071 -77.5945 -77.5820 -77.5715 -77.5216
   -77.5041 -77.4936 -77.4908 -77.4733 -39.7959 -39.7425 -39.7335 -39.6846
   -39.6524 -39.6454 -39.6313 -39.5568 -39.5027 -39.4724 -39.4392 -39.4004
   -39.3622 -39.3143 -39.2940 -39.2527 -39.2327 -39.2190 -39.2133 -39.2021
   -39.1826 -39.1710 -39.1577 -39.1222 -39.0991 -39.0808 -39.0466 -39.0449
   -39.0071 -38.9979 -38.9444 -38.9358 -38.9225 -38.8531 -38.8451 -38.7925
    -4.5931  -3.6478  -2.8703  -2.8129  -2.4897  -2.2293  -2.1236  -2.0884
    -1.7978  -1.7690  -1.4970  -1.3705  -1.2245  -1.0524  -0.9665  -0.7621
    -0.5964  -0.4333  -0.3675  -0.2991  -0.2073   0.0008   0.1656   0.3158
     0.4712   0.7293   0.8324   0.9154   0.9430   0.9963   1.0886   1.1477
     1.2751   1.3437   1.4968   1.7060   1.8228   1.9265   2.0838   2.1670
     2.3112   2.6799   2.8968   2.9896   3.0425   3.1618   3.3132   3.3664
     3.6610   3.8364   3.9267   4.2262

          k =-0.0911 0.0526 0.0000 ( 16164 PWs)   bands (ev):

   -77.6712 -77.6603 -77.6255 -77.6075 -77.5966 -77.5834 -77.5700 -77.5157
   -77.5148 -77.4934 -77.4800 -77.4797 -39.7916 -39.7822 -39.7140 -39.7096
   -39.6542 -39.6332 -39.5620 -39.5562 -39.5004 -39.4927 -39.4688 -39.4577
   -39.2964 -39.2650 -39.2539 -39.2516 -39.2197 -39.2116 -39.2086 -39.2038
   -39.1961 -39.1723 -39.1560 -39.1528 -39.1157 -39.0989 -39.0853 -39.0730
   -39.0059 -38.9949 -38.9700 -38.9654 -38.8962 -38.8386 -38.7980 -38.7964
    -4.2894  -4.2608  -2.8367  -2.6846  -2.1568  -2.1260  -2.1182  -2.1107
    -2.0761  -2.0211  -1.3723  -1.2870  -1.2021  -0.9625  -0.7988  -0.7841
    -0.7658  -0.4042  -0.3609  -0.3325  -0.1561   0.0654   0.1541   0.5694
     0.6717   0.8766   0.9332   0.9792   1.0037   1.0265   1.0442   1.1108
     1.3906   1.4129   1.4167   1.5363   1.5479   1.5562   2.1165   2.1205
     2.4264   2.7798   2.9819   2.9900   3.0062   3.0763   3.4178   3.4291
     3.4603   3.8826   3.9315   3.9674

          k =-0.0911 0.0877 0.0000 ( 16218 PWs)   bands (ev):

   -77.6750 -77.6519 -77.6322 -77.6072 -77.5945 -77.5820 -77.5715 -77.5216
   -77.5041 -77.4936 -77.4908 -77.4733 -39.7959 -39.7425 -39.7335 -39.6846
   -39.6524 -39.6454 -39.6313 -39.5567 -39.5028 -39.4723 -39.4392 -39.4004
   -39.3622 -39.3143 -39.2940 -39.2526 -39.2327 -39.2190 -39.2134 -39.2021
   -39.1826 -39.1711 -39.1576 -39.1222 -39.0990 -39.0808 -39.0466 -39.0449
   -39.0071 -38.9979 -38.9444 -38.9358 -38.9225 -38.8531 -38.8451 -38.7925
    -4.5931  -3.6478  -2.8703  -2.8129  -2.4897  -2.2293  -2.1236  -2.0884
    -1.7978  -1.7690  -1.4970  -1.3705  -1.2244  -1.0524  -0.9665  -0.7621
    -0.5964  -0.4333  -0.3675  -0.2991  -0.2073   0.0008   0.1657   0.3158
     0.4712   0.7293   0.8324   0.9154   0.9430   0.9963   1.0886   1.1477
     1.2751   1.3437   1.4968   1.7060   1.8228   1.9265   2.0839   2.1670
     2.3112   2.6799   2.8968   2.9896   3.0426   3.1617   3.3132   3.3664
     3.6610   3.8364   3.9267   4.2262

          k =-0.0911 0.1228 0.0000 ( 16218 PWs)   bands (ev):

   -77.6750 -77.6520 -77.6321 -77.6073 -77.5944 -77.5818 -77.5718 -77.5216
   -77.5041 -77.4936 -77.4908 -77.4733 -39.7959 -39.7424 -39.7335 -39.6846
   -39.6526 -39.6454 -39.6312 -39.5567 -39.5028 -39.4725 -39.4390 -39.4004
   -39.3621 -39.3143 -39.2941 -39.2527 -39.2327 -39.2189 -39.2134 -39.2022
   -39.1825 -39.1711 -39.1576 -39.1222 -39.0990 -39.0808 -39.0466 -39.0449
   -39.0071 -38.9979 -38.9444 -38.9358 -38.9227 -38.8530 -38.8449 -38.7925
    -4.5931  -3.6478  -2.8703  -2.8129  -2.4897  -2.2293  -2.1236  -2.0884
    -1.7979  -1.7690  -1.4970  -1.3705  -1.2244  -1.0524  -0.9665  -0.7621
    -0.5964  -0.4333  -0.3675  -0.2991  -0.2073   0.0008   0.1656   0.3158
     0.4712   0.7293   0.8324   0.9154   0.9430   0.9963   1.0886   1.1477
     1.2751   1.3437   1.4968   1.7061   1.8228   1.9265   2.0839   2.1669
     2.3112   2.6799   2.8968   2.9896   3.0425   3.1618   3.3132   3.3664
     3.6610   3.8364   3.9267   4.2262

          k =-0.0911-0.0526 0.0000 ( 16164 PWs)   bands (ev):

   -77.6711 -77.6604 -77.6254 -77.6077 -77.5963 -77.5830 -77.5704 -77.5156
   -77.5148 -77.4934 -77.4802 -77.4795 -39.7915 -39.7823 -39.7141 -39.7096
   -39.6544 -39.6331 -39.5620 -39.5561 -39.5005 -39.4927 -39.4689 -39.4575
   -39.2965 -39.2645 -39.2541 -39.2513 -39.2199 -39.2115 -39.2086 -39.2041
   -39.1960 -39.1721 -39.1560 -39.1528 -39.1159 -39.0987 -39.0852 -39.0731
   -39.0060 -38.9948 -38.9699 -38.9655 -38.8966 -38.8383 -38.7980 -38.7964
    -4.2894  -4.2608  -2.8368  -2.6845  -2.1569  -2.1259  -2.1182  -2.1108
    -2.0761  -2.0212  -1.3722  -1.2870  -1.2021  -0.9624  -0.7989  -0.7840
    -0.7659  -0.4043  -0.3609  -0.3325  -0.1561   0.0655   0.1540   0.5694
     0.6717   0.8767   0.9331   0.9792   1.0037   1.0265   1.0442   1.1108
     1.3906   1.4129   1.4166   1.5363   1.5478   1.5562   2.1164   2.1206
     2.4264   2.7798   2.9819   2.9900   3.0062   3.0762   3.4178   3.4290
     3.4604   3.8827   3.9313   3.9676

     the Fermi energy is     2.9375 ev

!    total energy              =   -2306.99607381 Ry
     Harris-Foulkes estimate   =   -2306.99608216 Ry
     estimated scf accuracy    <       0.00000897 Ry

     The total energy is the sum of the following terms:

     one-electron contribution =  -18481.14830353 Ry
     hartree contribution      =    9225.39453553 Ry
     xc contribution           =    -649.96583346 Ry
     ewald contribution        =    7598.79123209 Ry
     electric field correction =       0.00000043 Ry
     smearing contrib. (-TS)   =      -0.06770486 Ry

     convergence has been achieved in  14 iterations
 
 BEEF-vdW xc energy contributions
           1 :   -577.985945926662     
           2 :    537.464115116176     
           3 :   -464.662149869886     
           4 :    373.348812469848     
           5 :   -278.779659724274     
           6 :    193.794566832348     
           7 :   -126.186190380381     
           8 :    77.9642572278634     
           9 :   -46.4549505834527     
          10 :    26.5379873522400     
          11 :   -13.0367242814750     
          12 :    2.40215711730616     
          13 :    6.72330089854108     
          14 :   -13.9721434117785     
          15 :    18.2947473343802     
          16 :   -19.0223531059980     
          17 :    16.5059421464168     
          18 :   -12.1363201391987     
          19 :    7.82542358664136     
          20 :   -5.24330702212228     
          21 :    5.17550432009682     
          22 :   -7.28190495786203     
          23 :    10.3386882944303     
          24 :   -12.8302796464541     
          25 :    13.6146253151253     
          26 :   -12.3726163721914     
          27 :    9.66252989289546     
          28 :   -6.58855524411865     
          29 :    4.26367620077565     
          30 :   -3.32682595531969     
          31 :   -48.0050685797964     
          32 :   -35.6353129767814     

     Forces acting on atoms (Ry/au):


     negative rho (up, down):  1.619E+00 0.000E+00
     atom    1 type  1   force =     0.00002269    0.00001269    0.01998927
     atom    2 type  1   force =    -0.00002304   -0.00161557    0.02071444
     atom    3 type  1   force =    -0.00140401    0.00080441    0.02073342
     atom    4 type  1   force =     0.00136546    0.00080538    0.02084827
     atom    5 type  1   force =    -0.00082428    0.00049922    0.00779702
     atom    6 type  1   force =     0.00083115    0.00049289    0.00782766
     atom    7 type  1   force =    -0.00000947   -0.00001163   -0.01705511
     atom    8 type  1   force =     0.00001422   -0.00100946    0.00777089
     atom    9 type  1   force =     0.00635286    0.00368388    0.00786330
     atom   10 type  1   force =    -0.00632918    0.00368688    0.00795499
     atom   11 type  1   force =     0.00000497   -0.00734094    0.00785283
     atom   12 type  1   force =    -0.00000119   -0.00001092   -0.03661483
     atom   13 type  2   force =    -0.00000021    0.00000316   -0.07568216

     Total force =     0.097948     Total SCF correction =     0.025325
     SCF correction compared to forces is large: reduce conv_thr to get better values


     entering subroutine stress ...


     negative rho (up, down):  1.619E+00 0.000E+00
          total   stress  (Ry/bohr**3)                   (kbar)     P=  -30.54
  -0.00018085   0.00000001   0.00000001        -26.60      0.00      0.00
   0.00000001  -0.00018089   0.00000001          0.00    -26.61      0.00
   0.00000001   0.00000001  -0.00026110          0.00      0.00    -38.41

 !ASE

     Writing output data file calc.save
 
     init_run     :     15.29s CPU     21.89s WALL (       1 calls)
     electrons    :    502.06s CPU    680.84s WALL (       1 calls)
     forces       :      5.68s CPU      6.46s WALL (       1 calls)
     stress       :     18.63s CPU     19.99s WALL (       1 calls)

     Called by init_run:
     wfcinit      :     12.12s CPU     17.79s WALL (       1 calls)
     potinit      :      1.40s CPU      2.08s WALL (       1 calls)

     Called by electrons:
     c_bands      :    369.51s CPU    497.85s WALL (      14 calls)
     sum_band     :     62.10s CPU     86.39s WALL (      14 calls)
     v_of_rho     :     17.32s CPU     25.46s WALL (      15 calls)
     newd         :     16.79s CPU     17.14s WALL (      15 calls)
     mix_rho      :      0.64s CPU      0.94s WALL (      14 calls)
     vdW_energy   :      2.06s CPU      2.07s WALL (      51 calls)
     vdW_ffts     :     36.41s CPU     55.36s WALL (     104 calls)
     vdW_v        :      6.33s CPU      9.20s WALL (      51 calls)

     Called by c_bands:
     init_us_2    :      0.97s CPU      1.01s WALL (     620 calls)
     cegterg      :    356.40s CPU    484.11s WALL (     280 calls)

     Called by *egterg:
     h_psi        :    231.40s CPU    351.15s WALL (    1597 calls)
     s_psi        :     13.46s CPU     13.49s WALL (    1597 calls)
     g_psi        :      0.46s CPU      0.45s WALL (    1297 calls)
     cdiaghg      :     79.26s CPU     81.85s WALL (    1577 calls)

     Called by h_psi:
     add_vuspsi   :     13.97s CPU     14.03s WALL (    1597 calls)

     General routines
     calbec       :     28.95s CPU     34.97s WALL (    1917 calls)
     fft          :     54.27s CPU     83.00s WALL (    3093 calls)
     ffts         :      0.15s CPU      0.23s WALL (      29 calls)
     fftw         :    226.14s CPU    363.01s WALL (  174228 calls)
     interpolate  :      0.62s CPU      0.93s WALL (      29 calls)
     davcio       :      0.00s CPU      0.02s WALL (      20 calls)
 
     Parallel routines
     fft_scatter  :    251.95s CPU    415.91s WALL (  177350 calls)
 
     PWSCF        :  9m 2.53s CPU    12m10.62s WALL

 
   This run was terminated on:   5:34:34  14Jan2018            

=------------------------------------------------------------------------------=
   JOB DONE.
=------------------------------------------------------------------------------=
Job  /afs/slac/g/suncat/bin/suncat-tsmpirun -x LD_LIBRARY_PATH -wdir /scratch/qe842473_uOuG7 pw.x -in pw.inp

TID   HOST_NAME   COMMAND_LINE            STATUS            TERMINATION_TIME
===== ========== ================  =======================  ===================
00000 suncat0050 pw.x -in pw.inp   Done                     01/14/2018 05:34:34
00001 suncat0050 pw.x -in pw.inp   Done                     01/14/2018 05:34:34
00002 suncat0050 pw.x -in pw.inp   Done                     01/14/2018 05:34:34
00003 suncat0050 pw.x -in pw.inp   Done                     01/14/2018 05:34:34
00004 suncat0050 pw.x -in pw.inp   Done                     01/14/2018 05:34:34
00005 suncat0050 pw.x -in pw.inp   Done                     01/14/2018 05:34:34
00006 suncat0050 pw.x -in pw.inp   Done                     01/14/2018 05:34:34
00007 suncat0050 pw.x -in pw.inp   Done                     01/14/2018 05:34:34
00008 suncat0242 pw.x -in pw.inp   Done                     01/14/2018 05:34:34
00009 suncat0242 pw.x -in pw.inp   Done                     01/14/2018 05:34:34
00010 suncat0242 pw.x -in pw.inp   Done                     01/14/2018 05:34:34
00011 suncat0242 pw.x -in pw.inp   Done                     01/14/2018 05:34:34
00012 suncat0242 pw.x -in pw.inp   Done                     01/14/2018 05:34:34
00013 suncat0242 pw.x -in pw.inp   Done                     01/14/2018 05:34:34
00014 suncat0242 pw.x -in pw.inp   Done                     01/14/2018 05:34:34
00015 suncat0242 pw.x -in pw.inp   Done                     01/14/2018 05:34:34
00016 suncat0241 pw.x -in pw.inp   Done                     01/14/2018 05:34:34
00017 suncat0241 pw.x -in pw.inp   Done                     01/14/2018 05:34:34
00018 suncat0241 pw.x -in pw.inp   Done                     01/14/2018 05:34:34
00019 suncat0241 pw.x -in pw.inp   Done                     01/14/2018 05:34:34
00020 suncat0241 pw.x -in pw.inp   Done                     01/14/2018 05:34:34
00021 suncat0241 pw.x -in pw.inp   Done                     01/14/2018 05:34:34
00022 suncat0241 pw.x -in pw.inp   Done                     01/14/2018 05:34:34
00023 suncat0241 pw.x -in pw.inp   Done                     01/14/2018 05:34:34
00024 suncat0240 pw.x -in pw.inp   Done                     01/14/2018 05:34:34
00025 suncat0240 pw.x -in pw.inp   Done                     01/14/2018 05:34:34
00026 suncat0240 pw.x -in pw.inp   Done                     01/14/2018 05:34:34
00027 suncat0240 pw.x -in pw.inp   Done                     01/14/2018 05:34:34
00028 suncat0240 pw.x -in pw.inp   Done                     01/14/2018 05:34:34
00029 suncat0240 pw.x -in pw.inp   Done                     01/14/2018 05:34:34
00030 suncat0240 pw.x -in pw.inp   Done                     01/14/2018 05:34:34
00031 suncat0240 pw.x -in pw.inp   Done                     01/14/2018 05:34:34

     Program PWSCF v.5.1rc2 (svn rev. 11289) starts on 14Jan2018 at  5:34:40 

     This program is part of the open-source Quantum ESPRESSO suite
     for quantum simulation of materials; please cite
         "P. Giannozzi et al., J. Phys.:Condens. Matter 21 395502 (2009);
          URL http://www.quantum-espresso.org", 
     in publications or presentations arising from this work. More details at
     http://www.quantum-espresso.org/quote

     Parallel version (MPI), running on    32 processors
     R & G space division:  proc/nbgrp/npool/nimage =      32
     Reading input from pw.inp
     Message from routine read_cards :
     DEPRECATED: no units specified in CELL_PARAMETERS card

     Current dimensions of program PWSCF are:
     Max number of different atomic species (ntypx) = 10
     Max number of k-points (npk) =  40000
     Max angular momentum in pseudopotentials (lmaxx) =  3
     Presently stress not available with electric field


     **************************************************************************
     Initializing libbeef V0.1.1 with the BEEF-vdW functional.
     Citation: Wellendorff et al., PRB 85, 235149 (2012).
     **************************************************************************


     IMPORTANT: XC functional enforced from input :
     Exchange-correlation      = BEEF-VDW ( 1  4 27 13 2)
     Any further DFT definition will be discarded
     Please, verify this is what you really want


     Subspace diagonalization in iterative solution of the eigenvalue problem:
     a serial algorithm will be used

 
     Parallelization info
     --------------------
     sticks:   dense  smooth     PW     G-vecs:    dense   smooth      PW
     Min          84      33      9                16000     4018     623
     Max          85      34     10                16029     4064     652
     Sum        2713    1075    313               512659   129281   20533
 


     bravais-lattice index     =            0
     lattice parameter (alat)  =       1.8897  a.u.
     unit-cell volume          =    4306.9643 (a.u.)^3
     number of atoms/cell      =           13
     number of atomic types    =            2
     number of electrons       =       181.00
     number of Kohn-Sham states=          100
     kinetic-energy cutoff     =      36.7493  Ry
     charge density cutoff     =     367.4932  Ry
     convergence threshold     =      1.0E-05
     mixing beta               =       0.3000
     number of iterations used =           10  plain     mixing
     Exchange-correlation      = BEEF-VDW ( 1  4 27 13 2)
     nstep                     =           50


     celldm(1)=   1.889726  celldm(2)=   0.000000  celldm(3)=   0.000000
     celldm(4)=   0.000000  celldm(5)=   0.000000  celldm(6)=   0.000000

     crystal axes: (cart. coord. in units of alat)
               a(1) = (   5.486772   0.000000   0.000000 )  
               a(2) = (   2.743386   4.751684   0.000000 )  
               a(3) = (   0.000000   0.000000  24.479931 )  

     reciprocal axes: (cart. coord. in units 2 pi/alat)
               b(1) = (  0.182257 -0.105226  0.000000 )  
               b(2) = (  0.000000  0.210452  0.000000 )  
               b(3) = (  0.000000  0.000000  0.040850 )  


     PseudoPot. # 1 for Re read from file:
     /afs/slac.stanford.edu/u/if/mamunm/psp/gbrv1.5pbe/Re.UPF
     MD5 check sum: 85f993410f3e006da9d71c142b4ad953
     Pseudo is Ultrasoft + core correction, Zval = 15.0
     Generated by new atomic code, or converted to UPF format
     Using radial grid of  981 points,  8 beta functions with: 
                l(1) =   0
                l(2) =   0
                l(3) =   1
                l(4) =   1
                l(5) =   2
                l(6) =   2
                l(7) =   3
                l(8) =   3
     Q(r) pseudized with  8 coefficients,  rinner =    1.150   1.150   1.150
                                                       1.150   1.150   1.150
                                                       1.150

     PseudoPot. # 2 for H  read from file:
     /afs/slac.stanford.edu/u/if/mamunm/psp/gbrv1.5pbe/H.UPF
     MD5 check sum: 761ae9a214b05c3daf00ab9f6b793d6f
     Pseudo is Ultrasoft, Zval =  1.0
     Generated by new atomic code, or converted to UPF format
     Using radial grid of  615 points,  2 beta functions with: 
                l(1) =   0
                l(2) =   0
     Q(r) pseudized with  8 coefficients,  rinner =    0.700

     vdW kernel table read from file vdW_kernel_table
     MD5 check sum: 095c7af220d748ca6e76c0b4c6cfb241

     atomic species   valence    mass     pseudopotential
        Re1           15.00   186.20700     Re( 1.00)
        H1             1.00     1.00800     H ( 1.00)

     No symmetry found



   Cartesian axes

     site n.     atom                  positions (alat units)
         1           Re1 tau(   1) = (   1.3716930   0.7919474  10.0000000  )
         2           Re1 tau(   2) = (   4.1150791   0.7919474  10.0000000  )
         3           Re1 tau(   3) = (   2.7433861   3.1677894  10.0000000  )
         4           Re1 tau(   4) = (   5.4867722   3.1677894  10.0000000  )
         5           Re1 tau(   5) = (   5.4867722   1.5838947  12.2399654  )
         6           Re1 tau(   6) = (   2.7433861   1.5838947  12.2399654  )
         7           Re1 tau(   7) = (   6.8584652   3.9597368  12.2399654  )
         8           Re1 tau(   8) = (   4.1150791   3.9597368  12.2399654  )
         9           Re1 tau(   9) = (   0.0163339   0.0094716  14.5001481  )
        10           Re1 tau(  10) = (   2.7271131   0.0094793  14.5003838  )
        11           Re1 tau(  11) = (   1.3717058   2.3569677  14.5001212  )
        12           Re1 tau(  12) = (   4.1150761   2.3758140  14.3857902  )
        13           H1  tau(  13) = (   1.3716925   0.7919555  16.1053441  )

     number of k points=    20  Fermi-Dirac smearing, width (Ry)=  0.0110
                       cart. coord. in units 2pi/alat
        k(    1) = (   0.0000000   0.0000000   0.0000000), wk =   0.0555556
        k(    2) = (   0.0000000   0.0350753   0.0000000), wk =   0.1111111
        k(    3) = (   0.0000000   0.0701506   0.0000000), wk =   0.1111111
        k(    4) = (   0.0000000  -0.1052259   0.0000000), wk =   0.0555556
        k(    5) = (   0.0303761  -0.0175376   0.0000000), wk =   0.1111111
        k(    6) = (   0.0303761   0.0175376   0.0000000), wk =   0.1111111
        k(    7) = (   0.0303761   0.0526129   0.0000000), wk =   0.1111111
        k(    8) = (   0.0303761  -0.1227635   0.0000000), wk =   0.1111111
        k(    9) = (   0.0303761  -0.0876882   0.0000000), wk =   0.1111111
        k(   10) = (   0.0303761  -0.0526129   0.0000000), wk =   0.1111111
        k(   11) = (   0.0607522  -0.0350753   0.0000000), wk =   0.1111111
        k(   12) = (   0.0607522   0.0000000   0.0000000), wk =   0.1111111
        k(   13) = (   0.0607522   0.0350753   0.0000000), wk =   0.1111111
        k(   14) = (   0.0607522  -0.1403011   0.0000000), wk =   0.1111111
        k(   15) = (   0.0607522  -0.1052259   0.0000000), wk =   0.1111111
        k(   16) = (   0.0607522  -0.0701506   0.0000000), wk =   0.1111111
        k(   17) = (  -0.0911283   0.0526129   0.0000000), wk =   0.0555556
        k(   18) = (  -0.0911283   0.0876882   0.0000000), wk =   0.1111111
        k(   19) = (  -0.0911283   0.1227635   0.0000000), wk =   0.1111111
        k(   20) = (  -0.0911283  -0.0526129   0.0000000), wk =   0.0555556

     Dense  grid:   512659 G-vectors     FFT dimensions: (  64,  64, 288)

     Smooth grid:   129281 G-vectors     FFT dimensions: (  45,  45, 180)

     Largest allocated arrays     est. size (Mb)     dimensions
        Kohn-Sham Wavefunctions         0.79 Mb     (     516,  100)
        NL pseudopotentials             3.04 Mb     (     516,  386)
        Each V/rho on FFT grid          0.56 Mb     (   36864)
        Each G-vector array             0.12 Mb     (   16029)
        G-vector shells                 0.06 Mb     (    7603)
     Largest temporary arrays     est. size (Mb)     dimensions
        Auxiliary wavefunctions         3.15 Mb     (     516,  400)
        Each subspace H/S matrix        2.44 Mb     (     400,  400)
        Each <psi_i|beta_j> matrix      0.59 Mb     (     386,  100)
        Arrays for rho mixing           5.62 Mb     (   36864,   10)

     Initial potential from superposition of free atoms
     Check: negative starting charge=   -1.539241

     starting charge  174.99945, renormalised to  181.00000

     negative rho (up, down):  1.592E+00 0.000E+00


     ************************************************************************
     *
     * You are using vdW-DF for exchange-correlation in this calculation.
     * Please cite the following three references that made this development
     * possible:
     *
     *   M. Dion, H. Rydberg, E. Schroder, D. C. Langreth, and
     *   B. I. Lundqvist, Phys. Rev. Lett. 92, 246401 (2004).
     *
     *   T. Thonhauser, V. R. Cooper, S. Li, A. Puzder, P. Hyldgaard, and
     *   D. C. Langreth, Phys. Rev. B 76, 125112 (2007).
     *
     *   G. Roman-Perez and J. M. Soler, Phys. Rev. Lett. 103, 096102 (2009).
     *
     *
     * If you are using vdW-DF2, please also cite:
     *
     *   K. Lee, E. D. Murray, L. Kong, B. I. Lundqvist, and
     *   D. C. Langreth, Phys. Rev. B 82, 081101(R) (2010).
     *
     *
     * If you are calculating the stress with vdW-DF, please also cite:
     *
     *   R. Sabatini, E. Kucukbenli, B. Kolb, T. Thonhauser, and
     *   S. de Gironcoli, J. Phys.: Condens. Matter 24, 424209 (2012).
     *
     ************************************************************************

     Carrying out vdW-DF run using the following parameters:

     Nqs =      20    Nr_points =    1024   r_max =   100.000
     q_mesh =
               0.00001000     0.04494208     0.09755937     0.15916263
               0.23128650     0.31572767     0.41458969     0.53033537
               0.66584808     0.82450364     1.01025438     1.22772762
               1.48234092     1.78043706     2.12944203     2.53805004
               3.01644009     3.57652955     4.23227104     5.00000000

     Gradients computed in reciprocal space

     ************************************************************************


 
     Adding external electric field

     Computed dipole along edir(3) : 
        Dipole               -0.2506 Ry au,         -0.6369 Debye
        Dipole field         -0.0007 Ry au
 
        Potential amp.        0.0660 Ry
        Total length         45.1039 bohr
 
     Starting wfc are  157 randomized atomic wfcs

     total cpu time spent up to now is       38.8 secs

     per-process dynamical memory:    48.6 Mb

     Self-consistent Calculation

     iteration #  1     ecut=    36.75 Ry     beta=0.30
     Davidson diagonalization with overlap
     ethr =  1.00E-02,  avg # of iterations =  2.0

     negative rho (up, down):  1.614E+00 0.000E+00
 
     Adding external electric field

     Computed dipole along edir(3) : 
        Dipole                2.9994 Ry au,          7.6237 Debye
        Dipole field          0.0088 Ry au
 
        Potential amp.       -0.7894 Ry
        Total length         45.1039 bohr
 

     total cpu time spent up to now is       85.1 secs

     total energy              =   -2306.33229940 Ry
     Harris-Foulkes estimate   =   -2307.80003861 Ry
     estimated scf accuracy    <       3.46779664 Ry

     iteration #  2     ecut=    36.75 Ry     beta=0.30
     Davidson diagonalization with overlap
     ethr =  1.92E-03,  avg # of iterations = 10.3

     negative rho (up, down):  1.615E+00 0.000E+00
 
     Adding external electric field

     Computed dipole along edir(3) : 
        Dipole               -0.5683 Ry au,         -1.4446 Debye
        Dipole field         -0.0017 Ry au
 
        Potential amp.        0.1496 Ry
        Total length         45.1039 bohr
 

     total cpu time spent up to now is      164.4 secs

     total energy              =   -2299.14843656 Ry
     Harris-Foulkes estimate   =   -2314.97439173 Ry
     estimated scf accuracy    <     506.68855351 Ry

     iteration #  3     ecut=    36.75 Ry     beta=0.30
     Davidson diagonalization with overlap
     ethr =  1.92E-03,  avg # of iterations =  7.0

     negative rho (up, down):  1.620E+00 0.000E+00
 
     Adding external electric field

     Computed dipole along edir(3) : 
        Dipole               -0.4135 Ry au,         -1.0511 Debye
        Dipole field         -0.0012 Ry au
 
        Potential amp.        0.1088 Ry
        Total length         45.1039 bohr
 

     total cpu time spent up to now is      230.5 secs

     total energy              =   -2306.82515258 Ry
     Harris-Foulkes estimate   =   -2307.27943475 Ry
     estimated scf accuracy    <       2.76262299 Ry

     iteration #  4     ecut=    36.75 Ry     beta=0.30
     Davidson diagonalization with overlap
     ethr =  1.53E-03,  avg # of iterations =  4.1

     negative rho (up, down):  1.627E+00 0.000E+00
 
     Adding external electric field

     Computed dipole along edir(3) : 
        Dipole               -0.4187 Ry au,         -1.0642 Debye
        Dipole field         -0.0012 Ry au
 
        Potential amp.        0.1102 Ry
        Total length         45.1039 bohr
 

     total cpu time spent up to now is      273.2 secs

     total energy              =   -2306.80930545 Ry
     Harris-Foulkes estimate   =   -2307.30102910 Ry
     estimated scf accuracy    <       3.25028491 Ry

     iteration #  5     ecut=    36.75 Ry     beta=0.30
     Davidson diagonalization with overlap
     ethr =  1.53E-03,  avg # of iterations =  2.8

     negative rho (up, down):  1.627E+00 0.000E+00
 
     Adding external electric field

     Computed dipole along edir(3) : 
        Dipole               -0.3990 Ry au,         -1.0141 Debye
        Dipole field         -0.0012 Ry au
 
        Potential amp.        0.1050 Ry
        Total length         45.1039 bohr
 

     total cpu time spent up to now is      310.4 secs

     total energy              =   -2306.96391613 Ry
     Harris-Foulkes estimate   =   -2306.99763048 Ry
     estimated scf accuracy    <       0.44812810 Ry

     iteration #  6     ecut=    36.75 Ry     beta=0.30
     Davidson diagonalization with overlap
     ethr =  2.48E-04,  avg # of iterations =  5.0

     negative rho (up, down):  1.625E+00 0.000E+00
 
     Adding external electric field

     Computed dipole along edir(3) : 
        Dipole               -0.3030 Ry au,         -0.7703 Debye
        Dipole field         -0.0009 Ry au
 
        Potential amp.        0.0798 Ry
        Total length         45.1039 bohr
 

     total cpu time spent up to now is      354.3 secs

     total energy              =   -2307.02057512 Ry
     Harris-Foulkes estimate   =   -2307.03038645 Ry
     estimated scf accuracy    <       0.12527234 Ry

     iteration #  7     ecut=    36.75 Ry     beta=0.30
     Davidson diagonalization with overlap
     ethr =  6.92E-05,  avg # of iterations =  2.4

     negative rho (up, down):  1.622E+00 0.000E+00
 
     Adding external electric field

     Computed dipole along edir(3) : 
        Dipole               -0.1508 Ry au,         -0.3833 Debye
        Dipole field         -0.0004 Ry au
 
        Potential amp.        0.0397 Ry
        Total length         45.1039 bohr
 

     total cpu time spent up to now is      389.5 secs

     total energy              =   -2307.01917056 Ry
     Harris-Foulkes estimate   =   -2307.02611903 Ry
     estimated scf accuracy    <       0.04967792 Ry

     iteration #  8     ecut=    36.75 Ry     beta=0.30
     Davidson diagonalization with overlap
     ethr =  2.74E-05,  avg # of iterations =  4.7

     negative rho (up, down):  1.621E+00 0.000E+00
 
     Adding external electric field

     Computed dipole along edir(3) : 
        Dipole               -0.0883 Ry au,         -0.2243 Debye
        Dipole field         -0.0003 Ry au
 
        Potential amp.        0.0232 Ry
        Total length         45.1039 bohr
 

     total cpu time spent up to now is      431.5 secs

     total energy              =   -2307.02371746 Ry
     Harris-Foulkes estimate   =   -2307.02486195 Ry
     estimated scf accuracy    <       0.00855957 Ry

     iteration #  9     ecut=    36.75 Ry     beta=0.30
     Davidson diagonalization with overlap
     ethr =  4.73E-06,  avg # of iterations =  7.2

     negative rho (up, down):  1.620E+00 0.000E+00
 
     Adding external electric field

     Computed dipole along edir(3) : 
        Dipole               -0.0345 Ry au,         -0.0877 Debye
        Dipole field         -0.0001 Ry au
 
        Potential amp.        0.0091 Ry
        Total length         45.1039 bohr
 

     total cpu time spent up to now is      479.4 secs

     total energy              =   -2307.02464954 Ry
     Harris-Foulkes estimate   =   -2307.02494190 Ry
     estimated scf accuracy    <       0.00232298 Ry

     iteration # 10     ecut=    36.75 Ry     beta=0.30
     Davidson diagonalization with overlap
     ethr =  1.28E-06,  avg # of iterations =  4.0

     negative rho (up, down):  1.620E+00 0.000E+00
 
     Adding external electric field

     Computed dipole along edir(3) : 
        Dipole                0.0019 Ry au,          0.0049 Debye
        Dipole field          0.0000 Ry au
 
        Potential amp.       -0.0005 Ry
        Total length         45.1039 bohr
 

     total cpu time spent up to now is      519.4 secs

     total energy              =   -2307.02480402 Ry
     Harris-Foulkes estimate   =   -2307.02491085 Ry
     estimated scf accuracy    <       0.00074540 Ry

     iteration # 11     ecut=    36.75 Ry     beta=0.30
     Davidson diagonalization with overlap
     ethr =  4.12E-07,  avg # of iterations =  4.3

     negative rho (up, down):  1.620E+00 0.000E+00
 
     Adding external electric field

     Computed dipole along edir(3) : 
        Dipole                0.0054 Ry au,          0.0136 Debye
        Dipole field          0.0000 Ry au
 
        Potential amp.       -0.0014 Ry
        Total length         45.1039 bohr
 

     total cpu time spent up to now is      562.4 secs

     total energy              =   -2307.02492674 Ry
     Harris-Foulkes estimate   =   -2307.02493549 Ry
     estimated scf accuracy    <       0.00013382 Ry

     iteration # 12     ecut=    36.75 Ry     beta=0.30
     Davidson diagonalization with overlap
     ethr =  7.39E-08,  avg # of iterations =  4.5

     negative rho (up, down):  1.620E+00 0.000E+00
 
     Adding external electric field

     Computed dipole along edir(3) : 
        Dipole                0.0219 Ry au,          0.0557 Debye
        Dipole field          0.0001 Ry au
 
        Potential amp.       -0.0058 Ry
        Total length         45.1039 bohr
 

     total cpu time spent up to now is      607.1 secs

     total energy              =   -2307.02495697 Ry
     Harris-Foulkes estimate   =   -2307.02495340 Ry
     estimated scf accuracy    <       0.00015946 Ry

     iteration # 13     ecut=    36.75 Ry     beta=0.30
     Davidson diagonalization with overlap
     ethr =  7.39E-08,  avg # of iterations =  3.5

     negative rho (up, down):  1.620E+00 0.000E+00
 
     Adding external electric field

     Computed dipole along edir(3) : 
        Dipole                0.0283 Ry au,          0.0720 Debye
        Dipole field          0.0001 Ry au
 
        Potential amp.       -0.0075 Ry
        Total length         45.1039 bohr
 

     total cpu time spent up to now is      644.6 secs

     total energy              =   -2307.02496034 Ry
     Harris-Foulkes estimate   =   -2307.02497109 Ry
     estimated scf accuracy    <       0.00006703 Ry

     iteration # 14     ecut=    36.75 Ry     beta=0.30
     Davidson diagonalization with overlap
     ethr =  3.70E-08,  avg # of iterations =  4.0

     negative rho (up, down):  1.620E+00 0.000E+00
 
     Adding external electric field

     Computed dipole along edir(3) : 
        Dipole                0.0287 Ry au,          0.0729 Debye
        Dipole field          0.0001 Ry au
 
        Potential amp.       -0.0076 Ry
        Total length         45.1039 bohr
 

     total cpu time spent up to now is      684.8 secs

     total energy              =   -2307.02496444 Ry
     Harris-Foulkes estimate   =   -2307.02496665 Ry
     estimated scf accuracy    <       0.00001956 Ry

     iteration # 15     ecut=    36.75 Ry     beta=0.30
     Davidson diagonalization with overlap
     ethr =  1.08E-08,  avg # of iterations =  3.2

     negative rho (up, down):  1.620E+00 0.000E+00

     negative rho (up, down):  1.620E+00 0.000E+00

     negative rho (up, down):  1.620E+00 0.000E+00

     negative rho (up, down):  1.620E+00 0.000E+00

     negative rho (up, down):  1.620E+00 0.000E+00

     negative rho (up, down):  1.620E+00 0.000E+00

     negative rho (up, down):  1.620E+00 0.000E+00

     negative rho (up, down):  1.620E+00 0.000E+00

     negative rho (up, down):  1.620E+00 0.000E+00

     negative rho (up, down):  1.620E+00 0.000E+00

     negative rho (up, down):  1.620E+00 0.000E+00

     negative rho (up, down):  1.620E+00 0.000E+00

     negative rho (up, down):  1.620E+00 0.000E+00

     negative rho (up, down):  1.620E+00 0.000E+00

     negative rho (up, down):  1.620E+00 0.000E+00

     negative rho (up, down):  1.620E+00 0.000E+00

     negative rho (up, down):  1.620E+00 0.000E+00

     negative rho (up, down):  1.620E+00 0.000E+00

     negative rho (up, down):  1.620E+00 0.000E+00

     negative rho (up, down):  1.620E+00 0.000E+00

     negative rho (up, down):  1.620E+00 0.000E+00

     negative rho (up, down):  1.620E+00 0.000E+00

     negative rho (up, down):  1.620E+00 0.000E+00

     negative rho (up, down):  1.620E+00 0.000E+00

     negative rho (up, down):  1.620E+00 0.000E+00

     negative rho (up, down):  1.620E+00 0.000E+00

     negative rho (up, down):  1.620E+00 0.000E+00

     negative rho (up, down):  1.620E+00 0.000E+00

     negative rho (up, down):  1.620E+00 0.000E+00

     negative rho (up, down):  1.620E+00 0.000E+00

     negative rho (up, down):  1.620E+00 0.000E+00

     negative rho (up, down):  1.620E+00 0.000E+00

     negative rho (up, down):  1.620E+00 0.000E+00

     negative rho (up, down):  1.620E+00 0.000E+00

     negative rho (up, down):  1.620E+00 0.000E+00
 
     Adding external electric field

     Computed dipole along edir(3) : 
        Dipole                0.0418 Ry au,          0.1062 Debye
        Dipole field          0.0001 Ry au
 
        Potential amp.       -0.0110 Ry
        Total length         45.1039 bohr
 

     total cpu time spent up to now is      777.1 secs

     End of self-consistent calculation

          k = 0.0000 0.0000 0.0000 ( 16091 PWs)   bands (ev):

   -77.6757 -77.5943 -77.5864 -77.5862 -77.5714 -77.5359 -77.5357 -77.5260
   -77.4650 -77.4491 -77.4420 -77.4419 -39.9553 -39.9206 -39.9205 -39.8217
   -39.7729 -39.7356 -39.7356 -39.6157 -39.6014 -39.6013 -39.3949 -39.3012
   -39.3011 -39.2614 -39.2433 -39.2335 -39.2334 -39.1743 -39.1742 -39.1641
   -39.0485 -39.0484 -39.0252 -38.9500 -38.9499 -38.9465 -38.9336 -38.9240
   -38.9240 -38.8718 -38.8718 -38.8635 -38.7235 -38.7235 -38.6664 -38.6664
    -6.3102  -4.4628  -3.8050  -3.3910  -3.3655  -3.3654  -3.0971  -3.0462
    -3.0462  -2.6136  -2.3555  -2.3554  -2.2011  -2.1597  -2.1597  -1.2274
    -0.6129  -0.6129  -0.0039   0.4446   0.4446   0.5103   0.7544   0.9440
     1.0863   1.0864   1.5043   1.5043   1.5840   1.5842   1.6202   1.6210
     1.6289   1.6290   1.8671   1.8671   2.6279   3.1861   3.1862   3.2786
     3.5638   3.5638   3.6218   4.1673   4.1674   4.3607   4.6251   4.6252
     4.7359   4.7360   4.9716   5.0428

          k = 0.0000 0.0351 0.0000 ( 16151 PWs)   bands (ev):

   -77.6697 -77.5924 -77.5892 -77.5864 -77.5729 -77.5385 -77.5359 -77.5218
   -77.4663 -77.4500 -77.4448 -77.4419 -39.9182 -39.8873 -39.8699 -39.8018
   -39.7386 -39.7096 -39.7027 -39.5836 -39.5696 -39.5489 -39.3958 -39.3390
   -39.3193 -39.3074 -39.2375 -39.2347 -39.2080 -39.1759 -39.1748 -39.1541
   -39.0635 -39.0608 -39.0211 -38.9838 -38.9667 -38.9652 -38.9551 -38.9424
   -38.9273 -38.9031 -38.8993 -38.8557 -38.7770 -38.7366 -38.7258 -38.6802
    -6.0293  -4.1917  -3.5226  -3.3411  -3.1510  -3.1324  -2.9797  -2.8704
    -2.8407  -2.4461  -2.2422  -2.1925  -2.0668  -1.9032  -1.8678  -1.1855
    -0.5796  -0.5399  -0.0314   0.4690   0.5422   0.5620   0.6809   0.7486
     0.8528   1.0544   1.0651   1.3272   1.3863   1.5039   1.6321   1.7157
     1.7291   1.7501   1.7858   2.1201   2.2954   2.7680   2.7927   2.8742
     3.3859   3.3860   3.6017   3.6708   3.8124   3.8380   3.9366   3.9879
     4.6547   4.7660   4.9465   5.0903

          k = 0.0000 0.0702 0.0000 ( 16185 PWs)   bands (ev):

   -77.6533 -77.6073 -77.5864 -77.5807 -77.5739 -77.5463 -77.5359 -77.5111
   -77.4716 -77.4524 -77.4495 -77.4419 -39.8347 -39.8047 -39.7532 -39.7210
   -39.6628 -39.6518 -39.6479 -39.5177 -39.4925 -39.4250 -39.4065 -39.3878
   -39.3855 -39.3361 -39.2325 -39.2185 -39.2047 -39.1801 -39.1681 -39.1273
   -39.1187 -39.1093 -39.1073 -39.0471 -39.0215 -39.0125 -38.9877 -38.9770
   -38.9585 -38.9497 -38.9155 -38.8959 -38.8516 -38.8210 -38.7692 -38.7171
    -5.2616  -3.5659  -3.4698  -2.8203  -2.7092  -2.5687  -2.5594  -2.3823
    -2.3456  -2.0596  -1.9169  -1.7124  -1.6917  -1.3023  -1.1274  -0.9868
    -0.5146  -0.4108  -0.2768  -0.0069   0.1389   0.2622   0.3377   0.5727
     0.7525   0.9067   0.9589   1.1644   1.2599   1.3229   1.3892   1.5493
     1.7352   1.8487   1.9408   1.9913   2.0689   2.1365   2.1577   2.2828
     2.3774   2.4087   2.8455   2.9780   3.0309   3.4974   3.5659   3.7701
     3.9626   4.2554   4.2707   4.3576

          k = 0.0000-0.1052 0.0000 ( 16164 PWs)   bands (ev):

   -77.6340 -77.6266 -77.5864 -77.5767 -77.5702 -77.5534 -77.5358 -77.5031
   -77.4776 -77.4537 -77.4510 -77.4419 -39.7778 -39.7464 -39.6936 -39.6750
   -39.6199 -39.6196 -39.5375 -39.5245 -39.4884 -39.4490 -39.4387 -39.4302
   -39.2824 -39.2347 -39.2235 -39.2233 -39.1918 -39.1809 -39.1691 -39.1617
   -39.1588 -39.1523 -39.1250 -39.1153 -39.0828 -39.0668 -39.0558 -39.0435
   -38.9745 -38.9585 -38.9329 -38.9175 -38.8694 -38.8020 -38.7732 -38.7596
    -4.2957  -4.2368  -2.9966  -2.6685  -2.2016  -2.1362  -2.1218  -2.0816
    -2.0644  -1.9703  -1.5615  -1.2919  -1.2496  -0.9159  -0.8336  -0.8186
    -0.7242  -0.4257  -0.3666  -0.2822  -0.1691   0.0860   0.2101   0.5383
     0.7619   0.8198   0.9275   0.9800   1.0414   1.0722   1.1005   1.1881
     1.3721   1.4496   1.4592   1.5685   1.6190   1.6518   2.0755   2.1830
     2.4080   2.8111   2.9742   3.0238   3.1087   3.1237   3.4283   3.5023
     3.5287   3.9031   3.9566   4.0085

          k = 0.0304-0.0175 0.0000 ( 16151 PWs)   bands (ev):

   -77.6697 -77.5924 -77.5892 -77.5864 -77.5729 -77.5386 -77.5358 -77.5218
   -77.4663 -77.4500 -77.4448 -77.4420 -39.9182 -39.8873 -39.8699 -39.8018
   -39.7386 -39.7096 -39.7027 -39.5836 -39.5696 -39.5489 -39.3958 -39.3390
   -39.3192 -39.3073 -39.2375 -39.2347 -39.2080 -39.1759 -39.1747 -39.1541
   -39.0635 -39.0608 -39.0210 -38.9838 -38.9668 -38.9651 -38.9552 -38.9424
   -38.9272 -38.9031 -38.8993 -38.8557 -38.7770 -38.7366 -38.7258 -38.6803
    -6.0293  -4.1917  -3.5226  -3.3411  -3.1510  -3.1323  -2.9796  -2.8704
    -2.8407  -2.4461  -2.2421  -2.1926  -2.0668  -1.9032  -1.8678  -1.1855
    -0.5796  -0.5399  -0.0314   0.4689   0.5423   0.5619   0.6810   0.7485
     0.8528   1.0543   1.0652   1.3273   1.3863   1.5039   1.6321   1.7155
     1.7291   1.7500   1.7859   2.1201   2.2955   2.7680   2.7927   2.8742
     3.3859   3.3860   3.6017   3.6709   3.8125   3.8379   3.9366   3.9879
     4.6548   4.7659   4.9463   5.0904

          k = 0.0304 0.0175 0.0000 ( 16151 PWs)   bands (ev):

   -77.6697 -77.5924 -77.5893 -77.5863 -77.5730 -77.5387 -77.5357 -77.5218
   -77.4663 -77.4500 -77.4448 -77.4420 -39.9181 -39.8874 -39.8699 -39.8018
   -39.7386 -39.7096 -39.7027 -39.5836 -39.5696 -39.5489 -39.3958 -39.3390
   -39.3192 -39.3074 -39.2375 -39.2347 -39.2080 -39.1758 -39.1748 -39.1541
   -39.0634 -39.0609 -39.0211 -38.9839 -38.9668 -38.9651 -38.9552 -38.9424
   -38.9272 -38.9031 -38.8993 -38.8557 -38.7770 -38.7366 -38.7258 -38.6803
    -6.0293  -4.1917  -3.5226  -3.3411  -3.1510  -3.1324  -2.9797  -2.8704
    -2.8407  -2.4461  -2.2422  -2.1925  -2.0668  -1.9032  -1.8678  -1.1855
    -0.5796  -0.5399  -0.0314   0.4689   0.5422   0.5620   0.6810   0.7486
     0.8528   1.0544   1.0651   1.3273   1.3863   1.5039   1.6321   1.7156
     1.7291   1.7500   1.7859   2.1201   2.2955   2.7680   2.7927   2.8742
[...]
     2.3088   2.8013   3.0301   3.0841   3.1157   3.2594   3.3800   3.4405
     3.6806   3.9663   4.0729   4.3501

          k = 0.0304-0.0526 0.0000 ( 16230 PWs)   bands (ev):

   -77.6250 -77.5663 -77.5531 -77.5388 -77.5137 -77.4793 -77.4723 -77.4643
   -77.4348 -77.4284 -77.4173 -77.4122 -39.8349 -39.7836 -39.7755 -39.7638
   -39.7016 -39.6307 -39.6275 -39.5164 -39.4523 -39.4327 -39.3620 -39.3521
   -39.3222 -39.3072 -39.1957 -39.1676 -39.1559 -39.1347 -39.1285 -39.1154
   -39.0932 -39.0373 -39.0062 -38.9923 -38.9821 -38.9628 -38.9407 -38.9281
   -38.8983 -38.8821 -38.8467 -38.8381 -38.8241 -38.7780 -38.7192 -38.6816
    -5.6435  -4.4026  -3.2306  -3.1670  -3.0832  -2.7906  -2.7117  -2.6474
    -2.4520  -2.2670  -2.0329  -1.9856  -1.7729  -1.5832  -1.2862  -1.0901
    -0.5261  -0.4413  -0.1626   0.0924   0.3474   0.4171   0.5265   0.5537
     0.7663   0.8456   1.0381   1.0957   1.3508   1.4636   1.5236   1.6173
     1.6398   1.7450   1.8490   2.1187   2.1660   2.1922   2.4262   2.5663
     2.6239   2.6514   2.9491   3.1188   3.3387   3.3748   3.5310   4.0512
     4.3346   4.3783   4.6706   4.8202

          k = 0.0608-0.0351 0.0000 ( 16185 PWs)   bands (ev):

   -77.6200 -77.5729 -77.5491 -77.5414 -77.5103 -77.4768 -77.4740 -77.4638
   -77.4408 -77.4240 -77.4198 -77.4127 -39.7969 -39.7960 -39.7514 -39.7077
   -39.6806 -39.6184 -39.6152 -39.4910 -39.4564 -39.3815 -39.3707 -39.3625
   -39.3483 -39.2936 -39.1799 -39.1776 -39.1630 -39.1336 -39.1265 -39.0913
   -39.0846 -39.0776 -39.0700 -39.0058 -38.9746 -38.9720 -38.9578 -38.9386
   -38.9129 -38.9099 -38.8789 -38.8524 -38.8083 -38.7891 -38.7262 -38.6873
    -5.4108  -4.2749  -3.5162  -2.9774  -2.7220  -2.6029  -2.5923  -2.4382
    -2.3789  -2.1649  -2.0319  -1.7368  -1.7109  -1.3644  -1.1215  -0.9784
    -0.5096  -0.3966  -0.2980  -0.0404   0.1486   0.2407   0.2748   0.6026
     0.8071   0.9364   1.0016   1.1730   1.2805   1.3610   1.3744   1.5483
     1.7884   1.8087   1.9095   1.9303   2.0241   2.1021   2.2078   2.3284
     2.3923   2.4181   2.8501   3.0398   3.0419   3.5639   3.6998   3.7776
     4.0613   4.3609   4.3640   4.3934

          k = 0.0608 0.0000 0.0000 ( 16230 PWs)   bands (ev):

   -77.6250 -77.5664 -77.5530 -77.5388 -77.5138 -77.4792 -77.4717 -77.4649
   -77.4348 -77.4284 -77.4174 -77.4122 -39.8350 -39.7835 -39.7754 -39.7639
   -39.7016 -39.6306 -39.6276 -39.5164 -39.4521 -39.4328 -39.3619 -39.3521
   -39.3220 -39.3074 -39.1957 -39.1675 -39.1559 -39.1346 -39.1286 -39.1155
   -39.0931 -39.0372 -39.0061 -38.9924 -38.9820 -38.9628 -38.9406 -38.9282
   -38.8985 -38.8822 -38.8467 -38.8382 -38.8240 -38.7780 -38.7191 -38.6816
    -5.6435  -4.4026  -3.2306  -3.1670  -3.0832  -2.7906  -2.7117  -2.6475
    -2.4520  -2.2670  -2.0329  -1.9857  -1.7728  -1.5832  -1.2862  -1.0901
    -0.5260  -0.4414  -0.1626   0.0924   0.3474   0.4172   0.5266   0.5536
     0.7662   0.8456   1.0381   1.0958   1.3508   1.4636   1.5235   1.6174
     1.6398   1.7450   1.8489   2.1187   2.1658   2.1923   2.4262   2.5664
     2.6238   2.6515   2.9491   3.1188   3.3388   3.3748   3.5310   4.0511
     4.3346   4.3783   4.6706   4.8202

          k = 0.0608 0.0351 0.0000 ( 16185 PWs)   bands (ev):

   -77.6200 -77.5728 -77.5494 -77.5411 -77.5104 -77.4767 -77.4738 -77.4642
   -77.4407 -77.4244 -77.4194 -77.4126 -39.7968 -39.7962 -39.7514 -39.7077
   -39.6807 -39.6185 -39.6150 -39.4910 -39.4564 -39.3814 -39.3707 -39.3625
   -39.3483 -39.2936 -39.1799 -39.1776 -39.1629 -39.1335 -39.1267 -39.0913
   -39.0845 -39.0775 -39.0699 -39.0057 -38.9746 -38.9721 -38.9578 -38.9387
   -38.9130 -38.9097 -38.8790 -38.8526 -38.8084 -38.7892 -38.7260 -38.6873
    -5.4109  -4.2749  -3.5161  -2.9773  -2.7220  -2.6029  -2.5923  -2.4382
    -2.3790  -2.1649  -2.0319  -1.7369  -1.7109  -1.3645  -1.1214  -0.9784
    -0.5096  -0.3966  -0.2981  -0.0404   0.1485   0.2407   0.2748   0.6026
     0.8071   0.9364   1.0016   1.1731   1.2805   1.3611   1.3743   1.5483
     1.7884   1.8086   1.9095   1.9303   2.0240   2.1021   2.2077   2.3284
     2.3923   2.4181   2.8501   3.0397   3.0419   3.5639   3.6999   3.7776
     4.0613   4.3610   4.3640   4.3934

          k = 0.0608-0.1403 0.0000 ( 16218 PWs)   bands (ev):

   -77.6070 -77.5798 -77.5607 -77.5362 -77.5021 -77.4808 -77.4663 -77.4644
   -77.4466 -77.4333 -77.4152 -77.4133 -39.7484 -39.7118 -39.6926 -39.6528
   -39.6128 -39.5950 -39.5790 -39.5054 -39.4410 -39.4181 -39.3699 -39.3387
   -39.3003 -39.2521 -39.2317 -39.1761 -39.1500 -39.1407 -39.1292 -39.1267
   -39.1145 -39.0983 -39.0878 -39.0611 -39.0344 -39.0074 -38.9815 -38.9666
   -38.9389 -38.9122 -38.8702 -38.8552 -38.8399 -38.7922 -38.7630 -38.7326
    -4.7725  -3.9985  -3.5438  -2.8183  -2.5640  -2.3068  -2.1680  -2.1174
    -1.8983  -1.7824  -1.6930  -1.5012  -1.2482  -1.0556  -0.9965  -0.8150
    -0.6059  -0.4445  -0.3628  -0.3095  -0.2190  -0.0436   0.1931   0.3452
     0.4879   0.7677   0.8427   0.9403   0.9775   1.0280   1.1342   1.1761
     1.3777   1.4291   1.5303   1.8179   1.8874   1.9427   2.1238   2.2358
     2.3088   2.8014   3.0301   3.0841   3.1157   3.2595   3.3801   3.4404
     3.6805   3.9663   4.0730   4.3499

          k = 0.0608-0.1052 0.0000 ( 16272 PWs)   bands (ev):

   -77.5970 -77.5770 -77.5765 -77.5334 -77.4958 -77.4843 -77.4685 -77.4547
   -77.4463 -77.4458 -77.4135 -77.4130 -39.6818 -39.6479 -39.6421 -39.6299
   -39.6137 -39.5591 -39.5586 -39.5440 -39.5422 -39.3497 -39.3452 -39.2745
   -39.2688 -39.2619 -39.2602 -39.2105 -39.1951 -39.1882 -39.1445 -39.1347
   -39.1261 -39.1091 -39.1084 -39.0435 -39.0404 -39.0393 -38.9964 -38.9534
   -38.9264 -38.9183 -38.8724 -38.8304 -38.8294 -38.8029 -38.8009 -38.7999
    -4.2004  -3.6527  -3.6198  -3.3515  -2.1934  -2.1802  -1.8237  -1.6530
    -1.5345  -1.5061  -1.3126  -1.2809  -1.1894  -1.0423  -1.0030  -0.9977
    -0.6690  -0.6201  -0.4153  -0.3465  -0.2513  -0.1477  -0.0344   0.2665
     0.2911   0.2998   0.3383   0.5011   0.5768   0.7600   0.9576   1.1356
     1.3419   1.3536   1.7875   1.8040   1.8486   2.0789   2.0804   2.1112
     2.5873   2.6141   2.6240   3.0034   3.2379   3.2984   3.4766   3.5409
     3.7382   3.9515   3.9632   4.9246

          k = 0.0608-0.0702 0.0000 ( 16218 PWs)   bands (ev):

   -77.6070 -77.5800 -77.5605 -77.5363 -77.5019 -77.4813 -77.4659 -77.4643
   -77.4468 -77.4331 -77.4153 -77.4133 -39.7483 -39.7118 -39.6926 -39.6528
   -39.6126 -39.5949 -39.5791 -39.5054 -39.4409 -39.4181 -39.3700 -39.3387
   -39.3004 -39.2522 -39.2317 -39.1761 -39.1499 -39.1408 -39.1293 -39.1267
   -39.1144 -39.0983 -39.0877 -39.0611 -39.0345 -39.0075 -38.9814 -38.9665
   -38.9389 -38.9122 -38.8701 -38.8550 -38.8399 -38.7921 -38.7633 -38.7326
    -4.7725  -3.9986  -3.5438  -2.8183  -2.5641  -2.3067  -2.1680  -2.1174
    -1.8981  -1.7824  -1.6931  -1.5012  -1.2482  -1.0556  -0.9964  -0.8151
    -0.6058  -0.4445  -0.3629  -0.3095  -0.2189  -0.0437   0.1931   0.3451
     0.4879   0.7677   0.8427   0.9403   0.9774   1.0281   1.1341   1.1761
     1.3776   1.4291   1.5303   1.8179   1.8874   1.9428   2.1239   2.2358
     2.3088   2.8013   3.0301   3.0841   3.1157   3.2595   3.3800   3.4405
     3.6806   3.9663   4.0729   4.3500

          k =-0.0911 0.0526 0.0000 ( 16164 PWs)   bands (ev):

   -77.6037 -77.5886 -77.5501 -77.5414 -77.5007 -77.4843 -77.4638 -77.4606
   -77.4550 -77.4243 -77.4197 -77.4135 -39.7404 -39.7368 -39.7061 -39.6584
   -39.6188 -39.5795 -39.5161 -39.4939 -39.4569 -39.4210 -39.4202 -39.3885
   -39.2366 -39.2070 -39.1754 -39.1593 -39.1534 -39.1303 -39.1296 -39.1274
   -39.1262 -39.1012 -39.0901 -39.0796 -39.0467 -39.0313 -39.0247 -39.0160
   -38.9344 -38.9159 -38.8815 -38.8659 -38.8265 -38.7614 -38.7399 -38.7292
    -4.6180  -4.2558  -3.7481  -2.6705  -2.3048  -2.1696  -2.1586  -2.1027
    -2.0856  -2.0124  -1.7166  -1.3043  -1.2993  -0.9663  -0.8538  -0.8066
    -0.7668  -0.3969  -0.3917  -0.3348  -0.2731   0.1231   0.1327   0.6324
     0.7533   0.8770   0.9087   1.0063   1.0414   1.0741   1.1137   1.1872
     1.3430   1.4543   1.5231   1.6020   1.6264   1.6544   2.0351   2.0749
     2.7993   2.8649   2.9616   3.0016   3.1441   3.1697   3.5072   3.5501
     3.7655   3.8808   3.9594   4.0230

          k =-0.0911 0.0877 0.0000 ( 16218 PWs)   bands (ev):

   -77.6070 -77.5800 -77.5605 -77.5363 -77.5020 -77.4811 -77.4662 -77.4643
   -77.4468 -77.4331 -77.4153 -77.4133 -39.7484 -39.7117 -39.6927 -39.6528
   -39.6126 -39.5949 -39.5791 -39.5054 -39.4410 -39.4181 -39.3699 -39.3387
   -39.3005 -39.2520 -39.2316 -39.1761 -39.1500 -39.1407 -39.1294 -39.1268
   -39.1144 -39.0983 -39.0879 -39.0611 -39.0346 -39.0074 -38.9815 -38.9665
   -38.9389 -38.9122 -38.8703 -38.8550 -38.8397 -38.7921 -38.7632 -38.7326
    -4.7725  -3.9986  -3.5438  -2.8183  -2.5641  -2.3067  -2.1680  -2.1174
    -1.8981  -1.7824  -1.6931  -1.5012  -1.2482  -1.0556  -0.9964  -0.8151
    -0.6059  -0.4444  -0.3629  -0.3095  -0.2188  -0.0437   0.1931   0.3451
     0.4879   0.7677   0.8427   0.9403   0.9774   1.0280   1.1341   1.1761
     1.3777   1.4291   1.5305   1.8179   1.8874   1.9427   2.1238   2.2358
     2.3088   2.8014   3.0302   3.0840   3.1157   3.2594   3.3800   3.4405
     3.6806   3.9663   4.0729   4.3502

          k =-0.0911 0.1228 0.0000 ( 16218 PWs)   bands (ev):

   -77.6070 -77.5799 -77.5606 -77.5363 -77.5021 -77.4807 -77.4664 -77.4644
   -77.4467 -77.4332 -77.4152 -77.4133 -39.7484 -39.7118 -39.6927 -39.6528
   -39.6128 -39.5949 -39.5790 -39.5054 -39.4410 -39.4181 -39.3698 -39.3387
   -39.3004 -39.2521 -39.2317 -39.1761 -39.1501 -39.1407 -39.1294 -39.1267
   -39.1144 -39.0983 -39.0879 -39.0611 -39.0345 -39.0074 -38.9815 -38.9665
   -38.9389 -38.9122 -38.8703 -38.8552 -38.8398 -38.7922 -38.7630 -38.7326
    -4.7725  -3.9985  -3.5438  -2.8183  -2.5640  -2.3068  -2.1680  -2.1174
    -1.8983  -1.7824  -1.6930  -1.5012  -1.2482  -1.0556  -0.9964  -0.8150
    -0.6059  -0.4445  -0.3628  -0.3095  -0.2190  -0.0436   0.1932   0.3451
     0.4879   0.7676   0.8427   0.9403   0.9775   1.0280   1.1341   1.1761
     1.3777   1.4291   1.5304   1.8179   1.8874   1.9427   2.1238   2.2359
     2.3088   2.8014   3.0301   3.0841   3.1157   3.2595   3.3801   3.4404
     3.6805   3.9664   4.0729   4.3499

          k =-0.0911-0.0526 0.0000 ( 16164 PWs)   bands (ev):

   -77.6038 -77.5883 -77.5505 -77.5411 -77.5010 -77.4836 -77.4642 -77.4608
   -77.4547 -77.4248 -77.4194 -77.4135 -39.7406 -39.7366 -39.7062 -39.6582
   -39.6191 -39.5793 -39.5161 -39.4938 -39.4570 -39.4208 -39.4201 -39.3886
   -39.2364 -39.2070 -39.1753 -39.1596 -39.1535 -39.1303 -39.1296 -39.1273
   -39.1264 -39.1010 -39.0902 -39.0796 -39.0466 -39.0313 -39.0249 -39.0158
   -38.9345 -38.9158 -38.8817 -38.8658 -38.8269 -38.7613 -38.7397 -38.7292
    -4.6181  -4.2557  -3.7481  -2.6703  -2.3049  -2.1696  -2.1587  -2.1027
    -2.0855  -2.0126  -1.7164  -1.3042  -1.2994  -0.9663  -0.8539  -0.8065
    -0.7670  -0.3969  -0.3918  -0.3349  -0.2730   0.1231   0.1327   0.6324
     0.7532   0.8772   0.9085   1.0063   1.0416   1.0740   1.1137   1.1872
     1.3431   1.4542   1.5231   1.6019   1.6262   1.6545   2.0348   2.0752
     2.7992   2.8649   2.9617   3.0015   3.1442   3.1696   3.5073   3.5501
     3.7656   3.8806   3.9594   4.0231

     the Fermi energy is     3.0121 ev

!    total energy              =   -2307.06628507 Ry
     Harris-Foulkes estimate   =   -2307.06628668 Ry
     estimated scf accuracy    <       0.00000330 Ry

     The total energy is the sum of the following terms:

     one-electron contribution =  -18660.64483097 Ry
     hartree contribution      =    9315.48168399 Ry
     xc contribution           =    -650.29371288 Ry
     ewald contribution        =    7688.45788131 Ry
     electric field correction =       0.00001091 Ry
     smearing contrib. (-TS)   =      -0.06731742 Ry

     convergence has been achieved in  13 iterations
 
 BEEF-vdW xc energy contributions
           1 :   -578.313208924559     
           2 :    537.879763710741     
           3 :   -465.184397475761     
           4 :    373.912178977544     
           5 :   -279.271449232475     
           6 :    194.112945804061     
           7 :   -126.293078345554     
           8 :    77.9050418296749     
           9 :   -46.3353017494862     
          10 :    26.4715996504094     
          11 :   -13.0924796709439     
          12 :    2.57755234585829     
          13 :    6.49185433767661     
          14 :   -13.7719826730154     
          15 :    18.1942118651192     
          16 :   -19.0424155897557     
          17 :    16.6163931992533     
          18 :   -12.2750837490190     
          19 :    7.92845243027136     
          20 :   -5.27036729340830     
          21 :    5.12351147027118     
          22 :   -7.18350323760342     
          23 :    10.2474327334689     
          24 :   -12.7977585583144     
          25 :    13.6681951388466     
          26 :   -12.5024845674891     
          27 :    9.82444678259765     
          28 :   -6.72229425222076     
          29 :    4.31982257089635     
          30 :   -3.28968911420952     
          31 :   -48.0273306470019     
          32 :   -35.6772321098919     

     Forces acting on atoms (Ry/au):


     negative rho (up, down):  1.622E+00 0.000E+00
     atom    1 type  1   force =     0.00003605   -0.00001813    0.01374652
     atom    2 type  1   force =    -0.00003345    0.00010405    0.01253749
     atom    3 type  1   force =     0.00010549   -0.00007485    0.01259074
     atom    4 type  1   force =    -0.00010440   -0.00001455    0.01258532
     atom    5 type  1   force =     0.00180706   -0.00093416   -0.00871404
     atom    6 type  1   force =    -0.00181888   -0.00107648   -0.00861081
     atom    7 type  1   force =    -0.00012240   -0.00003243   -0.02443460
     atom    8 type  1   force =     0.00014635    0.00206573   -0.00866503
     atom    9 type  1   force =     0.00011293    0.00003461   -0.00101088
     atom   10 type  1   force =    -0.00012449    0.00003256   -0.00102825
     atom   11 type  1   force =    -0.00000888   -0.00012334   -0.00097634
     atom   12 type  1   force =    -0.00000128    0.00003155    0.00138779
     atom   13 type  2   force =     0.00000591    0.00000544    0.00059209

     Total force =     0.038776     Total SCF correction =     0.009271
     SCF correction compared to forces is large: reduce conv_thr to get better values


     entering subroutine stress ...


     negative rho (up, down):  1.622E+00 0.000E+00
          total   stress  (Ry/bohr**3)                   (kbar)     P=  -16.26
  -0.00012082  -0.00000001  -0.00000000        -17.77     -0.00     -0.00
  -0.00000001  -0.00012080  -0.00000001         -0.00    -17.77     -0.00
  -0.00000000  -0.00000001  -0.00008992         -0.00     -0.00    -13.23

 !ASE

     Writing output data file calc.save
 
     init_run     :     15.36s CPU     21.33s WALL (       1 calls)
     electrons    :    479.39s CPU    647.87s WALL (       1 calls)
     forces       :      5.77s CPU      6.55s WALL (       1 calls)
     stress       :     18.81s CPU     20.37s WALL (       1 calls)

     Called by init_run:
     wfcinit      :     12.26s CPU     17.42s WALL (       1 calls)
     potinit      :      1.26s CPU      1.81s WALL (       1 calls)

     Called by electrons:
     c_bands      :    350.72s CPU    470.15s WALL (      13 calls)
     sum_band     :     58.37s CPU     80.46s WALL (      13 calls)
     v_of_rho     :     16.18s CPU     23.58s WALL (      14 calls)
     newd         :     15.57s CPU     15.92s WALL (      14 calls)
     mix_rho      :      0.56s CPU      0.83s WALL (      13 calls)
     vdW_energy   :      2.24s CPU      2.44s WALL (      50 calls)
     vdW_ffts     :     36.69s CPU     56.22s WALL (     102 calls)
     vdW_v        :      6.78s CPU      9.66s WALL (      50 calls)

     Called by c_bands:
     init_us_2    :      1.09s CPU      1.15s WALL (     580 calls)
     cegterg      :    338.53s CPU    457.41s WALL (     260 calls)

     Called by *egterg:
     h_psi        :    222.27s CPU    334.09s WALL (    1498 calls)
     s_psi        :     12.93s CPU     12.93s WALL (    1498 calls)
     g_psi        :      0.44s CPU      0.43s WALL (    1218 calls)
     cdiaghg      :     73.24s CPU     75.54s WALL (    1478 calls)

     Called by h_psi:
     add_vuspsi   :     13.38s CPU     13.48s WALL (    1498 calls)

     General routines
     calbec       :     27.65s CPU     33.37s WALL (    1798 calls)
     fft          :     55.21s CPU     84.19s WALL (    3027 calls)
     ffts         :      0.17s CPU      0.24s WALL (      27 calls)
     fftw         :    217.03s CPU    344.05s WALL (  165406 calls)
     interpolate  :      0.65s CPU      0.97s WALL (      27 calls)
     davcio       :      0.00s CPU      0.02s WALL (      20 calls)
 
     Parallel routines
     fft_scatter  :    245.20s CPU    399.58s WALL (  168460 calls)
 
     PWSCF        :  8m40.03s CPU    11m37.42s WALL

 
   This run was terminated on:   6:49:26  14Jan2018            

=------------------------------------------------------------------------------=
   JOB DONE.
=------------------------------------------------------------------------------=
Job  /afs/slac/g/suncat/bin/suncat-tsmpirun -x LD_LIBRARY_PATH -wdir /scratch/qe842473_uOuG7 pw.x -in pw.inp

TID   HOST_NAME   COMMAND_LINE            STATUS            TERMINATION_TIME
===== ========== ================  =======================  ===================
00000 suncat0050 pw.x -in pw.inp   Done                     01/14/2018 06:49:26
00001 suncat0050 pw.x -in pw.inp   Done                     01/14/2018 06:49:26
00002 suncat0050 pw.x -in pw.inp   Done                     01/14/2018 06:49:26
00003 suncat0050 pw.x -in pw.inp   Done                     01/14/2018 06:49:26
00004 suncat0050 pw.x -in pw.inp   Done                     01/14/2018 06:49:26
00005 suncat0050 pw.x -in pw.inp   Done                     01/14/2018 06:49:26
00006 suncat0050 pw.x -in pw.inp   Done                     01/14/2018 06:49:26
00007 suncat0050 pw.x -in pw.inp   Done                     01/14/2018 06:49:26
00008 suncat0242 pw.x -in pw.inp   Done                     01/14/2018 06:49:26
00009 suncat0242 pw.x -in pw.inp   Done                     01/14/2018 06:49:26
00010 suncat0242 pw.x -in pw.inp   Done                     01/14/2018 06:49:26
00011 suncat0242 pw.x -in pw.inp   Done                     01/14/2018 06:49:26
00012 suncat0242 pw.x -in pw.inp   Done                     01/14/2018 06:49:26
00013 suncat0242 pw.x -in pw.inp   Done                     01/14/2018 06:49:26
00014 suncat0242 pw.x -in pw.inp   Done                     01/14/2018 06:49:26
00015 suncat0242 pw.x -in pw.inp   Done                     01/14/2018 06:49:26
00016 suncat0241 pw.x -in pw.inp   Done                     01/14/2018 06:49:26
00017 suncat0241 pw.x -in pw.inp   Done                     01/14/2018 06:49:26
00018 suncat0241 pw.x -in pw.inp   Done                     01/14/2018 06:49:26
00019 suncat0241 pw.x -in pw.inp   Done                     01/14/2018 06:49:26
00020 suncat0241 pw.x -in pw.inp   Done                     01/14/2018 06:49:26
00021 suncat0241 pw.x -in pw.inp   Done                     01/14/2018 06:49:26
00022 suncat0241 pw.x -in pw.inp   Done                     01/14/2018 06:49:26
00023 suncat0241 pw.x -in pw.inp   Done                     01/14/2018 06:49:26
00024 suncat0240 pw.x -in pw.inp   Done                     01/14/2018 06:49:26
00025 suncat0240 pw.x -in pw.inp   Done                     01/14/2018 06:49:26
00026 suncat0240 pw.x -in pw.inp   Done                     01/14/2018 06:49:26
00027 suncat0240 pw.x -in pw.inp   Done                     01/14/2018 06:49:26
00028 suncat0240 pw.x -in pw.inp   Done                     01/14/2018 06:49:26
00029 suncat0240 pw.x -in pw.inp   Done                     01/14/2018 06:49:26
00030 suncat0240 pw.x -in pw.inp   Done                     01/14/2018 06:49:26
00031 suncat0240 pw.x -in pw.inp   Done                     01/14/2018 06:49:26
