  python dir          : /nfs/slac/g/suncatfs/sw/espv20/lib/python2.7/site-packages/espresso
  espresso dir        : /nfs/slac/g/suncatfs/sw/espv18/espresso-dynpy-beef/bin
  pseudo dir          : /afs/slac.stanford.edu/u/if/mamunm/psp/gbrv1.5pbe
  ase-espresso py git : ffa2778-git



     Program PWSCF v.5.1rc2 (svn rev. 11289) starts on 17Jan2018 at  7:51:24 

     This program is part of the open-source Quantum ESPRESSO suite
     for quantum simulation of materials; please cite
         "P. Giannozzi et al., J. Phys.:Condens. Matter 21 395502 (2009);
          URL http://www.quantum-espresso.org", 
     in publications or presentations arising from this work. More details at
     http://www.quantum-espresso.org/quote

     Parallel version (MPI), running on    32 processors
     R & G space division:  proc/nbgrp/npool/nimage =      32
     Reading input from pw.inp
     Message from routine read_cards :
     DEPRECATED: no units specified in CELL_PARAMETERS card

     Current dimensions of program PWSCF are:
     Max number of different atomic species (ntypx) = 10
     Max number of k-points (npk) =  40000
     Max angular momentum in pseudopotentials (lmaxx) =  3
     Presently stress not available with electric field


     **************************************************************************
     Initializing libbeef V0.1.1 with the BEEF-vdW functional.
     Citation: Wellendorff et al., PRB 85, 235149 (2012).
     **************************************************************************


     IMPORTANT: XC functional enforced from input :
     Exchange-correlation      = BEEF-VDW ( 1  4 27 13 2)
     Any further DFT definition will be discarded
     Please, verify this is what you really want


     Subspace diagonalization in iterative solution of the eigenvalue problem:
     a serial algorithm will be used

 
     Parallelization info
     --------------------
     sticks:   dense  smooth     PW     G-vecs:    dense   smooth      PW
     Min          83      33      9                15627     3935     617
     Max          84      34     10                15638     3974     644
     Sum        2677    1069    313               500285   126611   20281
 


     bravais-lattice index     =            0
     lattice parameter (alat)  =       1.8897  a.u.
     unit-cell volume          =    4204.8134 (a.u.)^3
     number of atoms/cell      =           13
     number of atomic types    =            2
     number of electrons       =       186.00
     number of Kohn-Sham states=          103
     kinetic-energy cutoff     =      36.7493  Ry
     charge density cutoff     =     367.4932  Ry
     convergence threshold     =      1.0E-05
     mixing beta               =       0.3000
     number of iterations used =           10  plain     mixing
     Exchange-correlation      = BEEF-VDW ( 1  4 27 13 2)
     nstep                     =           50


     celldm(1)=   1.889726  celldm(2)=   0.000000  celldm(3)=   0.000000
     celldm(4)=   0.000000  celldm(5)=   0.000000  celldm(6)=   0.000000

     crystal axes: (cart. coord. in units of alat)
               a(1) = (   5.426750   0.000000   0.000000 )  
               a(2) = (   2.713375   4.699703   0.000000 )  
               a(3) = (   0.000000   0.000000  24.430923 )  

     reciprocal axes: (cart. coord. in units 2 pi/alat)
               b(1) = (  0.184272 -0.106390  0.000000 )  
               b(2) = (  0.000000  0.212779  0.000000 )  
               b(3) = (  0.000000  0.000000  0.040932 )  


     PseudoPot. # 1 for Rh read from file:
     /afs/slac.stanford.edu/u/if/mamunm/psp/gbrv1.5pbe/Rh.UPF
     MD5 check sum: 761627e959a2e3a1f56b0b5fe687810e
     Pseudo is Ultrasoft + core correction, Zval = 15.0
     Generated by new atomic code, or converted to UPF format
     Using radial grid of  969 points,  7 beta functions with: 
                l(1) =   0
                l(2) =   0
                l(3) =   1
                l(4) =   1
                l(5) =   2
                l(6) =   2
                l(7) =   2
     Q(r) pseudized with  8 coefficients,  rinner =    1.200   1.200   1.200
                                                       1.200   1.200

     PseudoPot. # 2 for O  read from file:
     /afs/slac.stanford.edu/u/if/mamunm/psp/gbrv1.5pbe/O.UPF
     MD5 check sum: 734c27235a0248c51dbae37a1fbe46ec
     Pseudo is Ultrasoft + core correction, Zval =  6.0
     Generated by new atomic code, or converted to UPF format
     Using radial grid of  737 points,  5 beta functions with: 
                l(1) =   0
                l(2) =   0
                l(3) =   1
                l(4) =   1
                l(5) =   2
     Q(r) pseudized with  8 coefficients,  rinner =    0.900   0.900   0.900
                                                       0.900   0.900

     vdW kernel table read from file vdW_kernel_table
     MD5 check sum: 095c7af220d748ca6e76c0b4c6cfb241

     atomic species   valence    mass     pseudopotential
        Rh1           15.00   102.90550     Rh( 1.00)
        O1             6.00    15.99900     O ( 1.00)

     No symmetry found



   Cartesian axes

     site n.     atom                  positions (alat units)
         1           Rh1 tau(   1) = (   1.3566875   0.7832839  10.0000000  )
         2           Rh1 tau(   2) = (   4.0700625   0.7832839  10.0000000  )
         3           Rh1 tau(   3) = (   2.7133750   3.1331356  10.0000000  )
         4           Rh1 tau(   4) = (   5.4267500   3.1331356  10.0000000  )
         5           Rh1 tau(   5) = (   5.4267500   1.5665678  12.2154614  )
         6           Rh1 tau(   6) = (   2.7133750   1.5665678  12.2154614  )
         7           Rh1 tau(   7) = (   6.7834375   3.9164194  12.2154614  )
         8           Rh1 tau(   8) = (   4.0700625   3.9164194  12.2154614  )
         9           Rh1 tau(   9) = (   0.0000000   0.0000000  14.4309228  )
        10           Rh1 tau(  10) = (   2.7133750   0.0000000  14.4309228  )
        11           Rh1 tau(  11) = (   1.3566875   2.3498517  14.4309228  )
        12           Rh1 tau(  12) = (   4.0700625   2.3498517  14.4309228  )
        13           O1  tau(  13) = (   2.7133750   1.5665678  16.5109228  )

     number of k points=    20  Fermi-Dirac smearing, width (Ry)=  0.0110
                       cart. coord. in units 2pi/alat
        k(    1) = (   0.0000000   0.0000000   0.0000000), wk =   0.0555556
        k(    2) = (   0.0000000   0.0354632   0.0000000), wk =   0.1111111
        k(    3) = (   0.0000000   0.0709265   0.0000000), wk =   0.1111111
        k(    4) = (   0.0000000  -0.1063897   0.0000000), wk =   0.0555556
        k(    5) = (   0.0307121  -0.0177316   0.0000000), wk =   0.1111111
        k(    6) = (   0.0307121   0.0177316   0.0000000), wk =   0.1111111
        k(    7) = (   0.0307121   0.0531948   0.0000000), wk =   0.1111111
        k(    8) = (   0.0307121  -0.1241213   0.0000000), wk =   0.1111111
        k(    9) = (   0.0307121  -0.0886581   0.0000000), wk =   0.1111111
        k(   10) = (   0.0307121  -0.0531948   0.0000000), wk =   0.1111111
        k(   11) = (   0.0614241  -0.0354632   0.0000000), wk =   0.1111111
        k(   12) = (   0.0614241   0.0000000   0.0000000), wk =   0.1111111
        k(   13) = (   0.0614241   0.0354632   0.0000000), wk =   0.1111111
        k(   14) = (   0.0614241  -0.1418529   0.0000000), wk =   0.1111111
        k(   15) = (   0.0614241  -0.1063897   0.0000000), wk =   0.1111111
        k(   16) = (   0.0614241  -0.0709265   0.0000000), wk =   0.1111111
        k(   17) = (  -0.0921362   0.0531948   0.0000000), wk =   0.0555556
        k(   18) = (  -0.0921362   0.0886581   0.0000000), wk =   0.1111111
        k(   19) = (  -0.0921362   0.1241213   0.0000000), wk =   0.1111111
        k(   20) = (  -0.0921362  -0.0531948   0.0000000), wk =   0.0555556

     Dense  grid:   500285 G-vectors     FFT dimensions: (  64,  64, 288)

     Smooth grid:   126611 G-vectors     FFT dimensions: (  40,  40, 180)

     Largest allocated arrays     est. size (Mb)     dimensions
        Kohn-Sham Wavefunctions         0.84 Mb     (     535,  103)
        NL pseudopotentials             2.36 Mb     (     535,  289)
        Each V/rho on FFT grid          0.56 Mb     (   36864)
        Each G-vector array             0.12 Mb     (   15636)
        G-vector shells                 0.05 Mb     (    7022)
     Largest temporary arrays     est. size (Mb)     dimensions
        Auxiliary wavefunctions         3.36 Mb     (     535,  412)
        Each subspace H/S matrix        2.59 Mb     (     412,  412)
        Each <psi_i|beta_j> matrix      0.45 Mb     (     289,  103)
        Arrays for rho mixing           5.62 Mb     (   36864,   10)

     Initial potential from superposition of free atoms
     Check: negative starting charge=   -0.653012

     starting charge  179.99882, renormalised to  186.00000

     negative rho (up, down):  6.748E-01 0.000E+00


     ************************************************************************
     *
     * You are using vdW-DF for exchange-correlation in this calculation.
     * Please cite the following three references that made this development
     * possible:
     *
     *   M. Dion, H. Rydberg, E. Schroder, D. C. Langreth, and
     *   B. I. Lundqvist, Phys. Rev. Lett. 92, 246401 (2004).
     *
     *   T. Thonhauser, V. R. Cooper, S. Li, A. Puzder, P. Hyldgaard, and
     *   D. C. Langreth, Phys. Rev. B 76, 125112 (2007).
     *
     *   G. Roman-Perez and J. M. Soler, Phys. Rev. Lett. 103, 096102 (2009).
     *
     *
     * If you are using vdW-DF2, please also cite:
     *
     *   K. Lee, E. D. Murray, L. Kong, B. I. Lundqvist, and
     *   D. C. Langreth, Phys. Rev. B 82, 081101(R) (2010).
     *
     *
     * If you are calculating the stress with vdW-DF, please also cite:
     *
     *   R. Sabatini, E. Kucukbenli, B. Kolb, T. Thonhauser, and
     *   S. de Gironcoli, J. Phys.: Condens. Matter 24, 424209 (2012).
     *
     ************************************************************************

     Carrying out vdW-DF run using the following parameters:

     Nqs =      20    Nr_points =    1024   r_max =   100.000
     q_mesh =
               0.00001000     0.04494208     0.09755937     0.15916263
               0.23128650     0.31572767     0.41458969     0.53033537
               0.66584808     0.82450364     1.01025438     1.22772762
               1.48234092     1.78043706     2.12944203     2.53805004
               3.01644009     3.57652955     4.23227104     5.00000000

     Gradients computed in reciprocal space

     ************************************************************************


 
     Adding external electric field

     Computed dipole along edir(3) : 
        Dipole               -1.6238 Ry au,         -4.1272 Debye
        Dipole field         -0.0049 Ry au
 
        Potential amp.        0.4369 Ry
        Total length         45.0136 bohr
 
     Starting wfc are  148 randomized atomic wfcs

     total cpu time spent up to now is       18.3 secs

     per-process dynamical memory:    47.1 Mb

     Self-consistent Calculation

     iteration #  1     ecut=    36.75 Ry     beta=0.30
     Davidson diagonalization with overlap
     ethr =  1.00E-02,  avg # of iterations =  2.0

     negative rho (up, down):  6.860E-01 0.000E+00
 
     Adding external electric field

     Computed dipole along edir(3) : 
        Dipole               23.9122 Ry au,         60.7787 Debye
        Dipole field          0.0715 Ry au
 
        Potential amp.       -6.4336 Ry
        Total length         45.0136 bohr
 

     total cpu time spent up to now is       53.3 secs

     total energy              =   -2048.96846454 Ry
     Harris-Foulkes estimate   =   -2099.84195929 Ry
     estimated scf accuracy    <     104.72068974 Ry

     iteration #  2     ecut=    36.75 Ry     beta=0.30
     Davidson diagonalization with overlap
     ethr =  1.00E-02,  avg # of iterations = 13.0

     negative rho (up, down):  6.827E-01 0.000E+00
 
     Adding external electric field

     Computed dipole along edir(3) : 
        Dipole               -4.1003 Ry au,        -10.4219 Debye
        Dipole field         -0.0123 Ry au
 
        Potential amp.        1.1032 Ry
        Total length         45.0136 bohr
 

     total cpu time spent up to now is      153.7 secs

     total energy              =   -1912.24869732 Ry
     Harris-Foulkes estimate   =   -2410.02001260 Ry
     estimated scf accuracy    <   13010.17049583 Ry

     iteration #  3     ecut=    36.75 Ry     beta=0.30
     Davidson diagonalization with overlap
     ethr =  1.00E-02,  avg # of iterations =  8.8

     negative rho (up, down):  6.895E-01 0.000E+00
 
     Adding external electric field

     Computed dipole along edir(3) : 
        Dipole               -2.1166 Ry au,         -5.3798 Debye
        Dipole field         -0.0063 Ry au
 
        Potential amp.        0.5695 Ry
        Total length         45.0136 bohr
 

     total cpu time spent up to now is      236.6 secs

     total energy              =   -2083.20221534 Ry
     Harris-Foulkes estimate   =   -2151.90040547 Ry
     estimated scf accuracy    <    1164.62289878 Ry

     iteration #  4     ecut=    36.75 Ry     beta=0.30
     Davidson diagonalization with overlap
     ethr =  1.00E-02,  avg # of iterations =  6.0

     negative rho (up, down):  6.892E-01 0.000E+00
 
     Adding external electric field

     Computed dipole along edir(3) : 
        Dipole               -0.9041 Ry au,         -2.2980 Debye
        Dipole field         -0.0027 Ry au
 
        Potential amp.        0.2433 Ry
        Total length         45.0136 bohr
 

     total cpu time spent up to now is      292.8 secs

     total energy              =   -2097.43203667 Ry
     Harris-Foulkes estimate   =   -2103.25808384 Ry
     estimated scf accuracy    <      63.16482994 Ry

     iteration #  5     ecut=    36.75 Ry     beta=0.30
     Davidson diagonalization with overlap
     ethr =  1.00E-02,  avg # of iterations =  2.5

     negative rho (up, down):  6.860E-01 0.000E+00
 
     Adding external electric field

     Computed dipole along edir(3) : 
        Dipole               -1.1572 Ry au,         -2.9414 Debye
        Dipole field         -0.0035 Ry au
 
        Potential amp.        0.3114 Ry
        Total length         45.0136 bohr
 

     total cpu time spent up to now is      324.1 secs

     total energy              =   -2098.06088520 Ry
     Harris-Foulkes estimate   =   -2100.14890324 Ry
     estimated scf accuracy    <      55.79718960 Ry

     iteration #  6     ecut=    36.75 Ry     beta=0.30
     Davidson diagonalization with overlap
     ethr =  1.00E-02,  avg # of iterations =  1.4

     negative rho (up, down):  6.844E-01 0.000E+00
 
     Adding external electric field

     Computed dipole along edir(3) : 
        Dipole               -1.0225 Ry au,         -2.5988 Debye
        Dipole field         -0.0031 Ry au
 
        Potential amp.        0.2751 Ry
        Total length         45.0136 bohr
 

     total cpu time spent up to now is      353.3 secs

     total energy              =   -2097.81209059 Ry
     Harris-Foulkes estimate   =   -2099.06770369 Ry
     estimated scf accuracy    <      24.90486240 Ry

     iteration #  7     ecut=    36.75 Ry     beta=0.30
     Davidson diagonalization with overlap
     ethr =  1.00E-02,  avg # of iterations =  1.4

     negative rho (up, down):  6.866E-01 0.000E+00
 
     Adding external electric field

     Computed dipole along edir(3) : 
        Dipole               -1.3208 Ry au,         -3.3572 Debye
        Dipole field         -0.0039 Ry au
 
        Potential amp.        0.3554 Ry
        Total length         45.0136 bohr
 

     total cpu time spent up to now is      382.4 secs

     total energy              =   -2098.19737488 Ry
     Harris-Foulkes estimate   =   -2099.23224545 Ry
     estimated scf accuracy    <      32.59282460 Ry

     iteration #  8     ecut=    36.75 Ry     beta=0.30
     Davidson diagonalization with overlap
     ethr =  1.00E-02,  avg # of iterations =  1.0

     negative rho (up, down):  6.866E-01 0.000E+00
 
     Adding external electric field

     Computed dipole along edir(3) : 
        Dipole               -1.2382 Ry au,         -3.1473 Debye
        Dipole field         -0.0037 Ry au
 
        Potential amp.        0.3332 Ry
        Total length         45.0136 bohr
 

     total cpu time spent up to now is      411.8 secs

     total energy              =   -2098.69090251 Ry
     Harris-Foulkes estimate   =   -2098.74636964 Ry
     estimated scf accuracy    <       0.80180180 Ry

     iteration #  9     ecut=    36.75 Ry     beta=0.30
     Davidson diagonalization with overlap
     ethr =  4.31E-04,  avg # of iterations =  7.4

     negative rho (up, down):  6.863E-01 0.000E+00
 
     Adding external electric field

     Computed dipole along edir(3) : 
        Dipole               -1.1810 Ry au,         -3.0017 Debye
        Dipole field         -0.0035 Ry au
 
        Potential amp.        0.3177 Ry
        Total length         45.0136 bohr
 

     total cpu time spent up to now is      452.2 secs

     total energy              =   -2098.76216086 Ry
     Harris-Foulkes estimate   =   -2098.78401180 Ry
     estimated scf accuracy    <       0.24594658 Ry

     iteration # 10     ecut=    36.75 Ry     beta=0.30
     Davidson diagonalization with overlap
     ethr =  1.32E-04,  avg # of iterations =  1.5

     negative rho (up, down):  6.862E-01 0.000E+00
 
     Adding external electric field

     Computed dipole along edir(3) : 
        Dipole               -1.1967 Ry au,         -3.0418 Debye
        Dipole field         -0.0036 Ry au
 
        Potential amp.        0.3220 Ry
        Total length         45.0136 bohr
 

     total cpu time spent up to now is      482.1 secs

     total energy              =   -2098.76568091 Ry
     Harris-Foulkes estimate   =   -2098.77507630 Ry
     estimated scf accuracy    <       0.23980802 Ry

     iteration # 11     ecut=    36.75 Ry     beta=0.30
     Davidson diagonalization with overlap
     ethr =  1.29E-04,  avg # of iterations =  1.0

     negative rho (up, down):  6.855E-01 0.000E+00
 
     Adding external electric field

     Computed dipole along edir(3) : 
        Dipole               -1.1712 Ry au,         -2.9769 Debye
        Dipole field         -0.0035 Ry au
 
        Potential amp.        0.3151 Ry
        Total length         45.0136 bohr
 

     total cpu time spent up to now is      510.9 secs

     total energy              =   -2098.76593794 Ry
     Harris-Foulkes estimate   =   -2098.77110819 Ry
     estimated scf accuracy    <       0.05709019 Ry

     iteration # 12     ecut=    36.75 Ry     beta=0.30
     Davidson diagonalization with overlap
     ethr =  3.07E-05,  avg # of iterations =  4.2

     negative rho (up, down):  6.851E-01 0.000E+00
 
     Adding external electric field

     Computed dipole along edir(3) : 
        Dipole               -1.0834 Ry au,         -2.7537 Debye
        Dipole field         -0.0032 Ry au
 
        Potential amp.        0.2915 Ry
        Total length         45.0136 bohr
 

     total cpu time spent up to now is      544.2 secs

     total energy              =   -2098.75416632 Ry
     Harris-Foulkes estimate   =   -2098.77310753 Ry
     estimated scf accuracy    <       0.35268282 Ry

     iteration # 13     ecut=    36.75 Ry     beta=0.30
     Davidson diagonalization with overlap
     ethr =  3.07E-05,  avg # of iterations =  3.1

     negative rho (up, down):  6.851E-01 0.000E+00
 
     Adding external electric field

     Computed dipole along edir(3) : 
        Dipole               -0.9148 Ry au,         -2.3252 Debye
        Dipole field         -0.0027 Ry au
 
        Potential amp.        0.2461 Ry
        Total length         45.0136 bohr
 

     total cpu time spent up to now is      575.9 secs

     total energy              =   -2098.76324660 Ry
     Harris-Foulkes estimate   =   -2098.76856202 Ry
     estimated scf accuracy    <       0.32763787 Ry

     iteration # 14     ecut=    36.75 Ry     beta=0.30
     Davidson diagonalization with overlap
     ethr =  3.07E-05,  avg # of iterations =  1.0

     negative rho (up, down):  6.854E-01 0.000E+00
 
     Adding external electric field

     Computed dipole along edir(3) : 
        Dipole               -0.8341 Ry au,         -2.1200 Debye
        Dipole field         -0.0025 Ry au
 
        Potential amp.        0.2244 Ry
        Total length         45.0136 bohr
 

     total cpu time spent up to now is      604.7 secs

     total energy              =   -2098.75950677 Ry
     Harris-Foulkes estimate   =   -2098.76503143 Ry
     estimated scf accuracy    <       0.09408043 Ry

     iteration # 15     ecut=    36.75 Ry     beta=0.30
     Davidson diagonalization with overlap
     ethr =  3.07E-05,  avg # of iterations =  3.0

     negative rho (up, down):  6.855E-01 0.000E+00
 
     Adding external electric field

     Computed dipole along edir(3) : 
        Dipole               -0.8108 Ry au,         -2.0609 Debye
        Dipole field         -0.0024 Ry au
 
        Potential amp.        0.2182 Ry
        Total length         45.0136 bohr
 

     total cpu time spent up to now is      635.5 secs

     total energy              =   -2098.76000769 Ry
     Harris-Foulkes estimate   =   -2098.76546225 Ry
     estimated scf accuracy    <       0.22794600 Ry

     iteration # 16     ecut=    36.75 Ry     beta=0.30
     Davidson diagonalization with overlap
     ethr =  3.07E-05,  avg # of iterations =  1.0

     negative rho (up, down):  6.856E-01 0.000E+00
 
     Adding external electric field

     Computed dipole along edir(3) : 
        Dipole               -0.7179 Ry au,         -1.8248 Debye
        Dipole field         -0.0021 Ry au
 
        Potential amp.        0.1932 Ry
        Total length         45.0136 bohr
 

     total cpu time spent up to now is      664.3 secs

     total energy              =   -2098.76283335 Ry
     Harris-Foulkes estimate   =   -2098.76366227 Ry
     estimated scf accuracy    <       0.01160087 Ry

     iteration # 17     ecut=    36.75 Ry     beta=0.30
     Davidson diagonalization with overlap
     ethr =  6.24E-06,  avg # of iterations =  2.4

     negative rho (up, down):  6.857E-01 0.000E+00
 
     Adding external electric field

     Computed dipole along edir(3) : 
        Dipole               -0.6672 Ry au,         -1.6958 Debye
        Dipole field         -0.0020 Ry au
 
        Potential amp.        0.1795 Ry
        Total length         45.0136 bohr
 

     total cpu time spent up to now is      694.7 secs

     total energy              =   -2098.76297474 Ry
     Harris-Foulkes estimate   =   -2098.76336242 Ry
     estimated scf accuracy    <       0.00715571 Ry

     iteration # 18     ecut=    36.75 Ry     beta=0.30
     Davidson diagonalization with overlap
     ethr =  3.85E-06,  avg # of iterations =  1.3

     negative rho (up, down):  6.857E-01 0.000E+00
 
     Adding external electric field

     Computed dipole along edir(3) : 
        Dipole               -0.6510 Ry au,         -1.6547 Debye
        Dipole field         -0.0019 Ry au
 
        Potential amp.        0.1752 Ry
        Total length         45.0136 bohr
 

     total cpu time spent up to now is      723.7 secs

     total energy              =   -2098.76309879 Ry
     Harris-Foulkes estimate   =   -2098.76319772 Ry
     estimated scf accuracy    <       0.00040295 Ry

     iteration # 19     ecut=    36.75 Ry     beta=0.30
     Davidson diagonalization with overlap
     ethr =  2.17E-07,  avg # of iterations =  4.7

     negative rho (up, down):  6.858E-01 0.000E+00
 
     Adding external electric field

     Computed dipole along edir(3) : 
        Dipole               -0.6371 Ry au,         -1.6194 Debye
        Dipole field         -0.0019 Ry au
 
        Potential amp.        0.1714 Ry
        Total length         45.0136 bohr
 

     total cpu time spent up to now is      758.3 secs

     total energy              =   -2098.76314483 Ry
     Harris-Foulkes estimate   =   -2098.76320572 Ry
     estimated scf accuracy    <       0.00029289 Ry

     iteration # 20     ecut=    36.75 Ry     beta=0.30
     Davidson diagonalization with overlap
     ethr =  1.57E-07,  avg # of iterations =  1.0

     negative rho (up, down):  6.858E-01 0.000E+00
 
     Adding external electric field

     Computed dipole along edir(3) : 
        Dipole               -0.6316 Ry au,         -1.6052 Debye
        Dipole field         -0.0019 Ry au
 
        Potential amp.        0.1699 Ry
        Total length         45.0136 bohr
 

     total cpu time spent up to now is      787.1 secs

     total energy              =   -2098.76315846 Ry
     Harris-Foulkes estimate   =   -2098.76317839 Ry
     estimated scf accuracy    <       0.00001813 Ry

     iteration # 21     ecut=    36.75 Ry     beta=0.30
     Davidson diagonalization with overlap
     ethr =  9.75E-09,  avg # of iterations =  4.2

     negative rho (up, down):  6.860E-01 0.000E+00
 
     Adding external electric field

     Computed dipole along edir(3) : 
        Dipole               -0.6269 Ry au,         -1.5935 Debye
        Dipole field         -0.0019 Ry au
 
        Potential amp.        0.1687 Ry
        Total length         45.0136 bohr
 

     total cpu time spent up to now is      824.4 secs

     total energy              =   -2098.76315987 Ry
     Harris-Foulkes estimate   =   -2098.76318022 Ry
     estimated scf accuracy    <       0.00002612 Ry

     iteration # 22     ecut=    36.75 Ry     beta=0.30
     Davidson diagonalization with overlap
     ethr =  9.75E-09,  avg # of iterations =  1.9

     negative rho (up, down):  6.860E-01 0.000E+00
 
     Adding external electric field

     Computed dipole along edir(3) : 
        Dipole               -0.6262 Ry au,         -1.5915 Debye
        Dipole field         -0.0019 Ry au
 
        Potential amp.        0.1685 Ry
        Total length         45.0136 bohr
 

     total cpu time spent up to now is      855.1 secs

     total energy              =   -2098.76316003 Ry
     Harris-Foulkes estimate   =   -2098.76316548 Ry
     estimated scf accuracy    <       0.00001972 Ry

     iteration # 23     ecut=    36.75 Ry     beta=0.30
     Davidson diagonalization with overlap
     ethr =  9.75E-09,  avg # of iterations =  1.1

     negative rho (up, down):  6.861E-01 0.000E+00

     negative rho (up, down):  6.861E-01 0.000E+00

     negative rho (up, down):  6.861E-01 0.000E+00

     negative rho (up, down):  6.861E-01 0.000E+00

     negative rho (up, down):  6.861E-01 0.000E+00

     negative rho (up, down):  6.861E-01 0.000E+00

     negative rho (up, down):  6.861E-01 0.000E+00

     negative rho (up, down):  6.861E-01 0.000E+00

     negative rho (up, down):  6.861E-01 0.000E+00

     negative rho (up, down):  6.861E-01 0.000E+00

     negative rho (up, down):  6.861E-01 0.000E+00

     negative rho (up, down):  6.861E-01 0.000E+00

     negative rho (up, down):  6.861E-01 0.000E+00

     negative rho (up, down):  6.861E-01 0.000E+00

     negative rho (up, down):  6.861E-01 0.000E+00

     negative rho (up, down):  6.861E-01 0.000E+00

     negative rho (up, down):  6.861E-01 0.000E+00

     negative rho (up, down):  6.861E-01 0.000E+00

     negative rho (up, down):  6.861E-01 0.000E+00

     negative rho (up, down):  6.861E-01 0.000E+00

     negative rho (up, down):  6.861E-01 0.000E+00

     negative rho (up, down):  6.861E-01 0.000E+00

     negative rho (up, down):  6.861E-01 0.000E+00

     negative rho (up, down):  6.861E-01 0.000E+00

     negative rho (up, down):  6.861E-01 0.000E+00

     negative rho (up, down):  6.861E-01 0.000E+00

     negative rho (up, down):  6.861E-01 0.000E+00

     negative rho (up, down):  6.861E-01 0.000E+00

     negative rho (up, down):  6.861E-01 0.000E+00

     negative rho (up, down):  6.861E-01 0.000E+00

     negative rho (up, down):  6.861E-01 0.000E+00

     negative rho (up, down):  6.861E-01 0.000E+00

     negative rho (up, down):  6.861E-01 0.000E+00

     negative rho (up, down):  6.861E-01 0.000E+00

     negative rho (up, down):  6.861E-01 0.000E+00
 
     Adding external electric field

     Computed dipole along edir(3) : 
        Dipole               -0.6324 Ry au,         -1.6075 Debye
        Dipole field         -0.0019 Ry au
 
        Potential amp.        0.1702 Ry
        Total length         45.0136 bohr
 

     total cpu time spent up to now is      931.2 secs

     End of self-consistent calculation

          k = 0.0000 0.0000 0.0000 ( 15785 PWs)   bands (ev):

   -46.1628 -46.1462 -46.1462 -46.0310 -45.9745 -45.9629 -45.9629 -45.8101
   -45.7737 -45.7737 -45.7662 -45.7661 -45.7419 -45.6666 -45.6606 -45.6606
   -45.6366 -45.6366 -45.4897 -45.4894 -45.4627 -45.4587 -45.3830 -45.3826
   -45.3349 -45.3349 -45.3250 -45.2993 -45.2916 -45.2915 -45.2544 -45.2470
   -45.2289 -45.2288 -45.2129 -45.2129 -14.7848  -5.7895  -4.5596  -4.5422
    -4.5422  -4.4996  -4.3659  -4.2599  -4.2543  -4.2543  -4.0270  -4.0270
    -4.0243  -3.7302  -3.7105  -3.7105  -2.6622  -2.5854  -2.5853  -2.1847
    -2.1491  -2.1491  -1.9474  -1.8536  -1.8536  -1.5450  -1.5450  -1.4619
    -1.4618  -1.4434  -1.4417  -1.3099  -1.3099  -0.8826  -0.8825  -0.6486
    -0.4745  -0.1610  -0.1610  -0.0006   0.0450   0.0450   0.1445   0.1445
     0.3290   0.3291   0.4840   0.6292   0.6292   1.1361   1.1361   1.1378
     1.1560   1.2674   1.2675   1.3564   1.4262   1.4263   1.5180   1.5202
     1.5203   1.8018   1.8383   1.8385   1.9216   1.9217   1.9217

          k = 0.0000 0.0355 0.0000 ( 15795 PWs)   bands (ev):

   -46.1414 -46.1279 -46.1162 -46.0230 -45.9672 -45.9581 -45.9561 -45.8000
   -45.7868 -45.7822 -45.7532 -45.7451 -45.7423 -45.6745 -45.6521 -45.6492
   -45.6445 -45.6407 -45.4996 -45.4923 -45.4670 -45.4568 -45.3920 -45.3828
   -45.3535 -45.3472 -45.3230 -45.3224 -45.2986 -45.2949 -45.2566 -45.2485
   -45.2438 -45.2292 -45.2286 -45.2201 -14.7841  -5.5570  -4.4497  -4.3706
    -4.3570  -4.3047  -4.1585  -4.1382  -4.1165  -4.1149  -3.9455  -3.9031
    -3.9012  -3.6104  -3.5155  -3.5014  -2.6258  -2.5722  -2.5228  -2.1156
    -2.0605  -2.0559  -2.0384  -1.9504  -1.8455  -1.6888  -1.6018  -1.5904
    -1.4217  -1.4006  -1.3920  -1.3149  -1.1435  -1.0052  -0.9449  -0.7944
    -0.6409  -0.3917  -0.3324  -0.1064  -0.0679  -0.0069   0.0058   0.0929
     0.1191   0.2204   0.2564   0.4717   0.6315   0.8090   0.8664   0.9475
     0.9871   1.0240   1.0707   1.1200   1.2303   1.2589   1.2826   1.3195
     1.4153   1.4758   1.5876   1.6496   1.6665   1.6863   1.9755

          k = 0.0000 0.0709 0.0000 ( 15819 PWs)   bands (ev):

   -46.0935 -46.0833 -46.0281 -46.0022 -45.9611 -45.9493 -45.9425 -45.8442
   -45.8257 -45.7752 -45.7524 -45.7300 -45.7063 -45.6811 -45.6676 -45.6174
   -45.6171 -45.5719 -45.5323 -45.5242 -45.4702 -45.4468 -45.4106 -45.3967
   -45.3945 -45.3921 -45.3738 -45.3368 -45.3159 -45.3023 -45.2866 -45.2596
   -45.2444 -45.2440 -45.2319 -45.2266 -14.7826  -4.9456  -4.2306  -3.9550
    -3.9311  -3.9247  -3.8622  -3.7191  -3.7126  -3.6925  -3.5889  -3.5742
    -3.5722  -3.3146  -2.9921  -2.9617  -2.5998  -2.5842  -2.4942  -2.3312
    -2.2925  -1.9938  -1.9397  -1.9194  -1.9039  -1.7953  -1.7650  -1.5086
    -1.4074  -1.3324  -1.2965  -1.2866  -1.2547  -1.2460  -1.1210  -0.9608
    -0.8187  -0.6801  -0.6454  -0.5674  -0.4202  -0.3352  -0.3191  -0.2905
    -0.2647  -0.1395  -0.0620  -0.0491   0.0889   0.1151   0.3522   0.4302
     0.4458   0.6014   0.6148   0.6361   0.7400   0.8331   0.8958   0.9935
     1.1034   1.2777   1.3216   1.3801   1.3846   1.5880   1.6475

          k = 0.0000-0.1064 0.0000 ( 15852 PWs)   bands (ev):

   -46.0611 -46.0532 -45.9798 -45.9751 -45.9441 -45.9361 -45.9130 -45.8909
   -45.8775 -45.8575 -45.7308 -45.7033 -45.6956 -45.6737 -45.6047 -45.5940
   -45.5933 -45.5866 -45.5562 -45.4692 -45.4659 -45.4614 -45.4489 -45.4337
   -45.4241 -45.4193 -45.4106 -45.3669 -45.3282 -45.2806 -45.2741 -45.2721
   -45.2649 -45.2427 -45.2337 -45.2269 -14.7819  -4.3238  -4.3111  -3.7459
    -3.7258  -3.6915  -3.6757  -3.4454  -3.4328  -3.3176  -3.3089  -3.2123
    -3.2072  -2.9476  -2.9184  -2.8428  -2.8107  -2.4314  -2.4290  -2.3462
    -2.3109  -2.2657  -2.2552  -1.9327  -1.8860  -1.7609  -1.5299  -1.5297
    -1.4623  -1.3661  -1.3181  -1.2859  -1.1277  -1.1217  -1.1132  -1.1096
    -1.0505  -1.0436  -1.0277  -0.9965  -0.9548  -0.6442  -0.5267  -0.5042
    -0.4893  -0.4011  -0.2837  -0.1192  -0.0532   0.0033   0.0629   0.0976
     0.1243   0.2035   0.2479   0.3814   0.5752   0.6063   0.6409   0.8076
     1.1367   1.2737   1.3165   1.3623   1.3825   1.6082   1.6533

          k = 0.0307-0.0177 0.0000 ( 15795 PWs)   bands (ev):

   -46.1414 -46.1279 -46.1162 -46.0230 -45.9672 -45.9581 -45.9560 -45.8000
   -45.7868 -45.7822 -45.7531 -45.7453 -45.7423 -45.6745 -45.6521 -45.6491
   -45.6445 -45.6407 -45.4993 -45.4925 -45.4671 -45.4568 -45.3917 -45.3831
   -45.3536 -45.3472 -45.3230 -45.3224 -45.2985 -45.2949 -45.2566 -45.2485
   -45.2438 -45.2292 -45.2286 -45.2201 -14.7841  -5.5570  -4.4497  -4.3707
    -4.3570  -4.3047  -4.1586  -4.1381  -4.1165  -4.1149  -3.9455  -3.9031
    -3.9012  -3.6104  -3.5155  -3.5014  -2.6259  -2.5722  -2.5228  -2.1156
    -2.0605  -2.0559  -2.0384  -1.9504  -1.8455  -1.6888  -1.6018  -1.5904
    -1.4217  -1.4006  -1.3920  -1.3149  -1.1435  -1.0051  -0.9450  -0.7944
    -0.6409  -0.3918  -0.3323  -0.1064  -0.0680  -0.0068   0.0058   0.0928
     0.1191   0.2205   0.2565   0.4717   0.6315   0.8090   0.8664   0.9474
     0.9871   1.0240   1.0707   1.1200   1.2303   1.2590   1.2826   1.3195
     1.4154   1.4757   1.5876   1.6496   1.6664   1.6863   1.9755

          k = 0.0307 0.0177 0.0000 ( 15795 PWs)   bands (ev):

   -46.1414 -46.1280 -46.1162 -46.0230 -45.9672 -45.9581 -45.9560 -45.8000
   -45.7868 -45.7822 -45.7531 -45.7452 -45.7423 -45.6745 -45.6521 -45.6492
   -45.6445 -45.6407 -45.4994 -45.4924 -45.4670 -45.4568 -45.3918 -45.3830
   -45.3536 -45.3471 -45.3230 -45.3224 -45.2985 -45.2949 -45.2567 -45.2485
   -45.2438 -45.2292 -45.2287 -45.2201 -14.7841  -5.5570  -4.4497  -4.3706
    -4.3570  -4.3047  -4.1586  -4.1381  -4.1165  -4.1149  -3.9455  -3.9031
    -3.9012  -3.6104  -3.5155  -3.5014  -2.6259  -2.5722  -2.5228  -2.1156
    -2.0605  -2.0559  -2.0384  -1.9504  -1.8455  -1.6888  -1.6018  -1.5904
    -1.4217  -1.4006  -1.3920  -1.3149  -1.1435  -1.0052  -0.9450  -0.7944
    -0.6409  -0.3917  -0.3323  -0.1064  -0.0680  -0.0068   0.0058   0.0928
     0.1191   0.2204   0.2565   0.4717   0.6315   0.8090   0.8664   0.9474
     0.9871   1.0240   1.0707   1.1200   1.2303   1.2590   1.2826   1.3195
     1.4153   1.4758   1.5876   1.6496   1.6665   1.6863   1.9755

          k = 0.0307 0.0532 0.0000 ( 15818 PWs)   bands (ev):

   -46.1117 -46.0787 -46.0683 -46.0087 -45.9589 -45.9534 -45.9453 -45.8498
   -45.7765 -45.7646 -45.7554 -45.7397 -45.7122 -45.7070 -45.6625 -45.6346
   -45.6089 -45.6058 -45.5346 -45.4915 -45.4796 -45.4491 -45.4087 -45.3988
   -45.3841 -45.3697 -45.3355 -45.3299 -45.3139 -45.3074 -45.2885 -45.2578
   -45.2449 -45.2389 -45.2315 -45.2261 -14.7830  -5.1275  -4.1790  -4.1671
    -4.0333  -3.9606  -3.9351  -3.9313  -3.7932  -3.7674  -3.7657  -3.7388
    -3.6099  -3.3108  -3.2937  -3.0702  -2.6377  -2.4915  -2.4638  -2.3647
    -2.1507  -2.0152  -1.9944  -1.9169  -1.8874  -1.8625  -1.5777  -1.5511
    -1.5099  -1.4081  -1.3554  -1.2295  -1.1901  -1.1594  -1.1335  -0.8506
    -0.7894  -0.7242  -0.5509  -0.4226  -0.2856  -0.2257  -0.1837  -0.1313
    -0.0735   0.0378   0.0618   0.0857   0.1533   0.2061   0.3079   0.5380
     0.5642   0.6836   0.7329   0.8500   0.8873   1.0406   1.0575   1.1484
     1.2585   1.3146   1.3826   1.4304   1.4719   1.5243   2.2633

          k = 0.0307-0.1241 0.0000 ( 15838 PWs)   bands (ev):

   -46.0631 -46.0272 -45.9863 -45.9718 -45.9626 -45.9506 -45.9324 -45.9194
   -45.8483 -45.7973 -45.7334 -45.7243 -45.6952 -45.6652 -45.6404 -45.6057
   -45.5841 -45.5662 -45.5316 -45.5183 -45.4876 -45.4717 -45.4433 -45.4233
   -45.4060 -45.4014 -45.3773 -45.3576 -45.3370 -45.3032 -45.2804 -45.2694
   -45.2636 -45.2425 -45.2346 -45.2260 -14.7819  -4.4452  -4.0215  -3.7056
    -3.6850  -3.6747  -3.5980  -3.5577  -3.4512  -3.4160  -3.3288  -3.2435
    -3.1854  -2.9778  -2.9437  -2.7910  -2.7676  -2.5142  -2.4643  -2.4286
    -2.2922  -2.1878  -2.1577  -2.0396  -1.9541  -1.7898  -1.6997  -1.6157
    -1.5662  -1.5072  -1.4686  -1.4204  -1.3863  -1.2355  -1.1574  -1.0955
    -1.0449  -0.9094  -0.8619  -0.8170  -0.7804  -0.7387  -0.5611  -0.4792
    -0.3952  -0.3021  -0.1964  -0.1419  -0.0871   0.0303   0.1213   0.1718
     0.3148   0.3793   0.5040   0.5631   0.7568   0.8165   0.8713   1.0458
     1.0906   1.1711   1.2468   1.2545   1.3945   1.4661   1.5246

          k = 0.0307-0.0887 0.0000 ( 15838 PWs)   bands (ev):

   -46.0631 -46.0272 -45.9863 -45.9718 -45.9626 -45.9506 -45.9324 -45.9194
   -45.8483 -45.7973 -45.7334 -45.7243 -45.6952 -45.6652 -45.6404 -45.6056
   -45.5840 -45.5662 -45.5318 -45.5183 -45.4876 -45.4717 -45.4433 -45.4232
   -45.4060 -45.4014 -45.3773 -45.3576 -45.3370 -45.3032 -45.2804 -45.2694
   -45.2636 -45.2425 -45.2346 -45.2260 -14.7819  -4.4452  -4.0215  -3.7056
    -3.6850  -3.6747  -3.5980  -3.5577  -3.4512  -3.4160  -3.3288  -3.2435
    -3.1854  -2.9778  -2.9437  -2.7910  -2.7676  -2.5142  -2.4643  -2.4286
    -2.2922  -2.1878  -2.1577  -2.0396  -1.9540  -1.7898  -1.6997  -1.6157
    -1.5662  -1.5072  -1.4686  -1.4204  -1.3863  -1.2355  -1.1574  -1.0955
    -1.0449  -0.9094  -0.8619  -0.8170  -0.7804  -0.7387  -0.5611  -0.4792
    -0.3952  -0.3021  -0.1963  -0.1419  -0.0871   0.0303   0.1213   0.1718
     0.3148   0.3793   0.5041   0.5631   0.7568   0.8165   0.8713   1.0459
     1.0906   1.1711   1.2468   1.2545   1.3945   1.4661   1.5246

          k = 0.0307-0.0532 0.0000 ( 15818 PWs)   bands (ev):

   -46.1117 -46.0787 -46.0684 -46.0087 -45.9590 -45.9534 -45.9453 -45.8498
   -45.7765 -45.7647 -45.7554 -45.7397 -45.7122 -45.7070 -45.6625 -45.6346
   -45.6089 -45.6058 -45.5345 -45.4916 -45.4796 -45.4491 -45.4087 -45.3986
   -45.3842 -45.3697 -45.3355 -45.3299 -45.3139 -45.3074 -45.2885 -45.2578
   -45.2449 -45.2389 -45.2315 -45.2262 -14.7830  -5.1275  -4.1790  -4.1672
    -4.0333  -3.9606  -3.9351  -3.9313  -3.7932  -3.7674  -3.7657  -3.7388
    -3.6099  -3.3108  -3.2937  -3.0702  -2.6377  -2.4915  -2.4638  -2.3647
    -2.1507  -2.0152  -1.9944  -1.9169  -1.8874  -1.8625  -1.5777  -1.5511
    -1.5099  -1.4081  -1.3554  -1.2295  -1.1900  -1.1594  -1.1335  -0.8506
    -0.7894  -0.7242  -0.5509  -0.4226  -0.2856  -0.2257  -0.1837  -0.1314
    -0.0736   0.0378   0.0619   0.0856   0.1533   0.2061   0.3079   0.5380
     0.5642   0.6836   0.7329   0.8500   0.8873   1.0406   1.0574   1.1484
     1.2585   1.3146   1.3826   1.4304   1.4719   1.5243   2.2633

          k = 0.0614-0.0355 0.0000 ( 15819 PWs)   bands (ev):

   -46.0935 -46.0832 -46.0281 -46.0022 -45.9611 -45.9493 -45.9425 -45.8441
   -45.8258 -45.7752 -45.7525 -45.7300 -45.7061 -45.6811 -45.6676 -45.6174
   -45.6171 -45.5719 -45.5320 -45.5244 -45.4705 -45.4469 -45.4103 -45.3967
   -45.3945 -45.3921 -45.3740 -45.3368 -45.3158 -45.3023 -45.2866 -45.2596
   -45.2444 -45.2440 -45.2319 -45.2266 -14.7826  -4.9456  -4.2306  -3.9550
    -3.9312  -3.9246  -3.8622  -3.7191  -3.7126  -3.6925  -3.5889  -3.5741
    -3.5722  -3.3145  -2.9922  -2.9616  -2.5998  -2.5841  -2.4942  -2.3312
    -2.2925  -1.9937  -1.9398  -1.9194  -1.9039  -1.7953  -1.7650  -1.5086
    -1.4074  -1.3324  -1.2965  -1.2866  -1.2547  -1.2460  -1.1210  -0.9608
    -0.8188  -0.6801  -0.6454  -0.5674  -0.4202  -0.3352  -0.3190  -0.2906
    -0.2647  -0.1396  -0.0620  -0.0492   0.0889   0.1151   0.3522   0.4302
     0.4458   0.6014   0.6148   0.6361   0.7400   0.8331   0.8958   0.9935
     1.1034   1.2776   1.3216   1.3802   1.3846   1.5881   1.6474

          k = 0.0614 0.0000 0.0000 ( 15818 PWs)   bands (ev):

   -46.1116 -46.0787 -46.0683 -46.0087 -45.9590 -45.9534 -45.9453 -45.8498
   -45.7765 -45.7647 -45.7554 -45.7397 -45.7121 -45.7070 -45.6625 -45.6346
   -45.6089 -45.6058 -45.5343 -45.4918 -45.4797 -45.4491 -45.4087 -45.3985
   -45.3843 -45.3697 -45.3355 -45.3299 -45.3138 -45.3074 -45.2885 -45.2578
   -45.2449 -45.2389 -45.2315 -45.2261 -14.7830  -5.1275  -4.1790  -4.1672
    -4.0332  -3.9606  -3.9351  -3.9313  -3.7932  -3.7674  -3.7657  -3.7388
    -3.6099  -3.3108  -3.2937  -3.0702  -2.6378  -2.4915  -2.4638  -2.3647
    -2.1507  -2.0152  -1.9944  -1.9169  -1.8874  -1.8625  -1.5777  -1.5511
    -1.5099  -1.4081  -1.3554  -1.2295  -1.1900  -1.1594  -1.1335  -0.8506
    -0.7894  -0.7242  -0.5509  -0.4225  -0.2856  -0.2257  -0.1837  -0.1314
    -0.0736   0.0379   0.0619   0.0856   0.1533   0.2061   0.3079   0.5380
     0.5642   0.6835   0.7329   0.8500   0.8873   1.0406   1.0574   1.1485
     1.2585   1.3146   1.3826   1.4304   1.4719   1.5243   2.2633

          k = 0.0614 0.0355 0.0000 ( 15819 PWs)   bands (ev):

   -46.0934 -46.0833 -46.0281 -46.0022 -45.9611 -45.9493 -45.9424 -45.8442
   -45.8257 -45.7752 -45.7525 -45.7300 -45.7062 -45.6811 -45.6676 -45.6173
   -45.6171 -45.5719 -45.5321 -45.5243 -45.4704 -45.4468 -45.4104 -45.3967
   -45.3945 -45.3921 -45.3739 -45.3368 -45.3158 -45.3023 -45.2866 -45.2596
   -45.2443 -45.2440 -45.2320 -45.2265 -14.7826  -4.9456  -4.2306  -3.9550
    -3.9311  -3.9247  -3.8622  -3.7192  -3.7126  -3.6925  -3.5889  -3.5741
    -3.5722  -3.3146  -2.9922  -2.9617  -2.5998  -2.5841  -2.4942  -2.3312
    -2.2925  -1.9938  -1.9397  -1.9194  -1.9039  -1.7953  -1.7650  -1.5086
    -1.4074  -1.3324  -1.2965  -1.2866  -1.2547  -1.2460  -1.1210  -0.9608
    -0.8187  -0.6801  -0.6454  -0.5674  -0.4202  -0.3352  -0.3190  -0.2906
    -0.2648  -0.1395  -0.0620  -0.0491   0.0889   0.1150   0.3522   0.4302
     0.4458   0.6014   0.6148   0.6361   0.7399   0.8331   0.8958   0.9935
     1.1034   1.2777   1.3216   1.3801   1.3846   1.5880   1.6475

          k = 0.0614-0.1419 0.0000 ( 15838 PWs)   bands (ev):

   -46.0631 -46.0272 -45.9863 -45.9718 -45.9626 -45.9506 -45.9323 -45.9194
   -45.8483 -45.7973 -45.7334 -45.7244 -45.6952 -45.6651 -45.6402 -45.6058
   -45.5841 -45.5662 -45.5316 -45.5183 -45.4877 -45.4717 -45.4433 -45.4233
   -45.4059 -45.4014 -45.3774 -45.3576 -45.3369 -45.3032 -45.2804 -45.2694
   -45.2636 -45.2425 -45.2347 -45.2259 -14.7819  -4.4452  -4.0215  -3.7056
    -3.6850  -3.6747  -3.5980  -3.5577  -3.4512  -3.4160  -3.3288  -3.2435
    -3.1854  -2.9778  -2.9437  -2.7910  -2.7676  -2.5142  -2.4643  -2.4286
    -2.2922  -2.1878  -2.1577  -2.0396  -1.9541  -1.7898  -1.6997  -1.6157
    -1.5661  -1.5072  -1.4686  -1.4204  -1.3863  -1.2355  -1.1574  -1.0955
    -1.0450  -0.9094  -0.8619  -0.8170  -0.7804  -0.7387  -0.5611  -0.4792
    -0.3952  -0.3020  -0.1964  -0.1419  -0.0871   0.0303   0.1213   0.1718
     0.3148   0.3793   0.5040   0.5631   0.7568   0.8165   0.8713   1.0459
     1.0906   1.1711   1.2468   1.2545   1.3944   1.4661   1.5246

          k = 0.0614-0.1064 0.0000 ( 15840 PWs)   bands (ev):

   -46.0029 -46.0019 -45.9701 -45.9660 -45.9613 -45.9485 -45.9484 -45.9260
   -45.9211 -45.7568 -45.7395 -45.7377 -45.6815 -45.6705 -45.6155 -45.5868
   -45.5805 -45.5582 -45.5316 -45.5034 -45.4981 -45.4911 -45.4858 -45.4348
   -45.4219 -45.3837 -45.3740 -45.3731 -45.3126 -45.3120 -45.3107 -45.2743
   -45.2693 -45.2407 -45.2372 -45.2252 -14.7815  -3.8520  -3.8384  -3.8368
    -3.3823  -3.3459  -3.3426  -3.3354  -3.3330  -3.1953  -3.1126  -3.1099
    -3.1036  -3.0705  -3.0693  -3.0635  -2.6315  -2.6132  -2.3429  -2.2503
    -2.2259  -2.1453  -2.1418  -2.1393  -2.0433  -1.9529  -1.9139  -1.8288
    -1.8247  -1.8180  -1.7194  -1.5397  -1.4881  -1.3315  -1.3259  -1.1690
    -1.1512  -1.1109  -1.1001  -1.0905  -1.0891  -0.5729  -0.5561  -0.5545
    -0.4127  -0.2997  -0.1258  -0.0846  -0.0279   0.1277   0.1557   0.2328
     0.3678   0.5001   0.7470   0.8012   0.8819   0.8940   0.9480   0.9937
     1.0874   1.1055   1.1559   1.1890   1.2145   1.2168   1.2317

          k = 0.0614-0.0709 0.0000 ( 15838 PWs)   bands (ev):

   -46.0631 -46.0272 -45.9863 -45.9718 -45.9626 -45.9506 -45.9324 -45.9194
   -45.8483 -45.7974 -45.7334 -45.7245 -45.6952 -45.6650 -45.6402 -45.6058
   -45.5841 -45.5662 -45.5316 -45.5183 -45.4878 -45.4717 -45.4433 -45.4233
   -45.4058 -45.4013 -45.3775 -45.3576 -45.3368 -45.3032 -45.2804 -45.2694
   -45.2636 -45.2425 -45.2346 -45.2260 -14.7819  -4.4452  -4.0215  -3.7056
    -3.6850  -3.6747  -3.5980  -3.5577  -3.4512  -3.4160  -3.3288  -3.2435
    -3.1854  -2.9778  -2.9437  -2.7910  -2.7676  -2.5142  -2.4643  -2.4286
    -2.2922  -2.1879  -2.1576  -2.0396  -1.9540  -1.7898  -1.6997  -1.6157
    -1.5662  -1.5072  -1.4685  -1.4204  -1.3863  -1.2355  -1.1574  -1.0955
    -1.0450  -0.9094  -0.8619  -0.8170  -0.7804  -0.7387  -0.5611  -0.4792
    -0.3952  -0.3020  -0.1964  -0.1419  -0.0871   0.0303   0.1213   0.1718
     0.3148   0.3794   0.5040   0.5632   0.7568   0.8165   0.8713   1.0459
     1.0906   1.1711   1.2468   1.2544   1.3945   1.4661   1.5246

          k =-0.0921 0.0532 0.0000 ( 15852 PWs)   bands (ev):

   -46.0611 -46.0531 -45.9798 -45.9751 -45.9441 -45.9361 -45.9130 -45.8910
   -45.8775 -45.8575 -45.7311 -45.7033 -45.6956 -45.6733 -45.6041 -45.5940
   -45.5934 -45.5867 -45.5565 -45.4695 -45.4659 -45.4615 -45.4489 -45.4336
   -45.4242 -45.4192 -45.4102 -45.3672 -45.3279 -45.2806 -45.2742 -45.2721
   -45.2649 -45.2427 -45.2337 -45.2269 -14.7819  -4.3238  -4.3111  -3.7459
    -3.7257  -3.6915  -3.6756  -3.4455  -3.4328  -3.3176  -3.3089  -3.2123
    -3.2072  -2.9477  -2.9183  -2.8429  -2.8107  -2.4315  -2.4289  -2.3463
    -2.3108  -2.2658  -2.2551  -1.9327  -1.8860  -1.7609  -1.5299  -1.5296
    -1.4622  -1.3662  -1.3180  -1.2858  -1.1277  -1.1217  -1.1133  -1.1097
    -1.0506  -1.0436  -1.0276  -0.9965  -0.9548  -0.6443  -0.5266  -0.5042
    -0.4893  -0.4011  -0.2836  -0.1192  -0.0533   0.0032   0.0628   0.0977
     0.1243   0.2035   0.2479   0.3815   0.5752   0.6064   0.6409   0.8076
     1.1367   1.2737   1.3165   1.3622   1.3826   1.6083   1.6532

          k =-0.0921 0.0887 0.0000 ( 15838 PWs)   bands (ev):

   -46.0631 -46.0272 -45.9863 -45.9718 -45.9626 -45.9506 -45.9324 -45.9194
   -45.8483 -45.7973 -45.7334 -45.7245 -45.6952 -45.6650 -45.6402 -45.6056
   -45.5839 -45.5662 -45.5318 -45.5183 -45.4879 -45.4717 -45.4434 -45.4231
   -45.4059 -45.4013 -45.3775 -45.3576 -45.3368 -45.3032 -45.2804 -45.2694
   -45.2636 -45.2425 -45.2346 -45.2260 -14.7819  -4.4452  -4.0215  -3.7056
    -3.6850  -3.6747  -3.5980  -3.5577  -3.4512  -3.4160  -3.3288  -3.2435
    -3.1854  -2.9778  -2.9437  -2.7910  -2.7676  -2.5142  -2.4643  -2.4286
    -2.2922  -2.1878  -2.1576  -2.0396  -1.9540  -1.7897  -1.6997  -1.6157
    -1.5662  -1.5073  -1.4686  -1.4204  -1.3863  -1.2355  -1.1574  -1.0955
    -1.0449  -0.9094  -0.8619  -0.8170  -0.7804  -0.7387  -0.5611  -0.4792
    -0.3952  -0.3020  -0.1964  -0.1419  -0.0871   0.0303   0.1213   0.1718
     0.3148   0.3794   0.5040   0.5631   0.7568   0.8165   0.8713   1.0459
     1.0906   1.1711   1.2468   1.2545   1.3945   1.4660   1.5246

          k =-0.0921 0.1241 0.0000 ( 15838 PWs)   bands (ev):

   -46.0631 -46.0272 -45.9863 -45.9718 -45.9626 -45.9506 -45.9323 -45.9194
   -45.8483 -45.7973 -45.7334 -45.7244 -45.6952 -45.6651 -45.6403 -45.6056
   -45.5839 -45.5662 -45.5319 -45.5183 -45.4878 -45.4718 -45.4434 -45.4231
   -45.4059 -45.4013 -45.3774 -45.3576 -45.3369 -45.3032 -45.2804 -45.2694
   -45.2636 -45.2425 -45.2347 -45.2259 -14.7819  -4.4452  -4.0215  -3.7056
    -3.6849  -3.6747  -3.5980  -3.5577  -3.4512  -3.4160  -3.3288  -3.2435
    -3.1854  -2.9778  -2.9437  -2.7910  -2.7676  -2.5142  -2.4643  -2.4286
    -2.2922  -2.1878  -2.1577  -2.0396  -1.9540  -1.7897  -1.6997  -1.6157
    -1.5662  -1.5072  -1.4686  -1.4204  -1.3863  -1.2355  -1.1575  -1.0955
    -1.0449  -0.9094  -0.8619  -0.8170  -0.7804  -0.7388  -0.5611  -0.4792
    -0.3952  -0.3021  -0.1963  -0.1419  -0.0871   0.0303   0.1213   0.1718
     0.3148   0.3793   0.5041   0.5631   0.7568   0.8165   0.8713   1.0459
     1.0906   1.1711   1.2468   1.2545   1.3944   1.4661   1.5246

          k =-0.0921-0.0532 0.0000 ( 15852 PWs)   bands (ev):

   -46.0610 -46.0532 -45.9799 -45.9751 -45.9441 -45.9360 -45.9131 -45.8909
   -45.8776 -45.8575 -45.7309 -45.7033 -45.6957 -45.6735 -45.6043 -45.5941
   -45.5933 -45.5866 -45.5564 -45.4694 -45.4660 -45.4614 -45.4489 -45.4337
   -45.4241 -45.4191 -45.4104 -45.3671 -45.3280 -45.2806 -45.2743 -45.2720
   -45.2649 -45.2427 -45.2338 -45.2268 -14.7819  -4.3238  -4.3111  -3.7459
    -3.7257  -3.6915  -3.6757  -3.4455  -3.4328  -3.3176  -3.3089  -3.2123
    -3.2072  -2.9477  -2.9184  -2.8428  -2.8107  -2.4314  -2.4289  -2.3462
    -2.3109  -2.2657  -2.2552  -1.9327  -1.8860  -1.7609  -1.5299  -1.5297
    -1.4623  -1.3662  -1.3180  -1.2858  -1.1278  -1.1217  -1.1132  -1.1097
    -1.0506  -1.0435  -1.0276  -0.9965  -0.9548  -0.6443  -0.5267  -0.5042
    -0.4893  -0.4012  -0.2836  -0.1192  -0.0533   0.0033   0.0628   0.0977
     0.1243   0.2035   0.2479   0.3814   0.5752   0.6064   0.6409   0.8076
     1.1367   1.2737   1.3165   1.3623   1.3825   1.6082   1.6532

     the Fermi energy is     0.9156 ev

!    total energy              =   -2098.76315495 Ry
     Harris-Foulkes estimate   =   -2098.76313825 Ry
     estimated scf accuracy    <       0.00000688 Ry

     The total energy is the sum of the following terms:

     one-electron contribution =  -19477.34748538 Ry
     hartree contribution      =    9778.55481763 Ry
     xc contribution           =    -379.31118381 Ry
     ewald contribution        =    7979.46501683 Ry
     electric field correction =       0.00119531 Ry
     smearing contrib. (-TS)   =      -0.12551552 Ry

     convergence has been achieved in  23 iterations
 
 BEEF-vdW xc energy contributions
           1 :   -330.190620063790     
           2 :    302.850994433105     
           3 :   -255.758323577096     
           4 :    200.791558143704     
           5 :   -149.716133161309     
           6 :    110.590327483568     
           7 :   -86.0234270936641     
           8 :    73.5996020419668     
           9 :   -67.9847254873420     
          10 :    63.6503798701242     
          11 :   -57.0518538599001     
          12 :    47.4818218833850     
          13 :   -36.5303862609709     
          14 :    26.6939199744172     
          15 :   -19.9064687117298     
          16 :    16.6454476828590     
          17 :   -15.9102458075437     
          18 :    15.9216744792496     
          19 :   -15.0852091917012     
          20 :    12.7146672824489     
          21 :   -9.20060814367287     
          22 :    5.62059359447642     
          23 :   -3.06556521837820     
          24 :    2.05733627267921     
          25 :   -2.33822763770354     
          26 :    3.08803382443688     
          27 :   -3.40526431600756     
          28 :    2.78153824652293     
          29 :   -1.32459357753436     
          30 :  -0.365150693163628     
          31 :   -32.7251502792841     
          32 :   -24.4653214322644     

     Forces acting on atoms (Ry/au):


     negative rho (up, down):  6.861E-01 0.000E+00
     atom    1 type  1   force =     0.00153768    0.00088910    0.00502579
     atom    2 type  1   force =    -0.00153753    0.00089346    0.00504326
     atom    3 type  1   force =     0.00000205   -0.00178699    0.00504507
     atom    4 type  1   force =     0.00000581   -0.00001197    0.01045822
     atom    5 type  1   force =    -0.00000535    0.00353080    0.00895054
     atom    6 type  1   force =    -0.00000026   -0.00001634   -0.00568263
     atom    7 type  1   force =    -0.00302649   -0.00173589    0.00895206
     atom    8 type  1   force =     0.00305059   -0.00175997    0.00893970
     atom    9 type  1   force =    -0.00001073    0.00000185   -0.01547142
     atom   10 type  1   force =     0.00001234    0.02558624    0.03702354
     atom   11 type  1   force =     0.02212737   -0.01279250    0.03700132
     atom   12 type  1   force =    -0.02214743   -0.01281065    0.03700609
     atom   13 type  2   force =    -0.00000805    0.00001285   -0.14229154

     Total force =     0.164507     Total SCF correction =     0.012188


     entering subroutine stress ...


     negative rho (up, down):  6.861E-01 0.000E+00
          total   stress  (Ry/bohr**3)                   (kbar)     P=  -42.16
  -0.00024811  -0.00000002   0.00000001        -36.50     -0.00      0.00
  -0.00000002  -0.00024810  -0.00000002         -0.00    -36.50     -0.00
   0.00000001  -0.00000002  -0.00036362          0.00     -0.00    -53.49

 !ASE

     Writing output data file calc.save
 
     init_run     :     12.70s CPU     17.89s WALL (       1 calls)
     electrons    :    646.06s CPU    913.10s WALL (       1 calls)
     forces       :      4.06s CPU      4.73s WALL (       1 calls)
     stress       :     11.90s CPU     13.26s WALL (       1 calls)

     Called by init_run:
     wfcinit      :      9.78s CPU     14.19s WALL (       1 calls)
     potinit      :      1.30s CPU      1.68s WALL (       1 calls)

     Called by electrons:
     c_bands      :    496.48s CPU    698.22s WALL (      23 calls)
     sum_band     :     80.17s CPU    117.74s WALL (      23 calls)
     v_of_rho     :     23.02s CPU     34.24s WALL (      24 calls)
     newd         :     14.53s CPU     15.29s WALL (      24 calls)
     mix_rho      :      0.93s CPU      1.42s WALL (      23 calls)
     vdW_energy   :      2.38s CPU      2.39s WALL (      60 calls)
     vdW_ffts     :     34.94s CPU     54.09s WALL (     122 calls)
     vdW_v        :      6.65s CPU      9.55s WALL (      60 calls)

     Called by c_bands:
     init_us_2    :      1.12s CPU      1.17s WALL (     980 calls)
     cegterg      :    484.26s CPU    684.78s WALL (     460 calls)

     Called by *egterg:
     h_psi        :    324.22s CPU    507.99s WALL (    1973 calls)
     s_psi        :     15.53s CPU     15.90s WALL (    1973 calls)
     g_psi        :      0.76s CPU      0.75s WALL (    1493 calls)
     cdiaghg      :     84.31s CPU     87.56s WALL (    1953 calls)

     Called by h_psi:
     add_vuspsi   :     15.95s CPU     16.08s WALL (    1973 calls)

     General routines
     calbec       :     33.87s CPU     41.23s WALL (    2473 calls)
     fft          :     53.60s CPU     83.42s WALL (    3687 calls)
     ffts         :      0.18s CPU      0.30s WALL (      47 calls)
     fftw         :    325.95s CPU    537.83s WALL (  291836 calls)
     interpolate  :      0.81s CPU      1.32s WALL (      47 calls)
     davcio       :      0.00s CPU      0.02s WALL (      20 calls)
 
     Parallel routines
     fft_scatter  :    343.49s CPU    583.12s WALL (  295570 calls)
 
     PWSCF        : 11m15.45s CPU    15m50.25s WALL

 
   This run was terminated on:   8: 7:14  17Jan2018            

=------------------------------------------------------------------------------=
   JOB DONE.
=------------------------------------------------------------------------------=
Job  /afs/slac/g/suncat/bin/suncat-tsmpirun -x LD_LIBRARY_PATH -wdir /scratch/qe842475_21721 pw.x -in pw.inp

TID   HOST_NAME   COMMAND_LINE            STATUS            TERMINATION_TIME
===== ========== ================  =======================  ===================
00000 suncat0273 pw.x -in pw.inp   Done                     01/17/2018 08:07:14
00001 suncat0273 pw.x -in pw.inp   Done                     01/17/2018 08:07:14
00002 suncat0273 pw.x -in pw.inp   Done                     01/17/2018 08:07:14
00003 suncat0273 pw.x -in pw.inp   Done                     01/17/2018 08:07:14
00004 suncat0273 pw.x -in pw.inp   Done                     01/17/2018 08:07:14
00005 suncat0273 pw.x -in pw.inp   Done                     01/17/2018 08:07:14
00006 suncat0273 pw.x -in pw.inp   Done                     01/17/2018 08:07:14
00007 suncat0273 pw.x -in pw.inp   Done                     01/17/2018 08:07:14
00008 suncat0268 pw.x -in pw.inp   Done                     01/17/2018 08:07:14
00009 suncat0268 pw.x -in pw.inp   Done                     01/17/2018 08:07:14
00010 suncat0268 pw.x -in pw.inp   Done                     01/17/2018 08:07:14
00011 suncat0268 pw.x -in pw.inp   Done                     01/17/2018 08:07:14
00012 suncat0268 pw.x -in pw.inp   Done                     01/17/2018 08:07:14
00013 suncat0268 pw.x -in pw.inp   Done                     01/17/2018 08:07:14
00014 suncat0268 pw.x -in pw.inp   Done                     01/17/2018 08:07:14
00015 suncat0268 pw.x -in pw.inp   Done                     01/17/2018 08:07:14
00016 suncat0266 pw.x -in pw.inp   Done                     01/17/2018 08:07:14
00017 suncat0266 pw.x -in pw.inp   Done                     01/17/2018 08:07:14
00018 suncat0266 pw.x -in pw.inp   Done                     01/17/2018 08:07:14
00019 suncat0266 pw.x -in pw.inp   Done                     01/17/2018 08:07:14
00020 suncat0266 pw.x -in pw.inp   Done                     01/17/2018 08:07:14
00021 suncat0266 pw.x -in pw.inp   Done                     01/17/2018 08:07:14
00022 suncat0266 pw.x -in pw.inp   Done                     01/17/2018 08:07:14
00023 suncat0266 pw.x -in pw.inp   Done                     01/17/2018 08:07:14
00024 suncat0233 pw.x -in pw.inp   Done                     01/17/2018 08:07:14
00025 suncat0233 pw.x -in pw.inp   Done                     01/17/2018 08:07:14
00026 suncat0233 pw.x -in pw.inp   Done                     01/17/2018 08:07:14
00027 suncat0233 pw.x -in pw.inp   Done                     01/17/2018 08:07:14
00028 suncat0233 pw.x -in pw.inp   Done                     01/17/2018 08:07:14
00029 suncat0233 pw.x -in pw.inp   Done                     01/17/2018 08:07:14
00030 suncat0233 pw.x -in pw.inp   Done                     01/17/2018 08:07:14
00031 suncat0233 pw.x -in pw.inp   Done                     01/17/2018 08:07:14

     Program PWSCF v.5.1rc2 (svn rev. 11289) starts on 17Jan2018 at  8: 7:20 

     This program is part of the open-source Quantum ESPRESSO suite
     for quantum simulation of materials; please cite
         "P. Giannozzi et al., J. Phys.:Condens. Matter 21 395502 (2009);
          URL http://www.quantum-espresso.org", 
     in publications or presentations arising from this work. More details at
     http://www.quantum-espresso.org/quote

     Parallel version (MPI), running on    32 processors
     R & G space division:  proc/nbgrp/npool/nimage =      32
     Reading input from pw.inp
     Message from routine read_cards :
     DEPRECATED: no units specified in CELL_PARAMETERS card

     Current dimensions of program PWSCF are:
     Max number of different atomic species (ntypx) = 10
     Max number of k-points (npk) =  40000
     Max angular momentum in pseudopotentials (lmaxx) =  3
     Presently stress not available with electric field


     **************************************************************************
     Initializing libbeef V0.1.1 with the BEEF-vdW functional.
     Citation: Wellendorff et al., PRB 85, 235149 (2012).
     **************************************************************************


     IMPORTANT: XC functional enforced from input :
     Exchange-correlation      = BEEF-VDW ( 1  4 27 13 2)
     Any further DFT definition will be discarded
     Please, verify this is what you really want


     Subspace diagonalization in iterative solution of the eigenvalue problem:
     a serial algorithm will be used

 
     Parallelization info
     --------------------
     sticks:   dense  smooth     PW     G-vecs:    dense   smooth      PW
     Min          83      33      9                15627     3935     617
     Max          84      34     10                15638     3974     644
     Sum        2677    1069    313               500285   126611   20281
 


     bravais-lattice index     =            0
     lattice parameter (alat)  =       1.8897  a.u.
     unit-cell volume          =    4204.8134 (a.u.)^3
     number of atoms/cell      =           13
     number of atomic types    =            2
     number of electrons       =       186.00
     number of Kohn-Sham states=          103
     kinetic-energy cutoff     =      36.7493  Ry
     charge density cutoff     =     367.4932  Ry
     convergence threshold     =      1.0E-05
     mixing beta               =       0.3000
     number of iterations used =           10  plain     mixing
     Exchange-correlation      = BEEF-VDW ( 1  4 27 13 2)
     nstep                     =           50


     celldm(1)=   1.889726  celldm(2)=   0.000000  celldm(3)=   0.000000
     celldm(4)=   0.000000  celldm(5)=   0.000000  celldm(6)=   0.000000

     crystal axes: (cart. coord. in units of alat)
               a(1) = (   5.426750   0.000000   0.000000 )  
               a(2) = (   2.713375   4.699703   0.000000 )  
               a(3) = (   0.000000   0.000000  24.430923 )  

     reciprocal axes: (cart. coord. in units 2 pi/alat)
               b(1) = (  0.184272 -0.106390  0.000000 )  
               b(2) = (  0.000000  0.212779  0.000000 )  
               b(3) = (  0.000000  0.000000  0.040932 )  


     PseudoPot. # 1 for Rh read from file:
     /afs/slac.stanford.edu/u/if/mamunm/psp/gbrv1.5pbe/Rh.UPF
     MD5 check sum: 761627e959a2e3a1f56b0b5fe687810e
     Pseudo is Ultrasoft + core correction, Zval = 15.0
     Generated by new atomic code, or converted to UPF format
     Using radial grid of  969 points,  7 beta functions with: 
                l(1) =   0
                l(2) =   0
                l(3) =   1
                l(4) =   1
                l(5) =   2
                l(6) =   2
                l(7) =   2
     Q(r) pseudized with  8 coefficients,  rinner =    1.200   1.200   1.200
                                                       1.200   1.200

     PseudoPot. # 2 for O  read from file:
     /afs/slac.stanford.edu/u/if/mamunm/psp/gbrv1.5pbe/O.UPF
     MD5 check sum: 734c27235a0248c51dbae37a1fbe46ec
     Pseudo is Ultrasoft + core correction, Zval =  6.0
     Generated by new atomic code, or converted to UPF format
     Using radial grid of  737 points,  5 beta functions with: 
                l(1) =   0
                l(2) =   0
                l(3) =   1
                l(4) =   1
                l(5) =   2
     Q(r) pseudized with  8 coefficients,  rinner =    0.900   0.900   0.900
                                                       0.900   0.900

     vdW kernel table read from file vdW_kernel_table
     MD5 check sum: 095c7af220d748ca6e76c0b4c6cfb241

     atomic species   valence    mass     pseudopotential
        Rh1           15.00   102.90550     Rh( 1.00)
        O1             6.00    15.99900     O ( 1.00)

     No symmetry found



   Cartesian axes

     site n.     atom                  positions (alat units)
         1           Rh1 tau(   1) = (   1.3566875   0.7832839  10.0000000  )
         2           Rh1 tau(   2) = (   4.0700625   0.7832839  10.0000000  )
         3           Rh1 tau(   3) = (   2.7133750   3.1331356  10.0000000  )
         4           Rh1 tau(   4) = (   5.4267500   3.1331356  10.0000000  )
         5           Rh1 tau(   5) = (   5.4267500   1.5665678  12.2154614  )
         6           Rh1 tau(   6) = (   2.7133750   1.5665678  12.2154614  )
         7           Rh1 tau(   7) = (   6.7834375   3.9164194  12.2154614  )
         8           Rh1 tau(   8) = (   4.0700625   3.9164194  12.2154614  )
         9           Rh1 tau(   9) = (   5.4267224   0.0000048  14.3911442  )
        10           Rh1 tau(  10) = (   2.7134067   0.0657849  14.5261141  )
        11           Rh1 tau(  11) = (   1.4135792   2.3169608  14.5260570  )
        12           Rh1 tau(  12) = (   4.0131191   2.3169142  14.5260693  )
        13           O1  tau(  13) = (   2.7133543   1.5666008  16.1450766  )

     number of k points=    20  Fermi-Dirac smearing, width (Ry)=  0.0110
                       cart. coord. in units 2pi/alat
        k(    1) = (   0.0000000   0.0000000   0.0000000), wk =   0.0555556
        k(    2) = (   0.0000000   0.0354632   0.0000000), wk =   0.1111111
        k(    3) = (   0.0000000   0.0709265   0.0000000), wk =   0.1111111
        k(    4) = (   0.0000000  -0.1063897   0.0000000), wk =   0.0555556
        k(    5) = (   0.0307121  -0.0177316   0.0000000), wk =   0.1111111
        k(    6) = (   0.0307121   0.0177316   0.0000000), wk =   0.1111111
        k(    7) = (   0.0307121   0.0531948   0.0000000), wk =   0.1111111
        k(    8) = (   0.0307121  -0.1241213   0.0000000), wk =   0.1111111
        k(    9) = (   0.0307121  -0.0886581   0.0000000), wk =   0.1111111
        k(   10) = (   0.0307121  -0.0531948   0.0000000), wk =   0.1111111
        k(   11) = (   0.0614241  -0.0354632   0.0000000), wk =   0.1111111
        k(   12) = (   0.0614241   0.0000000   0.0000000), wk =   0.1111111
        k(   13) = (   0.0614241   0.0354632   0.0000000), wk =   0.1111111
        k(   14) = (   0.0614241  -0.1418529   0.0000000), wk =   0.1111111
        k(   15) = (   0.0614241  -0.1063897   0.0000000), wk =   0.1111111
        k(   16) = (   0.0614241  -0.0709265   0.0000000), wk =   0.1111111
        k(   17) = (  -0.0921362   0.0531948   0.0000000), wk =   0.0555556
        k(   18) = (  -0.0921362   0.0886581   0.0000000), wk =   0.1111111
        k(   19) = (  -0.0921362   0.1241213   0.0000000), wk =   0.1111111
        k(   20) = (  -0.0921362  -0.0531948   0.0000000), wk =   0.0555556

     Dense  grid:   500285 G-vectors     FFT dimensions: (  64,  64, 288)

     Smooth grid:   126611 G-vectors     FFT dimensions: (  40,  40, 180)

     Largest allocated arrays     est. size (Mb)     dimensions
        Kohn-Sham Wavefunctions         0.84 Mb     (     535,  103)
        NL pseudopotentials             2.36 Mb     (     535,  289)
        Each V/rho on FFT grid          0.56 Mb     (   36864)
        Each G-vector array             0.12 Mb     (   15636)
        G-vector shells                 0.05 Mb     (    7022)
     Largest temporary arrays     est. size (Mb)     dimensions
        Auxiliary wavefunctions         3.36 Mb     (     535,  412)
        Each subspace H/S matrix        2.59 Mb     (     412,  412)
        Each <psi_i|beta_j> matrix      0.45 Mb     (     289,  103)
        Arrays for rho mixing           5.62 Mb     (   36864,   10)

     Initial potential from superposition of free atoms
     Check: negative starting charge=   -0.662018

     starting charge  179.99882, renormalised to  186.00000

     negative rho (up, down):  6.841E-01 0.000E+00


     ************************************************************************
     *
     * You are using vdW-DF for exchange-correlation in this calculation.
     * Please cite the following three references that made this development
     * possible:
     *
     *   M. Dion, H. Rydberg, E. Schroder, D. C. Langreth, and
     *   B. I. Lundqvist, Phys. Rev. Lett. 92, 246401 (2004).
     *
     *   T. Thonhauser, V. R. Cooper, S. Li, A. Puzder, P. Hyldgaard, and
     *   D. C. Langreth, Phys. Rev. B 76, 125112 (2007).
     *
     *   G. Roman-Perez and J. M. Soler, Phys. Rev. Lett. 103, 096102 (2009).
     *
     *
     * If you are using vdW-DF2, please also cite:
     *
     *   K. Lee, E. D. Murray, L. Kong, B. I. Lundqvist, and
     *   D. C. Langreth, Phys. Rev. B 82, 081101(R) (2010).
     *
     *
     * If you are calculating the stress with vdW-DF, please also cite:
     *
     *   R. Sabatini, E. Kucukbenli, B. Kolb, T. Thonhauser, and
     *   S. de Gironcoli, J. Phys.: Condens. Matter 24, 424209 (2012).
     *
     ************************************************************************

     Carrying out vdW-DF run using the following parameters:

     Nqs =      20    Nr_points =    1024   r_max =   100.000
     q_mesh =
               0.00001000     0.04494208     0.09755937     0.15916263
               0.23128650     0.31572767     0.41458969     0.53033537
               0.66584808     0.82450364     1.01025438     1.22772762
               1.48234092     1.78043706     2.12944203     2.53805004
               3.01644009     3.57652955     4.23227104     5.00000000

     Gradients computed in reciprocal space

     ************************************************************************


 
     Adding external electric field

     Computed dipole along edir(3) : 
        Dipole               -1.4777 Ry au,         -3.7560 Debye
        Dipole field         -0.0044 Ry au
 
        Potential amp.        0.3976 Ry
        Total length         45.0136 bohr
 
     Starting wfc are  148 randomized atomic wfcs

     total cpu time spent up to now is       18.2 secs

     per-process dynamical memory:    47.3 Mb

     Self-consistent Calculation

     iteration #  1     ecut=    36.75 Ry     beta=0.30
     Davidson diagonalization with overlap
     ethr =  1.00E-02,  avg # of iterations =  2.0

     negative rho (up, down):  6.946E-01 0.000E+00
 
     Adding external electric field

     Computed dipole along edir(3) : 
        Dipole               25.6157 Ry au,         65.1087 Debye
        Dipole field          0.0766 Ry au
 
        Potential amp.       -6.8920 Ry
        Total length         45.0136 bohr
 

     total cpu time spent up to now is       53.6 secs

     total energy              =   -2044.59825980 Ry
     Harris-Foulkes estimate   =   -2099.79854756 Ry
     estimated scf accuracy    <     113.74081851 Ry

     iteration #  2     ecut=    36.75 Ry     beta=0.30
     Davidson diagonalization with overlap
     ethr =  1.00E-02,  avg # of iterations = 14.2

     negative rho (up, down):  6.912E-01 0.000E+00
 
     Adding external electric field

     Computed dipole along edir(3) : 
        Dipole               -3.8308 Ry au,         -9.7368 Debye
        Dipole field         -0.0114 Ry au
 
        Potential amp.        1.0307 Ry
        Total length         45.0136 bohr
 

     total cpu time spent up to now is      158.8 secs

     total energy              =   -1914.52406435 Ry
     Harris-Foulkes estimate   =   -2447.77946703 Ry
     estimated scf accuracy    <   13592.80180041 Ry

     iteration #  3     ecut=    36.75 Ry     beta=0.30
     Davidson diagonalization with overlap
     ethr =  1.00E-02,  avg # of iterations =  9.2

     negative rho (up, down):  6.985E-01 0.000E+00
 
     Adding external electric field

     Computed dipole along edir(3) : 
        Dipole               -1.9083 Ry au,         -4.8504 Debye
        Dipole field         -0.0057 Ry au
 
        Potential amp.        0.5134 Ry
        Total length         45.0136 bohr
 

     total cpu time spent up to now is      245.2 secs

     total energy              =   -2083.76650297 Ry
     Harris-Foulkes estimate   =   -2156.19389069 Ry
     estimated scf accuracy    <    1243.35608852 Ry

     iteration #  4     ecut=    36.75 Ry     beta=0.30
     Davidson diagonalization with overlap
     ethr =  1.00E-02,  avg # of iterations =  6.0

     negative rho (up, down):  6.987E-01 0.000E+00
 
     Adding external electric field

     Computed dipole along edir(3) : 
        Dipole               -0.6666 Ry au,         -1.6944 Debye
        Dipole field         -0.0020 Ry au
 
        Potential amp.        0.1794 Ry
        Total length         45.0136 bohr
 

     total cpu time spent up to now is      302.2 secs

     total energy              =   -2097.38961965 Ry
     Harris-Foulkes estimate   =   -2103.72126393 Ry
     estimated scf accuracy    <      76.60779325 Ry

     iteration #  5     ecut=    36.75 Ry     beta=0.30
     Davidson diagonalization with overlap
     ethr =  1.00E-02,  avg # of iterations =  3.2

     negative rho (up, down):  6.956E-01 0.000E+00
 
     Adding external electric field

     Computed dipole along edir(3) : 
        Dipole               -0.8951 Ry au,         -2.2751 Debye
        Dipole field         -0.0027 Ry au
 
        Potential amp.        0.2408 Ry
        Total length         45.0136 bohr
 

     total cpu time spent up to now is      335.3 secs

     total energy              =   -2097.46603065 Ry
     Harris-Foulkes estimate   =   -2100.54340366 Ry
     estimated scf accuracy    <      80.52370714 Ry

     iteration #  6     ecut=    36.75 Ry     beta=0.30
     Davidson diagonalization with overlap
     ethr =  1.00E-02,  avg # of iterations =  1.4

     negative rho (up, down):  6.958E-01 0.000E+00
 
     Adding external electric field

     Computed dipole along edir(3) : 
        Dipole               -1.0611 Ry au,         -2.6970 Debye
        Dipole field         -0.0032 Ry au
 
        Potential amp.        0.2855 Ry
        Total length         45.0136 bohr
 

     total cpu time spent up to now is      365.4 secs

     total energy              =   -2098.66518392 Ry
     Harris-Foulkes estimate   =   -2098.88512382 Ry
     estimated scf accuracy    <       1.14851945 Ry

     iteration #  7     ecut=    36.75 Ry     beta=0.30
     Davidson diagonalization with overlap
     ethr =  6.17E-04,  avg # of iterations =  5.0

     negative rho (up, down):  6.958E-01 0.000E+00
 
     Adding external electric field

     Computed dipole along edir(3) : 
        Dipole               -1.1280 Ry au,         -2.8672 Debye
        Dipole field         -0.0034 Ry au
 
        Potential amp.        0.3035 Ry
        Total length         45.0136 bohr
 

     total cpu time spent up to now is      408.0 secs

     total energy              =   -2098.76770017 Ry
     Harris-Foulkes estimate   =   -2099.04137402 Ry
     estimated scf accuracy    <       4.13216602 Ry

     iteration #  8     ecut=    36.75 Ry     beta=0.30
     Davidson diagonalization with overlap
     ethr =  6.17E-04,  avg # of iterations =  1.6

     negative rho (up, down):  6.957E-01 0.000E+00
 
     Adding external electric field

     Computed dipole along edir(3) : 
        Dipole               -1.0451 Ry au,         -2.6564 Debye
        Dipole field         -0.0031 Ry au
 
        Potential amp.        0.2812 Ry
        Total length         45.0136 bohr
 

     total cpu time spent up to now is      437.7 secs

     total energy              =   -2098.86996815 Ry
     Harris-Foulkes estimate   =   -2098.88943418 Ry
     estimated scf accuracy    <       0.26045594 Ry

     iteration #  9     ecut=    36.75 Ry     beta=0.30
     Davidson diagonalization with overlap
     ethr =  1.40E-04,  avg # of iterations =  3.9

     negative rho (up, down):  6.956E-01 0.000E+00
 
     Adding external electric field

     Computed dipole along edir(3) : 
        Dipole               -0.9958 Ry au,         -2.5311 Debye
        Dipole field         -0.0030 Ry au
 
        Potential amp.        0.2679 Ry
        Total length         45.0136 bohr
 

     total cpu time spent up to now is      470.6 secs

     total energy              =   -2098.87487566 Ry
     Harris-Foulkes estimate   =   -2098.89075678 Ry
     estimated scf accuracy    <       0.18526927 Ry

     iteration # 10     ecut=    36.75 Ry     beta=0.30
     Davidson diagonalization with overlap
     ethr =  9.96E-05,  avg # of iterations =  1.0

     negative rho (up, down):  6.952E-01 0.000E+00
 
     Adding external electric field

     Computed dipole along edir(3) : 
        Dipole               -0.9642 Ry au,         -2.4506 Debye
        Dipole field         -0.0029 Ry au
 
        Potential amp.        0.2594 Ry
        Total length         45.0136 bohr
 

     total cpu time spent up to now is      499.7 secs

     total energy              =   -2098.87870403 Ry
     Harris-Foulkes estimate   =   -2098.88446612 Ry
     estimated scf accuracy    <       0.08567589 Ry

     iteration # 11     ecut=    36.75 Ry     beta=0.30
     Davidson diagonalization with overlap
     ethr =  4.61E-05,  avg # of iterations =  3.4

     negative rho (up, down):  6.950E-01 0.000E+00
 
     Adding external electric field

     Computed dipole along edir(3) : 
        Dipole               -0.9487 Ry au,         -2.4113 Debye
        Dipole field         -0.0028 Ry au
 
        Potential amp.        0.2552 Ry
        Total length         45.0136 bohr
 

     total cpu time spent up to now is      532.3 secs

     total energy              =   -2098.88246585 Ry
     Harris-Foulkes estimate   =   -2098.88715132 Ry
     estimated scf accuracy    <       0.17094235 Ry

     iteration # 12     ecut=    36.75 Ry     beta=0.30
     Davidson diagonalization with overlap
     ethr =  4.61E-05,  avg # of iterations =  1.0

     negative rho (up, down):  6.946E-01 0.000E+00
 
     Adding external electric field

     Computed dipole along edir(3) : 
        Dipole               -0.9083 Ry au,         -2.3087 Debye
        Dipole field         -0.0027 Ry au
 
        Potential amp.        0.2444 Ry
        Total length         45.0136 bohr
 

     total cpu time spent up to now is      561.2 secs

     total energy              =   -2098.87532065 Ry
     Harris-Foulkes estimate   =   -2098.88488462 Ry
     estimated scf accuracy    <       0.13929487 Ry

     iteration # 13     ecut=    36.75 Ry     beta=0.30
     Davidson diagonalization with overlap
     ethr =  4.61E-05,  avg # of iterations =  1.4

     negative rho (up, down):  6.947E-01 0.000E+00
 
     Adding external electric field

     Computed dipole along edir(3) : 
        Dipole               -0.7112 Ry au,         -1.8077 Debye
        Dipole field         -0.0021 Ry au
 
        Potential amp.        0.1913 Ry
        Total length         45.0136 bohr
 

     total cpu time spent up to now is      590.5 secs

     total energy              =   -2098.87568984 Ry
     Harris-Foulkes estimate   =   -2098.88284739 Ry
     estimated scf accuracy    <       0.10608455 Ry

     iteration # 14     ecut=    36.75 Ry     beta=0.30
     Davidson diagonalization with overlap
     ethr =  4.61E-05,  avg # of iterations =  1.0

     negative rho (up, down):  6.947E-01 0.000E+00
 
     Adding external electric field

     Computed dipole along edir(3) : 
        Dipole               -0.5992 Ry au,         -1.5230 Debye
        Dipole field         -0.0018 Ry au
 
        Potential amp.        0.1612 Ry
        Total length         45.0136 bohr
 

     total cpu time spent up to now is      619.5 secs

     total energy              =   -2098.87560605 Ry
     Harris-Foulkes estimate   =   -2098.87922528 Ry
     estimated scf accuracy    <       0.02971075 Ry

     iteration # 15     ecut=    36.75 Ry     beta=0.30
     Davidson diagonalization with overlap
     ethr =  1.60E-05,  avg # of iterations =  3.2

     negative rho (up, down):  6.950E-01 0.000E+00
 
     Adding external electric field

     Computed dipole along edir(3) : 
        Dipole               -0.5401 Ry au,         -1.3727 Debye
        Dipole field         -0.0016 Ry au
 
        Potential amp.        0.1453 Ry
        Total length         45.0136 bohr
 

     total cpu time spent up to now is      651.4 secs

     total energy              =   -2098.87311220 Ry
     Harris-Foulkes estimate   =   -2098.88220174 Ry
     estimated scf accuracy    <       0.36873474 Ry

     iteration # 16     ecut=    36.75 Ry     beta=0.30
     Davidson diagonalization with overlap
     ethr =  1.60E-05,  avg # of iterations =  2.3

     negative rho (up, down):  6.950E-01 0.000E+00
 
     Adding external electric field

     Computed dipole along edir(3) : 
        Dipole               -0.4957 Ry au,         -1.2599 Debye
        Dipole field         -0.0015 Ry au
 
        Potential amp.        0.1334 Ry
        Total length         45.0136 bohr
 

     total cpu time spent up to now is      682.0 secs

     total energy              =   -2098.87745259 Ry
     Harris-Foulkes estimate   =   -2098.87821512 Ry
     estimated scf accuracy    <       0.00412921 Ry

[...]
   -44.9455 -44.9143 -44.8950 -44.8938 -44.8799 -44.8636 -44.8076 -44.8021
   -44.6929 -44.6681 -44.6348 -44.6197 -44.6182 -44.5942 -44.5845 -44.5453
   -44.5338 -44.5258 -44.5242 -44.5185 -17.4689  -4.6588  -4.2318  -4.2139
    -4.0882  -3.4483  -3.4335  -3.3103  -3.2133  -3.1853  -3.1140  -3.0701
    -3.0343  -2.9022  -2.8067  -2.7451  -2.5755  -2.4535  -1.9687  -1.7957
    -1.6976  -1.6278  -1.5885  -1.3732  -1.3304  -1.2227  -1.1809  -1.1371
    -1.0121  -0.8131  -0.7398  -0.7245  -0.6640  -0.5604  -0.5250  -0.4275
    -0.3448  -0.2102  -0.1048   0.1656   0.3013   0.3495   0.4071   0.4691
     0.5415   0.6174   0.6945   0.7288   0.9107   0.9764   1.0871   1.1964
     1.2777   1.4370   1.5034   1.5363   1.5679   1.7708   1.8082   1.8442
     1.9297   2.0806   2.1160   2.1534   2.2556   2.4428   3.0201

          k = 0.0614-0.0355 0.0000 ( 15819 PWs)   bands (ev):

   -45.6054 -45.4131 -45.3664 -45.3562 -45.2933 -45.2653 -45.2466 -45.2011
   -45.1969 -45.1093 -45.0924 -45.0806 -45.0742 -45.0698 -44.9885 -44.9880
   -44.9548 -44.9024 -44.8984 -44.8795 -44.8756 -44.8570 -44.8083 -44.8000
   -44.6853 -44.6798 -44.6786 -44.6334 -44.6238 -44.5885 -44.5817 -44.5471
   -44.5335 -44.5305 -44.5241 -44.5192 -17.4662  -4.6267  -4.1367  -4.0810
    -4.0311  -3.4708  -3.2592  -3.1891  -3.1753  -3.0630  -2.9633  -2.9356
    -2.9338  -2.8027  -2.7764  -2.6647  -2.4650  -2.3002  -1.9365  -1.8088
    -1.7631  -1.6571  -1.6125  -1.4361  -1.2568  -1.2296  -1.1829  -1.1430
    -1.0235  -1.0024  -0.7945  -0.6343  -0.5963  -0.5701  -0.4672  -0.4624
    -0.4197  -0.3222  -0.0361   0.0484   0.1984   0.2106   0.2780   0.2896
     0.3878   0.4474   0.5735   0.5873   0.7756   0.8330   1.0853   1.1304
     1.2252   1.2423   1.3373   1.3716   1.4494   1.5220   1.6761   1.7223
     1.9208   1.9457   2.0116   2.1557   2.2691   2.3085   2.5395

          k = 0.0614 0.0000 0.0000 ( 15818 PWs)   bands (ev):

   -45.6200 -45.4053 -45.3854 -45.3601 -45.3025 -45.2934 -45.2541 -45.2002
   -45.1919 -45.1076 -45.0947 -45.0884 -45.0791 -45.0254 -45.0092 -44.9643
   -44.9456 -44.9142 -44.8950 -44.8939 -44.8800 -44.8635 -44.8073 -44.8024
   -44.6929 -44.6681 -44.6347 -44.6198 -44.6180 -44.5942 -44.5845 -44.5453
   -44.5340 -44.5259 -44.5236 -44.5188 -17.4689  -4.6587  -4.2318  -4.2138
    -4.0883  -3.4483  -3.4336  -3.3103  -3.2134  -3.1853  -3.1139  -3.0701
    -3.0344  -2.9023  -2.8067  -2.7451  -2.5755  -2.4536  -1.9687  -1.7956
    -1.6976  -1.6279  -1.5885  -1.3732  -1.3303  -1.2227  -1.1809  -1.1370
    -1.0119  -0.8132  -0.7398  -0.7244  -0.6640  -0.5605  -0.5251  -0.4275
    -0.3447  -0.2103  -0.1049   0.1655   0.3011   0.3496   0.4071   0.4691
     0.5414   0.6175   0.6945   0.7286   0.9108   0.9763   1.0870   1.1964
     1.2776   1.4370   1.5035   1.5364   1.5679   1.7707   1.8083   1.8443
     1.9298   2.0805   2.1161   2.1533   2.2557   2.4428   3.0201

          k = 0.0614 0.0355 0.0000 ( 15819 PWs)   bands (ev):

   -45.6055 -45.4127 -45.3662 -45.3565 -45.2936 -45.2653 -45.2466 -45.2014
   -45.1967 -45.1096 -45.0920 -45.0808 -45.0745 -45.0695 -44.9883 -44.9878
   -44.9547 -44.9018 -44.8990 -44.8799 -44.8758 -44.8567 -44.8081 -44.8003
   -44.6851 -44.6794 -44.6791 -44.6334 -44.6237 -44.5885 -44.5817 -44.5471
   -44.5339 -44.5305 -44.5229 -44.5200 -17.4662  -4.6267  -4.1367  -4.0810
    -4.0311  -3.4707  -3.2592  -3.1891  -3.1752  -3.0630  -2.9631  -2.9357
    -2.9340  -2.8027  -2.7764  -2.6647  -2.4651  -2.3000  -1.9365  -1.8086
    -1.7632  -1.6571  -1.6127  -1.4362  -1.2567  -1.2296  -1.1829  -1.1428
    -1.0236  -1.0024  -0.7945  -0.6343  -0.5962  -0.5699  -0.4674  -0.4623
    -0.4198  -0.3222  -0.0362   0.0484   0.1987   0.2105   0.2781   0.2895
     0.3879   0.4473   0.5733   0.5872   0.7758   0.8330   1.0853   1.1305
     1.2252   1.2422   1.3374   1.3716   1.4494   1.5221   1.6760   1.7220
     1.9207   1.9461   2.0118   2.1555   2.2690   2.3084   2.5395

          k = 0.0614-0.1419 0.0000 ( 15838 PWs)   bands (ev):

   -45.5668 -45.4359 -45.3470 -45.3228 -45.2472 -45.2343 -45.2231 -45.2018
   -45.1989 -45.1540 -45.1023 -45.0835 -45.0713 -45.0587 -45.0334 -44.9940
   -44.9647 -44.9061 -44.8811 -44.8708 -44.8555 -44.8269 -44.8052 -44.7924
   -44.7556 -44.6961 -44.6894 -44.6482 -44.6447 -44.5898 -44.5744 -44.5558
   -44.5507 -44.5323 -44.5253 -44.5190 -17.4610  -4.5317  -4.0370  -3.9082
    -3.6457  -3.2529  -2.9984  -2.9432  -2.9294  -2.8236  -2.7529  -2.6889
    -2.6474  -2.5564  -2.4443  -2.3969  -2.2554  -2.1790  -2.0387  -1.9013
    -1.7901  -1.7187  -1.5953  -1.5510  -1.4463  -1.4220  -1.3491  -1.2346
    -1.0572  -1.0306  -0.9081  -0.8341  -0.7656  -0.7192  -0.6345  -0.6273
    -0.4716  -0.3777  -0.2619  -0.1748  -0.1613  -0.0817  -0.0459   0.1390
     0.2791   0.3391   0.4321   0.4926   0.5896   0.6718   0.7511   0.8844
     0.9920   1.1362   1.2017   1.3476   1.4352   1.5726   1.6825   1.7362
     1.8274   1.8950   1.9667   2.0168   2.1290   2.3175   2.4298

          k = 0.0614-0.1064 0.0000 ( 15840 PWs)   bands (ev):

   -45.5332 -45.4642 -45.3374 -45.2707 -45.2661 -45.2090 -45.2087 -45.2064
   -45.1640 -45.1634 -45.1576 -45.0884 -45.0827 -45.0353 -45.0319 -45.0204
   -44.9489 -44.9389 -44.8700 -44.8447 -44.8373 -44.8160 -44.8081 -44.7760
   -44.7736 -44.7646 -44.6776 -44.6731 -44.5995 -44.5990 -44.5971 -44.5687
   -44.5553 -44.5296 -44.5286 -44.5179 -17.4584  -4.4620  -4.0113  -3.8612
    -3.1683  -3.0598  -3.0307  -2.6514  -2.6424  -2.5955  -2.5764  -2.5311
    -2.4357  -2.4145  -2.3255  -2.3194  -2.3171  -2.2561  -2.1257  -1.8847
    -1.8690  -1.7504  -1.6114  -1.5797  -1.5016  -1.4501  -1.3630  -1.3483
    -1.2536  -1.1507  -1.1373  -1.1310  -1.0660  -1.0150  -0.7227  -0.6155
    -0.6115  -0.5031  -0.4643  -0.4277  -0.3441  -0.2664  -0.0385   0.2184
     0.2529   0.2574   0.5284   0.5719   0.7056   0.7950   0.8491   0.8993
     1.0256   1.1854   1.3590   1.3720   1.6155   1.6730   1.6950   1.7387
     1.7845   1.8071   1.8090   1.9237   2.0094   2.1357   2.1582

          k = 0.0614-0.0709 0.0000 ( 15838 PWs)   bands (ev):

   -45.5665 -45.4364 -45.3469 -45.3231 -45.2469 -45.2341 -45.2229 -45.2020
   -45.1987 -45.1537 -45.1024 -45.0836 -45.0715 -45.0589 -45.0335 -44.9938
   -44.9649 -44.9058 -44.8810 -44.8709 -44.8555 -44.8271 -44.8050 -44.7924
   -44.7556 -44.6961 -44.6894 -44.6483 -44.6447 -44.5898 -44.5744 -44.5558
   -44.5507 -44.5316 -44.5263 -44.5186 -17.4610  -4.5316  -4.0370  -3.9083
    -3.6456  -3.2529  -2.9985  -2.9433  -2.9295  -2.8236  -2.7529  -2.6889
    -2.6473  -2.5563  -2.4443  -2.3970  -2.2553  -2.1791  -2.0387  -1.9014
    -1.7902  -1.7186  -1.5952  -1.5510  -1.4463  -1.4219  -1.3490  -1.2348
    -1.0571  -1.0306  -0.9081  -0.8341  -0.7656  -0.7192  -0.6346  -0.6273
    -0.4716  -0.3776  -0.2618  -0.1749  -0.1612  -0.0816  -0.0459   0.1389
     0.2790   0.3392   0.4321   0.4928   0.5896   0.6718   0.7511   0.8844
     0.9921   1.1362   1.2016   1.3476   1.4352   1.5724   1.6828   1.7362
     1.8275   1.8947   1.9665   2.0168   2.1291   2.3174   2.4299

          k =-0.0921 0.0532 0.0000 ( 15852 PWs)   bands (ev):

   -45.5688 -45.4338 -45.3410 -45.3335 -45.2524 -45.2314 -45.2153 -45.2092
   -45.1780 -45.1500 -45.1073 -45.0845 -45.0748 -45.0665 -45.0516 -44.9849
   -44.9662 -44.8904 -44.8821 -44.8777 -44.8696 -44.8254 -44.8003 -44.7434
   -44.7375 -44.7124 -44.7078 -44.7039 -44.6382 -44.5747 -44.5595 -44.5591
   -44.5523 -44.5320 -44.5251 -44.5196 -17.4610  -4.5788  -3.9702  -3.8987
    -3.5876  -3.4652  -3.0763  -3.0048  -2.9095  -2.7876  -2.7185  -2.6619
    -2.5745  -2.5106  -2.4311  -2.4245  -2.2949  -2.1835  -2.1574  -1.8225
    -1.6790  -1.6341  -1.6235  -1.5562  -1.4694  -1.4568  -1.2992  -1.1883
    -1.0026  -0.9128  -0.7390  -0.6862  -0.6713  -0.5774  -0.5575  -0.4700
    -0.4564  -0.3705  -0.3641  -0.2920  -0.2701  -0.2188   0.0463   0.1733
     0.2269   0.2604   0.4181   0.4405   0.5310   0.5710   0.6218   0.7651
     0.8703   0.8752   1.0551   1.1951   1.2216   1.3192   1.6515   1.6969
     1.7990   1.8930   2.0099   2.1563   2.1909   2.3380   2.5339

          k =-0.0921 0.0887 0.0000 ( 15838 PWs)   bands (ev):

   -45.5666 -45.4362 -45.3470 -45.3231 -45.2470 -45.2340 -45.2229 -45.2019
   -45.1988 -45.1539 -45.1024 -45.0836 -45.0714 -45.0587 -45.0335 -44.9939
   -44.9650 -44.9058 -44.8811 -44.8709 -44.8555 -44.8271 -44.8049 -44.7924
   -44.7557 -44.6961 -44.6893 -44.6483 -44.6447 -44.5898 -44.5744 -44.5558
   -44.5507 -44.5318 -44.5260 -44.5187 -17.4610  -4.5316  -4.0370  -3.9084
    -3.6456  -3.2528  -2.9985  -2.9433  -2.9295  -2.8236  -2.7529  -2.6888
    -2.6473  -2.5563  -2.4443  -2.3970  -2.2553  -2.1791  -2.0388  -1.9013
    -1.7901  -1.7186  -1.5953  -1.5510  -1.4463  -1.4219  -1.3490  -1.2348
    -1.0571  -1.0305  -0.9081  -0.8342  -0.7656  -0.7192  -0.6345  -0.6273
    -0.4717  -0.3776  -0.2618  -0.1749  -0.1613  -0.0816  -0.0459   0.1390
     0.2790   0.3390   0.4322   0.4927   0.5897   0.6718   0.7511   0.8844
     0.9920   1.1363   1.2016   1.3476   1.4352   1.5725   1.6827   1.7362
     1.8276   1.8948   1.9665   2.0168   2.1291   2.3176   2.4297

          k =-0.0921 0.1241 0.0000 ( 15838 PWs)   bands (ev):

   -45.5668 -45.4359 -45.3471 -45.3229 -45.2472 -45.2343 -45.2230 -45.2019
   -45.1988 -45.1537 -45.1024 -45.0835 -45.0715 -45.0588 -45.0334 -44.9940
   -44.9647 -44.9061 -44.8811 -44.8709 -44.8555 -44.8269 -44.8052 -44.7924
   -44.7556 -44.6961 -44.6894 -44.6482 -44.6446 -44.5898 -44.5744 -44.5558
   -44.5507 -44.5322 -44.5254 -44.5190 -17.4610  -4.5316  -4.0370  -3.9084
    -3.6457  -3.2529  -2.9984  -2.9432  -2.9295  -2.8236  -2.7529  -2.6889
    -2.6474  -2.5564  -2.4443  -2.3969  -2.2553  -2.1790  -2.0387  -1.9013
    -1.7901  -1.7187  -1.5954  -1.5510  -1.4462  -1.4219  -1.3491  -1.2346
    -1.0572  -1.0306  -0.9080  -0.8341  -0.7655  -0.7192  -0.6345  -0.6273
    -0.4716  -0.3777  -0.2619  -0.1748  -0.1613  -0.0817  -0.0459   0.1389
     0.2791   0.3391   0.4321   0.4927   0.5896   0.6717   0.7512   0.8844
     0.9920   1.1362   1.2017   1.3476   1.4352   1.5726   1.6825   1.7363
     1.8274   1.8949   1.9667   2.0168   2.1290   2.3176   2.4297

          k =-0.0921-0.0532 0.0000 ( 15852 PWs)   bands (ev):

   -45.5691 -45.4331 -45.3413 -45.3331 -45.2529 -45.2314 -45.2156 -45.2089
   -45.1789 -45.1497 -45.1069 -45.0846 -45.0743 -45.0666 -45.0516 -44.9851
   -44.9658 -44.8909 -44.8826 -44.8770 -44.8698 -44.8251 -44.8006 -44.7431
   -44.7380 -44.7118 -44.7086 -44.7036 -44.6381 -44.5747 -44.5600 -44.5587
   -44.5523 -44.5327 -44.5237 -44.5204 -17.4610  -4.5788  -3.9702  -3.8986
    -3.5876  -3.4652  -3.0760  -3.0047  -2.9096  -2.7875  -2.7187  -2.6620
    -2.5745  -2.5104  -2.4311  -2.4248  -2.2949  -2.1834  -2.1572  -1.8226
    -1.6790  -1.6341  -1.6232  -1.5562  -1.4696  -1.4568  -1.2995  -1.1881
    -1.0027  -0.9129  -0.7389  -0.6862  -0.6712  -0.5774  -0.5575  -0.4697
    -0.4565  -0.3708  -0.3638  -0.2920  -0.2700  -0.2191   0.0464   0.1733
     0.2267   0.2606   0.4182   0.4402   0.5312   0.5708   0.6216   0.7650
     0.8704   0.8756   1.0553   1.1952   1.2215   1.3191   1.6518   1.6965
     1.7993   1.8929   2.0103   2.1561   2.1908   2.3379   2.5340

     the Fermi energy is     1.6390 ev

!    total energy              =   -2098.93169541 Ry
     Harris-Foulkes estimate   =   -2098.93171539 Ry
     estimated scf accuracy    <       0.00000763 Ry

     The total energy is the sum of the following terms:

     one-electron contribution =  -19748.05692153 Ry
     hartree contribution      =    9917.18488240 Ry
     xc contribution           =    -379.68998620 Ry
     ewald contribution        =    8111.75275705 Ry
     electric field correction =       0.00004886 Ry
     smearing contrib. (-TS)   =      -0.12247598 Ry

     convergence has been achieved in  23 iterations
 
 BEEF-vdW xc energy contributions
           1 :   -330.602279426894     
           2 :    303.449614858957     
           3 :   -256.532379749833     
           4 :    201.537736003306     
           5 :   -150.192597315338     
           6 :    110.666107825547     
           7 :   -85.7421556643031     
           8 :    73.1430854126902     
           9 :   -67.5723523419704     
          10 :    63.4354649198898     
          11 :   -57.0671824764762     
          12 :    47.6566509553971     
          13 :   -36.7551815838144     
          14 :    26.8820757551089     
          15 :   -20.0231604602092     
          16 :    16.7028109549203     
          17 :   -15.9392430871419     
          18 :    15.9431718607070     
          19 :   -15.1027169187664     
          20 :    12.7278756084187     
          21 :   -9.21913062009918     
          22 :    5.66311126892640     
          23 :   -3.14741415568596     
          24 :    2.17762409624015     
          25 :   -2.47613776194203     
          26 :    3.21311442988167     
          27 :   -3.49617108492589     
          28 :    2.83931159570295     
          29 :   -1.37070161805832     
          30 :  -0.305574714294039     
          31 :   -32.7521267666192     
          32 :   -24.5288610883633     

     Forces acting on atoms (Ry/au):


     negative rho (up, down):  6.938E-01 0.000E+00
     atom    1 type  1   force =     0.00109137    0.00062495    0.00710655
     atom    2 type  1   force =    -0.00108307    0.00061787    0.00711038
     atom    3 type  1   force =     0.00000550   -0.00124611    0.00712597
     atom    4 type  1   force =    -0.00001394    0.00001575    0.00891477
     atom    5 type  1   force =    -0.00000983    0.00489211   -0.00266982
     atom    6 type  1   force =     0.00001622    0.00000322   -0.01924304
     atom    7 type  1   force =    -0.00424172   -0.00243786   -0.00264068
     atom    8 type  1   force =     0.00423168   -0.00245136   -0.00264607
     atom    9 type  1   force =    -0.00002205   -0.00004192   -0.00174654
     atom   10 type  1   force =     0.00002546   -0.00023859   -0.00046048
     atom   11 type  1   force =    -0.00015474    0.00013827   -0.00042166
     atom   12 type  1   force =     0.00011382    0.00005647   -0.00043478
     atom   13 type  2   force =     0.00004131    0.00006719    0.00000541

     Total force =     0.026513     Total SCF correction =     0.018140
     SCF correction compared to forces is large: reduce conv_thr to get better values


     entering subroutine stress ...


     negative rho (up, down):  6.938E-01 0.000E+00
          total   stress  (Ry/bohr**3)                   (kbar)     P=  -27.88
  -0.00018880   0.00000003   0.00000004        -27.77      0.00      0.01
   0.00000003  -0.00018882   0.00000001          0.00    -27.78      0.00
   0.00000004   0.00000001  -0.00019090          0.01      0.00    -28.08

 !ASE

     Writing output data file calc.save
 
     init_run     :     11.73s CPU     18.18s WALL (       1 calls)
     electrons    :    650.25s CPU    915.33s WALL (       1 calls)
     forces       :      4.10s CPU      4.77s WALL (       1 calls)
     stress       :     12.00s CPU     13.37s WALL (       1 calls)

     Called by init_run:
     wfcinit      :      8.74s CPU     14.18s WALL (       1 calls)
     potinit      :      1.20s CPU      1.69s WALL (       1 calls)

     Called by electrons:
     c_bands      :    498.75s CPU    698.16s WALL (      23 calls)
     sum_band     :     81.47s CPU    118.63s WALL (      23 calls)
     v_of_rho     :     23.11s CPU     34.16s WALL (      24 calls)
     newd         :     15.77s CPU     16.88s WALL (      24 calls)
     mix_rho      :      0.94s CPU      1.39s WALL (      23 calls)
     vdW_energy   :      2.44s CPU      2.45s WALL (      60 calls)
     vdW_ffts     :     34.16s CPU     53.86s WALL (     122 calls)
     vdW_v        :      6.63s CPU      9.51s WALL (      60 calls)

     Called by c_bands:
     init_us_2    :      1.21s CPU      1.27s WALL (     980 calls)
     cegterg      :    486.25s CPU    684.43s WALL (     460 calls)

     Called by *egterg:
     h_psi        :    327.67s CPU    511.55s WALL (    1902 calls)
     s_psi        :     15.95s CPU     16.20s WALL (    1902 calls)
     g_psi        :      0.75s CPU      0.75s WALL (    1422 calls)
     cdiaghg      :     81.45s CPU     84.27s WALL (    1882 calls)

     Called by h_psi:
     add_vuspsi   :     16.16s CPU     16.27s WALL (    1902 calls)

     General routines
     calbec       :     34.29s CPU     41.19s WALL (    2402 calls)
     fft          :     53.07s CPU     83.46s WALL (    3687 calls)
     ffts         :      0.19s CPU      0.30s WALL (      47 calls)
     fftw         :    329.51s CPU    540.79s WALL (  292668 calls)
     interpolate  :      0.84s CPU      1.29s WALL (      47 calls)
     davcio       :      0.00s CPU      0.02s WALL (      20 calls)
 
     Parallel routines
     fft_scatter  :    346.83s CPU    586.04s WALL (  296402 calls)
 
     PWSCF        : 11m18.91s CPU    15m53.01s WALL

 
   This run was terminated on:  10:49:21  17Jan2018            

=------------------------------------------------------------------------------=
   JOB DONE.
=------------------------------------------------------------------------------=
Job  /afs/slac/g/suncat/bin/suncat-tsmpirun -x LD_LIBRARY_PATH -wdir /scratch/qe842475_21721 pw.x -in pw.inp

TID   HOST_NAME   COMMAND_LINE            STATUS            TERMINATION_TIME
===== ========== ================  =======================  ===================
00000 suncat0273 pw.x -in pw.inp   Done                     01/17/2018 10:49:21
00001 suncat0273 pw.x -in pw.inp   Done                     01/17/2018 10:49:21
00002 suncat0273 pw.x -in pw.inp   Done                     01/17/2018 10:49:21
00003 suncat0273 pw.x -in pw.inp   Done                     01/17/2018 10:49:21
00004 suncat0273 pw.x -in pw.inp   Done                     01/17/2018 10:49:21
00005 suncat0273 pw.x -in pw.inp   Done                     01/17/2018 10:49:21
00006 suncat0273 pw.x -in pw.inp   Done                     01/17/2018 10:49:21
00007 suncat0273 pw.x -in pw.inp   Done                     01/17/2018 10:49:21
00008 suncat0268 pw.x -in pw.inp   Done                     01/17/2018 10:49:21
00009 suncat0268 pw.x -in pw.inp   Done                     01/17/2018 10:49:21
00010 suncat0268 pw.x -in pw.inp   Done                     01/17/2018 10:49:21
00011 suncat0268 pw.x -in pw.inp   Done                     01/17/2018 10:49:21
00012 suncat0268 pw.x -in pw.inp   Done                     01/17/2018 10:49:21
00013 suncat0268 pw.x -in pw.inp   Done                     01/17/2018 10:49:21
00014 suncat0268 pw.x -in pw.inp   Done                     01/17/2018 10:49:21
00015 suncat0268 pw.x -in pw.inp   Done                     01/17/2018 10:49:21
00016 suncat0266 pw.x -in pw.inp   Done                     01/17/2018 10:49:21
00017 suncat0266 pw.x -in pw.inp   Done                     01/17/2018 10:49:21
00018 suncat0266 pw.x -in pw.inp   Done                     01/17/2018 10:49:21
00019 suncat0266 pw.x -in pw.inp   Done                     01/17/2018 10:49:21
00020 suncat0266 pw.x -in pw.inp   Done                     01/17/2018 10:49:21
00021 suncat0266 pw.x -in pw.inp   Done                     01/17/2018 10:49:21
00022 suncat0266 pw.x -in pw.inp   Done                     01/17/2018 10:49:21
00023 suncat0266 pw.x -in pw.inp   Done                     01/17/2018 10:49:21
00024 suncat0233 pw.x -in pw.inp   Done                     01/17/2018 10:49:21
00025 suncat0233 pw.x -in pw.inp   Done                     01/17/2018 10:49:21
00026 suncat0233 pw.x -in pw.inp   Done                     01/17/2018 10:49:21
00027 suncat0233 pw.x -in pw.inp   Done                     01/17/2018 10:49:21
00028 suncat0233 pw.x -in pw.inp   Done                     01/17/2018 10:49:21
00029 suncat0233 pw.x -in pw.inp   Done                     01/17/2018 10:49:21
00030 suncat0233 pw.x -in pw.inp   Done                     01/17/2018 10:49:21
00031 suncat0233 pw.x -in pw.inp   Done                     01/17/2018 10:49:21
