  python dir          : /u/if/mamunm/src/espresso
  espresso dir        : /nfs/slac/g/suncatfs/sw/espv18/espresso-dynpy-beef/bin
  pseudo dir          : /u/if/mamunm/psp/gbrv1.5pbe
  ase-espresso py git : GITVERSION



     Program PWSCF v.5.1rc2 (svn rev. 11289) starts on  2May2018 at 14:50:14 

     This program is part of the open-source Quantum ESPRESSO suite
     for quantum simulation of materials; please cite
         "P. Giannozzi et al., J. Phys.:Condens. Matter 21 395502 (2009);
          URL http://www.quantum-espresso.org", 
     in publications or presentations arising from this work. More details at
     http://www.quantum-espresso.org/quote

     Parallel version (MPI), running on    32 processors
     K-points division:     npool     =       4
     R & G space division:  proc/nbgrp/npool/nimage =       8
     Reading input from pw.inp
     Message from routine read_cards :
     DEPRECATED: no units specified in CELL_PARAMETERS card

     Current dimensions of program PWSCF are:
     Max number of different atomic species (ntypx) = 10
     Max number of k-points (npk) =  40000
     Max angular momentum in pseudopotentials (lmaxx) =  3
     Presently stress not available with electric field


     **************************************************************************
     Initializing libbeef V0.1.1 with the BEEF-vdW functional.
     Citation: Wellendorff et al., PRB 85, 235149 (2012).
     **************************************************************************


     IMPORTANT: XC functional enforced from input :
     Exchange-correlation      = BEEF-VDW ( 1  4 27 13 2)
     Any further DFT definition will be discarded
     Please, verify this is what you really want


     Subspace diagonalization in iterative solution of the eigenvalue problem:
     a serial algorithm will be used

 
     Parallelization info
     --------------------
     sticks:   dense  smooth     PW     G-vecs:    dense   smooth      PW
     Min         469     188     53                90947    23011    3531
     Max         471     189     55                90959    23054    3542
     Sum        3757    1507    433               727599   184247   28311
 


     bravais-lattice index     =            0
     lattice parameter (alat)  =       1.8897  a.u.
     unit-cell volume          =    6116.8020 (a.u.)^3
     number of atoms/cell      =           13
     number of atomic types    =            2
     number of electrons       =       133.00
     number of Kohn-Sham states=           76
     kinetic-energy cutoff     =      36.7493  Ry
     charge density cutoff     =     367.4932  Ry
     convergence threshold     =      1.0E-05
     mixing beta               =       0.3000
     number of iterations used =           10  plain     mixing
     Exchange-correlation      = BEEF-VDW ( 1  4 27 13 2)
     nstep                     =           50


     celldm(1)=   1.889726  celldm(2)=   0.000000  celldm(3)=   0.000000
     celldm(4)=   0.000000  celldm(5)=   0.000000  celldm(6)=   0.000000

     crystal axes: (cart. coord. in units of alat)
               a(1) = (   6.437465   0.000000   0.000000 )  
               a(2) = (   3.218732   5.575008   0.000000 )  
               a(3) = (   0.000000   0.000000  25.256168 )  

     reciprocal axes: (cart. coord. in units 2 pi/alat)
               b(1) = (  0.155341 -0.089686  0.000000 )  
               b(2) = (  0.000000  0.179372  0.000000 )  
               b(3) = (  0.000000  0.000000  0.039594 )  


     PseudoPot. # 1 for Sc read from file:
     /u/if/mamunm/psp/gbrv1.5pbe/Sc.UPF
     MD5 check sum: db30a2753ba66ef00f23801d899b7e7f
     Pseudo is Ultrasoft + core correction, Zval = 11.0
     Generated by new atomic code, or converted to UPF format
     Using radial grid of  849 points,  6 beta functions with: 
                l(1) =   0
                l(2) =   0
                l(3) =   1
                l(4) =   1
                l(5) =   2
                l(6) =   2
     Q(r) pseudized with  6 coefficients,  rinner =    1.200   1.200   1.200
                                                       1.200   1.200

     PseudoPot. # 2 for H  read from file:
     /u/if/mamunm/psp/gbrv1.5pbe/H.UPF
     MD5 check sum: 761ae9a214b05c3daf00ab9f6b793d6f
     Pseudo is Ultrasoft, Zval =  1.0
     Generated by new atomic code, or converted to UPF format
     Using radial grid of  615 points,  2 beta functions with: 
                l(1) =   0
                l(2) =   0
     Q(r) pseudized with  8 coefficients,  rinner =    0.700

     vdW kernel table read from file vdW_kernel_table
     MD5 check sum: 095c7af220d748ca6e76c0b4c6cfb241

     atomic species   valence    mass     pseudopotential
        Sc1           11.00    44.95591     Sc( 1.00)
        H1             1.00     1.00800     H ( 1.00)

     No symmetry found



   Cartesian axes

     site n.     atom                  positions (alat units)
         1           Sc1 tau(   1) = (   1.6093662   0.9291680  10.0000000  )
         2           Sc1 tau(   2) = (   4.8280986   0.9291680  10.0000000  )
         3           Sc1 tau(   3) = (   3.2187324   3.7166720  10.0000000  )
         4           Sc1 tau(   4) = (   6.4374648   3.7166720  10.0000000  )
         5           Sc1 tau(   5) = (   6.4374648   1.8583360  12.6280840  )
         6           Sc1 tau(   6) = (   3.2187324   1.8583360  12.6280840  )
         7           Sc1 tau(   7) = (   8.0468310   4.6458400  12.6280840  )
         8           Sc1 tau(   8) = (   4.8280986   4.6458400  12.6280840  )
         9           Sc1 tau(   9) = (   0.0000000   0.0000000  15.2561680  )
        10           Sc1 tau(  10) = (   3.2187324   0.0000000  15.2561680  )
        11           Sc1 tau(  11) = (   1.6093662   2.7875040  15.2561680  )
        12           Sc1 tau(  12) = (   4.8280986   2.7875040  15.2561680  )
        13           H1  tau(  13) = (   1.6093662   0.9291680  16.5626680  )

     number of k points=    20  Fermi-Dirac smearing, width (Ry)=  0.0110
                       cart. coord. in units 2pi/alat
        k(    1) = (   0.0000000   0.0000000   0.0000000), wk =   0.0555556
        k(    2) = (   0.0000000   0.0298953   0.0000000), wk =   0.1111111
        k(    3) = (   0.0000000   0.0597906   0.0000000), wk =   0.1111111
        k(    4) = (   0.0000000  -0.0896860   0.0000000), wk =   0.0555556
        k(    5) = (   0.0258901  -0.0149477   0.0000000), wk =   0.1111111
        k(    6) = (   0.0258901   0.0149477   0.0000000), wk =   0.1111111
        k(    7) = (   0.0258901   0.0448430   0.0000000), wk =   0.1111111
        k(    8) = (   0.0258901  -0.1046336   0.0000000), wk =   0.1111111
        k(    9) = (   0.0258901  -0.0747383   0.0000000), wk =   0.1111111
        k(   10) = (   0.0258901  -0.0448430   0.0000000), wk =   0.1111111
        k(   11) = (   0.0517802  -0.0298953   0.0000000), wk =   0.1111111
        k(   12) = (   0.0517802   0.0000000   0.0000000), wk =   0.1111111
        k(   13) = (   0.0517802   0.0298953   0.0000000), wk =   0.1111111
        k(   14) = (   0.0517802  -0.1195813   0.0000000), wk =   0.1111111
        k(   15) = (   0.0517802  -0.0896860   0.0000000), wk =   0.1111111
        k(   16) = (   0.0517802  -0.0597906   0.0000000), wk =   0.1111111
        k(   17) = (  -0.0776703   0.0448430   0.0000000), wk =   0.0555556
        k(   18) = (  -0.0776703   0.0747383   0.0000000), wk =   0.1111111
        k(   19) = (  -0.0776703   0.1046336   0.0000000), wk =   0.1111111
        k(   20) = (  -0.0776703  -0.0448430   0.0000000), wk =   0.0555556

     Dense  grid:   727599 G-vectors     FFT dimensions: (  75,  75, 300)

     Smooth grid:   184247 G-vectors     FFT dimensions: (  48,  48, 192)

     Largest allocated arrays     est. size (Mb)     dimensions
        Kohn-Sham Wavefunctions         3.38 Mb     (    2914,   76)
        NL pseudopotentials             9.69 Mb     (    2914,  218)
        Each V/rho on FFT grid          3.26 Mb     (  213750)
        Each G-vector array             0.69 Mb     (   90950)
        G-vector shells                 0.18 Mb     (   23259)
     Largest temporary arrays     est. size (Mb)     dimensions
        Auxiliary wavefunctions        13.52 Mb     (    2914,  304)
        Each subspace H/S matrix        1.41 Mb     (     304,  304)
        Each <psi_i|beta_j> matrix      0.25 Mb     (     218,   76)
        Arrays for rho mixing          32.62 Mb     (  213750,   10)

     Initial potential from superposition of free atoms
     Check: negative starting charge=   -0.000294

     starting charge  132.97116, renormalised to  133.00000

     negative rho (up, down):  2.938E-04 0.000E+00


     ************************************************************************
     *
     * You are using vdW-DF for exchange-correlation in this calculation.
     * Please cite the following three references that made this development
     * possible:
     *
     *   M. Dion, H. Rydberg, E. Schroder, D. C. Langreth, and
     *   B. I. Lundqvist, Phys. Rev. Lett. 92, 246401 (2004).
     *
     *   T. Thonhauser, V. R. Cooper, S. Li, A. Puzder, P. Hyldgaard, and
     *   D. C. Langreth, Phys. Rev. B 76, 125112 (2007).
     *
     *   G. Roman-Perez and J. M. Soler, Phys. Rev. Lett. 103, 096102 (2009).
     *
     *
     * If you are using vdW-DF2, please also cite:
     *
     *   K. Lee, E. D. Murray, L. Kong, B. I. Lundqvist, and
     *   D. C. Langreth, Phys. Rev. B 82, 081101(R) (2010).
     *
     *
     * If you are calculating the stress with vdW-DF, please also cite:
     *
     *   R. Sabatini, E. Kucukbenli, B. Kolb, T. Thonhauser, and
     *   S. de Gironcoli, J. Phys.: Condens. Matter 24, 424209 (2012).
     *
     ************************************************************************

     Carrying out vdW-DF run using the following parameters:

     Nqs =      20    Nr_points =    1024   r_max =   100.000
     q_mesh =
               0.00001000     0.04494208     0.09755937     0.15916263
               0.23128650     0.31572767     0.41458969     0.53033537
               0.66584808     0.82450364     1.01025438     1.22772762
               1.48234092     1.78043706     2.12944203     2.53805004
               3.01644009     3.57652955     4.23227104     5.00000000

     Gradients computed in reciprocal space

     ************************************************************************


 
     Adding external electric field

     Computed dipole along edir(3) : 
        Dipole               -0.0015 Ry au,         -0.0039 Debye
        Dipole field         -0.0000 Ry au
 
        Potential amp.        0.0003 Ry
        Total length         46.5341 bohr
 
     Starting wfc are  157 randomized atomic wfcs

     total cpu time spent up to now is       14.7 secs

     per-process dynamical memory:    95.8 Mb

     Self-consistent Calculation

     iteration #  1     ecut=    36.75 Ry     beta=0.30
     Davidson diagonalization with overlap
     ethr =  1.00E-02,  avg # of iterations =  2.0

     negative rho (up, down):  1.668E-04 0.000E+00
 
     Adding external electric field

     Computed dipole along edir(3) : 
        Dipole               -1.7108 Ry au,         -4.3485 Debye
        Dipole field         -0.0035 Ry au
 
        Potential amp.        0.3271 Ry
        Total length         46.5341 bohr
 

     total cpu time spent up to now is       33.3 secs

     total energy              =   -1136.35556742 Ry
     Harris-Foulkes estimate   =   -1139.40246068 Ry
     estimated scf accuracy    <       6.42769924 Ry

     iteration #  2     ecut=    36.75 Ry     beta=0.30
     Davidson diagonalization with overlap
     ethr =  4.83E-03,  avg # of iterations =  9.1

     negative rho (up, down):  4.787E-04 0.000E+00
 
     Adding external electric field

     Computed dipole along edir(3) : 
        Dipole                3.2376 Ry au,          8.2291 Debye
        Dipole field          0.0067 Ry au
 
        Potential amp.       -0.6190 Ry
        Total length         46.5341 bohr
 

     total cpu time spent up to now is       59.1 secs

     total energy              =   -1131.95542568 Ry
     Harris-Foulkes estimate   =   -1145.19010972 Ry
     estimated scf accuracy    <     223.33296387 Ry

     iteration #  3     ecut=    36.75 Ry     beta=0.30
     Davidson diagonalization with overlap
     ethr =  4.83E-03,  avg # of iterations = 10.9

     negative rho (up, down):  1.729E-04 0.000E+00
 
     Adding external electric field

     Computed dipole along edir(3) : 
        Dipole                0.2630 Ry au,          0.6684 Debye
        Dipole field          0.0005 Ry au
 
        Potential amp.       -0.0503 Ry
        Total length         46.5341 bohr
 

     total cpu time spent up to now is       88.5 secs

     total energy              =   -1135.10338090 Ry
     Harris-Foulkes estimate   =   -1147.80715273 Ry
     estimated scf accuracy    <     325.39684745 Ry

     iteration #  4     ecut=    36.75 Ry     beta=0.30
     Davidson diagonalization with overlap
     ethr =  4.83E-03,  avg # of iterations =  9.5

     negative rho (up, down):  1.357E-04 0.000E+00
 
     Adding external electric field

     Computed dipole along edir(3) : 
        Dipole                0.1321 Ry au,          0.3359 Debye
        Dipole field          0.0003 Ry au
 
        Potential amp.       -0.0253 Ry
        Total length         46.5341 bohr
 

     total cpu time spent up to now is      115.8 secs

     total energy              =   -1138.69669496 Ry
     Harris-Foulkes estimate   =   -1138.87768882 Ry
     estimated scf accuracy    <      11.48513962 Ry

     iteration #  5     ecut=    36.75 Ry     beta=0.30
     Davidson diagonalization with overlap
     ethr =  4.83E-03,  avg # of iterations =  1.8

     negative rho (up, down):  1.037E-04 0.000E+00
 
     Adding external electric field

     Computed dipole along edir(3) : 
        Dipole                0.0720 Ry au,          0.1830 Debye
        Dipole field          0.0001 Ry au
 
        Potential amp.       -0.0138 Ry
        Total length         46.5341 bohr
 

     total cpu time spent up to now is      134.9 secs

     total energy              =   -1138.74591909 Ry
     Harris-Foulkes estimate   =   -1138.79917015 Ry
     estimated scf accuracy    <       1.83094917 Ry

     iteration #  6     ecut=    36.75 Ry     beta=0.30
     Davidson diagonalization with overlap
     ethr =  1.38E-03,  avg # of iterations =  8.9

     negative rho (up, down):  5.788E-05 0.000E+00
 
     Adding external electric field

     Computed dipole along edir(3) : 
        Dipole                0.0467 Ry au,          0.1186 Debye
        Dipole field          0.0001 Ry au
 
        Potential amp.       -0.0089 Ry
        Total length         46.5341 bohr
 

     total cpu time spent up to now is      159.0 secs

     total energy              =   -1138.83830486 Ry
     Harris-Foulkes estimate   =   -1138.86517641 Ry
     estimated scf accuracy    <       0.15408233 Ry

     iteration #  7     ecut=    36.75 Ry     beta=0.30
     Davidson diagonalization with overlap
     ethr =  1.16E-04,  avg # of iterations = 10.9

     negative rho (up, down):  3.318E-05 0.000E+00
 
     Adding external electric field

     Computed dipole along edir(3) : 
        Dipole                0.0716 Ry au,          0.1820 Debye
        Dipole field          0.0001 Ry au
 
        Potential amp.       -0.0137 Ry
        Total length         46.5341 bohr
 

     total cpu time spent up to now is      185.7 secs

     total energy              =   -1138.87003795 Ry
     Harris-Foulkes estimate   =   -1138.88210028 Ry
     estimated scf accuracy    <       0.38547838 Ry

     iteration #  8     ecut=    36.75 Ry     beta=0.30
     Davidson diagonalization with overlap
     ethr =  1.16E-04,  avg # of iterations =  1.9

     negative rho (up, down):  3.953E-05 0.000E+00
 
     Adding external electric field

     Computed dipole along edir(3) : 
        Dipole                0.0256 Ry au,          0.0651 Debye
        Dipole field          0.0001 Ry au
 
        Potential amp.       -0.0049 Ry
        Total length         46.5341 bohr
 

     total cpu time spent up to now is      204.6 secs

     total energy              =   -1138.87315367 Ry
     Harris-Foulkes estimate   =   -1138.87450371 Ry
     estimated scf accuracy    <       0.14166869 Ry

     iteration #  9     ecut=    36.75 Ry     beta=0.30
     Davidson diagonalization with overlap
     ethr =  1.07E-04,  avg # of iterations =  2.9

     negative rho (up, down):  8.602E-05 0.000E+00
 
     Adding external electric field

     Computed dipole along edir(3) : 
        Dipole               -0.0080 Ry au,         -0.0204 Debye
        Dipole field         -0.0000 Ry au
 
        Potential amp.        0.0015 Ry
        Total length         46.5341 bohr
 

     total cpu time spent up to now is      224.1 secs

     total energy              =   -1138.87178897 Ry
     Harris-Foulkes estimate   =   -1138.87609521 Ry
     estimated scf accuracy    <       0.19215296 Ry

     iteration # 10     ecut=    36.75 Ry     beta=0.30
     Davidson diagonalization with overlap
     ethr =  1.07E-04,  avg # of iterations =  1.0

     negative rho (up, down):  8.876E-05 0.000E+00
 
     Adding external electric field

     Computed dipole along edir(3) : 
        Dipole               -0.0100 Ry au,         -0.0254 Debye
        Dipole field         -0.0000 Ry au
 
        Potential amp.        0.0019 Ry
        Total length         46.5341 bohr
 

     total cpu time spent up to now is      243.0 secs

     total energy              =   -1138.87350328 Ry
     Harris-Foulkes estimate   =   -1138.87425872 Ry
     estimated scf accuracy    <       0.02350736 Ry

     iteration # 11     ecut=    36.75 Ry     beta=0.30
     Davidson diagonalization with overlap
     ethr =  1.77E-05,  avg # of iterations =  7.3

     negative rho (up, down):  8.298E-05 0.000E+00
 
     Adding external electric field

     Computed dipole along edir(3) : 
        Dipole               -0.0182 Ry au,         -0.0463 Debye
        Dipole field         -0.0000 Ry au
 
        Potential amp.        0.0035 Ry
        Total length         46.5341 bohr
 

     total cpu time spent up to now is      266.5 secs

     total energy              =   -1138.87438591 Ry
     Harris-Foulkes estimate   =   -1138.87483127 Ry
     estimated scf accuracy    <       0.00462884 Ry

     iteration # 12     ecut=    36.75 Ry     beta=0.30
     Davidson diagonalization with overlap
     ethr =  3.48E-06,  avg # of iterations =  7.0

     negative rho (up, down):  8.022E-05 0.000E+00
 
     Adding external electric field

     Computed dipole along edir(3) : 
        Dipole               -0.0198 Ry au,         -0.0503 Debye
        Dipole field         -0.0000 Ry au
 
        Potential amp.        0.0038 Ry
        Total length         46.5341 bohr
 

     total cpu time spent up to now is      290.1 secs

     total energy              =   -1138.87490191 Ry
     Harris-Foulkes estimate   =   -1138.87493310 Ry
     estimated scf accuracy    <       0.00081142 Ry

     iteration # 13     ecut=    36.75 Ry     beta=0.30
     Davidson diagonalization with overlap
     ethr =  6.10E-07,  avg # of iterations =  7.0

     negative rho (up, down):  8.094E-05 0.000E+00
 
     Adding external electric field

     Computed dipole along edir(3) : 
        Dipole               -0.0178 Ry au,         -0.0453 Debye
        Dipole field         -0.0000 Ry au
 
        Potential amp.        0.0034 Ry
        Total length         46.5341 bohr
 

     total cpu time spent up to now is      315.6 secs

     total energy              =   -1138.87493889 Ry
     Harris-Foulkes estimate   =   -1138.87506361 Ry
     estimated scf accuracy    <       0.00254819 Ry

     iteration # 14     ecut=    36.75 Ry     beta=0.30
     Davidson diagonalization with overlap
     ethr =  6.10E-07,  avg # of iterations =  4.8

     negative rho (up, down):  9.679E-05 0.000E+00
 
     Adding external electric field

     Computed dipole along edir(3) : 
        Dipole               -0.0173 Ry au,         -0.0439 Debye
        Dipole field         -0.0000 Ry au
 
        Potential amp.        0.0033 Ry
        Total length         46.5341 bohr
 

     total cpu time spent up to now is      337.6 secs

     total energy              =   -1138.87500551 Ry
     Harris-Foulkes estimate   =   -1138.87501720 Ry
     estimated scf accuracy    <       0.00120512 Ry

     iteration # 15     ecut=    36.75 Ry     beta=0.30
     Davidson diagonalization with overlap
     ethr =  6.10E-07,  avg # of iterations =  3.7

     negative rho (up, down):  9.846E-05 0.000E+00
 
     Adding external electric field

     Computed dipole along edir(3) : 
        Dipole               -0.0179 Ry au,         -0.0455 Debye
        Dipole field         -0.0000 Ry au
 
        Potential amp.        0.0034 Ry
        Total length         46.5341 bohr
 

     total cpu time spent up to now is      358.4 secs

     total energy              =   -1138.87503475 Ry
     Harris-Foulkes estimate   =   -1138.87504278 Ry
     estimated scf accuracy    <       0.00011451 Ry

     iteration # 16     ecut=    36.75 Ry     beta=0.30
     Davidson diagonalization with overlap
     ethr =  8.61E-08,  avg # of iterations =  7.0

     negative rho (up, down):  9.954E-05 0.000E+00
 
     Adding external electric field

     Computed dipole along edir(3) : 
        Dipole               -0.0191 Ry au,         -0.0487 Debye
        Dipole field         -0.0000 Ry au
 
        Potential amp.        0.0037 Ry
        Total length         46.5341 bohr
 

     total cpu time spent up to now is      382.8 secs

     total energy              =   -1138.87504624 Ry
     Harris-Foulkes estimate   =   -1138.87504876 Ry
     estimated scf accuracy    <       0.00006735 Ry

     iteration # 17     ecut=    36.75 Ry     beta=0.30
     Davidson diagonalization with overlap
     ethr =  5.06E-08,  avg # of iterations =  4.2

     negative rho (up, down):  9.544E-05 0.000E+00

     negative rho (up, down):  9.544E-05 0.000E+00

     negative rho (up, down):  9.544E-05 0.000E+00

     negative rho (up, down):  9.544E-05 0.000E+00

     negative rho (up, down):  9.544E-05 0.000E+00

     negative rho (up, down):  9.544E-05 0.000E+00

     negative rho (up, down):  9.544E-05 0.000E+00

     negative rho (up, down):  9.544E-05 0.000E+00

     negative rho (up, down):  9.544E-05 0.000E+00

     negative rho (up, down):  9.544E-05 0.000E+00

     negative rho (up, down):  9.544E-05 0.000E+00

     negative rho (up, down):  9.544E-05 0.000E+00

     negative rho (up, down):  9.544E-05 0.000E+00

     negative rho (up, down):  9.544E-05 0.000E+00

     negative rho (up, down):  9.544E-05 0.000E+00

     negative rho (up, down):  9.544E-05 0.000E+00

     negative rho (up, down):  9.544E-05 0.000E+00

     negative rho (up, down):  9.544E-05 0.000E+00

     negative rho (up, down):  9.544E-05 0.000E+00

     negative rho (up, down):  9.544E-05 0.000E+00

     negative rho (up, down):  9.544E-05 0.000E+00

     negative rho (up, down):  9.544E-05 0.000E+00

     negative rho (up, down):  9.544E-05 0.000E+00

     negative rho (up, down):  9.544E-05 0.000E+00

     negative rho (up, down):  9.544E-05 0.000E+00

     negative rho (up, down):  9.544E-05 0.000E+00

     negative rho (up, down):  9.544E-05 0.000E+00

     negative rho (up, down):  9.544E-05 0.000E+00

     negative rho (up, down):  9.544E-05 0.000E+00

     negative rho (up, down):  9.544E-05 0.000E+00

     negative rho (up, down):  9.544E-05 0.000E+00

     negative rho (up, down):  9.544E-05 0.000E+00

     negative rho (up, down):  9.544E-05 0.000E+00

     negative rho (up, down):  9.544E-05 0.000E+00

     negative rho (up, down):  9.544E-05 0.000E+00
 
     Adding external electric field

     Computed dipole along edir(3) : 
        Dipole               -0.0418 Ry au,         -0.1062 Debye
        Dipole field         -0.0001 Ry au
 
        Potential amp.        0.0080 Ry
        Total length         46.5341 bohr
 

     total cpu time spent up to now is      464.2 secs

     End of self-consistent calculation

          k = 0.0000 0.0000 0.0000 ( 23031 PWs)   bands (ev):

   -49.4962 -49.4797 -49.4413 -49.4346 -49.4343 -49.4323 -49.4158 -49.4150
   -49.0207 -48.9784 -48.9783 -48.9692 -28.1982 -28.1980 -28.1977 -28.1932
   -28.1856 -28.1855 -28.1643 -28.1554 -28.1113 -28.1087 -28.1084 -28.0938
   -28.0797 -28.0791 -27.9329 -27.9328 -27.9318 -27.9267 -27.9266 -27.9123
   -27.8538 -27.8536 -27.8359 -27.8356 -27.7446 -27.7416 -27.7415 -27.5822
   -27.5598 -27.5597 -27.5485 -27.5078 -27.5024 -27.5023 -27.4275 -27.4275
    -4.4939  -3.7684  -2.6083  -1.6162  -1.0240  -1.0240  -0.9728  -0.9054
    -0.9053  -0.8617  -0.6471  -0.6470  -0.4989  -0.0937  -0.0936  -0.0504
     0.1712   0.1714   0.3023   0.5626   0.7772   0.9760   1.0787   1.0788
     1.0993   1.1415   1.1415   1.5782

          k = 0.0000 0.0299 0.0000 ( 23008 PWs)   bands (ev):

   -49.4947 -49.4766 -49.4409 -49.4371 -49.4343 -49.4328 -49.4171 -49.4157
   -49.0178 -48.9806 -48.9784 -48.9700 -28.1924 -28.1860 -28.1824 -28.1765
   -28.1736 -28.1667 -28.1545 -28.1494 -28.1101 -28.1069 -28.1068 -28.0948
   -28.0826 -28.0804 -27.9459 -27.9452 -27.9412 -27.9321 -27.9271 -27.9145
   -27.8772 -27.8590 -27.8583 -27.8408 -27.7328 -27.7304 -27.7230 -27.5796
   -27.5604 -27.5592 -27.5483 -27.5189 -27.5147 -27.4988 -27.4498 -27.4327
    -4.3587  -3.6596  -2.5275  -1.5425  -1.3714  -1.0453  -1.0306  -0.9538
    -0.8326  -0.7871  -0.4780  -0.4769  -0.3413  -0.0481  -0.0283   0.0126
     0.2215   0.2360   0.3495   0.5769   0.7513   0.9449   0.9571   1.0050
     1.0256   1.0734   1.0909   1.4864

          k = 0.0000 0.0598 0.0000 ( 22962 PWs)   bands (ev):

   -49.4915 -49.4683 -49.4454 -49.4397 -49.4343 -49.4330 -49.4215 -49.4157
   -49.0098 -48.9877 -48.9784 -48.9709 -28.1832 -28.1576 -28.1517 -28.1463
   -28.1447 -28.1354 -28.1219 -28.1136 -28.1074 -28.1030 -28.0995 -28.0903
   -28.0828 -28.0817 -27.9782 -27.9771 -27.9769 -27.9579 -27.9405 -27.9175
   -27.9129 -27.9048 -27.8734 -27.8531 -27.7056 -27.7026 -27.6683 -27.5739
   -27.5627 -27.5583 -27.5490 -27.5483 -27.5438 -27.5098 -27.4851 -27.4467
    -4.0184  -3.3697  -2.3398  -2.0769  -1.3651  -1.1263  -1.0541  -1.0020
    -0.6370  -0.6080  -0.3453  -0.1042  -0.0510   0.0970   0.1354   0.1668
     0.3429   0.3744   0.4441   0.5411   0.7000   0.8116   0.8145   0.8308
     0.8475   0.8848   0.9397   1.1689

          k = 0.0000-0.0897 0.0000 ( 23032 PWs)   bands (ev):

   -49.4898 -49.4573 -49.4563 -49.4387 -49.4343 -49.4331 -49.4242 -49.4157
   -49.0008 -48.9964 -48.9784 -48.9712 -28.1786 -28.1396 -28.1366 -28.1309
   -28.1294 -28.1251 -28.1199 -28.1005 -28.1002 -28.0954 -28.0861 -28.0847
   -28.0470 -28.0259 -28.0245 -28.0009 -27.9987 -27.9984 -27.9749 -27.9730
   -27.8965 -27.8942 -27.8919 -27.8622 -27.6873 -27.6832 -27.5934 -27.5882
   -27.5702 -27.5694 -27.5664 -27.5627 -27.5574 -27.5472 -27.4678 -27.4642
    -3.7912  -2.9699  -2.7842  -2.0036  -1.6447  -1.0489  -1.0423  -0.8076
    -0.5961  -0.5043  -0.4097   0.2174   0.2208   0.2287   0.2366   0.2683
     0.3191   0.4865   0.5352   0.5563   0.5615   0.6006   0.6228   0.6554
     0.8633   0.8766   0.9458   0.9566

          k = 0.0259-0.0149 0.0000 ( 23008 PWs)   bands (ev):

   -49.4947 -49.4766 -49.4408 -49.4371 -49.4344 -49.4328 -49.4178 -49.4150
   -49.0178 -48.9806 -48.9783 -48.9700 -28.1924 -28.1863 -28.1824 -28.1764
   -28.1737 -28.1665 -28.1545 -28.1494 -28.1100 -28.1071 -28.1067 -28.0947
   -28.0831 -28.0799 -27.9459 -27.9452 -27.9412 -27.9316 -27.9272 -27.9149
   -27.8771 -27.8590 -27.8586 -27.8405 -27.7328 -27.7304 -27.7230 -27.5796
   -27.5604 -27.5592 -27.5483 -27.5189 -27.5147 -27.4988 -27.4498 -27.4327
    -4.3587  -3.6596  -2.5275  -1.5426  -1.3714  -1.0453  -1.0306  -0.9538
    -0.8327  -0.7871  -0.4781  -0.4768  -0.3413  -0.0481  -0.0282   0.0126
     0.2214   0.2361   0.3495   0.5769   0.7513   0.9448   0.9572   1.0049
     1.0256   1.0735   1.0908   1.4863

          k = 0.0259 0.0149 0.0000 ( 23008 PWs)   bands (ev):

   -49.4947 -49.4766 -49.4408 -49.4370 -49.4346 -49.4327 -49.4174 -49.4154
   -49.0178 -48.9805 -48.9784 -48.9700 -28.1924 -28.1861 -28.1825 -28.1765
   -28.1736 -28.1667 -28.1545 -28.1494 -28.1100 -28.1070 -28.1068 -28.0948
   -28.0827 -28.0803 -27.9458 -27.9454 -27.9412 -27.9320 -27.9271 -27.9146
   -27.8773 -27.8589 -27.8584 -27.8407 -27.7328 -27.7304 -27.7230 -27.5796
   -27.5604 -27.5592 -27.5483 -27.5189 -27.5147 -27.4988 -27.4498 -27.4327
    -4.3587  -3.6596  -2.5275  -1.5426  -1.3714  -1.0453  -1.0306  -0.9538
    -0.8326  -0.7871  -0.4780  -0.4768  -0.3413  -0.0480  -0.0283   0.0126
     0.2215   0.2360   0.3495   0.5769   0.7513   0.9449   0.9572   1.0050
     1.0256   1.0735   1.0909   1.4864

          k = 0.0259 0.0448 0.0000 ( 23004 PWs)   bands (ev):

   -49.4923 -49.4709 -49.4402 -49.4399 -49.4389 -49.4309 -49.4208 -49.4154
   -49.0123 -48.9839 -48.9803 -48.9701 -28.1856 -28.1676 -28.1581 -28.1498
   -28.1454 -28.1422 -28.1343 -28.1295 -28.1104 -28.1077 -28.0993 -28.0922
   -28.0880 -28.0809 -27.9866 -27.9774 -27.9344 -27.9335 -27.9261 -27.9241
   -27.9193 -27.8960 -27.8700 -27.8512 -27.7175 -27.6963 -27.6958 -27.5755
   -27.5615 -27.5589 -27.5556 -27.5479 -27.5068 -27.5040 -27.4896 -27.4435
    -4.1179  -3.4606  -2.3759  -1.6601  -1.6428  -1.3076  -1.0389  -0.9048
    -0.6595  -0.5347  -0.3006  -0.2992  -0.1710   0.0428   0.0857   0.1315
     0.3134   0.3413   0.4215   0.5602   0.7100   0.8225   0.8355   0.8730
     0.9417   0.9724   1.0069   1.2075

          k = 0.0259-0.1046 0.0000 ( 23012 PWs)   bands (ev):

   -49.4899 -49.4610 -49.4495 -49.4410 -49.4378 -49.4295 -49.4259 -49.4149
   -49.0031 -48.9916 -48.9825 -48.9696 -28.1789 -28.1389 -28.1354 -28.1281
   -28.1239 -28.1185 -28.1117 -28.1051 -28.0989 -28.0951 -28.0867 -28.0824
   -28.0700 -28.0596 -28.0336 -28.0192 -27.9905 -27.9729 -27.9525 -27.9350
   -27.9138 -27.9065 -27.8902 -27.8676 -27.6886 -27.6670 -27.6329 -27.5999
   -27.5701 -27.5642 -27.5587 -27.5570 -27.5474 -27.5227 -27.4859 -27.4630
    -3.8122  -3.0821  -2.4364  -2.0301  -1.7628  -1.4443  -1.0061  -0.7957
    -0.4606  -0.3537  -0.2451   0.0054   0.0420   0.1997   0.2524   0.2660
     0.3868   0.4513   0.5042   0.5673   0.6148   0.6785   0.7503   0.7797
     0.8183   0.8852   0.8939   0.9506

          k = 0.0259-0.0747 0.0000 ( 23012 PWs)   bands (ev):

   -49.4899 -49.4610 -49.4496 -49.4410 -49.4377 -49.4295 -49.4261 -49.4148
   -49.0031 -48.9917 -48.9825 -48.9696 -28.1789 -28.1388 -28.1355 -28.1282
   -28.1238 -28.1185 -28.1116 -28.1051 -28.0990 -28.0951 -28.0869 -28.0823
   -28.0700 -28.0596 -28.0335 -28.0187 -27.9904 -27.9735 -27.9525 -27.9349
   -27.9138 -27.9065 -27.8903 -27.8676 -27.6886 -27.6670 -27.6329 -27.5999
   -27.5701 -27.5642 -27.5587 -27.5570 -27.5474 -27.5227 -27.4859 -27.4630
    -3.8122  -3.0821  -2.4364  -2.0301  -1.7627  -1.4443  -1.0061  -0.7957
    -0.4606  -0.3537  -0.2451   0.0054   0.0420   0.1997   0.2524   0.2659
     0.3867   0.4513   0.5041   0.5673   0.6148   0.6785   0.7503   0.7797
     0.8183   0.8851   0.8939   0.9505

          k = 0.0259-0.0448 0.0000 ( 23004 PWs)   bands (ev):

   -49.4924 -49.4709 -49.4404 -49.4397 -49.4387 -49.4310 -49.4213 -49.4150
   -49.0123 -48.9840 -48.9802 -48.9702 -28.1856 -28.1677 -28.1583 -28.1498
   -28.1453 -28.1422 -28.1343 -28.1295 -28.1106 -28.1075 -28.0994 -28.0922
   -28.0883 -28.0807 -27.9865 -27.9772 -27.9344 -27.9336 -27.9262 -27.9243
   -27.9192 -27.8960 -27.8702 -27.8511 -27.7175 -27.6963 -27.6958 -27.5755
   -27.5615 -27.5588 -27.5556 -27.5479 -27.5068 -27.5040 -27.4897 -27.4435
    -4.1179  -3.4606  -2.3759  -1.6602  -1.6428  -1.3076  -1.0390  -0.9048
    -0.6595  -0.5347  -0.3005  -0.2993  -0.1710   0.0428   0.0857   0.1315
     0.3133   0.3414   0.4215   0.5602   0.7100   0.8225   0.8355   0.8731
     0.9417   0.9724   1.0068   1.2074

          k = 0.0518-0.0299 0.0000 ( 22962 PWs)   bands (ev):

   -49.4915 -49.4683 -49.4453 -49.4393 -49.4344 -49.4330 -49.4226 -49.4150
   -49.0098 -48.9877 -48.9783 -48.9709 -28.1832 -28.1579 -28.1517 -28.1462
   -28.1447 -28.1350 -28.1220 -28.1134 -28.1075 -28.1030 -28.0995 -28.0907
   -28.0822 -28.0819 -27.9782 -27.9771 -27.9769 -27.9573 -27.9405 -27.9179
   -27.9130 -27.9054 -27.8735 -27.8527 -27.7056 -27.7026 -27.6683 -27.5739
   -27.5628 -27.5583 -27.5490 -27.5483 -27.5439 -27.5098 -27.4851 -27.4467
    -4.0184  -3.3697  -2.3399  -2.0769  -1.3651  -1.1263  -1.0541  -1.0020
    -0.6370  -0.6080  -0.3453  -0.1043  -0.0509   0.0970   0.1354   0.1669
     0.3429   0.3745   0.4441   0.5411   0.7000   0.8115   0.8144   0.8308
     0.8473   0.8849   0.9397   1.1656

          k = 0.0518 0.0000 0.0000 ( 23004 PWs)   bands (ev):

   -49.4924 -49.4709 -49.4401 -49.4397 -49.4390 -49.4309 -49.4215 -49.4149
   -49.0123 -48.9840 -48.9803 -48.9702 -28.1856 -28.1677 -28.1583 -28.1498
   -28.1454 -28.1421 -28.1343 -28.1295 -28.1103 -28.1077 -28.0993 -28.0922
   -28.0883 -28.0806 -27.9866 -27.9771 -27.9344 -27.9335 -27.9262 -27.9245
   -27.9193 -27.8960 -27.8701 -27.8510 -27.7175 -27.6963 -27.6957 -27.5755
   -27.5615 -27.5588 -27.5556 -27.5479 -27.5067 -27.5040 -27.4896 -27.4435
    -4.1179  -3.4606  -2.3759  -1.6601  -1.6428  -1.3076  -1.0389  -0.9048
    -0.6595  -0.5347  -0.3005  -0.2993  -0.1710   0.0428   0.0857   0.1315
     0.3133   0.3414   0.4215   0.5602   0.7100   0.8225   0.8354   0.8731
     0.9417   0.9724   1.0068   1.2074

          k = 0.0518 0.0299 0.0000 ( 22962 PWs)   bands (ev):

   -49.4915 -49.4683 -49.4453 -49.4395 -49.4346 -49.4328 -49.4219 -49.4155
   -49.0098 -48.9877 -48.9784 -48.9709 -28.1832 -28.1576 -28.1518 -28.1462
   -28.1445 -28.1353 -28.1219 -28.1135 -28.1075 -28.1032 -28.0994 -28.0904
   -28.0826 -28.0817 -27.9781 -27.9773 -27.9768 -27.9577 -27.9406 -27.9177
   -27.9129 -27.9050 -27.8733 -27.8530 -27.7056 -27.7026 -27.6683 -27.5739
   -27.5627 -27.5583 -27.5491 -27.5483 -27.5438 -27.5098 -27.4851 -27.4467
    -4.0184  -3.3697  -2.3398  -2.0769  -1.3650  -1.1263  -1.0541  -1.0020
    -0.6370  -0.6080  -0.3453  -0.1042  -0.0510   0.0970   0.1354   0.1668
     0.3429   0.3744   0.4441   0.5411   0.7000   0.8116   0.8144   0.8308
     0.8474   0.8849   0.9397   1.1657

          k = 0.0518-0.1196 0.0000 ( 23012 PWs)   bands (ev):

   -49.4899 -49.4610 -49.4495 -49.4411 -49.4377 -49.4294 -49.4261 -49.4148
   -49.0031 -48.9916 -48.9825 -48.9695 -28.1789 -28.1389 -28.1355 -28.1282
   -28.1238 -28.1183 -28.1117 -28.1050 -28.0992 -28.0951 -28.0865 -28.0824
   -28.0700 -28.0595 -28.0336 -28.0193 -27.9905 -27.9728 -27.9526 -27.9351
   -27.9138 -27.9067 -27.8902 -27.8675 -27.6886 -27.6670 -27.6329 -27.5999
   -27.5701 -27.5641 -27.5587 -27.5570 -27.5474 -27.5226 -27.4859 -27.4631
    -3.8122  -3.0821  -2.4364  -2.0301  -1.7628  -1.4443  -1.0061  -0.7957
    -0.4606  -0.3536  -0.2451   0.0053   0.0420   0.1997   0.2524   0.2660
     0.3868   0.4512   0.5042   0.5673   0.6148   0.6785   0.7503   0.7797
     0.8182   0.8852   0.8940   0.9506

          k = 0.0518-0.0897 0.0000 ( 23028 PWs)   bands (ev):

   -49.4891 -49.4519 -49.4516 -49.4497 -49.4331 -49.4322 -49.4279 -49.4140
   -48.9952 -48.9952 -48.9879 -48.9685 -28.1770 -28.1253 -28.1251 -28.1229
   -28.1102 -28.1094 -28.0965 -28.0947 -28.0892 -28.0864 -28.0860 -28.0797
   -28.0518 -28.0516 -28.0497 -28.0300 -28.0298 -28.0278 -27.9218 -27.9191
   -27.9189 -27.9149 -27.9141 -27.8849 -27.6514 -27.6513 -27.6176 -27.6124
   -27.6123 -27.5665 -27.5660 -27.5596 -27.5471 -27.4928 -27.4910 -27.4910
    -3.7161  -2.5752  -2.5682  -2.4159  -1.6426  -1.6283  -1.2762  -0.4652
    -0.4572  -0.1569  -0.0842  -0.0587  -0.0585   0.2766   0.2817   0.4089
     0.4520   0.4545   0.5562   0.5643   0.6620   0.7103   0.7146   0.7199
     0.7311   0.8854   0.8867   0.9122

          k = 0.0518-0.0598 0.0000 ( 23012 PWs)   bands (ev):

   -49.4899 -49.4610 -49.4495 -49.4410 -49.4372 -49.4295 -49.4268 -49.4145
   -49.0030 -48.9917 -48.9825 -48.9696 -28.1789 -28.1388 -28.1356 -28.1283
   -28.1237 -28.1183 -28.1117 -28.1051 -28.0996 -28.0951 -28.0864 -28.0821
   -28.0699 -28.0594 -28.0335 -28.0190 -27.9904 -27.9730 -27.9525 -27.9351
   -27.9138 -27.9071 -27.8903 -27.8672 -27.6886 -27.6670 -27.6329 -27.5999
   -27.5701 -27.5642 -27.5587 -27.5570 -27.5474 -27.5227 -27.4859 -27.4630
    -3.8122  -3.0822  -2.4364  -2.0301  -1.7628  -1.4443  -1.0061  -0.7957
    -0.4606  -0.3536  -0.2451   0.0054   0.0420   0.1997   0.2524   0.2659
     0.3868   0.4512   0.5042   0.5673   0.6148   0.6786   0.7503   0.7797
     0.8182   0.8852   0.8940   0.9505

          k =-0.0777 0.0448 0.0000 ( 23032 PWs)   bands (ev):

   -49.4899 -49.4574 -49.4562 -49.4380 -49.4344 -49.4330 -49.4256 -49.4150
   -49.0008 -48.9965 -48.9783 -48.9712 -28.1787 -28.1401 -28.1364 -28.1310
   -28.1294 -28.1251 -28.1196 -28.1007 -28.1006 -28.0960 -28.0854 -28.0841
   -28.0470 -28.0257 -28.0246 -28.0002 -27.9986 -27.9985 -27.9743 -27.9742
   -27.8974 -27.8944 -27.8918 -27.8615 -27.6873 -27.6832 -27.5934 -27.5882
   -27.5702 -27.5694 -27.5664 -27.5627 -27.5573 -27.5472 -27.4677 -27.4643
    -3.7912  -2.9699  -2.7842  -2.0037  -1.6446  -1.0489  -1.0423  -0.8076
    -0.5960  -0.5044  -0.4096   0.2175   0.2207   0.2285   0.2367   0.2683
     0.3192   0.4864   0.5352   0.5563   0.5616   0.6006   0.6228   0.6552
     0.8633   0.8765   0.9457   0.9566

          k =-0.0777 0.0747 0.0000 ( 23012 PWs)   bands (ev):

   -49.4899 -49.4610 -49.4495 -49.4410 -49.4372 -49.4294 -49.4269 -49.4145
   -49.0030 -48.9917 -48.9825 -48.9696 -28.1789 -28.1388 -28.1356 -28.1283
   -28.1238 -28.1183 -28.1116 -28.1052 -28.0997 -28.0951 -28.0865 -28.0820
   -28.0699 -28.0594 -28.0335 -28.0188 -27.9905 -27.9733 -27.9524 -27.9351
   -27.9139 -27.9071 -27.8903 -27.8671 -27.6886 -27.6670 -27.6329 -27.5999
   -27.5701 -27.5642 -27.5587 -27.5570 -27.5474 -27.5227 -27.4859 -27.4631
    -3.8122  -3.0822  -2.4364  -2.0301  -1.7628  -1.4443  -1.0061  -0.7957
    -0.4606  -0.3536  -0.2451   0.0054   0.0420   0.1997   0.2524   0.2659
     0.3868   0.4512   0.5042   0.5673   0.6148   0.6786   0.7502   0.7797
     0.8182   0.8851   0.8940   0.9505

          k =-0.0777 0.1046 0.0000 ( 23012 PWs)   bands (ev):

   -49.4899 -49.4610 -49.4495 -49.4411 -49.4375 -49.4294 -49.4264 -49.4146
   -49.0031 -48.9916 -48.9825 -48.9696 -28.1789 -28.1388 -28.1355 -28.1282
   -28.1239 -28.1183 -28.1116 -28.1051 -28.0993 -28.0951 -28.0868 -28.0821
   -28.0700 -28.0595 -28.0335 -28.0186 -27.9905 -27.9736 -27.9526 -27.9350
   -27.9137 -27.9067 -27.8902 -27.8674 -27.6886 -27.6670 -27.6329 -27.5999
   -27.5701 -27.5642 -27.5587 -27.5570 -27.5474 -27.5227 -27.4859 -27.4631
    -3.8122  -3.0822  -2.4364  -2.0301  -1.7627  -1.4443  -1.0061  -0.7957
    -0.4606  -0.3536  -0.2451   0.0054   0.0420   0.1997   0.2524   0.2659
     0.3868   0.4513   0.5041   0.5673   0.6148   0.6785   0.7503   0.7797
     0.8183   0.8851   0.8939   0.9505

          k =-0.0777-0.0448 0.0000 ( 23032 PWs)   bands (ev):

   -49.4898 -49.4576 -49.4560 -49.4385 -49.4346 -49.4328 -49.4246 -49.4155
   -49.0008 -48.9964 -48.9784 -48.9712 -28.1786 -28.1397 -28.1365 -28.1311
   -28.1293 -28.1249 -28.1198 -28.1007 -28.1003 -28.0955 -28.0859 -28.0844
   -28.0469 -28.0256 -28.0249 -28.0007 -27.9988 -27.9985 -27.9747 -27.9734
   -27.8968 -27.8944 -27.8916 -27.8620 -27.6873 -27.6832 -27.5935 -27.5882
   -27.5702 -27.5694 -27.5664 -27.5627 -27.5574 -27.5472 -27.4677 -27.4642
    -3.7912  -2.9699  -2.7842  -2.0037  -1.6447  -1.0489  -1.0423  -0.8076
    -0.5960  -0.5044  -0.4096   0.2175   0.2207   0.2286   0.2366   0.2683
     0.3191   0.4865   0.5351   0.5563   0.5615   0.6006   0.6227   0.6554
     0.8633   0.8766   0.9458   0.9565

     the Fermi energy is     0.4708 ev

!    total energy              =   -1138.87504272 Ry
     Harris-Foulkes estimate   =   -1138.87504557 Ry
     estimated scf accuracy    <       0.00000857 Ry

     The total energy is the sum of the following terms:

     one-electron contribution =   -7167.69341219 Ry
     hartree contribution      =    3566.16845195 Ry
     xc contribution           =    -167.11406122 Ry
     ewald contribution        =    2629.89906989 Ry
     electric field correction =       0.00000358 Ry
     smearing contrib. (-TS)   =      -0.13509474 Ry

     convergence has been achieved in  17 iterations
 
 BEEF-vdW xc energy contributions
           1 :   -141.632560087146     
           2 :    124.635201343595     
           3 :   -98.1568109113500     
           4 :    72.4809548157922     
           5 :   -54.8349273176436     
           6 :    46.4354965931792     
           7 :   -43.7369037503986     
           8 :    42.1271078252080     
           9 :   -39.0874138039544     
          10 :    34.9266217258910     
          11 :   -31.3298680952505     
          12 :    29.3860430873145     
          13 :   -28.6938125548181     
          14 :    27.9670210867640     
          15 :   -26.3170024224995     
          16 :    23.9902969712357     
          17 :   -21.9932645954325     
          18 :    21.0768697898224     
          19 :   -21.0642355119215     
          20 :    21.0824700573922     
          21 :   -20.3907723308732     
          22 :    19.0033946990172     
          23 :   -17.5841598971310     
          24 :    16.7880068282585     
          25 :   -16.6862826805585     
          26 :    16.7664186056457     
          27 :   -16.4455572066524     
          28 :    15.5939088400501     
          29 :   -14.6035718074056     
          30 :    13.9830149357289     
          31 :   -16.6961574427407     
          32 :   -11.9648596366473     

     Forces acting on atoms (Ry/au):


     negative rho (up, down):  9.544E-05 0.000E+00
     atom    1 type  1   force =     0.00000268    0.00001488    0.00197324
     atom    2 type  1   force =    -0.00000853   -0.00044451    0.00184575
     atom    3 type  1   force =    -0.00041100    0.00022673    0.00186053
     atom    4 type  1   force =     0.00039053    0.00021946    0.00186283
     atom    5 type  1   force =    -0.00099429    0.00063645    0.00064446
     atom    6 type  1   force =     0.00101127    0.00068415    0.00065831
     atom    7 type  1   force =     0.00002843   -0.00009068   -0.00414699
     atom    8 type  1   force =    -0.00003545   -0.00123593    0.00059284
     atom    9 type  1   force =     0.02018267    0.01161875    0.00828793
     atom   10 type  1   force =    -0.02017109    0.01163947    0.00826282
     atom   11 type  1   force =     0.00002083   -0.02328621    0.00828513
     atom   12 type  1   force =    -0.00001498    0.00001894   -0.00878608
     atom   13 type  2   force =    -0.00000107   -0.00000150   -0.02134076

     Total force =     0.048633     Total SCF correction =     0.006076
     SCF correction compared to forces is large: reduce conv_thr to get better values


     entering subroutine stress ...


     negative rho (up, down):  9.544E-05 0.000E+00
          total   stress  (Ry/bohr**3)                   (kbar)     P=   -0.05
   0.00001074  -0.00000001   0.00000001          1.58     -0.00      0.00
  -0.00000001   0.00001074  -0.00000001         -0.00      1.58     -0.00
   0.00000001  -0.00000001  -0.00002256          0.00     -0.00     -3.32


     BFGS Geometry Optimization

     number of scf cycles    =   1
     number of bfgs steps    =   0

     energy   new            =   -1138.8750427192 Ry

     new trust radius        =       0.0247189248 bohr
     new conv_thr            =       0.0000099958 Ry


ATOMIC_POSITIONS (crystal)
Sc1      0.166666667   0.166666667   0.395942884    0   0   0
Sc1      0.666666667   0.166666667   0.395942884    0   0   0
Sc1      0.166666667   0.666666667   0.395942884    0   0   0
Sc1      0.666666667   0.666666667   0.395942884    0   0   0
Sc1      0.833333333   0.333333333   0.500000000    0   0   0
Sc1      0.333333333   0.333333333   0.500000000    0   0   0
Sc1      0.833333333   0.833333333   0.500000000    0   0   0
Sc1      0.333333333   0.833333333   0.500000000    0   0   0
Sc1      0.001107647   0.001102846   0.604230768
Sc1      0.497789474   0.001104813   0.604230242
Sc1      0.001106871   0.497789684   0.604230709
Sc1      0.499997870   0.500001797   0.603873026
H1       0.166666650   0.166666524   0.655339913



     Writing output data file calc.save
     Check: negative starting charge=   -0.000294
     NEW-OLD atomic charge density approx. for the potential
     Check: negative starting charge=   -0.000293

     negative rho (up, down):  9.569E-05 0.000E+00
 
     Adding external electric field

     Computed dipole along edir(3) : 
        Dipole               -0.0417 Ry au,         -0.1061 Debye
        Dipole field         -0.0001 Ry au
 
        Potential amp.        0.0080 Ry
        Total length         46.5341 bohr
 

     total cpu time spent up to now is      536.7 secs

     per-process dynamical memory:    85.0 Mb

     Self-consistent Calculation

     iteration #  1     ecut=    36.75 Ry     beta=0.30
     Davidson diagonalization with overlap
     ethr =  1.00E-06,  avg # of iterations = 11.3

     negative rho (up, down):  9.553E-05 0.000E+00
 
     Adding external electric field

     Computed dipole along edir(3) : 
        Dipole                0.8149 Ry au,          2.0714 Debye
        Dipole field          0.0017 Ry au
 
        Potential amp.       -0.1558 Ry
        Total length         46.5341 bohr
 

     total cpu time spent up to now is      568.7 secs

     total energy              =   -1138.84708577 Ry
     Harris-Foulkes estimate   =   -1138.87666185 Ry
     estimated scf accuracy    <       0.06157399 Ry

     iteration #  2     ecut=    36.75 Ry     beta=0.30
     Davidson diagonalization with overlap
     ethr =  4.63E-05,  avg # of iterations =  9.5

     negative rho (up, down):  3.614E-04 0.000E+00
 
     Adding external electric field

     Computed dipole along edir(3) : 
        Dipole                0.0059 Ry au,          0.0149 Debye
        Dipole field          0.0000 Ry au
 
        Potential amp.       -0.0011 Ry
        Total length         46.5341 bohr
 

     total cpu time spent up to now is      596.6 secs

     total energy              =   -1138.41994324 Ry
     Harris-Foulkes estimate   =   -1139.41676405 Ry
     estimated scf accuracy    <      50.75173154 Ry

     iteration #  3     ecut=    36.75 Ry     beta=0.30
     Davidson diagonalization with overlap
     ethr =  4.63E-05,  avg # of iterations =  9.8

     negative rho (up, down):  2.559E-04 0.000E+00
 
     Adding external electric field

     Computed dipole along edir(3) : 
        Dipole               -0.0087 Ry au,         -0.0222 Debye
        Dipole field         -0.0000 Ry au
 
        Potential amp.        0.0017 Ry
        Total length         46.5341 bohr
 

     total cpu time spent up to now is      625.4 secs

     total energy              =   -1138.87614608 Ry
     Harris-Foulkes estimate   =   -1138.87812713 Ry
     estimated scf accuracy    <       0.02240523 Ry

     iteration #  4     ecut=    36.75 Ry     beta=0.30
     Davidson diagonalization with overlap
     ethr =  1.68E-05,  avg # of iterations =  3.5

     negative rho (up, down):  1.804E-04 0.000E+00
 
     Adding external electric field

     Computed dipole along edir(3) : 
        Dipole               -0.0070 Ry au,         -0.0179 Debye
        Dipole field         -0.0000 Ry au
 
        Potential amp.        0.0013 Ry
        Total length         46.5341 bohr
 

     total cpu time spent up to now is      645.8 secs

     total energy              =   -1138.87677335 Ry
     Harris-Foulkes estimate   =   -1138.87707243 Ry
     estimated scf accuracy    <       0.00194237 Ry

     iteration #  5     ecut=    36.75 Ry     beta=0.30
     Davidson diagonalization with overlap
     ethr =  1.46E-06,  avg # of iterations =  8.7

     negative rho (up, down):  1.423E-04 0.000E+00
 
     Adding external electric field

     Computed dipole along edir(3) : 
        Dipole               -0.0145 Ry au,         -0.0369 Debye
        Dipole field         -0.0000 Ry au
 
        Potential amp.        0.0028 Ry
        Total length         46.5341 bohr
 

     total cpu time spent up to now is      672.1 secs

     total energy              =   -1138.87725825 Ry
     Harris-Foulkes estimate   =   -1138.87731985 Ry
     estimated scf accuracy    <       0.00073743 Ry

     iteration #  6     ecut=    36.75 Ry     beta=0.30
     Davidson diagonalization with overlap
     ethr =  5.54E-07,  avg # of iterations =  4.3

     negative rho (up, down):  1.194E-04 0.000E+00
 
     Adding external electric field

     Computed dipole along edir(3) : 
        Dipole               -0.0123 Ry au,         -0.0314 Debye
        Dipole field         -0.0000 Ry au
 
        Potential amp.        0.0024 Ry
        Total length         46.5341 bohr
 

     total cpu time spent up to now is      693.2 secs

     total energy              =   -1138.87726635 Ry
     Harris-Foulkes estimate   =   -1138.87728572 Ry
     estimated scf accuracy    <       0.00016427 Ry

     iteration #  7     ecut=    36.75 Ry     beta=0.30
     Davidson diagonalization with overlap
     ethr =  1.24E-07,  avg # of iterations =  7.2

     negative rho (up, down):  1.072E-04 0.000E+00
 
     Adding external electric field

     Computed dipole along edir(3) : 
        Dipole               -0.0130 Ry au,         -0.0330 Debye
        Dipole field         -0.0000 Ry au
 
        Potential amp.        0.0025 Ry
        Total length         46.5341 bohr
 

     total cpu time spent up to now is      718.3 secs

     total energy              =   -1138.87728661 Ry
     Harris-Foulkes estimate   =   -1138.87729096 Ry
     estimated scf accuracy    <       0.00005105 Ry

     iteration #  8     ecut=    36.75 Ry     beta=0.30
     Davidson diagonalization with overlap
     ethr =  3.84E-08,  avg # of iterations =  3.6

     negative rho (up, down):  1.007E-04 0.000E+00
 
     Adding external electric field

     Computed dipole along edir(3) : 
        Dipole               -0.0134 Ry au,         -0.0341 Debye
        Dipole field         -0.0000 Ry au
 
        Potential amp.        0.0026 Ry
        Total length         46.5341 bohr
 

     total cpu time spent up to now is      741.6 secs

     total energy              =   -1138.87728547 Ry
     Harris-Foulkes estimate   =   -1138.87728836 Ry
     estimated scf accuracy    <       0.00001877 Ry

     iteration #  9     ecut=    36.75 Ry     beta=0.30
     Davidson diagonalization with overlap
     ethr =  1.41E-08,  avg # of iterations =  7.0

     negative rho (up, down):  9.786E-05 0.000E+00
 
     Adding external electric field

     Computed dipole along edir(3) : 
        Dipole               -0.0132 Ry au,         -0.0335 Debye
        Dipole field         -0.0000 Ry au
 
        Potential amp.        0.0025 Ry
        Total length         46.5341 bohr
 

     total cpu time spent up to now is      769.7 secs

     total energy              =   -1138.87728878 Ry
     Harris-Foulkes estimate   =   -1138.87729129 Ry
     estimated scf accuracy    <       0.00004550 Ry

     iteration # 10     ecut=    36.75 Ry     beta=0.30
     Davidson diagonalization with overlap
     ethr =  1.41E-08,  avg # of iterations =  1.1

     negative rho (up, down):  9.653E-05 0.000E+00
 
     Adding external electric field

     Computed dipole along edir(3) : 
        Dipole               -0.0131 Ry au,         -0.0332 Debye
        Dipole field         -0.0000 Ry au
 
        Potential amp.        0.0025 Ry
        Total length         46.5341 bohr
 

     total cpu time spent up to now is      791.9 secs

     total energy              =   -1138.87728650 Ry
     Harris-Foulkes estimate   =   -1138.87728921 Ry
     estimated scf accuracy    <       0.00002329 Ry

     iteration # 11     ecut=    36.75 Ry     beta=0.30
     Davidson diagonalization with overlap
     ethr =  1.41E-08,  avg # of iterations =  5.5

     negative rho (up, down):  9.539E-05 0.000E+00

     negative rho (up, down):  9.539E-05 0.000E+00

     negative rho (up, down):  9.539E-05 0.000E+00

     negative rho (up, down):  9.539E-05 0.000E+00

     negative rho (up, down):  9.539E-05 0.000E+00

     negative rho (up, down):  9.539E-05 0.000E+00

     negative rho (up, down):  9.539E-05 0.000E+00

     negative rho (up, down):  9.539E-05 0.000E+00

     negative rho (up, down):  9.539E-05 0.000E+00

     negative rho (up, down):  9.539E-05 0.000E+00

     negative rho (up, down):  9.539E-05 0.000E+00

     negative rho (up, down):  9.539E-05 0.000E+00

     negative rho (up, down):  9.539E-05 0.000E+00

     negative rho (up, down):  9.539E-05 0.000E+00

     negative rho (up, down):  9.539E-05 0.000E+00

     negative rho (up, down):  9.539E-05 0.000E+00

     negative rho (up, down):  9.539E-05 0.000E+00

     negative rho (up, down):  9.539E-05 0.000E+00

     negative rho (up, down):  9.539E-05 0.000E+00

     negative rho (up, down):  9.539E-05 0.000E+00

     negative rho (up, down):  9.539E-05 0.000E+00

     negative rho (up, down):  9.539E-05 0.000E+00

     negative rho (up, down):  9.539E-05 0.000E+00

     negative rho (up, down):  9.539E-05 0.000E+00

     negative rho (up, down):  9.539E-05 0.000E+00

     negative rho (up, down):  9.539E-05 0.000E+00

     negative rho (up, down):  9.539E-05 0.000E+00

     negative rho (up, down):  9.539E-05 0.000E+00

     negative rho (up, down):  9.539E-05 0.000E+00

     negative rho (up, down):  9.539E-05 0.000E+00

     negative rho (up, down):  9.539E-05 0.000E+00

     negative rho (up, down):  9.539E-05 0.000E+00

     negative rho (up, down):  9.539E-05 0.000E+00

     negative rho (up, down):  9.539E-05 0.000E+00

     negative rho (up, down):  9.539E-05 0.000E+00
 
     Adding external electric field

     Computed dipole along edir(3) : 
        Dipole               -0.0140 Ry au,         -0.0355 Debye
        Dipole field         -0.0000 Ry au
 
        Potential amp.        0.0027 Ry
        Total length         46.5341 bohr
 

     total cpu time spent up to now is      878.9 secs

     End of self-consistent calculation

          k = 0.0000 0.0000 0.0000 ( 23031 PWs)   bands (ev):

   -49.4836 -49.4739 -49.4375 -49.4293 -49.4292 -49.4253 -49.4145 -49.4144
   -49.0140 -48.9697 -48.9696 -48.9682 -28.1913 -28.1907 -28.1907 -28.1860
   -28.1784 -28.1784 -28.1623 -28.1471 -28.1082 -28.1038 -28.1037 -28.0874
   -28.0773 -28.0772 -27.9268 -27.9267 -27.9267 -27.9198 -27.9198 -27.9090
   -27.8479 -27.8479 -27.8332 -27.8331 -27.7368 -27.7367 -27.7360 -27.5749
   -27.5507 -27.5506 -27.5489 -27.4999 -27.4971 -27.4970 -27.4214 -27.4214
    -4.5073  -3.7857  -2.6197  -1.6185  -1.0170  -1.0170  -0.9664  -0.8982
    -0.8981  -0.8557  -0.6407  -0.6406  -0.4938  -0.0865  -0.0865  -0.0435
     0.1792   0.1792   0.3110   0.5697   0.7806   0.9801   1.0835   1.0836
     1.1055   1.1459   1.1459   1.5845

          k = 0.0000 0.0299 0.0000 ( 23008 PWs)   bands (ev):

   -49.4816 -49.4709 -49.4375 -49.4317 -49.4292 -49.4260 -49.4164 -49.4144
   -49.0110 -48.9723 -48.9696 -48.9686 -28.1832 -28.1785 -28.1762 -28.1696
   -28.1665 -28.1601 -28.1493 -28.1444 -28.1060 -28.1030 -28.1019 -28.0890
   -28.0807 -28.0782 -27.9399 -27.9398 -27.9340 -27.9265 -27.9214 -27.9098
   -27.8714 -27.8561 -27.8532 -27.8382 -27.7257 -27.7252 -27.7170 -27.5722
   -27.5515 -27.5501 -27.5486 -27.5115 -27.5095 -27.4928 -27.4437 -27.4266
    -4.3754  -3.6772  -2.5371  -1.5407  -1.3661  -1.0381  -1.0244  -0.9475
    -0.8256  -0.7821  -0.4719  -0.4717  -0.3347  -0.0412  -0.0213   0.0202
     0.2296   0.2436   0.3593   0.5838   0.7554   0.9494   0.9627   1.0103
     1.0316   1.0785   1.0950   1.4912

          k = 0.0000 0.0598 0.0000 ( 22962 PWs)   bands (ev):

   -49.4773 -49.4626 -49.4397 -49.4375 -49.4292 -49.4264 -49.4207 -49.4144
   -49.0028 -48.9805 -48.9696 -48.9687 -28.1711 -28.1493 -28.1466 -28.1397
   -28.1375 -28.1314 -28.1168 -28.1078 -28.1022 -28.0978 -28.0931 -28.0880
   -28.0808 -28.0796 -27.9719 -27.9716 -27.9695 -27.9542 -27.9348 -27.9161
   -27.9072 -27.8985 -27.8676 -27.8511 -27.6982 -27.6977 -27.6621 -27.5661
   -27.5545 -27.5492 -27.5480 -27.5414 -27.5392 -27.5039 -27.4790 -27.4406
    -4.0499  -3.3820  -2.3386  -2.0738  -1.3583  -1.1227  -1.0468  -0.9975
    -0.6294  -0.6040  -0.3409  -0.0981  -0.0451   0.1029   0.1417   0.1761
     0.3509   0.3828   0.4528   0.5480   0.7060   0.8181   0.8202   0.8375
     0.8515   0.8912   0.9463   1.1704

          k = 0.0000-0.0897 0.0000 ( 23032 PWs)   bands (ev):

   -49.4749 -49.4522 -49.4500 -49.4375 -49.4292 -49.4265 -49.4232 -49.4144
   -48.9921 -48.9912 -48.9696 -48.9687 -28.1647 -28.1332 -28.1305 -28.1255
   -28.1232 -28.1179 -28.1165 -28.0968 -28.0949 -28.0905 -28.0851 -28.0832
   -28.0326 -28.0197 -28.0192 -28.0005 -27.9934 -27.9920 -27.9721 -27.9716
   -27.8894 -27.8885 -27.8855 -27.8614 -27.6793 -27.6789 -27.5854 -27.5833
   -27.5621 -27.5606 -27.5603 -27.5586 -27.5483 -27.5467 -27.4604 -27.4593
    -3.8412  -2.9623  -2.7845  -1.9961  -1.6447  -1.0417  -1.0363  -0.8002
    -0.5923  -0.4960  -0.4090   0.2242   0.2272   0.2334   0.2432   0.2766
     0.3249   0.4927   0.5424   0.5605   0.5688   0.6078   0.6314   0.6635
     0.8684   0.8866   0.9498   0.9649

          k = 0.0259-0.0149 0.0000 ( 23008 PWs)   bands (ev):

   -49.4816 -49.4709 -49.4375 -49.4317 -49.4293 -49.4260 -49.4163 -49.4145
   -49.0110 -48.9723 -48.9697 -48.9685 -28.1832 -28.1785 -28.1762 -28.1696
   -28.1665 -28.1601 -28.1493 -28.1444 -28.1060 -28.1030 -28.1020 -28.0890
   -28.0806 -28.0783 -27.9399 -27.9397 -27.9340 -27.9266 -27.9214 -27.9098
   -27.8714 -27.8561 -27.8532 -27.8382 -27.7256 -27.7252 -27.7170 -27.5722
   -27.5514 -27.5501 -27.5486 -27.5115 -27.5095 -27.4928 -27.4437 -27.4266
    -4.3754  -3.6772  -2.5371  -1.5407  -1.3661  -1.0381  -1.0244  -0.9475
    -0.8255  -0.7822  -0.4719  -0.4717  -0.3347  -0.0413  -0.0213   0.0202
     0.2296   0.2436   0.3593   0.5838   0.7554   0.9494   0.9626   1.0103
     1.0315   1.0785   1.0950   1.4912

          k = 0.0259 0.0149 0.0000 ( 23008 PWs)   bands (ev):

   -49.4816 -49.4709 -49.4375 -49.4317 -49.4292 -49.4260 -49.4164 -49.4144
   -49.0110 -48.9723 -48.9696 -48.9686 -28.1832 -28.1785 -28.1762 -28.1696
   -28.1665 -28.1601 -28.1493 -28.1444 -28.1059 -28.1030 -28.1019 -28.0890
   -28.0807 -28.0782 -27.9399 -27.9397 -27.9340 -27.9265 -27.9214 -27.9098
   -27.8714 -27.8561 -27.8532 -27.8382 -27.7257 -27.7252 -27.7170 -27.5722
   -27.5515 -27.5501 -27.5486 -27.5115 -27.5095 -27.4928 -27.4437 -27.4266
    -4.3754  -3.6772  -2.5371  -1.5407  -1.3661  -1.0381  -1.0244  -0.9475
    -0.8256  -0.7821  -0.4719  -0.4717  -0.3347  -0.0413  -0.0213   0.0202
     0.2296   0.2436   0.3593   0.5838   0.7554   0.9494   0.9626   1.0103
     1.0315   1.0785   1.0950   1.4912

          k = 0.0259 0.0448 0.0000 ( 23004 PWs)   bands (ev):

   -49.4785 -49.4652 -49.4373 -49.4350 -49.4328 -49.4248 -49.4202 -49.4140
   -49.0054 -48.9753 -48.9743 -48.9665 -28.1742 -28.1610 -28.1509 -28.1427
   -28.1383 -28.1369 -28.1272 -28.1266 -28.1052 -28.1019 -28.0943 -28.0898
   -28.0866 -28.0786 -27.9808 -27.9711 -27.9284 -27.9281 -27.9216 -27.9170
   -27.9135 -27.8945 -27.8643 -27.8488 -27.7113 -27.6904 -27.6895 -27.5678
   -27.5525 -27.5511 -27.5493 -27.5472 -27.5001 -27.4983 -27.4837 -27.4374
    -4.1438  -3.4759  -2.3803  -1.6532  -1.6366  -1.3034  -1.0329  -0.9019
    -0.6519  -0.5287  -0.2957  -0.2932  -0.1652   0.0487   0.0932   0.1397
     0.3219   0.3485   0.4319   0.5668   0.7150   0.8277   0.8421   0.8787
     0.9477   0.9776   1.0125   1.2127

          k = 0.0259-0.1046 0.0000 ( 23012 PWs)   bands (ev):

   -49.4750 -49.4554 -49.4439 -49.4364 -49.4352 -49.4251 -49.4235 -49.4135
   -48.9958 -48.9845 -48.9763 -48.9650 -28.1652 -28.1336 -28.1285 -28.1215
   -28.1192 -28.1136 -28.1058 -28.1001 -28.0959 -28.0893 -28.0820 -28.0796
   -28.0646 -28.0540 -28.0279 -28.0149 -27.9849 -27.9699 -27.9467 -27.9316
   -27.9081 -27.9002 -27.8845 -27.8661 -27.6823 -27.6609 -27.6266 -27.5937
   -27.5618 -27.5560 -27.5517 -27.5509 -27.5458 -27.5168 -27.4797 -27.4570
    -3.8591  -3.0835  -2.4299  -2.0266  -1.7566  -1.4403  -0.9997  -0.7918
    -0.4536  -0.3490  -0.2393   0.0118   0.0471   0.2057   0.2586   0.2739
     0.3919   0.4577   0.5121   0.5751   0.6207   0.6849   0.7581   0.7879
     0.8251   0.8913   0.9025   0.9568

          k = 0.0259-0.0747 0.0000 ( 23012 PWs)   bands (ev):

   -49.4750 -49.4554 -49.4439 -49.4364 -49.4352 -49.4251 -49.4235 -49.4135
   -48.9958 -48.9845 -48.9763 -48.9650 -28.1652 -28.1336 -28.1285 -28.1215
   -28.1192 -28.1136 -28.1058 -28.1001 -28.0959 -28.0893 -28.0820 -28.0796
   -28.0646 -28.0540 -28.0279 -28.0150 -27.9849 -27.9698 -27.9467 -27.9316
   -27.9081 -27.9002 -27.8845 -27.8662 -27.6823 -27.6609 -27.6266 -27.5937
   -27.5618 -27.5560 -27.5517 -27.5509 -27.5458 -27.5168 -27.4797 -27.4570
    -3.8591  -3.0835  -2.4299  -2.0266  -1.7566  -1.4403  -0.9997  -0.7918
    -0.4536  -0.3490  -0.2393   0.0118   0.0471   0.2057   0.2586   0.2739
     0.3919   0.4577   0.5122   0.5751   0.6207   0.6849   0.7581   0.7879
     0.8251   0.8913   0.9025   0.9568

          k = 0.0259-0.0448 0.0000 ( 23004 PWs)   bands (ev):

   -49.4785 -49.4652 -49.4374 -49.4350 -49.4328 -49.4248 -49.4201 -49.4140
   -49.0054 -48.9753 -48.9744 -48.9665 -28.1742 -28.1610 -28.1509 -28.1427
   -28.1383 -28.1369 -28.1273 -28.1266 -28.1052 -28.1020 -28.0943 -28.0898
   -28.0865 -28.0786 -27.9808 -27.9711 -27.9284 -27.9281 -27.9216 -27.9170
   -27.9135 -27.8945 -27.8643 -27.8488 -27.7113 -27.6905 -27.6894 -27.5678
   -27.5524 -27.5512 -27.5493 -27.5472 -27.5001 -27.4983 -27.4837 -27.4374
    -4.1438  -3.4759  -2.3803  -1.6532  -1.6366  -1.3034  -1.0329  -0.9019
    -0.6519  -0.5287  -0.2957  -0.2932  -0.1652   0.0487   0.0932   0.1397
     0.3219   0.3485   0.4320   0.5668   0.7150   0.8277   0.8421   0.8787
     0.9477   0.9776   1.0125   1.2127

          k = 0.0518-0.0299 0.0000 ( 22962 PWs)   bands (ev):

   -49.4773 -49.4626 -49.4397 -49.4376 -49.4293 -49.4263 -49.4206 -49.4145
   -49.0028 -48.9804 -48.9697 -48.9686 -28.1711 -28.1492 -28.1466 -28.1397
   -28.1375 -28.1314 -28.1167 -28.1078 -28.1022 -28.0978 -28.0931 -28.0880
   -28.0809 -28.0796 -27.9719 -27.9716 -27.9695 -27.9542 -27.9348 -27.9161
   -27.9072 -27.8984 -27.8676 -27.8511 -27.6982 -27.6978 -27.6621 -27.5661
   -27.5545 -27.5493 -27.5480 -27.5415 -27.5391 -27.5039 -27.4790 -27.4407
    -4.0499  -3.3820  -2.3386  -2.0738  -1.3583  -1.1227  -1.0468  -0.9975
    -0.6294  -0.6040  -0.3409  -0.0981  -0.0451   0.1029   0.1417   0.1761
     0.3509   0.3828   0.4528   0.5480   0.7060   0.8181   0.8202   0.8375
     0.8515   0.8912   0.9463   1.1704

          k = 0.0518 0.0000 0.0000 ( 23004 PWs)   bands (ev):

   -49.4785 -49.4652 -49.4374 -49.4350 -49.4329 -49.4248 -49.4201 -49.4140
   -49.0054 -48.9753 -48.9744 -48.9665 -28.1742 -28.1610 -28.1509 -28.1427
   -28.1383 -28.1369 -28.1272 -28.1266 -28.1051 -28.1020 -28.0943 -28.0898
   -28.0865 -28.0786 -27.9808 -27.9711 -27.9285 -27.9281 -27.9216 -27.9170
   -27.9135 -27.8945 -27.8643 -27.8488 -27.7113 -27.6905 -27.6894 -27.5678
   -27.5524 -27.5512 -27.5493 -27.5471 -27.5000 -27.4983 -27.4837 -27.4374
    -4.1438  -3.4759  -2.3803  -1.6532  -1.6366  -1.3034  -1.0329  -0.9019
    -0.6519  -0.5287  -0.2957  -0.2932  -0.1652   0.0487   0.0932   0.1397
     0.3219   0.3485   0.4320   0.5668   0.7150   0.8277   0.8421   0.8787
     0.9477   0.9776   1.0125   1.2127

          k = 0.0518 0.0299 0.0000 ( 22962 PWs)   bands (ev):

   -49.4773 -49.4626 -49.4397 -49.4375 -49.4292 -49.4264 -49.4207 -49.4144
   -49.0028 -48.9804 -48.9697 -48.9686 -28.1711 -28.1493 -28.1466 -28.1397
   -28.1375 -28.1314 -28.1168 -28.1078 -28.1022 -28.0978 -28.0931 -28.0880
   -28.0808 -28.0796 -27.9719 -27.9716 -27.9695 -27.9542 -27.9348 -27.9161
   -27.9072 -27.8985 -27.8676 -27.8511 -27.6982 -27.6977 -27.6621 -27.5661
   -27.5545 -27.5492 -27.5480 -27.5414 -27.5392 -27.5039 -27.4790 -27.4406
    -4.0499  -3.3820  -2.3386  -2.0738  -1.3583  -1.1227  -1.0468  -0.9975
    -0.6294  -0.6040  -0.3409  -0.0981  -0.0451   0.1028   0.1417   0.1761
     0.3509   0.3828   0.4528   0.5480   0.7060   0.8181   0.8202   0.8375
     0.8515   0.8912   0.9463   1.1704

          k = 0.0518-0.1196 0.0000 ( 23012 PWs)   bands (ev):

   -49.4750 -49.4554 -49.4439 -49.4364 -49.4352 -49.4251 -49.4235 -49.4135
   -48.9958 -48.9845 -48.9763 -48.9650 -28.1652 -28.1336 -28.1285 -28.1215
   -28.1192 -28.1136 -28.1058 -28.1001 -28.0959 -28.0893 -28.0820 -28.0796
   -28.0646 -28.0540 -28.0279 -28.0149 -27.9849 -27.9699 -27.9467 -27.9316
   -27.9081 -27.9002 -27.8845 -27.8661 -27.6823 -27.6609 -27.6266 -27.5937
   -27.5618 -27.5560 -27.5517 -27.5509 -27.5458 -27.5167 -27.4797 -27.4570
    -3.8591  -3.0835  -2.4299  -2.0266  -1.7566  -1.4403  -0.9997  -0.7918
    -0.4536  -0.3490  -0.2393   0.0118   0.0471   0.2057   0.2586   0.2739
     0.3919   0.4577   0.5121   0.5751   0.6207   0.6849   0.7581   0.7879
     0.8251   0.8913   0.9025   0.9568

          k = 0.0518-0.0897 0.0000 ( 23028 PWs)   bands (ev):

   -49.4739 -49.4465 -49.4465 -49.4429 -49.4331 -49.4303 -49.4220 -49.4127
   -48.9866 -48.9865 -48.9851 -48.9635 -28.1625 -28.1215 -28.1198 -28.1169
   -28.1071 -28.1067 -28.0903 -28.0872 -28.0853 -28.0781 -28.0767 -28.0753
   -28.0456 -28.0456 -28.0447 -28.0324 -28.0267 -28.0225 -27.9165 -27.9130
   -27.9130 -27.9086 -27.9085 -27.8852 -27.6451 -27.6449 -27.6098 -27.6072
   -27.6070 -27.5573 -27.5571 -27.5548 -27.5449 -27.4862 -27.4861 -27.4843
    -3.7710  -2.5679  -2.5605  -2.4141  -1.6350  -1.6216  -1.2761  -0.4573
    -0.4505  -0.1534  -0.0775  -0.0550  -0.0514   0.2838   0.2905   0.4047
     0.4585   0.4611   0.5600   0.5795   0.6681   0.7161   0.7199   0.7291
     0.7354   0.8911   0.9074   0.9215

          k = 0.0518-0.0598 0.0000 ( 23012 PWs)   bands (ev):

   -49.4750 -49.4554 -49.4438 -49.4364 -49.4352 -49.4250 -49.4235 -49.4135
   -48.9958 -48.9845 -48.9763 -48.9650 -28.1652 -28.1336 -28.1285 -28.1215
   -28.1192 -28.1136 -28.1058 -28.1001 -28.0959 -28.0893 -28.0820 -28.0797
   -28.0646 -28.0541 -28.0279 -28.0150 -27.9849 -27.9699 -27.9467 -27.9316
   -27.9081 -27.9001 -27.8845 -27.8662 -27.6823 -27.6609 -27.6266 -27.5937
   -27.5619 -27.5560 -27.5517 -27.5509 -27.5458 -27.5167 -27.4797 -27.4570
    -3.8591  -3.0835  -2.4299  -2.0266  -1.7566  -1.4402  -0.9997  -0.7918
    -0.4536  -0.3490  -0.2393   0.0118   0.0471   0.2057   0.2586   0.2739
     0.3919   0.4577   0.5121   0.5751   0.6207   0.6848   0.7581   0.7879
     0.8251   0.8913   0.9025   0.9568

          k =-0.0777 0.0448 0.0000 ( 23032 PWs)   bands (ev):

   -49.4749 -49.4523 -49.4499 -49.4376 -49.4293 -49.4264 -49.4230 -49.4145
   -48.9922 -48.9911 -48.9697 -48.9686 -28.1647 -28.1333 -28.1304 -28.1256
   -28.1232 -28.1178 -28.1165 -28.0967 -28.0949 -28.0904 -28.0852 -28.0832
   -28.0325 -28.0196 -28.0192 -28.0005 -27.9935 -27.9919 -27.9722 -27.9715
   -27.8894 -27.8885 -27.8854 -27.8615 -27.6792 -27.6790 -27.5855 -27.5832
   -27.5622 -27.5605 -27.5603 -27.5586 -27.5484 -27.5466 -27.4603 -27.4594
    -3.8412  -2.9623  -2.7845  -1.9961  -1.6447  -1.0417  -1.0363  -0.8002
    -0.5923  -0.4960  -0.4091   0.2242   0.2272   0.2334   0.2432   0.2766
     0.3249   0.4927   0.5424   0.5605   0.5688   0.6078   0.6313   0.6636
     0.8684   0.8866   0.9499   0.9649

          k =-0.0777 0.0747 0.0000 ( 23012 PWs)   bands (ev):

   -49.4750 -49.4554 -49.4438 -49.4364 -49.4352 -49.4250 -49.4235 -49.4135
   -48.9958 -48.9845 -48.9763 -48.9650 -28.1652 -28.1336 -28.1285 -28.1215
   -28.1192 -28.1136 -28.1058 -28.1001 -28.0959 -28.0893 -28.0820 -28.0796
   -28.0646 -28.0541 -28.0279 -28.0150 -27.9849 -27.9699 -27.9467 -27.9316
   -27.9081 -27.9001 -27.8845 -27.8662 -27.6823 -27.6609 -27.6266 -27.5937
   -27.5619 -27.5560 -27.5517 -27.5509 -27.5458 -27.5167 -27.4797 -27.4570
    -3.8591  -3.0835  -2.4299  -2.0266  -1.7566  -1.4402  -0.9997  -0.7918
    -0.4536  -0.3490  -0.2393   0.0118   0.0471   0.2057   0.2586   0.2739
     0.3919   0.4577   0.5121   0.5751   0.6207   0.6848   0.7581   0.7879
     0.8251   0.8913   0.9025   0.9568

          k =-0.0777 0.1046 0.0000 ( 23012 PWs)   bands (ev):

   -49.4750 -49.4554 -49.4438 -49.4364 -49.4352 -49.4251 -49.4235 -49.4135
   -48.9958 -48.9845 -48.9763 -48.9650 -28.1652 -28.1336 -28.1285 -28.1215
   -28.1192 -28.1136 -28.1058 -28.1001 -28.0959 -28.0893 -28.0819 -28.0796
   -28.0646 -28.0540 -28.0279 -28.0150 -27.9849 -27.9698 -27.9467 -27.9316
   -27.9081 -27.9002 -27.8845 -27.8661 -27.6823 -27.6609 -27.6266 -27.5937
   -27.5618 -27.5560 -27.5517 -27.5509 -27.5458 -27.5167 -27.4797 -27.4570
    -3.8591  -3.0835  -2.4299  -2.0266  -1.7566  -1.4403  -0.9997  -0.7918
    -0.4536  -0.3490  -0.2393   0.0118   0.0471   0.2057   0.2586   0.2739
     0.3919   0.4577   0.5122   0.5751   0.6207   0.6848   0.7581   0.7879
     0.8251   0.8913   0.9025   0.9568

          k =-0.0777-0.0448 0.0000 ( 23032 PWs)   bands (ev):

   -49.4749 -49.4522 -49.4500 -49.4375 -49.4292 -49.4265 -49.4232 -49.4144
   -48.9921 -48.9912 -48.9697 -48.9687 -28.1647 -28.1332 -28.1305 -28.1255
   -28.1232 -28.1179 -28.1165 -28.0968 -28.0949 -28.0905 -28.0851 -28.0831
   -28.0325 -28.0196 -28.0192 -28.0005 -27.9934 -27.9920 -27.9721 -27.9716
   -27.8894 -27.8885 -27.8854 -27.8614 -27.6793 -27.6789 -27.5854 -27.5832
   -27.5621 -27.5606 -27.5603 -27.5586 -27.5483 -27.5467 -27.4604 -27.4593
    -3.8412  -2.9623  -2.7845  -1.9961  -1.6447  -1.0417  -1.0363  -0.8002
    -0.5923  -0.4960  -0.4090   0.2242   0.2272   0.2334   0.2432   0.2766
     0.3249   0.4926   0.5424   0.5605   0.5688   0.6078   0.6314   0.6635
     0.8684   0.8866   0.9498   0.9649

     the Fermi energy is     0.4778 ev

!    total energy              =   -1138.87728653 Ry
     Harris-Foulkes estimate   =   -1138.87728904 Ry
     estimated scf accuracy    <       0.00000288 Ry

     The total energy is the sum of the following terms:

     one-electron contribution =   -7166.14150309 Ry
     hartree contribution      =    3565.39727383 Ry
     xc contribution           =    -167.11538821 Ry
     ewald contribution        =    2629.11749605 Ry
     electric field correction =       0.00000040 Ry
     smearing contrib. (-TS)   =      -0.13516551 Ry

     convergence has been achieved in  11 iterations
 
 BEEF-vdW xc energy contributions
           1 :   -141.633962811566     
           2 :    124.637148948991     
           3 :   -98.1594205950977     
           4 :    72.4839923038551     
           5 :   -54.8379038243880     
           6 :    46.4376413502396     
           7 :   -43.7372996789874     
           8 :    42.1250876255524     
           9 :   -39.0831954870178     
          10 :    34.9217412241626     
          11 :   -31.3266642093649     
          12 :    29.3861444144545     
          13 :   -28.6968306123117     
          14 :    27.9708392310769     
          15 :   -26.3196005302135     
          16 :    23.9913610285055     
          17 :   -21.9939632884899     
          18 :    21.0781378430984     
          19 :   -21.0654522750370     
          20 :    21.0819605295664     
          21 :   -20.3877425379678     
          22 :    18.9994064970271     
          23 :   -17.5824813648351     
          24 :    16.7911142891548     
          25 :   -16.6936469091336     
          26 :    16.7747032192933     
          27 :   -16.4511946886583     
          28 :    15.5956611738718     
          29 :   -14.6026252260531     
          30 :    13.9806974727030     
          31 :   -16.6962549781524     
          32 :   -11.9651706439135     

     Forces acting on atoms (Ry/au):


     negative rho (up, down):  9.539E-05 0.000E+00
     atom    1 type  1   force =    -0.00001486   -0.00000024    0.00162059
     atom    2 type  1   force =     0.00000581   -0.00060932    0.00183696
     atom    3 type  1   force =    -0.00053369    0.00030672    0.00181806
     atom    4 type  1   force =     0.00052370    0.00029402    0.00184040
     atom    5 type  1   force =    -0.00076362    0.00043476    0.00104804
     atom    6 type  1   force =     0.00075244    0.00043488    0.00104663
     atom    7 type  1   force =    -0.00000244   -0.00000491   -0.00283172
     atom    8 type  1   force =    -0.00000636   -0.00087796    0.00104736
     atom    9 type  1   force =     0.01687429    0.00975507    0.00733963
     atom   10 type  1   force =    -0.01684279    0.00973809    0.00736116
     atom   11 type  1   force =     0.00000079   -0.01946286    0.00734641
     atom   12 type  1   force =     0.00000998   -0.00000512   -0.00877275
     atom   13 type  2   force =    -0.00000325   -0.00000312   -0.02070077

     Total force =     0.042482     Total SCF correction =     0.002323


     entering subroutine stress ...


     negative rho (up, down):  9.539E-05 0.000E+00
          total   stress  (Ry/bohr**3)                   (kbar)     P=   -0.19
   0.00000988  -0.00000000   0.00000000          1.45     -0.00      0.00
  -0.00000000   0.00000987   0.00000000         -0.00      1.45      0.00
   0.00000000   0.00000000  -0.00002359          0.00      0.00     -3.47


     number of scf cycles    =   2
     number of bfgs steps    =   1

     energy   old            =   -1138.8750427192 Ry
     energy   new            =   -1138.8772865281 Ry

     CASE: energy  _new < energy  _old


     WARNING: bfgs curvature condition failed, Theta= 0.918
     new trust radius        =       0.0370783872 bohr
     new conv_thr            =       0.0000001000 Ry


ATOMIC_POSITIONS (crystal)
Sc1      0.166666667   0.166666667   0.395942884    0   0   0
Sc1      0.666666667   0.166666667   0.395942884    0   0   0
Sc1      0.166666667   0.666666667   0.395942884    0   0   0
Sc1      0.666666667   0.666666667   0.395942884    0   0   0
Sc1      0.833333333   0.333333333   0.500000000    0   0   0
Sc1      0.333333333   0.333333333   0.500000000    0   0   0
Sc1      0.833333333   0.833333333   0.500000000    0   0   0
Sc1      0.333333333   0.833333333   0.500000000    0   0   0
Sc1      0.002755057   0.002752096   0.604502792
Sc1      0.494498056   0.002751963   0.604502859
Sc1      0.002753552   0.494497201   0.604502942
Sc1      0.499999091   0.500001403   0.603552538
H1       0.166666463   0.166666039   0.654581141



     Writing output data file calc.save
     Check: negative starting charge=   -0.000293
     NEW-OLD atomic charge density approx. for the potential
     Check: negative starting charge=   -0.000292

     negative rho (up, down):  9.683E-05 0.000E+00
 
     Adding external electric field

     Computed dipole along edir(3) : 
        Dipole               -0.0139 Ry au,         -0.0354 Debye
        Dipole field         -0.0000 Ry au
 
        Potential amp.        0.0027 Ry
        Total length         46.5341 bohr
 

     total cpu time spent up to now is      967.9 secs

     per-process dynamical memory:    85.0 Mb

     Self-consistent Calculation

     iteration #  1     ecut=    36.75 Ry     beta=0.30
     Davidson diagonalization with overlap
     ethr =  1.00E-06,  avg # of iterations = 10.8

     negative rho (up, down):  9.582E-05 0.000E+00
 
     Adding external electric field

     Computed dipole along edir(3) : 
        Dipole                0.0727 Ry au,          0.1847 Debye
        Dipole field          0.0001 Ry au
 
        Potential amp.       -0.0139 Ry
        Total length         46.5341 bohr
 

     total cpu time spent up to now is     1002.2 secs

     total energy              =   -1138.87916066 Ry
     Harris-Foulkes estimate   =   -1138.88048188 Ry
     estimated scf accuracy    <       0.00310010 Ry

     iteration #  2     ecut=    36.75 Ry     beta=0.30
     Davidson diagonalization with overlap
     ethr =  2.33E-06,  avg # of iterations =  8.2

     negative rho (up, down):  1.007E-04 0.000E+00
 
     Adding external electric field

     Computed dipole along edir(3) : 
        Dipole               -0.0290 Ry au,         -0.0738 Debye
        Dipole field         -0.0001 Ry au
 
        Potential amp.        0.0056 Ry
        Total length         46.5341 bohr
 

     total cpu time spent up to now is     1030.6 secs

     total energy              =   -1138.87282012 Ry
     Harris-Foulkes estimate   =   -1138.88566031 Ry
     estimated scf accuracy    <       0.54411649 Ry

     iteration #  3     ecut=    36.75 Ry     beta=0.30
     Davidson diagonalization with overlap
     ethr =  2.33E-06,  avg # of iterations =  7.3

     negative rho (up, down):  1.006E-04 0.000E+00
 
     Adding external electric field

     Computed dipole along edir(3) : 
        Dipole               -0.0025 Ry au,         -0.0064 Debye
        Dipole field         -0.0000 Ry au
 
        Potential amp.        0.0005 Ry
        Total length         46.5341 bohr
 

     total cpu time spent up to now is     1058.0 secs

     total energy              =   -1138.87860564 Ry
     Harris-Foulkes estimate   =   -1138.88133715 Ry
     estimated scf accuracy    <       0.07933939 Ry

     iteration #  4     ecut=    36.75 Ry     beta=0.30
     Davidson diagonalization with overlap
     ethr =  2.33E-06,  avg # of iterations =  7.2

     negative rho (up, down):  1.008E-04 0.000E+00
 
     Adding external electric field

     Computed dipole along edir(3) : 
        Dipole               -0.0050 Ry au,         -0.0128 Debye
        Dipole field         -0.0000 Ry au
 
        Potential amp.        0.0010 Ry
        Total length         46.5341 bohr
 

     total cpu time spent up to now is     1085.1 secs

     total energy              =   -1138.87980437 Ry
     Harris-Foulkes estimate   =   -1138.88034174 Ry
     estimated scf accuracy    <       0.00515243 Ry

     iteration #  5     ecut=    36.75 Ry     beta=0.30
     Davidson diagonalization with overlap
     ethr =  2.33E-06,  avg # of iterations =  4.8

     negative rho (up, down):  9.825E-05 0.000E+00
 
     Adding external electric field

     Computed dipole along edir(3) : 
        Dipole               -0.0058 Ry au,         -0.0147 Debye
        Dipole field         -0.0000 Ry au
 
        Potential amp.        0.0011 Ry
        Total length         46.5341 bohr
 

     total cpu time spent up to now is     1108.1 secs

     total energy              =   -1138.88007489 Ry
     Harris-Foulkes estimate   =   -1138.88013499 Ry
     estimated scf accuracy    <       0.00038883 Ry

     iteration #  6     ecut=    36.75 Ry     beta=0.30
     Davidson diagonalization with overlap
     ethr =  2.92E-07,  avg # of iterations =  6.3

     negative rho (up, down):  9.692E-05 0.000E+00
 
     Adding external electric field

     Computed dipole along edir(3) : 
        Dipole               -0.0044 Ry au,         -0.0112 Debye
        Dipole field         -0.0000 Ry au
 
        Potential amp.        0.0008 Ry
        Total length         46.5341 bohr
 

     total cpu time spent up to now is     1133.4 secs

     total energy              =   -1138.88012779 Ry
     Harris-Foulkes estimate   =   -1138.88013738 Ry
     estimated scf accuracy    <       0.00008431 Ry

     iteration #  7     ecut=    36.75 Ry     beta=0.30
     Davidson diagonalization with overlap
     ethr =  6.34E-08,  avg # of iterations =  6.0

     negative rho (up, down):  9.557E-05 0.000E+00
 
     Adding external electric field

     Computed dipole along edir(3) : 
        Dipole               -0.0039 Ry au,         -0.0100 Debye
        Dipole field         -0.0000 Ry au
 
        Potential amp.        0.0008 Ry
        Total length         46.5341 bohr
 

     total cpu time spent up to now is     1158.5 secs

     total energy              =   -1138.88013305 Ry
[...]
     0.9845   1.0135   1.0461   1.2383

          k = 0.0259-0.1046 0.0000 ( 23012 PWs)   bands (ev):

   -49.4223 -49.4208 -49.4091 -49.4034 -49.4004 -49.3942 -49.3888 -49.3319
   -48.9998 -48.9415 -48.9306 -48.9193 -28.1165 -28.0955 -28.0917 -28.0860
   -28.0816 -28.0775 -28.0738 -28.0681 -28.0629 -28.0530 -28.0435 -28.0321
   -28.0274 -28.0185 -27.9928 -27.9601 -27.9499 -27.9186 -27.9120 -27.8747
   -27.8732 -27.8499 -27.8475 -27.8116 -27.6620 -27.6248 -27.5990 -27.5753
   -27.5585 -27.5142 -27.5085 -27.5028 -27.4981 -27.4781 -27.4512 -27.4140
    -4.2737  -3.0856  -2.3974  -2.0034  -1.7246  -1.4106  -0.9605  -0.7599
    -0.4214  -0.3201  -0.2094   0.0395   0.0784   0.2283   0.2861   0.3198
     0.4125   0.4787   0.5534   0.6185   0.6478   0.7079   0.8015   0.8273
     0.8609   0.9275   0.9522   0.9925

          k = 0.0259-0.0747 0.0000 ( 23012 PWs)   bands (ev):

   -49.4223 -49.4208 -49.4092 -49.4034 -49.4004 -49.3942 -49.3888 -49.3319
   -48.9998 -48.9415 -48.9306 -48.9193 -28.1165 -28.0955 -28.0917 -28.0860
   -28.0816 -28.0775 -28.0738 -28.0681 -28.0629 -28.0530 -28.0435 -28.0321
   -28.0274 -28.0185 -27.9928 -27.9601 -27.9499 -27.9186 -27.9120 -27.8747
   -27.8732 -27.8499 -27.8475 -27.8116 -27.6620 -27.6248 -27.5990 -27.5753
   -27.5585 -27.5142 -27.5085 -27.5028 -27.4981 -27.4781 -27.4512 -27.4140
    -4.2737  -3.0856  -2.3974  -2.0034  -1.7246  -1.4106  -0.9605  -0.7599
    -0.4214  -0.3201  -0.2094   0.0395   0.0784   0.2283   0.2861   0.3198
     0.4125   0.4787   0.5534   0.6185   0.6478   0.7079   0.8015   0.8273
     0.8609   0.9275   0.9522   0.9925

          k = 0.0259-0.0448 0.0000 ( 23004 PWs)   bands (ev):

   -49.4307 -49.4280 -49.4008 -49.3987 -49.3976 -49.3938 -49.3902 -49.3312
   -49.0019 -48.9441 -48.9255 -48.9197 -28.1361 -28.1233 -28.1153 -28.1023
   -28.1012 -28.0931 -28.0837 -28.0804 -28.0707 -28.0694 -28.0644 -28.0602
   -28.0531 -28.0245 -27.9461 -27.9210 -27.8940 -27.8930 -27.8791 -27.8734
   -27.8678 -27.8362 -27.8297 -27.7955 -27.6888 -27.6694 -27.6393 -27.5768
   -27.5196 -27.5112 -27.5014 -27.4990 -27.4712 -27.4673 -27.4400 -27.3979
    -4.4447  -3.5556  -2.3993  -1.6197  -1.6018  -1.2702  -1.0034  -0.8722
    -0.6186  -0.4949  -0.2656  -0.2609  -0.1357   0.0864   0.1361   0.1835
     0.3695   0.3824   0.5004   0.6011   0.7193   0.8567   0.8797   0.9134
     0.9845   1.0136   1.0461   1.2383

          k = 0.0518-0.0299 0.0000 ( 22962 PWs)   bands (ev):

   -49.4281 -49.4262 -49.4051 -49.4005 -49.3943 -49.3935 -49.3919 -49.3314
   -49.0012 -48.9437 -48.9264 -48.9199 -28.1302 -28.1116 -28.1103 -28.1059
   -28.0908 -28.0850 -28.0801 -28.0733 -28.0662 -28.0660 -28.0595 -28.0538
   -28.0497 -28.0249 -27.9379 -27.9359 -27.9197 -27.9058 -27.8999 -27.8724
   -27.8573 -27.8490 -27.8330 -27.7968 -27.6827 -27.6583 -27.6248 -27.5763
   -27.5200 -27.5104 -27.5015 -27.5006 -27.4981 -27.4608 -27.4500 -27.3997
    -4.3863  -3.4401  -2.3320  -2.0525  -1.3161  -1.1015  -1.0102  -0.9665
    -0.5938  -0.5731  -0.3140  -0.0738  -0.0114   0.1357   0.1771   0.2257
     0.3977   0.4178   0.5010   0.5883   0.7203   0.8486   0.8585   0.8756
     0.8790   0.9306   0.9846   1.1881

          k = 0.0518 0.0000 0.0000 ( 23004 PWs)   bands (ev):

   -49.4307 -49.4280 -49.4007 -49.3987 -49.3976 -49.3938 -49.3902 -49.3312
   -49.0019 -48.9441 -48.9255 -48.9196 -28.1361 -28.1233 -28.1153 -28.1022
   -28.1012 -28.0931 -28.0837 -28.0804 -28.0707 -28.0694 -28.0644 -28.0602
   -28.0531 -28.0245 -27.9461 -27.9210 -27.8940 -27.8930 -27.8791 -27.8734
   -27.8678 -27.8362 -27.8297 -27.7955 -27.6888 -27.6693 -27.6393 -27.5768
   -27.5196 -27.5112 -27.5015 -27.4989 -27.4712 -27.4673 -27.4400 -27.3979
    -4.4447  -3.5556  -2.3993  -1.6197  -1.6018  -1.2702  -1.0034  -0.8722
    -0.6186  -0.4949  -0.2656  -0.2609  -0.1357   0.0864   0.1361   0.1835
     0.3696   0.3824   0.5004   0.6011   0.7193   0.8567   0.8797   0.9134
     0.9845   1.0135   1.0461   1.2383

          k = 0.0518 0.0299 0.0000 ( 22962 PWs)   bands (ev):

   -49.4281 -49.4262 -49.4051 -49.4005 -49.3943 -49.3935 -49.3918 -49.3314
   -49.0012 -48.9437 -48.9264 -48.9199 -28.1302 -28.1116 -28.1103 -28.1059
   -28.0908 -28.0850 -28.0801 -28.0733 -28.0662 -28.0660 -28.0596 -28.0538
   -28.0497 -28.0249 -27.9379 -27.9359 -27.9196 -27.9058 -27.8999 -27.8724
   -27.8573 -27.8490 -27.8330 -27.7969 -27.6827 -27.6583 -27.6248 -27.5763
   -27.5200 -27.5104 -27.5015 -27.5006 -27.4981 -27.4608 -27.4500 -27.3997
    -4.3863  -3.4401  -2.3320  -2.0525  -1.3161  -1.1015  -1.0102  -0.9665
    -0.5938  -0.5731  -0.3141  -0.0738  -0.0114   0.1357   0.1771   0.2257
     0.3978   0.4178   0.5010   0.5883   0.7203   0.8486   0.8585   0.8756
     0.8790   0.9306   0.9846   1.1881

          k = 0.0518-0.1196 0.0000 ( 23012 PWs)   bands (ev):

   -49.4223 -49.4208 -49.4091 -49.4034 -49.4004 -49.3942 -49.3888 -49.3319
   -48.9998 -48.9415 -48.9306 -48.9193 -28.1165 -28.0955 -28.0917 -28.0860
   -28.0816 -28.0775 -28.0738 -28.0681 -28.0629 -28.0530 -28.0435 -28.0321
   -28.0274 -28.0185 -27.9928 -27.9601 -27.9499 -27.9186 -27.9120 -27.8747
   -27.8732 -27.8499 -27.8475 -27.8116 -27.6621 -27.6248 -27.5990 -27.5753
   -27.5585 -27.5142 -27.5085 -27.5028 -27.4981 -27.4781 -27.4512 -27.4140
    -4.2737  -3.0856  -2.3974  -2.0034  -1.7246  -1.4106  -0.9605  -0.7599
    -0.4214  -0.3201  -0.2094   0.0395   0.0784   0.2283   0.2861   0.3198
     0.4124   0.4788   0.5534   0.6185   0.6478   0.7079   0.8015   0.8273
     0.8609   0.9275   0.9522   0.9925

          k = 0.0518-0.0897 0.0000 ( 23028 PWs)   bands (ev):

   -49.4197 -49.4137 -49.4092 -49.4091 -49.4049 -49.3951 -49.3873 -49.3321
   -48.9992 -48.9368 -48.9365 -48.9187 -28.1078 -28.0885 -28.0830 -28.0827
   -28.0771 -28.0691 -28.0636 -28.0541 -28.0502 -28.0467 -28.0305 -28.0274
   -28.0119 -28.0116 -28.0090 -28.0016 -27.9727 -27.9558 -27.8800 -27.8798
   -27.8786 -27.8632 -27.8394 -27.8361 -27.6268 -27.6260 -27.5748 -27.5706
   -27.5670 -27.5663 -27.5070 -27.5042 -27.4977 -27.4583 -27.4577 -27.4317
    -4.2209  -2.5313  -2.5224  -2.4033  -1.5884  -1.5876  -1.2589  -0.4208
    -0.3985  -0.1341  -0.0445  -0.0356  -0.0183   0.3024   0.3535   0.3714
     0.4700   0.4950   0.5810   0.6397   0.7057   0.7352   0.7357   0.7569
     0.7883   0.9210   0.9958   1.0052

          k = 0.0518-0.0598 0.0000 ( 23012 PWs)   bands (ev):

   -49.4223 -49.4208 -49.4092 -49.4034 -49.4004 -49.3942 -49.3888 -49.3319
   -48.9998 -48.9415 -48.9306 -48.9193 -28.1165 -28.0955 -28.0917 -28.0860
   -28.0816 -28.0775 -28.0738 -28.0681 -28.0629 -28.0530 -28.0435 -28.0321
   -28.0274 -28.0185 -27.9928 -27.9601 -27.9499 -27.9186 -27.9120 -27.8747
   -27.8732 -27.8499 -27.8475 -27.8116 -27.6620 -27.6248 -27.5990 -27.5753
   -27.5585 -27.5142 -27.5085 -27.5028 -27.4981 -27.4781 -27.4512 -27.4140
    -4.2737  -3.0856  -2.3974  -2.0034  -1.7246  -1.4106  -0.9605  -0.7599
    -0.4214  -0.3201  -0.2094   0.0395   0.0784   0.2283   0.2861   0.3198
     0.4125   0.4788   0.5534   0.6185   0.6478   0.7079   0.8015   0.8273
     0.8609   0.9275   0.9522   0.9925

          k =-0.0777 0.0448 0.0000 ( 23032 PWs)   bands (ev):

   -49.4220 -49.4181 -49.4149 -49.4044 -49.3944 -49.3935 -49.3919 -49.3320
   -48.9998 -48.9422 -48.9292 -48.9199 -28.1168 -28.0953 -28.0920 -28.0902
   -28.0870 -28.0821 -28.0766 -28.0705 -28.0598 -28.0577 -28.0485 -28.0281
   -28.0050 -27.9857 -27.9834 -27.9592 -27.9569 -27.9428 -27.9340 -27.8954
   -27.8538 -27.8517 -27.8407 -27.8053 -27.6674 -27.6271 -27.5865 -27.5753
   -27.5390 -27.5162 -27.5162 -27.5088 -27.5016 -27.4982 -27.4416 -27.4087
    -4.2676  -2.9249  -2.7838  -1.9526  -1.6346  -1.0057  -1.0050  -0.7504
    -0.5662  -0.4555  -0.4009   0.2416   0.2448   0.2619   0.2749   0.3232
     0.3621   0.5152   0.5585   0.5941   0.6116   0.6528   0.6743   0.7082
     0.8835   0.9453   0.9727   1.0224

          k =-0.0777 0.0747 0.0000 ( 23012 PWs)   bands (ev):

   -49.4223 -49.4208 -49.4091 -49.4034 -49.4004 -49.3942 -49.3888 -49.3319
   -48.9998 -48.9415 -48.9306 -48.9193 -28.1165 -28.0955 -28.0917 -28.0860
   -28.0816 -28.0775 -28.0738 -28.0681 -28.0629 -28.0530 -28.0435 -28.0321
   -28.0274 -28.0185 -27.9928 -27.9600 -27.9499 -27.9186 -27.9120 -27.8747
   -27.8732 -27.8499 -27.8475 -27.8116 -27.6621 -27.6248 -27.5990 -27.5753
   -27.5585 -27.5143 -27.5085 -27.5028 -27.4981 -27.4781 -27.4512 -27.4140
    -4.2737  -3.0856  -2.3974  -2.0034  -1.7246  -1.4106  -0.9605  -0.7599
    -0.4214  -0.3201  -0.2094   0.0395   0.0784   0.2283   0.2861   0.3198
     0.4125   0.4787   0.5534   0.6185   0.6478   0.7079   0.8015   0.8273
     0.8609   0.9275   0.9522   0.9925

          k =-0.0777 0.1046 0.0000 ( 23012 PWs)   bands (ev):

   -49.4223 -49.4208 -49.4091 -49.4034 -49.4004 -49.3942 -49.3888 -49.3319
   -48.9998 -48.9415 -48.9306 -48.9193 -28.1165 -28.0955 -28.0917 -28.0860
   -28.0817 -28.0775 -28.0738 -28.0681 -28.0629 -28.0530 -28.0435 -28.0321
   -28.0274 -28.0185 -27.9928 -27.9600 -27.9499 -27.9186 -27.9120 -27.8747
   -27.8732 -27.8499 -27.8475 -27.8116 -27.6621 -27.6248 -27.5990 -27.5753
   -27.5585 -27.5142 -27.5085 -27.5029 -27.4981 -27.4781 -27.4512 -27.4140
    -4.2737  -3.0856  -2.3974  -2.0034  -1.7246  -1.4106  -0.9605  -0.7599
    -0.4214  -0.3201  -0.2094   0.0395   0.0784   0.2283   0.2861   0.3198
     0.4124   0.4787   0.5534   0.6185   0.6478   0.7079   0.8015   0.8273
     0.8609   0.9275   0.9522   0.9925

          k =-0.0777-0.0448 0.0000 ( 23032 PWs)   bands (ev):

   -49.4220 -49.4181 -49.4148 -49.4044 -49.3944 -49.3935 -49.3918 -49.3320
   -48.9998 -48.9422 -48.9293 -48.9199 -28.1168 -28.0953 -28.0920 -28.0902
   -28.0870 -28.0821 -28.0766 -28.0705 -28.0599 -28.0576 -28.0485 -28.0281
   -28.0050 -27.9857 -27.9834 -27.9592 -27.9569 -27.9428 -27.9340 -27.8954
   -27.8538 -27.8517 -27.8407 -27.8053 -27.6674 -27.6270 -27.5864 -27.5753
   -27.5390 -27.5162 -27.5162 -27.5088 -27.5017 -27.4982 -27.4416 -27.4087
    -4.2676  -2.9249  -2.7838  -1.9526  -1.6346  -1.0057  -1.0050  -0.7504
    -0.5662  -0.4555  -0.4009   0.2416   0.2448   0.2619   0.2749   0.3232
     0.3621   0.5152   0.5585   0.5941   0.6117   0.6528   0.6743   0.7082
     0.8835   0.9453   0.9727   1.0224

     the Fermi energy is     0.5127 ev

!    total energy              =   -1138.88536522 Ry
     Harris-Foulkes estimate   =   -1138.88536524 Ry
     estimated scf accuracy    <       0.00000004 Ry

     The total energy is the sum of the following terms:

     one-electron contribution =   -7172.43890013 Ry
     hartree contribution      =    3568.71235445 Ry
     xc contribution           =    -167.15863490 Ry
     ewald contribution        =    2632.13548430 Ry
     electric field correction =       0.00000112 Ry
     smearing contrib. (-TS)   =      -0.13567005 Ry

     convergence has been achieved in  12 iterations
 
 BEEF-vdW xc energy contributions
           1 :   -141.677411441929     
           2 :    124.690217890775     
           3 :   -98.2164549228047     
           4 :    72.5261386083458     
           5 :   -54.8474098917752     
           6 :    46.4111821988413     
           7 :   -43.6881970461037     
           8 :    42.0729358207332     
           9 :   -39.0408610994079     
          10 :    34.8905102022661     
          11 :   -31.3004053863726     
          12 :    29.3584288211315     
          13 :   -28.6661741207940     
          14 :    27.9418973318369     
          15 :   -26.2987442969090     
          16 :    23.9783736574387     
          17 :   -21.9775211248738     
          18 :    21.0425984932508     
          19 :   -21.0047835692193     
          20 :    21.0067510244769     
          21 :   -20.3173863516954     
          22 :    18.9467008891588     
          23 :   -17.5446451622354     
          24 :    16.7538254497977     
          25 :   -16.6433280743645     
          26 :    16.7092371635288     
          27 :   -16.3807652818509     
          28 :    15.5320938696303     
          29 :   -14.5459949213048     
          30 :    13.9170742677034     
          31 :   -16.6993888786197     
          32 :   -11.9698504093422     

     Forces acting on atoms (Ry/au):


     negative rho (up, down):  9.256E-05 0.000E+00
     atom    1 type  1   force =    -0.00000891   -0.00000885    0.00138412
     atom    2 type  1   force =     0.00000854   -0.00142087    0.00163384
     atom    3 type  1   force =    -0.00122269    0.00071980    0.00163688
     atom    4 type  1   force =     0.00122306    0.00071024    0.00164464
     atom    5 type  1   force =     0.00129157   -0.00074227   -0.00081377
     atom    6 type  1   force =    -0.00129730   -0.00074534   -0.00081209
     atom    7 type  1   force =     0.00000107   -0.00000331    0.00192620
     atom    8 type  1   force =    -0.00000046    0.00148749   -0.00081834
     atom    9 type  1   force =     0.00043992    0.00026033   -0.00160495
     atom   10 type  1   force =    -0.00045382    0.00029036   -0.00160279
     atom   11 type  1   force =     0.00001922   -0.00054026   -0.00160666
     atom   12 type  1   force =    -0.00000192   -0.00000669   -0.00088686
     atom   13 type  2   force =     0.00000171   -0.00000062   -0.00008024

     Total force =     0.003060     Total SCF correction =     0.000215


     entering subroutine stress ...


     negative rho (up, down):  9.256E-05 0.000E+00
          total   stress  (Ry/bohr**3)                   (kbar)     P=    1.25
   0.00001929   0.00000001  -0.00000000          2.84      0.00     -0.00
   0.00000001   0.00001928  -0.00000000          0.00      2.84     -0.00
  -0.00000000  -0.00000000  -0.00001300         -0.00     -0.00     -1.91


     bfgs converged in  12 scf cycles and  11 bfgs steps
     (criteria: energy <  1.0E+00, force <  1.9E-03)

     End of BFGS Geometry Optimization

     Final energy   =   -1138.8853652190 Ry
Begin final coordinates

ATOMIC_POSITIONS (crystal)
Sc1      0.166666667   0.166666667   0.395942884    0   0   0
Sc1      0.666666667   0.166666667   0.395942884    0   0   0
Sc1      0.166666667   0.666666667   0.395942884    0   0   0
Sc1      0.666666667   0.666666667   0.395942884    0   0   0
Sc1      0.833333333   0.333333333   0.500000000    0   0   0
Sc1      0.333333333   0.333333333   0.500000000    0   0   0
Sc1      0.833333333   0.833333333   0.500000000    0   0   0
Sc1      0.333333333   0.833333333   0.500000000    0   0   0
Sc1      0.005618887   0.005605515   0.605628053
Sc1      0.488789216   0.005605946   0.605627519
Sc1      0.005612646   0.488789309   0.605628291
Sc1      0.500007510   0.500015879   0.599643402
H1       0.166670003   0.166670715   0.648941986
End final coordinates



     Writing output data file calc.save
 
     init_run     :     13.78s CPU     14.24s WALL (       1 calls)
     electrons    :   4149.12s CPU   4478.01s WALL (      12 calls)
     update_pot   :     34.06s CPU     36.43s WALL (      11 calls)
     forces       :    211.44s CPU    225.65s WALL (      12 calls)
     stress       :    671.29s CPU    715.10s WALL (      12 calls)

     Called by init_run:
     wfcinit      :      5.79s CPU      5.88s WALL (       1 calls)
     potinit      :      2.30s CPU      2.47s WALL (       1 calls)

     Called by electrons:
     c_bands      :   1608.41s CPU   1735.22s WALL (     147 calls)
     sum_band     :    800.43s CPU    869.16s WALL (     147 calls)
     v_of_rho     :    284.52s CPU    310.48s WALL (     156 calls)
     newd         :    730.64s CPU    742.15s WALL (     156 calls)
     mix_rho      :     10.51s CPU     10.82s WALL (     147 calls)
     vdW_energy   :    161.28s CPU    177.13s WALL (     588 calls)
     vdW_ffts     :    397.63s CPU    414.39s WALL (    1200 calls)
     vdW_v        :    160.39s CPU    164.76s WALL (     588 calls)

     Called by c_bands:
     init_us_2    :     10.09s CPU     10.19s WALL (    1595 calls)
     cegterg      :   1389.46s CPU   1431.26s WALL (     735 calls)

     Called by *egterg:
     h_psi        :    923.30s CPU    946.30s WALL (    4881 calls)
     s_psi        :     87.45s CPU     87.69s WALL (    4881 calls)
     g_psi        :      5.93s CPU      5.91s WALL (    4141 calls)
     cdiaghg      :    125.01s CPU    126.13s WALL (    4806 calls)

     Called by h_psi:
     add_vuspsi   :     89.25s CPU     89.55s WALL (    4881 calls)

     General routines
     calbec       :    132.12s CPU    135.10s WALL (    5736 calls)
     fft          :    622.18s CPU    670.21s WALL (   35555 calls)
     ffts         :      0.68s CPU      0.73s WALL (     303 calls)
     fftw         :    553.43s CPU    577.31s WALL (  363904 calls)
     interpolate  :      6.64s CPU      6.90s WALL (     303 calls)
     davcio       :      0.00s CPU      0.03s WALL (       5 calls)
 
     Parallel routines
     fft_scatter  :    712.55s CPU    781.71s WALL (  399762 calls)
 
     PWSCF        :     1h25m CPU        1h32m WALL

 
   This run was terminated on:  16:22:28   2May2018            

=------------------------------------------------------------------------------=
   JOB DONE.
=------------------------------------------------------------------------------=
Job  /afs/slac/g/suncat/bin/suncat-tsmpirun -x LD_LIBRARY_PATH -wdir /scratch/qe767653_TuT0n pw.x -npool 4 -in pw.inp

TID   HOST_NAME   COMMAND_LINE            STATUS            TERMINATION_TIME
===== ========== ================  =======================  ===================
00000 suncat0085 pw.x -npool 4 -i  Done                     05/02/2018 16:22:28
00001 suncat0085 pw.x -npool 4 -i  Done                     05/02/2018 16:22:28
00002 suncat0085 pw.x -npool 4 -i  Done                     05/02/2018 16:22:28
00003 suncat0085 pw.x -npool 4 -i  Done                     05/02/2018 16:22:28
00004 suncat0085 pw.x -npool 4 -i  Done                     05/02/2018 16:22:28
00005 suncat0085 pw.x -npool 4 -i  Done                     05/02/2018 16:22:28
00006 suncat0085 pw.x -npool 4 -i  Done                     05/02/2018 16:22:28
00007 suncat0085 pw.x -npool 4 -i  Done                     05/02/2018 16:22:28
00008 suncat0082 pw.x -npool 4 -i  Done                     05/02/2018 16:22:28
00009 suncat0082 pw.x -npool 4 -i  Done                     05/02/2018 16:22:28
00010 suncat0082 pw.x -npool 4 -i  Done                     05/02/2018 16:22:28
00011 suncat0082 pw.x -npool 4 -i  Done                     05/02/2018 16:22:28
00012 suncat0082 pw.x -npool 4 -i  Done                     05/02/2018 16:22:28
00013 suncat0082 pw.x -npool 4 -i  Done                     05/02/2018 16:22:28
00014 suncat0082 pw.x -npool 4 -i  Done                     05/02/2018 16:22:28
00015 suncat0082 pw.x -npool 4 -i  Done                     05/02/2018 16:22:28
00016 suncat0081 pw.x -npool 4 -i  Done                     05/02/2018 16:22:28
00017 suncat0081 pw.x -npool 4 -i  Done                     05/02/2018 16:22:28
00018 suncat0081 pw.x -npool 4 -i  Done                     05/02/2018 16:22:28
00019 suncat0081 pw.x -npool 4 -i  Done                     05/02/2018 16:22:28
00020 suncat0081 pw.x -npool 4 -i  Done                     05/02/2018 16:22:28
00021 suncat0081 pw.x -npool 4 -i  Done                     05/02/2018 16:22:28
00022 suncat0081 pw.x -npool 4 -i  Done                     05/02/2018 16:22:28
00023 suncat0081 pw.x -npool 4 -i  Done                     05/02/2018 16:22:28
00024 suncat0080 pw.x -npool 4 -i  Done                     05/02/2018 16:22:28
00025 suncat0080 pw.x -npool 4 -i  Done                     05/02/2018 16:22:28
00026 suncat0080 pw.x -npool 4 -i  Done                     05/02/2018 16:22:28
00027 suncat0080 pw.x -npool 4 -i  Done                     05/02/2018 16:22:28
00028 suncat0080 pw.x -npool 4 -i  Done                     05/02/2018 16:22:28
00029 suncat0080 pw.x -npool 4 -i  Done                     05/02/2018 16:22:28
00030 suncat0080 pw.x -npool 4 -i  Done                     05/02/2018 16:22:28
00031 suncat0080 pw.x -npool 4 -i  Done                     05/02/2018 16:22:28
