  python dir          : /home/mamunm/src/espresso
  espresso dir        : /home/vossj/suncat/esdld/espresso-dynpy-beef/bin
  pseudo dir          : /home/mamunm/src/pseudo/gbrv1.5pbe
  ase-espresso py git : GITVERSION



     Program PWSCF v.5.1rc2 (svn rev. ) starts on  4Feb2018 at 12:55:36 

     This program is part of the open-source Quantum ESPRESSO suite
     for quantum simulation of materials; please cite
         "P. Giannozzi et al., J. Phys.:Condens. Matter 21 395502 (2009);
          URL http://www.quantum-espresso.org", 
     in publications or presentations arising from this work. More details at
     http://www.quantum-espresso.org/quote

     Parallel version (MPI), running on    16 processors
     R & G space division:  proc/nbgrp/npool/nimage =      16
     Reading input from pw.inp
     Message from routine read_cards :
     DEPRECATED: no units specified in CELL_PARAMETERS card

     Current dimensions of program PWSCF are:
     Max number of different atomic species (ntypx) = 10
     Max number of k-points (npk) =  40000
     Max angular momentum in pseudopotentials (lmaxx) =  3
     Presently stress not available with electric field


     **************************************************************************
     Initializing libbeef V0.1.1 with the BEEF-vdW functional.
     Citation: Wellendorff et al., PRB 85, 235149 (2012).
     **************************************************************************


     IMPORTANT: XC functional enforced from input :
     Exchange-correlation      = BEEF-VDW ( 1  4 27 13 2)
     Any further DFT definition will be discarded
     Please, verify this is what you really want


     Subspace diagonalization in iterative solution of the eigenvalue problem:
     a serial algorithm will be used

 
     Parallelization info
     --------------------
     sticks:   dense  smooth     PW     G-vecs:    dense   smooth      PW
     Min         221      88     26                42669    10776    1670
     Max         222      89     27                42674    10821    1674
     Sum        3547    1417    421               682735   172803   26751
 


     bravais-lattice index     =            0
     lattice parameter (alat)  =       1.8897  a.u.
     unit-cell volume          =    5739.2980 (a.u.)^3
     number of atoms/cell      =           13
     number of atomic types    =            2
     number of electrons       =       145.00
     number of Kohn-Sham states=           82
     kinetic-energy cutoff     =      36.7493  Ry
     charge density cutoff     =     367.4932  Ry
     convergence threshold     =      1.0E-05
     mixing beta               =       0.3000
     number of iterations used =           10  plain     mixing
     Exchange-correlation      = BEEF-VDW ( 1  4 27 13 2)
     nstep                     =           50


     celldm(1)=   1.889726  celldm(2)=   0.000000  celldm(3)=   0.000000
     celldm(4)=   0.000000  celldm(5)=   0.000000  celldm(6)=   0.000000

     crystal axes: (cart. coord. in units of alat)
               a(1) = (   6.254208   0.000000   0.000000 )  
               a(2) = (   3.127104   5.416303   0.000000 )  
               a(3) = (   0.000000   0.000000  25.106540 )  

     reciprocal axes: (cart. coord. in units 2 pi/alat)
               b(1) = (  0.159892 -0.092314  0.000000 )  
               b(2) = (  0.000000  0.184628  0.000000 )  
               b(3) = (  0.000000  0.000000  0.039830 )  


     PseudoPot. # 1 for Cd read from file:
     /home/mamunm/src/pseudo/gbrv1.5pbe/Cd.UPF
     MD5 check sum: 17164a7926edb8e0dc231208abae86a6
     Pseudo is Ultrasoft + core correction, Zval = 12.0
     Generated by new atomic code, or converted to UPF format
     Using radial grid of  889 points,  6 beta functions with: 
                l(1) =   0
                l(2) =   0
                l(3) =   1
                l(4) =   1
                l(5) =   2
                l(6) =   2
     Q(r) pseudized with  6 coefficients,  rinner =    1.000   1.000   1.000
                                                       1.000   1.000

     PseudoPot. # 2 for H  read from file:
     /home/mamunm/src/pseudo/gbrv1.5pbe/H.UPF
     MD5 check sum: 761ae9a214b05c3daf00ab9f6b793d6f
     Pseudo is Ultrasoft, Zval =  1.0
     Generated by new atomic code, or converted to UPF format
     Using radial grid of  615 points,  2 beta functions with: 
                l(1) =   0
                l(2) =   0
     Q(r) pseudized with  8 coefficients,  rinner =    0.700

     vdW kernel table read from file vdW_kernel_table
     MD5 check sum: 095c7af220d748ca6e76c0b4c6cfb241

     atomic species   valence    mass     pseudopotential
        Cd1           12.00   112.41400     Cd( 1.00)
        H1             1.00     1.00800     H ( 1.00)

     No symmetry found



   Cartesian axes

     site n.     atom                  positions (alat units)
         1           Cd1 tau(   1) = (   1.5635521   0.9027172  10.0000000  )
         2           Cd1 tau(   2) = (   4.6906562   0.9027172  10.0000000  )
         3           Cd1 tau(   3) = (   3.1271041   3.6108688  10.0000000  )
         4           Cd1 tau(   4) = (   6.2542083   3.6108688  10.0000000  )
         5           Cd1 tau(   5) = (   6.2542083   1.8054344  12.5532698  )
         6           Cd1 tau(   6) = (   3.1271041   1.8054344  12.5532698  )
         7           Cd1 tau(   7) = (   7.8177603   4.5135860  12.5532698  )
         8           Cd1 tau(   8) = (   4.6906562   4.5135860  12.5532698  )
         9           Cd1 tau(   9) = (   0.0000000   0.0000000  15.1065397  )
        10           Cd1 tau(  10) = (   3.1271041   0.0000000  15.1065397  )
        11           Cd1 tau(  11) = (   1.5635521   2.7081516  15.1065397  )
        12           Cd1 tau(  12) = (   4.6906562   2.7081516  15.1065397  )
        13           H1  tau(  13) = (   3.1271041   1.8054344  16.2440397  )

     number of k points=    20  Fermi-Dirac smearing, width (Ry)=  0.0110
                       cart. coord. in units 2pi/alat
        k(    1) = (   0.0000000   0.0000000   0.0000000), wk =   0.0555556
        k(    2) = (   0.0000000   0.0307713   0.0000000), wk =   0.1111111
        k(    3) = (   0.0000000   0.0615426   0.0000000), wk =   0.1111111
        k(    4) = (   0.0000000  -0.0923139   0.0000000), wk =   0.0555556
        k(    5) = (   0.0266487  -0.0153856   0.0000000), wk =   0.1111111
        k(    6) = (   0.0266487   0.0153856   0.0000000), wk =   0.1111111
        k(    7) = (   0.0266487   0.0461569   0.0000000), wk =   0.1111111
        k(    8) = (   0.0266487  -0.1076995   0.0000000), wk =   0.1111111
        k(    9) = (   0.0266487  -0.0769282   0.0000000), wk =   0.1111111
        k(   10) = (   0.0266487  -0.0461569   0.0000000), wk =   0.1111111
        k(   11) = (   0.0532974  -0.0307713   0.0000000), wk =   0.1111111
        k(   12) = (   0.0532974   0.0000000   0.0000000), wk =   0.1111111
        k(   13) = (   0.0532974   0.0307713   0.0000000), wk =   0.1111111
        k(   14) = (   0.0532974  -0.1230852   0.0000000), wk =   0.1111111
        k(   15) = (   0.0532974  -0.0923139   0.0000000), wk =   0.1111111
        k(   16) = (   0.0532974  -0.0615426   0.0000000), wk =   0.1111111
        k(   17) = (  -0.0799462   0.0461569   0.0000000), wk =   0.0555556
        k(   18) = (  -0.0799462   0.0769282   0.0000000), wk =   0.1111111
        k(   19) = (  -0.0799462   0.1076995   0.0000000), wk =   0.1111111
        k(   20) = (  -0.0799462  -0.0461569   0.0000000), wk =   0.0555556

     Dense  grid:   682735 G-vectors     FFT dimensions: (  75,  75, 300)

     Smooth grid:   172803 G-vectors     FFT dimensions: (  45,  45, 192)

     Largest allocated arrays     est. size (Mb)     dimensions
        Kohn-Sham Wavefunctions         1.73 Mb     (    1379,   82)
        NL pseudopotentials             4.59 Mb     (    1379,  218)
        Each V/rho on FFT grid          1.63 Mb     (  106875)
        Each G-vector array             0.33 Mb     (   42674)
        G-vector shells                 0.13 Mb     (   17058)
     Largest temporary arrays     est. size (Mb)     dimensions
        Auxiliary wavefunctions         6.90 Mb     (    1379,  328)
        Each subspace H/S matrix        1.64 Mb     (     328,  328)
        Each <psi_i|beta_j> matrix      0.27 Mb     (     218,   82)
        Arrays for rho mixing          16.31 Mb     (  106875,   10)

     Initial potential from superposition of free atoms
     Check: negative starting charge=   -0.257921

     starting charge  138.99950, renormalised to  145.00000

     negative rho (up, down):  2.691E-01 0.000E+00


     ************************************************************************
     *
     * You are using vdW-DF for exchange-correlation in this calculation.
     * Please cite the following three references that made this development
     * possible:
     *
     *   M. Dion, H. Rydberg, E. Schroder, D. C. Langreth, and
     *   B. I. Lundqvist, Phys. Rev. Lett. 92, 246401 (2004).
     *
     *   T. Thonhauser, V. R. Cooper, S. Li, A. Puzder, P. Hyldgaard, and
     *   D. C. Langreth, Phys. Rev. B 76, 125112 (2007).
     *
     *   G. Roman-Perez and J. M. Soler, Phys. Rev. Lett. 103, 096102 (2009).
     *
     *
     * If you are using vdW-DF2, please also cite:
     *
     *   K. Lee, E. D. Murray, L. Kong, B. I. Lundqvist, and
     *   D. C. Langreth, Phys. Rev. B 82, 081101(R) (2010).
     *
     *
     * If you are calculating the stress with vdW-DF, please also cite:
     *
     *   R. Sabatini, E. Kucukbenli, B. Kolb, T. Thonhauser, and
     *   S. de Gironcoli, J. Phys.: Condens. Matter 24, 424209 (2012).
     *
     ************************************************************************

     Carrying out vdW-DF run using the following parameters:

     Nqs =      20    Nr_points =    1024   r_max =   100.000
     q_mesh =
               0.00001000     0.04494208     0.09755937     0.15916263
               0.23128650     0.31572767     0.41458969     0.53033537
               0.66584808     0.82450364     1.01025438     1.22772762
               1.48234092     1.78043706     2.12944203     2.53805004
               3.01644009     3.57652955     4.23227104     5.00000000

     Gradients computed in reciprocal space

     ************************************************************************


 
     Adding external electric field

     Computed dipole along edir(3) : 
        Dipole               -0.3010 Ry au,         -0.7651 Debye
        Dipole field         -0.0007 Ry au
 
        Potential amp.        0.0610 Ry
        Total length         46.2584 bohr
 
     Starting wfc are  109 randomized atomic wfcs

     total cpu time spent up to now is        7.5 secs

     Self-consistent Calculation

     iteration #  1     ecut=    36.75 Ry     beta=0.30
     Davidson diagonalization with overlap
     ethr =  1.00E-02,  avg # of iterations =  3.1

     negative rho (up, down):  2.619E-01 0.000E+00
 
     Adding external electric field

     Computed dipole along edir(3) : 
        Dipole                1.3630 Ry au,          3.4645 Debye
        Dipole field          0.0030 Ry au
 
        Potential amp.       -0.2761 Ry
        Total length         46.2584 bohr
 

     total cpu time spent up to now is       21.3 secs

     total energy              =   -1393.84211747 Ry
     Harris-Foulkes estimate   =   -1394.56076577 Ry
     estimated scf accuracy    <       1.61372987 Ry

     iteration #  2     ecut=    36.75 Ry     beta=0.30
     Davidson diagonalization with overlap
     ethr =  1.11E-03,  avg # of iterations =  4.7

     negative rho (up, down):  2.623E-01 0.000E+00
 
     Adding external electric field

     Computed dipole along edir(3) : 
        Dipole               -0.8121 Ry au,         -2.0641 Debye
        Dipole field         -0.0018 Ry au
 
        Potential amp.        0.1645 Ry
        Total length         46.2584 bohr
 

     total cpu time spent up to now is       39.4 secs

     total energy              =   -1393.49529076 Ry
     Harris-Foulkes estimate   =   -1394.54065011 Ry
     estimated scf accuracy    <       8.02246648 Ry

     iteration #  3     ecut=    36.75 Ry     beta=0.30
     Davidson diagonalization with overlap
     ethr =  1.11E-03,  avg # of iterations =  4.1

     negative rho (up, down):  2.620E-01 0.000E+00
 
     Adding external electric field

     Computed dipole along edir(3) : 
        Dipole               -0.0105 Ry au,         -0.0267 Debye
        Dipole field         -0.0000 Ry au
 
        Potential amp.        0.0021 Ry
        Total length         46.2584 bohr
 

     total cpu time spent up to now is       54.3 secs

     total energy              =   -1394.01259108 Ry
     Harris-Foulkes estimate   =   -1394.28536162 Ry
     estimated scf accuracy    <       2.45550359 Ry

     iteration #  4     ecut=    36.75 Ry     beta=0.30
     Davidson diagonalization with overlap
     ethr =  1.11E-03,  avg # of iterations =  2.5

     negative rho (up, down):  2.624E-01 0.000E+00
 
     Adding external electric field

     Computed dipole along edir(3) : 
        Dipole               -0.0275 Ry au,         -0.0699 Debye
        Dipole field         -0.0001 Ry au
 
        Potential amp.        0.0056 Ry
        Total length         46.2584 bohr
 

     total cpu time spent up to now is       68.0 secs

     total energy              =   -1394.13551287 Ry
     Harris-Foulkes estimate   =   -1394.16060724 Ry
     estimated scf accuracy    <       0.10836064 Ry

     iteration #  5     ecut=    36.75 Ry     beta=0.30
     Davidson diagonalization with overlap
     ethr =  7.47E-05,  avg # of iterations =  3.9

     negative rho (up, down):  2.642E-01 0.000E+00
 
     Adding external electric field

     Computed dipole along edir(3) : 
        Dipole               -0.0078 Ry au,         -0.0199 Debye
        Dipole field         -0.0000 Ry au
 
        Potential amp.        0.0016 Ry
        Total length         46.2584 bohr
 

     total cpu time spent up to now is       82.7 secs

     total energy              =   -1394.15095591 Ry
     Harris-Foulkes estimate   =   -1394.14878788 Ry
     estimated scf accuracy    <       0.00916400 Ry

     iteration #  6     ecut=    36.75 Ry     beta=0.30
     Davidson diagonalization with overlap
     ethr =  6.32E-06,  avg # of iterations =  4.1

     negative rho (up, down):  2.658E-01 0.000E+00
 
     Adding external electric field

     Computed dipole along edir(3) : 
        Dipole               -0.0127 Ry au,         -0.0324 Debye
        Dipole field         -0.0000 Ry au
 
        Potential amp.        0.0026 Ry
        Total length         46.2584 bohr
 

     total cpu time spent up to now is       98.2 secs

     total energy              =   -1394.15299134 Ry
     Harris-Foulkes estimate   =   -1394.15243477 Ry
     estimated scf accuracy    <       0.00169759 Ry

     iteration #  7     ecut=    36.75 Ry     beta=0.30
     Davidson diagonalization with overlap
     ethr =  1.17E-06,  avg # of iterations =  4.0

     negative rho (up, down):  2.663E-01 0.000E+00
 
     Adding external electric field

     Computed dipole along edir(3) : 
        Dipole               -0.0172 Ry au,         -0.0437 Debye
        Dipole field         -0.0000 Ry au
 
        Potential amp.        0.0035 Ry
        Total length         46.2584 bohr
 

     total cpu time spent up to now is      113.1 secs

     total energy              =   -1394.15329007 Ry
     Harris-Foulkes estimate   =   -1394.15322729 Ry
     estimated scf accuracy    <       0.00013443 Ry

     iteration #  8     ecut=    36.75 Ry     beta=0.30
     Davidson diagonalization with overlap
     ethr =  9.27E-08,  avg # of iterations =  3.9

     negative rho (up, down):  2.664E-01 0.000E+00
 
     Adding external electric field

     Computed dipole along edir(3) : 
        Dipole               -0.0155 Ry au,         -0.0395 Debye
        Dipole field         -0.0000 Ry au
 
        Potential amp.        0.0031 Ry
        Total length         46.2584 bohr
 

     total cpu time spent up to now is      133.8 secs

     total energy              =   -1394.15335349 Ry
     Harris-Foulkes estimate   =   -1394.15335441 Ry
     estimated scf accuracy    <       0.00003106 Ry

     iteration #  9     ecut=    36.75 Ry     beta=0.30
     Davidson diagonalization with overlap
     ethr =  2.14E-08,  avg # of iterations =  2.0

     negative rho (up, down):  2.665E-01 0.000E+00

     negative rho (up, down):  2.665E-01 0.000E+00

     negative rho (up, down):  2.665E-01 0.000E+00

     negative rho (up, down):  2.665E-01 0.000E+00

     negative rho (up, down):  2.665E-01 0.000E+00

     negative rho (up, down):  2.665E-01 0.000E+00

     negative rho (up, down):  2.665E-01 0.000E+00

     negative rho (up, down):  2.665E-01 0.000E+00

     negative rho (up, down):  2.665E-01 0.000E+00

     negative rho (up, down):  2.665E-01 0.000E+00

     negative rho (up, down):  2.665E-01 0.000E+00

     negative rho (up, down):  2.665E-01 0.000E+00

     negative rho (up, down):  2.665E-01 0.000E+00

     negative rho (up, down):  2.665E-01 0.000E+00

     negative rho (up, down):  2.665E-01 0.000E+00

     negative rho (up, down):  2.665E-01 0.000E+00

     negative rho (up, down):  2.665E-01 0.000E+00

     negative rho (up, down):  2.665E-01 0.000E+00

     negative rho (up, down):  2.665E-01 0.000E+00

     negative rho (up, down):  2.665E-01 0.000E+00

     negative rho (up, down):  2.665E-01 0.000E+00

     negative rho (up, down):  2.665E-01 0.000E+00

     negative rho (up, down):  2.665E-01 0.000E+00

     negative rho (up, down):  2.665E-01 0.000E+00

     negative rho (up, down):  2.665E-01 0.000E+00

     negative rho (up, down):  2.665E-01 0.000E+00

     negative rho (up, down):  2.665E-01 0.000E+00

     negative rho (up, down):  2.665E-01 0.000E+00

     negative rho (up, down):  2.665E-01 0.000E+00

     negative rho (up, down):  2.665E-01 0.000E+00

     negative rho (up, down):  2.665E-01 0.000E+00

     negative rho (up, down):  2.665E-01 0.000E+00

     negative rho (up, down):  2.665E-01 0.000E+00

     negative rho (up, down):  2.665E-01 0.000E+00

     negative rho (up, down):  2.665E-01 0.000E+00
 
     Adding external electric field

     Computed dipole along edir(3) : 
        Dipole               -0.0095 Ry au,         -0.0240 Debye
        Dipole field         -0.0000 Ry au
 
        Potential amp.        0.0019 Ry
        Total length         46.2584 bohr
 

     total cpu time spent up to now is      168.3 secs

     End of self-consistent calculation

          k = 0.0000 0.0000 0.0000 ( 21643 PWs)   bands (ev):

    -9.3997  -9.3533  -9.3533  -9.3108  -9.2188  -9.2188  -9.2159  -9.1769
    -9.1412  -9.1412  -9.0680  -9.0488  -9.0488  -8.9620  -8.8844  -8.8208
    -8.8208  -8.8113  -8.8113  -8.8045  -8.7422  -8.7401  -8.7401  -8.7169
    -8.7169  -8.7008  -8.6875  -8.6875  -8.5844  -8.5844  -8.3678  -8.3678
    -8.3089  -8.3030  -8.3030  -8.2617  -8.2617  -8.2597  -8.1944  -8.1944
    -8.1667  -8.1571  -8.1571  -8.0853  -8.0754  -8.0754  -8.0325  -8.0325
    -8.0235  -8.0111  -8.0111  -7.9828  -7.9826  -7.9826  -7.9425  -7.9186
    -7.9186  -7.8070  -7.8070  -7.8021  -7.7432  -6.1697  -3.9966  -2.3434
    -1.6801  -1.6801  -1.6613  -1.3886  -1.3886  -1.1050  -0.5409  -0.4514
    -0.4514   0.3792   0.3792   0.4382   1.2110   1.9015   1.9015   1.9970
     2.4153   2.4153

          k = 0.0000 0.0308 0.0000 ( 21640 PWs)   bands (ev):

    -9.3524  -9.3123  -9.2970  -9.2720  -9.1899  -9.1863  -9.1732  -9.1344
    -9.1028  -9.0913  -9.0360  -9.0106  -8.9970  -8.9340  -8.8656  -8.8186
    -8.8043  -8.7987  -8.7745  -8.7687  -8.7638  -8.7547  -8.7272  -8.7108
    -8.6847  -8.6787  -8.6725  -8.6657  -8.6008  -8.5460  -8.4118  -8.3709
    -8.3293  -8.3256  -8.3043  -8.3040  -8.3004  -8.2942  -8.2534  -8.1965
    -8.1918  -8.1780  -8.1765  -8.1151  -8.1067  -8.1022  -8.0992  -8.0552
    -8.0486  -8.0435  -8.0309  -8.0280  -8.0113  -8.0110  -7.9801  -7.9676
    -7.9598  -7.8617  -7.8590  -7.8553  -7.5625  -6.0126  -3.9969  -3.3455
    -2.5520  -2.3691  -2.1234  -1.4975  -0.9168  -0.6630  -0.3713  -0.3632
     0.1041   0.7643   0.8922   1.0795   1.2857   1.4606   2.0291   2.3666
     2.9228   3.2095

          k = 0.0000 0.0615 0.0000 ( 21582 PWs)   bands (ev):

    -9.2625  -9.1850  -9.1715  -9.1659  -9.1052  -9.0964  -9.0915  -9.0327
    -9.0105  -8.9999  -8.9740  -8.9305  -8.9149  -8.8847  -8.8494  -8.8047
    -8.8008  -8.7819  -8.7619  -8.7334  -8.7070  -8.6928  -8.6583  -8.6501
    -8.6328  -8.6191  -8.6171  -8.6033  -8.5961  -8.4930  -8.4581  -8.4527
    -8.4493  -8.4107  -8.3672  -8.3646  -8.3356  -8.3257  -8.3220  -8.2545
    -8.2492  -8.2396  -8.2341  -8.2151  -8.2134  -8.2052  -8.1922  -8.1560
    -8.1532  -8.1458  -8.1308  -8.1178  -8.1136  -8.0463  -8.0308  -8.0118
    -7.9999  -7.9816  -7.9186  -7.9157  -7.0638  -5.5961  -4.9865  -3.8917
    -3.1048  -2.8443  -2.7926  -1.8549  -1.3395  -1.0983  -0.2841   0.5525
     0.8418   1.1410   1.1589   1.8278   2.4306   2.5521   2.8848   3.1790
     3.4913   4.0004

          k = 0.0000-0.0923 0.0000 ( 21576 PWs)   bands (ev):

    -9.1712  -9.1593  -9.1070  -9.0858  -9.0520  -9.0207  -9.0202  -8.9752
    -8.9702  -8.9607  -8.9162  -8.9111  -8.8981  -8.8712  -8.8506  -8.8306
    -8.7767  -8.7308  -8.7191  -8.6935  -8.6877  -8.6606  -8.6227  -8.6143
    -8.5937  -8.5750  -8.5697  -8.5641  -8.5321  -8.5294  -8.4796  -8.4728
    -8.4643  -8.4490  -8.4095  -8.4042  -8.3634  -8.3557  -8.3381  -8.3309
    -8.3230  -8.2920  -8.2918  -8.2888  -8.2737  -8.2655  -8.2590  -8.2523
    -8.2389  -8.2260  -8.1738  -8.1680  -8.1471  -8.1433  -8.0317  -8.0252
    -8.0123  -8.0033  -7.9259  -7.9238  -6.3198  -6.1393  -5.0057  -4.4790
    -3.2908  -2.9987  -2.6991  -1.9910  -1.6090  -1.4828  -0.1414   0.7446
     0.9218   1.1013   2.4157   2.6168   2.8304   2.9360   3.1838   3.6870
     3.7874   3.9158

          k = 0.0266-0.0154 0.0000 ( 21640 PWs)   bands (ev):

    -9.3524  -9.3123  -9.2970  -9.2720  -9.1899  -9.1863  -9.1732  -9.1344
    -9.1028  -9.0913  -9.0360  -9.0106  -8.9970  -8.9340  -8.8656  -8.8186
    -8.8043  -8.7987  -8.7745  -8.7687  -8.7638  -8.7547  -8.7272  -8.7108
    -8.6847  -8.6787  -8.6725  -8.6657  -8.6008  -8.5460  -8.4118  -8.3709
    -8.3293  -8.3256  -8.3043  -8.3040  -8.3004  -8.2942  -8.2534  -8.1965
    -8.1918  -8.1780  -8.1765  -8.1151  -8.1067  -8.1022  -8.0992  -8.0552
    -8.0486  -8.0435  -8.0309  -8.0280  -8.0113  -8.0110  -7.9801  -7.9676
    -7.9598  -7.8617  -7.8590  -7.8553  -7.5625  -6.0126  -3.9969  -3.3455
    -2.5520  -2.3691  -2.1234  -1.4975  -0.9168  -0.6630  -0.3713  -0.3632
     0.1041   0.7643   0.8922   1.0795   1.2857   1.4606   2.0291   2.3666
     2.9228   3.2095

          k = 0.0266 0.0154 0.0000 ( 21640 PWs)   bands (ev):

    -9.3524  -9.3123  -9.2970  -9.2720  -9.1899  -9.1863  -9.1732  -9.1344
    -9.1028  -9.0913  -9.0360  -9.0106  -8.9970  -8.9340  -8.8656  -8.8186
    -8.8043  -8.7987  -8.7745  -8.7687  -8.7638  -8.7547  -8.7272  -8.7108
    -8.6847  -8.6787  -8.6725  -8.6657  -8.6008  -8.5460  -8.4118  -8.3709
    -8.3293  -8.3256  -8.3043  -8.3040  -8.3004  -8.2942  -8.2534  -8.1965
    -8.1918  -8.1780  -8.1765  -8.1151  -8.1067  -8.1022  -8.0992  -8.0552
    -8.0486  -8.0435  -8.0309  -8.0280  -8.0113  -8.0110  -7.9801  -7.9676
    -7.9598  -7.8617  -7.8590  -7.8553  -7.5625  -6.0126  -3.9969  -3.3455
    -2.5520  -2.3691  -2.1234  -1.4975  -0.9168  -0.6630  -0.3713  -0.3632
     0.1041   0.7643   0.8922   1.0795   1.2857   1.4606   2.0291   2.3666
     2.9228   3.2095

          k = 0.0266 0.0462 0.0000 ( 21609 PWs)   bands (ev):

    -9.2686  -9.2466  -9.2081  -9.1910  -9.1243  -9.1225  -9.1050  -9.0599
    -9.0417  -9.0102  -8.9850  -8.9459  -8.9329  -8.9170  -8.8368  -8.8172
    -8.7961  -8.7853  -8.7809  -8.7337  -8.7136  -8.7013  -8.6958  -8.6901
    -8.6493  -8.6367  -8.6327  -8.6261  -8.6086  -8.4966  -8.4587  -8.4076
    -8.3995  -8.3952  -8.3892  -8.3640  -8.3244  -8.3179  -8.2821  -8.2453
    -8.2378  -8.2353  -8.2236  -8.1861  -8.1703  -8.1626  -8.1552  -8.1157
    -8.1109  -8.0947  -8.0919  -8.0857  -8.0748  -8.0422  -8.0177  -8.0137
    -7.9997  -7.9546  -7.9222  -7.9210  -7.2261  -5.7181  -4.3298  -4.0590
    -3.5413  -2.6587  -2.5042  -1.3753  -1.0833  -0.8006  -0.2107  -0.0958
     0.1382   0.7889   1.6445   1.9040   2.0835   2.4060   2.8634   2.9284
     3.0471   3.3450

          k = 0.0266-0.1077 0.0000 ( 21571 PWs)   bands (ev):

    -9.1670  -9.1186  -9.1065  -9.0900  -9.0570  -9.0252  -9.0006  -8.9910
    -8.9642  -8.9570  -8.9450  -8.9163  -8.9044  -8.8753  -8.8425  -8.7721
    -8.7639  -8.7424  -8.7210  -8.6834  -8.6681  -8.6495  -8.6457  -8.6392
    -8.6173  -8.6052  -8.5924  -8.5636  -8.5517  -8.5472  -8.5165  -8.5081
    -8.4952  -8.4282  -8.4191  -8.4024  -8.3948  -8.3535  -8.3498  -8.3399
    -8.3310  -8.2897  -8.2823  -8.2784  -8.2608  -8.2393  -8.2255  -8.2090
    -8.2023  -8.1834  -8.1664  -8.1367  -8.1251  -8.0790  -8.0561  -8.0461
    -8.0246  -8.0189  -7.9816  -7.9473  -6.5603  -5.5801  -5.0886  -4.4486
    -4.0518  -3.1692  -2.5559  -1.7267  -1.3317  -0.7908  -0.0758   0.3823
     0.6498   1.3816   1.9311   2.1721   2.4903   2.6995   3.2834   3.5440
     3.7772   4.0570

          k = 0.0266-0.0769 0.0000 ( 21571 PWs)   bands (ev):

    -9.1670  -9.1186  -9.1065  -9.0900  -9.0570  -9.0252  -9.0006  -8.9910
    -8.9642  -8.9570  -8.9450  -8.9163  -8.9044  -8.8753  -8.8425  -8.7721
    -8.7639  -8.7424  -8.7210  -8.6834  -8.6681  -8.6495  -8.6457  -8.6392
    -8.6173  -8.6052  -8.5924  -8.5636  -8.5517  -8.5473  -8.5165  -8.5081
    -8.4952  -8.4282  -8.4191  -8.4024  -8.3948  -8.3535  -8.3498  -8.3399
    -8.3310  -8.2897  -8.2823  -8.2784  -8.2608  -8.2393  -8.2255  -8.2090
    -8.2023  -8.1834  -8.1664  -8.1367  -8.1251  -8.0790  -8.0561  -8.0461
    -8.0246  -8.0189  -7.9816  -7.9473  -6.5603  -5.5801  -5.0886  -4.4486
    -4.0518  -3.1692  -2.5559  -1.7267  -1.3317  -0.7908  -0.0758   0.3823
     0.6498   1.3816   1.9311   2.1721   2.4903   2.6995   3.2834   3.5440
     3.7772   4.0570

          k = 0.0266-0.0462 0.0000 ( 21609 PWs)   bands (ev):

    -9.2686  -9.2466  -9.2081  -9.1910  -9.1243  -9.1225  -9.1050  -9.0599
    -9.0417  -9.0102  -8.9850  -8.9459  -8.9329  -8.9170  -8.8368  -8.8172
    -8.7961  -8.7853  -8.7809  -8.7337  -8.7136  -8.7013  -8.6958  -8.6901
    -8.6493  -8.6367  -8.6327  -8.6261  -8.6086  -8.4966  -8.4587  -8.4076
    -8.3995  -8.3952  -8.3892  -8.3640  -8.3244  -8.3179  -8.2821  -8.2453
    -8.2378  -8.2353  -8.2236  -8.1861  -8.1703  -8.1626  -8.1552  -8.1157
    -8.1109  -8.0947  -8.0919  -8.0857  -8.0748  -8.0422  -8.0177  -8.0137
    -7.9997  -7.9546  -7.9222  -7.9210  -7.2261  -5.7181  -4.3298  -4.0590
    -3.5413  -2.6587  -2.5042  -1.3753  -1.0833  -0.8006  -0.2107  -0.0958
     0.1382   0.7889   1.6445   1.9040   2.0835   2.4060   2.8634   2.9284
     3.0471   3.3450

          k = 0.0533-0.0308 0.0000 ( 21582 PWs)   bands (ev):

    -9.2625  -9.1850  -9.1715  -9.1659  -9.1052  -9.0964  -9.0915  -9.0327
    -9.0105  -8.9999  -8.9740  -8.9305  -8.9149  -8.8847  -8.8494  -8.8047
    -8.8008  -8.7819  -8.7619  -8.7334  -8.7070  -8.6928  -8.6583  -8.6501
    -8.6328  -8.6191  -8.6171  -8.6033  -8.5961  -8.4930  -8.4581  -8.4527
    -8.4493  -8.4106  -8.3672  -8.3646  -8.3356  -8.3257  -8.3220  -8.2545
    -8.2492  -8.2396  -8.2341  -8.2151  -8.2134  -8.2052  -8.1922  -8.1560
    -8.1532  -8.1458  -8.1308  -8.1178  -8.1136  -8.0463  -8.0308  -8.0118
    -7.9999  -7.9816  -7.9186  -7.9157  -7.0638  -5.5961  -4.9865  -3.8917
    -3.1048  -2.8443  -2.7926  -1.8549  -1.3395  -1.0983  -0.2841   0.5525
     0.8418   1.1410   1.1589   1.8278   2.4306   2.5521   2.8848   3.1790
     3.4913   4.0004

          k = 0.0533 0.0000 0.0000 ( 21609 PWs)   bands (ev):

    -9.2686  -9.2466  -9.2081  -9.1910  -9.1243  -9.1225  -9.1050  -9.0599
    -9.0417  -9.0102  -8.9850  -8.9459  -8.9329  -8.9170  -8.8368  -8.8172
    -8.7961  -8.7853  -8.7809  -8.7337  -8.7136  -8.7013  -8.6958  -8.6901
    -8.6493  -8.6367  -8.6327  -8.6261  -8.6086  -8.4966  -8.4587  -8.4076
    -8.3995  -8.3952  -8.3892  -8.3640  -8.3244  -8.3179  -8.2821  -8.2453
    -8.2378  -8.2353  -8.2236  -8.1861  -8.1703  -8.1626  -8.1552  -8.1157
    -8.1109  -8.0947  -8.0919  -8.0857  -8.0748  -8.0422  -8.0177  -8.0137
    -7.9997  -7.9546  -7.9222  -7.9210  -7.2261  -5.7181  -4.3298  -4.0590
    -3.5413  -2.6587  -2.5042  -1.3753  -1.0833  -0.8006  -0.2107  -0.0958
     0.1382   0.7889   1.6445   1.9040   2.0835   2.4060   2.8634   2.9284
     3.0471   3.3450

          k = 0.0533 0.0308 0.0000 ( 21582 PWs)   bands (ev):

    -9.2625  -9.1850  -9.1715  -9.1659  -9.1052  -9.0964  -9.0915  -9.0327
    -9.0105  -8.9999  -8.9740  -8.9305  -8.9149  -8.8847  -8.8494  -8.8047
    -8.8008  -8.7819  -8.7619  -8.7334  -8.7070  -8.6928  -8.6583  -8.6501
    -8.6328  -8.6191  -8.6171  -8.6033  -8.5961  -8.4930  -8.4581  -8.4527
    -8.4493  -8.4106  -8.3672  -8.3646  -8.3356  -8.3257  -8.3220  -8.2545
    -8.2492  -8.2396  -8.2341  -8.2151  -8.2134  -8.2052  -8.1922  -8.1560
    -8.1532  -8.1458  -8.1308  -8.1178  -8.1136  -8.0463  -8.0308  -8.0118
    -7.9999  -7.9816  -7.9186  -7.9157  -7.0638  -5.5961  -4.9865  -3.8917
    -3.1048  -2.8443  -2.7926  -1.8549  -1.3395  -1.0983  -0.2841   0.5525
     0.8418   1.1410   1.1589   1.8278   2.4306   2.5521   2.8848   3.1790
     3.4913   4.0004

          k = 0.0533-0.1231 0.0000 ( 21571 PWs)   bands (ev):

    -9.1670  -9.1186  -9.1065  -9.0900  -9.0570  -9.0252  -9.0006  -8.9910
    -8.9642  -8.9570  -8.9450  -8.9163  -8.9044  -8.8753  -8.8425  -8.7721
    -8.7639  -8.7424  -8.7210  -8.6834  -8.6681  -8.6495  -8.6457  -8.6392
    -8.6173  -8.6052  -8.5924  -8.5636  -8.5517  -8.5473  -8.5165  -8.5081
    -8.4952  -8.4282  -8.4191  -8.4024  -8.3948  -8.3535  -8.3498  -8.3399
    -8.3310  -8.2897  -8.2823  -8.2784  -8.2608  -8.2393  -8.2255  -8.2090
    -8.2023  -8.1834  -8.1664  -8.1367  -8.1251  -8.0790  -8.0561  -8.0461
    -8.0246  -8.0189  -7.9816  -7.9473  -6.5603  -5.5801  -5.0886  -4.4486
    -4.0518  -3.1692  -2.5559  -1.7267  -1.3317  -0.7908  -0.0758   0.3823
     0.6498   1.3816   1.9311   2.1721   2.4903   2.6995   3.2834   3.5440
     3.7772   4.0570

          k = 0.0533-0.0923 0.0000 ( 21606 PWs)   bands (ev):

    -9.0476  -9.0464  -9.0311  -9.0276  -9.0268  -9.0239  -9.0046  -9.0044
    -8.9716  -8.9655  -8.9421  -8.9390  -8.8730  -8.7639  -8.7502  -8.7426
    -8.7406  -8.7257  -8.7212  -8.7143  -8.6832  -8.6564  -8.6559  -8.6249
    -8.5980  -8.5914  -8.5904  -8.5617  -8.5452  -8.5427  -8.5348  -8.4993
    -8.4973  -8.4950  -8.4894  -8.4689  -8.4639  -8.4639  -8.3845  -8.3812
    -8.3589  -8.2940  -8.2754  -8.2629  -8.2555  -8.2513  -8.2429  -8.2356
    -8.1908  -8.1832  -8.1744  -8.1245  -8.0883  -8.0874  -8.0807  -8.0621
    -8.0533  -8.0364  -8.0332  -8.0313  -5.8952  -5.5987  -5.5886  -4.6408
    -3.9779  -3.9670  -2.4760  -1.5453  -1.5423   0.0241   0.4402   0.4810
     0.5804   1.6159   1.6279   1.7361   2.1402   2.1590   3.3239   3.8731
     3.9001   4.3182

          k = 0.0533-0.0615 0.0000 ( 21571 PWs)   bands (ev):

    -9.1670  -9.1186  -9.1065  -9.0900  -9.0570  -9.0252  -9.0006  -8.9910
    -8.9642  -8.9570  -8.9450  -8.9163  -8.9044  -8.8753  -8.8425  -8.7721
    -8.7639  -8.7424  -8.7210  -8.6834  -8.6681  -8.6495  -8.6457  -8.6392
    -8.6173  -8.6052  -8.5924  -8.5636  -8.5517  -8.5473  -8.5165  -8.5081
    -8.4952  -8.4282  -8.4191  -8.4024  -8.3948  -8.3535  -8.3498  -8.3399
    -8.3310  -8.2897  -8.2823  -8.2784  -8.2608  -8.2393  -8.2255  -8.2090
    -8.2023  -8.1834  -8.1664  -8.1367  -8.1251  -8.0790  -8.0561  -8.0461
    -8.0246  -8.0189  -7.9816  -7.9473  -6.5603  -5.5801  -5.0886  -4.4486
    -4.0518  -3.1692  -2.5559  -1.7267  -1.3317  -0.7908  -0.0758   0.3823
     0.6498   1.3816   1.9311   2.1721   2.4903   2.6995   3.2834   3.5440
     3.7772   4.0570

          k =-0.0799 0.0462 0.0000 ( 21576 PWs)   bands (ev):

    -9.1712  -9.1593  -9.1070  -9.0858  -9.0520  -9.0207  -9.0202  -8.9752
    -8.9702  -8.9607  -8.9162  -8.9111  -8.8981  -8.8712  -8.8506  -8.8306
    -8.7767  -8.7308  -8.7191  -8.6935  -8.6877  -8.6606  -8.6227  -8.6143
    -8.5937  -8.5750  -8.5697  -8.5641  -8.5321  -8.5294  -8.4796  -8.4728
    -8.4643  -8.4490  -8.4095  -8.4041  -8.3634  -8.3557  -8.3381  -8.3309
    -8.3230  -8.2920  -8.2918  -8.2888  -8.2737  -8.2655  -8.2590  -8.2523
    -8.2389  -8.2260  -8.1738  -8.1680  -8.1471  -8.1433  -8.0317  -8.0252
    -8.0123  -8.0033  -7.9259  -7.9238  -6.3198  -6.1393  -5.0057  -4.4790
    -3.2908  -2.9987  -2.6991  -1.9910  -1.6090  -1.4828  -0.1414   0.7446
     0.9218   1.1013   2.4157   2.6168   2.8304   2.9360   3.1838   3.6870
     3.7874   3.9158

          k =-0.0799 0.0769 0.0000 ( 21571 PWs)   bands (ev):

    -9.1670  -9.1186  -9.1065  -9.0900  -9.0570  -9.0252  -9.0006  -8.9910
    -8.9642  -8.9570  -8.9450  -8.9163  -8.9044  -8.8753  -8.8425  -8.7721
    -8.7639  -8.7424  -8.7210  -8.6834  -8.6681  -8.6495  -8.6457  -8.6392
    -8.6173  -8.6052  -8.5924  -8.5636  -8.5517  -8.5473  -8.5165  -8.5081
    -8.4952  -8.4282  -8.4191  -8.4024  -8.3948  -8.3535  -8.3498  -8.3399
    -8.3310  -8.2897  -8.2823  -8.2784  -8.2608  -8.2393  -8.2255  -8.2090
    -8.2023  -8.1834  -8.1664  -8.1367  -8.1251  -8.0790  -8.0561  -8.0461
    -8.0246  -8.0189  -7.9816  -7.9473  -6.5603  -5.5801  -5.0886  -4.4486
    -4.0518  -3.1692  -2.5559  -1.7267  -1.3317  -0.7908  -0.0758   0.3823
     0.6498   1.3816   1.9311   2.1721   2.4903   2.6995   3.2834   3.5440
     3.7772   4.0570

          k =-0.0799 0.1077 0.0000 ( 21571 PWs)   bands (ev):

    -9.1670  -9.1186  -9.1065  -9.0900  -9.0570  -9.0252  -9.0006  -8.9910
    -8.9642  -8.9570  -8.9450  -8.9163  -8.9044  -8.8753  -8.8425  -8.7721
    -8.7639  -8.7424  -8.7210  -8.6834  -8.6681  -8.6495  -8.6457  -8.6392
    -8.6173  -8.6052  -8.5924  -8.5636  -8.5517  -8.5473  -8.5165  -8.5081
    -8.4952  -8.4282  -8.4191  -8.4024  -8.3948  -8.3535  -8.3498  -8.3399
    -8.3310  -8.2897  -8.2823  -8.2784  -8.2608  -8.2393  -8.2255  -8.2090
    -8.2023  -8.1834  -8.1664  -8.1367  -8.1251  -8.0790  -8.0561  -8.0461
    -8.0246  -8.0189  -7.9816  -7.9473  -6.5603  -5.5801  -5.0886  -4.4486
    -4.0518  -3.1692  -2.5559  -1.7267  -1.3317  -0.7908  -0.0758   0.3823
     0.6498   1.3816   1.9311   2.1721   2.4903   2.6995   3.2834   3.5440
     3.7772   4.0570

          k =-0.0799-0.0462 0.0000 ( 21576 PWs)   bands (ev):

    -9.1712  -9.1593  -9.1070  -9.0858  -9.0520  -9.0207  -9.0201  -8.9752
    -8.9702  -8.9607  -8.9162  -8.9111  -8.8981  -8.8712  -8.8506  -8.8306
    -8.7767  -8.7308  -8.7191  -8.6935  -8.6877  -8.6606  -8.6227  -8.6143
    -8.5937  -8.5750  -8.5697  -8.5641  -8.5321  -8.5294  -8.4796  -8.4728
    -8.4643  -8.4489  -8.4095  -8.4042  -8.3634  -8.3557  -8.3381  -8.3309
    -8.3230  -8.2920  -8.2918  -8.2888  -8.2737  -8.2655  -8.2590  -8.2523
    -8.2389  -8.2260  -8.1738  -8.1680  -8.1471  -8.1433  -8.0317  -8.0252
    -8.0123  -8.0033  -7.9259  -7.9238  -6.3198  -6.1393  -5.0057  -4.4790
    -3.2908  -2.9987  -2.6991  -1.9910  -1.6090  -1.4828  -0.1414   0.7446
     0.9218   1.1013   2.4157   2.6168   2.8304   2.9360   3.1838   3.6870
     3.7874   3.9158

     the Fermi energy is     0.5973 ev

!    total energy              =   -1394.15335601 Ry
     Harris-Foulkes estimate   =   -1394.15335747 Ry
     estimated scf accuracy    <       0.00000708 Ry

     The total energy is the sum of the following terms:

     one-electron contribution =   -8793.33591212 Ry
     hartree contribution      =    4489.34184238 Ry
     xc contribution           =    -490.41696324 Ry
     ewald contribution        =    3400.28548620 Ry
     electric field correction =       0.00000020 Ry
     smearing contrib. (-TS)   =      -0.02780943 Ry

     convergence has been achieved in   9 iterations
 
 BEEF-vdW xc energy contributions
           1 :   -429.772244049205     
           2 :    393.227850705294     
           3 :   -331.527855215323     
           4 :    262.179374492727     
           5 :   -201.387357158645     
           6 :    158.243702087996     
           7 :   -132.970724047524     
           8 :    119.404990206752     
           9 :   -109.770905958251     
          10 :    98.9383636996212     
          11 :   -86.1185689286021     
          12 :    73.7067106592640     
          13 :   -64.6099434687887     
          14 :    59.9769368376416     
          15 :   -58.5995438017078     
          16 :    57.9840545868992     
          17 :   -56.0683843211799     
          18 :    52.3680225323518     
          19 :   -47.9300496408459     
          20 :    44.3383651300663     
          21 :   -42.5650363320531     
          22 :    42.4183565023231     
          23 :   -42.8276189896968     
          24 :    42.6336748582869     
          25 :   -41.3001647505410     
          26 :    39.1217267676926     
          27 :   -36.8952543691612     
          28 :    35.3523481403072     
          29 :   -34.7371123490876     
          30 :    34.7511606275880     
          31 :   -38.6884332764395     
          32 :   -28.2585053421936     

     Forces acting on atoms (Ry/au):


     negative rho (up, down):  2.665E-01 0.000E+00
     atom    1 type  1   force =     0.00256833    0.00148199   -0.01440417
     atom    2 type  1   force =    -0.00256172    0.00148052   -0.01442171
     atom    3 type  1   force =     0.00005061   -0.00298957   -0.01443551
     atom    4 type  1   force =     0.00001781   -0.00000276   -0.01491680
     atom    5 type  1   force =     0.00000216   -0.00034845    0.00132393
     atom    6 type  1   force =     0.00003755   -0.00000581    0.00424421
     atom    7 type  1   force =     0.00029349    0.00016977    0.00132484
     atom    8 type  1   force =    -0.00033128    0.00020212    0.00127981
     atom    9 type  1   force =    -0.00003535    0.00000338    0.01129049
     atom   10 type  1   force =    -0.00001720   -0.01278041    0.01401656
     atom   11 type  1   force =    -0.01111198    0.00638594    0.01402796
     atom   12 type  1   force =     0.01109303    0.00640107    0.01398518
     atom   13 type  2   force =    -0.00000543    0.00000221   -0.00331479

     Total force =     0.034913     Total SCF correction =     0.001406


     entering subroutine stress ...


     negative rho (up, down):  2.665E-01 0.000E+00
          total   stress  (Ry/bohr**3)                   (kbar)     P=    3.68
  -0.00000282  -0.00000000   0.00000000         -0.41     -0.00      0.00
  -0.00000000  -0.00000282  -0.00000000         -0.00     -0.41     -0.00
   0.00000000  -0.00000000   0.00008061          0.00     -0.00     11.86


     BFGS Geometry Optimization

     number of scf cycles    =   1
     number of bfgs steps    =   0

     energy   new            =   -1394.1533560115 Ry

     new trust radius        =       0.0190010566 bohr
     new conv_thr            =       0.0000099958 Ry


ATOMIC_POSITIONS (crystal)
Cd1      0.166666667   0.166666667   0.398302599    0   0   0
Cd1      0.666666667   0.166666667   0.398302599    0   0   0
Cd1      0.166666667   0.666666667   0.398302599    0   0   0
Cd1      0.666666667   0.666666667   0.398302599    0   0   0
Cd1      0.833333333   0.333333333   0.500000000    0   0   0
Cd1      0.333333333   0.333333333   0.500000000    0   0   0
Cd1      0.833333333   0.833333333   0.500000000    0   0   0
Cd1      0.333333333   0.833333333   0.500000000    0   0   0
Cd1     -0.000003156   0.000000330   0.601935374
Cd1      0.500622873  -0.001248656   0.601992832
Cd1     -0.001252156   0.500623911   0.601993072
Cd1      0.500625902   0.500625390   0.601992171
H1       0.333332766   0.333333549   0.646934455



     Writing output data file calc.save
     Check: negative starting charge=   -0.257921
     NEW-OLD atomic charge density approx. for the potential
     Check: negative starting charge=   -0.258138

     negative rho (up, down):  2.669E-01 0.000E+00
 
     Adding external electric field

     Computed dipole along edir(3) : 
        Dipole                0.0172 Ry au,          0.0437 Debye
        Dipole field          0.0000 Ry au
 
        Potential amp.       -0.0035 Ry
        Total length         46.2584 bohr
 

     total cpu time spent up to now is      190.8 secs

     Self-consistent Calculation

     iteration #  1     ecut=    36.75 Ry     beta=0.30
     Davidson diagonalization with overlap
     ethr =  1.00E-06,  avg # of iterations =  4.0

     negative rho (up, down):  2.669E-01 0.000E+00
 
     Adding external electric field

     Computed dipole along edir(3) : 
        Dipole               -0.1645 Ry au,         -0.4180 Debye
        Dipole field         -0.0004 Ry au
 
        Potential amp.        0.0333 Ry
        Total length         46.2584 bohr
 

     total cpu time spent up to now is      215.4 secs

     total energy              =   -1394.15327739 Ry
     Harris-Foulkes estimate   =   -1394.15477437 Ry
     estimated scf accuracy    <       0.00312098 Ry

     iteration #  2     ecut=    36.75 Ry     beta=0.30
     Davidson diagonalization with overlap
     ethr =  2.15E-06,  avg # of iterations =  5.2

     negative rho (up, down):  2.669E-01 0.000E+00
 
     Adding external electric field

     Computed dipole along edir(3) : 
        Dipole               -0.0102 Ry au,         -0.0260 Debye
        Dipole field         -0.0000 Ry au
 
        Potential amp.        0.0021 Ry
        Total length         46.2584 bohr
 

     total cpu time spent up to now is      231.8 secs

     total energy              =   -1394.15096060 Ry
     Harris-Foulkes estimate   =   -1394.15834637 Ry
     estimated scf accuracy    <       0.07989321 Ry

     iteration #  3     ecut=    36.75 Ry     beta=0.30
     Davidson diagonalization with overlap
     ethr =  2.15E-06,  avg # of iterations =  5.0

     negative rho (up, down):  2.669E-01 0.000E+00
 
     Adding external electric field

     Computed dipole along edir(3) : 
        Dipole               -0.0151 Ry au,         -0.0385 Debye
        Dipole field         -0.0000 Ry au
 
        Potential amp.        0.0031 Ry
        Total length         46.2584 bohr
 

     total cpu time spent up to now is      247.4 secs

     total energy              =   -1394.15458592 Ry
     Harris-Foulkes estimate   =   -1394.15466063 Ry
     estimated scf accuracy    <       0.00034340 Ry

     iteration #  4     ecut=    36.75 Ry     beta=0.30
     Davidson diagonalization with overlap
     ethr =  2.37E-07,  avg # of iterations =  2.0

     negative rho (up, down):  2.669E-01 0.000E+00

     negative rho (up, down):  2.669E-01 0.000E+00

     negative rho (up, down):  2.669E-01 0.000E+00

     negative rho (up, down):  2.669E-01 0.000E+00

     negative rho (up, down):  2.669E-01 0.000E+00

     negative rho (up, down):  2.669E-01 0.000E+00

     negative rho (up, down):  2.669E-01 0.000E+00

     negative rho (up, down):  2.669E-01 0.000E+00

     negative rho (up, down):  2.669E-01 0.000E+00

     negative rho (up, down):  2.669E-01 0.000E+00

     negative rho (up, down):  2.669E-01 0.000E+00

     negative rho (up, down):  2.669E-01 0.000E+00

     negative rho (up, down):  2.669E-01 0.000E+00

     negative rho (up, down):  2.669E-01 0.000E+00

     negative rho (up, down):  2.669E-01 0.000E+00

     negative rho (up, down):  2.669E-01 0.000E+00

     negative rho (up, down):  2.669E-01 0.000E+00

     negative rho (up, down):  2.669E-01 0.000E+00

     negative rho (up, down):  2.669E-01 0.000E+00

     negative rho (up, down):  2.669E-01 0.000E+00

     negative rho (up, down):  2.669E-01 0.000E+00

     negative rho (up, down):  2.669E-01 0.000E+00

     negative rho (up, down):  2.669E-01 0.000E+00

     negative rho (up, down):  2.669E-01 0.000E+00

     negative rho (up, down):  2.669E-01 0.000E+00

     negative rho (up, down):  2.669E-01 0.000E+00

     negative rho (up, down):  2.669E-01 0.000E+00

     negative rho (up, down):  2.669E-01 0.000E+00

     negative rho (up, down):  2.669E-01 0.000E+00

     negative rho (up, down):  2.669E-01 0.000E+00

     negative rho (up, down):  2.669E-01 0.000E+00

     negative rho (up, down):  2.669E-01 0.000E+00

     negative rho (up, down):  2.669E-01 0.000E+00

     negative rho (up, down):  2.669E-01 0.000E+00

     negative rho (up, down):  2.669E-01 0.000E+00
 
     Adding external electric field

     Computed dipole along edir(3) : 
        Dipole               -0.0079 Ry au,         -0.0202 Debye
        Dipole field         -0.0000 Ry au
 
        Potential amp.        0.0016 Ry
        Total length         46.2584 bohr
 

     total cpu time spent up to now is      281.5 secs

     End of self-consistent calculation

          k = 0.0000 0.0000 0.0000 ( 21643 PWs)   bands (ev):

    -9.3923  -9.3457  -9.3457  -9.3026  -9.2098  -9.2098  -9.2080  -9.1706
    -9.1352  -9.1352  -9.0622  -9.0450  -9.0450  -8.9579  -8.8775  -8.8163
    -8.8163  -8.8050  -8.8050  -8.8007  -8.7387  -8.7355  -8.7355  -8.7108
    -8.7108  -8.6926  -8.6787  -8.6787  -8.5810  -8.5810  -8.3620  -8.3620
    -8.3049  -8.2993  -8.2993  -8.2568  -8.2568  -8.2543  -8.1904  -8.1904
    -8.1625  -8.1529  -8.1529  -8.0810  -8.0713  -8.0713  -8.0289  -8.0289
    -8.0181  -8.0061  -8.0061  -7.9793  -7.9789  -7.9789  -7.9383  -7.9146
    -7.9146  -7.8039  -7.8039  -7.7991  -7.7301  -6.1636  -3.9904  -2.3484
    -1.6670  -1.6670  -1.6534  -1.3816  -1.3816  -1.0980  -0.5389  -0.4493
    -0.4493   0.3853   0.3854   0.4329   1.2176   1.9029   1.9029   1.9910
     2.4102   2.4102

          k = 0.0000 0.0308 0.0000 ( 21640 PWs)   bands (ev):

    -9.3447  -9.3047  -9.2894  -9.2636  -9.1808  -9.1774  -9.1652  -9.1281
    -9.0966  -9.0851  -9.0300  -9.0064  -8.9932  -8.9294  -8.8585  -8.8131
    -8.8003  -8.7941  -8.7696  -8.7619  -8.7575  -8.7488  -8.7218  -8.7066
    -8.6777  -8.6714  -8.6657  -8.6592  -8.5975  -8.5426  -8.4061  -8.3654
    -8.3252  -8.3220  -8.3000  -8.2991  -8.2956  -8.2889  -8.2489  -8.1926
    -8.1872  -8.1740  -8.1724  -8.1105  -8.1024  -8.0973  -8.0955  -8.0504
    -8.0444  -8.0390  -8.0275  -8.0243  -8.0076  -8.0070  -7.9768  -7.9632
    -7.9563  -7.8586  -7.8560  -7.8523  -7.5502  -6.0066  -3.9891  -3.3385
    -2.5509  -2.3585  -2.1219  -1.4950  -0.9135  -0.6575  -0.3639  -0.3541
     0.1031   0.7715   0.8920   1.0843   1.2835   1.4596   2.0318   2.3738
     2.9171   3.2075

          k = 0.0000 0.0615 0.0000 ( 21582 PWs)   bands (ev):

    -9.2547  -9.1764  -9.1630  -9.1576  -9.0976  -9.0879  -9.0836  -9.0259
    -9.0018  -8.9930  -8.9675  -8.9251  -8.9090  -8.8791  -8.8437  -8.7985
    -8.7948  -8.7763  -8.7563  -8.7279  -8.7029  -8.6892  -8.6509  -8.6416
    -8.6290  -8.6147  -8.6124  -8.5994  -8.5890  -8.4880  -8.4521  -8.4475
    -8.4456  -8.4058  -8.3628  -8.3617  -8.3312  -8.3217  -8.3173  -8.2501
    -8.2458  -8.2358  -8.2302  -8.2101  -8.2094  -8.2011  -8.1881  -8.1520
    -8.1492  -8.1417  -8.1265  -8.1143  -8.1103  -8.0430  -8.0273  -8.0080
    -7.9965  -7.9786  -7.9151  -7.9122  -7.0517  -5.5883  -4.9785  -3.8862
    -3.1030  -2.8341  -2.7884  -1.8567  -1.3361  -1.0998  -0.2779   0.5492
     0.8410   1.1502   1.1653   1.8305   2.4328   2.5557   2.8897   3.1849
     3.4882   3.9998

          k = 0.0000-0.0923 0.0000 ( 21576 PWs)   bands (ev):

    -9.1626  -9.1520  -9.0988  -9.0765  -9.0426  -9.0136  -9.0099  -8.9686
    -8.9641  -8.9524  -8.9104  -8.9028  -8.8911  -8.8645  -8.8439  -8.8252
    -8.7676  -8.7264  -8.7148  -8.6890  -8.6846  -8.6560  -8.6153  -8.6047
    -8.5879  -8.5728  -8.5641  -8.5590  -8.5282  -8.5255  -8.4760  -8.4692
    -8.4584  -8.4418  -8.4063  -8.4017  -8.3593  -8.3518  -8.3342  -8.3279
    -8.3183  -8.2888  -8.2881  -8.2856  -8.2693  -8.2613  -8.2546  -8.2480
    -8.2355  -8.2223  -8.1705  -8.1647  -8.1431  -8.1394  -8.0283  -8.0215
    -8.0089  -7.9998  -7.9222  -7.9202  -6.3039  -6.1316  -4.9987  -4.4792
    -3.2843  -2.9885  -2.6922  -1.9968  -1.6132  -1.4794  -0.1318   0.7428
     0.9195   1.0981   2.4237   2.6249   2.8369   2.9466   3.1938   3.6877
     3.7872   3.9101

          k = 0.0266-0.0154 0.0000 ( 21640 PWs)   bands (ev):

    -9.3447  -9.3047  -9.2894  -9.2636  -9.1808  -9.1774  -9.1652  -9.1281
    -9.0966  -9.0851  -9.0300  -9.0064  -8.9932  -8.9294  -8.8585  -8.8131
    -8.8003  -8.7941  -8.7696  -8.7619  -8.7575  -8.7488  -8.7218  -8.7066
    -8.6777  -8.6714  -8.6657  -8.6592  -8.5975  -8.5426  -8.4061  -8.3654
    -8.3252  -8.3220  -8.3000  -8.2991  -8.2956  -8.2889  -8.2489  -8.1926
    -8.1872  -8.1740  -8.1724  -8.1105  -8.1024  -8.0973  -8.0955  -8.0504
    -8.0444  -8.0390  -8.0275  -8.0243  -8.0076  -8.0070  -7.9768  -7.9632
    -7.9563  -7.8586  -7.8560  -7.8523  -7.5502  -6.0066  -3.9891  -3.3385
    -2.5509  -2.3585  -2.1219  -1.4950  -0.9135  -0.6575  -0.3639  -0.3541
     0.1031   0.7715   0.8921   1.0843   1.2835   1.4596   2.0318   2.3738
     2.9171   3.2075

          k = 0.0266 0.0154 0.0000 ( 21640 PWs)   bands (ev):

    -9.3447  -9.3047  -9.2894  -9.2636  -9.1808  -9.1774  -9.1652  -9.1281
    -9.0966  -9.0851  -9.0300  -9.0064  -8.9932  -8.9294  -8.8585  -8.8131
    -8.8003  -8.7941  -8.7696  -8.7619  -8.7575  -8.7488  -8.7218  -8.7066
    -8.6777  -8.6714  -8.6657  -8.6592  -8.5975  -8.5426  -8.4061  -8.3654
    -8.3252  -8.3220  -8.3000  -8.2991  -8.2956  -8.2889  -8.2489  -8.1926
    -8.1872  -8.1740  -8.1724  -8.1105  -8.1024  -8.0973  -8.0955  -8.0504
    -8.0444  -8.0390  -8.0275  -8.0243  -8.0076  -8.0070  -7.9768  -7.9632
    -7.9563  -7.8586  -7.8560  -7.8523  -7.5502  -6.0066  -3.9891  -3.3385
    -2.5509  -2.3585  -2.1219  -1.4950  -0.9135  -0.6576  -0.3639  -0.3541
     0.1031   0.7715   0.8920   1.0843   1.2835   1.4596   2.0318   2.3738
     2.9171   3.2075

          k = 0.0266 0.0462 0.0000 ( 21609 PWs)   bands (ev):

    -9.2606  -9.2390  -9.1995  -9.1827  -9.1156  -9.1138  -9.0971  -9.0532
    -9.0354  -9.0030  -8.9779  -8.9419  -8.9267  -8.9119  -8.8298  -8.8121
    -8.7902  -8.7808  -8.7752  -8.7288  -8.7078  -8.6953  -8.6905  -8.6839
    -8.6440  -8.6322  -8.6282  -8.6207  -8.6026  -8.4922  -8.4534  -8.4024
    -8.3941  -8.3911  -8.3841  -8.3595  -8.3200  -8.3141  -8.2783  -8.2408
    -8.2340  -8.2314  -8.2195  -8.1816  -8.1657  -8.1589  -8.1514  -8.1111
    -8.1061  -8.0902  -8.0888  -8.0823  -8.0714  -8.0387  -8.0144  -8.0093
    -7.9961  -7.9513  -7.9191  -7.9179  -7.2140  -5.7116  -4.3198  -4.0509
    -3.5357  -2.6614  -2.5042  -1.3701  -1.0727  -0.7923  -0.2157  -0.0977
     0.1401   0.7911   1.6517   1.9147   2.0907   2.4060   2.8649   2.9269
     3.0436   3.3445

          k = 0.0266-0.1077 0.0000 ( 21571 PWs)   bands (ev):

    -9.1589  -9.1099  -9.0980  -9.0810  -9.0492  -9.0174  -8.9921  -8.9825
    -8.9567  -8.9496  -8.9370  -8.9083  -8.8978  -8.8696  -8.8376  -8.7672
    -8.7566  -8.7372  -8.7152  -8.6790  -8.6642  -8.6437  -8.6402  -8.6344
    -8.6098  -8.6003  -8.5868  -8.5590  -8.5475  -8.5423  -8.5122  -8.5043
    -8.4903  -8.4236  -8.4162  -8.3987  -8.3902  -8.3492  -8.3452  -8.3364
    -8.3270  -8.2859  -8.2784  -8.2752  -8.2571  -8.2355  -8.2220  -8.2045
    -8.1985  -8.1791  -8.1627  -8.1326  -8.1214  -8.0755  -8.0524  -8.0427
    -8.0208  -8.0156  -7.9780  -7.9439  -6.5479  -5.5679  -5.0836  -4.4411
    -4.0498  -3.1666  -2.5544  -1.7283  -1.3247  -0.7926  -0.0755   0.3890
     0.6579   1.3825   1.9341   2.1696   2.4934   2.7060   3.2864   3.5502
     3.7753   4.0582

          k = 0.0266-0.0769 0.0000 ( 21571 PWs)   bands (ev):

    -9.1589  -9.1099  -9.0980  -9.0809  -9.0492  -9.0174  -8.9921  -8.9824
    -8.9567  -8.9496  -8.9370  -8.9083  -8.8978  -8.8696  -8.8376  -8.7672
    -8.7566  -8.7372  -8.7152  -8.6790  -8.6642  -8.6437  -8.6402  -8.6344
    -8.6098  -8.6003  -8.5868  -8.5590  -8.5475  -8.5423  -8.5122  -8.5043
    -8.4903  -8.4236  -8.4162  -8.3987  -8.3902  -8.3492  -8.3452  -8.3364
    -8.3270  -8.2859  -8.2784  -8.2752  -8.2571  -8.2355  -8.2220  -8.2045
    -8.1985  -8.1791  -8.1627  -8.1326  -8.1214  -8.0755  -8.0524  -8.0427
    -8.0208  -8.0156  -7.9780  -7.9439  -6.5479  -5.5679  -5.0836  -4.4411
    -4.0498  -3.1666  -2.5544  -1.7283  -1.3247  -0.7926  -0.0755   0.3890
     0.6579   1.3825   1.9341   2.1696   2.4934   2.7060   3.2864   3.5502
     3.7753   4.0582

          k = 0.0266-0.0462 0.0000 ( 21609 PWs)   bands (ev):

    -9.2606  -9.2390  -9.1995  -9.1827  -9.1156  -9.1138  -9.0971  -9.0532
    -9.0354  -9.0030  -8.9779  -8.9419  -8.9267  -8.9119  -8.8298  -8.8121
    -8.7902  -8.7808  -8.7752  -8.7288  -8.7078  -8.6953  -8.6905  -8.6839
    -8.6440  -8.6322  -8.6282  -8.6207  -8.6026  -8.4922  -8.4534  -8.4024
    -8.3941  -8.3911  -8.3841  -8.3595  -8.3200  -8.3141  -8.2783  -8.2408
    -8.2340  -8.2314  -8.2195  -8.1816  -8.1657  -8.1589  -8.1514  -8.1111
    -8.1061  -8.0902  -8.0888  -8.0823  -8.0714  -8.0387  -8.0144  -8.0093
    -7.9961  -7.9513  -7.9191  -7.9179  -7.2140  -5.7116  -4.3198  -4.0509
    -3.5357  -2.6614  -2.5042  -1.3701  -1.0727  -0.7923  -0.2157  -0.0977
     0.1401   0.7911   1.6517   1.9147   2.0907   2.4060   2.8649   2.9269
     3.0436   3.3445

          k = 0.0533-0.0308 0.0000 ( 21582 PWs)   bands (ev):

    -9.2547  -9.1764  -9.1630  -9.1576  -9.0976  -9.0879  -9.0836  -9.0259
    -9.0018  -8.9930  -8.9675  -8.9251  -8.9090  -8.8791  -8.8437  -8.7985
    -8.7948  -8.7763  -8.7563  -8.7279  -8.7029  -8.6892  -8.6509  -8.6416
    -8.6290  -8.6147  -8.6124  -8.5994  -8.5890  -8.4880  -8.4521  -8.4475
    -8.4456  -8.4058  -8.3628  -8.3617  -8.3312  -8.3217  -8.3173  -8.2501
    -8.2458  -8.2358  -8.2302  -8.2101  -8.2094  -8.2011  -8.1881  -8.1520
    -8.1492  -8.1417  -8.1265  -8.1143  -8.1103  -8.0430  -8.0273  -8.0079
    -7.9965  -7.9786  -7.9151  -7.9122  -7.0517  -5.5883  -4.9785  -3.8862
    -3.1030  -2.8341  -2.7884  -1.8567  -1.3361  -1.0998  -0.2779   0.5492
     0.8410   1.1502   1.1653   1.8305   2.4328   2.5557   2.8897   3.1849
     3.4882   3.9998

          k = 0.0533 0.0000 0.0000 ( 21609 PWs)   bands (ev):

    -9.2606  -9.2390  -9.1995  -9.1827  -9.1156  -9.1138  -9.0971  -9.0532
    -9.0354  -9.0030  -8.9779  -8.9419  -8.9267  -8.9119  -8.8298  -8.8121
    -8.7902  -8.7808  -8.7752  -8.7288  -8.7078  -8.6953  -8.6905  -8.6839
    -8.6440  -8.6322  -8.6282  -8.6207  -8.6026  -8.4922  -8.4534  -8.4024
    -8.3941  -8.3911  -8.3841  -8.3595  -8.3200  -8.3141  -8.2783  -8.2408
    -8.2340  -8.2314  -8.2195  -8.1816  -8.1657  -8.1589  -8.1514  -8.1111
    -8.1061  -8.0902  -8.0888  -8.0823  -8.0714  -8.0387  -8.0144  -8.0094
    -7.9961  -7.9513  -7.9191  -7.9179  -7.2140  -5.7116  -4.3198  -4.0509
    -3.5357  -2.6614  -2.5041  -1.3701  -1.0727  -0.7923  -0.2157  -0.0977
     0.1401   0.7911   1.6517   1.9147   2.0907   2.4060   2.8649   2.9269
     3.0436   3.3445

          k = 0.0533 0.0308 0.0000 ( 21582 PWs)   bands (ev):

    -9.2547  -9.1764  -9.1630  -9.1576  -9.0976  -9.0879  -9.0836  -9.0259
    -9.0018  -8.9930  -8.9675  -8.9251  -8.9090  -8.8791  -8.8437  -8.7985
    -8.7948  -8.7763  -8.7563  -8.7279  -8.7029  -8.6892  -8.6509  -8.6416
    -8.6290  -8.6147  -8.6124  -8.5994  -8.5890  -8.4880  -8.4521  -8.4475
    -8.4456  -8.4058  -8.3628  -8.3617  -8.3312  -8.3217  -8.3173  -8.2501
    -8.2458  -8.2358  -8.2302  -8.2101  -8.2094  -8.2011  -8.1881  -8.1520
    -8.1492  -8.1417  -8.1265  -8.1143  -8.1103  -8.0430  -8.0273  -8.0080
    -7.9965  -7.9786  -7.9151  -7.9122  -7.0517  -5.5883  -4.9785  -3.8862
    -3.1030  -2.8341  -2.7884  -1.8567  -1.3361  -1.0998  -0.2779   0.5492
     0.8410   1.1502   1.1653   1.8305   2.4328   2.5557   2.8897   3.1849
     3.4882   3.9998

          k = 0.0533-0.1231 0.0000 ( 21571 PWs)   bands (ev):

    -9.1589  -9.1099  -9.0980  -9.0809  -9.0492  -9.0174  -8.9921  -8.9824
    -8.9567  -8.9495  -8.9370  -8.9083  -8.8978  -8.8697  -8.8376  -8.7672
    -8.7566  -8.7372  -8.7152  -8.6790  -8.6642  -8.6437  -8.6402  -8.6344
    -8.6098  -8.6003  -8.5868  -8.5590  -8.5475  -8.5423  -8.5122  -8.5043
    -8.4903  -8.4236  -8.4162  -8.3987  -8.3902  -8.3492  -8.3452  -8.3364
    -8.3270  -8.2859  -8.2784  -8.2752  -8.2571  -8.2355  -8.2220  -8.2045
    -8.1985  -8.1791  -8.1627  -8.1326  -8.1214  -8.0755  -8.0524  -8.0427
    -8.0208  -8.0156  -7.9780  -7.9439  -6.5479  -5.5679  -5.0836  -4.4411
    -4.0498  -3.1666  -2.5544  -1.7283  -1.3247  -0.7926  -0.0755   0.3890
     0.6579   1.3824   1.9341   2.1696   2.4934   2.7060   3.2864   3.5502
     3.7753   4.0582

          k = 0.0533-0.0923 0.0000 ( 21606 PWs)   bands (ev):

    -9.0370  -9.0360  -9.0231  -9.0183  -9.0182  -9.0161  -8.9991  -8.9979
    -8.9607  -8.9573  -8.9340  -8.9332  -8.8636  -8.7584  -8.7499  -8.7359
    -8.7330  -8.7172  -8.7165  -8.7064  -8.6767  -8.6526  -8.6510  -8.6204
    -8.5927  -8.5877  -8.5852  -8.5558  -8.5412  -8.5365  -8.5339  -8.4956
    -8.4939  -8.4910  -8.4852  -8.4657  -8.4598  -8.4595  -8.3816  -8.3778
    -8.3557  -8.2900  -8.2717  -8.2584  -8.2526  -8.2462  -8.2406  -8.2292
    -8.1862  -8.1795  -8.1703  -8.1210  -8.0845  -8.0841  -8.0767  -8.0585
    -8.0497  -8.0331  -8.0300  -8.0280  -5.8767  -5.5882  -5.5835  -4.6351
    -3.9737  -3.9717  -2.4677  -1.5539  -1.5449   0.0285   0.4516   0.4890
     0.5915   1.6099   1.6275   1.7408   2.1448   2.1595   3.3272   3.8746
     3.8984   4.3148

          k = 0.0533-0.0615 0.0000 ( 21571 PWs)   bands (ev):

    -9.1589  -9.1099  -9.0980  -9.0809  -9.0492  -9.0174  -8.9921  -8.9825
    -8.9567  -8.9496  -8.9370  -8.9083  -8.8978  -8.8697  -8.8376  -8.7672
    -8.7566  -8.7372  -8.7152  -8.6790  -8.6642  -8.6437  -8.6402  -8.6344
    -8.6098  -8.6003  -8.5868  -8.5590  -8.5475  -8.5423  -8.5122  -8.5043
    -8.4903  -8.4236  -8.4162  -8.3987  -8.3902  -8.3492  -8.3452  -8.3364
    -8.3270  -8.2859  -8.2784  -8.2752  -8.2571  -8.2355  -8.2220  -8.2045
    -8.1985  -8.1791  -8.1627  -8.1326  -8.1214  -8.0755  -8.0524  -8.0427
    -8.0208  -8.0156  -7.9780  -7.9439  -6.5479  -5.5679  -5.0836  -4.4411
    -4.0498  -3.1666  -2.5544  -1.7283  -1.3247  -0.7926  -0.0755   0.3890
     0.6579   1.3824   1.9341   2.1696   2.4934   2.7060   3.2864   3.5502
     3.7753   4.0582

          k =-0.0799 0.0462 0.0000 ( 21576 PWs)   bands (ev):

    -9.1626  -9.1520  -9.0988  -9.0765  -9.0426  -9.0136  -9.0099  -8.9686
    -8.9641  -8.9524  -8.9104  -8.9028  -8.8911  -8.8645  -8.8439  -8.8252
    -8.7676  -8.7264  -8.7148  -8.6890  -8.6846  -8.6560  -8.6153  -8.6047
    -8.5879  -8.5728  -8.5641  -8.5590  -8.5282  -8.5255  -8.4760  -8.4692
    -8.4584  -8.4418  -8.4063  -8.4017  -8.3593  -8.3518  -8.3342  -8.3279
    -8.3183  -8.2888  -8.2881  -8.2856  -8.2693  -8.2613  -8.2546  -8.2480
    -8.2355  -8.2223  -8.1705  -8.1647  -8.1431  -8.1394  -8.0283  -8.0215
    -8.0089  -7.9998  -7.9222  -7.9202  -6.3039  -6.1317  -4.9987  -4.4792
    -3.2843  -2.9885  -2.6922  -1.9968  -1.6132  -1.4794  -0.1318   0.7428
     0.9195   1.0981   2.4237   2.6248   2.8369   2.9466   3.1938   3.6876
     3.7872   3.9101

          k =-0.0799 0.0769 0.0000 ( 21571 PWs)   bands (ev):

    -9.1589  -9.1099  -9.0980  -9.0809  -9.0492  -9.0174  -8.9921  -8.9825
    -8.9567  -8.9496  -8.9370  -8.9083  -8.8978  -8.8697  -8.8376  -8.7672
    -8.7566  -8.7372  -8.7152  -8.6790  -8.6642  -8.6437  -8.6402  -8.6344
    -8.6098  -8.6003  -8.5868  -8.5590  -8.5475  -8.5423  -8.5122  -8.5043
    -8.4903  -8.4236  -8.4162  -8.3987  -8.3902  -8.3492  -8.3452  -8.3364
    -8.3270  -8.2859  -8.2784  -8.2752  -8.2571  -8.2355  -8.2220  -8.2045
    -8.1985  -8.1791  -8.1627  -8.1326  -8.1214  -8.0755  -8.0524  -8.0427
    -8.0208  -8.0156  -7.9780  -7.9439  -6.5479  -5.5679  -5.0836  -4.4411
    -4.0498  -3.1666  -2.5544  -1.7283  -1.3247  -0.7926  -0.0755   0.3890
     0.6579   1.3824   1.9341   2.1696   2.4934   2.7060   3.2864   3.5502
     3.7753   4.0582

          k =-0.0799 0.1077 0.0000 ( 21571 PWs)   bands (ev):

    -9.1589  -9.1099  -9.0980  -9.0809  -9.0492  -9.0174  -8.9921  -8.9824
    -8.9567  -8.9496  -8.9370  -8.9083  -8.8978  -8.8697  -8.8376  -8.7672
    -8.7566  -8.7372  -8.7152  -8.6790  -8.6642  -8.6437  -8.6402  -8.6344
    -8.6098  -8.6003  -8.5868  -8.5590  -8.5475  -8.5423  -8.5122  -8.5043
    -8.4903  -8.4236  -8.4162  -8.3987  -8.3902  -8.3492  -8.3452  -8.3364
    -8.3270  -8.2859  -8.2784  -8.2752  -8.2571  -8.2355  -8.2220  -8.2045
    -8.1985  -8.1791  -8.1627  -8.1326  -8.1214  -8.0755  -8.0524  -8.0427
    -8.0208  -8.0156  -7.9780  -7.9439  -6.5479  -5.5679  -5.0836  -4.4411
    -4.0498  -3.1666  -2.5544  -1.7283  -1.3247  -0.7926  -0.0755   0.3890
     0.6579   1.3824   1.9341   2.1696   2.4934   2.7060   3.2864   3.5502
     3.7753   4.0582

          k =-0.0799-0.0462 0.0000 ( 21576 PWs)   bands (ev):

    -9.1626  -9.1520  -9.0988  -9.0765  -9.0426  -9.0136  -9.0099  -8.9686
    -8.9641  -8.9524  -8.9104  -8.9028  -8.8911  -8.8645  -8.8439  -8.8252
    -8.7676  -8.7264  -8.7148  -8.6890  -8.6846  -8.6560  -8.6153  -8.6047
    -8.5879  -8.5728  -8.5641  -8.5590  -8.5282  -8.5255  -8.4760  -8.4692
    -8.4584  -8.4418  -8.4063  -8.4017  -8.3593  -8.3518  -8.3342  -8.3279
    -8.3183  -8.2888  -8.2881  -8.2856  -8.2693  -8.2613  -8.2546  -8.2481
    -8.2355  -8.2223  -8.1705  -8.1647  -8.1431  -8.1394  -8.0283  -8.0215
    -8.0089  -7.9998  -7.9222  -7.9202  -6.3039  -6.1317  -4.9987  -4.4792
    -3.2843  -2.9884  -2.6922  -1.9968  -1.6132  -1.4794  -0.1318   0.7428
     0.9195   1.0981   2.4237   2.6249   2.8369   2.9466   3.1938   3.6876
     3.7872   3.9102

     the Fermi energy is     0.6014 ev

!    total energy              =   -1394.15462632 Ry
     Harris-Foulkes estimate   =   -1394.15462701 Ry
     estimated scf accuracy    <       0.00000484 Ry

     The total energy is the sum of the following terms:

     one-electron contribution =   -8784.56027286 Ry
     hartree contribution      =    4484.92500875 Ry
     xc contribution           =    -490.41742956 Ry
     ewald contribution        =    3395.92592970 Ry
     electric field correction =       0.00000014 Ry
     smearing contrib. (-TS)   =      -0.02786248 Ry

     convergence has been achieved in   4 iterations
 
 BEEF-vdW xc energy contributions
           1 :   -429.771545345218     
           2 :    393.222646833186     
           3 :   -331.518005568332     
           4 :    262.170064482436     
           5 :   -201.385585671431     
           6 :    158.252762219847     
           7 :   -132.987051855882     
           8 :    119.420046657320     
           9 :   -109.776918955505     
          10 :    98.9338271516203     
          11 :   -86.1093849866901     
          12 :    73.7020017164246     
          13 :   -64.6154975970358     
          14 :    59.9910360097475     
          15 :   -58.6142383478362     
          16 :    57.9909468953657     
          17 :   -56.0647558307223     
          18 :    52.3588302268764     
          19 :   -47.9242565225058     
          20 :    44.3423418238170     
          21 :   -42.5779176270942     
          22 :    42.4327693313299     
          23 :   -42.8352201303646     
          24 :    42.6312638066674     
          25 :   -41.2918198784816     
          26 :    39.1155435246121     
          27 :   -36.8972926647216     
          28 :    35.3624207585665     
          29 :   -34.7494106313362     
          30 :    34.7589708849334     
          31 :   -38.6881041469886     
          32 :   -28.2573263607428     

     Forces acting on atoms (Ry/au):


     negative rho (up, down):  2.669E-01 0.000E+00
     atom    1 type  1   force =     0.00242702    0.00140228   -0.01576772
     atom    2 type  1   force =    -0.00243173    0.00140309   -0.01576157
     atom    3 type  1   force =    -0.00001596   -0.00279581   -0.01576179
     atom    4 type  1   force =    -0.00000759    0.00000189   -0.01612624
     atom    5 type  1   force =    -0.00000329   -0.00001106    0.00323375
     atom    6 type  1   force =    -0.00001263    0.00000322    0.00341020
     atom    7 type  1   force =     0.00000848    0.00000786    0.00324136
     atom    8 type  1   force =    -0.00000127   -0.00000317    0.00325092
     atom    9 type  1   force =     0.00002058   -0.00000266    0.01110857
     atom   10 type  1   force =     0.00001153   -0.00575156    0.01438264
     atom   11 type  1   force =    -0.00495453    0.00288146    0.01438603
     atom   12 type  1   force =     0.00495861    0.00286480    0.01440726
     atom   13 type  2   force =     0.00000079   -0.00000035   -0.00400340

     Total force =     0.029318     Total SCF correction =     0.007808
     SCF correction compared to forces is large: reduce conv_thr to get better values


     entering subroutine stress ...


     negative rho (up, down):  2.669E-01 0.000E+00
          total   stress  (Ry/bohr**3)                   (kbar)     P=    2.27
  -0.00001258  -0.00000000  -0.00000000         -1.85     -0.00     -0.00
  -0.00000000  -0.00001258  -0.00000000         -0.00     -1.85     -0.00
  -0.00000000  -0.00000000   0.00007146         -0.00     -0.00     10.51


     number of scf cycles    =   2
     number of bfgs steps    =   1

     energy   old            =   -1394.1533560115 Ry
     energy   new            =   -1394.1546263179 Ry

     CASE: energy  _new < energy  _old

     new trust radius        =       0.0209011622 bohr
     new conv_thr            =       0.0000001000 Ry


ATOMIC_POSITIONS (crystal)
Cd1      0.166666667   0.166666667   0.398302599    0   0   0
Cd1      0.666666667   0.166666667   0.398302599    0   0   0
Cd1      0.166666667   0.666666667   0.398302599    0   0   0
Cd1      0.666666667   0.666666667   0.398302599    0   0   0
Cd1      0.833333333   0.333333333   0.500000000    0   0   0
Cd1      0.333333333   0.333333333   0.500000000    0   0   0
Cd1      0.833333333   0.833333333   0.500000000    0   0   0
Cd1      0.333333333   0.833333333   0.500000000    0   0   0
Cd1     -0.000002535   0.000000205   0.602238361
Cd1      0.501107389  -0.002216904   0.602380607
Cd1     -0.002219820   0.501108405   0.602381000
Cd1      0.501109320   0.501108892   0.602380194
H1       0.333332642   0.333333594   0.646830918



     Writing output data file calc.save
     Check: negative starting charge=   -0.258138
     NEW-OLD atomic charge density approx. for the potential
     Check: negative starting charge=   -0.259159

     negative rho (up, down):  2.679E-01 0.000E+00
 
     Adding external electric field

     Computed dipole along edir(3) : 
        Dipole                0.0269 Ry au,          0.0683 Debye
        Dipole field          0.0001 Ry au
 
        Potential amp.       -0.0054 Ry
        Total length         46.2584 bohr
 

     total cpu time spent up to now is      304.0 secs

     Self-consistent Calculation

     iteration #  1     ecut=    36.75 Ry     beta=0.30
     Davidson diagonalization with overlap
     ethr =  1.00E-06,  avg # of iterations =  4.0

     negative rho (up, down):  2.679E-01 0.000E+00
 
     Adding external electric field

     Computed dipole along edir(3) : 
        Dipole               -0.1887 Ry au,         -0.4797 Debye
        Dipole field         -0.0004 Ry au
 
        Potential amp.        0.0382 Ry
        Total length         46.2584 bohr
 

     total cpu time spent up to now is      328.5 secs

     total energy              =   -1394.15423881 Ry
     Harris-Foulkes estimate   =   -1394.15615655 Ry
     estimated scf accuracy    <       0.00398850 Ry

     iteration #  2     ecut=    36.75 Ry     beta=0.30
     Davidson diagonalization with overlap
     ethr =  2.75E-06,  avg # of iterations =  5.0

     negative rho (up, down):  2.679E-01 0.000E+00
 
     Adding external electric field

     Computed dipole along edir(3) : 
        Dipole               -0.0104 Ry au,         -0.0263 Debye
        Dipole field         -0.0000 Ry au
 
        Potential amp.        0.0021 Ry
        Total length         46.2584 bohr
 

     total cpu time spent up to now is      344.7 secs

     total energy              =   -1394.15107430 Ry
     Harris-Foulkes estimate   =   -1394.16110058 Ry
     estimated scf accuracy    <       0.11051746 Ry

     iteration #  3     ecut=    36.75 Ry     beta=0.30
     Davidson diagonalization with overlap
     ethr =  2.75E-06,  avg # of iterations =  5.0

     negative rho (up, down):  2.679E-01 0.000E+00
 
     Adding external electric field

     Computed dipole along edir(3) : 
        Dipole               -0.0126 Ry au,         -0.0320 Debye
        Dipole field         -0.0000 Ry au
 
        Potential amp.        0.0026 Ry
        Total length         46.2584 bohr
 

     total cpu time spent up to now is      360.3 secs

     total energy              =   -1394.15596625 Ry
     Harris-Foulkes estimate   =   -1394.15601411 Ry
     estimated scf accuracy    <       0.00018729 Ry

     iteration #  4     ecut=    36.75 Ry     beta=0.30
     Davidson diagonalization with overlap
     ethr =  1.29E-07,  avg # of iterations =  2.5

     negative rho (up, down):  2.679E-01 0.000E+00
 
     Adding external electric field

     Computed dipole along edir(3) : 
        Dipole               -0.0116 Ry au,         -0.0296 Debye
        Dipole field         -0.0000 Ry au
 
        Potential amp.        0.0024 Ry
        Total length         46.2584 bohr
 

     total cpu time spent up to now is      373.6 secs

     total energy              =   -1394.15599567 Ry
     Harris-Foulkes estimate   =   -1394.15599625 Ry
     estimated scf accuracy    <       0.00000655 Ry

     iteration #  5     ecut=    36.75 Ry     beta=0.30
     Davidson diagonalization with overlap
     ethr =  4.52E-09,  avg # of iterations =  3.0

     negative rho (up, down):  2.679E-01 0.000E+00
 
     Adding external electric field

     Computed dipole along edir(3) : 
        Dipole               -0.0115 Ry au,         -0.0293 Debye
        Dipole field         -0.0000 Ry au
 
        Potential amp.        0.0023 Ry
        Total length         46.2584 bohr
 

     total cpu time spent up to now is      391.9 secs

     total energy              =   -1394.15599836 Ry
     Harris-Foulkes estimate   =   -1394.15599788 Ry
     estimated scf accuracy    <       0.00000148 Ry

     iteration #  6     ecut=    36.75 Ry     beta=0.30
     Davidson diagonalization with overlap
     ethr =  1.02E-09,  avg # of iterations =  2.0

     negative rho (up, down):  2.679E-01 0.000E+00
 
     Adding external electric field

     Computed dipole along edir(3) : 
        Dipole               -0.0114 Ry au,         -0.0291 Debye
        Dipole field         -0.0000 Ry au
 
        Potential amp.        0.0023 Ry
        Total length         46.2584 bohr
 

     total cpu time spent up to now is      404.9 secs

     total energy              =   -1394.15599885 Ry
     Harris-Foulkes estimate   =   -1394.15599845 Ry
     estimated scf accuracy    <       0.00000045 Ry

     iteration #  7     ecut=    36.75 Ry     beta=0.30
     Davidson diagonalization with overlap
     ethr =  3.08E-10,  avg # of iterations =  2.4

     negative rho (up, down):  2.679E-01 0.000E+00

     negative rho (up, down):  2.679E-01 0.000E+00

     negative rho (up, down):  2.679E-01 0.000E+00

     negative rho (up, down):  2.679E-01 0.000E+00

     negative rho (up, down):  2.679E-01 0.000E+00

     negative rho (up, down):  2.679E-01 0.000E+00

     negative rho (up, down):  2.679E-01 0.000E+00

     negative rho (up, down):  2.679E-01 0.000E+00

     negative rho (up, down):  2.679E-01 0.000E+00

     negative rho (up, down):  2.679E-01 0.000E+00

     negative rho (up, down):  2.679E-01 0.000E+00

     negative rho (up, down):  2.679E-01 0.000E+00

     negative rho (up, down):  2.679E-01 0.000E+00

     negative rho (up, down):  2.679E-01 0.000E+00

     negative rho (up, down):  2.679E-01 0.000E+00

     negative rho (up, down):  2.679E-01 0.000E+00

     negative rho (up, down):  2.679E-01 0.000E+00

     negative rho (up, down):  2.679E-01 0.000E+00

     negative rho (up, down):  2.679E-01 0.000E+00

     negative rho (up, down):  2.679E-01 0.000E+00

     negative rho (up, down):  2.679E-01 0.000E+00

     negative rho (up, down):  2.679E-01 0.000E+00

     negative rho (up, down):  2.679E-01 0.000E+00

     negative rho (up, down):  2.679E-01 0.000E+00

     negative rho (up, down):  2.679E-01 0.000E+00

     negative rho (up, down):  2.679E-01 0.000E+00

     negative rho (up, down):  2.679E-01 0.000E+00

     negative rho (up, down):  2.679E-01 0.000E+00

     negative rho (up, down):  2.679E-01 0.000E+00

     negative rho (up, down):  2.679E-01 0.000E+00

     negative rho (up, down):  2.679E-01 0.000E+00

     negative rho (up, down):  2.679E-01 0.000E+00

     negative rho (up, down):  2.679E-01 0.000E+00

     negative rho (up, down):  2.679E-01 0.000E+00

     negative rho (up, down):  2.679E-01 0.000E+00
 
     Adding external electric field

     Computed dipole along edir(3) : 
        Dipole               -0.0111 Ry au,         -0.0282 Debye
        Dipole field         -0.0000 Ry au
 
        Potential amp.        0.0022 Ry
        Total length         46.2584 bohr
 

     total cpu time spent up to now is      441.1 secs

     End of self-consistent calculation

          k = 0.0000 0.0000 0.0000 ( 21643 PWs)   bands (ev):

    -9.3875  -9.3400  -9.3400  -9.2977  -9.2024  -9.2024  -9.2021  -9.1660
    -9.1293  -9.1293  -9.0582  -9.0423  -9.0423  -8.9551  -8.8726  -8.8133
    -8.8133  -8.8008  -8.8008  -8.7990  -8.7368  -8.7323  -8.7323  -8.7044
    -8.7044  -8.6862  -8.6714  -8.6714  -8.5788  -8.5788  -8.3580  -8.3580
    -8.3018  -8.2964  -8.2964  -8.2528  -8.2528  -8.2497  -8.1873  -8.1873
    -8.1606  -8.1515  -8.1515  -8.0793  -8.0692  -8.0692  -8.0272  -8.0272
    -8.0154  -8.0030  -8.0030  -7.9774  -7.9771  -7.9771  -7.9336  -7.9099
    -7.9099  -7.8018  -7.8018  -7.7971  -7.7188  -6.1609  -3.9885  -2.3548
    -1.6558  -1.6558  -1.6473  -1.3757  -1.3757  -1.0936  -0.5385  -0.4473
    -0.4473   0.3884   0.3884   0.4272   1.2246   1.9017   1.9017   1.9838
     2.4019   2.4019

          k = 0.0000 0.0308 0.0000 ( 21640 PWs)   bands (ev):

    -9.3396  -9.2991  -9.2836  -9.2582  -9.1735  -9.1703  -9.1593  -9.1236
    -9.0908  -9.0792  -9.0257  -9.0035  -8.9903  -8.9262  -8.8535  -8.8097
    -8.7975  -8.7908  -8.7663  -8.7574  -8.7531  -8.7447  -8.7167  -8.7037
    -8.6718  -8.6649  -8.6604  -8.6535  -8.5952  -8.5403  -8.4021  -8.3616
    -8.3220  -8.3193  -8.2967  -8.2951  -8.2915  -8.2844  -8.2453  -8.1898
    -8.1848  -8.1726  -8.1706  -8.1085  -8.1002  -8.0946  -8.0937  -8.0476
    -8.0417  -8.0365  -8.0258  -8.0224  -8.0049  -8.0044  -7.9739  -7.9587
    -7.9528  -7.8565  -7.8539  -7.8502  -7.5395  -6.0041  -3.9855  -3.3330
    -2.5514  -2.3497  -2.1222  -1.4934  -0.9111  -0.6529  -0.3583  -0.3465
     0.1005   0.7760   0.8895   1.0863   1.2807   1.4564   2.0329   2.3801
     2.9084   3.2030

          k = 0.0000 0.0615 0.0000 ( 21582 PWs)   bands (ev):

    -9.2491  -9.1709  -9.1568  -9.1510  -9.0921  -9.0811  -9.0772  -9.0209
    -8.9945  -8.9871  -8.9634  -8.9212  -8.9045  -8.8747  -8.8391  -8.7938
    -8.7900  -8.7724  -8.7520  -8.7239  -8.7001  -8.6866  -8.6457  -8.6349
    -8.6264  -8.6114  -8.6091  -8.5967  -8.5827  -8.4843  -8.4477  -8.4434
    -8.4425  -8.4018  -8.3598  -8.3596  -8.3279  -8.3188  -8.3136  -8.2473
    -8.2439  -8.2342  -8.2282  -8.2064  -8.2063  -8.1984  -8.1853  -8.1497
    -8.1470  -8.1390  -8.1218  -8.1127  -8.1087  -8.0413  -8.0257  -8.0054
    -7.9938  -7.9768  -7.9131  -7.9104  -7.0414  -5.5851  -4.9716  -3.8849
    -3.1019  -2.8254  -2.7855  -1.8607  -1.3341  -1.1025  -0.2729   0.5441
     0.8377   1.1569   1.1696   1.8320   2.4324   2.5577   2.8937   3.1886
     3.4830   3.9974

          k = 0.0000-0.0923 0.0000 ( 21576 PWs)   bands (ev):

    -9.1564  -9.1468  -9.0931  -9.0689  -9.0363  -9.0075  -9.0012  -8.9639
    -8.9586  -8.9458  -8.9068  -8.8966  -8.8865  -8.8595  -8.8390  -8.8202
    -8.7610  -8.7240  -8.7120  -8.6850  -8.6821  -8.6520  -8.6097  -8.5964
    -8.5832  -8.5706  -8.5599  -8.5548  -8.5252  -8.5224  -8.4739  -8.4665
    -8.4550  -8.4366  -8.4040  -8.3999  -8.3569  -8.3494  -8.3319  -8.3265
    -8.3147  -8.2870  -8.2860  -8.2801  -8.2666  -8.2587  -8.2512  -8.2450
    -8.2331  -8.2193  -8.1684  -8.1626  -8.1416  -8.1374  -8.0271  -8.0198
    -8.0067  -7.9974  -7.9202  -7.9185  -6.2910  -6.1250  -4.9975  -4.4799
    -3.2792  -2.9799  -2.6875  -2.0050  -1.6183  -1.4774  -0.1231   0.7380
     0.9152   1.0933   2.4296   2.6312   2.8411   2.9551   3.2037   3.6864
     3.7853   3.9017

          k = 0.0266-0.0154 0.0000 ( 21640 PWs)   bands (ev):

    -9.3396  -9.2991  -9.2836  -9.2582  -9.1735  -9.1703  -9.1593  -9.1236
    -9.0908  -9.0792  -9.0257  -9.0035  -8.9903  -8.9262  -8.8535  -8.8097
    -8.7975  -8.7908  -8.7663  -8.7574  -8.7531  -8.7447  -8.7167  -8.7037
    -8.6718  -8.6649  -8.6604  -8.6535  -8.5952  -8.5403  -8.4021  -8.3616
    -8.3220  -8.3193  -8.2967  -8.2951  -8.2915  -8.2844  -8.2453  -8.1898
    -8.1848  -8.1726  -8.1706  -8.1085  -8.1002  -8.0946  -8.0937  -8.0476
    -8.0417  -8.0365  -8.0258  -8.0224  -8.0049  -8.0044  -7.9739  -7.9587
    -7.9528  -7.8565  -7.8539  -7.8502  -7.5395  -6.0041  -3.9855  -3.3330
    -2.5514  -2.3497  -2.1222  -1.4934  -0.9111  -0.6529  -0.3582  -0.3465
     0.1005   0.7760   0.8895   1.0863   1.2807   1.4564   2.0329   2.3801
     2.9084   3.2030

          k = 0.0266 0.0154 0.0000 ( 21640 PWs)   bands (ev):

    -9.3396  -9.2991  -9.2836  -9.2582  -9.1735  -9.1703  -9.1593  -9.1236
    -9.0908  -9.0792  -9.0257  -9.0035  -8.9903  -8.9262  -8.8535  -8.8097
    -8.7975  -8.7908  -8.7663  -8.7574  -8.7531  -8.7447  -8.7167  -8.7037
    -8.6718  -8.6649  -8.6604  -8.6535  -8.5952  -8.5403  -8.4021  -8.3616
    -8.3220  -8.3193  -8.2967  -8.2951  -8.2915  -8.2844  -8.2453  -8.1898
    -8.1848  -8.1726  -8.1706  -8.1085  -8.1002  -8.0946  -8.0937  -8.0476
    -8.0417  -8.0365  -8.0258  -8.0224  -8.0049  -8.0044  -7.9739  -7.9587
    -7.9528  -7.8565  -7.8539  -7.8502  -7.5395  -6.0041  -3.9855  -3.3330
    -2.5514  -2.3497  -2.1222  -1.4934  -0.9111  -0.6529  -0.3583  -0.3465
     0.1005   0.7760   0.8895   1.0863   1.2807   1.4564   2.0329   2.3801
     2.9084   3.2030

          k = 0.0266 0.0462 0.0000 ( 21609 PWs)   bands (ev):

    -9.2551  -9.2333  -9.1938  -9.1764  -9.1088  -9.1068  -9.0914  -9.0484
    -9.0298  -8.9968  -8.9728  -8.9390  -8.9221  -8.9080  -8.8248  -8.8081
    -8.7858  -8.7774  -8.7700  -8.7256  -8.7036  -8.6910  -8.6869  -8.6795
    -8.6399  -8.6286  -8.6249  -8.6165  -8.5971  -8.4890  -8.4495  -8.3981
    -8.3899  -8.3881  -8.3800  -8.3561  -8.3165  -8.3111  -8.2757  -8.2384
    -8.2323  -8.2287  -8.2164  -8.1794  -8.1626  -8.1566  -8.1490  -8.1082
    -8.1030  -8.0874  -8.0864  -8.0803  -8.0696  -8.0370  -8.0119  -8.0058
    -7.9941  -7.9494  -7.9171  -7.9159  -7.2037  -5.7092  -4.3122  -4.0441
    -3.5337  -2.6661  -2.5044  -1.3654  -1.0639  -0.7861  -0.2233  -0.1016
     0.1411   0.7912   1.6573   1.9232   2.0972   2.4035   2.8635   2.9243
     3.0377   3.3412

          k = 0.0266-0.1077 0.0000 ( 21571 PWs)   bands (ev):

    -9.1530  -9.1036  -9.0916  -9.0744  -9.0433  -9.0112  -8.9851  -8.9753
    -8.9512  -8.9440  -8.9304  -8.9027  -8.8934  -8.8652  -8.8338  -8.7635
    -8.7511  -8.7330  -8.7107  -8.6757  -8.6614  -8.6398  -8.6356  -8.6303
    -8.6040  -8.5965  -8.5820  -8.5556  -8.5448  -8.5390  -8.5092  -8.5016
    -8.4866  -8.4205  -8.4139  -8.3963  -8.3868  -8.3465  -8.3411  -8.3335
    -8.3238  -8.2834  -8.2762  -8.2733  -8.2545  -8.2330  -8.2199  -8.2011
    -8.1950  -8.1762  -8.1606  -8.1308  -8.1196  -8.0733  -8.0506  -8.0412
    -8.0182  -8.0138  -7.9762  -7.9421  -6.5375  -5.5587  -5.0822  -4.4349
    -4.0498  -3.1659  -2.5541  -1.7320  -1.3190  -0.7966  -0.0771   0.3944
[...]
    -8.1156  -8.1059  -8.0928  -8.0432  -8.0409  -8.0324  -8.0196  -7.9757
    -7.9746  -7.9659  -7.9588  -7.9379  -7.9266  -7.9235  -7.8738  -7.8553
    -7.8333  -7.8072  -7.8062  -7.8043  -7.2148  -5.9169  -3.9066  -3.1333
    -2.5468  -2.0738  -2.0171  -1.4048  -0.7877  -0.5430  -0.1783  -0.0911
     0.0684   0.8056   0.9951   1.1110   1.2541   1.4116   2.0536   2.3792
     2.7264   3.0810

          k = 0.0266 0.0154 0.0000 ( 21640 PWs)   bands (ev):

    -9.2240  -9.1481  -9.1220  -9.1190  -8.9993  -8.9983  -8.9871  -8.9815
    -8.9517  -8.9325  -8.9284  -8.9096  -8.9094  -8.8247  -8.7276  -8.7207
    -8.6879  -8.6848  -8.6657  -8.6591  -8.6304  -8.6154  -8.6128  -8.5750
    -8.5378  -8.5205  -8.5121  -8.5091  -8.4875  -8.4805  -8.2807  -8.2474
    -8.2370  -8.2301  -8.2035  -8.1826  -8.1738  -8.1703  -8.1439  -8.1160
    -8.1156  -8.1059  -8.0928  -8.0432  -8.0409  -8.0324  -8.0196  -7.9757
    -7.9746  -7.9659  -7.9588  -7.9379  -7.9266  -7.9235  -7.8738  -7.8553
    -7.8333  -7.8072  -7.8062  -7.8043  -7.2148  -5.9169  -3.9066  -3.1333
    -2.5468  -2.0738  -2.0171  -1.4048  -0.7877  -0.5430  -0.1783  -0.0911
     0.0684   0.8056   0.9952   1.1109   1.2542   1.4116   2.0536   2.3792
     2.7264   3.0809

          k = 0.0266 0.0462 0.0000 ( 21609 PWs)   bands (ev):

    -9.1249  -9.0729  -9.0598  -9.0016  -8.9474  -8.9339  -8.9324  -8.9222
    -8.8831  -8.8532  -8.8506  -8.8269  -8.8089  -8.7790  -8.7151  -8.6965
    -8.6652  -8.6602  -8.6467  -8.6348  -8.5990  -8.5969  -8.5748  -8.5692
    -8.5284  -8.5258  -8.4901  -8.4844  -8.4462  -8.4053  -8.3348  -8.3062
    -8.2836  -8.2767  -8.2636  -8.2353  -8.2223  -8.2195  -8.1975  -8.1784
    -8.1602  -8.1416  -8.1282  -8.1011  -8.0913  -8.0800  -8.0713  -8.0436
    -8.0331  -8.0190  -7.9997  -7.9961  -7.9850  -7.9812  -7.9390  -7.9301
    -7.8990  -7.8938  -7.8685  -7.8673  -6.8860  -5.6414  -4.0626  -3.7877
    -3.4935  -2.7722  -2.4146  -1.1961  -0.7796  -0.6284  -0.3896  -0.1817
     0.2096   0.8200   1.7716   2.1668   2.2576   2.3370   2.7109   2.8721
     2.9418   3.2856

          k = 0.0266-0.1077 0.0000 ( 21571 PWs)   bands (ev):

    -8.9997  -8.9569  -8.9272  -8.9058  -8.9013  -8.8524  -8.8264  -8.8235
    -8.7991  -8.7852  -8.7691  -8.7551  -8.7346  -8.7314  -8.6980  -8.6576
    -8.6368  -8.6291  -8.6016  -8.5957  -8.5742  -8.5393  -8.5186  -8.5009
    -8.4846  -8.4686  -8.4591  -8.4478  -8.4411  -8.4285  -8.4183  -8.3981
    -8.3784  -8.3554  -8.3350  -8.3126  -8.2933  -8.2604  -8.2503  -8.2372
    -8.2279  -8.2162  -8.2030  -8.1998  -8.1741  -8.1618  -8.1421  -8.1138
    -8.1110  -8.0976  -8.0679  -8.0630  -8.0446  -8.0117  -7.9975  -7.9871
    -7.9663  -7.9351  -7.9198  -7.8893  -6.2267  -5.3127  -5.0119  -4.2068
    -3.9767  -3.1061  -2.5596  -1.8050  -1.1090  -0.8756  -0.0972   0.5103
     0.8729   1.3822   1.9479   2.0853   2.5232   2.8968   3.1741   3.6300
     3.7680   4.0016

          k = 0.0266-0.0769 0.0000 ( 21571 PWs)   bands (ev):

    -8.9997  -8.9569  -8.9272  -8.9058  -8.9013  -8.8524  -8.8264  -8.8235
    -8.7991  -8.7852  -8.7691  -8.7551  -8.7346  -8.7314  -8.6981  -8.6576
    -8.6368  -8.6291  -8.6016  -8.5957  -8.5742  -8.5393  -8.5186  -8.5009
    -8.4846  -8.4686  -8.4591  -8.4478  -8.4411  -8.4285  -8.4182  -8.3981
    -8.3784  -8.3553  -8.3350  -8.3126  -8.2933  -8.2604  -8.2503  -8.2372
    -8.2279  -8.2162  -8.2030  -8.1999  -8.1741  -8.1618  -8.1421  -8.1138
    -8.1110  -8.0976  -8.0679  -8.0630  -8.0446  -8.0117  -7.9975  -7.9871
    -7.9663  -7.9351  -7.9198  -7.8893  -6.2267  -5.3127  -5.0119  -4.2068
    -3.9767  -3.1061  -2.5596  -1.8050  -1.1090  -0.8756  -0.0972   0.5103
     0.8729   1.3822   1.9479   2.0853   2.5232   2.8968   3.1741   3.6300
     3.7681   4.0016

          k = 0.0266-0.0462 0.0000 ( 21609 PWs)   bands (ev):

    -9.1249  -9.0729  -9.0598  -9.0016  -8.9474  -8.9339  -8.9324  -8.9222
    -8.8831  -8.8532  -8.8507  -8.8269  -8.8089  -8.7790  -8.7151  -8.6965
    -8.6652  -8.6602  -8.6468  -8.6348  -8.5990  -8.5969  -8.5748  -8.5692
    -8.5284  -8.5258  -8.4901  -8.4844  -8.4461  -8.4053  -8.3348  -8.3062
    -8.2836  -8.2767  -8.2636  -8.2353  -8.2223  -8.2195  -8.1975  -8.1784
    -8.1602  -8.1416  -8.1282  -8.1011  -8.0913  -8.0800  -8.0713  -8.0436
    -8.0331  -8.0190  -7.9997  -7.9961  -7.9850  -7.9812  -7.9390  -7.9301
    -7.8990  -7.8938  -7.8685  -7.8673  -6.8860  -5.6414  -4.0626  -3.7877
    -3.4935  -2.7722  -2.4145  -1.1961  -0.7796  -0.6284  -0.3895  -0.1818
     0.2096   0.8200   1.7716   2.1667   2.2576   2.3370   2.7109   2.8721
     2.9418   3.2855

          k = 0.0533-0.0308 0.0000 ( 21582 PWs)   bands (ev):

    -9.1011  -9.0547  -8.9850  -8.9757  -8.9362  -8.9267  -8.9152  -8.8943
    -8.8483  -8.8225  -8.8183  -8.8072  -8.7749  -8.7643  -8.7168  -8.6840
    -8.6619  -8.6528  -8.6520  -8.6165  -8.5911  -8.5886  -8.5400  -8.5281
    -8.5108  -8.5101  -8.4983  -8.4628  -8.4241  -8.3775  -8.3698  -8.3255
    -8.3153  -8.2993  -8.2777  -8.2679  -8.2392  -8.2342  -8.2006  -8.1839
    -8.1827  -8.1657  -8.1610  -8.1219  -8.1135  -8.1052  -8.0908  -8.0835
    -8.0700  -8.0647  -8.0499  -8.0471  -8.0009  -7.9802  -7.9738  -7.9314
    -7.9252  -7.9234  -7.8574  -7.8550  -6.7250  -5.5169  -4.6990  -3.8473
    -3.0557  -2.6243  -2.5524  -1.9140  -1.2249  -1.1656  -0.1751   0.4586
     0.7269   1.3466   1.4016   1.8286   2.3978   2.6535   2.8351   3.3033
     3.4714   3.9354

          k = 0.0533 0.0000 0.0000 ( 21609 PWs)   bands (ev):

    -9.1249  -9.0729  -9.0598  -9.0016  -8.9474  -8.9339  -8.9324  -8.9222
    -8.8831  -8.8532  -8.8506  -8.8269  -8.8089  -8.7790  -8.7152  -8.6965
    -8.6652  -8.6601  -8.6468  -8.6348  -8.5990  -8.5969  -8.5748  -8.5692
    -8.5284  -8.5258  -8.4901  -8.4844  -8.4461  -8.4053  -8.3348  -8.3062
    -8.2836  -8.2767  -8.2636  -8.2353  -8.2223  -8.2195  -8.1975  -8.1784
    -8.1602  -8.1416  -8.1282  -8.1011  -8.0913  -8.0800  -8.0713  -8.0436
    -8.0331  -8.0190  -7.9998  -7.9961  -7.9850  -7.9812  -7.9390  -7.9302
    -7.8990  -7.8938  -7.8685  -7.8673  -6.8860  -5.6415  -4.0624  -3.7878
    -3.4935  -2.7720  -2.4148  -1.1962  -0.7796  -0.6284  -0.3897  -0.1816
     0.2096   0.8200   1.7717   2.1668   2.2575   2.3370   2.7110   2.8722
     2.9416   3.2858

          k = 0.0533 0.0308 0.0000 ( 21582 PWs)   bands (ev):

    -9.1011  -9.0547  -8.9850  -8.9757  -8.9362  -8.9267  -8.9152  -8.8943
    -8.8483  -8.8225  -8.8183  -8.8072  -8.7749  -8.7643  -8.7168  -8.6840
    -8.6619  -8.6529  -8.6520  -8.6165  -8.5911  -8.5886  -8.5400  -8.5281
    -8.5108  -8.5101  -8.4983  -8.4628  -8.4241  -8.3775  -8.3698  -8.3255
    -8.3153  -8.2993  -8.2777  -8.2679  -8.2392  -8.2342  -8.2005  -8.1839
    -8.1827  -8.1657  -8.1610  -8.1219  -8.1135  -8.1052  -8.0908  -8.0835
    -8.0700  -8.0647  -8.0499  -8.0471  -8.0010  -7.9802  -7.9739  -7.9314
    -7.9251  -7.9234  -7.8574  -7.8550  -6.7250  -5.5169  -4.6989  -3.8473
    -3.0557  -2.6243  -2.5524  -1.9140  -1.2249  -1.1656  -0.1751   0.4585
     0.7269   1.3466   1.4016   1.8286   2.3978   2.6535   2.8351   3.3033
     3.4714   3.9354

          k = 0.0533-0.1231 0.0000 ( 21571 PWs)   bands (ev):

    -8.9997  -8.9569  -8.9272  -8.9058  -8.9013  -8.8524  -8.8264  -8.8235
    -8.7992  -8.7851  -8.7691  -8.7551  -8.7347  -8.7314  -8.6980  -8.6576
    -8.6368  -8.6292  -8.6016  -8.5957  -8.5742  -8.5393  -8.5186  -8.5009
    -8.4846  -8.4686  -8.4591  -8.4478  -8.4411  -8.4285  -8.4183  -8.3981
    -8.3784  -8.3554  -8.3351  -8.3126  -8.2933  -8.2604  -8.2502  -8.2372
    -8.2279  -8.2162  -8.2030  -8.1998  -8.1741  -8.1618  -8.1421  -8.1138
    -8.1110  -8.0976  -8.0679  -8.0631  -8.0446  -8.0117  -7.9975  -7.9871
    -7.9663  -7.9351  -7.9198  -7.8893  -6.2267  -5.3128  -5.0117  -4.2068
    -3.9766  -3.1062  -2.5597  -1.8049  -1.1091  -0.8756  -0.0972   0.5103
     0.8729   1.3824   1.9478   2.0853   2.5231   2.8968   3.1741   3.6300
     3.7681   4.0017

          k = 0.0533-0.0923 0.0000 ( 21606 PWs)   bands (ev):

    -8.8761  -8.8740  -8.8697  -8.8568  -8.8530  -8.8152  -8.8148  -8.8089
    -8.8053  -8.7802  -8.7696  -8.7572  -8.7145  -8.7060  -8.6679  -8.5956
    -8.5905  -8.5708  -8.5639  -8.5564  -8.5560  -8.5385  -8.5249  -8.5095
    -8.4999  -8.4996  -8.4782  -8.4643  -8.4433  -8.4339  -8.4314  -8.4228
    -8.4108  -8.3834  -8.3814  -8.3722  -8.3654  -8.3545  -8.3340  -8.3180
    -8.2943  -8.2124  -8.1933  -8.1708  -8.1683  -8.1446  -8.1308  -8.1121
    -8.1065  -8.1040  -8.0700  -8.0678  -8.0226  -8.0132  -8.0056  -7.9996
    -7.9916  -7.9791  -7.9789  -7.9722  -5.5261  -5.3211  -5.3110  -4.6732
    -3.9513  -3.8417  -2.3337  -1.7748  -1.7011   0.1701   0.6656   0.7378
     0.8089   1.4957   1.5745   1.8614   2.1136   2.3020   3.2887   3.7752
     3.8781   3.9778

          k = 0.0533-0.0615 0.0000 ( 21571 PWs)   bands (ev):

    -8.9997  -8.9570  -8.9272  -8.9058  -8.9013  -8.8524  -8.8264  -8.8235
    -8.7991  -8.7852  -8.7691  -8.7551  -8.7347  -8.7314  -8.6980  -8.6576
    -8.6368  -8.6292  -8.6016  -8.5956  -8.5742  -8.5393  -8.5186  -8.5009
    -8.4846  -8.4686  -8.4591  -8.4478  -8.4411  -8.4285  -8.4183  -8.3981
    -8.3784  -8.3554  -8.3350  -8.3126  -8.2933  -8.2604  -8.2503  -8.2372
    -8.2279  -8.2162  -8.2030  -8.1999  -8.1741  -8.1618  -8.1421  -8.1138
    -8.1110  -8.0976  -8.0679  -8.0631  -8.0446  -8.0117  -7.9974  -7.9871
    -7.9663  -7.9351  -7.9198  -7.8893  -6.2267  -5.3128  -5.0117  -4.2069
    -3.9766  -3.1062  -2.5597  -1.8049  -1.1091  -0.8756  -0.0972   0.5103
     0.8729   1.3823   1.9479   2.0853   2.5231   2.8968   3.1741   3.6300
     3.7682   4.0016

          k =-0.0799 0.0462 0.0000 ( 21576 PWs)   bands (ev):

    -9.0086  -8.9928  -8.9482  -8.9054  -8.8806  -8.8460  -8.8389  -8.8129
    -8.7979  -8.7898  -8.7892  -8.7683  -8.7379  -8.6913  -8.6714  -8.6681
    -8.6433  -8.6391  -8.6175  -8.5925  -8.5844  -8.5314  -8.4848  -8.4826
    -8.4700  -8.4544  -8.4466  -8.4279  -8.4240  -8.4183  -8.4026  -8.3867
    -8.3412  -8.3393  -8.3112  -8.2940  -8.2842  -8.2841  -8.2711  -8.2396
    -8.2357  -8.2304  -8.2292  -8.1877  -8.1803  -8.1651  -8.1597  -8.1545
    -8.1373  -8.1179  -8.1075  -8.1044  -8.0682  -8.0661  -7.9776  -7.9691
    -7.9415  -7.9347  -7.8638  -7.8602  -5.9556  -5.8543  -5.0048  -4.4002
    -3.0722  -2.7079  -2.5760  -2.1941  -1.6847  -1.3722   0.0113   0.6023
     0.8277   1.0284   2.5507   2.8707   2.9721   3.2246   3.3432   3.5874
     3.6756   3.7718

          k =-0.0799 0.0769 0.0000 ( 21571 PWs)   bands (ev):

    -8.9997  -8.9570  -8.9272  -8.9058  -8.9013  -8.8524  -8.8264  -8.8235
    -8.7992  -8.7851  -8.7691  -8.7551  -8.7346  -8.7314  -8.6980  -8.6576
    -8.6368  -8.6291  -8.6016  -8.5956  -8.5742  -8.5393  -8.5186  -8.5009
    -8.4846  -8.4686  -8.4591  -8.4478  -8.4411  -8.4285  -8.4183  -8.3981
    -8.3784  -8.3554  -8.3350  -8.3126  -8.2933  -8.2604  -8.2503  -8.2372
    -8.2279  -8.2162  -8.2030  -8.1998  -8.1741  -8.1618  -8.1420  -8.1138
    -8.1110  -8.0976  -8.0679  -8.0631  -8.0445  -8.0117  -7.9975  -7.9871
    -7.9663  -7.9351  -7.9198  -7.8893  -6.2267  -5.3128  -5.0118  -4.2066
    -3.9767  -3.1064  -2.5595  -1.8050  -1.1091  -0.8757  -0.0972   0.5103
     0.8729   1.3823   1.9478   2.0853   2.5231   2.8968   3.1742   3.6300
     3.7681   4.0016

          k =-0.0799 0.1077 0.0000 ( 21571 PWs)   bands (ev):

    -8.9997  -8.9570  -8.9272  -8.9058  -8.9013  -8.8524  -8.8264  -8.8235
    -8.7992  -8.7851  -8.7691  -8.7551  -8.7346  -8.7314  -8.6980  -8.6576
    -8.6368  -8.6291  -8.6016  -8.5957  -8.5742  -8.5393  -8.5186  -8.5009
    -8.4846  -8.4686  -8.4591  -8.4478  -8.4411  -8.4285  -8.4183  -8.3981
    -8.3784  -8.3554  -8.3350  -8.3126  -8.2933  -8.2604  -8.2503  -8.2372
    -8.2279  -8.2162  -8.2030  -8.1998  -8.1741  -8.1618  -8.1420  -8.1138
    -8.1110  -8.0976  -8.0679  -8.0631  -8.0446  -8.0117  -7.9975  -7.9871
    -7.9663  -7.9351  -7.9198  -7.8893  -6.2267  -5.3128  -5.0118  -4.2066
    -3.9767  -3.1064  -2.5596  -1.8049  -1.1091  -0.8757  -0.0972   0.5104
     0.8729   1.3823   1.9478   2.0853   2.5231   2.8968   3.1742   3.6300
     3.7681   4.0017

          k =-0.0799-0.0462 0.0000 ( 21576 PWs)   bands (ev):

    -9.0086  -8.9928  -8.9482  -8.9054  -8.8806  -8.8460  -8.8389  -8.8129
    -8.7979  -8.7898  -8.7892  -8.7683  -8.7379  -8.6913  -8.6714  -8.6682
    -8.6433  -8.6391  -8.6175  -8.5925  -8.5844  -8.5314  -8.4848  -8.4827
    -8.4700  -8.4544  -8.4466  -8.4279  -8.4240  -8.4183  -8.4026  -8.3866
    -8.3412  -8.3393  -8.3112  -8.2940  -8.2842  -8.2841  -8.2711  -8.2396
    -8.2356  -8.2304  -8.2292  -8.1877  -8.1803  -8.1651  -8.1597  -8.1545
    -8.1373  -8.1179  -8.1075  -8.1044  -8.0682  -8.0662  -7.9776  -7.9691
    -7.9415  -7.9347  -7.8638  -7.8602  -5.9556  -5.8543  -5.0048  -4.4001
    -3.0722  -2.7079  -2.5760  -2.1941  -1.6848  -1.3722   0.0113   0.6023
     0.8277   1.0285   2.5507   2.8707   2.9721   3.2246   3.3432   3.5874
     3.6755   3.7718

     the Fermi energy is     0.6662 ev

!    total energy              =   -1394.17312920 Ry
     Harris-Foulkes estimate   =   -1394.17312902 Ry
     estimated scf accuracy    <       0.00000001 Ry

     The total energy is the sum of the following terms:

     one-electron contribution =   -8412.21741728 Ry
     hartree contribution      =    4299.24820224 Ry
     xc contribution           =    -490.28661251 Ry
     ewald contribution        =    3209.11065325 Ry
     electric field correction =       0.00000243 Ry
     smearing contrib. (-TS)   =      -0.02795733 Ry

     convergence has been achieved in   9 iterations
 
 BEEF-vdW xc energy contributions
           1 :   -429.624412487837     
           2 :    392.946241643668     
           3 :   -331.093937612181     
           4 :    261.713988823259     
           5 :   -201.062340609560     
           6 :    158.150844702747     
           7 :   -133.051126719406     
           8 :    119.492825012642     
           9 :   -109.717185032627     
          10 :    98.7197875376582     
          11 :   -85.8491158549015     
          12 :    73.5451526746067     
          13 :   -64.6360757544231     
          14 :    60.1318947506565     
          15 :   -58.7346039343563     
          16 :    57.9775963019976     
          17 :   -55.9189034108985     
          18 :    52.1915323707530     
          19 :   -47.8654140520723     
          20 :    44.4363624188716     
          21 :   -42.7486705780865     
          22 :    42.5445031875639     
          23 :   -42.7995696036394     
          24 :    42.4747629677005     
          25 :   -41.1318394181674     
          26 :    39.0659789021486     
          27 :   -36.9796983272892     
          28 :    35.4921720827889     
          29 :   -34.8060083030963     
          30 :    34.6830192805427     
          31 :   -38.6736600209999     
          32 :   -28.2107038146920     

     Forces acting on atoms (Ry/au):


     negative rho (up, down):  2.604E-01 0.000E+00
     atom    1 type  1   force =     0.00190454    0.00109921   -0.01839980
     atom    2 type  1   force =    -0.00190454    0.00109935   -0.01839967
     atom    3 type  1   force =     0.00000014   -0.00219951   -0.01840004
     atom    4 type  1   force =     0.00000012   -0.00000010   -0.01956997
     atom    5 type  1   force =     0.00000111    0.00035136    0.01695863
     atom    6 type  1   force =    -0.00000017   -0.00000003    0.02040548
     atom    7 type  1   force =    -0.00030623   -0.00017750    0.01694811
     atom    8 type  1   force =     0.00030563   -0.00017578    0.01694932
     atom    9 type  1   force =     0.00001314    0.00004664    0.00019487
     atom   10 type  1   force =    -0.00000336   -0.00161764    0.00108096
     atom   11 type  1   force =    -0.00143634    0.00079087    0.00107761
     atom   12 type  1   force =     0.00142564    0.00078872    0.00108138
     atom   13 type  2   force =     0.00000033   -0.00000560    0.00007310

     Total force =     0.003392     Total SCF correction =     0.000345
     SCF correction compared to forces is large: reduce conv_thr to get better values


     entering subroutine stress ...


     negative rho (up, down):  2.604E-01 0.000E+00
          total   stress  (Ry/bohr**3)                   (kbar)     P=   -1.25
  -0.00003191   0.00000000  -0.00000000         -4.69      0.00     -0.00
   0.00000000  -0.00003190  -0.00000000          0.00     -4.69     -0.00
  -0.00000000  -0.00000000   0.00003824         -0.00     -0.00      5.63


     bfgs converged in  19 scf cycles and  18 bfgs steps
     (criteria: energy <  1.0E+00, force <  1.9E-03)

     End of BFGS Geometry Optimization

     Final energy   =   -1394.1731291990 Ry
Begin final coordinates

ATOMIC_POSITIONS (crystal)
Cd1      0.166666667   0.166666667   0.398302599    0   0   0
Cd1      0.666666667   0.166666667   0.398302599    0   0   0
Cd1      0.166666667   0.666666667   0.398302599    0   0   0
Cd1      0.666666667   0.666666667   0.398302599    0   0   0
Cd1      0.833333333   0.333333333   0.500000000    0   0   0
Cd1      0.333333333   0.333333333   0.500000000    0   0   0
Cd1      0.833333333   0.833333333   0.500000000    0   0   0
Cd1      0.333333333   0.833333333   0.500000000    0   0   0
Cd1      0.000000395  -0.000056524   0.611175146
Cd1      0.506571485  -0.013150107   0.615038320
Cd1     -0.013142880   0.506587654   0.615045905
Cd1      0.506564846   0.506611893   0.615041855
H1       0.333336838   0.333337319   0.651609537
End final coordinates



     Writing output data file calc.save
 
     init_run     :      5.52s CPU      7.28s WALL (       1 calls)
     electrons    :   2121.37s CPU   2815.22s WALL (      19 calls)
     update_pot   :     23.21s CPU     27.12s WALL (      18 calls)
     forces       :     86.92s CPU     92.61s WALL (      19 calls)
     stress       :    258.36s CPU    273.26s WALL (      19 calls)

     Called by init_run:
     wfcinit      :      3.43s CPU      4.84s WALL (       1 calls)
     potinit      :      0.70s CPU      0.87s WALL (       1 calls)

     Called by electrons:
     c_bands      :   1372.35s CPU   1841.21s WALL (     146 calls)
     sum_band     :    276.02s CPU    353.74s WALL (     146 calls)
     v_of_rho     :     81.66s CPU    109.12s WALL (     165 calls)
     newd         :    117.45s CPU    135.03s WALL (     165 calls)
     mix_rho      :      2.36s CPU      3.30s WALL (     146 calls)
     vdW_energy   :     84.64s CPU    108.34s WALL (     849 calls)
     vdW_ffts     :    133.81s CPU    184.85s WALL (    1736 calls)
     vdW_v        :     55.87s CPU     66.22s WALL (     849 calls)

     Called by c_bands:
     init_us_2    :     11.84s CPU     13.76s WALL (    6620 calls)
     cegterg      :   1295.60s CPU   1761.51s WALL (    2920 calls)

     Called by *egterg:
     h_psi        :    818.39s CPU   1211.75s WALL (   13146 calls)
     s_psi        :     60.62s CPU     63.61s WALL (   13146 calls)
     g_psi        :      7.82s CPU      7.85s WALL (   10206 calls)
     cdiaghg      :    197.76s CPU    201.42s WALL (   12766 calls)

     Called by h_psi:
     add_vuspsi   :     61.49s CPU     64.28s WALL (   13146 calls)

     General routines
     calbec       :     91.64s CPU     93.87s WALL (   16826 calls)
     fft          :    224.03s CPU    299.93s WALL (   50865 calls)
     ffts         :      0.20s CPU      0.33s WALL (     311 calls)
     fftw         :    639.13s CPU   1099.91s WALL ( 1566628 calls)
     interpolate  :      1.44s CPU      2.55s WALL (     311 calls)
     davcio       :      0.01s CPU      0.22s WALL (      20 calls)
 
     Parallel routines
     fft_scatter  :    505.05s CPU    790.52s WALL ( 1617804 calls)
 
     PWSCF        : 41m53.26s CPU    54m 4.10s WALL

 
   This run was terminated on:  13:49:40   4Feb2018            

=------------------------------------------------------------------------------=
   JOB DONE.
=------------------------------------------------------------------------------=
