  python dir    : /home/users/mamunm/src/decaf-espresso/decaf
espresso dir  : /home/users/jrboes/code/q-e/bin/pw.x
executable    : srun -D /tmp/qe_35722907rmrqq06t_scratch pw.x -in pw.pwi

     Program PWSCF v.6.1 starts on 17Jan2019 at  0:59:22 

     This program is part of the open-source Quantum ESPRESSO suite
     for quantum simulation of materials; please cite
         "P. Giannozzi et al., J. Phys.:Condens. Matter 21 395502 (2009);
          URL http://www.quantum-espresso.org", 
     in publications or presentations arising from this work. More details at
     http://www.quantum-espresso.org/quote

     Parallel version (MPI), running on    16 processors
     R & G space division:  proc/nbgrp/npool/nimage =      16
     Reading input from pw.pwi
Warning: card &CELL ignored
Warning: card / ignored

     Current dimensions of program PWSCF are:
     Max number of different atomic species (ntypx) = 10
     Max number of k-points (npk) =  40000
     Max angular momentum in pseudopotentials (lmaxx) =  3

     **************************************************************************
     Initializing libbeef V0.1.1 with the BEEF-vdW functional.
     Citation: Wellendorff et al., PRB 85, 235149 (2012).
     **************************************************************************


     IMPORTANT: XC functional enforced from input :
     Exchange-correlation      = BEEF-VDW ( 1  4 29 14 2 0)
     Any further DFT definition will be discarded
     Please, verify this is what you really want


     Subspace diagonalization in iterative solution of the eigenvalue problem:
     one sub-group per band group will be used
     scalapack distributed-memory algorithm (size of sub-group:  2*  2 procs)


     Parallelization info
     --------------------
     sticks:   dense  smooth     PW     G-vecs:    dense   smooth      PW
     Min         255     102     28                50117    12686    1926
     Max         256     103     29                50136    12701    1935
     Sum        4081    1639    463               801953   203051   30885



     bravais-lattice index     =            0
     lattice parameter (alat)  =      12.7122  a.u.
     unit-cell volume          =    6741.9071 (a.u.)^3
     number of atoms/cell      =           13
     number of atomic types    =            2
     number of electrons       =       172.00
     number of Kohn-Sham states=           96
     kinetic-energy cutoff     =      36.7493  Ry
     charge density cutoff     =     367.4933  Ry
     convergence threshold     =      1.0E-04
     mixing beta               =       0.2000
     number of iterations used =            8  plain     mixing
     Exchange-correlation      = BEEF-VDW ( 1  4 29 14 2 0)
     nstep                     =           50


     celldm(1)=  12.712175  celldm(2)=   0.000000  celldm(3)=   0.000000
     celldm(4)=   0.000000  celldm(5)=   0.000000  celldm(6)=   0.000000

     crystal axes: (cart. coord. in units of alat)
               a(1) = (   1.000000   0.000000   0.000000 )  
               a(2) = (   0.500000   0.866025   0.000000 )  
               a(3) = (   0.000000   0.000000   3.789593 )  

     reciprocal axes: (cart. coord. in units 2 pi/alat)
               b(1) = (  1.000000 -0.577350  0.000000 )  
               b(2) = (  0.000000  1.154701  0.000000 )  
               b(3) = (  0.000000  0.000000  0.263881 )  


     PseudoPot. # 1 for Sn read from file:
     /home/users/mamunm/src/decaf-espresso/gbrv15pbe/Sn.UPF
     MD5 check sum: 469debedee59599fedebd795477fea03
     Pseudo is Ultrasoft + core correction, Zval = 14.0
     Generated by new atomic code, or converted to UPF format
     Using radial grid of  891 points,  6 beta functions with: 
                l(1) =   0
                l(2) =   0
                l(3) =   1
                l(4) =   1
                l(5) =   2
                l(6) =   2
     Q(r) pseudized with  8 coefficients,  rinner =    1.350   1.350   1.350
                                                       1.350   1.350

     PseudoPot. # 2 for C  read from file:
     /home/users/mamunm/src/decaf-espresso/gbrv15pbe/C.UPF
     MD5 check sum: d1aef80898a10debaa0f26306b886e00
     Pseudo is Ultrasoft + core correction, Zval =  4.0
     Generated by new atomic code, or converted to UPF format
     Using radial grid of  721 points,  4 beta functions with: 
                l(1) =   0
                l(2) =   0
                l(3) =   1
                l(4) =   1
     Q(r) pseudized with  8 coefficients,  rinner =    1.100   1.100   1.100


     vdW kernel table read from file vdW_kernel_table
     MD5 check sum: 095c7af220d748ca6e76c0b4c6cfb241

     atomic species   valence    mass     pseudopotential
        Sn            14.00   118.71000     Sn( 1.00)
        C              4.00    12.01100     C ( 1.00)

     No symmetry found



   Cartesian axes

     site n.     atom                  positions (alat units)
         1           Sn  tau(   1) = (   0.2500000   0.1443376   1.4865483  )
         2           Sn  tau(   2) = (   0.7500000   0.1443376   1.4865483  )
         3           Sn  tau(   3) = (   0.5000000   0.5773503   1.4865483  )
         4           Sn  tau(   4) = (   1.0000000   0.5773503   1.4865483  )
         5           Sn  tau(   5) = (   1.0000000   0.2886751   1.8947966  )
         6           Sn  tau(   6) = (   0.5000000   0.2886751   1.8947966  )
         7           Sn  tau(   7) = (   1.2500000   0.7216878   1.8947966  )
         8           Sn  tau(   8) = (   0.7500000   0.7216878   1.8947966  )
         9           Sn  tau(   9) = (  -0.0000015  -0.0000012   2.2991034  )
        10           Sn  tau(  10) = (   0.5000081  -0.0013650   2.3246805  )
        11           Sn  tau(  11) = (   0.2488253   0.4336836   2.3246158  )
        12           Sn  tau(  12) = (   0.7511894   0.4336925   2.3246359  )
        13           C   tau(  13) = (  -0.0000061   0.0000044   2.6117771  )

     number of k points=    20  Fermi-Dirac smearing, width (Ry)=  0.0110
                       cart. coord. in units 2pi/alat
        k(    1) = (   0.0000000   0.0000000   0.0000000), wk =   0.0555556
        k(    2) = (   0.0000000   0.1924501   0.0000000), wk =   0.1111111
        k(    3) = (   0.0000000   0.3849002   0.0000000), wk =   0.1111111
        k(    4) = (   0.0000000  -0.5773503   0.0000000), wk =   0.0555556
        k(    5) = (   0.1666667  -0.0962250   0.0000000), wk =   0.1111111
        k(    6) = (   0.1666667   0.0962250   0.0000000), wk =   0.1111111
        k(    7) = (   0.1666667   0.2886751   0.0000000), wk =   0.1111111
        k(    8) = (   0.1666667  -0.6735753   0.0000000), wk =   0.1111111
        k(    9) = (   0.1666667  -0.4811252   0.0000000), wk =   0.1111111
        k(   10) = (   0.1666667  -0.2886751   0.0000000), wk =   0.1111111
        k(   11) = (   0.3333333  -0.1924501   0.0000000), wk =   0.1111111
        k(   12) = (   0.3333333   0.0000000   0.0000000), wk =   0.1111111
        k(   13) = (   0.3333333   0.1924501   0.0000000), wk =   0.1111111
        k(   14) = (   0.3333333  -0.7698004   0.0000000), wk =   0.1111111
        k(   15) = (   0.3333333  -0.5773503   0.0000000), wk =   0.1111111
        k(   16) = (   0.3333333  -0.3849002   0.0000000), wk =   0.1111111
        k(   17) = (  -0.5000000   0.2886751   0.0000000), wk =   0.0555556
        k(   18) = (  -0.5000000   0.4811252   0.0000000), wk =   0.1111111
        k(   19) = (  -0.5000000   0.6735753   0.0000000), wk =   0.1111111
        k(   20) = (  -0.5000000  -0.2886751   0.0000000), wk =   0.0555556

     Dense  grid:   801953 G-vectors     FFT dimensions: (  80,  80, 300)

     Smooth grid:   203051 G-vectors     FFT dimensions: (  50,  50, 192)

     Estimated max dynamical RAM per process >     103.11MB

     Estimated total allocated dynamical RAM >    1649.69MB

     Initial potential from superposition of free atoms
     Check: negative starting charge=   -0.001356

     starting charge  159.99942, renormalised to  172.00000

     negative rho (up, down):  1.458E-03 0.000E+00


     %%%%%%%%%%%%%%%%%%%%%%%%%%%%%%%%%%%%%%%%%%%%%%%%%%%%%%%%%%%%%%%%%%%%%%%%
     %                                                                      %
     % You are using vdW-DF, which was implemented by the Thonhauser group. %
     % Please cite the following two papers that made this development      %
     % possible and the two reviews that describe the various versions:     %
     %                                                                      %
     %   T. Thonhauser et al., PRL 115, 136402 (2015).                      %
     %   T. Thonhauser et al., PRB 76, 125112 (2007).                       %
     %   K. Berland et al., Rep. Prog. Phys. 78, 066501 (2015).             %
     %   D.C. Langreth et al., J. Phys.: Condens. Matter 21, 084203 (2009). %
     %                                                                      %
     %                                                                      %
     % If you are calculating the stress with vdW-DF, please also cite:     %
     %                                                                      %
     %   R. Sabatini et al., J. Phys.: Condens. Matter 24, 424209 (2012).   %
     %                                                                      %
     %%%%%%%%%%%%%%%%%%%%%%%%%%%%%%%%%%%%%%%%%%%%%%%%%%%%%%%%%%%%%%%%%%%%%%%%



     Adding external electric field

     Computed dipole along edir(3) : 
        Dipole               -2.7147 Ry au,         -6.9001 Debye
        Dipole field         -0.0051 Ry au, 

        Potential amp.        0.4388 Ry
        Total length         43.3566 bohr

     Starting wfc are  112 randomized atomic wfcs

     total cpu time spent up to now is        9.8 secs

     per-process dynamical memory:   125.3 Mb

     Self-consistent Calculation

     iteration #  1     ecut=    36.75 Ry     beta=0.20
     Davidson diagonalization with overlap
     ethr =  1.00E-02,  avg # of iterations =  6.5

     negative rho (up, down):  5.784E-04 0.000E+00

     Adding external electric field

     Computed dipole along edir(3) : 
        Dipole               17.7880 Ry au,         45.2125 Debye
        Dipole field          0.0332 Ry au, 

        Potential amp.       -2.8750 Ry
        Total length         43.3566 bohr


     total cpu time spent up to now is       42.7 secs

     total energy              =   -1923.44474300 Ry
     Harris-Foulkes estimate   =   -1945.26588161 Ry
     estimated scf accuracy    <      64.29018471 Ry

     iteration #  2     ecut=    36.75 Ry     beta=0.20
     Davidson diagonalization with overlap
     ethr =  1.00E-02,  avg # of iterations = 14.2

     Adding external electric field

     Computed dipole along edir(3) : 
        Dipole                0.4125 Ry au,          1.0484 Debye
        Dipole field          0.0008 Ry au, 

        Potential amp.       -0.0667 Ry
        Total length         43.3566 bohr


     total cpu time spent up to now is      104.7 secs

     total energy              =   -1847.83172887 Ry
     Harris-Foulkes estimate   =   -2002.68162332 Ry
     estimated scf accuracy    <    5390.46638419 Ry

     iteration #  3     ecut=    36.75 Ry     beta=0.20
     Davidson diagonalization with overlap
     ethr =  1.00E-02,  avg # of iterations =  7.2

     Adding external electric field

     Computed dipole along edir(3) : 
        Dipole                1.0786 Ry au,          2.7416 Debye
        Dipole field          0.0020 Ry au, 

        Potential amp.       -0.1743 Ry
        Total length         43.3566 bohr


     total cpu time spent up to now is      138.5 secs

     total energy              =   -1937.89991507 Ry
     Harris-Foulkes estimate   =   -1944.08036936 Ry
     estimated scf accuracy    <      89.02604812 Ry

     iteration #  4     ecut=    36.75 Ry     beta=0.20
     Davidson diagonalization with overlap
     ethr =  1.00E-02,  avg # of iterations =  4.0

     negative rho (up, down):  2.373E-02 0.000E+00

     Adding external electric field

     Computed dipole along edir(3) : 
        Dipole                0.6555 Ry au,          1.6661 Debye
        Dipole field          0.0012 Ry au, 

        Potential amp.       -0.1059 Ry
        Total length         43.3566 bohr


     total cpu time spent up to now is      158.9 secs

     total energy              =   -1939.48401943 Ry
     Harris-Foulkes estimate   =   -1940.65377424 Ry
     estimated scf accuracy    <       4.04042350 Ry

     iteration #  5     ecut=    36.75 Ry     beta=0.20
     Davidson diagonalization with overlap
     ethr =  2.35E-03,  avg # of iterations =  3.1

     negative rho (up, down):  1.283E-02 0.000E+00

     Adding external electric field

     Computed dipole along edir(3) : 
        Dipole                0.5101 Ry au,          1.2965 Debye
        Dipole field          0.0010 Ry au, 

        Potential amp.       -0.0824 Ry
        Total length         43.3566 bohr


     total cpu time spent up to now is      176.1 secs

     total energy              =   -1939.41668626 Ry
     Harris-Foulkes estimate   =   -1939.90827674 Ry
     estimated scf accuracy    <       2.94938364 Ry

     iteration #  6     ecut=    36.75 Ry     beta=0.20
     Davidson diagonalization with overlap
     ethr =  1.71E-03,  avg # of iterations =  2.2

     negative rho (up, down):  5.188E-02 0.000E+00

     Adding external electric field

     Computed dipole along edir(3) : 
        Dipole                0.6090 Ry au,          1.5480 Debye
        Dipole field          0.0011 Ry au, 

        Potential amp.       -0.0984 Ry
        Total length         43.3566 bohr


     total cpu time spent up to now is      190.4 secs

     total energy              =   -1939.40736305 Ry
     Harris-Foulkes estimate   =   -1939.63394811 Ry
     estimated scf accuracy    <       1.20579055 Ry

     iteration #  7     ecut=    36.75 Ry     beta=0.20
     Davidson diagonalization with overlap
     ethr =  7.01E-04,  avg # of iterations =  1.4

     negative rho (up, down):  4.726E-02 0.000E+00

     Adding external electric field

     Computed dipole along edir(3) : 
        Dipole                0.4616 Ry au,          1.1732 Debye
        Dipole field          0.0009 Ry au, 

        Potential amp.       -0.0746 Ry
        Total length         43.3566 bohr


     total cpu time spent up to now is      203.6 secs

     total energy              =   -1939.46280287 Ry
     Harris-Foulkes estimate   =   -1939.52435428 Ry
     estimated scf accuracy    <       0.38467004 Ry

     iteration #  8     ecut=    36.75 Ry     beta=0.20
     Davidson diagonalization with overlap
     ethr =  2.24E-04,  avg # of iterations =  3.1

     negative rho (up, down):  5.624E-02 0.000E+00

     Adding external electric field

     Computed dipole along edir(3) : 
        Dipole                0.0879 Ry au,          0.2234 Debye
        Dipole field          0.0002 Ry au, 

        Potential amp.       -0.0142 Ry
        Total length         43.3566 bohr


     total cpu time spent up to now is      218.9 secs

     total energy              =   -1939.47209690 Ry
     Harris-Foulkes estimate   =   -1939.49336438 Ry
     estimated scf accuracy    <       0.08297002 Ry

     iteration #  9     ecut=    36.75 Ry     beta=0.20
     Davidson diagonalization with overlap
     ethr =  4.82E-05,  avg # of iterations =  5.3

     negative rho (up, down):  4.774E-02 0.000E+00

     Adding external electric field

     Computed dipole along edir(3) : 
        Dipole               -0.0130 Ry au,         -0.0330 Debye
        Dipole field         -0.0000 Ry au, 

        Potential amp.        0.0021 Ry
        Total length         43.3566 bohr


     total cpu time spent up to now is      237.8 secs

     total energy              =   -1939.47763776 Ry
     Harris-Foulkes estimate   =   -1939.48727142 Ry
     estimated scf accuracy    <       0.04186600 Ry

     iteration # 10     ecut=    36.75 Ry     beta=0.20
     Davidson diagonalization with overlap
     ethr =  2.43E-05,  avg # of iterations =  2.5

     negative rho (up, down):  4.015E-02 0.000E+00

     Adding external electric field

     Computed dipole along edir(3) : 
        Dipole               -0.1200 Ry au,         -0.3051 Debye
        Dipole field         -0.0002 Ry au, 

        Potential amp.        0.0194 Ry
        Total length         43.3566 bohr


     total cpu time spent up to now is      253.7 secs

     total energy              =   -1939.48000465 Ry
     Harris-Foulkes estimate   =   -1939.48119016 Ry
     estimated scf accuracy    <       0.00501464 Ry

     iteration # 11     ecut=    36.75 Ry     beta=0.20
     Davidson diagonalization with overlap
     ethr =  2.92E-06,  avg # of iterations =  6.7

     negative rho (up, down):  2.785E-02 0.000E+00

     Adding external electric field

     Computed dipole along edir(3) : 
        Dipole               -0.3220 Ry au,         -0.8185 Debye
        Dipole field         -0.0006 Ry au, 

        Potential amp.        0.0520 Ry
        Total length         43.3566 bohr


     total cpu time spent up to now is      274.4 secs

     total energy              =   -1939.47921461 Ry
     Harris-Foulkes estimate   =   -1939.48042099 Ry
     estimated scf accuracy    <       0.00417363 Ry

     iteration # 12     ecut=    36.75 Ry     beta=0.20
     Davidson diagonalization with overlap
     ethr =  2.43E-06,  avg # of iterations =  2.9

     negative rho (up, down):  1.039E-02 0.000E+00

     Adding external electric field

     Computed dipole along edir(3) : 
        Dipole               -0.5049 Ry au,         -1.2833 Debye
        Dipole field         -0.0009 Ry au, 

        Potential amp.        0.0816 Ry
        Total length         43.3566 bohr


     total cpu time spent up to now is      288.7 secs

     total energy              =   -1939.47824306 Ry
     Harris-Foulkes estimate   =   -1939.47919170 Ry
     estimated scf accuracy    <       0.00141995 Ry

     iteration # 13     ecut=    36.75 Ry     beta=0.20
     Davidson diagonalization with overlap
     ethr =  8.26E-07,  avg # of iterations =  3.1

     negative rho (up, down):  4.549E-03 0.000E+00

     Adding external electric field

     Computed dipole along edir(3) : 
        Dipole               -0.5445 Ry au,         -1.3839 Debye
        Dipole field         -0.0010 Ry au, 

        Potential amp.        0.0880 Ry
        Total length         43.3566 bohr


     total cpu time spent up to now is      305.2 secs

     total energy              =   -1939.47807752 Ry
     Harris-Foulkes estimate   =   -1939.47835384 Ry
     estimated scf accuracy    <       0.00069298 Ry

     iteration # 14     ecut=    36.75 Ry     beta=0.20
     Davidson diagonalization with overlap
     ethr =  4.03E-07,  avg # of iterations =  3.0

     negative rho (up, down):  4.309E-04 0.000E+00

     Adding external electric field

     Computed dipole along edir(3) : 
        Dipole               -0.6135 Ry au,         -1.5593 Debye
        Dipole field         -0.0011 Ry au, 

        Potential amp.        0.0992 Ry
        Total length         43.3566 bohr


     total cpu time spent up to now is      319.9 secs

     End of self-consistent calculation

          k = 0.0000 0.0000 0.0000 ( 25377 PWs)   bands (ev):

   -21.8667 -21.8667 -21.8654 -21.8377 -21.8260 -21.8235 -21.8234 -21.8095
   -21.8095 -21.8079 -21.8010 -21.8010 -21.7934 -21.7683 -21.7665 -21.7664
   -21.7651 -21.7612 -21.7612 -21.7581 -21.7580 -21.7521 -21.7470 -21.7470
   -21.7391 -21.7390 -21.7324 -21.7285 -21.7285 -21.7199 -21.7092 -21.7092
   -21.7091 -21.7009 -21.7009 -21.6986 -21.6768 -21.6768 -21.6412 -21.6403
   -21.6403 -21.6327 -21.6309 -21.6309 -21.6155 -21.6155 -21.6087 -21.6086
   -21.6075 -21.6050 -21.6050 -21.5962 -21.5898 -21.5818 -21.5817 -21.4017
   -21.4017 -21.3682 -21.2966 -21.2966 -10.4972  -9.7826  -8.6260  -7.3740
    -6.3667  -6.3666  -6.3168  -5.8694  -5.8693  -5.6722  -5.0761  -5.0760
    -4.7040  -3.7095  -3.7094  -3.6200  -2.9495  -2.5325  -2.5324  -2.4561
    -2.4065  -2.4064  -2.3294  -0.2758   0.1457   0.4118   0.4119   1.1971
     1.3018   1.3018   1.5166   1.5166   2.6154   2.8945   2.8951   2.8953

          k = 0.0000 0.1925 0.0000 ( 25365 PWs)   bands (ev):

   -21.8648 -21.8570 -21.8566 -21.8352 -21.8233 -21.8216 -21.8208 -21.8087
   -21.8038 -21.8018 -21.7964 -21.7951 -21.7938 -21.7708 -21.7666 -21.7648
   -21.7624 -21.7576 -21.7564 -21.7526 -21.7500 -21.7492 -21.7471 -21.7428
   -21.7398 -21.7371 -21.7322 -21.7256 -21.7218 -21.7174 -21.7109 -21.7096
   -21.7081 -21.7061 -21.7028 -21.7010 -21.6794 -21.6774 -21.6456 -21.6434
   -21.6430 -21.6355 -21.6345 -21.6319 -21.6205 -21.6195 -21.6159 -21.6147
   -21.6133 -21.6119 -21.6070 -21.6008 -21.5960 -21.5906 -21.5867 -21.4052
   -21.4035 -21.3692 -21.2970 -21.2967 -10.3802  -9.7116  -8.5729  -7.3744
    -7.1901  -6.6354  -6.5904  -6.1628  -5.8043  -5.5918  -5.0516  -4.9974
    -4.6678  -3.4157  -3.3668  -3.1286  -2.8064  -2.6536  -2.6141  -2.3643
    -1.7818  -1.7738  -1.1751  -0.2405  -0.1798   0.2628   0.4063   0.8209
     1.1817   1.2504   1.6827   1.8782   2.0138   2.0854   2.7299   2.9078

          k = 0.0000 0.3849 0.0000 ( 25367 PWs)   bands (ev):

   -21.8613 -21.8336 -21.8323 -21.8289 -21.8216 -21.8145 -21.8129 -21.8101
   -21.7997 -21.7965 -21.7935 -21.7809 -21.7719 -21.7690 -21.7683 -21.7672
   -21.7639 -21.7572 -21.7523 -21.7470 -21.7462 -21.7418 -21.7386 -21.7325
   -21.7285 -21.7279 -21.7248 -21.7224 -21.7150 -21.7126 -21.7116 -21.7079
   -21.7069 -21.7042 -21.7031 -21.6994 -21.6807 -21.6749 -21.6607 -21.6565
   -21.6519 -21.6471 -21.6446 -21.6422 -21.6348 -21.6348 -21.6299 -21.6253
   -21.6222 -21.6216 -21.6196 -21.6193 -21.6106 -21.5989 -21.5899 -21.4125
   -21.4075 -21.3711 -21.2978 -21.2969 -10.0553  -9.5320  -8.4743  -8.2522
    -7.2253  -6.9940  -6.9339  -6.7446  -5.9330  -5.8558  -5.4347  -4.8323
    -4.5471  -2.7598  -2.7404  -2.4804  -2.0637  -2.0177  -1.6455  -1.3410
    -1.0471  -1.0038  -0.6054  -0.1557  -0.0923   0.0632   0.2978   0.5685
     0.6887   1.0819   1.1196   1.2277   1.5681   1.7326   1.9726   2.2333

          k = 0.0000-0.5774 0.0000 ( 25386 PWs)   bands (ev):

   -21.8594 -21.8238 -21.8221 -21.8203 -21.8123 -21.8094 -21.8041 -21.8040
   -21.8022 -21.7925 -21.7907 -21.7867 -21.7816 -21.7789 -21.7677 -21.7645
   -21.7532 -21.7511 -21.7476 -21.7456 -21.7426 -21.7421 -21.7321 -21.7286
   -21.7270 -21.7222 -21.7191 -21.7166 -21.7143 -21.7120 -21.7109 -21.7054
   -21.6990 -21.6985 -21.6963 -21.6798 -21.6787 -21.6773 -21.6704 -21.6631
   -21.6604 -21.6576 -21.6547 -21.6540 -21.6484 -21.6460 -21.6423 -21.6397
   -21.6352 -21.6273 -21.6244 -21.6215 -21.6131 -21.5992 -21.5903 -21.4163
   -21.4096 -21.3720 -21.2982 -21.2971  -9.7876  -9.2523  -9.0738  -8.1105
    -7.6809  -7.0426  -7.0167  -6.5554  -6.3369  -6.0089  -5.5761  -4.8001
    -4.5049  -2.0407  -1.8995  -1.8915  -1.8556  -1.7601  -1.6576  -0.9063
    -0.8933  -0.7269  -0.5487  -0.2023   0.1477   0.3150   0.4035   0.5978
     0.7689   0.8705   0.8900   1.2048   1.3763   1.4613   1.4786   1.8585

          k = 0.1667-0.0962 0.0000 ( 25365 PWs)   bands (ev):

   -21.8648 -21.8570 -21.8566 -21.8352 -21.8234 -21.8216 -21.8208 -21.8087
   -21.8038 -21.8017 -21.7964 -21.7951 -21.7938 -21.7707 -21.7667 -21.7648
   -21.7624 -21.7576 -21.7564 -21.7526 -21.7500 -21.7492 -21.7471 -21.7428
   -21.7398 -21.7371 -21.7321 -21.7257 -21.7219 -21.7174 -21.7109 -21.7096
   -21.7081 -21.7061 -21.7028 -21.7010 -21.6794 -21.6774 -21.6456 -21.6434
   -21.6430 -21.6355 -21.6345 -21.6319 -21.6205 -21.6195 -21.6159 -21.6147
   -21.6133 -21.6119 -21.6070 -21.6008 -21.5960 -21.5906 -21.5866 -21.4052
   -21.4035 -21.3692 -21.2970 -21.2967 -10.3802  -9.7116  -8.5729  -7.3744
    -7.1901  -6.6354  -6.5904  -6.1628  -5.8042  -5.5918  -5.0515  -4.9974
    -4.6677  -3.4158  -3.3667  -3.1286  -2.8064  -2.6535  -2.6141  -2.3643
    -1.7818  -1.7737  -1.1750  -0.2406  -0.1798   0.2628   0.4063   0.8210
     1.1817   1.2503   1.6827   1.8783   2.0138   2.0853   2.7300   2.9078

          k = 0.1667 0.0962 0.0000 ( 25365 PWs)   bands (ev):

   -21.8648 -21.8570 -21.8566 -21.8352 -21.8234 -21.8216 -21.8208 -21.8087
   -21.8038 -21.8017 -21.7964 -21.7951 -21.7938 -21.7707 -21.7667 -21.7648
   -21.7624 -21.7576 -21.7564 -21.7526 -21.7500 -21.7492 -21.7471 -21.7428
   -21.7398 -21.7371 -21.7321 -21.7257 -21.7219 -21.7174 -21.7109 -21.7096
   -21.7081 -21.7061 -21.7028 -21.7010 -21.6794 -21.6774 -21.6456 -21.6434
   -21.6430 -21.6355 -21.6345 -21.6319 -21.6205 -21.6195 -21.6159 -21.6147
   -21.6133 -21.6119 -21.6070 -21.6008 -21.5960 -21.5906 -21.5866 -21.4052
   -21.4035 -21.3692 -21.2970 -21.2967 -10.3802  -9.7116  -8.5729  -7.3744
    -7.1901  -6.6354  -6.5904  -6.1628  -5.8043  -5.5918  -5.0515  -4.9974
    -4.6677  -3.4158  -3.3667  -3.1286  -2.8064  -2.6536  -2.6141  -2.3643
    -1.7818  -1.7737  -1.1751  -0.2406  -0.1798   0.2628   0.4063   0.8210
     1.1817   1.2503   1.6827   1.8783   2.0138   2.0853   2.7299   2.9069

          k = 0.1667 0.2887 0.0000 ( 25362 PWs)   bands (ev):

   -21.8569 -21.8509 -21.8352 -21.8301 -21.8204 -21.8192 -21.8135 -21.8105
   -21.7983 -21.7979 -21.7904 -21.7893 -21.7768 -21.7725 -21.7678 -21.7609
   -21.7606 -21.7551 -21.7539 -21.7521 -21.7505 -21.7415 -21.7397 -21.7378
   -21.7310 -21.7284 -21.7245 -21.7213 -21.7193 -21.7183 -21.7137 -21.7111
   -21.7056 -21.7047 -21.7024 -21.7015 -21.6831 -21.6754 -21.6577 -21.6519
   -21.6459 -21.6430 -21.6412 -21.6341 -21.6324 -21.6301 -21.6277 -21.6271
   -21.6196 -21.6183 -21.6151 -21.6065 -21.6064 -21.5975 -21.5964 -21.4104
   -21.4067 -21.3708 -21.2975 -21.2969 -10.1572  -9.5866  -8.4624  -7.7543
    -7.7257  -7.1238  -6.6720  -6.3443  -6.0052  -5.5248  -5.2946  -5.0559
    -4.6172  -3.2753  -2.6036  -2.4283  -2.3743  -2.1595  -2.0342  -1.6596
    -1.5712  -0.7876  -0.6865  -0.1888  -0.1089   0.0611   0.1339   0.5956
     0.7104   1.0781   1.2756   1.6843   1.9548   2.0007   2.2554   2.3274

          k = 0.1667-0.6736 0.0000 ( 25368 PWs)   bands (ev):

   -21.8519 -21.8290 -21.8237 -21.8195 -21.8169 -21.8138 -21.8098 -21.8042
   -21.8025 -21.7893 -21.7869 -21.7833 -21.7790 -21.7695 -21.7665 -21.7635
   -21.7550 -21.7502 -21.7481 -21.7447 -21.7429 -21.7400 -21.7350 -21.7331
   -21.7280 -21.7254 -21.7219 -21.7187 -21.7173 -21.7123 -21.7069 -21.7052
   -21.7039 -21.6986 -21.6944 -21.6910 -21.6806 -21.6759 -21.6676 -21.6644
   -21.6595 -21.6577 -21.6520 -21.6483 -21.6448 -21.6427 -21.6406 -21.6360
   -21.6299 -21.6256 -21.6221 -21.6202 -21.6136 -21.6067 -21.5976 -21.4151
   -21.4104 -21.3723 -21.2980 -21.2972  -9.8233  -9.3416  -8.7158  -8.1595
    -7.9641  -7.4396  -6.8683  -6.5138  -6.0045  -5.8567  -5.3686  -4.9993
    -4.5371  -2.6473  -2.1675  -1.8989  -1.6788  -1.5410  -1.3687  -1.1119
    -0.9453  -0.6488  -0.5240  -0.3508   0.0456   0.1245   0.3510   0.4840
     0.7716   0.9372   1.1389   1.4341   1.6533   1.7251   1.9418   2.1188

          k = 0.1667-0.4811 0.0000 ( 25368 PWs)   bands (ev):

   -21.8519 -21.8290 -21.8237 -21.8195 -21.8169 -21.8138 -21.8098 -21.8042
   -21.8025 -21.7893 -21.7869 -21.7833 -21.7790 -21.7695 -21.7665 -21.7635
   -21.7550 -21.7502 -21.7481 -21.7447 -21.7429 -21.7400 -21.7350 -21.7331
   -21.7280 -21.7254 -21.7219 -21.7187 -21.7173 -21.7123 -21.7069 -21.7052
   -21.7039 -21.6986 -21.6944 -21.6910 -21.6806 -21.6759 -21.6676 -21.6644
   -21.6595 -21.6577 -21.6520 -21.6483 -21.6448 -21.6427 -21.6406 -21.6360
   -21.6299 -21.6256 -21.6221 -21.6202 -21.6136 -21.6067 -21.5976 -21.4151
   -21.4104 -21.3723 -21.2980 -21.2972  -9.8233  -9.3416  -8.7158  -8.1595
    -7.9641  -7.4396  -6.8683  -6.5137  -6.0046  -5.8567  -5.3686  -4.9993
    -4.5371  -2.6473  -2.1675  -1.8989  -1.6788  -1.5410  -1.3686  -1.1119
    -0.9453  -0.6488  -0.5240  -0.3508   0.0456   0.1245   0.3510   0.4840
     0.7716   0.9372   1.1389   1.4342   1.6533   1.7251   1.9418   2.1187

          k = 0.1667-0.2887 0.0000 ( 25362 PWs)   bands (ev):

   -21.8569 -21.8509 -21.8352 -21.8301 -21.8204 -21.8192 -21.8135 -21.8105
   -21.7983 -21.7979 -21.7904 -21.7893 -21.7768 -21.7725 -21.7678 -21.7609
   -21.7606 -21.7551 -21.7539 -21.7521 -21.7505 -21.7415 -21.7397 -21.7378
   -21.7310 -21.7284 -21.7245 -21.7213 -21.7193 -21.7183 -21.7137 -21.7111
   -21.7056 -21.7047 -21.7024 -21.7015 -21.6831 -21.6754 -21.6577 -21.6519
   -21.6459 -21.6430 -21.6412 -21.6341 -21.6324 -21.6301 -21.6277 -21.6271
   -21.6196 -21.6183 -21.6151 -21.6065 -21.6064 -21.5975 -21.5964 -21.4104
   -21.4067 -21.3708 -21.2975 -21.2969 -10.1572  -9.5866  -8.4624  -7.7543
    -7.7256  -7.1238  -6.6720  -6.3443  -6.0052  -5.5248  -5.2946  -5.0559
    -4.6172  -3.2753  -2.6036  -2.4283  -2.3743  -2.1595  -2.0343  -1.6596
    -1.5712  -0.7876  -0.6865  -0.1888  -0.1089   0.0611   0.1339   0.5956
     0.7104   1.0781   1.2756   1.6843   1.9548   2.0007   2.2553   2.3273

          k = 0.3333-0.1925 0.0000 ( 25367 PWs)   bands (ev):

   -21.8613 -21.8336 -21.8323 -21.8288 -21.8217 -21.8144 -21.8129 -21.8101
   -21.7997 -21.7965 -21.7935 -21.7808 -21.7720 -21.7690 -21.7683 -21.7673
   -21.7639 -21.7572 -21.7523 -21.7470 -21.7462 -21.7418 -21.7386 -21.7325
   -21.7285 -21.7279 -21.7248 -21.7224 -21.7150 -21.7126 -21.7117 -21.7079
   -21.7069 -21.7042 -21.7031 -21.6994 -21.6807 -21.6749 -21.6606 -21.6565
   -21.6518 -21.6471 -21.6446 -21.6422 -21.6349 -21.6348 -21.6299 -21.6253
   -21.6223 -21.6216 -21.6196 -21.6194 -21.6106 -21.5990 -21.5898 -21.4125
   -21.4075 -21.3711 -21.2978 -21.2969 -10.0553  -9.5319  -8.4742  -8.2524
    -7.2254  -6.9941  -6.9338  -6.7445  -5.9329  -5.8557  -5.4347  -4.8324
    -4.5470  -2.7598  -2.7403  -2.4804  -2.0637  -2.0177  -1.6455  -1.3411
    -1.0471  -1.0039  -0.6053  -0.1559  -0.0922   0.0631   0.2978   0.5684
     0.6886   1.0819   1.1196   1.2279   1.5681   1.7327   1.9725   2.2332

          k = 0.3333 0.0000 0.0000 ( 25362 PWs)   bands (ev):

   -21.8570 -21.8509 -21.8352 -21.8301 -21.8205 -21.8192 -21.8135 -21.8105
   -21.7983 -21.7979 -21.7904 -21.7893 -21.7767 -21.7725 -21.7679 -21.7609
   -21.7606 -21.7551 -21.7539 -21.7521 -21.7505 -21.7415 -21.7397 -21.7378
   -21.7310 -21.7283 -21.7245 -21.7213 -21.7193 -21.7183 -21.7137 -21.7111
   -21.7056 -21.7047 -21.7024 -21.7015 -21.6831 -21.6754 -21.6577 -21.6519
   -21.6460 -21.6430 -21.6412 -21.6341 -21.6324 -21.6301 -21.6277 -21.6271
   -21.6196 -21.6183 -21.6151 -21.6065 -21.6065 -21.5974 -21.5964 -21.4104
   -21.4067 -21.3708 -21.2975 -21.2969 -10.1572  -9.5866  -8.4624  -7.7544
    -7.7256  -7.1238  -6.6720  -6.3442  -6.0052  -5.5248  -5.2945  -5.0560
    -4.6171  -3.2753  -2.6036  -2.4282  -2.3744  -2.1595  -2.0343  -1.6596
    -1.5712  -0.7876  -0.6864  -0.1888  -0.1089   0.0610   0.1339   0.5956
     0.7104   1.0781   1.2756   1.6842   1.9550   2.0007   2.2554   2.3272

          k = 0.3333 0.1925 0.0000 ( 25367 PWs)   bands (ev):

   -21.8613 -21.8336 -21.8323 -21.8288 -21.8217 -21.8144 -21.8129 -21.8101
   -21.7997 -21.7965 -21.7935 -21.7808 -21.7720 -21.7690 -21.7683 -21.7673
   -21.7639 -21.7572 -21.7523 -21.7470 -21.7462 -21.7419 -21.7386 -21.7325
   -21.7285 -21.7279 -21.7248 -21.7224 -21.7150 -21.7126 -21.7117 -21.7079
   -21.7069 -21.7042 -21.7031 -21.6994 -21.6807 -21.6749 -21.6607 -21.6565
   -21.6518 -21.6471 -21.6446 -21.6422 -21.6349 -21.6348 -21.6299 -21.6253
   -21.6223 -21.6216 -21.6196 -21.6194 -21.6106 -21.5990 -21.5898 -21.4125
   -21.4075 -21.3711 -21.2978 -21.2969 -10.0553  -9.5320  -8.4743  -8.2523
    -7.2253  -6.9940  -6.9338  -6.7445  -5.9330  -5.8557  -5.4347  -4.8324
    -4.5470  -2.7598  -2.7404  -2.4804  -2.0637  -2.0177  -1.6455  -1.3411
    -1.0471  -1.0038  -0.6053  -0.1558  -0.0922   0.0631   0.2978   0.5684
     0.6886   1.0819   1.1196   1.2278   1.5681   1.7327   1.9726   2.2336

          k = 0.3333-0.7698 0.0000 ( 25368 PWs)   bands (ev):

   -21.8520 -21.8289 -21.8237 -21.8195 -21.8168 -21.8137 -21.8098 -21.8042
   -21.8026 -21.7892 -21.7869 -21.7833 -21.7790 -21.7695 -21.7665 -21.7635
   -21.7550 -21.7502 -21.7481 -21.7447 -21.7429 -21.7400 -21.7350 -21.7331
   -21.7280 -21.7254 -21.7219 -21.7187 -21.7173 -21.7124 -21.7069 -21.7052
   -21.7039 -21.6985 -21.6944 -21.6909 -21.6806 -21.6759 -21.6676 -21.6644
   -21.6595 -21.6577 -21.6520 -21.6483 -21.6448 -21.6427 -21.6406 -21.6360
   -21.6299 -21.6256 -21.6221 -21.6202 -21.6136 -21.6067 -21.5975 -21.4151
   -21.4104 -21.3723 -21.2980 -21.2972  -9.8233  -9.3415  -8.7157  -8.1596
    -7.9641  -7.4396  -6.8682  -6.5139  -6.0045  -5.8567  -5.3687  -4.9993
    -4.5371  -2.6473  -2.1675  -1.8989  -1.6788  -1.5410  -1.3686  -1.1119
    -0.9453  -0.6489  -0.5240  -0.3508   0.0456   0.1246   0.3511   0.4839
     0.7714   0.9372   1.1389   1.4341   1.6532   1.7252   1.9418   2.1188

          k = 0.3333-0.5774 0.0000 ( 25314 PWs)   bands (ev):

   -21.8372 -21.8256 -21.8255 -21.8163 -21.8128 -21.8116 -21.8109 -21.8093
   -21.8074 -21.7944 -21.7911 -21.7714 -21.7621 -21.7605 -21.7594 -21.7548
   -21.7542 -21.7538 -21.7499 -21.7495 -21.7469 -21.7379 -21.7376 -21.7326
   -21.7314 -21.7291 -21.7216 -21.7178 -21.7128 -21.7082 -21.7080 -21.7060
   -21.7006 -21.6934 -21.6855 -21.6847 -21.6825 -21.6804 -21.6709 -21.6690
   -21.6686 -21.6643 -21.6569 -21.6526 -21.6446 -21.6443 -21.6404 -21.6346
   -21.6296 -21.6244 -21.6237 -21.6230 -21.6160 -21.6153 -21.6108 -21.4139
   -21.4139 -21.3730 -21.2979 -21.2976  -9.7165  -8.8831  -8.8615  -8.7311
    -7.7599  -7.7181  -7.2211  -6.2208  -6.1971  -5.6865  -5.1987  -4.9804
    -4.6204  -2.1940  -2.1115  -2.0525  -1.6964  -1.6687  -1.5431  -0.8370
    -0.7962  -0.6565   0.0011   0.0740   0.1704   0.4350   0.4634   0.5576
     0.9156   1.0779   1.0842   1.2663   1.2864   1.7783   1.9244   2.1292

          k = 0.3333-0.3849 0.0000 ( 25368 PWs)   bands (ev):

   -21.8520 -21.8289 -21.8237 -21.8195 -21.8168 -21.8137 -21.8098 -21.8042
   -21.8026 -21.7892 -21.7869 -21.7833 -21.7790 -21.7695 -21.7665 -21.7635
   -21.7550 -21.7502 -21.7481 -21.7447 -21.7429 -21.7400 -21.7350 -21.7331
   -21.7280 -21.7254 -21.7219 -21.7187 -21.7173 -21.7124 -21.7069 -21.7052
   -21.7039 -21.6985 -21.6944 -21.6909 -21.6806 -21.6759 -21.6676 -21.6644
   -21.6595 -21.6577 -21.6520 -21.6483 -21.6448 -21.6427 -21.6406 -21.6360
   -21.6299 -21.6256 -21.6221 -21.6202 -21.6136 -21.6067 -21.5975 -21.4151
   -21.4104 -21.3723 -21.2980 -21.2972  -9.8233  -9.3415  -8.7157  -8.1596
    -7.9641  -7.4397  -6.8682  -6.5138  -6.0045  -5.8567  -5.3687  -4.9993
    -4.5371  -2.6473  -2.1675  -1.8988  -1.6788  -1.5410  -1.3686  -1.1118
    -0.9453  -0.6489  -0.5240  -0.3509   0.0456   0.1246   0.3511   0.4838
     0.7714   0.9372   1.1389   1.4342   1.6532   1.7252   1.9419   2.1189

          k =-0.5000 0.2887 0.0000 ( 25386 PWs)   bands (ev):

   -21.8595 -21.8237 -21.8222 -21.8203 -21.8123 -21.8093 -21.8042 -21.8041
   -21.8022 -21.7923 -21.7906 -21.7866 -21.7815 -21.7789 -21.7677 -21.7646
   -21.7532 -21.7511 -21.7475 -21.7456 -21.7426 -21.7421 -21.7321 -21.7286
   -21.7271 -21.7222 -21.7191 -21.7166 -21.7143 -21.7120 -21.7109 -21.7054
   -21.6991 -21.6984 -21.6962 -21.6798 -21.6786 -21.6773 -21.6704 -21.6631
   -21.6604 -21.6577 -21.6547 -21.6540 -21.6484 -21.6460 -21.6423 -21.6397
   -21.6352 -21.6274 -21.6244 -21.6215 -21.6131 -21.5993 -21.5902 -21.4163
   -21.4096 -21.3720 -21.2982 -21.2971  -9.7877  -9.2522  -9.0739  -8.1104
    -7.6811  -7.0426  -7.0166  -6.5556  -6.3367  -6.0089  -5.5761  -4.8001
    -4.5048  -2.0407  -1.8996  -1.8913  -1.8556  -1.7602  -1.6575  -0.9062
    -0.8932  -0.7271  -0.5487  -0.2024   0.1477   0.3149   0.4034   0.5978
     0.7692   0.8705   0.8898   1.2048   1.3763   1.4613   1.4785   1.8585

          k =-0.5000 0.4811 0.0000 ( 25368 PWs)   bands (ev):

   -21.8520 -21.8290 -21.8237 -21.8195 -21.8168 -21.8137 -21.8098 -21.8042
   -21.8025 -21.7892 -21.7869 -21.7832 -21.7790 -21.7695 -21.7665 -21.7635
   -21.7550 -21.7502 -21.7481 -21.7447 -21.7429 -21.7400 -21.7350 -21.7331
   -21.7280 -21.7254 -21.7219 -21.7187 -21.7173 -21.7123 -21.7069 -21.7052
   -21.7040 -21.6985 -21.6944 -21.6909 -21.6806 -21.6759 -21.6676 -21.6644
   -21.6595 -21.6577 -21.6520 -21.6483 -21.6447 -21.6427 -21.6407 -21.6360
   -21.6299 -21.6257 -21.6221 -21.6202 -21.6136 -21.6067 -21.5975 -21.4151
   -21.4104 -21.3723 -21.2980 -21.2972  -9.8233  -9.3415  -8.7157  -8.1596
    -7.9641  -7.4397  -6.8683  -6.5137  -6.0045  -5.8567  -5.3688  -4.9993
    -4.5370  -2.6473  -2.1676  -1.8988  -1.6788  -1.5410  -1.3686  -1.1119
    -0.9453  -0.6488  -0.5240  -0.3508   0.0456   0.1246   0.3511   0.4838
     0.7714   0.9371   1.1389   1.4343   1.6532   1.7252   1.9419   2.1187

          k =-0.5000 0.6736 0.0000 ( 25368 PWs)   bands (ev):

   -21.8520 -21.8290 -21.8237 -21.8195 -21.8168 -21.8137 -21.8098 -21.8042
   -21.8025 -21.7892 -21.7869 -21.7832 -21.7790 -21.7695 -21.7665 -21.7635
   -21.7550 -21.7502 -21.7481 -21.7447 -21.7429 -21.7400 -21.7350 -21.7331
   -21.7280 -21.7254 -21.7219 -21.7187 -21.7173 -21.7123 -21.7069 -21.7052
   -21.7039 -21.6985 -21.6944 -21.6909 -21.6806 -21.6759 -21.6676 -21.6644
   -21.6595 -21.6577 -21.6520 -21.6483 -21.6448 -21.6427 -21.6407 -21.6360
   -21.6299 -21.6257 -21.6221 -21.6202 -21.6136 -21.6067 -21.5975 -21.4151
   -21.4104 -21.3723 -21.2980 -21.2972  -9.8233  -9.3415  -8.7157  -8.1595
    -7.9642  -7.4396  -6.8683  -6.5137  -6.0046  -5.8567  -5.3687  -4.9993
    -4.5370  -2.6473  -2.1676  -1.8988  -1.6788  -1.5410  -1.3686  -1.1119
    -0.9453  -0.6488  -0.5240  -0.3508   0.0456   0.1245   0.3510   0.4839
     0.7715   0.9371   1.1389   1.4343   1.6532   1.7251   1.9419   2.1188

          k =-0.5000-0.2887 0.0000 ( 25386 PWs)   bands (ev):

   -21.8595 -21.8237 -21.8222 -21.8203 -21.8123 -21.8093 -21.8042 -21.8041
   -21.8022 -21.7923 -21.7906 -21.7866 -21.7815 -21.7789 -21.7677 -21.7646
   -21.7532 -21.7511 -21.7475 -21.7456 -21.7426 -21.7421 -21.7321 -21.7286
   -21.7271 -21.7222 -21.7191 -21.7166 -21.7143 -21.7120 -21.7109 -21.7054
   -21.6991 -21.6984 -21.6963 -21.6799 -21.6786 -21.6772 -21.6704 -21.6631
   -21.6604 -21.6577 -21.6547 -21.6540 -21.6484 -21.6460 -21.6423 -21.6397
   -21.6352 -21.6274 -21.6244 -21.6215 -21.6131 -21.5993 -21.5902 -21.4163
   -21.4096 -21.3720 -21.2982 -21.2971  -9.7877  -9.2522  -9.0739  -8.1104
    -7.6811  -7.0426  -7.0167  -6.5555  -6.3367  -6.0089  -5.5761  -4.8001
    -4.5048  -2.0407  -1.8996  -1.8914  -1.8556  -1.7601  -1.6576  -0.9062
    -0.8932  -0.7270  -0.5487  -0.2023   0.1477   0.3149   0.4034   0.5978
     0.7691   0.8705   0.8898   1.2048   1.3763   1.4613   1.4786   1.8585

     the Fermi energy is     0.2653 ev

!    total energy              =   -1939.47808930 Ry
     Harris-Foulkes estimate   =   -1939.47801686 Ry
     estimated scf accuracy    <       0.00006213 Ry

     The total energy is the sum of the following terms:

     one-electron contribution =  -10332.43448339 Ry
     hartree contribution      =    5228.53188352 Ry
     xc contribution           =    -537.12890619 Ry
     ewald contribution        =    3701.60503372 Ry
     electric field correction =       0.00070151 Ry
     smearing contrib. (-TS)   =      -0.05231848 Ry

     convergence has been achieved in  14 iterations

     negative rho (up, down):  4.309E-04 0.000E+00

     Forces acting on atoms (cartesian axes, Ry/au):

     atom    1 type  1   force =    -0.00135249   -0.00064570   -0.00329582
     atom    2 type  1   force =     0.00128433   -0.00069586   -0.00317759
     atom    3 type  1   force =     0.00003141    0.00156502   -0.00315730
     atom    4 type  1   force =    -0.00007516   -0.00004204   -0.00238255
     atom    5 type  1   force =    -0.00002799    0.00000703   -0.00374420
     atom    6 type  1   force =     0.00000417   -0.00007651    0.00523886
     atom    7 type  1   force =    -0.00004733   -0.00002150   -0.00376934
     atom    8 type  1   force =     0.00015986   -0.00005204   -0.00386447
     atom    9 type  1   force =     0.00004107    0.00002792    0.00395807
     atom   10 type  1   force =    -0.00003922    0.00097312    0.00505581
     atom   11 type  1   force =     0.00084310   -0.00052122    0.00520255
     atom   12 type  1   force =    -0.00083064   -0.00049887    0.00507068
     atom   13 type  2   force =     0.00000889   -0.00001934   -0.00113470

     Total force =     0.009908     Total SCF correction =     0.015206
     SCF correction compared to forces is large: reduce conv_thr to get better values

     BFGS Geometry Optimization

     number of scf cycles    =   1
     number of bfgs steps    =   0

     energy   new            =   -1939.4780892994 Ry

     new trust radius        =       0.0052961369 bohr
     new conv_thr            =       0.0001000000 Ry


ATOMIC_POSITIONS (angstrom)
Sn       1.681748263   0.970957812  10.000000000    0   0   0
Sn       5.045244789   0.970957812  10.000000000    0   0   0
Sn       3.363496526   3.883831250  10.000000000    0   0   0
Sn       6.726993052   3.883831250  10.000000000    0   0   0
Sn       6.726993052   1.941915625  12.746283414    0   0   0
Sn       3.363496526   1.941915625  12.746283414    0   0   0
Sn       8.408741315   4.854789062  12.746283414    0   0   0
Sn       5.045244789   4.854789062  12.746283414    0   0   0
Sn       0.000011770   0.000006455  15.468146978
Sn       3.363530241  -0.008667446  15.640784962
Sn       1.674291944   2.917110999  15.640427328
Sn       5.052806326   2.917182308  15.640492500
C       -0.000036561   0.000019657  17.568805756



     Writing output data file calc.save
     Check: negative starting charge=   -0.001356
     NEW-OLD atomic charge density approx. for the potential
     Check: negative starting charge=   -0.001357

     negative rho (up, down):  4.315E-04 0.000E+00

     Adding external electric field

     Computed dipole along edir(3) : 
        Dipole               -0.5942 Ry au,         -1.5103 Debye
        Dipole field         -0.0011 Ry au, 

        Potential amp.        0.0960 Ry
        Total length         43.3566 bohr


     total cpu time spent up to now is      328.2 secs

     per-process dynamical memory:   189.8 Mb

     Self-consistent Calculation

     iteration #  1     ecut=    36.75 Ry     beta=0.20
     Davidson diagonalization with overlap
     ethr =  1.00E-06,  avg # of iterations =  4.5

     negative rho (up, down):  4.314E-04 0.000E+00

     Adding external electric field

     Computed dipole along edir(3) : 
        Dipole               -0.7286 Ry au,         -1.8519 Debye
        Dipole field         -0.0014 Ry au, 

        Potential amp.        0.1178 Ry
        Total length         43.3566 bohr


     total cpu time spent up to now is      354.5 secs

     total energy              =   -1939.47451300 Ry
     Harris-Foulkes estimate   =   -1939.47838087 Ry
     estimated scf accuracy    <       0.01224007 Ry

     iteration #  2     ecut=    36.75 Ry     beta=0.20
     Davidson diagonalization with overlap
     ethr =  7.12E-06,  avg # of iterations =  5.0

     negative rho (up, down):  4.290E-04 0.000E+00

     Adding external electric field

     Computed dipole along edir(3) : 
        Dipole               -0.5349 Ry au,         -1.3596 Debye
        Dipole field         -0.0010 Ry au, 

        Potential amp.        0.0865 Ry
        Total length         43.3566 bohr


     total cpu time spent up to now is      373.6 secs

     total energy              =   -1939.46711293 Ry
     Harris-Foulkes estimate   =   -1939.48816307 Ry
     estimated scf accuracy    <       0.41570426 Ry

     iteration #  3     ecut=    36.75 Ry     beta=0.20
     Davidson diagonalization with overlap
     ethr =  7.12E-06,  avg # of iterations =  5.7

     negative rho (up, down):  4.295E-04 0.000E+00

     Adding external electric field

     Computed dipole along edir(3) : 
        Dipole               -0.5961 Ry au,         -1.5152 Debye
        Dipole field         -0.0011 Ry au, 

        Potential amp.        0.0963 Ry
        Total length         43.3566 bohr


     total cpu time spent up to now is      393.0 secs

     total energy              =   -1939.47694291 Ry
     Harris-Foulkes estimate   =   -1939.47924113 Ry
     estimated scf accuracy    <       0.03739532 Ry

     iteration #  4     ecut=    36.75 Ry     beta=0.20
     Davidson diagonalization with overlap
     ethr =  7.12E-06,  avg # of iterations =  3.2

     negative rho (up, down):  4.310E-04 0.000E+00

     Adding external electric field

     Computed dipole along edir(3) : 
        Dipole               -0.5793 Ry au,         -1.4725 Debye
        Dipole field         -0.0011 Ry au, 

        Potential amp.        0.0936 Ry
        Total length         43.3566 bohr


     total cpu time spent up to now is      407.8 secs

     End of self-consistent calculation

          k = 0.0000 0.0000 0.0000 ( 25377 PWs)   bands (ev):

   -21.8843 -21.8843 -21.8829 -21.8560 -21.8448 -21.8423 -21.8423 -21.8290
   -21.8290 -21.8284 -21.8194 -21.8194 -21.8120 -21.7892 -21.7874 -21.7856
   -21.7855 -21.7830 -21.7830 -21.7799 -21.7799 -21.7740 -21.7662 -21.7662
   -21.7583 -21.7583 -21.7573 -21.7517 -21.7516 -21.7430 -21.7310 -21.7305
   -21.7305 -21.7218 -21.7218 -21.7159 -21.6981 -21.6981 -21.6633 -21.6633
   -21.6627 -21.6567 -21.6541 -21.6541 -21.6372 -21.6372 -21.6314 -21.6314
   -21.6274 -21.6261 -21.6261 -21.6185 -21.6145 -21.6048 -21.6048 -21.4165
   -21.4165 -21.3864 -21.3128 -21.3128 -10.5134  -9.8037  -8.6428  -7.3932
    -6.3840  -6.3840  -6.3339  -5.8854  -5.8853  -5.6884  -5.0948  -5.0948
    -4.7187  -3.7250  -3.7249  -3.6362  -2.9677  -2.5512  -2.5512  -2.4738
    -2.4247  -2.4247  -2.3482  -0.2984   0.1247   0.3933   0.3933   1.1768
     1.2822   1.2825   1.4963   1.4964   2.5827   2.8796   2.8797   2.8798

          k = 0.0000 0.1925 0.0000 ( 25365 PWs)   bands (ev):

   -21.8824 -21.8747 -21.8741 -21.8534 -21.8420 -21.8404 -21.8394 -21.8275
   -21.8224 -21.8216 -21.8165 -21.8138 -21.8133 -21.7897 -21.7856 -21.7851
   -21.7842 -21.7785 -21.7782 -21.7751 -21.7733 -21.7704 -21.7677 -21.7618
   -21.7591 -21.7562 -21.7555 -21.7494 -21.7450 -21.7401 -21.7319 -21.7314
   -21.7291 -21.7254 -21.7241 -21.7211 -21.7008 -21.6988 -21.6676 -21.6661
   -21.6659 -21.6594 -21.6577 -21.6550 -21.6418 -21.6406 -21.6378 -21.6370
   -21.6343 -21.6333 -21.6298 -21.6230 -21.6206 -21.6137 -21.6095 -21.4201
   -21.4184 -21.3874 -21.3132 -21.3130 -10.3965  -9.7329  -8.5893  -7.3926
    -7.2078  -6.6523  -6.6073  -6.1792  -5.8210  -5.6080  -5.0706  -5.0162
    -4.6834  -3.4316  -3.3833  -3.1451  -2.8243  -2.6713  -2.6318  -2.3808
    -1.8006  -1.7926  -1.1941  -0.2609  -0.2026   0.2439   0.3863   0.8027
     1.1630   1.2296   1.6640   1.8581   1.9965   2.0680   2.6969   2.8898

          k = 0.0000 0.3849 0.0000 ( 25367 PWs)   bands (ev):

   -21.8789 -21.8510 -21.8502 -21.8472 -21.8401 -21.8330 -21.8316 -21.8281
   -21.8183 -21.8143 -21.8137 -21.7996 -21.7930 -21.7897 -21.7886 -21.7855
   -21.7823 -21.7798 -21.7728 -21.7686 -21.7646 -21.7629 -21.7606 -21.7546
   -21.7507 -21.7494 -21.7475 -21.7435 -21.7350 -21.7348 -21.7321 -21.7291
   -21.7289 -21.7259 -21.7242 -21.7212 -21.7032 -21.6972 -21.6828 -21.6791
   -21.6750 -21.6685 -21.6680 -21.6647 -21.6583 -21.6576 -21.6516 -21.6474
   -21.6457 -21.6434 -21.6418 -21.6405 -21.6328 -21.6232 -21.6124 -21.4273
   -21.4224 -21.3893 -21.3140 -21.3132 -10.0724  -9.5529  -8.4898  -8.2694
    -7.2429  -7.0109  -6.9505  -6.7621  -5.9499  -5.8740  -5.4514  -4.8518
    -4.5640  -2.7758  -2.7570  -2.4991  -2.0809  -2.0344  -1.6617  -1.3595
    -1.0660  -1.0226  -0.6242  -0.1745  -0.1107   0.0418   0.2784   0.5511
     0.6689   1.0624   1.1021   1.2091   1.5515   1.7122   1.9555   2.2127

          k = 0.0000-0.5774 0.0000 ( 25386 PWs)   bands (ev):

   -21.8771 -21.8420 -21.8405 -21.8381 -21.8308 -21.8279 -21.8226 -21.8225
   -21.8204 -21.8096 -21.8092 -21.8054 -21.8011 -21.7990 -21.7859 -21.7818
   -21.7762 -21.7724 -21.7694 -21.7680 -21.7645 -21.7629 -21.7531 -21.7491
   -21.7491 -21.7441 -21.7387 -21.7374 -21.7353 -21.7317 -21.7314 -21.7273
   -21.7227 -21.7209 -21.7187 -21.7017 -21.6996 -21.6971 -21.6936 -21.6874
   -21.6835 -21.6819 -21.6776 -21.6774 -21.6722 -21.6684 -21.6655 -21.6611
   -21.6562 -21.6506 -21.6471 -21.6423 -21.6349 -21.6234 -21.6127 -21.4311
   -21.4245 -21.3901 -21.3144 -21.3133  -9.8075  -9.2680  -9.0932  -8.1268
    -7.6964  -7.0592  -7.0336  -6.5748  -6.3560  -6.0258  -5.5914  -4.8197
    -4.5222  -2.0600  -1.9170  -1.9077  -1.8745  -1.7765  -1.6730  -0.9251
    -0.9122  -0.7435  -0.5662  -0.2226   0.1281   0.2966   0.3860   0.5794
     0.7493   0.8534   0.8691   1.1863   1.3576   1.4427   1.4612   1.8395

          k = 0.1667-0.0962 0.0000 ( 25365 PWs)   bands (ev):

   -21.8824 -21.8747 -21.8741 -21.8534 -21.8419 -21.8404 -21.8394 -21.8275
   -21.8224 -21.8216 -21.8165 -21.8138 -21.8133 -21.7897 -21.7856 -21.7851
   -21.7842 -21.7785 -21.7781 -21.7750 -21.7733 -21.7704 -21.7677 -21.7618
   -21.7591 -21.7562 -21.7556 -21.7494 -21.7450 -21.7401 -21.7319 -21.7314
   -21.7291 -21.7254 -21.7241 -21.7211 -21.7008 -21.6988 -21.6676 -21.6661
   -21.6659 -21.6594 -21.6577 -21.6550 -21.6418 -21.6406 -21.6378 -21.6370
   -21.6343 -21.6333 -21.6297 -21.6230 -21.6205 -21.6137 -21.6095 -21.4201
   -21.4184 -21.3874 -21.3132 -21.3130 -10.3965  -9.7329  -8.5893  -7.3926
    -7.2078  -6.6523  -6.6073  -6.1793  -5.8209  -5.6080  -5.0706  -5.0162
    -4.6834  -3.4317  -3.3832  -3.1451  -2.8244  -2.6712  -2.6318  -2.3809
    -1.8006  -1.7926  -1.1941  -0.2609  -0.2027   0.2438   0.3863   0.8028
     1.1631   1.2295   1.6640   1.8582   1.9965   2.0679   2.6969   2.8898

          k = 0.1667 0.0962 0.0000 ( 25365 PWs)   bands (ev):

   -21.8824 -21.8747 -21.8741 -21.8534 -21.8419 -21.8404 -21.8395 -21.8275
   -21.8224 -21.8216 -21.8165 -21.8138 -21.8133 -21.7897 -21.7856 -21.7851
   -21.7842 -21.7785 -21.7781 -21.7750 -21.7733 -21.7704 -21.7677 -21.7618
   -21.7591 -21.7562 -21.7556 -21.7494 -21.7450 -21.7401 -21.7319 -21.7314
   -21.7291 -21.7254 -21.7241 -21.7211 -21.7008 -21.6988 -21.6676 -21.6661
   -21.6659 -21.6594 -21.6577 -21.6550 -21.6418 -21.6406 -21.6378 -21.6370
   -21.6343 -21.6333 -21.6297 -21.6230 -21.6205 -21.6137 -21.6095 -21.4201
   -21.4184 -21.3874 -21.3132 -21.3130 -10.3965  -9.7329  -8.5893  -7.3926
    -7.2078  -6.6523  -6.6073  -6.1793  -5.8209  -5.6080  -5.0706  -5.0162
    -4.6834  -3.4317  -3.3832  -3.1451  -2.8244  -2.6713  -2.6318  -2.3808
    -1.8006  -1.7926  -1.1941  -0.2609  -0.2027   0.2438   0.3863   0.8027
     1.1631   1.2295   1.6640   1.8582   1.9965   2.0679   2.6969   2.8897

          k = 0.1667 0.2887 0.0000 ( 25362 PWs)   bands (ev):

   -21.8745 -21.8685 -21.8527 -21.8485 -21.8391 -21.8376 -21.8322 -21.8285
   -21.8168 -21.8162 -21.8107 -21.8096 -21.7953 -21.7934 -21.7863 -21.7818
   -21.7796 -21.7765 -21.7751 -21.7730 -21.7716 -21.7635 -21.7615 -21.7578
   -21.7533 -21.7510 -21.7473 -21.7414 -21.7397 -21.7390 -21.7348 -21.7324
   -21.7275 -21.7261 -21.7239 -21.7235 -21.7045 -21.6978 -21.6800 -21.6745
   -21.6687 -21.6661 -21.6648 -21.6569 -21.6536 -21.6528 -21.6501 -21.6479
   -21.6412 -21.6397 -21.6372 -21.6308 -21.6299 -21.6202 -21.6190 -21.4252
   -21.4215 -21.3889 -21.3138 -21.3132 -10.1739  -9.6079  -8.4783  -7.7702
    -7.7432  -7.1431  -6.6887  -6.3597  -6.0227  -5.5415  -5.3139  -5.0750
    -4.6331  -3.2911  -2.6223  -2.4444  -2.3903  -2.1779  -2.0526  -1.6772
    -1.5877  -0.8070  -0.7061  -0.2086  -0.1284   0.0390   0.1170   0.5771
     0.6908   1.0593   1.2584   1.6632   1.9329   1.9829   2.2391   2.3110

          k = 0.1667-0.6736 0.0000 ( 25368 PWs)   bands (ev):

   -21.8695 -21.8471 -21.8413 -21.8380 -21.8349 -21.8322 -21.8281 -21.8227
   -21.8211 -21.8070 -21.8051 -21.8015 -21.7988 -21.7888 -21.7864 -21.7844
   -21.7756 -21.7717 -21.7683 -21.7654 -21.7643 -21.7609 -21.7571 -21.7535
   -21.7490 -21.7470 -21.7439 -21.7398 -21.7379 -21.7344 -21.7279 -21.7267
   -21.7253 -21.7197 -21.7176 -21.7129 -21.7026 -21.6987 -21.6902 -21.6868
   -21.6831 -21.6798 -21.6751 -21.6699 -21.6673 -21.6653 -21.6636 -21.6583
   -21.6520 -21.6488 -21.6446 -21.6420 -21.6356 -21.6306 -21.6201 -21.4298
   -21.4252 -21.3905 -21.3142 -21.3135  -9.8424  -9.3604  -8.7326  -8.1754
    -7.9810  -7.4558  -6.8861  -6.5314  -6.0223  -5.8747  -5.3876  -5.0164
    -4.5535  -2.6633  -2.1865  -1.9164  -1.6959  -1.5601  -1.3850  -1.1303
    -0.9627  -0.6658  -0.5424  -0.3694   0.0262   0.1056   0.3310   0.4647
     0.7537   0.9170   1.1214   1.4136   1.6366   1.7072   1.9235   2.1005

          k = 0.1667-0.4811 0.0000 ( 25368 PWs)   bands (ev):

   -21.8695 -21.8471 -21.8413 -21.8380 -21.8349 -21.8322 -21.8281 -21.8227
   -21.8211 -21.8070 -21.8051 -21.8015 -21.7988 -21.7888 -21.7864 -21.7844
   -21.7756 -21.7717 -21.7683 -21.7654 -21.7643 -21.7609 -21.7570 -21.7535
   -21.7490 -21.7470 -21.7439 -21.7398 -21.7379 -21.7344 -21.7279 -21.7267
   -21.7253 -21.7197 -21.7176 -21.7129 -21.7026 -21.6987 -21.6902 -21.6868
   -21.6831 -21.6798 -21.6751 -21.6699 -21.6673 -21.6653 -21.6636 -21.6583
   -21.6520 -21.6488 -21.6446 -21.6420 -21.6356 -21.6306 -21.6201 -21.4298
   -21.4252 -21.3905 -21.3142 -21.3135  -9.8425  -9.3604  -8.7326  -8.1754
    -7.9811  -7.4558  -6.8861  -6.5314  -6.0223  -5.8747  -5.3876  -5.0164
    -4.5534  -2.6633  -2.1865  -1.9164  -1.6959  -1.5601  -1.3850  -1.1303
    -0.9628  -0.6658  -0.5424  -0.3694   0.0262   0.1056   0.3310   0.4647
     0.7537   0.9170   1.1213   1.4137   1.6366   1.7071   1.9235   2.1005

          k = 0.1667-0.2887 0.0000 ( 25362 PWs)   bands (ev):

   -21.8745 -21.8685 -21.8527 -21.8485 -21.8391 -21.8376 -21.8322 -21.8285
   -21.8168 -21.8162 -21.8107 -21.8096 -21.7953 -21.7934 -21.7863 -21.7818
   -21.7796 -21.7765 -21.7751 -21.7729 -21.7716 -21.7635 -21.7615 -21.7578
   -21.7533 -21.7510 -21.7473 -21.7414 -21.7397 -21.7390 -21.7348 -21.7324
   -21.7275 -21.7261 -21.7239 -21.7235 -21.7045 -21.6978 -21.6800 -21.6745
   -21.6687 -21.6661 -21.6648 -21.6569 -21.6536 -21.6528 -21.6501 -21.6479
   -21.6412 -21.6397 -21.6372 -21.6308 -21.6299 -21.6202 -21.6190 -21.4252
   -21.4215 -21.3889 -21.3138 -21.3132 -10.1739  -9.6079  -8.4783  -7.7703
    -7.7432  -7.1431  -6.6887  -6.3597  -6.0227  -5.5415  -5.3139  -5.0750
    -4.6331  -3.2911  -2.6223  -2.4444  -2.3903  -2.1779  -2.0527  -1.6772
    -1.5877  -0.8070  -0.7061  -0.2087  -0.1284   0.0390   0.1170   0.5771
     0.6909   1.0592   1.2584   1.6632   1.9329   1.9829   2.2391   2.3110

          k = 0.3333-0.1925 0.0000 ( 25367 PWs)   bands (ev):

   -21.8789 -21.8510 -21.8502 -21.8472 -21.8401 -21.8330 -21.8316 -21.8281
   -21.8183 -21.8143 -21.8137 -21.7996 -21.7930 -21.7897 -21.7886 -21.7855
   -21.7823 -21.7797 -21.7728 -21.7686 -21.7646 -21.7629 -21.7606 -21.7546
   -21.7507 -21.7494 -21.7475 -21.7435 -21.7350 -21.7348 -21.7321 -21.7291
   -21.7289 -21.7259 -21.7242 -21.7212 -21.7032 -21.6972 -21.6828 -21.6791
   -21.6750 -21.6685 -21.6680 -21.6647 -21.6584 -21.6576 -21.6516 -21.6474
   -21.6457 -21.6434 -21.6418 -21.6405 -21.6328 -21.6231 -21.6124 -21.4273
   -21.4224 -21.3893 -21.3140 -21.3132 -10.0724  -9.5529  -8.4897  -8.2695
    -7.2430  -7.0109  -6.9505  -6.7621  -5.9498  -5.8739  -5.4514  -4.8518
    -4.5639  -2.7758  -2.7570  -2.4991  -2.0808  -2.0344  -1.6617  -1.3595
    -1.0659  -1.0226  -0.6242  -0.1746  -0.1107   0.0417   0.2784   0.5510
     0.6689   1.0624   1.1021   1.2093   1.5515   1.7123   1.9554   2.2126

          k = 0.3333 0.0000 0.0000 ( 25362 PWs)   bands (ev):

   -21.8745 -21.8685 -21.8527 -21.8485 -21.8391 -21.8376 -21.8322 -21.8285
   -21.8168 -21.8162 -21.8107 -21.8096 -21.7953 -21.7934 -21.7863 -21.7818
   -21.7796 -21.7765 -21.7751 -21.7729 -21.7716 -21.7635 -21.7615 -21.7578
   -21.7533 -21.7510 -21.7473 -21.7414 -21.7397 -21.7390 -21.7348 -21.7325
   -21.7275 -21.7261 -21.7239 -21.7235 -21.7045 -21.6978 -21.6800 -21.6745
   -21.6686 -21.6661 -21.6648 -21.6569 -21.6536 -21.6528 -21.6501 -21.6479
   -21.6412 -21.6397 -21.6372 -21.6308 -21.6299 -21.6203 -21.6190 -21.4252
   -21.4215 -21.3889 -21.3138 -21.3132 -10.1739  -9.6079  -8.4782  -7.7703
    -7.7431  -7.1432  -6.6887  -6.3596  -6.0227  -5.5415  -5.3138  -5.0750
    -4.6331  -3.2911  -2.6223  -2.4443  -2.3904  -2.1779  -2.0526  -1.6772
    -1.5877  -0.8071  -0.7060  -0.2087  -0.1284   0.0389   0.1170   0.5771
     0.6908   1.0593   1.2583   1.6631   1.9330   1.9829   2.2392   2.3110

          k = 0.3333 0.1925 0.0000 ( 25367 PWs)   bands (ev):

   -21.8789 -21.8510 -21.8502 -21.8472 -21.8401 -21.8330 -21.8316 -21.8281
   -21.8183 -21.8143 -21.8137 -21.7996 -21.7930 -21.7897 -21.7886 -21.7855
   -21.7823 -21.7797 -21.7728 -21.7686 -21.7646 -21.7629 -21.7606 -21.7546
   -21.7507 -21.7494 -21.7475 -21.7435 -21.7350 -21.7348 -21.7321 -21.7291
   -21.7289 -21.7259 -21.7242 -21.7212 -21.7032 -21.6972 -21.6828 -21.6791
   -21.6750 -21.6685 -21.6680 -21.6647 -21.6583 -21.6576 -21.6516 -21.6474
   -21.6457 -21.6434 -21.6418 -21.6405 -21.6328 -21.6231 -21.6124 -21.4273
   -21.4224 -21.3893 -21.3140 -21.3132 -10.0724  -9.5529  -8.4898  -8.2695
    -7.2430  -7.0109  -6.9505  -6.7621  -5.9498  -5.8739  -5.4514  -4.8518
    -4.5640  -2.7758  -2.7570  -2.4991  -2.0808  -2.0344  -1.6617  -1.3595
    -1.0659  -1.0226  -0.6242  -0.1746  -0.1107   0.0417   0.2784   0.5510
     0.6689   1.0624   1.1021   1.2092   1.5515   1.7123   1.9555   2.2127

          k = 0.3333-0.7698 0.0000 ( 25368 PWs)   bands (ev):

   -21.8695 -21.8471 -21.8413 -21.8380 -21.8349 -21.8322 -21.8281 -21.8227
   -21.8211 -21.8070 -21.8051 -21.8015 -21.7988 -21.7888 -21.7864 -21.7844
   -21.7756 -21.7717 -21.7683 -21.7654 -21.7643 -21.7609 -21.7570 -21.7535
   -21.7490 -21.7470 -21.7439 -21.7398 -21.7379 -21.7344 -21.7279 -21.7267
   -21.7253 -21.7197 -21.7176 -21.7129 -21.7026 -21.6987 -21.6902 -21.6868
   -21.6831 -21.6798 -21.6751 -21.6699 -21.6673 -21.6653 -21.6636 -21.6583
   -21.6520 -21.6488 -21.6445 -21.6420 -21.6356 -21.6306 -21.6202 -21.4298
   -21.4252 -21.3905 -21.3142 -21.3135  -9.8425  -9.3603  -8.7325  -8.1755
    -7.9810  -7.4559  -6.8860  -6.5314  -6.0223  -5.8747  -5.3877  -5.0164
    -4.5535  -2.6633  -2.1865  -1.9164  -1.6959  -1.5602  -1.3849  -1.1303
    -0.9627  -0.6658  -0.5424  -0.3694   0.0262   0.1057   0.3311   0.4646
     0.7536   0.9170   1.1214   1.4136   1.6366   1.7072   1.9235   2.1005

          k = 0.3333-0.5774 0.0000 ( 25314 PWs)   bands (ev):

   -21.8544 -21.8441 -21.8440 -21.8349 -21.8301 -21.8295 -21.8291 -21.8270
   -21.8259 -21.8128 -21.8095 -21.7900 -21.7812 -21.7811 -21.7804 -21.7751
   -21.7733 -21.7721 -21.7720 -21.7696 -21.7675 -21.7587 -21.7568 -21.7545
   -21.7527 -21.7505 -21.7440 -21.7404 -21.7360 -21.7308 -21.7296 -21.7274
   -21.7216 -21.7171 -21.7086 -21.7063 -21.7036 -21.7000 -21.6934 -21.6930
   -21.6904 -21.6864 -21.6801 -21.6746 -21.6676 -21.6658 -21.6634 -21.6578
   -21.6523 -21.6478 -21.6472 -21.6456 -21.6384 -21.6375 -21.6333 -21.4287
   -21.4287 -21.3912 -21.3141 -21.3138  -9.7373  -8.8984  -8.8777  -8.7503
    -7.7752  -7.7357  -7.2365  -6.2398  -6.2168  -5.7043  -5.2158  -5.0004
    -4.6338  -2.2126  -2.1253  -2.0684  -1.7152  -1.6883  -1.5623  -0.8565
    -0.8161  -0.6742  -0.0173   0.0555   0.1510   0.4167   0.4462   0.5386
     0.8984   1.0608   1.0660   1.2452   1.2675   1.7587   1.9094   2.0828

          k = 0.3333-0.3849 0.0000 ( 25368 PWs)   bands (ev):

   -21.8695 -21.8471 -21.8413 -21.8380 -21.8349 -21.8322 -21.8281 -21.8227
   -21.8211 -21.8070 -21.8051 -21.8015 -21.7988 -21.7888 -21.7864 -21.7844
   -21.7756 -21.7717 -21.7683 -21.7654 -21.7643 -21.7609 -21.7570 -21.7535
   -21.7490 -21.7470 -21.7439 -21.7398 -21.7379 -21.7344 -21.7279 -21.7267
   -21.7254 -21.7197 -21.7176 -21.7129 -21.7026 -21.6987 -21.6902 -21.6868
   -21.6831 -21.6798 -21.6751 -21.6699 -21.6673 -21.6653 -21.6636 -21.6583
   -21.6520 -21.6488 -21.6445 -21.6420 -21.6356 -21.6306 -21.6202 -21.4298
   -21.4252 -21.3905 -21.3142 -21.3135  -9.8425  -9.3603  -8.7325  -8.1755
    -7.9810  -7.4559  -6.8860  -6.5314  -6.0223  -5.8747  -5.3877  -5.0164
    -4.5534  -2.6633  -2.1865  -1.9164  -1.6959  -1.5602  -1.3849  -1.1303
    -0.9628  -0.6658  -0.5424  -0.3695   0.0262   0.1057   0.3310   0.4646
     0.7535   0.9171   1.1214   1.4137   1.6365   1.7072   1.9235   2.1006

          k =-0.5000 0.2887 0.0000 ( 25386 PWs)   bands (ev):

   -21.8770 -21.8420 -21.8405 -21.8381 -21.8308 -21.8279 -21.8226 -21.8225
   -21.8204 -21.8096 -21.8092 -21.8054 -21.8011 -21.7990 -21.7859 -21.7818
   -21.7762 -21.7724 -21.7694 -21.7680 -21.7645 -21.7629 -21.7531 -21.7491
   -21.7491 -21.7441 -21.7387 -21.7374 -21.7353 -21.7317 -21.7314 -21.7273
   -21.7227 -21.7209 -21.7187 -21.7017 -21.6996 -21.6971 -21.6936 -21.6874
   -21.6835 -21.6818 -21.6776 -21.6773 -21.6722 -21.6684 -21.6655 -21.6611
   -21.6562 -21.6506 -21.6471 -21.6423 -21.6349 -21.6234 -21.6128 -21.4311
   -21.4245 -21.3901 -21.3144 -21.3133  -9.8076  -9.2679  -9.0932  -8.1267
    -7.6965  -7.0592  -7.0336  -6.5749  -6.3559  -6.0258  -5.5914  -4.8198
    -4.5222  -2.0600  -1.9170  -1.9076  -1.8744  -1.7766  -1.6729  -0.9251
    -0.9122  -0.7437  -0.5662  -0.2226   0.1281   0.2964   0.3859   0.5794
     0.7495   0.8534   0.8690   1.1863   1.3576   1.4427   1.4611   1.8395

          k =-0.5000 0.4811 0.0000 ( 25368 PWs)   bands (ev):

   -21.8695 -21.8471 -21.8413 -21.8380 -21.8349 -21.8322 -21.8281 -21.8227
   -21.8211 -21.8070 -21.8051 -21.8015 -21.7988 -21.7888 -21.7864 -21.7844
   -21.7756 -21.7717 -21.7683 -21.7654 -21.7643 -21.7609 -21.7570 -21.7535
   -21.7490 -21.7470 -21.7439 -21.7398 -21.7379 -21.7344 -21.7279 -21.7267
   -21.7254 -21.7197 -21.7176 -21.7129 -21.7026 -21.6987 -21.6902 -21.6867
   -21.6831 -21.6798 -21.6751 -21.6699 -21.6673 -21.6653 -21.6636 -21.6583
   -21.6520 -21.6488 -21.6446 -21.6420 -21.6356 -21.6306 -21.6202 -21.4298
   -21.4252 -21.3905 -21.3142 -21.3135  -9.8425  -9.3603  -8.7325  -8.1754
    -7.9811  -7.4559  -6.8860  -6.5314  -6.0223  -5.8747  -5.3877  -5.0164
    -4.5534  -2.6633  -2.1865  -1.9164  -1.6959  -1.5602  -1.3849  -1.1303
    -0.9628  -0.6658  -0.5425  -0.3694   0.0262   0.1057   0.3310   0.4645
     0.7536   0.9170   1.1213   1.4137   1.6366   1.7072   1.9236   2.1005

          k =-0.5000 0.6736 0.0000 ( 25368 PWs)   bands (ev):

   -21.8695 -21.8471 -21.8413 -21.8380 -21.8349 -21.8322 -21.8281 -21.8227
   -21.8211 -21.8070 -21.8051 -21.8015 -21.7988 -21.7888 -21.7864 -21.7844
   -21.7756 -21.7717 -21.7683 -21.7654 -21.7643 -21.7609 -21.7570 -21.7535
   -21.7490 -21.7470 -21.7439 -21.7398 -21.7379 -21.7344 -21.7279 -21.7267
   -21.7253 -21.7197 -21.7176 -21.7129 -21.7026 -21.6987 -21.6902 -21.6867
   -21.6831 -21.6798 -21.6751 -21.6699 -21.6673 -21.6653 -21.6636 -21.6583
   -21.6520 -21.6488 -21.6446 -21.6420 -21.6356 -21.6306 -21.6202 -21.4298
   -21.4252 -21.3905 -21.3142 -21.3135  -9.8425  -9.3603  -8.7325  -8.1754
    -7.9811  -7.4559  -6.8861  -6.5313  -6.0223  -5.8747  -5.3877  -5.0164
    -4.5534  -2.6633  -2.1865  -1.9164  -1.6959  -1.5602  -1.3849  -1.1303
    -0.9628  -0.6658  -0.5425  -0.3694   0.0262   0.1057   0.3310   0.4646
     0.7536   0.9170   1.1213   1.4137   1.6366   1.7075   1.9236   2.1005

          k =-0.5000-0.2887 0.0000 ( 25386 PWs)   bands (ev):

   -21.8770 -21.8420 -21.8404 -21.8381 -21.8308 -21.8279 -21.8226 -21.8225
   -21.8204 -21.8096 -21.8092 -21.8054 -21.8011 -21.7991 -21.7859 -21.7818
   -21.7762 -21.7724 -21.7694 -21.7680 -21.7645 -21.7629 -21.7531 -21.7491
   -21.7491 -21.7441 -21.7387 -21.7374 -21.7353 -21.7317 -21.7314 -21.7273
   -21.7227 -21.7209 -21.7187 -21.7017 -21.6996 -21.6971 -21.6936 -21.6874
   -21.6835 -21.6818 -21.6776 -21.6773 -21.6722 -21.6684 -21.6655 -21.6611
   -21.6562 -21.6506 -21.6471 -21.6423 -21.6349 -21.6234 -21.6128 -21.4311
   -21.4245 -21.3901 -21.3144 -21.3133  -9.8076  -9.2680  -9.0932  -8.1267
    -7.6965  -7.0592  -7.0336  -6.5748  -6.3559  -6.0258  -5.5914  -4.8198
    -4.5222  -2.0600  -1.9170  -1.9076  -1.8744  -1.7766  -1.6730  -0.9250
    -0.9122  -0.7436  -0.5662  -0.2226   0.1281   0.2964   0.3860   0.5794
     0.7495   0.8534   0.8690   1.1862   1.3576   1.4427   1.4611   1.8395

     the Fermi energy is     0.2460 ev

!    total energy              =   -1939.47808724 Ry
     Harris-Foulkes estimate   =   -1939.47815543 Ry
     estimated scf accuracy    <       0.00003403 Ry

     The total energy is the sum of the following terms:

     one-electron contribution =  -10329.01521317 Ry
     hartree contribution      =    5226.80551075 Ry
     xc contribution           =    -537.13562695 Ry
     ewald contribution        =    3699.91888563 Ry
     electric field correction =       0.00062554 Ry
     smearing contrib. (-TS)   =      -0.05226904 Ry

     convergence has been achieved in   4 iterations

     negative rho (up, down):  4.310E-04 0.000E+00

     Forces acting on atoms (cartesian axes, Ry/au):

     atom    1 type  1   force =    -0.00097275   -0.00059059   -0.00952398
     atom    2 type  1   force =     0.00098753   -0.00057380   -0.00955417
     atom    3 type  1   force =    -0.00000733    0.00108931   -0.00958449
     atom    4 type  1   force =     0.00003275   -0.00000714   -0.00657750
     atom    5 type  1   force =     0.00000633    0.00396369   -0.00035847
     atom    6 type  1   force =     0.00000192    0.00002402    0.00898106
     atom    7 type  1   force =    -0.00341404   -0.00196626   -0.00038363
     atom    8 type  1   force =     0.00340430   -0.00197303   -0.00035518
     atom    9 type  1   force =    -0.00002382   -0.00002765    0.01136118
     atom   10 type  1   force =     0.00000883    0.00028833    0.00614950
     atom   11 type  1   force =     0.00026508   -0.00010986    0.00608375
     atom   12 type  1   force =    -0.00028497   -0.00011688    0.00611322
     atom   13 type  2   force =    -0.00000382   -0.00000015   -0.00235127

     Total force =     0.015718     Total SCF correction =     0.030408
     SCF correction compared to forces is large: reduce conv_thr to get better values

     number of scf cycles    =   2
     number of bfgs steps    =   1

     energy   old            =   -1939.4780892994 Ry
     energy   new            =   -1939.4780872400 Ry

     CASE: energy  _new > energy  _old

     new trust radius        =       0.0025936566 bohr
     new conv_thr            =       0.0001000000 Ry


ATOMIC_POSITIONS (angstrom)
Sn       1.681748263   0.970957812  10.000000000    0   0   0
Sn       5.045244789   0.970957812  10.000000000    0   0   0
Sn       3.363496526   3.883831250  10.000000000    0   0   0
Sn       6.726993052   3.883831250  10.000000000    0   0   0
Sn       6.726993052   1.941915625  12.746283414    0   0   0
Sn       3.363496526   1.941915625  12.746283414    0   0   0
Sn       8.408741315   4.854789062  12.746283414    0   0   0
Sn       5.045244789   4.854789062  12.746283414    0   0   0
Sn       0.000000681  -0.000001084  15.467078199
Sn       3.363540833  -0.008930212  15.639419764
Sn       1.674064286   2.917251742  15.639022507
Sn       5.053030620   2.917317016  15.639123289
C       -0.000038962   0.000024879  17.569112154



     Writing output data file calc.save
     Check: negative starting charge=   -0.001357
     NEW-OLD atomic charge density approx. for the potential
     Check: negative starting charge=   -0.001356

     negative rho (up, down):  4.315E-04 0.000E+00

     Adding external electric field

     Computed dipole along edir(3) : 
        Dipole               -0.5892 Ry au,         -1.4975 Debye
        Dipole field         -0.0011 Ry au, 

        Potential amp.        0.0952 Ry
        Total length         43.3566 bohr


     total cpu time spent up to now is      416.1 secs

     per-process dynamical memory:   189.8 Mb

     Self-consistent Calculation

     iteration #  1     ecut=    36.75 Ry     beta=0.20
     Davidson diagonalization with overlap
     ethr =  1.00E-06,  avg # of iterations =  4.0

     negative rho (up, down):  4.316E-04 0.000E+00

     Adding external electric field

     Computed dipole along edir(3) : 
        Dipole               -0.7586 Ry au,         -1.9282 Debye
        Dipole field         -0.0014 Ry au, 

        Potential amp.        0.1226 Ry
        Total length         43.3566 bohr


     total cpu time spent up to now is      439.3 secs

     total energy              =   -1939.47525367 Ry
     Harris-Foulkes estimate   =   -1939.47803316 Ry
     estimated scf accuracy    <       0.00924956 Ry

     iteration #  2     ecut=    36.75 Ry     beta=0.20
     Davidson diagonalization with overlap
     ethr =  5.38E-06,  avg # of iterations =  5.8

     negative rho (up, down):  4.292E-04 0.000E+00

     Adding external electric field

     Computed dipole along edir(3) : 
        Dipole               -0.5667 Ry au,         -1.4404 Debye
        Dipole field         -0.0011 Ry au, 

        Potential amp.        0.0916 Ry
        Total length         43.3566 bohr


     total cpu time spent up to now is      459.5 secs

     total energy              =   -1939.46713562 Ry
     Harris-Foulkes estimate   =   -1939.48919794 Ry
     estimated scf accuracy    <       0.50384437 Ry

     iteration #  3     ecut=    36.75 Ry     beta=0.20
     Davidson diagonalization with overlap
     ethr =  5.38E-06,  avg # of iterations =  5.8

     negative rho (up, down):  4.295E-04 0.000E+00

     Adding external electric field

     Computed dipole along edir(3) : 
        Dipole               -0.5962 Ry au,         -1.5155 Debye
        Dipole field         -0.0011 Ry au, 

        Potential amp.        0.0964 Ry
        Total length         43.3566 bohr


     total cpu time spent up to now is      479.5 secs

     total energy              =   -1939.47773993 Ry
     Harris-Foulkes estimate   =   -1939.47847163 Ry
     estimated scf accuracy    <       0.00881653 Ry

     iteration #  4     ecut=    36.75 Ry     beta=0.20
     Davidson diagonalization with overlap
     ethr =  5.13E-06,  avg # of iterations =  2.0

     negative rho (up, down):  4.314E-04 0.000E+00

     Adding external electric field

     Computed dipole along edir(3) : 
        Dipole               -0.5994 Ry au,         -1.5236 Debye
        Dipole field         -0.0011 Ry au, 

        Potential amp.        0.0969 Ry
        Total length         43.3566 bohr


     total cpu time spent up to now is      492.8 secs

     End of self-consistent calculation

          k = 0.0000 0.0000 0.0000 ( 25377 PWs)   bands (ev):

   -21.8894 -21.8893 -21.8878 -21.8609 -21.8492 -21.8469 -21.8468 -21.8332
   -21.8332 -21.8322 -21.8244 -21.8244 -21.8167 -21.7934 -21.7898 -21.7895
   -21.7895 -21.7857 -21.7857 -21.7828 -21.7828 -21.7772 -21.7712 -21.7712
   -21.7624 -21.7624 -21.7576 -21.7529 -21.7529 -21.7448 -21.7343 -21.7340
   -21.7340 -21.7251 -21.7251 -21.7211 -21.7016 -21.7016 -21.6662 -21.6655
   -21.6654 -21.6580 -21.6560 -21.6560 -21.6396 -21.6396 -21.6333 -21.6332
   -21.6318 -21.6298 -21.6298 -21.6202 -21.6149 -21.6058 -21.6058 -21.4213
   -21.4213 -21.3892 -21.3166 -21.3166 -10.5191  -9.8080  -8.6495  -7.3976
    -6.3893  -6.3892  -6.3394  -5.8916  -5.8915  -5.6945  -5.0996  -5.0996
    -4.7250  -3.7312  -3.7311  -3.6422  -2.9732  -2.5554  -2.5553  -2.4786
    -2.4302  -2.4302  -2.3534  -0.3022   0.1210   0.3871   0.3871   1.1722
     1.2781   1.2781   1.4914   1.4915   2.5827   2.8727   2.8737   2.8737

          k = 0.0000 0.1925 0.0000 ( 25365 PWs)   bands (ev):

   -21.8874 -21.8797 -21.8791 -21.8583 -21.8465 -21.8448 -21.8441 -21.8320
   -21.8270 -21.8258 -21.8207 -21.8184 -21.8179 -21.7940 -21.7896 -21.7896
   -21.7871 -21.7822 -21.7810 -21.7773 -21.7746 -21.7737 -21.7718 -21.7662
   -21.7635 -21.7609 -21.7569 -21.7506 -21.7464 -21.7422 -21.7354 -21.7344
   -21.7326 -21.7296 -21.7272 -21.7250 -21.7042 -21.7022 -21.6705 -21.6685
   -21.6681 -21.6607 -21.6596 -21.6570 -21.6447 -21.6438 -21.6403 -21.6393
   -21.6374 -21.6366 -21.6320 -21.6249 -21.6211 -21.6147 -21.6107 -21.4248
   -21.4231 -21.3903 -21.3170 -21.3168 -10.4022  -9.7372  -8.5961  -7.3973
    -7.2131  -6.6578  -6.6129  -6.1853  -5.8269  -5.6142  -5.0751  -5.0209
    -4.6892  -3.4376  -3.3890  -3.1507  -2.8299  -2.6765  -2.6370  -2.3867
    -1.8054  -1.7974  -1.1988  -0.2655  -0.2060   0.2383   0.3821   0.7967
     1.1574   1.2251   1.6592   1.8539   1.9911   2.0625   2.6971   2.8840

          k = 0.0000 0.3849 0.0000 ( 25367 PWs)   bands (ev):

   -21.8839 -21.8561 -21.8551 -21.8521 -21.8448 -21.8378 -21.8361 -21.8330
   -21.8230 -21.8193 -21.8179 -21.8039 -21.7965 -21.7935 -21.7928 -21.7901
   -21.7868 -21.7819 -21.7766 -21.7719 -21.7693 -21.7664 -21.7636 -21.7573
   -21.7532 -21.7521 -21.7497 -21.7464 -21.7393 -21.7376 -21.7357 -21.7325
   -21.7315 -21.7290 -21.7277 -21.7241 -21.7056 -21.6996 -21.6855 -21.6814
   -21.6770 -21.6717 -21.6697 -21.6671 -21.6597 -21.6597 -21.6544 -21.6501
   -21.6473 -21.6456 -21.6436 -21.6435 -21.6347 -21.6241 -21.6139 -21.4321
   -21.4271 -21.3921 -21.3178 -21.3170 -10.0778  -9.5574  -8.4963  -8.2753
    -7.2483  -7.0163  -6.9561  -6.7677  -5.9557  -5.8790  -5.4573  -4.8561
    -4.5692  -2.7817  -2.7625  -2.5042  -2.0864  -2.0402  -1.6675  -1.3648
    -1.0709  -1.0275  -0.6293  -0.1794  -0.1160   0.0378   0.2734   0.5452
     0.6644   1.0576   1.0966   1.2042   1.5450   1.7081   1.9493   2.2087

          k = 0.0000-0.5774 0.0000 ( 25386 PWs)   bands (ev):

   -21.8821 -21.8469 -21.8452 -21.8431 -21.8355 -21.8327 -21.8273 -21.8271
   -21.8251 -21.8149 -21.8137 -21.8098 -21.8055 -21.8033 -21.7906 -21.7869
   -21.7780 -21.7759 -21.7723 -21.7703 -21.7675 -21.7665 -21.7567 -21.7530
   -21.7521 -21.7471 -21.7431 -21.7413 -21.7391 -21.7359 -21.7357 -21.7304
   -21.7240 -21.7233 -21.7210 -21.7041 -21.7036 -21.7016 -21.6953 -21.6883
   -21.6853 -21.6827 -21.6794 -21.6792 -21.6734 -21.6699 -21.6670 -21.6634
   -21.6593 -21.6524 -21.6495 -21.6457 -21.6372 -21.6244 -21.6143 -21.4358
   -21.4292 -21.3930 -21.3182 -21.3171  -9.8121  -9.2741  -9.0981  -8.1329
    -7.7033  -7.0649  -7.0391  -6.5791  -6.3605  -6.0317  -5.5981  -4.8239
    -4.5273  -2.0646  -1.9222  -1.9133  -1.8796  -1.7823  -1.6793  -0.9302
    -0.9173  -0.7492  -0.5717  -0.2272   0.1230   0.2919   0.3803   0.5740
     0.7449   0.8471   0.8652   1.1813   1.3527   1.4381   1.4559   1.8347

          k = 0.1667-0.0962 0.0000 ( 25365 PWs)   bands (ev):

   -21.8874 -21.8797 -21.8790 -21.8583 -21.8465 -21.8448 -21.8441 -21.8320
   -21.8270 -21.8258 -21.8207 -21.8184 -21.8179 -21.7940 -21.7896 -21.7895
   -21.7871 -21.7822 -21.7810 -21.7773 -21.7746 -21.7737 -21.7718 -21.7662
   -21.7635 -21.7609 -21.7568 -21.7506 -21.7464 -21.7422 -21.7354 -21.7344
   -21.7326 -21.7296 -21.7272 -21.7250 -21.7042 -21.7022 -21.6705 -21.6685
   -21.6681 -21.6607 -21.6596 -21.6570 -21.6447 -21.6438 -21.6403 -21.6393
   -21.6374 -21.6366 -21.6320 -21.6249 -21.6211 -21.6147 -21.6107 -21.4248
   -21.4231 -21.3903 -21.3170 -21.3168 -10.4022  -9.7372  -8.5961  -7.3973
    -7.2131  -6.6578  -6.6129  -6.1853  -5.8269  -5.6142  -5.0751  -5.0209
    -4.6892  -3.4377  -3.3889  -3.1507  -2.8299  -2.6764  -2.6370  -2.3867
    -1.8054  -1.7974  -1.1988  -0.2655  -0.2060   0.2382   0.3821   0.7968
     1.1574   1.2250   1.6591   1.8539   1.9911   2.0625   2.6971   2.8840

          k = 0.1667 0.0962 0.0000 ( 25365 PWs)   bands (ev):

   -21.8874 -21.8797 -21.8791 -21.8583 -21.8465 -21.8448 -21.8441 -21.8320
   -21.8270 -21.8258 -21.8207 -21.8184 -21.8179 -21.7940 -21.7896 -21.7895
   -21.7871 -21.7822 -21.7810 -21.7773 -21.7746 -21.7737 -21.7718 -21.7662
   -21.7635 -21.7609 -21.7569 -21.7506 -21.7464 -21.7422 -21.7354 -21.7344
   -21.7326 -21.7296 -21.7272 -21.7250 -21.7042 -21.7022 -21.6705 -21.6685
   -21.6681 -21.6607 -21.6596 -21.6570 -21.6447 -21.6438 -21.6403 -21.6393
   -21.6374 -21.6366 -21.6320 -21.6249 -21.6211 -21.6147 -21.6107 -21.4248
   -21.4231 -21.3903 -21.3170 -21.3168 -10.4022  -9.7372  -8.5961  -7.3973
    -7.2131  -6.6578  -6.6129  -6.1854  -5.8269  -5.6142  -5.0751  -5.0209
    -4.6892  -3.4377  -3.3889  -3.1507  -2.8299  -2.6765  -2.6370  -2.3867
    -1.8054  -1.7974  -1.1988  -0.2655  -0.2060   0.2383   0.3821   0.7968
     1.1574   1.2251   1.6592   1.8539   1.9911   2.0625   2.6971   2.8840

          k = 0.1667 0.2887 0.0000 ( 25362 PWs)   bands (ev):

   -21.8796 -21.8734 -21.8578 -21.8533 -21.8437 -21.8423 -21.8367 -21.8335
   -21.8216 -21.8210 -21.8147 -21.8137 -21.7998 -21.7970 -21.7908 -21.7857
   -21.7838 -21.7797 -21.7784 -21.7765 -21.7752 -21.7662 -21.7644 -21.7617
   -21.7555 -21.7529 -21.7494 -21.7444 -21.7436 -21.7430 -21.7382 -21.7359
   -21.7302 -21.7292 -21.7272 -21.7263 -21.7079 -21.7001 -21.6826 -21.6769
   -21.6709 -21.6680 -21.6663 -21.6591 -21.6568 -21.6550 -21.6525 -21.6514
   -21.6438 -21.6424 -21.6393 -21.6315 -21.6313 -21.6215 -21.6205 -21.4300
   -21.4263 -21.3918 -21.3176 -21.3170 -10.1794  -9.6122  -8.4850  -7.7762
    -7.7484  -7.1475  -6.6946  -6.3664  -6.0279  -5.5473  -5.3183  -5.0796
    -4.6389  -3.2972  -2.6275  -2.4501  -2.3962  -2.1823  -2.0581  -1.6827
    -1.5936  -0.8119  -0.7108  -0.2134  -0.1332   0.0355   0.1116   0.5719
     0.6854   1.0541   1.2524   1.6593   1.9294   1.9773   2.2334   2.3052

          k = 0.1667-0.6736 0.0000 ( 25368 PWs)   bands (ev):

   -21.8745 -21.8519 -21.8465 -21.8427 -21.8399 -21.8369 -21.8329 -21.8274
   -21.8257 -21.8118 -21.8098 -21.8062 -21.8032 -21.7929 -21.7907 -21.7880
   -21.7791 -21.7744 -21.7722 -21.7691 -21.7676 -21.7645 -21.7599 -21.7572
   -21.7525 -21.7500 -21.7465 -21.7434 -21.7417 -21.7371 -21.7316 -21.7299
   -21.7289 -21.7234 -21.7192 -21.7155 -21.7054 -21.7008 -21.6922 -21.6891
   -21.6845 -21.6824 -21.6769 -21.6728 -21.6693 -21.6673 -21.6656 -21.6606
   -21.6546 -21.6506 -21.6463 -21.6444 -21.6377 -21.6318 -21.6217 -21.4346
   -21.4300 -21.3933 -21.3180 -21.3173  -9.8472  -9.3656  -8.7382  -8.1818
    -7.9867  -7.4621  -6.8914  -6.5368  -6.0273  -5.8799  -5.3922  -5.0223
    -4.5589  -2.6692  -2.1915  -1.9215  -1.7016  -1.5651  -1.3906  -1.1355
    -0.9681  -0.6714  -0.5476  -0.3745   0.0211   0.1004   0.3264   0.4600
     0.7480   0.9126   1.1154   1.4098   1.6311   1.7021   1.9184   2.0952

          k = 0.1667-0.4811 0.0000 ( 25368 PWs)   bands (ev):

   -21.8745 -21.8519 -21.8465 -21.8427 -21.8399 -21.8369 -21.8329 -21.8274
   -21.8256 -21.8118 -21.8098 -21.8062 -21.8031 -21.7929 -21.7907 -21.7880
   -21.7791 -21.7744 -21.7722 -21.7691 -21.7676 -21.7645 -21.7599 -21.7572
   -21.7525 -21.7500 -21.7465 -21.7434 -21.7417 -21.7371 -21.7316 -21.7299
   -21.7289 -21.7234 -21.7192 -21.7155 -21.7054 -21.7008 -21.6922 -21.6891
   -21.6845 -21.6824 -21.6769 -21.6728 -21.6693 -21.6673 -21.6656 -21.6606
   -21.6546 -21.6506 -21.6463 -21.6444 -21.6377 -21.6318 -21.6217 -21.4346
   -21.4300 -21.3933 -21.3180 -21.3173  -9.8472  -9.3656  -8.7382  -8.1818
    -7.9867  -7.4621  -6.8914  -6.5368  -6.0273  -5.8799  -5.3922  -5.0223
    -4.5589  -2.6693  -2.1915  -1.9214  -1.7016  -1.5651  -1.3906  -1.1355
    -0.9681  -0.6714  -0.5476  -0.3745   0.0211   0.1004   0.3264   0.4600
     0.7480   0.9125   1.1154   1.4098   1.6310   1.7021   1.9184   2.0952

          k = 0.1667-0.2887 0.0000 ( 25362 PWs)   bands (ev):

   -21.8796 -21.8735 -21.8578 -21.8533 -21.8437 -21.8423 -21.8367 -21.8334
   -21.8216 -21.8210 -21.8147 -21.8137 -21.7998 -21.7970 -21.7908 -21.7857
   -21.7837 -21.7797 -21.7784 -21.7765 -21.7752 -21.7662 -21.7644 -21.7617
   -21.7555 -21.7529 -21.7494 -21.7444 -21.7436 -21.7430 -21.7382 -21.7359
   -21.7302 -21.7292 -21.7272 -21.7263 -21.7079 -21.7001 -21.6826 -21.6769
   -21.6709 -21.6680 -21.6663 -21.6591 -21.6568 -21.6550 -21.6525 -21.6514
   -21.6438 -21.6424 -21.6393 -21.6315 -21.6313 -21.6215 -21.6205 -21.4300
   -21.4263 -21.3918 -21.3176 -21.3170 -10.1794  -9.6122  -8.4850  -7.7763
    -7.7484  -7.1475  -6.6946  -6.3663  -6.0279  -5.5473  -5.3183  -5.0796
    -4.6388  -3.2972  -2.6275  -2.4501  -2.3963  -2.1822  -2.0581  -1.6827
    -1.5936  -0.8119  -0.7107  -0.2134  -0.1332   0.0354   0.1116   0.5718
[...]

          k = 0.1667 0.0962 0.0000 ( 25365 PWs)   bands (ev):

   -21.8868 -21.8791 -21.8785 -21.8578 -21.8458 -21.8440 -21.8434 -21.8308
   -21.8259 -21.8237 -21.8183 -21.8178 -21.8157 -21.7931 -21.7890 -21.7873
   -21.7843 -21.7797 -21.7784 -21.7746 -21.7717 -21.7710 -21.7691 -21.7648
   -21.7616 -21.7587 -21.7539 -21.7478 -21.7435 -21.7393 -21.7331 -21.7318
   -21.7302 -21.7282 -21.7249 -21.7231 -21.7015 -21.6995 -21.6679 -21.6658
   -21.6654 -21.6579 -21.6568 -21.6541 -21.6418 -21.6410 -21.6375 -21.6365
   -21.6345 -21.6337 -21.6291 -21.6218 -21.6182 -21.6116 -21.6076 -21.4238
   -21.4221 -21.3916 -21.3168 -21.3165 -10.4003  -9.7385  -8.5945  -7.3946
    -7.2098  -6.6543  -6.6092  -6.1831  -5.8249  -5.6104  -5.0724  -5.0183
    -4.6849  -3.4348  -3.3860  -3.1475  -2.8267  -2.6747  -2.6347  -2.3848
    -1.8032  -1.7951  -1.1966  -0.2632  -0.2038   0.2407   0.3841   0.7997
     1.1604   1.2279   1.6616   1.8563   1.9943   2.0653   2.6981   2.8865

          k = 0.1667 0.2887 0.0000 ( 25362 PWs)   bands (ev):

   -21.8790 -21.8729 -21.8572 -21.8528 -21.8430 -21.8417 -21.8360 -21.8327
   -21.8209 -21.8201 -21.8123 -21.8111 -21.7991 -21.7944 -21.7902 -21.7832
   -21.7826 -21.7771 -21.7760 -21.7737 -21.7725 -21.7637 -21.7619 -21.7598
   -21.7527 -21.7501 -21.7466 -21.7432 -21.7409 -21.7402 -21.7360 -21.7334
   -21.7276 -21.7266 -21.7246 -21.7236 -21.7052 -21.6973 -21.6799 -21.6742
   -21.6682 -21.6652 -21.6635 -21.6562 -21.6541 -21.6522 -21.6497 -21.6486
   -21.6408 -21.6395 -21.6363 -21.6286 -21.6284 -21.6184 -21.6174 -21.4289
   -21.4252 -21.3932 -21.3173 -21.3167 -10.1783  -9.6133  -8.4833  -7.7728
    -7.7446  -7.1452  -6.6928  -6.3631  -6.0241  -5.5446  -5.3158  -5.0765
    -4.6349  -3.2946  -2.6244  -2.4468  -2.3929  -2.1804  -2.0555  -1.6810
    -1.5916  -0.8098  -0.7090  -0.2112  -0.1311   0.0378   0.1147   0.5742
     0.6882   1.0570   1.2558   1.6612   1.9312   1.9799   2.2368   2.3085

          k = 0.1667-0.6736 0.0000 ( 25368 PWs)   bands (ev):

   -21.8740 -21.8514 -21.8458 -21.8421 -21.8392 -21.8363 -21.8323 -21.8268
   -21.8250 -21.8112 -21.8091 -21.8054 -21.8009 -21.7918 -21.7886 -21.7855
   -21.7771 -21.7721 -21.7702 -21.7665 -21.7649 -21.7620 -21.7572 -21.7551
   -21.7502 -21.7473 -21.7441 -21.7407 -21.7394 -21.7343 -21.7289 -21.7273
   -21.7262 -21.7206 -21.7163 -21.7126 -21.7026 -21.6979 -21.6894 -21.6864
   -21.6816 -21.6796 -21.6740 -21.6699 -21.6664 -21.6644 -21.6628 -21.6577
   -21.6518 -21.6477 -21.6433 -21.6414 -21.6347 -21.6289 -21.6186 -21.4336
   -21.4289 -21.3947 -21.3178 -21.3170  -9.8493  -9.3639  -8.7348  -8.1797
    -7.9832  -7.4596  -6.8891  -6.5338  -6.0243  -5.8764  -5.3900  -5.0184
    -4.5553  -2.6665  -2.1887  -1.9192  -1.6991  -1.5622  -1.3874  -1.1332
    -0.9656  -0.6690  -0.5458  -0.3728   0.0236   0.1025   0.3289   0.4620
     0.7510   0.9151   1.1182   1.4119   1.6336   1.7051   1.9208   2.0980

          k = 0.1667-0.4811 0.0000 ( 25368 PWs)   bands (ev):

   -21.8740 -21.8514 -21.8458 -21.8421 -21.8392 -21.8363 -21.8323 -21.8268
   -21.8250 -21.8112 -21.8091 -21.8054 -21.8009 -21.7918 -21.7886 -21.7855
   -21.7771 -21.7721 -21.7702 -21.7666 -21.7649 -21.7620 -21.7572 -21.7551
   -21.7502 -21.7473 -21.7441 -21.7407 -21.7394 -21.7343 -21.7289 -21.7273
   -21.7262 -21.7206 -21.7163 -21.7126 -21.7026 -21.6979 -21.6894 -21.6864
   -21.6816 -21.6796 -21.6740 -21.6699 -21.6664 -21.6644 -21.6628 -21.6577
   -21.6518 -21.6477 -21.6433 -21.6414 -21.6347 -21.6289 -21.6186 -21.4336
   -21.4289 -21.3947 -21.3178 -21.3170  -9.8493  -9.3639  -8.7348  -8.1796
    -7.9832  -7.4596  -6.8891  -6.5338  -6.0244  -5.8764  -5.3900  -5.0184
    -4.5553  -2.6665  -2.1887  -1.9192  -1.6991  -1.5622  -1.3874  -1.1332
    -0.9656  -0.6690  -0.5458  -0.3728   0.0236   0.1025   0.3288   0.4620
     0.7510   0.9151   1.1182   1.4119   1.6335   1.7051   1.9208   2.0980

          k = 0.1667-0.2887 0.0000 ( 25362 PWs)   bands (ev):

   -21.8790 -21.8729 -21.8572 -21.8528 -21.8431 -21.8417 -21.8360 -21.8327
   -21.8209 -21.8201 -21.8123 -21.8111 -21.7991 -21.7944 -21.7902 -21.7832
   -21.7826 -21.7771 -21.7760 -21.7737 -21.7725 -21.7637 -21.7619 -21.7598
   -21.7527 -21.7501 -21.7466 -21.7432 -21.7409 -21.7402 -21.7360 -21.7334
   -21.7276 -21.7266 -21.7246 -21.7236 -21.7052 -21.6973 -21.6799 -21.6742
   -21.6682 -21.6652 -21.6635 -21.6562 -21.6541 -21.6522 -21.6497 -21.6486
   -21.6408 -21.6395 -21.6363 -21.6286 -21.6284 -21.6184 -21.6174 -21.4289
   -21.4252 -21.3932 -21.3173 -21.3167 -10.1783  -9.6133  -8.4832  -7.7728
    -7.7446  -7.1452  -6.6928  -6.3631  -6.0241  -5.5446  -5.3157  -5.0765
    -4.6349  -3.2946  -2.6244  -2.4468  -2.3929  -2.1803  -2.0555  -1.6810
    -1.5916  -0.8098  -0.7089  -0.2112  -0.1311   0.0377   0.1147   0.5742
     0.6882   1.0569   1.2557   1.6612   1.9312   1.9799   2.2368   2.3085

          k = 0.3333-0.1925 0.0000 ( 25367 PWs)   bands (ev):

   -21.8834 -21.8555 -21.8544 -21.8515 -21.8443 -21.8371 -21.8352 -21.8325
   -21.8223 -21.8186 -21.8154 -21.8032 -21.7939 -21.7909 -21.7903 -21.7897
   -21.7858 -21.7791 -21.7743 -21.7693 -21.7682 -21.7637 -21.7609 -21.7544
   -21.7504 -21.7499 -21.7469 -21.7441 -21.7366 -21.7349 -21.7338 -21.7300
   -21.7288 -21.7263 -21.7253 -21.7213 -21.7028 -21.6968 -21.6828 -21.6786
   -21.6742 -21.6689 -21.6669 -21.6643 -21.6569 -21.6568 -21.6515 -21.6472
   -21.6445 -21.6425 -21.6407 -21.6404 -21.6317 -21.6212 -21.6108 -21.4310
   -21.4261 -21.3935 -21.3176 -21.3167 -10.0772  -9.5581  -8.4938  -8.2723
    -7.2461  -7.0136  -6.9526  -6.7640  -5.9539  -5.8765  -5.4533  -4.8535
    -4.5651  -2.7786  -2.7593  -2.5011  -2.0849  -2.0383  -1.6642  -1.3621
    -1.0687  -1.0253  -0.6282  -0.1765  -0.1135   0.0399   0.2752   0.5487
     0.6668   1.0602   1.0989   1.2069   1.5479   1.7106   1.9527   2.2105

          k = 0.3333 0.0000 0.0000 ( 25362 PWs)   bands (ev):

   -21.8790 -21.8729 -21.8572 -21.8527 -21.8431 -21.8417 -21.8360 -21.8327
   -21.8209 -21.8201 -21.8123 -21.8111 -21.7991 -21.7944 -21.7902 -21.7832
   -21.7826 -21.7771 -21.7760 -21.7737 -21.7725 -21.7637 -21.7619 -21.7598
   -21.7527 -21.7501 -21.7466 -21.7432 -21.7409 -21.7402 -21.7360 -21.7334
   -21.7276 -21.7266 -21.7246 -21.7236 -21.7052 -21.6973 -21.6799 -21.6742
   -21.6682 -21.6652 -21.6635 -21.6562 -21.6541 -21.6522 -21.6497 -21.6486
   -21.6408 -21.6395 -21.6363 -21.6286 -21.6284 -21.6184 -21.6174 -21.4289
   -21.4252 -21.3932 -21.3173 -21.3167 -10.1783  -9.6133  -8.4832  -7.7729
    -7.7446  -7.1452  -6.6929  -6.3630  -6.0241  -5.5446  -5.3157  -5.0766
    -4.6348  -3.2946  -2.6244  -2.4467  -2.3930  -2.1803  -2.0555  -1.6810
    -1.5917  -0.8098  -0.7089  -0.2113  -0.1311   0.0377   0.1147   0.5741
     0.6882   1.0570   1.2557   1.6611   1.9313   1.9799   2.2368   2.3085

          k = 0.3333 0.1925 0.0000 ( 25367 PWs)   bands (ev):

   -21.8834 -21.8555 -21.8544 -21.8515 -21.8443 -21.8371 -21.8352 -21.8325
   -21.8223 -21.8186 -21.8154 -21.8032 -21.7939 -21.7909 -21.7903 -21.7897
   -21.7858 -21.7791 -21.7743 -21.7693 -21.7682 -21.7637 -21.7609 -21.7544
   -21.7504 -21.7499 -21.7469 -21.7441 -21.7366 -21.7349 -21.7338 -21.7300
   -21.7288 -21.7263 -21.7253 -21.7213 -21.7028 -21.6968 -21.6828 -21.6786
   -21.6742 -21.6689 -21.6669 -21.6643 -21.6569 -21.6568 -21.6515 -21.6472
   -21.6445 -21.6425 -21.6407 -21.6404 -21.6317 -21.6212 -21.6108 -21.4310
   -21.4261 -21.3935 -21.3176 -21.3167 -10.0772  -9.5581  -8.4938  -8.2723
    -7.2461  -7.0136  -6.9526  -6.7640  -5.9539  -5.8765  -5.4534  -4.8535
    -4.5651  -2.7786  -2.7593  -2.5011  -2.0849  -2.0383  -1.6642  -1.3621
    -1.0687  -1.0253  -0.6282  -0.1765  -0.1135   0.0399   0.2752   0.5487
     0.6668   1.0602   1.0989   1.2069   1.5479   1.7105   1.9527   2.2105

          k = 0.3333-0.7698 0.0000 ( 25368 PWs)   bands (ev):

   -21.8740 -21.8514 -21.8458 -21.8421 -21.8392 -21.8363 -21.8323 -21.8268
   -21.8250 -21.8111 -21.8091 -21.8054 -21.8010 -21.7918 -21.7886 -21.7855
   -21.7771 -21.7721 -21.7702 -21.7665 -21.7649 -21.7620 -21.7572 -21.7551
   -21.7502 -21.7473 -21.7441 -21.7407 -21.7394 -21.7343 -21.7289 -21.7273
   -21.7262 -21.7206 -21.7163 -21.7126 -21.7026 -21.6979 -21.6894 -21.6864
   -21.6816 -21.6796 -21.6740 -21.6699 -21.6664 -21.6644 -21.6628 -21.6577
   -21.6518 -21.6477 -21.6433 -21.6414 -21.6347 -21.6289 -21.6186 -21.4336
   -21.4289 -21.3947 -21.3178 -21.3170  -9.8493  -9.3638  -8.7348  -8.1797
    -7.9832  -7.4597  -6.8890  -6.5339  -6.0243  -5.8763  -5.3900  -5.0184
    -4.5553  -2.6665  -2.1887  -1.9192  -1.6991  -1.5622  -1.3874  -1.1332
    -0.9656  -0.6690  -0.5458  -0.3729   0.0236   0.1026   0.3289   0.4619
     0.7509   0.9151   1.1182   1.4118   1.6335   1.7052   1.9208   2.0980

          k = 0.3333-0.5774 0.0000 ( 25314 PWs)   bands (ev):

   -21.8590 -21.8482 -21.8482 -21.8390 -21.8346 -21.8338 -21.8333 -21.8315
   -21.8300 -21.8169 -21.8136 -21.7937 -21.7840 -21.7825 -21.7814 -21.7767
   -21.7759 -21.7758 -21.7720 -21.7711 -21.7687 -21.7600 -21.7600 -21.7549
   -21.7536 -21.7515 -21.7439 -21.7398 -21.7348 -21.7304 -21.7300 -21.7283
   -21.7226 -21.7156 -21.7074 -21.7063 -21.7041 -21.7018 -21.6928 -21.6912
   -21.6904 -21.6860 -21.6785 -21.6747 -21.6669 -21.6661 -21.6623 -21.6568
   -21.6517 -21.6459 -21.6456 -21.6441 -21.6374 -21.6365 -21.6320 -21.4324
   -21.4324 -21.3955 -21.3176 -21.3173  -9.7454  -8.9011  -8.8802  -8.7518
    -7.7797  -7.7396  -7.2396  -6.2417  -6.2186  -5.7062  -5.2166  -5.0027
    -4.6367  -2.2142  -2.1294  -2.0725  -1.7177  -1.6907  -1.5639  -0.8594
    -0.8196  -0.6773  -0.0203   0.0524   0.1494   0.4142   0.4430   0.5364
     0.8959   1.0583   1.0640   1.2427   1.2647   1.7567   1.9052   2.0806

          k = 0.3333-0.3849 0.0000 ( 25368 PWs)   bands (ev):

   -21.8740 -21.8514 -21.8458 -21.8421 -21.8392 -21.8363 -21.8323 -21.8268
   -21.8250 -21.8111 -21.8091 -21.8054 -21.8010 -21.7918 -21.7886 -21.7855
   -21.7771 -21.7721 -21.7702 -21.7665 -21.7649 -21.7620 -21.7572 -21.7551
   -21.7502 -21.7473 -21.7441 -21.7407 -21.7394 -21.7343 -21.7289 -21.7273
   -21.7262 -21.7206 -21.7163 -21.7126 -21.7026 -21.6979 -21.6894 -21.6864
   -21.6816 -21.6796 -21.6740 -21.6699 -21.6664 -21.6644 -21.6628 -21.6577
   -21.6518 -21.6477 -21.6433 -21.6414 -21.6347 -21.6289 -21.6186 -21.4336
   -21.4289 -21.3947 -21.3178 -21.3170  -9.8493  -9.3638  -8.7348  -8.1797
    -7.9832  -7.4597  -6.8890  -6.5339  -6.0243  -5.8763  -5.3900  -5.0184
    -4.5552  -2.6665  -2.1887  -1.9191  -1.6991  -1.5622  -1.3874  -1.1332
    -0.9656  -0.6690  -0.5458  -0.3729   0.0236   0.1026   0.3289   0.4618
     0.7508   0.9151   1.1182   1.4119   1.6335   1.7052   1.9208   2.0981

          k =-0.5000 0.2887 0.0000 ( 25386 PWs)   bands (ev):

   -21.8816 -21.8462 -21.8446 -21.8426 -21.8348 -21.8320 -21.8268 -21.8264
   -21.8246 -21.8142 -21.8128 -21.8086 -21.8036 -21.8008 -21.7901 -21.7864
   -21.7752 -21.7734 -21.7696 -21.7676 -21.7648 -21.7640 -21.7539 -21.7504
   -21.7494 -21.7443 -21.7413 -21.7387 -21.7364 -21.7341 -21.7330 -21.7277
   -21.7212 -21.7205 -21.7181 -21.7014 -21.7008 -21.6988 -21.6924 -21.6854
   -21.6824 -21.6798 -21.6766 -21.6764 -21.6706 -21.6669 -21.6641 -21.6603
   -21.6565 -21.6495 -21.6467 -21.6428 -21.6342 -21.6216 -21.6112 -21.4348
   -21.4282 -21.3943 -21.3180 -21.3168  -9.8151  -9.2706  -9.0956  -8.1310
    -7.7006  -7.0613  -7.0353  -6.5767  -6.3581  -6.0299  -5.5937  -4.8214
    -4.5232  -2.0624  -1.9187  -1.9101  -1.8759  -1.7804  -1.6769  -0.9284
    -0.9153  -0.7475  -0.5688  -0.2262   0.1260   0.2943   0.3827   0.5775
     0.7472   0.8501   0.8668   1.1832   1.3546   1.4402   1.4579   1.8385

          k =-0.5000 0.4811 0.0000 ( 25368 PWs)   bands (ev):

   -21.8740 -21.8514 -21.8458 -21.8421 -21.8392 -21.8363 -21.8323 -21.8268
   -21.8250 -21.8111 -21.8091 -21.8053 -21.8009 -21.7918 -21.7886 -21.7855
   -21.7771 -21.7721 -21.7702 -21.7666 -21.7649 -21.7620 -21.7572 -21.7551
   -21.7502 -21.7473 -21.7441 -21.7407 -21.7394 -21.7343 -21.7289 -21.7273
   -21.7262 -21.7206 -21.7163 -21.7126 -21.7026 -21.6979 -21.6894 -21.6864
   -21.6816 -21.6796 -21.6740 -21.6699 -21.6664 -21.6644 -21.6628 -21.6577
   -21.6518 -21.6477 -21.6433 -21.6414 -21.6347 -21.6289 -21.6186 -21.4336
   -21.4289 -21.3947 -21.3178 -21.3170  -9.8493  -9.3638  -8.7348  -8.1797
    -7.9832  -7.4597  -6.8891  -6.5338  -6.0243  -5.8763  -5.3901  -5.0184
    -4.5552  -2.6665  -2.1887  -1.9191  -1.6991  -1.5622  -1.3874  -1.1332
    -0.9656  -0.6690  -0.5459  -0.3729   0.0236   0.1026   0.3289   0.4618
     0.7509   0.9150   1.1182   1.4120   1.6335   1.7052   1.9209   2.0980

          k =-0.5000 0.6736 0.0000 ( 25368 PWs)   bands (ev):

   -21.8740 -21.8514 -21.8458 -21.8421 -21.8392 -21.8363 -21.8323 -21.8268
   -21.8250 -21.8111 -21.8091 -21.8053 -21.8009 -21.7918 -21.7886 -21.7855
   -21.7771 -21.7721 -21.7702 -21.7666 -21.7649 -21.7620 -21.7572 -21.7551
   -21.7502 -21.7473 -21.7441 -21.7407 -21.7394 -21.7343 -21.7289 -21.7273
   -21.7262 -21.7206 -21.7163 -21.7126 -21.7026 -21.6979 -21.6894 -21.6864
   -21.6816 -21.6796 -21.6740 -21.6699 -21.6664 -21.6644 -21.6628 -21.6577
   -21.6518 -21.6477 -21.6433 -21.6414 -21.6347 -21.6289 -21.6186 -21.4336
   -21.4289 -21.3947 -21.3178 -21.3170  -9.8493  -9.3638  -8.7348  -8.1796
    -7.9833  -7.4596  -6.8891  -6.5337  -6.0243  -5.8763  -5.3900  -5.0184
    -4.5552  -2.6665  -2.1887  -1.9191  -1.6991  -1.5622  -1.3874  -1.1332
    -0.9657  -0.6689  -0.5459  -0.3728   0.0236   0.1026   0.3289   0.4618
     0.7510   0.9150   1.1182   1.4120   1.6335   1.7052   1.9209   2.0980

          k =-0.5000-0.2887 0.0000 ( 25386 PWs)   bands (ev):

   -21.8816 -21.8462 -21.8446 -21.8426 -21.8348 -21.8320 -21.8268 -21.8264
   -21.8246 -21.8142 -21.8128 -21.8086 -21.8036 -21.8008 -21.7901 -21.7864
   -21.7752 -21.7734 -21.7696 -21.7676 -21.7648 -21.7640 -21.7539 -21.7504
   -21.7494 -21.7443 -21.7413 -21.7387 -21.7364 -21.7341 -21.7330 -21.7277
   -21.7212 -21.7205 -21.7181 -21.7014 -21.7008 -21.6988 -21.6924 -21.6854
   -21.6824 -21.6798 -21.6766 -21.6764 -21.6706 -21.6669 -21.6641 -21.6603
   -21.6565 -21.6495 -21.6467 -21.6428 -21.6342 -21.6216 -21.6112 -21.4348
   -21.4282 -21.3943 -21.3180 -21.3168  -9.8151  -9.2706  -9.0956  -8.1310
    -7.7006  -7.0614  -7.0353  -6.5767  -6.3581  -6.0299  -5.5937  -4.8214
    -4.5233  -2.0624  -1.9187  -1.9101  -1.8760  -1.7804  -1.6769  -0.9284
    -0.9153  -0.7474  -0.5688  -0.2262   0.1260   0.2943   0.3828   0.5775
     0.7472   0.8500   0.8668   1.1832   1.3546   1.4402   1.4580   1.8385

     the Fermi energy is     0.2435 ev

!    total energy              =   -1939.47814426 Ry
     Harris-Foulkes estimate   =   -1939.47815103 Ry
     estimated scf accuracy    <       0.00000083 Ry

     The total energy is the sum of the following terms:

     one-electron contribution =  -10330.30095553 Ry
     hartree contribution      =    5227.26996131 Ry
     xc contribution           =    -537.13406771 Ry
     ewald contribution        =    3700.73853769 Ry
     electric field correction =       0.00065451 Ry
     smearing contrib. (-TS)   =      -0.05227453 Ry

     convergence has been achieved in   6 iterations

     negative rho (up, down):  4.314E-04 0.000E+00

     Forces acting on atoms (cartesian axes, Ry/au):

     atom    1 type  1   force =    -0.00107992   -0.00062049   -0.00155127
     atom    2 type  1   force =     0.00107832   -0.00062231   -0.00154555
     atom    3 type  1   force =     0.00000155    0.00124394   -0.00153587
     atom    4 type  1   force =    -0.00000306   -0.00000688    0.00061282
     atom    5 type  1   force =    -0.00000032    0.00196916   -0.00051770
     atom    6 type  1   force =     0.00000234   -0.00000757    0.00867484
     atom    7 type  1   force =    -0.00170423   -0.00097869   -0.00050618
     atom    8 type  1   force =     0.00170945   -0.00098351   -0.00051464
     atom    9 type  1   force =    -0.00000644    0.00000868   -0.00128429
     atom   10 type  1   force =     0.00000404    0.00082114   -0.00031657
     atom   11 type  1   force =     0.00071034   -0.00041521   -0.00030952
     atom   12 type  1   force =    -0.00070982   -0.00041106   -0.00031060
     atom   13 type  2   force =    -0.00000225    0.00000281   -0.00089548

     Total force =     0.002184     Total SCF correction =     0.002033
     SCF correction compared to forces is large: reduce conv_thr to get better values

     bfgs converged in   5 scf cycles and   2 bfgs steps
     (criteria: energy <  1.0E+12 Ry, force <  1.9E-03 Ry/Bohr)

     End of BFGS Geometry Optimization

     Final energy   =   -1939.4781442579 Ry
Begin final coordinates

ATOMIC_POSITIONS (angstrom)
Sn       1.681748263   0.970957812  10.000000000    0   0   0
Sn       5.045244789   0.970957812  10.000000000    0   0   0
Sn       3.363496526   3.883831250  10.000000000    0   0   0
Sn       6.726993052   3.883831250  10.000000000    0   0   0
Sn       6.726993052   1.941915625  12.746283414    0   0   0
Sn       3.363496526   1.941915625  12.746283414    0   0   0
Sn       8.408741315   4.854789062  12.746283414    0   0   0
Sn       5.045244789   4.854789062  12.746283414    0   0   0
Sn       0.000002328  -0.000006979  15.467827859
Sn       3.363539803  -0.008789972  15.639542108
Sn       1.674191288   2.917187669  15.639139990
Sn       5.052901121   2.917247685  15.639248047
C       -0.000040669   0.000025806  17.567196662
End final coordinates



     Writing output data file calc.save

     init_run     :      8.41s CPU      9.08s WALL (       1 calls)
     electrons    :    581.49s CPU    663.99s WALL (       5 calls)
     update_pot   :     11.80s CPU     12.44s WALL (       4 calls)
     forces       :     21.61s CPU     22.91s WALL (       5 calls)

     Called by init_run:
     wfcinit      :      4.68s CPU      5.01s WALL (       1 calls)
     potinit      :      1.33s CPU      1.50s WALL (       1 calls)

     Called by electrons:
     c_bands      :    482.69s CPU    551.01s WALL (      32 calls)
     sum_band     :     67.18s CPU     74.36s WALL (      32 calls)
     v_of_rho     :     25.38s CPU     29.96s WALL (      37 calls)
     newd         :      9.74s CPU     12.82s WALL (      37 calls)
     mix_rho      :      0.71s CPU      0.76s WALL (      32 calls)

     Called by c_bands:
     init_us_2    :      4.28s CPU      4.32s WALL (    1400 calls)
     cegterg      :    468.55s CPU    536.08s WALL (     640 calls)

     Called by sum_band:
     sum_band:bec :      0.21s CPU      0.22s WALL (     640 calls)
     addusdens    :     10.18s CPU     13.12s WALL (      32 calls)

     Called by *egterg:
     h_psi        :    263.01s CPU    286.38s WALL (    3633 calls)
     s_psi        :     20.97s CPU     21.04s WALL (    3633 calls)
     g_psi        :      1.57s CPU      1.62s WALL (    2973 calls)
     cdiaghg      :    103.48s CPU    137.94s WALL (    3533 calls)

     Called by h_psi:
     h_psi:pot    :    259.92s CPU    283.21s WALL (    3633 calls)
     h_psi:calbec :     22.06s CPU     23.87s WALL (    3633 calls)
     vloc_psi     :    217.01s CPU    238.42s WALL (    3633 calls)
     add_vuspsi   :     20.81s CPU     20.89s WALL (    3633 calls)

     General routines
     calbec       :     33.20s CPU     35.51s WALL (    4673 calls)
     fft          :     13.13s CPU     16.69s WALL (    2731 calls)
     ffts         :      0.06s CPU      0.08s WALL (      69 calls)
     fftw         :    213.33s CPU    235.46s WALL (  392020 calls)
     interpolate  :      0.43s CPU      0.50s WALL (      69 calls)
     davcio       :      0.00s CPU      0.03s WALL (      20 calls)

     Parallel routines
     fft_scatter  :     82.33s CPU     98.61s WALL (  394820 calls)

     PWSCF        : 10m25.92s CPU    11m51.74s WALL


   This run was terminated on:   1:11:14  17Jan2019            

=------------------------------------------------------------------------------=
   JOB DONE.
=------------------------------------------------------------------------------=
