  python dir          : /u/if/mamunm/src/espresso
  espresso dir        : /nfs/slac/g/suncatfs/sw/espv18/espresso-dynpy-beef/bin
  pseudo dir          : /u/if/mamunm/psp/gbrv1.5pbe
  ase-espresso py git : GITVERSION



     Program PWSCF v.5.1rc2 (svn rev. 11289) starts on  4May2018 at  9:14:50 

     This program is part of the open-source Quantum ESPRESSO suite
     for quantum simulation of materials; please cite
         "P. Giannozzi et al., J. Phys.:Condens. Matter 21 395502 (2009);
          URL http://www.quantum-espresso.org", 
     in publications or presentations arising from this work. More details at
     http://www.quantum-espresso.org/quote

     Parallel version (MPI), running on    32 processors
     K-points division:     npool     =       4
     R & G space division:  proc/nbgrp/npool/nimage =       8
     Reading input from pw.inp
     Message from routine read_cards :
     DEPRECATED: no units specified in CELL_PARAMETERS card

     Current dimensions of program PWSCF are:
     Max number of different atomic species (ntypx) = 10
     Max number of k-points (npk) =  40000
     Max angular momentum in pseudopotentials (lmaxx) =  3
     Presently stress not available with electric field


     **************************************************************************
     Initializing libbeef V0.1.1 with the BEEF-vdW functional.
     Citation: Wellendorff et al., PRB 85, 235149 (2012).
     **************************************************************************


     IMPORTANT: XC functional enforced from input :
     Exchange-correlation      = BEEF-VDW ( 1  4 27 13 2)
     Any further DFT definition will be discarded
     Please, verify this is what you really want


     Subspace diagonalization in iterative solution of the eigenvalue problem:
     a serial algorithm will be used

 
     Parallelization info
     --------------------
     sticks:   dense  smooth     PW     G-vecs:    dense   smooth      PW
     Min         400     160     45                76520    19367    3017
     Max         401     161     46                76543    19393    3034
     Sum        3205    1285    367               612275   155017   24235
 


     bravais-lattice index     =            0
     lattice parameter (alat)  =       1.8897  a.u.
     unit-cell volume          =    5144.9564 (a.u.)^3
     number of atoms/cell      =           13
     number of atomic types    =            2
     number of electrons       =       137.00
     number of Kohn-Sham states=           78
     kinetic-energy cutoff     =      36.7493  Ry
     charge density cutoff     =     367.4932  Ry
     convergence threshold     =      1.0E-05
     mixing beta               =       0.3000
     number of iterations used =           10  plain     mixing
     Exchange-correlation      = BEEF-VDW ( 1  4 27 13 2)
     nstep                     =           50


     celldm(1)=   1.889726  celldm(2)=   0.000000  celldm(3)=   0.000000
     celldm(4)=   0.000000  celldm(5)=   0.000000  celldm(6)=   0.000000

     crystal axes: (cart. coord. in units of alat)
               a(1) = (   5.950946   0.000000   0.000000 )  
               a(2) = (   2.975473   5.153671   0.000000 )  
               a(3) = (   0.000000   0.000000  24.858927 )  

     reciprocal axes: (cart. coord. in units 2 pi/alat)
               b(1) = (  0.168040 -0.097018  0.000000 )  
               b(2) = (  0.000000  0.194036  0.000000 )  
               b(3) = (  0.000000  0.000000  0.040227 )  


     PseudoPot. # 1 for Au read from file:
     /u/if/mamunm/psp/gbrv1.5pbe/Au.UPF
     MD5 check sum: 9d7f43293ad2c663164586bc4b293ffc
     Pseudo is Ultrasoft + core correction, Zval = 11.0
     Generated by new atomic code, or converted to UPF format
     Using radial grid of  985 points,  7 beta functions with: 
                l(1) =   0
                l(2) =   0
                l(3) =   1
                l(4) =   1
                l(5) =   2
                l(6) =   2
                l(7) =   3
     Q(r) pseudized with  6 coefficients,  rinner =    1.900   1.900   1.900
                                                       1.900   1.900   1.900
                                                       1.900

     PseudoPot. # 2 for N  read from file:
     /u/if/mamunm/psp/gbrv1.5pbe/N.UPF
     MD5 check sum: 95339753478d7afb44899504a8723017
     Pseudo is Ultrasoft + core correction, Zval =  5.0
     Generated by new atomic code, or converted to UPF format
     Using radial grid of  729 points,  4 beta functions with: 
                l(1) =   0
                l(2) =   0
                l(3) =   1
                l(4) =   1
     Q(r) pseudized with  8 coefficients,  rinner =    0.900   0.900   0.900


     vdW kernel table read from file vdW_kernel_table
     MD5 check sum: 095c7af220d748ca6e76c0b4c6cfb241

     atomic species   valence    mass     pseudopotential
        Au1           11.00   196.96657     Au( 1.00)
        N1             5.00    14.00700     N ( 1.00)

     No symmetry found



   Cartesian axes

     site n.     atom                  positions (alat units)
         1           Au1 tau(   1) = (   1.4877366   0.8589451  10.0000000  )
         2           Au1 tau(   2) = (   4.4632098   0.8589451  10.0000000  )
         3           Au1 tau(   3) = (   2.9754732   3.4357805  10.0000000  )
         4           Au1 tau(   4) = (   5.9509464   3.4357805  10.0000000  )
         5           Au1 tau(   5) = (   5.9509464   1.7178903  12.4294637  )
         6           Au1 tau(   6) = (   2.9754732   1.7178903  12.4294637  )
         7           Au1 tau(   7) = (   7.4386830   4.2947256  12.4294637  )
         8           Au1 tau(   8) = (   4.4632098   4.2947256  12.4294637  )
         9           Au1 tau(   9) = (   0.0000000   0.0000000  14.8589274  )
        10           Au1 tau(  10) = (   2.9754732   0.0000000  14.8589274  )
        11           Au1 tau(  11) = (   1.4877366   2.5768354  14.8589274  )
        12           Au1 tau(  12) = (   4.4632098   2.5768354  14.8589274  )
        13           N1  tau(  13) = (   1.4877366   0.8589451  16.2044274  )

     number of k points=    20  Fermi-Dirac smearing, width (Ry)=  0.0110
                       cart. coord. in units 2pi/alat
        k(    1) = (   0.0000000   0.0000000   0.0000000), wk =   0.0555556
        k(    2) = (   0.0000000   0.0323394   0.0000000), wk =   0.1111111
        k(    3) = (   0.0000000   0.0646788   0.0000000), wk =   0.1111111
        k(    4) = (   0.0000000  -0.0970182   0.0000000), wk =   0.0555556
        k(    5) = (   0.0280067  -0.0161697   0.0000000), wk =   0.1111111
        k(    6) = (   0.0280067   0.0161697   0.0000000), wk =   0.1111111
        k(    7) = (   0.0280067   0.0485091   0.0000000), wk =   0.1111111
        k(    8) = (   0.0280067  -0.1131879   0.0000000), wk =   0.1111111
        k(    9) = (   0.0280067  -0.0808485   0.0000000), wk =   0.1111111
        k(   10) = (   0.0280067  -0.0485091   0.0000000), wk =   0.1111111
        k(   11) = (   0.0560135  -0.0323394   0.0000000), wk =   0.1111111
        k(   12) = (   0.0560135   0.0000000   0.0000000), wk =   0.1111111
        k(   13) = (   0.0560135   0.0323394   0.0000000), wk =   0.1111111
        k(   14) = (   0.0560135  -0.1293576   0.0000000), wk =   0.1111111
        k(   15) = (   0.0560135  -0.0970182   0.0000000), wk =   0.1111111
        k(   16) = (   0.0560135  -0.0646788   0.0000000), wk =   0.1111111
        k(   17) = (  -0.0840202   0.0485091   0.0000000), wk =   0.0555556
        k(   18) = (  -0.0840202   0.0808485   0.0000000), wk =   0.1111111
        k(   19) = (  -0.0840202   0.1131879   0.0000000), wk =   0.1111111
        k(   20) = (  -0.0840202  -0.0485091   0.0000000), wk =   0.0555556

     Dense  grid:   612275 G-vectors     FFT dimensions: (  72,  72, 288)

     Smooth grid:   155017 G-vectors     FFT dimensions: (  45,  45, 192)

     Largest allocated arrays     est. size (Mb)     dimensions
        Kohn-Sham Wavefunctions         2.91 Mb     (    2444,   78)
        NL pseudopotentials            11.49 Mb     (    2444,  308)
        Each V/rho on FFT grid          2.85 Mb     (  186624)
        Each G-vector array             0.58 Mb     (   76543)
        G-vector shells                 0.16 Mb     (   20517)
     Largest temporary arrays     est. size (Mb)     dimensions
        Auxiliary wavefunctions        11.64 Mb     (    2444,  312)
        Each subspace H/S matrix        1.49 Mb     (     312,  312)
        Each <psi_i|beta_j> matrix      0.37 Mb     (     308,   78)
        Arrays for rho mixing          28.48 Mb     (  186624,   10)

     Check: negative/imaginary core charge=   -0.000002    0.000000

     Initial potential from superposition of free atoms

     starting charge  136.99852, renormalised to  137.00000

     negative rho (up, down):  8.705E-05 0.000E+00


     ************************************************************************
     *
     * You are using vdW-DF for exchange-correlation in this calculation.
     * Please cite the following three references that made this development
     * possible:
     *
     *   M. Dion, H. Rydberg, E. Schroder, D. C. Langreth, and
     *   B. I. Lundqvist, Phys. Rev. Lett. 92, 246401 (2004).
     *
     *   T. Thonhauser, V. R. Cooper, S. Li, A. Puzder, P. Hyldgaard, and
     *   D. C. Langreth, Phys. Rev. B 76, 125112 (2007).
     *
     *   G. Roman-Perez and J. M. Soler, Phys. Rev. Lett. 103, 096102 (2009).
     *
     *
     * If you are using vdW-DF2, please also cite:
     *
     *   K. Lee, E. D. Murray, L. Kong, B. I. Lundqvist, and
     *   D. C. Langreth, Phys. Rev. B 82, 081101(R) (2010).
     *
     *
     * If you are calculating the stress with vdW-DF, please also cite:
     *
     *   R. Sabatini, E. Kucukbenli, B. Kolb, T. Thonhauser, and
     *   S. de Gironcoli, J. Phys.: Condens. Matter 24, 424209 (2012).
     *
     ************************************************************************

     Carrying out vdW-DF run using the following parameters:

     Nqs =      20    Nr_points =    1024   r_max =   100.000
     q_mesh =
               0.00001000     0.04494208     0.09755937     0.15916263
               0.23128650     0.31572767     0.41458969     0.53033537
               0.66584808     0.82450364     1.01025438     1.22772762
               1.48234092     1.78043706     2.12944203     2.53805004
               3.01644009     3.57652955     4.23227104     5.00000000

     Gradients computed in reciprocal space

     ************************************************************************


 
     Adding external electric field

     Computed dipole along edir(3) : 
        Dipole               -0.0003 Ry au,         -0.0008 Debye
        Dipole field         -0.0000 Ry au
 
        Potential amp.        0.0001 Ry
        Total length         45.8022 bohr
 
     Starting wfc are  112 randomized atomic wfcs

     total cpu time spent up to now is       15.3 secs

     per-process dynamical memory:    85.2 Mb

     Self-consistent Calculation

     iteration #  1     ecut=    36.75 Ry     beta=0.30
     Davidson diagonalization with overlap
     ethr =  1.00E-02,  avg # of iterations =  2.0

     negative rho (up, down):  1.792E-04 0.000E+00
 
     Adding external electric field

     Computed dipole along edir(3) : 
        Dipole               -2.8805 Ry au,         -7.3216 Debye
        Dipole field         -0.0070 Ry au
 
        Potential amp.        0.6445 Ry
        Total length         45.8022 bohr
 

     total cpu time spent up to now is       38.6 secs

     total energy              =   -1419.62993080 Ry
     Harris-Foulkes estimate   =   -1420.80316240 Ry
     estimated scf accuracy    <       2.58114932 Ry

     iteration #  2     ecut=    36.75 Ry     beta=0.30
     Davidson diagonalization with overlap
     ethr =  1.88E-03,  avg # of iterations =  6.5

     negative rho (up, down):  2.061E-04 0.000E+00
 
     Adding external electric field

     Computed dipole along edir(3) : 
        Dipole                0.5014 Ry au,          1.2744 Debye
        Dipole field          0.0012 Ry au
 
        Potential amp.       -0.1122 Ry
        Total length         45.8022 bohr
 

     total cpu time spent up to now is       64.9 secs

     total energy              =   -1418.20749709 Ry
     Harris-Foulkes estimate   =   -1423.01093501 Ry
     estimated scf accuracy    <      56.36626147 Ry

     iteration #  3     ecut=    36.75 Ry     beta=0.30
     Davidson diagonalization with overlap
     ethr =  1.88E-03,  avg # of iterations =  4.4

     negative rho (up, down):  2.714E-04 0.000E+00
 
     Adding external electric field

     Computed dipole along edir(3) : 
        Dipole               -0.2356 Ry au,         -0.5989 Debye
        Dipole field         -0.0006 Ry au
 
        Potential amp.        0.0527 Ry
        Total length         45.8022 bohr
 

     total cpu time spent up to now is       91.5 secs

     total energy              =   -1420.32328686 Ry
     Harris-Foulkes estimate   =   -1420.83049239 Ry
     estimated scf accuracy    <       3.85753972 Ry

     iteration #  4     ecut=    36.75 Ry     beta=0.30
     Davidson diagonalization with overlap
     ethr =  1.88E-03,  avg # of iterations =  2.2

     negative rho (up, down):  3.378E-04 0.000E+00
 
     Adding external electric field

     Computed dipole along edir(3) : 
        Dipole               -0.2268 Ry au,         -0.5764 Debye
        Dipole field         -0.0006 Ry au
 
        Potential amp.        0.0507 Ry
        Total length         45.8022 bohr
 

     total cpu time spent up to now is      114.4 secs

     total energy              =   -1420.56608616 Ry
     Harris-Foulkes estimate   =   -1420.58619579 Ry
     estimated scf accuracy    <       0.08085439 Ry

     iteration #  5     ecut=    36.75 Ry     beta=0.30
     Davidson diagonalization with overlap
     ethr =  5.90E-05,  avg # of iterations =  3.5

     negative rho (up, down):  3.996E-04 0.000E+00
 
     Adding external electric field

     Computed dipole along edir(3) : 
        Dipole               -0.2855 Ry au,         -0.7256 Debye
        Dipole field         -0.0007 Ry au
 
        Potential amp.        0.0639 Ry
        Total length         45.8022 bohr
 

     total cpu time spent up to now is      138.8 secs

     total energy              =   -1420.57749668 Ry
     Harris-Foulkes estimate   =   -1420.58017060 Ry
     estimated scf accuracy    <       0.01806637 Ry

     iteration #  6     ecut=    36.75 Ry     beta=0.30
     Davidson diagonalization with overlap
     ethr =  1.32E-05,  avg # of iterations =  2.3

     negative rho (up, down):  4.710E-04 0.000E+00
 
     Adding external electric field

     Computed dipole along edir(3) : 
        Dipole               -0.2766 Ry au,         -0.7031 Debye
        Dipole field         -0.0007 Ry au
 
        Potential amp.        0.0619 Ry
        Total length         45.8022 bohr
 

     total cpu time spent up to now is      161.7 secs

     total energy              =   -1420.57872467 Ry
     Harris-Foulkes estimate   =   -1420.57910396 Ry
     estimated scf accuracy    <       0.00465654 Ry

     iteration #  7     ecut=    36.75 Ry     beta=0.30
     Davidson diagonalization with overlap
     ethr =  3.40E-06,  avg # of iterations =  2.1

     negative rho (up, down):  5.286E-04 0.000E+00
 
     Adding external electric field

     Computed dipole along edir(3) : 
        Dipole               -0.2774 Ry au,         -0.7051 Debye
        Dipole field         -0.0007 Ry au
 
        Potential amp.        0.0621 Ry
        Total length         45.8022 bohr
 

     total cpu time spent up to now is      184.8 secs

     total energy              =   -1420.57918402 Ry
     Harris-Foulkes estimate   =   -1420.57915087 Ry
     estimated scf accuracy    <       0.00071441 Ry

     iteration #  8     ecut=    36.75 Ry     beta=0.30
     Davidson diagonalization with overlap
     ethr =  5.21E-07,  avg # of iterations =  3.0

     negative rho (up, down):  5.577E-04 0.000E+00
 
     Adding external electric field

     Computed dipole along edir(3) : 
        Dipole               -0.2746 Ry au,         -0.6981 Debye
        Dipole field         -0.0007 Ry au
 
        Potential amp.        0.0614 Ry
        Total length         45.8022 bohr
 

     total cpu time spent up to now is      210.1 secs

     total energy              =   -1420.57928315 Ry
     Harris-Foulkes estimate   =   -1420.57932197 Ry
     estimated scf accuracy    <       0.00013636 Ry

     iteration #  9     ecut=    36.75 Ry     beta=0.30
     Davidson diagonalization with overlap
     ethr =  9.95E-08,  avg # of iterations =  2.0

     negative rho (up, down):  5.747E-04 0.000E+00
 
     Adding external electric field

     Computed dipole along edir(3) : 
        Dipole               -0.2746 Ry au,         -0.6979 Debye
        Dipole field         -0.0007 Ry au
 
        Potential amp.        0.0614 Ry
        Total length         45.8022 bohr
 

     total cpu time spent up to now is      234.8 secs

     total energy              =   -1420.57930437 Ry
     Harris-Foulkes estimate   =   -1420.57930443 Ry
     estimated scf accuracy    <       0.00001536 Ry

     iteration # 10     ecut=    36.75 Ry     beta=0.30
     Davidson diagonalization with overlap
     ethr =  1.12E-08,  avg # of iterations =  3.0

     negative rho (up, down):  6.096E-04 0.000E+00

     negative rho (up, down):  6.096E-04 0.000E+00

     negative rho (up, down):  6.096E-04 0.000E+00

     negative rho (up, down):  6.096E-04 0.000E+00

     negative rho (up, down):  6.096E-04 0.000E+00

     negative rho (up, down):  6.096E-04 0.000E+00

     negative rho (up, down):  6.096E-04 0.000E+00

     negative rho (up, down):  6.096E-04 0.000E+00

     negative rho (up, down):  6.096E-04 0.000E+00

     negative rho (up, down):  6.096E-04 0.000E+00

     negative rho (up, down):  6.096E-04 0.000E+00

     negative rho (up, down):  6.096E-04 0.000E+00

     negative rho (up, down):  6.096E-04 0.000E+00

     negative rho (up, down):  6.096E-04 0.000E+00

     negative rho (up, down):  6.096E-04 0.000E+00

     negative rho (up, down):  6.096E-04 0.000E+00

     negative rho (up, down):  6.096E-04 0.000E+00

     negative rho (up, down):  6.096E-04 0.000E+00

     negative rho (up, down):  6.096E-04 0.000E+00

     negative rho (up, down):  6.096E-04 0.000E+00

     negative rho (up, down):  6.096E-04 0.000E+00

     negative rho (up, down):  6.096E-04 0.000E+00

     negative rho (up, down):  6.096E-04 0.000E+00

     negative rho (up, down):  6.096E-04 0.000E+00

     negative rho (up, down):  6.096E-04 0.000E+00

     negative rho (up, down):  6.096E-04 0.000E+00

     negative rho (up, down):  6.096E-04 0.000E+00

     negative rho (up, down):  6.096E-04 0.000E+00

     negative rho (up, down):  6.096E-04 0.000E+00

     negative rho (up, down):  6.096E-04 0.000E+00

     negative rho (up, down):  6.096E-04 0.000E+00

     negative rho (up, down):  6.096E-04 0.000E+00

     negative rho (up, down):  6.096E-04 0.000E+00

     negative rho (up, down):  6.096E-04 0.000E+00

     negative rho (up, down):  6.096E-04 0.000E+00
 
     Adding external electric field

     Computed dipole along edir(3) : 
        Dipole               -0.2707 Ry au,         -0.6880 Debye
        Dipole field         -0.0007 Ry au
 
        Potential amp.        0.0606 Ry
        Total length         45.8022 bohr
 

     total cpu time spent up to now is      308.7 secs

     End of self-consistent calculation

          k = 0.0000 0.0000 0.0000 ( 19315 PWs)   bands (ev):

   -13.7738  -8.0965  -6.6383  -6.3898  -6.1318  -6.1318  -6.0947  -6.0947
    -6.0943  -6.0145  -5.6799  -5.6799  -5.6724  -5.6073  -5.6073  -5.5808
    -4.9088  -4.9088  -4.5426  -4.4361  -4.4361  -4.4294  -4.3619  -4.3618
    -4.3327  -4.2593  -4.2593  -4.0196  -4.0196  -3.9888  -3.9188  -3.9188
    -3.8308  -3.6747  -3.6746  -3.3543  -3.2953  -3.2953  -3.0933  -3.0508
    -3.0508  -2.8075  -2.7766  -2.7766  -2.7308  -2.7307  -2.3889  -2.3889
    -2.3218  -2.2403  -2.2402  -2.2126  -2.2126  -2.1630  -2.0907  -2.0356
    -2.0356  -1.9636  -1.9569  -1.9569  -1.7619  -1.7619  -1.7459  -1.2118
    -0.8291  -0.5801  -0.5800   0.5510   0.5510   0.6707   0.9725   1.2695
     1.2695   1.3780   1.7342   1.7342   2.4950   3.2683

          k = 0.0000 0.0323 0.0000 ( 19351 PWs)   bands (ev):

   -13.7645  -7.9105  -6.4644  -6.2332  -6.1406  -6.0347  -6.0121  -5.9615
    -5.9584  -5.9024  -5.6681  -5.6140  -5.6051  -5.5019  -5.4563  -5.4407
    -4.9051  -4.8542  -4.5445  -4.4698  -4.4602  -4.4040  -4.3570  -4.3201
    -4.2971  -4.2759  -4.1546  -4.1478  -4.0612  -3.9915  -3.9579  -3.8779
    -3.8197  -3.6857  -3.6616  -3.4980  -3.3813  -3.2929  -3.1451  -3.1078
    -3.0912  -2.9855  -2.8961  -2.8796  -2.7794  -2.7365  -2.5342  -2.4602
    -2.4572  -2.4104  -2.3541  -2.3355  -2.3112  -2.3081  -2.2202  -2.2036
    -2.1836  -2.1473  -2.1281  -2.0843  -1.9619  -1.9439  -1.9144  -1.4398
    -1.0906  -0.7839  -0.6531  -0.4582   0.1951   0.2720   0.6286   1.3599
     1.4732   1.8597   2.4104   2.4872   3.0497   3.6059

          k = 0.0000 0.0647 0.0000 ( 19389 PWs)   bands (ev):

   -13.7460  -7.3953  -6.2745  -6.0524  -5.8767  -5.7960  -5.7138  -5.7092
    -5.6221  -5.5849  -5.5285  -5.4205  -5.3975  -5.2755  -5.1017  -5.0780
    -4.8452  -4.7020  -4.6435  -4.6176  -4.5912  -4.4919  -4.4247  -4.3373
    -4.2669  -4.2628  -4.1798  -4.0595  -4.0498  -3.9468  -3.8603  -3.8499
    -3.8315  -3.8115  -3.7918  -3.6396  -3.4996  -3.4607  -3.3458  -3.2823
    -3.2644  -3.2019  -3.1911  -3.1400  -3.1200  -3.0882  -3.0082  -2.9753
    -2.8228  -2.7776  -2.7709  -2.6493  -2.6384  -2.5690  -2.5507  -2.5057
    -2.3840  -2.3425  -2.3093  -2.2371  -2.2216  -2.1380  -2.1041  -1.9802
    -1.7546  -0.9524  -0.7426  -0.3343   0.0302   0.0544   0.4837   1.2123
     1.5510   2.1272   2.5788   3.5756   3.5968   4.0449

          k = 0.0000-0.0970 0.0000 ( 19380 PWs)   bands (ev):

   -13.7367  -6.7699  -6.6857  -5.8909  -5.6623  -5.5885  -5.5058  -5.4663
    -5.4237  -5.4098  -5.4025  -5.1435  -5.1202  -4.9983  -4.9728  -4.8975
    -4.8723  -4.7265  -4.6466  -4.6258  -4.5946  -4.5853  -4.5715  -4.4773
    -4.3945  -4.2729  -4.2102  -4.0650  -3.9703  -3.9485  -3.9031  -3.8832
    -3.7788  -3.7737  -3.7431  -3.7151  -3.6662  -3.6610  -3.6310  -3.5738
    -3.5352  -3.4261  -3.3853  -3.3541  -3.2228  -3.2115  -3.1685  -3.1066
    -3.0625  -3.0265  -3.0065  -2.9499  -2.8946  -2.7445  -2.6722  -2.6008
    -2.5899  -2.4652  -2.3632  -2.2290  -2.1840  -2.1528  -2.0320  -1.9968
    -1.9708  -1.0171  -0.7690  -0.2844   0.0294   0.0457   0.6047   0.9736
     1.5657   2.0361   3.1756   3.6023   3.7315   4.1372

          k = 0.0280-0.0162 0.0000 ( 19351 PWs)   bands (ev):

   -13.7645  -7.9105  -6.4644  -6.2332  -6.1406  -6.0347  -6.0121  -5.9615
    -5.9584  -5.9024  -5.6681  -5.6140  -5.6051  -5.5019  -5.4563  -5.4407
    -4.9051  -4.8542  -4.5445  -4.4698  -4.4602  -4.4041  -4.3570  -4.3201
    -4.2971  -4.2759  -4.1546  -4.1478  -4.0612  -3.9915  -3.9579  -3.8779
    -3.8197  -3.6857  -3.6616  -3.4980  -3.3813  -3.2929  -3.1451  -3.1078
    -3.0912  -2.9855  -2.8961  -2.8796  -2.7794  -2.7365  -2.5342  -2.4602
    -2.4572  -2.4104  -2.3541  -2.3355  -2.3112  -2.3081  -2.2202  -2.2035
    -2.1836  -2.1473  -2.1281  -2.0843  -1.9619  -1.9439  -1.9144  -1.4398
    -1.0906  -0.7839  -0.6531  -0.4582   0.1951   0.2720   0.6286   1.3599
     1.4732   1.8597   2.4104   2.4872   3.0497   3.6059

          k = 0.0280 0.0162 0.0000 ( 19351 PWs)   bands (ev):

   -13.7645  -7.9105  -6.4644  -6.2332  -6.1406  -6.0347  -6.0121  -5.9615
    -5.9584  -5.9024  -5.6681  -5.6140  -5.6051  -5.5019  -5.4563  -5.4407
    -4.9051  -4.8542  -4.5445  -4.4698  -4.4602  -4.4040  -4.3570  -4.3201
    -4.2971  -4.2759  -4.1546  -4.1478  -4.0612  -3.9915  -3.9579  -3.8779
    -3.8197  -3.6857  -3.6616  -3.4981  -3.3813  -3.2929  -3.1451  -3.1078
    -3.0912  -2.9855  -2.8961  -2.8796  -2.7794  -2.7365  -2.5342  -2.4602
    -2.4572  -2.4104  -2.3541  -2.3355  -2.3112  -2.3081  -2.2202  -2.2036
    -2.1836  -2.1473  -2.1281  -2.0843  -1.9619  -1.9439  -1.9144  -1.4398
    -1.0906  -0.7839  -0.6531  -0.4582   0.1951   0.2720   0.6285   1.3599
     1.4732   1.8597   2.4104   2.4872   3.0497   3.6060

          k = 0.0280 0.0485 0.0000 ( 19345 PWs)   bands (ev):

   -13.7506  -7.5570  -6.1673  -6.0923  -6.0010  -5.9452  -5.8182  -5.8087
    -5.7023  -5.6524  -5.5597  -5.5193  -5.4393  -5.3123  -5.2813  -5.1431
    -4.8758  -4.7604  -4.6090  -4.5758  -4.5012  -4.4903  -4.4265  -4.3433
    -4.2432  -4.2225  -4.1581  -4.0719  -4.0434  -3.9907  -3.9693  -3.9184
    -3.7881  -3.7451  -3.7204  -3.6466  -3.5083  -3.3497  -3.2940  -3.2463
    -3.1706  -3.1447  -3.1110  -3.0674  -2.9953  -2.9127  -2.8894  -2.8585
    -2.7612  -2.6991  -2.6410  -2.6045  -2.5476  -2.5349  -2.4318  -2.3346
    -2.2989  -2.2641  -2.2285  -2.2163  -2.1201  -2.0996  -2.0705  -1.6125
    -1.5496  -1.1494  -1.0266  -0.7791  -0.1313   0.2634   0.8562   1.6082
     1.7885   1.9766   2.2724   2.7980   3.4304   3.6820

          k = 0.0280-0.1132 0.0000 ( 19376 PWs)   bands (ev):

   -13.7367  -6.9431  -6.3371  -5.8988  -5.7287  -5.5998  -5.5053  -5.4841
    -5.4443  -5.3898  -5.3373  -5.2737  -5.1090  -5.0566  -4.9840  -4.9207
    -4.8478  -4.8037  -4.7433  -4.6542  -4.5812  -4.5677  -4.4809  -4.4344
    -4.3706  -4.2956  -4.2498  -4.1286  -4.0997  -4.0287  -3.9903  -3.9283
    -3.8859  -3.8787  -3.7876  -3.7165  -3.6865  -3.6115  -3.5468  -3.5024
    -3.4454  -3.4264  -3.3566  -3.2772  -3.2022  -3.1616  -3.0935  -3.0577
    -3.0036  -2.9377  -2.9260  -2.8219  -2.7478  -2.6149  -2.5916  -2.5334
    -2.4086  -2.3606  -2.3284  -2.3025  -2.2221  -2.1976  -2.1102  -2.0911
    -1.8113  -1.4814  -1.0811  -0.8521  -0.1271   0.2648   0.8973   1.2250
     1.7148   2.5260   2.9744   3.1199   3.6854   4.3086

          k = 0.0280-0.0808 0.0000 ( 19376 PWs)   bands (ev):

   -13.7367  -6.9431  -6.3371  -5.8988  -5.7287  -5.5998  -5.5053  -5.4841
    -5.4443  -5.3898  -5.3373  -5.2737  -5.1090  -5.0566  -4.9840  -4.9207
    -4.8479  -4.8037  -4.7433  -4.6542  -4.5812  -4.5677  -4.4809  -4.4344
    -4.3706  -4.2956  -4.2498  -4.1286  -4.0997  -4.0287  -3.9903  -3.9283
    -3.8859  -3.8787  -3.7876  -3.7165  -3.6865  -3.6115  -3.5468  -3.5024
    -3.4454  -3.4264  -3.3566  -3.2772  -3.2022  -3.1616  -3.0935  -3.0577
    -3.0036  -2.9377  -2.9260  -2.8219  -2.7478  -2.6149  -2.5916  -2.5334
    -2.4086  -2.3606  -2.3284  -2.3025  -2.2221  -2.1976  -2.1102  -2.0911
    -1.8113  -1.4814  -1.0811  -0.8521  -0.1271   0.2648   0.8973   1.2250
     1.7148   2.5260   2.9744   3.1199   3.6854   4.3086

          k = 0.0280-0.0485 0.0000 ( 19345 PWs)   bands (ev):

   -13.7506  -7.5570  -6.1673  -6.0923  -6.0010  -5.9452  -5.8182  -5.8087
    -5.7023  -5.6524  -5.5597  -5.5193  -5.4393  -5.3123  -5.2813  -5.1431
    -4.8757  -4.7605  -4.6090  -4.5758  -4.5012  -4.4903  -4.4265  -4.3433
    -4.2432  -4.2225  -4.1581  -4.0719  -4.0434  -3.9907  -3.9693  -3.9184
    -3.7881  -3.7451  -3.7204  -3.6466  -3.5083  -3.3497  -3.2940  -3.2463
    -3.1706  -3.1447  -3.1110  -3.0674  -2.9953  -2.9127  -2.8894  -2.8585
    -2.7612  -2.6990  -2.6410  -2.6045  -2.5476  -2.5349  -2.4318  -2.3346
    -2.2989  -2.2641  -2.2285  -2.2163  -2.1201  -2.0996  -2.0705  -1.6125
    -1.5496  -1.1494  -1.0266  -0.7791  -0.1314   0.2634   0.8562   1.6082
     1.7885   1.9766   2.2724   2.7981   3.4304   3.6820

          k = 0.0560-0.0323 0.0000 ( 19389 PWs)   bands (ev):

   -13.7460  -7.3953  -6.2745  -6.0524  -5.8767  -5.7960  -5.7139  -5.7092
    -5.6221  -5.5849  -5.5285  -5.4205  -5.3975  -5.2755  -5.1017  -5.0780
    -4.8452  -4.7020  -4.6435  -4.6176  -4.5912  -4.4919  -4.4247  -4.3373
    -4.2669  -4.2628  -4.1798  -4.0595  -4.0499  -3.9468  -3.8603  -3.8499
    -3.8315  -3.8115  -3.7918  -3.6396  -3.4996  -3.4607  -3.3458  -3.2823
    -3.2644  -3.2019  -3.1911  -3.1400  -3.1200  -3.0882  -3.0082  -2.9753
    -2.8228  -2.7776  -2.7709  -2.6493  -2.6384  -2.5690  -2.5507  -2.5057
    -2.3840  -2.3425  -2.3093  -2.2371  -2.2216  -2.1380  -2.1041  -1.9802
    -1.7546  -0.9524  -0.7426  -0.3343   0.0302   0.0544   0.4837   1.2123
     1.5510   2.1272   2.5788   3.5756   3.5967   4.0449

          k = 0.0560 0.0000 0.0000 ( 19345 PWs)   bands (ev):

   -13.7506  -7.5570  -6.1673  -6.0923  -6.0010  -5.9452  -5.8182  -5.8087
    -5.7023  -5.6524  -5.5597  -5.5193  -5.4393  -5.3123  -5.2813  -5.1431
    -4.8758  -4.7605  -4.6090  -4.5758  -4.5012  -4.4903  -4.4265  -4.3433
    -4.2432  -4.2225  -4.1581  -4.0719  -4.0434  -3.9907  -3.9693  -3.9184
    -3.7881  -3.7451  -3.7204  -3.6466  -3.5083  -3.3497  -3.2940  -3.2463
    -3.1706  -3.1447  -3.1110  -3.0674  -2.9953  -2.9127  -2.8894  -2.8585
    -2.7612  -2.6991  -2.6410  -2.6045  -2.5476  -2.5349  -2.4318  -2.3346
    -2.2989  -2.2641  -2.2285  -2.2163  -2.1201  -2.0996  -2.0705  -1.6125
    -1.5496  -1.1494  -1.0266  -0.7791  -0.1313   0.2634   0.8562   1.6082
     1.7885   1.9766   2.2724   2.7980   3.4304   3.6820

          k = 0.0560 0.0323 0.0000 ( 19389 PWs)   bands (ev):

   -13.7460  -7.3953  -6.2745  -6.0524  -5.8767  -5.7960  -5.7138  -5.7092
    -5.6221  -5.5849  -5.5285  -5.4205  -5.3975  -5.2755  -5.1017  -5.0780
    -4.8452  -4.7020  -4.6435  -4.6176  -4.5912  -4.4919  -4.4247  -4.3373
    -4.2669  -4.2628  -4.1798  -4.0595  -4.0498  -3.9468  -3.8603  -3.8499
    -3.8315  -3.8115  -3.7918  -3.6396  -3.4996  -3.4607  -3.3458  -3.2823
    -3.2644  -3.2019  -3.1911  -3.1400  -3.1200  -3.0882  -3.0082  -2.9753
    -2.8228  -2.7776  -2.7709  -2.6493  -2.6384  -2.5690  -2.5507  -2.5057
    -2.3840  -2.3425  -2.3093  -2.2371  -2.2216  -2.1380  -2.1041  -1.9802
    -1.7546  -0.9524  -0.7426  -0.3343   0.0302   0.0544   0.4836   1.2123
     1.5510   2.1272   2.5788   3.5756   3.5968   4.0449

          k = 0.0560-0.1294 0.0000 ( 19376 PWs)   bands (ev):

   -13.7367  -6.9431  -6.3371  -5.8988  -5.7287  -5.5998  -5.5053  -5.4841
    -5.4443  -5.3898  -5.3373  -5.2737  -5.1090  -5.0566  -4.9840  -4.9207
    -4.8478  -4.8037  -4.7433  -4.6542  -4.5812  -4.5677  -4.4809  -4.4344
    -4.3706  -4.2956  -4.2498  -4.1286  -4.0997  -4.0287  -3.9903  -3.9283
    -3.8859  -3.8787  -3.7876  -3.7165  -3.6865  -3.6115  -3.5468  -3.5024
    -3.4454  -3.4264  -3.3566  -3.2772  -3.2022  -3.1616  -3.0935  -3.0577
    -3.0036  -2.9377  -2.9260  -2.8219  -2.7478  -2.6149  -2.5916  -2.5334
    -2.4087  -2.3607  -2.3284  -2.3025  -2.2221  -2.1976  -2.1102  -2.0911
    -1.8113  -1.4814  -1.0811  -0.8521  -0.1271   0.2648   0.8973   1.2250
     1.7148   2.5260   2.9744   3.1199   3.6854   4.3086

          k = 0.0560-0.0970 0.0000 ( 19365 PWs)   bands (ev):

   -13.7321  -6.4465  -6.2665  -6.2561  -5.5342  -5.3912  -5.3589  -5.2776
    -5.2472  -5.1843  -5.1506  -5.1319  -5.1242  -5.0544  -5.0354  -4.9841
    -4.8686  -4.8101  -4.7499  -4.6840  -4.6553  -4.5731  -4.5090  -4.5042
    -4.3628  -4.3389  -4.3141  -4.2694  -4.2305  -4.1814  -4.1547  -4.1369
    -4.0837  -3.9169  -3.7860  -3.7348  -3.7270  -3.7218  -3.6948  -3.6890
    -3.5849  -3.5300  -3.2900  -3.2381  -3.1507  -3.0997  -3.0831  -3.0553
    -2.9171  -2.8498  -2.8105  -2.7183  -2.6274  -2.6113  -2.5336  -2.5325
    -2.3999  -2.3505  -2.3307  -2.3004  -2.2968  -2.2936  -2.2587  -2.2506
    -1.9531  -1.8610  -1.6239  -0.8979  -0.2470   0.2474   0.9393   1.3148
     2.0677   2.7813   2.9304   3.2957   4.1695   4.3889

          k = 0.0560-0.0647 0.0000 ( 19376 PWs)   bands (ev):

   -13.7367  -6.9431  -6.3371  -5.8988  -5.7287  -5.5998  -5.5054  -5.4841
    -5.4443  -5.3898  -5.3373  -5.2737  -5.1090  -5.0566  -4.9840  -4.9207
    -4.8478  -4.8037  -4.7433  -4.6542  -4.5812  -4.5677  -4.4809  -4.4344
    -4.3706  -4.2956  -4.2498  -4.1286  -4.0997  -4.0287  -3.9903  -3.9283
    -3.8859  -3.8787  -3.7876  -3.7165  -3.6865  -3.6115  -3.5468  -3.5024
    -3.4454  -3.4264  -3.3566  -3.2772  -3.2022  -3.1616  -3.0935  -3.0577
    -3.0036  -2.9377  -2.9260  -2.8219  -2.7478  -2.6149  -2.5916  -2.5334
    -2.4086  -2.3606  -2.3284  -2.3025  -2.2221  -2.1976  -2.1102  -2.0911
    -1.8113  -1.4814  -1.0811  -0.8521  -0.1271   0.2648   0.8973   1.2250
     1.7148   2.5260   2.9744   3.1199   3.6854   4.3086

          k =-0.0840 0.0485 0.0000 ( 19380 PWs)   bands (ev):

   -13.7367  -6.7699  -6.6857  -5.8909  -5.6623  -5.5885  -5.5058  -5.4663
    -5.4237  -5.4098  -5.4025  -5.1434  -5.1202  -4.9983  -4.9728  -4.8975
    -4.8723  -4.7265  -4.6466  -4.6258  -4.5946  -4.5853  -4.5715  -4.4773
    -4.3945  -4.2729  -4.2102  -4.0650  -3.9703  -3.9485  -3.9031  -3.8832
    -3.7788  -3.7737  -3.7431  -3.7151  -3.6662  -3.6610  -3.6310  -3.5738
    -3.5352  -3.4261  -3.3853  -3.3541  -3.2228  -3.2115  -3.1685  -3.1066
    -3.0625  -3.0265  -3.0065  -2.9499  -2.8946  -2.7445  -2.6722  -2.6008
    -2.5899  -2.4652  -2.3632  -2.2290  -2.1840  -2.1528  -2.0320  -1.9968
    -1.9708  -1.0171  -0.7690  -0.2844   0.0294   0.0457   0.6048   0.9736
     1.5657   2.0361   3.1756   3.6023   3.7315   4.1372

          k =-0.0840 0.0808 0.0000 ( 19376 PWs)   bands (ev):

   -13.7367  -6.9431  -6.3371  -5.8988  -5.7287  -5.5998  -5.5053  -5.4841
    -5.4443  -5.3898  -5.3373  -5.2737  -5.1090  -5.0566  -4.9840  -4.9207
    -4.8478  -4.8037  -4.7433  -4.6542  -4.5812  -4.5677  -4.4809  -4.4344
    -4.3706  -4.2956  -4.2498  -4.1286  -4.0997  -4.0287  -3.9903  -3.9283
    -3.8859  -3.8787  -3.7876  -3.7165  -3.6865  -3.6115  -3.5468  -3.5024
    -3.4454  -3.4264  -3.3566  -3.2772  -3.2022  -3.1616  -3.0935  -3.0577
    -3.0036  -2.9377  -2.9260  -2.8219  -2.7478  -2.6149  -2.5916  -2.5334
    -2.4086  -2.3606  -2.3284  -2.3025  -2.2221  -2.1976  -2.1102  -2.0911
    -1.8113  -1.4814  -1.0811  -0.8521  -0.1271   0.2648   0.8973   1.2250
     1.7148   2.5260   2.9744   3.1199   3.6854   4.3086

          k =-0.0840 0.1132 0.0000 ( 19376 PWs)   bands (ev):

   -13.7367  -6.9431  -6.3371  -5.8988  -5.7287  -5.5998  -5.5053  -5.4841
    -5.4443  -5.3898  -5.3373  -5.2737  -5.1090  -5.0566  -4.9840  -4.9207
    -4.8479  -4.8037  -4.7433  -4.6542  -4.5812  -4.5677  -4.4809  -4.4344
    -4.3706  -4.2956  -4.2498  -4.1286  -4.0997  -4.0287  -3.9903  -3.9283
    -3.8859  -3.8787  -3.7876  -3.7165  -3.6865  -3.6115  -3.5468  -3.5024
    -3.4454  -3.4264  -3.3566  -3.2772  -3.2022  -3.1616  -3.0935  -3.0577
    -3.0036  -2.9377  -2.9260  -2.8219  -2.7478  -2.6149  -2.5916  -2.5334
    -2.4087  -2.3607  -2.3284  -2.3025  -2.2221  -2.1976  -2.1102  -2.0911
    -1.8113  -1.4814  -1.0811  -0.8521  -0.1271   0.2648   0.8973   1.2250
     1.7148   2.5260   2.9744   3.1199   3.6854   4.3086

          k =-0.0840-0.0485 0.0000 ( 19380 PWs)   bands (ev):

   -13.7367  -6.7699  -6.6857  -5.8909  -5.6623  -5.5885  -5.5058  -5.4663
    -5.4237  -5.4098  -5.4025  -5.1435  -5.1201  -4.9983  -4.9729  -4.8976
    -4.8723  -4.7265  -4.6466  -4.6258  -4.5946  -4.5853  -4.5715  -4.4773
    -4.3945  -4.2729  -4.2102  -4.0650  -3.9703  -3.9485  -3.9031  -3.8832
    -3.7788  -3.7737  -3.7431  -3.7151  -3.6662  -3.6610  -3.6310  -3.5738
    -3.5352  -3.4261  -3.3853  -3.3541  -3.2228  -3.2115  -3.1685  -3.1066
    -3.0625  -3.0265  -3.0065  -2.9499  -2.8946  -2.7445  -2.6722  -2.6008
    -2.5899  -2.4652  -2.3632  -2.2290  -2.1840  -2.1528  -2.0320  -1.9968
    -1.9708  -1.0171  -0.7690  -0.2844   0.0294   0.0457   0.6047   0.9736
     1.5657   2.0361   3.1756   3.6023   3.7315   4.1372

     the Fermi energy is    -0.0742 ev

!    total energy              =   -1420.57930838 Ry
     Harris-Foulkes estimate   =   -1420.57931326 Ry
     estimated scf accuracy    <       0.00000191 Ry

     The total energy is the sum of the following terms:

     one-electron contribution =   -8310.77083998 Ry
     hartree contribution      =    4252.12923331 Ry
     xc contribution           =    -773.37842059 Ry
     ewald contribution        =    3411.46834639 Ry
     electric field correction =       0.00017894 Ry
     smearing contrib. (-TS)   =      -0.02780645 Ry

     convergence has been achieved in  10 iterations
 
 BEEF-vdW xc energy contributions
           1 :   -691.173210647421     
           2 :    642.390402354169     
           3 :   -555.177910424610     
           4 :    446.461722695177     
           5 :   -334.496730912231     
           6 :    234.174202758560     
           7 :   -154.218106484416     
           8 :    96.7266039585196     
           9 :   -58.7685192347365     
          10 :    35.0374372600927     
          11 :   -20.3685018054804     
          12 :    11.1916005451005     
          13 :   -5.68210938019376     
          14 :    3.00314396042813     
          15 :   -2.37251025798071     
          16 :    2.55063041068718     
          17 :   -1.98328081897330     
          18 :  -0.589380913103923     
          19 :    5.48308382218545     
          20 :   -11.8142857533797     
          21 :    17.8279735903687     
          22 :   -21.6730933386065     
          23 :    22.2303757261787     
          24 :   -19.5869206049016     
          25 :    14.9401823070731     
          26 :   -10.0123292669530     
          27 :    6.28421800953436     
          28 :   -4.43285681103896     
          29 :    4.21804508838716     
          30 :   -4.81929828622492     
          31 :   -54.7511441946253     
          32 :   -39.8901841714943     

     Forces acting on atoms (Ry/au):


     negative rho (up, down):  6.096E-04 0.000E+00
     atom    1 type  1   force =     0.00000268   -0.00000121   -0.00132964
     atom    2 type  1   force =     0.00000113   -0.00120996   -0.00457905
     atom    3 type  1   force =    -0.00104120    0.00060428   -0.00458957
     atom    4 type  1   force =     0.00104028    0.00060018   -0.00457195
     atom    5 type  1   force =    -0.00219619    0.00126635   -0.00154560
     atom    6 type  1   force =     0.00219517    0.00126471   -0.00154208
     atom    7 type  1   force =    -0.00000410   -0.00000551    0.02017943
     atom    8 type  1   force =     0.00000626   -0.00253048   -0.00154421
     atom    9 type  1   force =    -0.00771998   -0.00445674    0.02423167
     atom   10 type  1   force =     0.00771059   -0.00444862    0.02422321
     atom   11 type  1   force =    -0.00000021    0.00890906    0.02422303
     atom   12 type  1   force =     0.00000412    0.00000750   -0.00677678
     atom   13 type  2   force =     0.00000145    0.00000046   -0.06637845

     Total force =     0.080317     Total SCF correction =     0.003564


     entering subroutine stress ...


     negative rho (up, down):  6.096E-04 0.000E+00
          total   stress  (Ry/bohr**3)                   (kbar)     P=  -10.25
  -0.00009391   0.00000000  -0.00000000        -13.82      0.00     -0.00
   0.00000000  -0.00009391  -0.00000000          0.00    -13.82     -0.00
  -0.00000000  -0.00000000  -0.00002119         -0.00     -0.00     -3.12


     BFGS Geometry Optimization

     number of scf cycles    =   1
     number of bfgs steps    =   0

     energy   new            =   -1420.5793083829 Ry

     new trust radius        =       0.0663784550 bohr
     new conv_thr            =       0.0000099958 Ry


ATOMIC_POSITIONS (crystal)
Au1      0.166666667   0.166666667   0.402269971    0   0   0
Au1      0.666666667   0.166666667   0.402269971    0   0   0
Au1      0.166666667   0.666666667   0.402269971    0   0   0
Au1      0.666666667   0.666666667   0.402269971    0   0   0
Au1      0.833333333   0.333333333   0.500000000    0   0   0
Au1      0.333333333   0.333333333   0.500000000    0   0   0
Au1      0.833333333   0.833333333   0.500000000    0   0   0
Au1      0.333333333   0.833333333   0.500000000    0   0   0
Au1     -0.000457677  -0.000457617   0.598245854
Au1      0.500914042  -0.000456783   0.598245674
Au1     -0.000457408   0.500914779   0.598245670
Au1      0.499999982   0.500000770   0.597585770
N1       0.166666771   0.166666714   0.650442442



     Writing output data file calc.save
     NEW-OLD atomic charge density approx. for the potential

     Check: negative/imaginary core charge=   -0.000002    0.000000

     negative rho (up, down):  6.036E-04 0.000E+00
 
     Adding external electric field

     Computed dipole along edir(3) : 
        Dipole               -0.2707 Ry au,         -0.6879 Debye
        Dipole field         -0.0007 Ry au
 
        Potential amp.        0.0606 Ry
        Total length         45.8022 bohr
 

     total cpu time spent up to now is      412.1 secs

     per-process dynamical memory:    85.6 Mb

     Self-consistent Calculation

     iteration #  1     ecut=    36.75 Ry     beta=0.30
     Davidson diagonalization with overlap
     ethr =  1.00E-06,  avg # of iterations =  4.0

     negative rho (up, down):  5.663E-04 0.000E+00
 
     Adding external electric field

     Computed dipole along edir(3) : 
        Dipole               -0.3372 Ry au,         -0.8570 Debye
        Dipole field         -0.0008 Ry au
 
        Potential amp.        0.0754 Ry
        Total length         45.8022 bohr
 

     total cpu time spent up to now is      445.9 secs

     total energy              =   -1420.58448809 Ry
     Harris-Foulkes estimate   =   -1420.58539426 Ry
     estimated scf accuracy    <       0.00225249 Ry

     iteration #  2     ecut=    36.75 Ry     beta=0.30
     Davidson diagonalization with overlap
     ethr =  1.64E-06,  avg # of iterations =  3.5

     negative rho (up, down):  5.507E-04 0.000E+00
 
     Adding external electric field

     Computed dipole along edir(3) : 
        Dipole               -0.2401 Ry au,         -0.6102 Debye
        Dipole field         -0.0006 Ry au
 
        Potential amp.        0.0537 Ry
        Total length         45.8022 bohr
 

     total cpu time spent up to now is      472.3 secs

     total energy              =   -1420.58256478 Ry
     Harris-Foulkes estimate   =   -1420.58757327 Ry
     estimated scf accuracy    <       0.06433682 Ry

     iteration #  3     ecut=    36.75 Ry     beta=0.30
     Davidson diagonalization with overlap
     ethr =  1.64E-06,  avg # of iterations =  3.5

     negative rho (up, down):  5.581E-04 0.000E+00
 
     Adding external electric field

     Computed dipole along edir(3) : 
        Dipole               -0.2654 Ry au,         -0.6745 Debye
        Dipole field         -0.0006 Ry au
 
        Potential amp.        0.0594 Ry
        Total length         45.8022 bohr
 

     total cpu time spent up to now is      498.2 secs

     total energy              =   -1420.58504958 Ry
     Harris-Foulkes estimate   =   -1420.58544127 Ry
     estimated scf accuracy    <       0.00406477 Ry

     iteration #  4     ecut=    36.75 Ry     beta=0.30
     Davidson diagonalization with overlap
     ethr =  1.64E-06,  avg # of iterations =  2.4

     negative rho (up, down):  5.679E-04 0.000E+00
 
     Adding external electric field

     Computed dipole along edir(3) : 
        Dipole               -0.2610 Ry au,         -0.6633 Debye
        Dipole field         -0.0006 Ry au
 
        Potential amp.        0.0584 Ry
        Total length         45.8022 bohr
 

     total cpu time spent up to now is      522.7 secs

     total energy              =   -1420.58525569 Ry
     Harris-Foulkes estimate   =   -1420.58528667 Ry
     estimated scf accuracy    <       0.00012903 Ry

     iteration #  5     ecut=    36.75 Ry     beta=0.30
     Davidson diagonalization with overlap
     ethr =  9.42E-08,  avg # of iterations =  2.0

     negative rho (up, down):  5.763E-04 0.000E+00
 
     Adding external electric field

     Computed dipole along edir(3) : 
        Dipole               -0.2601 Ry au,         -0.6612 Debye
        Dipole field         -0.0006 Ry au
 
        Potential amp.        0.0582 Ry
        Total length         45.8022 bohr
 

     total cpu time spent up to now is      547.4 secs

     total energy              =   -1420.58526827 Ry
     Harris-Foulkes estimate   =   -1420.58527285 Ry
     estimated scf accuracy    <       0.00002921 Ry

     iteration #  6     ecut=    36.75 Ry     beta=0.30
     Davidson diagonalization with overlap
     ethr =  2.13E-08,  avg # of iterations =  2.0

     negative rho (up, down):  6.052E-04 0.000E+00

     negative rho (up, down):  6.052E-04 0.000E+00

     negative rho (up, down):  6.052E-04 0.000E+00

     negative rho (up, down):  6.052E-04 0.000E+00

     negative rho (up, down):  6.052E-04 0.000E+00

     negative rho (up, down):  6.052E-04 0.000E+00

     negative rho (up, down):  6.052E-04 0.000E+00

     negative rho (up, down):  6.052E-04 0.000E+00

     negative rho (up, down):  6.052E-04 0.000E+00

     negative rho (up, down):  6.052E-04 0.000E+00

     negative rho (up, down):  6.052E-04 0.000E+00

     negative rho (up, down):  6.052E-04 0.000E+00

     negative rho (up, down):  6.052E-04 0.000E+00

     negative rho (up, down):  6.052E-04 0.000E+00

     negative rho (up, down):  6.052E-04 0.000E+00

     negative rho (up, down):  6.052E-04 0.000E+00

     negative rho (up, down):  6.052E-04 0.000E+00

     negative rho (up, down):  6.052E-04 0.000E+00

     negative rho (up, down):  6.052E-04 0.000E+00

     negative rho (up, down):  6.052E-04 0.000E+00

     negative rho (up, down):  6.052E-04 0.000E+00

     negative rho (up, down):  6.052E-04 0.000E+00

     negative rho (up, down):  6.052E-04 0.000E+00

     negative rho (up, down):  6.052E-04 0.000E+00

     negative rho (up, down):  6.052E-04 0.000E+00

     negative rho (up, down):  6.052E-04 0.000E+00

     negative rho (up, down):  6.052E-04 0.000E+00

     negative rho (up, down):  6.052E-04 0.000E+00

     negative rho (up, down):  6.052E-04 0.000E+00

     negative rho (up, down):  6.052E-04 0.000E+00

     negative rho (up, down):  6.052E-04 0.000E+00

     negative rho (up, down):  6.052E-04 0.000E+00

     negative rho (up, down):  6.052E-04 0.000E+00

     negative rho (up, down):  6.052E-04 0.000E+00

     negative rho (up, down):  6.052E-04 0.000E+00
 
     Adding external electric field

     Computed dipole along edir(3) : 
        Dipole               -0.2567 Ry au,         -0.6525 Debye
        Dipole field         -0.0006 Ry au
 
        Potential amp.        0.0574 Ry
        Total length         45.8022 bohr
 

     total cpu time spent up to now is      622.9 secs

     End of self-consistent calculation

          k = 0.0000 0.0000 0.0000 ( 19315 PWs)   bands (ev):

   -13.9193  -8.0704  -6.6215  -6.3732  -6.1306  -6.1306  -6.0883  -6.0883
    -6.0754  -6.0031  -5.6604  -5.6604  -5.6487  -5.6076  -5.6076  -5.5697
    -4.9554  -4.9554  -4.5208  -4.4302  -4.4302  -4.4252  -4.3671  -4.3671
    -4.3240  -4.2386  -4.2386  -4.0075  -4.0075  -3.9620  -3.9046  -3.9046
    -3.8200  -3.6626  -3.6626  -3.3430  -3.3020  -3.3020  -3.0889  -3.0365
    -3.0365  -2.7811  -2.7626  -2.7626  -2.7288  -2.7288  -2.3733  -2.3733
    -2.3173  -2.2332  -2.2332  -2.2045  -2.2045  -2.1516  -2.0901  -2.0215
    -2.0215  -1.9587  -1.9586  -1.9558  -1.7464  -1.7464  -1.7303  -1.1734
    -0.8503  -0.5669  -0.5669   0.5573   0.5573   0.6918   0.9881   1.2856
     1.2856   1.3907   1.7653   1.7653   2.5160   3.2865

          k = 0.0000 0.0323 0.0000 ( 19351 PWs)   bands (ev):

   -13.9094  -7.8849  -6.4505  -6.2188  -6.1380  -6.0295  -6.0132  -5.9518
    -5.9427  -5.8911  -5.6536  -5.5952  -5.5835  -5.4921  -5.4591  -5.4346
    -4.9499  -4.8990  -4.5246  -4.4697  -4.4571  -4.4015  -4.3367  -4.3065
    -4.2931  -4.2677  -4.1417  -4.1277  -4.0409  -3.9810  -3.9405  -3.8662
    -3.8062  -3.6755  -3.6505  -3.4924  -3.3853  -3.2893  -3.1397  -3.0974
    -3.0792  -2.9697  -2.8863  -2.8695  -2.7608  -2.7339  -2.5212  -2.4620
    -2.4529  -2.4021  -2.3444  -2.3271  -2.2988  -2.2964  -2.2174  -2.1901
    -2.1729  -2.1400  -2.1173  -2.0804  -1.9465  -1.9315  -1.8993  -1.4339
    -1.0620  -0.7629  -0.6512  -0.4676   0.2152   0.2861   0.6537   1.3892
     1.5006   1.8699   2.4256   2.5100   3.0700   3.6202

          k = 0.0000 0.0647 0.0000 ( 19389 PWs)   bands (ev):

   -13.8896  -7.3719  -6.2738  -6.0549  -5.8732  -5.7825  -5.7162  -5.6952
    -5.6041  -5.5674  -5.5132  -5.4040  -5.3824  -5.2625  -5.1273  -5.0848
    -4.8696  -4.7358  -4.6274  -4.6046  -4.5733  -4.4755  -4.4141  -4.3270
    -4.2546  -4.2466  -4.1704  -4.0535  -4.0456  -3.9367  -3.8504  -3.8301
    -3.8149  -3.8023  -3.7778  -3.6332  -3.4982  -3.4583  -3.3363  -3.2747
    -3.2519  -3.1950  -3.1908  -3.1314  -3.1089  -3.0800  -2.9980  -2.9605
    -2.8144  -2.7742  -2.7561  -2.6435  -2.6232  -2.5621  -2.5450  -2.4944
    -2.3679  -2.3300  -2.2848  -2.2304  -2.2161  -2.1275  -2.0949  -1.9707
    -1.7388  -0.9263  -0.7489  -0.3268   0.0487   0.0806   0.4955   1.2298
     1.5903   2.1692   2.5855   3.5976   3.6329   4.0721

          k = 0.0000-0.0970 0.0000 ( 19380 PWs)   bands (ev):

   -13.8797  -6.7617  -6.6611  -5.9278  -5.6471  -5.5770  -5.4998  -5.4554
    -5.4031  -5.3867  -5.3815  -5.1606  -5.1163  -4.9841  -4.9596  -4.9291
    -4.8705  -4.7289  -4.6523  -4.6128  -4.5757  -4.5698  -4.5625  -4.4568
    -4.3875  -4.2711  -4.1996  -4.0673  -3.9740  -3.9457  -3.8945  -3.8705
    -3.7779  -3.7646  -3.7243  -3.6996  -3.6530  -3.6466  -3.6228  -3.5603
    -3.5198  -3.4223  -3.3741  -3.3409  -3.2099  -3.2045  -3.1626  -3.1042
    -3.0487  -3.0296  -2.9858  -2.9417  -2.8833  -2.7348  -2.6645  -2.5866
    -2.5751  -2.4547  -2.3487  -2.2254  -2.1747  -2.1417  -2.0231  -1.9614
    -1.9613  -1.0089  -0.7764  -0.2695   0.0512   0.0724   0.6103   0.9916
     1.6070   2.0850   3.2045   3.6418   3.7331   4.1615

          k = 0.0280-0.0162 0.0000 ( 19351 PWs)   bands (ev):

   -13.9094  -7.8849  -6.4505  -6.2188  -6.1380  -6.0295  -6.0132  -5.9518
    -5.9427  -5.8911  -5.6536  -5.5952  -5.5835  -5.4921  -5.4591  -5.4346
    -4.9499  -4.8990  -4.5246  -4.4697  -4.4571  -4.4015  -4.3367  -4.3065
    -4.2931  -4.2677  -4.1417  -4.1277  -4.0409  -3.9810  -3.9405  -3.8662
    -3.8062  -3.6755  -3.6505  -3.4924  -3.3853  -3.2893  -3.1397  -3.0974
    -3.0792  -2.9697  -2.8863  -2.8695  -2.7608  -2.7340  -2.5212  -2.4620
    -2.4529  -2.4021  -2.3444  -2.3271  -2.2988  -2.2964  -2.2174  -2.1901
    -2.1729  -2.1400  -2.1173  -2.0804  -1.9465  -1.9315  -1.8993  -1.4339
    -1.0620  -0.7629  -0.6512  -0.4676   0.2152   0.2861   0.6537   1.3892
     1.5006   1.8699   2.4256   2.5100   3.0700   3.6202

          k = 0.0280 0.0162 0.0000 ( 19351 PWs)   bands (ev):

   -13.9094  -7.8849  -6.4505  -6.2188  -6.1380  -6.0295  -6.0132  -5.9518
    -5.9427  -5.8911  -5.6536  -5.5952  -5.5835  -5.4921  -5.4591  -5.4346
    -4.9499  -4.8990  -4.5246  -4.4697  -4.4571  -4.4015  -4.3367  -4.3065
    -4.2931  -4.2677  -4.1417  -4.1277  -4.0409  -3.9810  -3.9405  -3.8662
    -3.8062  -3.6755  -3.6505  -3.4924  -3.3853  -3.2893  -3.1397  -3.0974
    -3.0792  -2.9697  -2.8863  -2.8695  -2.7608  -2.7339  -2.5212  -2.4620
    -2.4529  -2.4021  -2.3444  -2.3271  -2.2988  -2.2964  -2.2174  -2.1901
    -2.1729  -2.1400  -2.1173  -2.0804  -1.9465  -1.9315  -1.8993  -1.4339
    -1.0620  -0.7629  -0.6512  -0.4676   0.2152   0.2861   0.6537   1.3892
     1.5006   1.8699   2.4256   2.5100   3.0700   3.6202

          k = 0.0280 0.0485 0.0000 ( 19345 PWs)   bands (ev):

   -13.8946  -7.5327  -6.1787  -6.0864  -5.9797  -5.9295  -5.8248  -5.8029
    -5.6927  -5.6311  -5.5448  -5.5003  -5.4200  -5.3076  -5.2746  -5.1587
    -4.9133  -4.7955  -4.5965  -4.5593  -4.4831  -4.4822  -4.4171  -4.3328
    -4.2339  -4.2085  -4.1504  -4.0582  -4.0284  -3.9818  -3.9577  -3.9001
    -3.7785  -3.7367  -3.7055  -3.6364  -3.5072  -3.3400  -3.2961  -3.2358
    -3.1597  -3.1326  -3.1072  -3.0628  -2.9918  -2.9030  -2.8814  -2.8492
    -2.7466  -2.6837  -2.6255  -2.5950  -2.5421  -2.5276  -2.4258  -2.3239
    -2.2860  -2.2494  -2.2219  -2.2040  -2.1095  -2.0846  -2.0608  -1.6099
    -1.5390  -1.1412  -1.0182  -0.7441  -0.1307   0.2933   0.8849   1.6286
     1.8018   1.9922   2.2786   2.8386   3.4793   3.7146

          k = 0.0280-0.1132 0.0000 ( 19376 PWs)   bands (ev):

   -13.8797  -6.9245  -6.3319  -5.9158  -5.7216  -5.5900  -5.5017  -5.4675
    -5.4319  -5.3714  -5.3177  -5.2624  -5.1054  -5.0517  -5.0062  -4.9262
    -4.8379  -4.7999  -4.7494  -4.6413  -4.5686  -4.5565  -4.4720  -4.4243
    -4.3594  -4.2896  -4.2428  -4.1243  -4.0952  -4.0168  -3.9773  -3.9246
    -3.8728  -3.8670  -3.7798  -3.7096  -3.6770  -3.6034  -3.5354  -3.4877
    -3.4325  -3.4130  -3.3552  -3.2738  -3.1932  -3.1548  -3.0854  -3.0487
    -2.9885  -2.9270  -2.9108  -2.8196  -2.7359  -2.6060  -2.5795  -2.5235
    -2.3980  -2.3497  -2.3198  -2.2927  -2.2124  -2.1840  -2.0978  -2.0791
    -1.7897  -1.4736  -1.0725  -0.8388  -0.1057   0.2875   0.9213   1.2362
     1.7370   2.5803   3.0050   3.1385   3.7098   4.3240

          k = 0.0280-0.0808 0.0000 ( 19376 PWs)   bands (ev):

   -13.8797  -6.9245  -6.3319  -5.9158  -5.7216  -5.5900  -5.5017  -5.4675
    -5.4319  -5.3714  -5.3177  -5.2624  -5.1054  -5.0517  -5.0062  -4.9262
    -4.8379  -4.7999  -4.7494  -4.6413  -4.5686  -4.5565  -4.4720  -4.4243
    -4.3594  -4.2896  -4.2428  -4.1243  -4.0952  -4.0168  -3.9773  -3.9246
    -3.8728  -3.8670  -3.7798  -3.7096  -3.6770  -3.6034  -3.5354  -3.4877
    -3.4325  -3.4130  -3.3552  -3.2738  -3.1932  -3.1548  -3.0854  -3.0487
    -2.9885  -2.9270  -2.9108  -2.8196  -2.7359  -2.6060  -2.5795  -2.5235
    -2.3980  -2.3497  -2.3198  -2.2927  -2.2124  -2.1840  -2.0978  -2.0791
    -1.7897  -1.4736  -1.0725  -0.8388  -0.1057   0.2875   0.9213   1.2362
     1.7370   2.5803   3.0050   3.1385   3.7098   4.3240

          k = 0.0280-0.0485 0.0000 ( 19345 PWs)   bands (ev):

   -13.8946  -7.5327  -6.1787  -6.0864  -5.9797  -5.9295  -5.8248  -5.8029
    -5.6927  -5.6311  -5.5448  -5.5003  -5.4200  -5.3076  -5.2746  -5.1587
    -4.9133  -4.7955  -4.5965  -4.5594  -4.4831  -4.4822  -4.4171  -4.3328
    -4.2339  -4.2085  -4.1504  -4.0582  -4.0283  -3.9818  -3.9577  -3.9001
    -3.7785  -3.7367  -3.7055  -3.6364  -3.5072  -3.3400  -3.2961  -3.2358
    -3.1597  -3.1327  -3.1072  -3.0628  -2.9918  -2.9030  -2.8814  -2.8492
    -2.7466  -2.6837  -2.6255  -2.5950  -2.5421  -2.5276  -2.4258  -2.3239
    -2.2860  -2.2494  -2.2219  -2.2040  -2.1095  -2.0846  -2.0608  -1.6099
    -1.5390  -1.1412  -1.0182  -0.7441  -0.1307   0.2933   0.8849   1.6286
     1.8018   1.9922   2.2786   2.8386   3.4793   3.7146

          k = 0.0560-0.0323 0.0000 ( 19389 PWs)   bands (ev):

   -13.8896  -7.3719  -6.2738  -6.0549  -5.8732  -5.7825  -5.7162  -5.6952
    -5.6041  -5.5674  -5.5132  -5.4040  -5.3824  -5.2625  -5.1273  -5.0848
    -4.8696  -4.7358  -4.6274  -4.6046  -4.5733  -4.4755  -4.4141  -4.3270
    -4.2546  -4.2466  -4.1704  -4.0535  -4.0456  -3.9367  -3.8504  -3.8301
    -3.8149  -3.8023  -3.7778  -3.6332  -3.4982  -3.4583  -3.3363  -3.2747
    -3.2519  -3.1950  -3.1908  -3.1314  -3.1089  -3.0800  -2.9980  -2.9605
    -2.8144  -2.7742  -2.7561  -2.6435  -2.6232  -2.5621  -2.5450  -2.4944
    -2.3679  -2.3300  -2.2848  -2.2304  -2.2161  -2.1275  -2.0949  -1.9707
    -1.7388  -0.9263  -0.7489  -0.3268   0.0487   0.0806   0.4955   1.2298
     1.5903   2.1692   2.5855   3.5976   3.6329   4.0721

          k = 0.0560 0.0000 0.0000 ( 19345 PWs)   bands (ev):

   -13.8946  -7.5327  -6.1787  -6.0864  -5.9797  -5.9295  -5.8248  -5.8029
    -5.6927  -5.6311  -5.5448  -5.5003  -5.4200  -5.3076  -5.2746  -5.1587
    -4.9133  -4.7955  -4.5965  -4.5593  -4.4831  -4.4822  -4.4171  -4.3328
    -4.2339  -4.2085  -4.1504  -4.0582  -4.0284  -3.9818  -3.9577  -3.9001
    -3.7785  -3.7367  -3.7055  -3.6364  -3.5072  -3.3400  -3.2961  -3.2358
    -3.1597  -3.1326  -3.1072  -3.0628  -2.9918  -2.9030  -2.8814  -2.8492
    -2.7466  -2.6837  -2.6255  -2.5950  -2.5421  -2.5276  -2.4258  -2.3239
    -2.2860  -2.2494  -2.2219  -2.2040  -2.1095  -2.0846  -2.0608  -1.6099
    -1.5390  -1.1412  -1.0182  -0.7441  -0.1307   0.2933   0.8849   1.6286
     1.8018   1.9922   2.2786   2.8386   3.4793   3.7146

          k = 0.0560 0.0323 0.0000 ( 19389 PWs)   bands (ev):

   -13.8896  -7.3719  -6.2738  -6.0549  -5.8732  -5.7825  -5.7162  -5.6952
    -5.6041  -5.5674  -5.5132  -5.4040  -5.3824  -5.2625  -5.1273  -5.0848
    -4.8696  -4.7358  -4.6274  -4.6046  -4.5733  -4.4755  -4.4141  -4.3270
    -4.2546  -4.2466  -4.1704  -4.0535  -4.0456  -3.9367  -3.8504  -3.8301
    -3.8149  -3.8023  -3.7778  -3.6332  -3.4982  -3.4583  -3.3363  -3.2747
    -3.2519  -3.1950  -3.1908  -3.1314  -3.1089  -3.0800  -2.9980  -2.9605
    -2.8144  -2.7742  -2.7561  -2.6435  -2.6232  -2.5621  -2.5450  -2.4944
    -2.3679  -2.3300  -2.2848  -2.2304  -2.2161  -2.1275  -2.0949  -1.9707
    -1.7388  -0.9263  -0.7489  -0.3268   0.0487   0.0806   0.4955   1.2298
     1.5903   2.1692   2.5855   3.5976   3.6329   4.0721

          k = 0.0560-0.1294 0.0000 ( 19376 PWs)   bands (ev):

   -13.8797  -6.9245  -6.3319  -5.9158  -5.7216  -5.5900  -5.5017  -5.4675
    -5.4319  -5.3714  -5.3177  -5.2624  -5.1054  -5.0517  -5.0062  -4.9262
    -4.8379  -4.7999  -4.7494  -4.6413  -4.5686  -4.5565  -4.4720  -4.4243
    -4.3594  -4.2896  -4.2428  -4.1243  -4.0952  -4.0168  -3.9773  -3.9246
    -3.8728  -3.8670  -3.7798  -3.7096  -3.6770  -3.6034  -3.5354  -3.4877
    -3.4325  -3.4130  -3.3552  -3.2738  -3.1932  -3.1548  -3.0854  -3.0487
    -2.9885  -2.9270  -2.9108  -2.8196  -2.7359  -2.6060  -2.5795  -2.5235
    -2.3980  -2.3497  -2.3198  -2.2927  -2.2124  -2.1840  -2.0978  -2.0791
    -1.7897  -1.4736  -1.0725  -0.8389  -0.1057   0.2875   0.9213   1.2362
     1.7370   2.5803   3.0050   3.1385   3.7098   4.3240

          k = 0.0560-0.0970 0.0000 ( 19365 PWs)   bands (ev):

   -13.8747  -6.4603  -6.2466  -6.2272  -5.5672  -5.3957  -5.3419  -5.2706
    -5.2589  -5.1722  -5.1343  -5.1081  -5.1071  -5.0390  -5.0279  -4.9629
    -4.8772  -4.8197  -4.7399  -4.6664  -4.6405  -4.5589  -4.5112  -4.5097
    -4.3572  -4.3413  -4.3065  -4.2612  -4.2137  -4.1571  -4.1539  -4.1289
    -4.0823  -3.9205  -3.7779  -3.7228  -3.7115  -3.7064  -3.6840  -3.6791
    -3.5658  -3.5280  -3.2809  -3.2330  -3.1426  -3.1025  -3.0681  -3.0414
    -2.9006  -2.8450  -2.8061  -2.6934  -2.6197  -2.6041  -2.5364  -2.5263
    -2.3961  -2.3354  -2.3205  -2.2882  -2.2825  -2.2743  -2.2480  -2.2460
    -1.9402  -1.8482  -1.5879  -0.8967  -0.2283   0.2813   0.9551   1.3178
     2.1262   2.8029   2.9513   3.3519   4.1787   4.3831

          k = 0.0560-0.0647 0.0000 ( 19376 PWs)   bands (ev):

   -13.8797  -6.9245  -6.3319  -5.9158  -5.7216  -5.5900  -5.5017  -5.4675
    -5.4319  -5.3714  -5.3177  -5.2624  -5.1054  -5.0517  -5.0062  -4.9262
    -4.8379  -4.7999  -4.7494  -4.6413  -4.5686  -4.5565  -4.4720  -4.4243
    -4.3594  -4.2896  -4.2428  -4.1243  -4.0952  -4.0168  -3.9773  -3.9246
    -3.8728  -3.8670  -3.7798  -3.7096  -3.6770  -3.6034  -3.5354  -3.4877
    -3.4325  -3.4130  -3.3552  -3.2738  -3.1932  -3.1548  -3.0854  -3.0487
    -2.9885  -2.9270  -2.9108  -2.8196  -2.7359  -2.6060  -2.5795  -2.5235
    -2.3980  -2.3497  -2.3198  -2.2927  -2.2124  -2.1840  -2.0978  -2.0791
    -1.7897  -1.4736  -1.0725  -0.8388  -0.1057   0.2875   0.9213   1.2362
     1.7370   2.5803   3.0050   3.1385   3.7098   4.3240

          k =-0.0840 0.0485 0.0000 ( 19380 PWs)   bands (ev):

   -13.8797  -6.7617  -6.6611  -5.9278  -5.6471  -5.5770  -5.4998  -5.4554
    -5.4031  -5.3867  -5.3815  -5.1606  -5.1163  -4.9841  -4.9596  -4.9291
    -4.8705  -4.7289  -4.6523  -4.6128  -4.5757  -4.5698  -4.5625  -4.4568
    -4.3875  -4.2711  -4.1996  -4.0673  -3.9740  -3.9457  -3.8945  -3.8705
    -3.7779  -3.7646  -3.7243  -3.6996  -3.6530  -3.6466  -3.6228  -3.5603
    -3.5198  -3.4223  -3.3741  -3.3409  -3.2099  -3.2045  -3.1626  -3.1042
    -3.0487  -3.0296  -2.9858  -2.9417  -2.8833  -2.7348  -2.6645  -2.5866
    -2.5751  -2.4548  -2.3487  -2.2254  -2.1747  -2.1417  -2.0231  -1.9614
    -1.9613  -1.0089  -0.7764  -0.2695   0.0512   0.0724   0.6103   0.9916
     1.6070   2.0850   3.2045   3.6418   3.7331   4.1615

          k =-0.0840 0.0808 0.0000 ( 19376 PWs)   bands (ev):

   -13.8797  -6.9245  -6.3319  -5.9158  -5.7216  -5.5900  -5.5017  -5.4675
    -5.4319  -5.3714  -5.3177  -5.2624  -5.1054  -5.0517  -5.0062  -4.9262
    -4.8379  -4.7999  -4.7494  -4.6413  -4.5686  -4.5565  -4.4720  -4.4243
    -4.3594  -4.2896  -4.2428  -4.1243  -4.0952  -4.0168  -3.9773  -3.9246
    -3.8728  -3.8670  -3.7798  -3.7096  -3.6770  -3.6034  -3.5354  -3.4877
    -3.4325  -3.4130  -3.3552  -3.2738  -3.1932  -3.1548  -3.0854  -3.0487
    -2.9885  -2.9270  -2.9108  -2.8196  -2.7359  -2.6060  -2.5795  -2.5235
    -2.3980  -2.3497  -2.3198  -2.2927  -2.2124  -2.1840  -2.0978  -2.0791
    -1.7897  -1.4736  -1.0725  -0.8388  -0.1057   0.2875   0.9213   1.2362
     1.7370   2.5803   3.0050   3.1385   3.7098   4.3240

          k =-0.0840 0.1132 0.0000 ( 19376 PWs)   bands (ev):

   -13.8797  -6.9245  -6.3319  -5.9158  -5.7216  -5.5900  -5.5017  -5.4675
    -5.4319  -5.3714  -5.3177  -5.2624  -5.1054  -5.0517  -5.0062  -4.9262
    -4.8379  -4.7999  -4.7494  -4.6413  -4.5686  -4.5565  -4.4720  -4.4243
    -4.3594  -4.2896  -4.2428  -4.1243  -4.0952  -4.0168  -3.9773  -3.9246
    -3.8728  -3.8670  -3.7798  -3.7096  -3.6770  -3.6034  -3.5354  -3.4877
    -3.4325  -3.4130  -3.3552  -3.2738  -3.1932  -3.1548  -3.0854  -3.0487
    -2.9885  -2.9270  -2.9108  -2.8196  -2.7359  -2.6060  -2.5795  -2.5235
    -2.3980  -2.3497  -2.3198  -2.2927  -2.2124  -2.1840  -2.0978  -2.0791
    -1.7897  -1.4736  -1.0725  -0.8389  -0.1057   0.2875   0.9213   1.2362
     1.7370   2.5803   3.0050   3.1385   3.7098   4.3240

          k =-0.0840-0.0485 0.0000 ( 19380 PWs)   bands (ev):

   -13.8797  -6.7617  -6.6611  -5.9278  -5.6471  -5.5770  -5.4999  -5.4554
    -5.4031  -5.3867  -5.3815  -5.1606  -5.1163  -4.9841  -4.9596  -4.9291
    -4.8705  -4.7289  -4.6523  -4.6128  -4.5757  -4.5698  -4.5625  -4.4568
    -4.3875  -4.2711  -4.1996  -4.0673  -3.9740  -3.9458  -3.8945  -3.8705
    -3.7779  -3.7646  -3.7243  -3.6996  -3.6530  -3.6466  -3.6228  -3.5603
    -3.5198  -3.4223  -3.3741  -3.3409  -3.2099  -3.2045  -3.1626  -3.1042
    -3.0487  -3.0296  -2.9858  -2.9417  -2.8833  -2.7348  -2.6645  -2.5866
    -2.5751  -2.4547  -2.3487  -2.2254  -2.1747  -2.1417  -2.0231  -1.9614
    -1.9613  -1.0089  -0.7764  -0.2695   0.0512   0.0724   0.6103   0.9916
     1.6070   2.0850   3.2045   3.6418   3.7331   4.1615

     the Fermi energy is    -0.0568 ev

!    total energy              =   -1420.58527173 Ry
     Harris-Foulkes estimate   =   -1420.58527533 Ry
     estimated scf accuracy    <       0.00000361 Ry

     The total energy is the sum of the following terms:

     one-electron contribution =   -8307.76196012 Ry
     hartree contribution      =    4250.65716302 Ry
     xc contribution           =    -773.38973023 Ry
     ewald contribution        =    3409.93644752 Ry
     electric field correction =       0.00016097 Ry
     smearing contrib. (-TS)   =      -0.02735288 Ry

     convergence has been achieved in   6 iterations
 
 BEEF-vdW xc energy contributions
           1 :   -691.185550123243     
           2 :    642.407079216236     
           3 :   -555.198803142141     
           4 :    446.483043716153     
           5 :   -334.513915673793     
           6 :    234.183787468085     
           7 :   -154.218189653151     
           8 :    96.7167921148965     
           9 :   -58.7500650752997     
          10 :    35.0137876962322     
          11 :   -20.3452934574005     
          12 :    11.1753477413961     
          13 :   -5.67804997473684     
          14 :    3.01285540015920     
          15 :   -2.39224533471941     
          16 :    2.57225241095796     
          17 :   -1.99776549372405     
          18 :  -0.587644857113787     
          19 :    5.49327422393503     
          20 :   -11.8295371337636     
          21 :    17.8391627751610     
          22 :   -21.6737291593017     
          23 :    22.2204323288444     
          24 :   -19.5732778203349     
          25 :    14.9329631461285     
          26 :   -10.0189105667228     
          27 :    6.30435058598835     
          28 :   -4.45809737297145     
          29 :    4.23585279243116     
          30 :   -4.81938317742186     
          31 :   -54.7519429698837     
          32 :   -39.8917866528363     

     Forces acting on atoms (Ry/au):


     negative rho (up, down):  6.052E-04 0.000E+00
     atom    1 type  1   force =    -0.00000056   -0.00000093   -0.00126595
     atom    2 type  1   force =    -0.00000058   -0.00107593   -0.00460413
     atom    3 type  1   force =    -0.00093210    0.00053806   -0.00460194
     atom    4 type  1   force =     0.00093213    0.00053745   -0.00460637
     atom    5 type  1   force =    -0.00171592    0.00098914   -0.00103529
     atom    6 type  1   force =     0.00171523    0.00099278   -0.00103698
     atom    7 type  1   force =     0.00000216    0.00000079    0.02082016
     atom    8 type  1   force =    -0.00000162   -0.00198109   -0.00103548
     atom    9 type  1   force =    -0.01032623   -0.00596203    0.02005826
     atom   10 type  1   force =     0.01032978   -0.00596455    0.02005844
     atom   11 type  1   force =    -0.00000031    0.01192696    0.02006407
     atom   12 type  1   force =     0.00000038   -0.00000107   -0.00737793
     atom   13 type  2   force =    -0.00000235    0.00000042   -0.05543687

     Total force =     0.069005     Total SCF correction =     0.001886


     entering subroutine stress ...


     negative rho (up, down):  6.052E-04 0.000E+00
          total   stress  (Ry/bohr**3)                   (kbar)     P=   -9.75
  -0.00009110   0.00000000  -0.00000000        -13.40      0.00     -0.00
   0.00000000  -0.00009111   0.00000000          0.00    -13.40      0.00
  -0.00000000   0.00000000  -0.00001654         -0.00      0.00     -2.43


     number of scf cycles    =   2
     number of bfgs steps    =   1

     energy   old            =   -1420.5793083829 Ry
     energy   new            =   -1420.5852717324 Ry

     CASE: energy  _new < energy  _old


     WARNING: bfgs curvature condition failed, Theta= 0.937
     new trust radius        =       0.0995676825 bohr
     new conv_thr            =       0.0000001000 Ry


ATOMIC_POSITIONS (crystal)
Au1      0.166666667   0.166666667   0.402269971    0   0   0
Au1      0.666666667   0.166666667   0.402269971    0   0   0
Au1      0.166666667   0.666666667   0.402269971    0   0   0
Au1      0.666666667   0.666666667   0.402269971    0   0   0
Au1      0.833333333   0.333333333   0.500000000    0   0   0
Au1      0.333333333   0.333333333   0.500000000    0   0   0
Au1      0.833333333   0.833333333   0.500000000    0   0   0
Au1      0.333333333   0.833333333   0.500000000    0   0   0
Au1     -0.001502692  -0.001502662   0.599013644
Au1      0.503004547  -0.001502067   0.599013435
Au1     -0.001502688   0.503005244   0.599013617
Au1      0.500000117   0.500000751   0.597312351
N1       0.166666433   0.166666790   0.648322923



     Writing output data file calc.save
     NEW-OLD atomic charge density approx. for the potential

     Check: negative/imaginary core charge=   -0.000002    0.000000

     negative rho (up, down):  5.847E-04 0.000E+00
 
     Adding external electric field

     Computed dipole along edir(3) : 
        Dipole               -0.2567 Ry au,         -0.6525 Debye
        Dipole field         -0.0006 Ry au
 
        Potential amp.        0.0574 Ry
        Total length         45.8022 bohr
 

     total cpu time spent up to now is      749.6 secs

     per-process dynamical memory:    82.7 Mb

     Self-consistent Calculation

     iteration #  1     ecut=    36.75 Ry     beta=0.30
     Davidson diagonalization with overlap
     ethr =  1.00E-06,  avg # of iterations =  5.0

     negative rho (up, down):  5.055E-04 0.000E+00
 
     Adding external electric field

     Computed dipole along edir(3) : 
        Dipole               -0.3535 Ry au,         -0.8984 Debye
        Dipole field         -0.0009 Ry au
 
        Potential amp.        0.0791 Ry
        Total length         45.8022 bohr
 

     total cpu time spent up to now is      788.7 secs

     total energy              =   -1420.59091781 Ry
     Harris-Foulkes estimate   =   -1420.59299299 Ry
     estimated scf accuracy    <       0.00499630 Ry

     iteration #  2     ecut=    36.75 Ry     beta=0.30
     Davidson diagonalization with overlap
     ethr =  3.65E-06,  avg # of iterations =  4.1

     negative rho (up, down):  4.821E-04 0.000E+00
 
     Adding external electric field

     Computed dipole along edir(3) : 
        Dipole               -0.2100 Ry au,         -0.5339 Debye
        Dipole field         -0.0005 Ry au
 
        Potential amp.        0.0470 Ry
        Total length         45.8022 bohr
 

     total cpu time spent up to now is      816.8 secs

     total energy              =   -1420.58680794 Ry
     Harris-Foulkes estimate   =   -1420.59735631 Ry
     estimated scf accuracy    <       0.13424603 Ry

     iteration #  3     ecut=    36.75 Ry     beta=0.30
     Davidson diagonalization with overlap
     ethr =  3.65E-06,  avg # of iterations =  3.7

     negative rho (up, down):  4.977E-04 0.000E+00
 
     Adding external electric field

     Computed dipole along edir(3) : 
        Dipole               -0.2472 Ry au,         -0.6283 Debye
        Dipole field         -0.0006 Ry au
 
        Potential amp.        0.0553 Ry
        Total length         45.8022 bohr
 

     total cpu time spent up to now is      843.8 secs

     total energy              =   -1420.59215000 Ry
     Harris-Foulkes estimate   =   -1420.59299630 Ry
     estimated scf accuracy    <       0.00855200 Ry

     iteration #  4     ecut=    36.75 Ry     beta=0.30
     Davidson diagonalization with overlap
     ethr =  3.65E-06,  avg # of iterations =  2.7

     negative rho (up, down):  5.184E-04 0.000E+00
 
     Adding external electric field

     Computed dipole along edir(3) : 
        Dipole               -0.2413 Ry au,         -0.6132 Debye
        Dipole field         -0.0006 Ry au
 
        Potential amp.        0.0540 Ry
        Total length         45.8022 bohr
 

     total cpu time spent up to now is      869.3 secs

     total energy              =   -1420.59257839 Ry
     Harris-Foulkes estimate   =   -1420.59264462 Ry
     estimated scf accuracy    <       0.00029763 Ry

     iteration #  5     ecut=    36.75 Ry     beta=0.30
     Davidson diagonalization with overlap
     ethr =  2.17E-07,  avg # of iterations =  2.0

     negative rho (up, down):  5.361E-04 0.000E+00
 
     Adding external electric field

     Computed dipole along edir(3) : 
        Dipole               -0.2407 Ry au,         -0.6118 Debye
        Dipole field         -0.0006 Ry au
 
        Potential amp.        0.0539 Ry
        Total length         45.8022 bohr
 

     total cpu time spent up to now is      894.8 secs

     total energy              =   -1420.59260716 Ry
     Harris-Foulkes estimate   =   -1420.59261648 Ry
     estimated scf accuracy    <       0.00006867 Ry

     iteration #  6     ecut=    36.75 Ry     beta=0.30
     Davidson diagonalization with overlap
     ethr =  5.01E-08,  avg # of iterations =  2.0

     negative rho (up, down):  5.520E-04 0.000E+00
 
     Adding external electric field

     Computed dipole along edir(3) : 
        Dipole               -0.2405 Ry au,         -0.6113 Debye
        Dipole field         -0.0006 Ry au
 
        Potential amp.        0.0538 Ry
        Total length         45.8022 bohr
 

     total cpu time spent up to now is      920.2 secs

     total energy              =   -1420.59261534 Ry
     Harris-Foulkes estimate   =   -1420.59261389 Ry
     estimated scf accuracy    <       0.00000945 Ry

     iteration #  7     ecut=    36.75 Ry     beta=0.30
     Davidson diagonalization with overlap
     ethr =  6.90E-09,  avg # of iterations =  2.0

     negative rho (up, down):  5.644E-04 0.000E+00
 
     Adding external electric field

     Computed dipole along edir(3) : 
        Dipole               -0.2405 Ry au,         -0.6112 Debye
        Dipole field         -0.0006 Ry au
 
        Potential amp.        0.0538 Ry
        Total length         45.8022 bohr
 

     total cpu time spent up to now is      946.1 secs

     total energy              =   -1420.59261655 Ry
     Harris-Foulkes estimate   =   -1420.59261619 Ry
     estimated scf accuracy    <       0.00000161 Ry

     iteration #  8     ecut=    36.75 Ry     beta=0.30
     Davidson diagonalization with overlap
     ethr =  1.18E-09,  avg # of iterations =  2.6

     negative rho (up, down):  5.734E-04 0.000E+00
 
     Adding external electric field

     Computed dipole along edir(3) : 
        Dipole               -0.2408 Ry au,         -0.6121 Debye
        Dipole field         -0.0006 Ry au
 
        Potential amp.        0.0539 Ry
        Total length         45.8022 bohr
 

     total cpu time spent up to now is      973.6 secs

     total energy              =   -1420.59261682 Ry
     Harris-Foulkes estimate   =   -1420.59261639 Ry
     estimated scf accuracy    <       0.00000029 Ry

     iteration #  9     ecut=    36.75 Ry     beta=0.30
     Davidson diagonalization with overlap
     ethr =  2.10E-10,  avg # of iterations =  2.0

     negative rho (up, down):  5.960E-04 0.000E+00

     negative rho (up, down):  5.960E-04 0.000E+00

     negative rho (up, down):  5.960E-04 0.000E+00

     negative rho (up, down):  5.960E-04 0.000E+00

     negative rho (up, down):  5.960E-04 0.000E+00

     negative rho (up, down):  5.960E-04 0.000E+00

     negative rho (up, down):  5.960E-04 0.000E+00

     negative rho (up, down):  5.960E-04 0.000E+00

     negative rho (up, down):  5.960E-04 0.000E+00

     negative rho (up, down):  5.960E-04 0.000E+00

     negative rho (up, down):  5.960E-04 0.000E+00

     negative rho (up, down):  5.960E-04 0.000E+00

     negative rho (up, down):  5.960E-04 0.000E+00

     negative rho (up, down):  5.960E-04 0.000E+00

     negative rho (up, down):  5.960E-04 0.000E+00

     negative rho (up, down):  5.960E-04 0.000E+00

     negative rho (up, down):  5.960E-04 0.000E+00

     negative rho (up, down):  5.960E-04 0.000E+00

     negative rho (up, down):  5.960E-04 0.000E+00

     negative rho (up, down):  5.960E-04 0.000E+00

     negative rho (up, down):  5.960E-04 0.000E+00

     negative rho (up, down):  5.960E-04 0.000E+00

     negative rho (up, down):  5.960E-04 0.000E+00

     negative rho (up, down):  5.960E-04 0.000E+00

     negative rho (up, down):  5.960E-04 0.000E+00

     negative rho (up, down):  5.960E-04 0.000E+00

     negative rho (up, down):  5.960E-04 0.000E+00

     negative rho (up, down):  5.960E-04 0.000E+00

     negative rho (up, down):  5.960E-04 0.000E+00

     negative rho (up, down):  5.960E-04 0.000E+00

     negative rho (up, down):  5.960E-04 0.000E+00

     negative rho (up, down):  5.960E-04 0.000E+00

     negative rho (up, down):  5.960E-04 0.000E+00

     negative rho (up, down):  5.960E-04 0.000E+00

     negative rho (up, down):  5.960E-04 0.000E+00
 
     Adding external electric field

     Computed dipole along edir(3) : 
        Dipole               -0.2413 Ry au,         -0.6132 Debye
        Dipole field         -0.0006 Ry au
 
        Potential amp.        0.0540 Ry
        Total length         45.8022 bohr
 

     total cpu time spent up to now is     1050.2 secs

     End of self-consistent calculation

          k = 0.0000 0.0000 0.0000 ( 19315 PWs)   bands (ev):

   -14.1175  -8.0344  -6.5968  -6.3495  -6.1645  -6.1645  -6.0579  -6.0579
    -6.0539  -5.9858  -5.6325  -5.6325  -5.6166  -5.6089  -5.6089  -5.5511
    -5.0223  -5.0223  -4.4866  -4.4279  -4.4279  -4.4228  -4.3633  -4.3633
    -4.3123  -4.2096  -4.2096  -3.9913  -3.9913  -3.9226  -3.8855  -3.8855
    -3.8068  -3.6370  -3.6370  -3.3293  -3.3116  -3.3116  -3.0812  -3.0160
    -3.0160  -2.7444  -2.7444  -2.7386  -2.7250  -2.7250  -2.3506  -2.3506
    -2.3126  -2.2273  -2.2273  -2.1936  -2.1936  -2.1364  -2.0919  -2.0086
    -2.0086  -1.9533  -1.9533  -1.9417  -1.7261  -1.7261  -1.7097  -1.1267
    -0.8801  -0.5447  -0.5447   0.5625   0.5625   0.7164   1.0174   1.3063
     1.3063   1.4079   1.8135   1.8135   2.5361   3.3136

          k = 0.0000 0.0323 0.0000 ( 19351 PWs)   bands (ev):

   -14.1065  -7.8497  -6.4320  -6.2069  -6.1519  -6.0446  -6.0141  -5.9235
    -5.9234  -5.8735  -5.6354  -5.5685  -5.5550  -5.4747  -5.4644  -5.4251
    -5.0105  -4.9619  -4.4938  -4.4683  -4.4515  -4.4011  -4.3130  -4.2838
    -4.2833  -4.2544  -4.1227  -4.0999  -4.0108  -3.9664  -3.9156  -3.8497
    -3.7875  -3.6568  -3.6288  -3.4863  -3.3901  -3.2843  -3.1317  -3.0829
    -3.0619  -2.9454  -2.8732  -2.8546  -2.7331  -2.7313  -2.5097  -2.4666
    -2.4481  -2.3883  -2.3300  -2.3169  -2.2872  -2.2739  -2.2166  -2.1717
    -2.1572  -2.1278  -2.1013  -2.0711  -1.9244  -1.9146  -1.8793  -1.4269
    -1.0208  -0.7272  -0.6491  -0.4870   0.2447   0.3021   0.6877   1.4337
     1.5399   1.8810   2.4469   2.5438   3.0940   3.6111

          k = 0.0000 0.0647 0.0000 ( 19389 PWs)   bands (ev):

   -14.0845  -7.3409  -6.2969  -6.0589  -5.8665  -5.7634  -5.7416  -5.6772
    -5.5753  -5.5443  -5.4930  -5.3808  -5.3638  -5.2432  -5.1642  -5.0939
    -4.8975  -4.7736  -4.6037  -4.5861  -4.5505  -4.4529  -4.3943  -4.3126
    -4.2397  -4.2213  -4.1572  -4.0457  -4.0385  -3.9217  -3.8361  -3.8033
    -3.7921  -3.7904  -3.7547  -3.6235  -3.4987  -3.4574  -3.3214  -3.2648
    -3.2334  -3.1896  -3.1842  -3.1203  -3.0933  -3.0681  -2.9890  -2.9317
    -2.8085  -2.7645  -2.7344  -2.6370  -2.6012  -2.5519  -2.5370  -2.4752
    -2.3454  -2.3123  -2.2476  -2.2194  -2.2082  -2.1127  -2.0811  -1.9579
    -1.7150  -0.8839  -0.7594  -0.3186   0.0729   0.1192   0.5074   1.2515
     1.6496   2.2274   2.5919   3.6285   3.6918   4.1133

          k = 0.0000-0.0970 0.0000 ( 19380 PWs)   bands (ev):

   -14.0734  -6.7613  -6.6267  -5.9946  -5.6262  -5.5613  -5.5118  -5.4426
    -5.3734  -5.3529  -5.3516  -5.2096  -5.1116  -4.9661  -4.9497  -4.9426
    -4.8653  -4.7250  -4.6644  -4.5927  -4.5497  -4.5436  -4.5380  -4.4246
    -4.3756  -4.2706  -4.1835  -4.0762  -3.9850  -3.9468  -3.8807  -3.8543
    -3.7785  -3.7503  -3.6981  -3.6755  -3.6344  -3.6253  -3.6096  -3.5420
    -3.4960  -3.4193  -3.3560  -3.3212  -3.1941  -3.1882  -3.1545  -3.1001
    -3.0345  -3.0303  -2.9551  -2.9307  -2.8683  -2.7202  -2.6539  -2.5653
    -2.5523  -2.4339  -2.3264  -2.2204  -2.1624  -2.1261  -2.0125  -1.9488
    -1.9046  -0.9934  -0.7880  -0.2503   0.0813   0.1117   0.6128   1.0135
     1.6692   2.1507   3.2510   3.7026   3.7289   4.2009

          k = 0.0280-0.0162 0.0000 ( 19351 PWs)   bands (ev):

   -14.1065  -7.8497  -6.4320  -6.2069  -6.1519  -6.0446  -6.0141  -5.9235
    -5.9234  -5.8735  -5.6354  -5.5685  -5.5550  -5.4747  -5.4644  -5.4251
    -5.0105  -4.9619  -4.4938  -4.4683  -4.4515  -4.4011  -4.3130  -4.2838
    -4.2833  -4.2544  -4.1227  -4.0999  -4.0108  -3.9664  -3.9156  -3.8497
    -3.7875  -3.6568  -3.6288  -3.4863  -3.3901  -3.2843  -3.1317  -3.0829
    -3.0619  -2.9454  -2.8732  -2.8546  -2.7331  -2.7313  -2.5097  -2.4666
    -2.4481  -2.3883  -2.3300  -2.3169  -2.2872  -2.2739  -2.2166  -2.1717
    -2.1572  -2.1278  -2.1013  -2.0711  -1.9244  -1.9146  -1.8793  -1.4269
    -1.0208  -0.7272  -0.6491  -0.4870   0.2447   0.3021   0.6877   1.4337
     1.5399   1.8810   2.4469   2.5438   3.0940   3.6111

          k = 0.0280 0.0162 0.0000 ( 19351 PWs)   bands (ev):

   -14.1065  -7.8497  -6.4320  -6.2069  -6.1519  -6.0446  -6.0141  -5.9235
    -5.9234  -5.8735  -5.6354  -5.5685  -5.5550  -5.4747  -5.4644  -5.4251
    -5.0105  -4.9619  -4.4938  -4.4683  -4.4515  -4.4011  -4.3130  -4.2838
    -4.2833  -4.2544  -4.1227  -4.0999  -4.0108  -3.9664  -3.9156  -3.8497
[...]
    -4.3090  -4.2825  -4.2267  -4.1469  -4.0938  -3.9978  -3.9404  -3.9060
    -3.8141  -3.7867  -3.7513  -3.6807  -3.6131  -3.5641  -3.4895  -3.4223
    -3.3748  -3.3585  -3.3174  -3.2498  -3.1673  -3.1319  -3.0555  -2.9896
    -2.9368  -2.8696  -2.8247  -2.8021  -2.6724  -2.5774  -2.4855  -2.4450
    -2.3201  -2.3063  -2.2751  -2.2275  -2.1532  -2.1060  -2.0530  -2.0011
    -1.6710  -1.3896  -0.9804  -0.7238  -0.0170   0.3780   0.9890   1.2777
     1.8221   2.9117   3.1075   3.3173   3.8572   4.4133

          k = 0.0280-0.0808 0.0000 ( 19376 PWs)   bands (ev):

   -14.3047  -6.9404  -6.4854  -6.0260  -5.7366  -5.5958  -5.5193  -5.4199
    -5.3726  -5.3114  -5.2642  -5.2154  -5.1240  -5.0479  -4.9988  -4.8830
    -4.8439  -4.7738  -4.7094  -4.5889  -4.5462  -4.4920  -4.4583  -4.3740
    -4.3090  -4.2825  -4.2267  -4.1469  -4.0938  -3.9978  -3.9404  -3.9060
    -3.8141  -3.7867  -3.7513  -3.6807  -3.6131  -3.5641  -3.4895  -3.4223
    -3.3748  -3.3585  -3.3174  -3.2498  -3.1673  -3.1319  -3.0555  -2.9896
    -2.9368  -2.8696  -2.8247  -2.8021  -2.6724  -2.5774  -2.4855  -2.4450
    -2.3201  -2.3063  -2.2751  -2.2275  -2.1532  -2.1060  -2.0530  -2.0011
    -1.6710  -1.3896  -0.9804  -0.7238  -0.0170   0.3780   0.9890   1.2777
     1.8221   2.9117   3.1075   3.3173   3.8572   4.4133

          k = 0.0280-0.0485 0.0000 ( 19345 PWs)   bands (ev):

   -14.3303  -7.4576  -6.4544  -6.0476  -5.9858  -5.8688  -5.8551  -5.7741
    -5.6592  -5.5484  -5.5248  -5.4389  -5.3457  -5.2887  -5.2603  -5.1778
    -4.9960  -4.8804  -4.5561  -4.5028  -4.4823  -4.4259  -4.3229  -4.2829
    -4.2387  -4.1576  -4.1051  -4.0263  -3.9527  -3.9182  -3.8983  -3.8293
    -3.7487  -3.6940  -3.6143  -3.5996  -3.5194  -3.3578  -3.2985  -3.1460
    -3.1193  -3.1113  -3.0715  -3.0469  -2.9564  -2.9022  -2.8261  -2.7980
    -2.6687  -2.6141  -2.5590  -2.5470  -2.5328  -2.4957  -2.3662  -2.2615
    -2.2124  -2.2035  -2.1704  -2.1447  -2.0663  -2.0188  -1.9762  -1.6089
    -1.4858  -1.0842  -0.9484  -0.4872  -0.1875   0.4177   0.9565   1.7322
     1.8835   2.0871   2.2928   3.0621   3.7626   3.9338

          k = 0.0560-0.0323 0.0000 ( 19389 PWs)   bands (ev):

   -14.3218  -7.3083  -6.5034  -6.0570  -5.8484  -5.8452  -5.7246  -5.6465
    -5.5197  -5.5094  -5.4829  -5.3504  -5.3443  -5.2278  -5.1911  -5.0571
    -4.9195  -4.8190  -4.5673  -4.5660  -4.5396  -4.4237  -4.3255  -4.2931
    -4.2384  -4.1577  -4.1440  -4.0366  -4.0220  -3.8789  -3.8033  -3.7908
    -3.7718  -3.7552  -3.6680  -3.6233  -3.5343  -3.4672  -3.2822  -3.2498
    -3.1990  -3.1498  -3.1388  -3.0991  -3.0759  -3.0419  -2.9778  -2.8386
    -2.8313  -2.7084  -2.6795  -2.6267  -2.5539  -2.5230  -2.5179  -2.3990
    -2.3057  -2.2543  -2.1879  -2.1833  -2.1526  -2.0688  -2.0305  -1.9293
    -1.6398  -0.7831  -0.7327  -0.3136   0.1110   0.2294   0.4976   1.3019
     1.8250   2.3595   2.5935   3.7278   3.9094   4.2481

          k = 0.0560 0.0000 0.0000 ( 19345 PWs)   bands (ev):

   -14.3303  -7.4576  -6.4544  -6.0476  -5.9858  -5.8688  -5.8551  -5.7741
    -5.6592  -5.5484  -5.5248  -5.4389  -5.3457  -5.2887  -5.2603  -5.1778
    -4.9960  -4.8804  -4.5561  -4.5028  -4.4823  -4.4259  -4.3229  -4.2829
    -4.2387  -4.1576  -4.1051  -4.0263  -3.9527  -3.9182  -3.8983  -3.8293
    -3.7487  -3.6940  -3.6143  -3.5996  -3.5194  -3.3578  -3.2985  -3.1460
    -3.1193  -3.1113  -3.0715  -3.0469  -2.9564  -2.9022  -2.8261  -2.7980
    -2.6687  -2.6141  -2.5590  -2.5470  -2.5328  -2.4957  -2.3662  -2.2615
    -2.2124  -2.2035  -2.1704  -2.1447  -2.0663  -2.0188  -1.9762  -1.6089
    -1.4858  -1.0842  -0.9484  -0.4872  -0.1875   0.4177   0.9565   1.7322
     1.8835   2.0871   2.2928   3.0621   3.7626   3.9338

          k = 0.0560 0.0323 0.0000 ( 19389 PWs)   bands (ev):

   -14.3218  -7.3083  -6.5034  -6.0570  -5.8484  -5.8452  -5.7246  -5.6465
    -5.5197  -5.5094  -5.4829  -5.3504  -5.3443  -5.2278  -5.1911  -5.0571
    -4.9195  -4.8190  -4.5673  -4.5660  -4.5396  -4.4237  -4.3255  -4.2931
    -4.2384  -4.1577  -4.1440  -4.0366  -4.0220  -3.8789  -3.8033  -3.7908
    -3.7718  -3.7552  -3.6680  -3.6233  -3.5343  -3.4672  -3.2822  -3.2498
    -3.1990  -3.1498  -3.1388  -3.0991  -3.0759  -3.0419  -2.9778  -2.8386
    -2.8313  -2.7084  -2.6795  -2.6267  -2.5539  -2.5230  -2.5179  -2.3990
    -2.3057  -2.2543  -2.1879  -2.1833  -2.1526  -2.0688  -2.0305  -1.9293
    -1.6398  -0.7831  -0.7327  -0.3136   0.1110   0.2294   0.4976   1.3019
     1.8250   2.3595   2.5935   3.7278   3.9094   4.2481

          k = 0.0560-0.1294 0.0000 ( 19376 PWs)   bands (ev):

   -14.3047  -6.9404  -6.4854  -6.0260  -5.7366  -5.5958  -5.5193  -5.4199
    -5.3726  -5.3114  -5.2642  -5.2154  -5.1240  -5.0479  -4.9988  -4.8830
    -4.8439  -4.7738  -4.7094  -4.5889  -4.5462  -4.4920  -4.4583  -4.3740
    -4.3090  -4.2825  -4.2267  -4.1469  -4.0938  -3.9978  -3.9404  -3.9060
    -3.8141  -3.7867  -3.7513  -3.6807  -3.6131  -3.5641  -3.4895  -3.4223
    -3.3748  -3.3585  -3.3174  -3.2498  -3.1673  -3.1319  -3.0555  -2.9896
    -2.9368  -2.8696  -2.8247  -2.8021  -2.6724  -2.5774  -2.4855  -2.4450
    -2.3201  -2.3063  -2.2751  -2.2275  -2.1532  -2.1060  -2.0530  -2.0011
    -1.6710  -1.3896  -0.9804  -0.7238  -0.0170   0.3780   0.9890   1.2777
     1.8221   2.9117   3.1075   3.3173   3.8572   4.4133

          k = 0.0560-0.0970 0.0000 ( 19365 PWs)   bands (ev):

   -14.2961  -6.7605  -6.2072  -6.0906  -5.7730  -5.6024  -5.3085  -5.2283
    -5.2078  -5.1409  -5.0752  -5.0505  -5.0036  -4.9942  -4.9385  -4.8765
    -4.8681  -4.8079  -4.6562  -4.6274  -4.5813  -4.5675  -4.5131  -4.4569
    -4.4440  -4.3940  -4.2462  -4.2126  -4.1890  -4.1461  -4.1184  -4.0901
    -4.0545  -3.8616  -3.7278  -3.6607  -3.6584  -3.6525  -3.6510  -3.6252
    -3.5009  -3.4149  -3.2648  -3.2613  -3.1537  -3.0874  -3.0064  -2.9427
    -2.9201  -2.8640  -2.7819  -2.6125  -2.5401  -2.5217  -2.4508  -2.4340
    -2.3666  -2.2800  -2.2521  -2.2411  -2.2285  -2.2280  -2.1843  -2.1625
    -1.8576  -1.7591  -1.2841  -0.8397  -0.1460   0.4365   1.0559   1.2151
     2.4511   2.8989   3.0423   3.7995   4.2385   4.2530

          k = 0.0560-0.0647 0.0000 ( 19376 PWs)   bands (ev):

   -14.3047  -6.9404  -6.4854  -6.0260  -5.7366  -5.5958  -5.5193  -5.4199
    -5.3726  -5.3114  -5.2642  -5.2154  -5.1240  -5.0479  -4.9988  -4.8830
    -4.8439  -4.7738  -4.7094  -4.5889  -4.5462  -4.4920  -4.4583  -4.3740
    -4.3090  -4.2825  -4.2267  -4.1469  -4.0938  -3.9978  -3.9404  -3.9060
    -3.8141  -3.7867  -3.7513  -3.6807  -3.6131  -3.5641  -3.4895  -3.4223
    -3.3748  -3.3585  -3.3174  -3.2498  -3.1673  -3.1319  -3.0555  -2.9896
    -2.9368  -2.8696  -2.8247  -2.8021  -2.6724  -2.5774  -2.4855  -2.4450
    -2.3201  -2.3063  -2.2751  -2.2275  -2.1532  -2.1060  -2.0530  -2.0011
    -1.6710  -1.3896  -0.9804  -0.7238  -0.0170   0.3780   0.9890   1.2777
     1.8221   2.9117   3.1075   3.3173   3.8572   4.4133

          k =-0.0840 0.0485 0.0000 ( 19380 PWs)   bands (ev):

   -14.3047  -6.8812  -6.5754  -6.1820  -5.6020  -5.5930  -5.5120  -5.4477
    -5.3106  -5.3057  -5.2913  -5.2709  -5.0892  -4.9632  -4.9491  -4.9445
    -4.8398  -4.7239  -4.6978  -4.5592  -4.5341  -4.4638  -4.4541  -4.3897
    -4.3798  -4.2557  -4.1741  -4.1051  -4.0585  -4.0031  -3.8501  -3.8093
    -3.7908  -3.6973  -3.6781  -3.6055  -3.6044  -3.5927  -3.5229  -3.5079
    -3.4288  -3.4261  -3.2988  -3.2893  -3.1995  -3.1510  -3.1021  -3.0514
    -3.0135  -2.9861  -2.8919  -2.8768  -2.8455  -2.6798  -2.6385  -2.4945
    -2.4861  -2.3291  -2.2585  -2.2065  -2.1425  -2.0797  -2.0040  -1.9208
    -1.7130  -0.9113  -0.8084  -0.2313   0.1647   0.2224   0.5738   1.0628
     1.8547   2.2726   3.4313   3.6664   3.9337   4.3678

          k =-0.0840 0.0808 0.0000 ( 19376 PWs)   bands (ev):

   -14.3047  -6.9404  -6.4854  -6.0260  -5.7366  -5.5958  -5.5193  -5.4199
    -5.3726  -5.3114  -5.2642  -5.2154  -5.1240  -5.0479  -4.9988  -4.8830
    -4.8439  -4.7738  -4.7094  -4.5889  -4.5462  -4.4920  -4.4583  -4.3740
    -4.3090  -4.2825  -4.2267  -4.1469  -4.0938  -3.9978  -3.9404  -3.9060
    -3.8141  -3.7867  -3.7513  -3.6807  -3.6131  -3.5641  -3.4895  -3.4223
    -3.3748  -3.3585  -3.3174  -3.2498  -3.1673  -3.1319  -3.0555  -2.9896
    -2.9368  -2.8696  -2.8247  -2.8021  -2.6724  -2.5774  -2.4855  -2.4450
    -2.3201  -2.3063  -2.2751  -2.2275  -2.1532  -2.1060  -2.0530  -2.0011
    -1.6710  -1.3896  -0.9804  -0.7238  -0.0170   0.3780   0.9890   1.2777
     1.8221   2.9117   3.1075   3.3173   3.8572   4.4133

          k =-0.0840 0.1132 0.0000 ( 19376 PWs)   bands (ev):

   -14.3047  -6.9404  -6.4854  -6.0260  -5.7366  -5.5958  -5.5193  -5.4199
    -5.3726  -5.3114  -5.2642  -5.2154  -5.1240  -5.0479  -4.9988  -4.8830
    -4.8439  -4.7738  -4.7094  -4.5889  -4.5462  -4.4920  -4.4583  -4.3740
    -4.3090  -4.2825  -4.2267  -4.1469  -4.0938  -3.9978  -3.9404  -3.9060
    -3.8141  -3.7867  -3.7513  -3.6807  -3.6131  -3.5641  -3.4895  -3.4223
    -3.3748  -3.3585  -3.3174  -3.2498  -3.1673  -3.1319  -3.0555  -2.9896
    -2.9368  -2.8696  -2.8247  -2.8021  -2.6724  -2.5774  -2.4855  -2.4450
    -2.3201  -2.3063  -2.2751  -2.2275  -2.1532  -2.1060  -2.0530  -2.0011
    -1.6710  -1.3896  -0.9804  -0.7238  -0.0170   0.3780   0.9890   1.2777
     1.8221   2.9117   3.1075   3.3173   3.8572   4.4133

          k =-0.0840-0.0485 0.0000 ( 19380 PWs)   bands (ev):

   -14.3047  -6.8812  -6.5754  -6.1820  -5.6020  -5.5930  -5.5120  -5.4477
    -5.3106  -5.3057  -5.2913  -5.2709  -5.0892  -4.9632  -4.9491  -4.9445
    -4.8398  -4.7239  -4.6978  -4.5592  -4.5341  -4.4638  -4.4541  -4.3897
    -4.3798  -4.2557  -4.1741  -4.1051  -4.0585  -4.0031  -3.8501  -3.8093
    -3.7908  -3.6973  -3.6781  -3.6055  -3.6044  -3.5927  -3.5229  -3.5079
    -3.4288  -3.4261  -3.2988  -3.2893  -3.1995  -3.1510  -3.1021  -3.0514
    -3.0135  -2.9861  -2.8919  -2.8768  -2.8455  -2.6798  -2.6385  -2.4945
    -2.4861  -2.3291  -2.2585  -2.2065  -2.1425  -2.0797  -2.0040  -1.9208
    -1.7130  -0.9113  -0.8084  -0.2313   0.1647   0.2224   0.5738   1.0628
     1.8547   2.2726   3.4313   3.6664   3.9337   4.3678

     the Fermi energy is     0.0145 ev

!    total energy              =   -1420.60434834 Ry
     Harris-Foulkes estimate   =   -1420.60434864 Ry
     estimated scf accuracy    <       0.00000004 Ry

     The total energy is the sum of the following terms:

     one-electron contribution =   -8318.88505158 Ry
     hartree contribution      =    4256.39080913 Ry
     xc contribution           =    -773.47089937 Ry
     ewald contribution        =    3415.38638355 Ry
     electric field correction =       0.00009783 Ry
     smearing contrib. (-TS)   =      -0.02568791 Ry

     convergence has been achieved in   7 iterations
 
 BEEF-vdW xc energy contributions
           1 :   -691.274544025464     
           2 :    642.529463445967     
           3 :   -555.350819125758     
           4 :    446.625757613521     
           5 :   -334.599114085161     
           6 :    234.178425748460     
           7 :   -154.120097373151     
           8 :    96.5579939771492     
           9 :   -58.5865198034562     
          10 :    34.9044628130373     
          11 :   -20.3283952154062     
          12 :    11.2525437416919     
          13 :   -5.81405781101080     
          14 :    3.14965944177675     
          15 :   -2.47220855763862     
          16 :    2.56224960134568     
          17 :   -1.90473888888482     
          18 :  -0.718920120137568     
          19 :    5.60090067029864     
          20 :   -11.8638497991876     
          21 :    17.7867434117849     
          22 :   -21.5634779723521     
          23 :    22.1092043671661     
          24 :   -19.5180588628230     
          25 :    14.9615932354413     
          26 :   -10.1142691182620     
          27 :    6.41266144564156     
          28 :   -4.51744069711481     
          29 :    4.20965180537598     
          30 :   -4.71617466209329     
          31 :   -54.7579723721115     
          32 :   -39.9029680005381     

     Forces acting on atoms (Ry/au):


     negative rho (up, down):  6.046E-04 0.000E+00
     atom    1 type  1   force =     0.00000000   -0.00000002   -0.00067058
     atom    2 type  1   force =    -0.00000000   -0.00104424   -0.00485277
     atom    3 type  1   force =    -0.00090436    0.00052212   -0.00485276
     atom    4 type  1   force =     0.00090434    0.00052212   -0.00485278
     atom    5 type  1   force =     0.00279776   -0.00161530    0.00035673
     atom    6 type  1   force =    -0.00279779   -0.00161518    0.00035668
     atom    7 type  1   force =     0.00000007    0.00000006    0.01560499
     atom    8 type  1   force =    -0.00000012    0.00323069    0.00035667
     atom    9 type  1   force =     0.00061785    0.00035625    0.00008871
     atom   10 type  1   force =    -0.00061836    0.00035672    0.00008920
     atom   11 type  1   force =     0.00000018   -0.00071325    0.00008889
     atom   12 type  1   force =    -0.00000013    0.00000011    0.00020134
     atom   13 type  2   force =     0.00000055   -0.00000008   -0.00191432

     Total force =     0.002293     Total SCF correction =     0.000441
     SCF correction compared to forces is large: reduce conv_thr to get better values


     entering subroutine stress ...


     negative rho (up, down):  6.046E-04 0.000E+00
          total   stress  (Ry/bohr**3)                   (kbar)     P=   -5.97
  -0.00006553   0.00000000   0.00000000         -9.64      0.00      0.00
   0.00000000  -0.00006553  -0.00000000          0.00     -9.64     -0.00
   0.00000000  -0.00000000   0.00000937          0.00     -0.00      1.38


     bfgs converged in  12 scf cycles and  11 bfgs steps
     (criteria: energy <  1.0E+00, force <  1.9E-03)

     End of BFGS Geometry Optimization

     Final energy   =   -1420.6043483435 Ry
Begin final coordinates

ATOMIC_POSITIONS (crystal)
Au1      0.166666667   0.166666667   0.402269971    0   0   0
Au1      0.666666667   0.166666667   0.402269971    0   0   0
Au1      0.166666667   0.666666667   0.402269971    0   0   0
Au1      0.666666667   0.666666667   0.402269971    0   0   0
Au1      0.833333333   0.333333333   0.500000000    0   0   0
Au1      0.333333333   0.333333333   0.500000000    0   0   0
Au1      0.833333333   0.833333333   0.500000000    0   0   0
Au1      0.333333333   0.833333333   0.500000000    0   0   0
Au1     -0.008455774  -0.008454493   0.600865756
Au1      0.516910010  -0.008454486   0.600865591
Au1     -0.008455614   0.516910801   0.600865685
Au1      0.499999754   0.500000534   0.593949801
N1       0.166666228   0.166667157   0.641240195
End final coordinates



     Writing output data file calc.save
 
     init_run     :     14.39s CPU     14.81s WALL (       1 calls)
     electrons    :   3067.16s CPU   3230.42s WALL (      12 calls)
     update_pot   :     34.09s CPU     35.80s WALL (      11 calls)
     forces       :    304.11s CPU    324.17s WALL (      12 calls)
     stress       :    919.35s CPU    980.00s WALL (      12 calls)

     Called by init_run:
     wfcinit      :      3.80s CPU      3.85s WALL (       1 calls)
     potinit      :      1.87s CPU      1.96s WALL (       1 calls)

     Called by electrons:
     c_bands      :    838.86s CPU    870.71s WALL (      98 calls)
     sum_band     :    719.51s CPU    760.89s WALL (      98 calls)
     v_of_rho     :    166.36s CPU    182.07s WALL (     105 calls)
     newd         :    799.98s CPU    809.69s WALL (     105 calls)
     mix_rho      :      5.07s CPU      5.23s WALL (      98 calls)
     vdW_energy   :    125.84s CPU    138.35s WALL (     537 calls)
     vdW_ffts     :    284.69s CPU    293.85s WALL (    1098 calls)
     vdW_v        :    106.81s CPU    112.04s WALL (     537 calls)

     Called by c_bands:
     init_us_2    :      7.67s CPU      7.70s WALL (    1105 calls)
     cegterg      :    746.01s CPU    763.04s WALL (     490 calls)

     Called by *egterg:
     h_psi        :    524.61s CPU    537.12s WALL (    1834 calls)
     s_psi        :     61.27s CPU     61.40s WALL (    1834 calls)
     g_psi        :      2.97s CPU      3.00s WALL (    1339 calls)
     cdiaghg      :     36.79s CPU     37.07s WALL (    1749 calls)

     Called by h_psi:
     add_vuspsi   :     61.93s CPU     62.07s WALL (    1834 calls)

     General routines
     calbec       :     97.74s CPU    100.05s WALL (    2444 calls)
     fft          :    436.48s CPU    462.87s WALL (   32197 calls)
     ffts         :      0.38s CPU      0.42s WALL (     203 calls)
     fftw         :    312.92s CPU    326.10s WALL (  233712 calls)
     interpolate  :      3.58s CPU      3.69s WALL (     203 calls)
     davcio       :      0.00s CPU      0.02s WALL (       5 calls)
 
     Parallel routines
     fft_scatter  :    441.17s CPU    477.70s WALL (  266112 calls)
 
     PWSCF        :     1h13m CPU        1h18m WALL

 
   This run was terminated on:  10:32:51   4May2018            

=------------------------------------------------------------------------------=
   JOB DONE.
=------------------------------------------------------------------------------=
Job  /afs/slac/g/suncat/bin/suncat-tsmpirun -x LD_LIBRARY_PATH -wdir /scratch/qe926284_au0J8 pw.x -npool 4 -in pw.inp

TID   HOST_NAME   COMMAND_LINE            STATUS            TERMINATION_TIME
===== ========== ================  =======================  ===================
00000 suncat0065 pw.x -npool 4 -i  Done                     05/04/2018 10:32:51
00001 suncat0065 pw.x -npool 4 -i  Done                     05/04/2018 10:32:51
00002 suncat0065 pw.x -npool 4 -i  Done                     05/04/2018 10:32:51
00003 suncat0065 pw.x -npool 4 -i  Done                     05/04/2018 10:32:51
00004 suncat0065 pw.x -npool 4 -i  Done                     05/04/2018 10:32:51
00005 suncat0065 pw.x -npool 4 -i  Done                     05/04/2018 10:32:51
00006 suncat0065 pw.x -npool 4 -i  Done                     05/04/2018 10:32:51
00007 suncat0065 pw.x -npool 4 -i  Done                     05/04/2018 10:32:51
00008 suncat0198 pw.x -npool 4 -i  Done                     05/04/2018 10:32:51
00009 suncat0198 pw.x -npool 4 -i  Done                     05/04/2018 10:32:51
00010 suncat0198 pw.x -npool 4 -i  Done                     05/04/2018 10:32:51
00011 suncat0198 pw.x -npool 4 -i  Done                     05/04/2018 10:32:51
00012 suncat0198 pw.x -npool 4 -i  Done                     05/04/2018 10:32:51
00013 suncat0198 pw.x -npool 4 -i  Done                     05/04/2018 10:32:51
00014 suncat0198 pw.x -npool 4 -i  Done                     05/04/2018 10:32:51
00015 suncat0198 pw.x -npool 4 -i  Done                     05/04/2018 10:32:51
00016 suncat0178 pw.x -npool 4 -i  Done                     05/04/2018 10:32:51
00017 suncat0178 pw.x -npool 4 -i  Done                     05/04/2018 10:32:51
00018 suncat0178 pw.x -npool 4 -i  Done                     05/04/2018 10:32:51
00019 suncat0178 pw.x -npool 4 -i  Done                     05/04/2018 10:32:51
00020 suncat0178 pw.x -npool 4 -i  Done                     05/04/2018 10:32:51
00021 suncat0178 pw.x -npool 4 -i  Done                     05/04/2018 10:32:51
00022 suncat0178 pw.x -npool 4 -i  Done                     05/04/2018 10:32:51
00023 suncat0178 pw.x -npool 4 -i  Done                     05/04/2018 10:32:51
00024 suncat0105 pw.x -npool 4 -i  Done                     05/04/2018 10:32:51
00025 suncat0105 pw.x -npool 4 -i  Done                     05/04/2018 10:32:51
00026 suncat0105 pw.x -npool 4 -i  Done                     05/04/2018 10:32:51
00027 suncat0105 pw.x -npool 4 -i  Done                     05/04/2018 10:32:51
00028 suncat0105 pw.x -npool 4 -i  Done                     05/04/2018 10:32:51
00029 suncat0105 pw.x -npool 4 -i  Done                     05/04/2018 10:32:51
00030 suncat0105 pw.x -npool 4 -i  Done                     05/04/2018 10:32:51
00031 suncat0105 pw.x -npool 4 -i  Done                     05/04/2018 10:32:51
