  python dir          : /u/if/mamunm/src/espresso
  espresso dir        : /nfs/slac/g/suncatfs/sw/espv18/espresso-dynpy-beef/bin
  pseudo dir          : /u/if/mamunm/psp/gbrv1.5pbe
  ase-espresso py git : GITVERSION



     Program PWSCF v.5.1rc2 (svn rev. 11289) starts on 16Apr2018 at  9:58:16 

     This program is part of the open-source Quantum ESPRESSO suite
     for quantum simulation of materials; please cite
         "P. Giannozzi et al., J. Phys.:Condens. Matter 21 395502 (2009);
          URL http://www.quantum-espresso.org", 
     in publications or presentations arising from this work. More details at
     http://www.quantum-espresso.org/quote

     Parallel version (MPI), running on    32 processors
     K-points division:     npool     =       4
     R & G space division:  proc/nbgrp/npool/nimage =       8
     Reading input from pw.inp
     Message from routine read_cards :
     DEPRECATED: no units specified in CELL_PARAMETERS card

     Current dimensions of program PWSCF are:
     Max number of different atomic species (ntypx) = 10
     Max number of k-points (npk) =  40000
     Max angular momentum in pseudopotentials (lmaxx) =  3
     Presently stress not available with electric field


     **************************************************************************
     Initializing libbeef V0.1.1 with the BEEF-vdW functional.
     Citation: Wellendorff et al., PRB 85, 235149 (2012).
     **************************************************************************


     IMPORTANT: XC functional enforced from input :
     Exchange-correlation      = BEEF-VDW ( 1  4 27 13 2)
     Any further DFT definition will be discarded
     Please, verify this is what you really want


     Subspace diagonalization in iterative solution of the eigenvalue problem:
     a serial algorithm will be used

 
     Parallelization info
     --------------------
     sticks:   dense  smooth     PW     G-vecs:    dense   smooth      PW
     Min         402     160     45                76958    19469    3023
     Max         403     161     46                76979    19511    3040
     Sum        3217    1285    367               615719   155893   24283
 


     bravais-lattice index     =            0
     lattice parameter (alat)  =       1.8897  a.u.
     unit-cell volume          =    5174.6160 (a.u.)^3
     number of atoms/cell      =           14
     number of atomic types    =            3
     number of electrons       =       235.00
     number of Kohn-Sham states=          127
     kinetic-energy cutoff     =      36.7493  Ry
     charge density cutoff     =     367.4932  Ry
     convergence threshold     =      1.0E-05
     mixing beta               =       0.3000
     number of iterations used =           10  plain     mixing
     Exchange-correlation      = BEEF-VDW ( 1  4 27 13 2)
     nstep                     =           50


     celldm(1)=   1.889726  celldm(2)=   0.000000  celldm(3)=   0.000000
     celldm(4)=   0.000000  celldm(5)=   0.000000  celldm(6)=   0.000000

     crystal axes: (cart. coord. in units of alat)
               a(1) = (   5.966546   0.000000   0.000000 )  
               a(2) = (   2.983273   5.167181   0.000000 )  
               a(3) = (   0.000000   0.000000  24.871665 )  

     reciprocal axes: (cart. coord. in units 2 pi/alat)
               b(1) = (  0.167601 -0.096765  0.000000 )  
               b(2) = (  0.000000  0.193529  0.000000 )  
               b(3) = (  0.000000  0.000000  0.040206 )  


     PseudoPot. # 1 for Ag read from file:
     /u/if/mamunm/psp/gbrv1.5pbe/Ag.UPF
     MD5 check sum: d66d668201baa78d5eb5b04ef7011058
     Pseudo is Ultrasoft + core correction, Zval = 19.0
     Generated by new atomic code, or converted to UPF format
     Using radial grid of  887 points,  6 beta functions with: 
                l(1) =   0
                l(2) =   0
                l(3) =   1
                l(4) =   1
                l(5) =   2
                l(6) =   2
     Q(r) pseudized with  6 coefficients,  rinner =    1.300   1.300   1.300
                                                       1.300   1.300

     PseudoPot. # 2 for O  read from file:
     /u/if/mamunm/psp/gbrv1.5pbe/O.UPF
     MD5 check sum: 734c27235a0248c51dbae37a1fbe46ec
     Pseudo is Ultrasoft + core correction, Zval =  6.0
     Generated by new atomic code, or converted to UPF format
     Using radial grid of  737 points,  5 beta functions with: 
                l(1) =   0
                l(2) =   0
                l(3) =   1
                l(4) =   1
                l(5) =   2
     Q(r) pseudized with  8 coefficients,  rinner =    0.900   0.900   0.900
                                                       0.900   0.900

     PseudoPot. # 3 for H  read from file:
     /u/if/mamunm/psp/gbrv1.5pbe/H.UPF
     MD5 check sum: 761ae9a214b05c3daf00ab9f6b793d6f
     Pseudo is Ultrasoft, Zval =  1.0
     Generated by new atomic code, or converted to UPF format
     Using radial grid of  615 points,  2 beta functions with: 
                l(1) =   0
                l(2) =   0
     Q(r) pseudized with  8 coefficients,  rinner =    0.700

     vdW kernel table read from file vdW_kernel_table
     MD5 check sum: 095c7af220d748ca6e76c0b4c6cfb241

     atomic species   valence    mass     pseudopotential
        Ag1           19.00   107.86820     Ag( 1.00)
        O1             6.00    15.99900     O ( 1.00)
        H1             1.00     1.00800     H ( 1.00)

     No symmetry found



   Cartesian axes

     site n.     atom                  positions (alat units)
         1           Ag1 tau(   1) = (   1.4916366   0.8611968  10.0000000  )
         2           Ag1 tau(   2) = (   4.4749098   0.8611968  10.0000000  )
         3           Ag1 tau(   3) = (   2.9832732   3.4447871  10.0000000  )
         4           Ag1 tau(   4) = (   5.9665464   3.4447871  10.0000000  )
         5           Ag1 tau(   5) = (   5.9665464   1.7223936  12.4358324  )
         6           Ag1 tau(   6) = (   2.9832732   1.7223936  12.4358324  )
         7           Ag1 tau(   7) = (   7.4581830   4.3059839  12.4358324  )
         8           Ag1 tau(   8) = (   4.4749098   4.3059839  12.4358324  )
         9           Ag1 tau(   9) = (   0.0000000   0.0000000  14.8716647  )
        10           Ag1 tau(  10) = (   2.9832732   0.0000000  14.8716647  )
        11           Ag1 tau(  11) = (   1.4916366   2.5835904  14.8716647  )
        12           Ag1 tau(  12) = (   4.4749098   2.5835904  14.8716647  )
        13           O1  tau(  13) = (   1.4916366   0.0000000  16.4541647  )
        14           H1  tau(  14) = (   1.4916366   0.0000000  17.4041647  )

     number of k points=    20  Fermi-Dirac smearing, width (Ry)=  0.0110
                       cart. coord. in units 2pi/alat
        k(    1) = (   0.0000000   0.0000000   0.0000000), wk =   0.0555556
        k(    2) = (   0.0000000   0.0322549   0.0000000), wk =   0.1111111
        k(    3) = (   0.0000000   0.0645097   0.0000000), wk =   0.1111111
        k(    4) = (   0.0000000  -0.0967646   0.0000000), wk =   0.0555556
        k(    5) = (   0.0279335  -0.0161274   0.0000000), wk =   0.1111111
        k(    6) = (   0.0279335   0.0161274   0.0000000), wk =   0.1111111
        k(    7) = (   0.0279335   0.0483823   0.0000000), wk =   0.1111111
        k(    8) = (   0.0279335  -0.1128920   0.0000000), wk =   0.1111111
        k(    9) = (   0.0279335  -0.0806371   0.0000000), wk =   0.1111111
        k(   10) = (   0.0279335  -0.0483823   0.0000000), wk =   0.1111111
        k(   11) = (   0.0558670  -0.0322549   0.0000000), wk =   0.1111111
        k(   12) = (   0.0558670   0.0000000   0.0000000), wk =   0.1111111
        k(   13) = (   0.0558670   0.0322549   0.0000000), wk =   0.1111111
        k(   14) = (   0.0558670  -0.1290194   0.0000000), wk =   0.1111111
        k(   15) = (   0.0558670  -0.0967646   0.0000000), wk =   0.1111111
        k(   16) = (   0.0558670  -0.0645097   0.0000000), wk =   0.1111111
        k(   17) = (  -0.0838006   0.0483823   0.0000000), wk =   0.0555556
        k(   18) = (  -0.0838006   0.0806371   0.0000000), wk =   0.1111111
        k(   19) = (  -0.0838006   0.1128920   0.0000000), wk =   0.1111111
        k(   20) = (  -0.0838006  -0.0483823   0.0000000), wk =   0.0555556

     Dense  grid:   615719 G-vectors     FFT dimensions: (  72,  72, 288)

     Smooth grid:   155893 G-vectors     FFT dimensions: (  45,  45, 192)

     Largest allocated arrays     est. size (Mb)     dimensions
        Kohn-Sham Wavefunctions         4.79 Mb     (    2474,  127)
        NL pseudopotentials             8.72 Mb     (    2474,  231)
        Each V/rho on FFT grid          2.85 Mb     (  186624)
        Each G-vector array             0.59 Mb     (   76979)
        G-vector shells                 0.16 Mb     (   20444)
     Largest temporary arrays     est. size (Mb)     dimensions
        Auxiliary wavefunctions        19.18 Mb     (    2474,  508)
        Each subspace H/S matrix        3.94 Mb     (     508,  508)
        Each <psi_i|beta_j> matrix      0.45 Mb     (     231,  127)
        Arrays for rho mixing          28.48 Mb     (  186624,   10)

     Initial potential from superposition of free atoms
     Check: negative starting charge=   -0.002054

     starting charge  228.99942, renormalised to  235.00000

     negative rho (up, down):  2.108E-03 0.000E+00


     ************************************************************************
     *
     * You are using vdW-DF for exchange-correlation in this calculation.
     * Please cite the following three references that made this development
     * possible:
     *
     *   M. Dion, H. Rydberg, E. Schroder, D. C. Langreth, and
     *   B. I. Lundqvist, Phys. Rev. Lett. 92, 246401 (2004).
     *
     *   T. Thonhauser, V. R. Cooper, S. Li, A. Puzder, P. Hyldgaard, and
     *   D. C. Langreth, Phys. Rev. B 76, 125112 (2007).
     *
     *   G. Roman-Perez and J. M. Soler, Phys. Rev. Lett. 103, 096102 (2009).
     *
     *
     * If you are using vdW-DF2, please also cite:
     *
     *   K. Lee, E. D. Murray, L. Kong, B. I. Lundqvist, and
     *   D. C. Langreth, Phys. Rev. B 82, 081101(R) (2010).
     *
     *
     * If you are calculating the stress with vdW-DF, please also cite:
     *
     *   R. Sabatini, E. Kucukbenli, B. Kolb, T. Thonhauser, and
     *   S. de Gironcoli, J. Phys.: Condens. Matter 24, 424209 (2012).
     *
     ************************************************************************

     Carrying out vdW-DF run using the following parameters:

     Nqs =      20    Nr_points =    1024   r_max =   100.000
     q_mesh =
               0.00001000     0.04494208     0.09755937     0.15916263
               0.23128650     0.31572767     0.41458969     0.53033537
               0.66584808     0.82450364     1.01025438     1.22772762
               1.48234092     1.78043706     2.12944203     2.53805004
               3.01644009     3.57652955     4.23227104     5.00000000

     Gradients computed in reciprocal space

     ************************************************************************


 
     Adding external electric field

     Computed dipole along edir(3) : 
        Dipole               -1.4398 Ry au,         -3.6596 Debye
        Dipole field         -0.0035 Ry au
 
        Potential amp.        0.3205 Ry
        Total length         45.8256 bohr
 
     Starting wfc are  161 randomized atomic wfcs

     total cpu time spent up to now is       13.9 secs

     per-process dynamical memory:    98.2 Mb

     Self-consistent Calculation

     iteration #  1     ecut=    36.75 Ry     beta=0.30
     Davidson diagonalization with overlap
     ethr =  1.00E-02,  avg # of iterations =  5.8

     negative rho (up, down):  1.008E-03 0.000E+00
 
     Adding external electric field

     Computed dipole along edir(3) : 
        Dipole               15.1384 Ry au,         38.4781 Debye
        Dipole field          0.0368 Ry au
 
        Potential amp.       -3.3694 Ry
        Total length         45.8256 bohr
 

     total cpu time spent up to now is       42.1 secs

     total energy              =   -3578.39965283 Ry
     Harris-Foulkes estimate   =   -3596.56183509 Ry
     estimated scf accuracy    <      38.99937383 Ry

     iteration #  2     ecut=    36.75 Ry     beta=0.30
     Davidson diagonalization with overlap
     ethr =  1.00E-02,  avg # of iterations = 10.5

     negative rho (up, down):  2.847E-06 0.000E+00
 
     Adding external electric field

     Computed dipole along edir(3) : 
        Dipole                0.3837 Ry au,          0.9754 Debye
        Dipole field          0.0009 Ry au
 
        Potential amp.       -0.0854 Ry
        Total length         45.8256 bohr
 

     total cpu time spent up to now is       86.5 secs

     total energy              =   -3528.85864966 Ry
     Harris-Foulkes estimate   =   -3683.05764449 Ry
     estimated scf accuracy    <    5690.66922817 Ry

     iteration #  3     ecut=    36.75 Ry     beta=0.30
     Davidson diagonalization with overlap
     ethr =  1.00E-02,  avg # of iterations = 10.7

     negative rho (up, down):  4.301E-05 0.000E+00
 
     Adding external electric field

     Computed dipole along edir(3) : 
        Dipole                1.4313 Ry au,          3.6380 Debye
        Dipole field          0.0035 Ry au
 
        Potential amp.       -0.3186 Ry
        Total length         45.8256 bohr
 

     total cpu time spent up to now is      128.2 secs

     total energy              =   -3581.91421378 Ry
     Harris-Foulkes estimate   =   -3600.48601865 Ry
     estimated scf accuracy    <     241.82955759 Ry

     iteration #  4     ecut=    36.75 Ry     beta=0.30
     Davidson diagonalization with overlap
     ethr =  1.00E-02,  avg # of iterations =  4.4

     negative rho (up, down):  1.196E-02 0.000E+00
 
     Adding external electric field

     Computed dipole along edir(3) : 
        Dipole                1.2335 Ry au,          3.1351 Debye
        Dipole field          0.0030 Ry au
 
        Potential amp.       -0.2745 Ry
        Total length         45.8256 bohr
 

     total cpu time spent up to now is      157.8 secs

     total energy              =   -3593.16999626 Ry
     Harris-Foulkes estimate   =   -3593.82709644 Ry
     estimated scf accuracy    <       1.82209108 Ry

     iteration #  5     ecut=    36.75 Ry     beta=0.30
     Davidson diagonalization with overlap
     ethr =  7.75E-04,  avg # of iterations =  4.0

     negative rho (up, down):  4.723E-05 0.000E+00
 
     Adding external electric field

     Computed dipole along edir(3) : 
        Dipole                0.4267 Ry au,          1.0844 Debye
        Dipole field          0.0010 Ry au
 
        Potential amp.       -0.0950 Ry
        Total length         45.8256 bohr
 

     total cpu time spent up to now is      186.3 secs

     total energy              =   -3593.56761612 Ry
     Harris-Foulkes estimate   =   -3593.67405756 Ry
     estimated scf accuracy    <       0.44605223 Ry

     iteration #  6     ecut=    36.75 Ry     beta=0.30
     Davidson diagonalization with overlap
     ethr =  1.90E-04,  avg # of iterations =  3.5

     negative rho (up, down):  6.757E-05 0.000E+00
 
     Adding external electric field

     Computed dipole along edir(3) : 
        Dipole                0.0818 Ry au,          0.2080 Debye
        Dipole field          0.0002 Ry au
 
        Potential amp.       -0.0182 Ry
        Total length         45.8256 bohr
 

     total cpu time spent up to now is      210.1 secs

     total energy              =   -3593.56538462 Ry
     Harris-Foulkes estimate   =   -3593.59791564 Ry
     estimated scf accuracy    <       0.08400853 Ry

     iteration #  7     ecut=    36.75 Ry     beta=0.30
     Davidson diagonalization with overlap
     ethr =  3.57E-05,  avg # of iterations =  4.1

     negative rho (up, down):  1.266E-04 0.000E+00
 
     Adding external electric field

     Computed dipole along edir(3) : 
        Dipole               -0.2082 Ry au,         -0.5293 Debye
        Dipole field         -0.0005 Ry au
 
        Potential amp.        0.0463 Ry
        Total length         45.8256 bohr
 

     total cpu time spent up to now is      235.5 secs

     total energy              =   -3593.56714332 Ry
     Harris-Foulkes estimate   =   -3593.57465402 Ry
     estimated scf accuracy    <       0.01874246 Ry

     iteration #  8     ecut=    36.75 Ry     beta=0.30
     Davidson diagonalization with overlap
     ethr =  7.98E-06,  avg # of iterations =  6.5

     negative rho (up, down):  2.383E-04 0.000E+00
 
     Adding external electric field

     Computed dipole along edir(3) : 
        Dipole               -0.2630 Ry au,         -0.6686 Debye
        Dipole field         -0.0006 Ry au
 
        Potential amp.        0.0585 Ry
        Total length         45.8256 bohr
 

     total cpu time spent up to now is      261.6 secs

     total energy              =   -3593.56763614 Ry
     Harris-Foulkes estimate   =   -3593.56868746 Ry
     estimated scf accuracy    <       0.00611387 Ry

     iteration #  9     ecut=    36.75 Ry     beta=0.30
     Davidson diagonalization with overlap
     ethr =  2.60E-06,  avg # of iterations =  4.3

     negative rho (up, down):  3.448E-04 0.000E+00
 
     Adding external electric field

     Computed dipole along edir(3) : 
        Dipole               -0.2290 Ry au,         -0.5820 Debye
        Dipole field         -0.0006 Ry au
 
        Potential amp.        0.0510 Ry
        Total length         45.8256 bohr
 

     total cpu time spent up to now is      286.3 secs

     total energy              =   -3593.56767321 Ry
     Harris-Foulkes estimate   =   -3593.56794333 Ry
     estimated scf accuracy    <       0.00395771 Ry

     iteration # 10     ecut=    36.75 Ry     beta=0.30
     Davidson diagonalization with overlap
     ethr =  1.68E-06,  avg # of iterations =  5.9

     negative rho (up, down):  6.066E-04 0.000E+00
 
     Adding external electric field

     Computed dipole along edir(3) : 
        Dipole               -0.2336 Ry au,         -0.5937 Debye
        Dipole field         -0.0006 Ry au
 
        Potential amp.        0.0520 Ry
        Total length         45.8256 bohr
 

     total cpu time spent up to now is      311.3 secs

     total energy              =   -3593.56761382 Ry
     Harris-Foulkes estimate   =   -3593.56775342 Ry
     estimated scf accuracy    <       0.00278136 Ry

     iteration # 11     ecut=    36.75 Ry     beta=0.30
     Davidson diagonalization with overlap
     ethr =  1.18E-06,  avg # of iterations =  4.2

     negative rho (up, down):  6.700E-04 0.000E+00
 
     Adding external electric field

     Computed dipole along edir(3) : 
        Dipole               -0.1986 Ry au,         -0.5047 Debye
        Dipole field         -0.0005 Ry au
 
        Potential amp.        0.0442 Ry
        Total length         45.8256 bohr
 

     total cpu time spent up to now is      335.1 secs

     total energy              =   -3593.56755349 Ry
     Harris-Foulkes estimate   =   -3593.56769597 Ry
     estimated scf accuracy    <       0.00220819 Ry

     iteration # 12     ecut=    36.75 Ry     beta=0.30
     Davidson diagonalization with overlap
     ethr =  9.40E-07,  avg # of iterations =  5.3

     negative rho (up, down):  7.189E-04 0.000E+00
 
     Adding external electric field

     Computed dipole along edir(3) : 
        Dipole               -0.1787 Ry au,         -0.4542 Debye
        Dipole field         -0.0004 Ry au
 
        Potential amp.        0.0398 Ry
        Total length         45.8256 bohr
 

     total cpu time spent up to now is      361.4 secs

     total energy              =   -3593.56750683 Ry
     Harris-Foulkes estimate   =   -3593.56758060 Ry
     estimated scf accuracy    <       0.00181033 Ry

     iteration # 13     ecut=    36.75 Ry     beta=0.30
     Davidson diagonalization with overlap
     ethr =  7.70E-07,  avg # of iterations =  1.0

     negative rho (up, down):  1.938E-03 0.000E+00
 
     Adding external electric field

     Computed dipole along edir(3) : 
        Dipole                0.0850 Ry au,          0.2161 Debye
        Dipole field          0.0002 Ry au
 
        Potential amp.       -0.0189 Ry
        Total length         45.8256 bohr
 

     total cpu time spent up to now is      383.1 secs

     total energy              =   -3593.56721743 Ry
     Harris-Foulkes estimate   =   -3593.56756844 Ry
     estimated scf accuracy    <       0.00158848 Ry

     iteration # 14     ecut=    36.75 Ry     beta=0.30
     Davidson diagonalization with overlap
     ethr =  6.76E-07,  avg # of iterations =  5.9

     negative rho (up, down):  2.394E-03 0.000E+00
 
     Adding external electric field

     Computed dipole along edir(3) : 
        Dipole                0.1058 Ry au,          0.2689 Debye
        Dipole field          0.0003 Ry au
 
        Potential amp.       -0.0235 Ry
        Total length         45.8256 bohr
 

     total cpu time spent up to now is      409.7 secs

     total energy              =   -3593.56733743 Ry
     Harris-Foulkes estimate   =   -3593.56733941 Ry
     estimated scf accuracy    <       0.00004878 Ry

     iteration # 15     ecut=    36.75 Ry     beta=0.30
     Davidson diagonalization with overlap
     ethr =  2.08E-08,  avg # of iterations =  2.4

     negative rho (up, down):  2.156E-03 0.000E+00

     negative rho (up, down):  2.156E-03 0.000E+00

     negative rho (up, down):  2.156E-03 0.000E+00

     negative rho (up, down):  2.156E-03 0.000E+00

     negative rho (up, down):  2.156E-03 0.000E+00

     negative rho (up, down):  2.156E-03 0.000E+00

     negative rho (up, down):  2.156E-03 0.000E+00

     negative rho (up, down):  2.156E-03 0.000E+00

     negative rho (up, down):  2.156E-03 0.000E+00

     negative rho (up, down):  2.156E-03 0.000E+00

     negative rho (up, down):  2.156E-03 0.000E+00

     negative rho (up, down):  2.156E-03 0.000E+00

     negative rho (up, down):  2.156E-03 0.000E+00

     negative rho (up, down):  2.156E-03 0.000E+00

     negative rho (up, down):  2.156E-03 0.000E+00

     negative rho (up, down):  2.156E-03 0.000E+00

     negative rho (up, down):  2.156E-03 0.000E+00

     negative rho (up, down):  2.156E-03 0.000E+00

     negative rho (up, down):  2.156E-03 0.000E+00

     negative rho (up, down):  2.156E-03 0.000E+00

     negative rho (up, down):  2.156E-03 0.000E+00

     negative rho (up, down):  2.156E-03 0.000E+00

     negative rho (up, down):  2.156E-03 0.000E+00

     negative rho (up, down):  2.156E-03 0.000E+00

     negative rho (up, down):  2.156E-03 0.000E+00

     negative rho (up, down):  2.156E-03 0.000E+00

     negative rho (up, down):  2.156E-03 0.000E+00

     negative rho (up, down):  2.156E-03 0.000E+00

     negative rho (up, down):  2.156E-03 0.000E+00

     negative rho (up, down):  2.156E-03 0.000E+00

     negative rho (up, down):  2.156E-03 0.000E+00

     negative rho (up, down):  2.156E-03 0.000E+00

     negative rho (up, down):  2.156E-03 0.000E+00

     negative rho (up, down):  2.156E-03 0.000E+00

     negative rho (up, down):  2.156E-03 0.000E+00
 
     Adding external electric field

     Computed dipole along edir(3) : 
        Dipole                0.0968 Ry au,          0.2461 Debye
        Dipole field          0.0002 Ry au
 
        Potential amp.       -0.0215 Ry
        Total length         45.8256 bohr
 

     total cpu time spent up to now is      482.7 secs

     End of self-consistent calculation

          k = 0.0000 0.0000 0.0000 ( 19435 PWs)   bands (ev):

   -90.6132 -90.6088 -90.5997 -90.5927 -90.4134 -90.4086 -90.4059 -90.3887
   -90.3855 -90.3720 -90.2838 -90.2804 -54.1507 -54.1449 -54.1408 -54.1118
   -54.1040 -54.0923 -54.0874 -54.0871 -54.0829 -54.0799 -54.0609 -54.0591
   -53.9547 -53.9478 -53.9462 -53.9331 -53.9084 -53.8937 -53.8922 -53.8905
   -53.8900 -53.8879 -53.8865 -53.8846 -53.8718 -53.8660 -53.8652 -53.8651
   -53.8596 -53.8485 -53.8187 -53.8046 -53.7956 -53.7818 -53.7364 -53.7222
   -17.7188  -6.2699  -4.9743  -4.3457  -4.3444  -4.3424  -4.3035  -4.2136
    -4.2063  -4.1881  -4.1276  -4.0932  -4.0914  -4.0144  -3.9621  -3.9231
    -3.7650  -3.3902  -3.3537  -3.3272  -3.2811  -3.2491  -3.1900  -3.1659
    -3.1641  -3.1220  -3.0666  -2.9912  -2.9773  -2.9486  -2.9249  -2.8736
    -2.8524  -2.7540  -2.4303  -2.4050  -2.3303  -2.3263  -2.3196  -2.3056
    -2.2691  -2.2149  -2.1591  -2.1570  -2.0643  -2.0431  -1.9408  -1.9013
    -1.8234  -1.8189  -1.8027  -1.7662  -1.7482  -1.7369  -1.6895  -1.6884
    -1.6858  -1.5066  -1.5066  -1.5006  -1.4907  -1.4596  -1.4524  -1.4472
    -0.7135  -0.2566   0.5134   1.9425   1.9735   2.0193   2.2574   2.6779
     2.8120   2.8868   3.1311   3.3246   3.6207   4.7458   5.0978

          k = 0.0000 0.0323 0.0000 ( 19455 PWs)   bands (ev):

   -90.6130 -90.6088 -90.5998 -90.5928 -90.4131 -90.4086 -90.4061 -90.3887
   -90.3855 -90.3720 -90.2838 -90.2804 -54.1481 -54.1395 -54.1375 -54.1113
   -54.1040 -54.0927 -54.0885 -54.0876 -54.0838 -54.0827 -54.0664 -54.0601
   -53.9516 -53.9433 -53.9431 -53.9318 -53.9053 -53.8958 -53.8917 -53.8909
   -53.8901 -53.8884 -53.8864 -53.8849 -53.8715 -53.8708 -53.8662 -53.8648
   -53.8597 -53.8482 -53.8210 -53.8060 -53.7996 -53.7820 -53.7366 -53.7223
   -17.7187  -6.2551  -4.8101  -4.2912  -4.2424  -4.2399  -4.2051  -4.1422
    -4.1416  -4.1196  -4.0480  -4.0272  -4.0267  -3.9401  -3.8561  -3.8155
    -3.7131  -3.3451  -3.3390  -3.3225  -3.2586  -3.2169  -3.2065  -3.1615
    -3.1456  -3.1063  -3.0697  -3.0330  -2.9724  -2.9370  -2.9328  -2.8321
    -2.7900  -2.7802  -2.5793  -2.4855  -2.4437  -2.3819  -2.3426  -2.3206
    -2.3084  -2.2376  -2.1990  -2.1856  -2.1208  -2.0990  -1.9935  -1.9630
    -1.8899  -1.8727  -1.8510  -1.8273  -1.7993  -1.7977  -1.7700  -1.7682
    -1.7495  -1.6484  -1.6357  -1.6003  -1.5817  -1.5574  -1.5494  -1.3641
    -0.7674  -0.3157   0.5320   0.7114   1.5736   1.6563   1.9663   2.4788
     2.7740   3.1050   3.7908   3.8377   4.2419   4.9285   5.4324

          k = 0.0000 0.0645 0.0000 ( 19481 PWs)   bands (ev):

   -90.6126 -90.6088 -90.6002 -90.5929 -90.4125 -90.4086 -90.4066 -90.3887
   -90.3856 -90.3720 -90.2839 -90.2804 -54.1421 -54.1289 -54.1249 -54.1101
   -54.1038 -54.0967 -54.0938 -54.0901 -54.0866 -54.0822 -54.0807 -54.0626
   -53.9450 -53.9351 -53.9304 -53.9292 -53.9037 -53.8991 -53.8986 -53.8908
   -53.8887 -53.8858 -53.8858 -53.8830 -53.8824 -53.8709 -53.8688 -53.8637
   -53.8599 -53.8468 -53.8261 -53.8091 -53.8090 -53.7824 -53.7369 -53.7223
   -17.7184  -6.2277  -4.3830  -4.1602  -4.0022  -4.0018  -3.9947  -3.9612
    -3.9590  -3.9375  -3.9076  -3.8588  -3.8387  -3.7190  -3.6015  -3.5524
    -3.5426  -3.3719  -3.3479  -3.3069  -3.2903  -3.2486  -3.1858  -3.1215
    -3.1012  -3.0608  -3.0466  -2.9848  -2.9267  -2.8868  -2.8584  -2.8168
    -2.7979  -2.7815  -2.7072  -2.6255  -2.6070  -2.5631  -2.4616  -2.4065
    -2.4024  -2.3496  -2.3331  -2.2818  -2.2812  -2.2462  -2.2335  -2.2003
    -2.1366  -2.1100  -2.0850  -2.0574  -2.0521  -1.9903  -1.9194  -1.8739
    -1.8200  -1.7599  -1.7447  -1.7375  -1.7128  -1.6130  -1.6102  -1.4597
    -1.0756  -0.5187  -0.4009   0.6409   1.1443   1.3066   1.4819   2.6652
     2.7628   3.0691   3.5796   4.8015   4.8396   5.3089   5.7377

          k = 0.0000-0.0968 0.0000 ( 19500 PWs)   bands (ev):

   -90.6123 -90.6088 -90.6004 -90.5929 -90.4121 -90.4086 -90.4070 -90.3887
   -90.3857 -90.3720 -90.2839 -90.2804 -54.1385 -54.1219 -54.1100 -54.1080
   -54.1041 -54.1035 -54.1002 -54.0940 -54.0907 -54.0869 -54.0808 -54.0641
   -53.9412 -53.9292 -53.9272 -53.9146 -53.9106 -53.9103 -53.8953 -53.8911
   -53.8901 -53.8880 -53.8861 -53.8850 -53.8793 -53.8707 -53.8703 -53.8629
   -53.8600 -53.8456 -53.8291 -53.8149 -53.8105 -53.7826 -53.7370 -53.7224
   -17.7183  -6.2151  -4.0840  -4.0591  -3.9338  -3.8988  -3.8968  -3.8691
    -3.7849  -3.7428  -3.7068  -3.6840  -3.6499  -3.6108  -3.5696  -3.4819
    -3.4687  -3.3716  -3.3451  -3.2799  -3.2392  -3.2146  -3.2090  -3.1514
    -3.1115  -3.0550  -3.0367  -2.9717  -2.8835  -2.8607  -2.8202  -2.7876
    -2.7667  -2.7269  -2.7082  -2.6172  -2.5973  -2.5846  -2.5432  -2.5428
    -2.5347  -2.4703  -2.4645  -2.4128  -2.3705  -2.3587  -2.3299  -2.3224
    -2.2854  -2.2561  -2.2522  -2.2312  -2.1774  -2.1526  -2.1446  -2.0798
    -2.0267  -1.8647  -1.7659  -1.7623  -1.7208  -1.7028  -1.6131  -1.5954
    -1.1622  -0.4314  -0.3907  -0.0388   1.2417   1.2501   1.8902   2.0953
     2.7538   2.9299   4.3305   4.4602   5.0731   5.0803   6.0137

          k = 0.0279-0.0161 0.0000 ( 19455 PWs)   bands (ev):

   -90.6129 -90.6090 -90.5996 -90.5928 -90.4130 -90.4088 -90.4059 -90.3887
   -90.3855 -90.3721 -90.2836 -90.2806 -54.1465 -54.1419 -54.1367 -54.1111
   -54.1044 -54.0922 -54.0900 -54.0878 -54.0851 -54.0799 -54.0650 -54.0617
   -53.9511 -53.9447 -53.9423 -53.9292 -53.9066 -53.8961 -53.8925 -53.8917
   -53.8893 -53.8880 -53.8869 -53.8847 -53.8753 -53.8702 -53.8669 -53.8649
   -53.8597 -53.8483 -53.8172 -53.8053 -53.7973 -53.7845 -53.7358 -53.7237
   -17.7185  -6.2385  -4.8129  -4.2929  -4.2416  -4.2405  -4.2018  -4.1542
    -4.1405  -4.1242  -4.0458  -4.0290  -4.0238  -3.9208  -3.8922  -3.8293
    -3.6946  -3.4019  -3.3658  -3.3180  -3.2272  -3.2141  -3.2037  -3.1766
    -3.1145  -3.0893  -3.0777  -3.0350  -2.9660  -2.9328  -2.9120  -2.8842
    -2.8534  -2.7334  -2.5678  -2.4921  -2.4532  -2.3956  -2.3522  -2.3207
    -2.2842  -2.2553  -2.2046  -2.1627  -2.1239  -2.0618  -1.9781  -1.9578
    -1.8847  -1.8670  -1.8445  -1.8294  -1.8059  -1.7931  -1.7729  -1.7643
    -1.7509  -1.6598  -1.6442  -1.6014  -1.5905  -1.5748  -1.5631  -1.2877
    -0.6680  -0.4206   0.4444   0.7941   1.5877   1.6311   1.9333   2.5258
     2.8895   3.0184   3.7821   3.8884   4.1851   4.9051   5.4235

          k = 0.0279 0.0161 0.0000 ( 19455 PWs)   bands (ev):

   -90.6129 -90.6090 -90.5996 -90.5928 -90.4130 -90.4088 -90.4059 -90.3887
   -90.3855 -90.3721 -90.2836 -90.2806 -54.1465 -54.1419 -54.1367 -54.1111
   -54.1044 -54.0922 -54.0900 -54.0878 -54.0851 -54.0799 -54.0650 -54.0617
   -53.9511 -53.9447 -53.9423 -53.9292 -53.9066 -53.8961 -53.8925 -53.8917
   -53.8893 -53.8880 -53.8869 -53.8847 -53.8753 -53.8702 -53.8669 -53.8649
   -53.8597 -53.8483 -53.8172 -53.8053 -53.7973 -53.7845 -53.7358 -53.7237
   -17.7185  -6.2385  -4.8129  -4.2929  -4.2416  -4.2405  -4.2018  -4.1542
    -4.1405  -4.1242  -4.0458  -4.0290  -4.0238  -3.9208  -3.8922  -3.8293
    -3.6946  -3.4019  -3.3658  -3.3180  -3.2272  -3.2141  -3.2037  -3.1766
    -3.1145  -3.0893  -3.0777  -3.0350  -2.9660  -2.9328  -2.9120  -2.8842
    -2.8534  -2.7334  -2.5678  -2.4921  -2.4532  -2.3956  -2.3522  -2.3207
    -2.2842  -2.2553  -2.2046  -2.1627  -2.1239  -2.0618  -1.9781  -1.9578
    -1.8847  -1.8670  -1.8445  -1.8294  -1.8059  -1.7931  -1.7729  -1.7643
    -1.7509  -1.6598  -1.6442  -1.6014  -1.5905  -1.5748  -1.5631  -1.2877
    -0.6680  -0.4206   0.4444   0.7941   1.5877   1.6311   1.9333   2.5258
     2.8895   3.0184   3.7821   3.8884   4.1851   4.9051   5.4235

          k = 0.0279 0.0484 0.0000 ( 19453 PWs)   bands (ev):

   -90.6125 -90.6091 -90.5999 -90.5929 -90.4125 -90.4089 -90.4063 -90.3887
   -90.3856 -90.3721 -90.2836 -90.2806 -54.1423 -54.1323 -54.1300 -54.1102
   -54.1044 -54.0960 -54.0926 -54.0878 -54.0872 -54.0816 -54.0745 -54.0633
   -53.9461 -53.9367 -53.9358 -53.9271 -53.9031 -53.9017 -53.8935 -53.8910
   -53.8900 -53.8869 -53.8861 -53.8847 -53.8781 -53.8749 -53.8690 -53.8642
   -53.8599 -53.8475 -53.8212 -53.8070 -53.8041 -53.7846 -53.7361 -53.7237
   -17.7183  -6.2174  -4.5090  -4.1429  -4.1385  -4.0491  -4.0360  -4.0279
    -4.0043  -3.9973  -3.9551  -3.9258  -3.8748  -3.7557  -3.7296  -3.6243
    -3.5842  -3.4032  -3.3451  -3.3099  -3.2705  -3.2233  -3.1887  -3.1551
    -3.1181  -3.1012  -3.0468  -2.9750  -2.9483  -2.9259  -2.8785  -2.8662
    -2.8056  -2.7510  -2.6574  -2.6160  -2.5936  -2.5418  -2.4047  -2.3741
    -2.3490  -2.3206  -2.2840  -2.2676  -2.2031  -2.1851  -2.1237  -2.0880
    -2.0811  -2.0424  -2.0107  -1.9844  -1.9709  -1.9357  -1.8792  -1.8409
    -1.8077  -1.7674  -1.7372  -1.7142  -1.6756  -1.6587  -1.6550  -1.2155
    -0.7239  -0.5165  -0.0551   0.0042   1.0979   1.3453   1.6389   2.9032
     3.0968   3.4873   3.6356   3.9394   4.3855   5.2129   5.5410

          k = 0.0279-0.1129 0.0000 ( 19479 PWs)   bands (ev):

   -90.6121 -90.6091 -90.6002 -90.5930 -90.4120 -90.4090 -90.4067 -90.3886
   -90.3857 -90.3720 -90.2837 -90.2806 -54.1363 -54.1208 -54.1159 -54.1091
   -54.1075 -54.1043 -54.0952 -54.0933 -54.0875 -54.0849 -54.0815 -54.0662
   -53.9395 -53.9274 -53.9247 -53.9219 -53.9142 -53.9021 -53.8966 -53.8913
   -53.8902 -53.8874 -53.8857 -53.8841 -53.8811 -53.8749 -53.8722 -53.8632
   -53.8600 -53.8462 -53.8250 -53.8124 -53.8088 -53.7849 -53.7364 -53.7237
   -17.7181  -6.1980  -4.0681  -3.9889  -3.8998  -3.8793  -3.8697  -3.8353
    -3.8231  -3.7947  -3.7658  -3.7257  -3.6760  -3.5623  -3.5410  -3.5005
    -3.4749  -3.4347  -3.3475  -3.3251  -3.2395  -3.2286  -3.1785  -3.1430
    -3.1187  -3.0691  -3.0245  -2.9814  -2.9389  -2.9282  -2.9093  -2.8794
    -2.8410  -2.7856  -2.7582  -2.7184  -2.6181  -2.6026  -2.5674  -2.5379
    -2.5273  -2.4919  -2.4324  -2.4022  -2.3664  -2.3310  -2.2925  -2.2666
    -2.2572  -2.2278  -2.1966  -2.1313  -2.1084  -2.0712  -2.0090  -1.9346
    -1.8893  -1.8253  -1.8078  -1.7586  -1.7076  -1.6892  -1.6227  -1.4970
    -1.0298  -0.6313  -0.3739  -0.1455   0.3022   1.3077   1.7806   2.6512
     3.0506   3.6611   4.0367   4.5096   5.0728   5.2732   5.7676

          k = 0.0279-0.0806 0.0000 ( 19479 PWs)   bands (ev):

   -90.6121 -90.6091 -90.6002 -90.5930 -90.4120 -90.4090 -90.4067 -90.3886
   -90.3857 -90.3720 -90.2837 -90.2806 -54.1363 -54.1208 -54.1159 -54.1091
   -54.1075 -54.1043 -54.0952 -54.0933 -54.0875 -54.0849 -54.0815 -54.0662
   -53.9395 -53.9274 -53.9247 -53.9219 -53.9142 -53.9021 -53.8966 -53.8913
   -53.8902 -53.8874 -53.8857 -53.8841 -53.8811 -53.8749 -53.8722 -53.8632
   -53.8600 -53.8462 -53.8250 -53.8124 -53.8088 -53.7849 -53.7364 -53.7237
   -17.7181  -6.1980  -4.0681  -3.9889  -3.8998  -3.8793  -3.8697  -3.8353
    -3.8231  -3.7947  -3.7658  -3.7257  -3.6760  -3.5623  -3.5410  -3.5005
    -3.4749  -3.4347  -3.3475  -3.3251  -3.2395  -3.2286  -3.1785  -3.1430
    -3.1187  -3.0691  -3.0245  -2.9814  -2.9389  -2.9282  -2.9093  -2.8794
    -2.8410  -2.7856  -2.7582  -2.7184  -2.6181  -2.6026  -2.5674  -2.5379
    -2.5273  -2.4919  -2.4324  -2.4022  -2.3664  -2.3310  -2.2925  -2.2666
    -2.2572  -2.2278  -2.1966  -2.1313  -2.1084  -2.0712  -2.0090  -1.9346
    -1.8893  -1.8253  -1.8078  -1.7586  -1.7076  -1.6892  -1.6227  -1.4970
    -1.0298  -0.6313  -0.3739  -0.1455   0.3022   1.3077   1.7806   2.6512
     3.0506   3.6611   4.0367   4.5096   5.0728   5.2732   5.7676

          k = 0.0279-0.0484 0.0000 ( 19453 PWs)   bands (ev):

   -90.6125 -90.6091 -90.5999 -90.5929 -90.4125 -90.4089 -90.4063 -90.3887
   -90.3856 -90.3721 -90.2836 -90.2806 -54.1423 -54.1323 -54.1300 -54.1102
   -54.1044 -54.0960 -54.0926 -54.0878 -54.0872 -54.0816 -54.0745 -54.0633
   -53.9461 -53.9367 -53.9358 -53.9271 -53.9031 -53.9017 -53.8935 -53.8910
   -53.8900 -53.8869 -53.8861 -53.8847 -53.8781 -53.8749 -53.8690 -53.8642
   -53.8599 -53.8475 -53.8212 -53.8070 -53.8041 -53.7846 -53.7361 -53.7237
   -17.7183  -6.2174  -4.5090  -4.1429  -4.1385  -4.0491  -4.0360  -4.0279
    -4.0043  -3.9973  -3.9551  -3.9258  -3.8748  -3.7557  -3.7296  -3.6243
    -3.5842  -3.4032  -3.3451  -3.3099  -3.2705  -3.2233  -3.1887  -3.1551
    -3.1181  -3.1012  -3.0468  -2.9750  -2.9483  -2.9259  -2.8785  -2.8662
    -2.8056  -2.7510  -2.6574  -2.6160  -2.5936  -2.5418  -2.4047  -2.3741
    -2.3490  -2.3206  -2.2840  -2.2676  -2.2031  -2.1851  -2.1237  -2.0880
    -2.0811  -2.0424  -2.0107  -1.9844  -1.9709  -1.9357  -1.8792  -1.8409
    -1.8077  -1.7674  -1.7372  -1.7142  -1.6756  -1.6587  -1.6550  -1.2155
    -0.7239  -0.5165  -0.0551   0.0042   1.0979   1.3453   1.6389   2.9032
     3.0968   3.4873   3.6356   3.9394   4.3855   5.2129   5.5410

          k = 0.0559-0.0323 0.0000 ( 19481 PWs)   bands (ev):

   -90.6120 -90.6097 -90.5996 -90.5931 -90.4121 -90.4096 -90.4060 -90.3886
   -90.3856 -90.3722 -90.2830 -90.2813 -54.1370 -54.1345 -54.1248 -54.1092
   -54.1059 -54.0980 -54.0929 -54.0913 -54.0881 -54.0783 -54.0768 -54.0656
   -53.9434 -53.9369 -53.9303 -53.9188 -53.9037 -53.9026 -53.9004 -53.8906
   -53.8880 -53.8877 -53.8859 -53.8847 -53.8834 -53.8821 -53.8700 -53.8642
   -53.8600 -53.8477 -53.8133 -53.8054 -53.8018 -53.7916 -53.7340 -53.7270
   -17.7181  -6.1756  -4.3983  -4.1650  -4.0245  -4.0025  -3.9950  -3.9791
    -3.9540  -3.9486  -3.9069  -3.8571  -3.8402  -3.7464  -3.6629  -3.5569
    -3.5079  -3.4295  -3.3687  -3.3431  -3.2997  -3.2655  -3.1534  -3.1056
    -3.0863  -3.0530  -3.0503  -2.9814  -2.9383  -2.8787  -2.8620  -2.8418
    -2.7919  -2.7666  -2.7222  -2.7120  -2.5989  -2.5465  -2.4554  -2.4050
    -2.3553  -2.3367  -2.3226  -2.2959  -2.2705  -2.2535  -2.2309  -2.1730
    -2.1220  -2.0960  -2.0659  -2.0491  -2.0198  -1.9755  -1.9168  -1.8901
    -1.8553  -1.7819  -1.7586  -1.7276  -1.6982  -1.6250  -1.5990  -1.3206
    -0.8703  -0.6703  -0.5300   0.6171   1.2141   1.3357   1.4674   2.6501
     2.7642   3.1903   3.4823   4.8033   4.8699   5.3289   5.7331

          k = 0.0559 0.0000 0.0000 ( 19453 PWs)   bands (ev):

   -90.6121 -90.6097 -90.5996 -90.5930 -90.4123 -90.4095 -90.4059 -90.3886
   -90.3856 -90.3722 -90.2830 -90.2813 -54.1385 -54.1367 -54.1295 -54.1096
   -54.1059 -54.0990 -54.0915 -54.0884 -54.0833 -54.0811 -54.0737 -54.0651
   -53.9452 -53.9379 -53.9354 -53.9196 -53.9049 -53.9042 -53.8922 -53.8908
   -53.8891 -53.8879 -53.8875 -53.8851 -53.8843 -53.8779 -53.8697 -53.8644
   -53.8599 -53.8480 -53.8105 -53.8066 -53.7983 -53.7923 -53.7339 -53.7271
   -17.7181  -6.1826  -4.5184  -4.1468  -4.1384  -4.0542  -4.0323  -4.0315
    -4.0201  -3.9961  -3.9540  -3.9477  -3.8618  -3.7550  -3.7208  -3.7101
    -3.5493  -3.4275  -3.3836  -3.3003  -3.2834  -3.2184  -3.1901  -3.1346
    -3.1152  -3.0704  -3.0443  -2.9691  -2.9533  -2.9488  -2.9172  -2.8630
    -2.8118  -2.7714  -2.6614  -2.6313  -2.5928  -2.5257  -2.4513  -2.3617
    -2.3518  -2.3161  -2.2747  -2.2460  -2.1889  -2.1526  -2.1119  -2.0885
    -2.0803  -2.0306  -2.0140  -1.9900  -1.9357  -1.9189  -1.8702  -1.8495
    -1.8045  -1.7781  -1.7493  -1.7233  -1.6943  -1.6704  -1.6346  -1.0537
    -0.6234  -0.6125  -0.1411  -0.0267   1.1600   1.2315   1.7096   2.9342
     3.1741   3.4178   3.6140   4.0909   4.2627   5.1590   5.5441

          k = 0.0559 0.0323 0.0000 ( 19481 PWs)   bands (ev):

   -90.6120 -90.6097 -90.5996 -90.5931 -90.4121 -90.4096 -90.4060 -90.3886
   -90.3856 -90.3722 -90.2830 -90.2813 -54.1370 -54.1345 -54.1248 -54.1092
   -54.1059 -54.0980 -54.0929 -54.0913 -54.0881 -54.0783 -54.0768 -54.0656
   -53.9434 -53.9369 -53.9303 -53.9188 -53.9037 -53.9026 -53.9004 -53.8906
   -53.8880 -53.8877 -53.8859 -53.8847 -53.8834 -53.8821 -53.8700 -53.8642
   -53.8600 -53.8477 -53.8133 -53.8054 -53.8018 -53.7916 -53.7340 -53.7270
   -17.7181  -6.1756  -4.3983  -4.1650  -4.0245  -4.0025  -3.9950  -3.9791
    -3.9540  -3.9486  -3.9069  -3.8571  -3.8402  -3.7464  -3.6629  -3.5569
    -3.5079  -3.4295  -3.3687  -3.3431  -3.2997  -3.2655  -3.1534  -3.1056
    -3.0863  -3.0530  -3.0503  -2.9814  -2.9383  -2.8787  -2.8620  -2.8418
    -2.7919  -2.7666  -2.7222  -2.7120  -2.5989  -2.5465  -2.4553  -2.4050
    -2.3553  -2.3367  -2.3226  -2.2959  -2.2705  -2.2535  -2.2309  -2.1730
    -2.1220  -2.0960  -2.0659  -2.0491  -2.0198  -1.9755  -1.9168  -1.8901
    -1.8553  -1.7819  -1.7586  -1.7276  -1.6982  -1.6250  -1.5990  -1.3206
    -0.8703  -0.6703  -0.5300   0.6171   1.2141   1.3357   1.4674   2.6501
     2.7642   3.1903   3.4823   4.8033   4.8699   5.3289   5.7331

          k = 0.0559-0.1290 0.0000 ( 19479 PWs)   bands (ev):

   -90.6116 -90.6098 -90.5998 -90.5931 -90.4116 -90.4098 -90.4063 -90.3886
   -90.3857 -90.3721 -90.2830 -90.2813 -54.1327 -54.1249 -54.1179 -54.1082
   -54.1061 -54.1042 -54.0985 -54.0922 -54.0882 -54.0837 -54.0768 -54.0691
   -53.9381 -53.9290 -53.9228 -53.9168 -53.9126 -53.9037 -53.8991 -53.8902
   -53.8898 -53.8880 -53.8872 -53.8851 -53.8831 -53.8822 -53.8733 -53.8637
   -53.8601 -53.8471 -53.8159 -53.8083 -53.8051 -53.7914 -53.7343 -53.7270
   -17.7179  -6.1625  -4.0860  -3.9988  -3.9132  -3.8898  -3.8626  -3.8455
    -3.8214  -3.8084  -3.7736  -3.7308  -3.6659  -3.5790  -3.5530  -3.5182
    -3.5032  -3.4267  -3.3704  -3.3190  -3.2560  -3.2098  -3.1764  -3.1529
    -3.1310  -3.0887  -3.0156  -2.9730  -2.9398  -2.9263  -2.9022  -2.8770
    -2.8406  -2.8221  -2.7327  -2.6710  -2.6584  -2.5983  -2.5620  -2.5406
    -2.5151  -2.4948  -2.4407  -2.4224  -2.3412  -2.3194  -2.2931  -2.2642
    -2.2521  -2.2213  -2.1512  -2.1264  -2.1114  -2.0407  -1.9704  -1.9596
    -1.9043  -1.8352  -1.8012  -1.7704  -1.7446  -1.6945  -1.6269  -1.3417
    -1.0251  -0.6894  -0.4182  -0.1584   0.3590   1.2509   1.8307   2.7002
     3.0289   3.6167   4.0817   4.5212   5.0913   5.2548   5.7345

          k = 0.0559-0.0968 0.0000 ( 19479 PWs)   bands (ev):

   -90.6114 -90.6099 -90.5999 -90.5931 -90.4112 -90.4100 -90.4064 -90.3886
   -90.3857 -90.3721 -90.2831 -90.2813 -54.1259 -54.1212 -54.1132 -54.1102
   -54.1081 -54.1055 -54.1049 -54.0925 -54.0882 -54.0826 -54.0772 -54.0730
   -53.9297 -53.9280 -53.9197 -53.9156 -53.9134 -53.9121 -53.8977 -53.8916
   -53.8894 -53.8883 -53.8861 -53.8851 -53.8824 -53.8798 -53.8786 -53.8634
   -53.8602 -53.8466 -53.8165 -53.8112 -53.8059 -53.7916 -53.7344 -53.7269
   -17.7179  -6.1563  -3.8641  -3.8139  -3.7994  -3.7545  -3.7318  -3.7081
    -3.6877  -3.6763  -3.6733  -3.6490  -3.6419  -3.6369  -3.6062  -3.5867
    -3.5809  -3.3906  -3.3492  -3.2819  -3.2130  -3.1806  -3.1740  -3.1636
    -3.1309  -3.0895  -3.0542  -3.0074  -3.0006  -2.9927  -2.9617  -2.9192
    -2.8462  -2.8273  -2.7830  -2.7734  -2.7711  -2.7622  -2.7394  -2.7337
    -2.7148  -2.5871  -2.4576  -2.3694  -2.3546  -2.3504  -2.3228  -2.2644
    -2.2176  -2.1869  -2.1280  -2.1020  -2.0444  -1.9559  -1.9235  -1.9126
    -1.8970  -1.8594  -1.8277  -1.8105  -1.7983  -1.6555  -1.4714  -1.4366
    -1.1904  -0.9112  -0.7689   0.1224   0.1556   0.4261   2.3346   2.5530
     2.9009   4.8305   4.8496   4.8998   5.0108   5.0845   5.2867

          k = 0.0559-0.0645 0.0000 ( 19479 PWs)   bands (ev):

   -90.6116 -90.6098 -90.5998 -90.5931 -90.4116 -90.4098 -90.4063 -90.3886
   -90.3857 -90.3721 -90.2830 -90.2813 -54.1327 -54.1249 -54.1179 -54.1082
   -54.1061 -54.1042 -54.0985 -54.0922 -54.0882 -54.0837 -54.0768 -54.0691
   -53.9381 -53.9290 -53.9228 -53.9168 -53.9126 -53.9037 -53.8991 -53.8902
   -53.8898 -53.8880 -53.8872 -53.8851 -53.8831 -53.8822 -53.8733 -53.8637
   -53.8601 -53.8471 -53.8159 -53.8083 -53.8051 -53.7914 -53.7343 -53.7270
   -17.7179  -6.1625  -4.0860  -3.9988  -3.9132  -3.8898  -3.8626  -3.8455
    -3.8214  -3.8084  -3.7736  -3.7308  -3.6659  -3.5790  -3.5530  -3.5182
    -3.5032  -3.4267  -3.3704  -3.3190  -3.2560  -3.2098  -3.1764  -3.1529
    -3.1310  -3.0887  -3.0156  -2.9730  -2.9398  -2.9263  -2.9022  -2.8770
    -2.8406  -2.8221  -2.7327  -2.6710  -2.6584  -2.5983  -2.5620  -2.5406
    -2.5151  -2.4948  -2.4407  -2.4224  -2.3412  -2.3194  -2.2931  -2.2642
    -2.2521  -2.2213  -2.1512  -2.1264  -2.1114  -2.0407  -1.9704  -1.9596
    -1.9043  -1.8352  -1.8012  -1.7704  -1.7446  -1.6945  -1.6269  -1.3417
    -1.0251  -0.6894  -0.4182  -0.1584   0.3590   1.2509   1.8307   2.7002
     3.0289   3.6167   4.0817   4.5212   5.0913   5.2548   5.7345

          k =-0.0838 0.0484 0.0000 ( 19500 PWs)   bands (ev):

   -90.6108 -90.6107 -90.5996 -90.5932 -90.4111 -90.4105 -90.4061 -90.3885
   -90.3857 -90.3722 -90.2822 -90.2821 -54.1313 -54.1292 -54.1111 -54.1100
   -54.1061 -54.1055 -54.0979 -54.0914 -54.0890 -54.0884 -54.0735 -54.0692
   -53.9389 -53.9311 -53.9142 -53.9141 -53.9100 -53.9080 -53.8994 -53.8956
   -53.8907 -53.8893 -53.8886 -53.8853 -53.8843 -53.8834 -53.8720 -53.8639
   -53.8601 -53.8474 -53.8088 -53.8072 -53.8016 -53.7985 -53.7317 -53.7302
   -17.7178  -6.1440  -4.1121  -4.0790  -3.9415  -3.9220  -3.9056  -3.8886
    -3.7890  -3.7707  -3.6879  -3.6821  -3.6640  -3.6390  -3.5900  -3.5443
    -3.4741  -3.4568  -3.3409  -3.2536  -3.2306  -3.2187  -3.1990  -3.1842
    -3.1510  -3.0909  -2.9735  -2.9489  -2.8799  -2.8404  -2.8323  -2.8056
    -2.7923  -2.7295  -2.6654  -2.6237  -2.5898  -2.5873  -2.5776  -2.5370
    -2.5349  -2.5101  -2.4735  -2.3931  -2.3703  -2.3557  -2.3213  -2.2846
    -2.2703  -2.2458  -2.2382  -2.1951  -2.1896  -2.1004  -2.0622  -2.0546
    -2.0188  -1.9059  -1.7762  -1.7614  -1.7401  -1.6721  -1.6159  -1.4280
    -1.2099  -0.5173  -0.2579  -0.1711   1.2290   1.2517   2.0275   2.1089
     2.7175   2.8836   4.3777   4.4916   5.0007   5.1318   6.0191

          k =-0.0838 0.0806 0.0000 ( 19479 PWs)   bands (ev):

   -90.6110 -90.6106 -90.5996 -90.5932 -90.4111 -90.4104 -90.4061 -90.3885
   -90.3857 -90.3722 -90.2822 -90.2821 -54.1310 -54.1255 -54.1168 -54.1126
   -54.1073 -54.1059 -54.0925 -54.0915 -54.0886 -54.0844 -54.0764 -54.0700
   -53.9377 -53.9288 -53.9224 -53.9157 -53.9093 -53.9012 -53.9005 -53.8945
   -53.8902 -53.8892 -53.8886 -53.8852 -53.8846 -53.8833 -53.8735 -53.8638
   -53.8601 -53.8474 -53.8091 -53.8049 -53.8024 -53.7994 -53.7317 -53.7301
   -17.7178  -6.1442  -4.1019  -3.9981  -3.9181  -3.8921  -3.8713  -3.8448
    -3.8266  -3.8013  -3.7841  -3.7398  -3.6612  -3.5728  -3.5555  -3.5227
    -3.5043  -3.4352  -3.3653  -3.3371  -3.2778  -3.1978  -3.1697  -3.1436
    -3.1331  -3.1007  -3.0060  -2.9717  -2.9423  -2.9176  -2.9030  -2.8828
    -2.8505  -2.7864  -2.7658  -2.6734  -2.6420  -2.6174  -2.5990  -2.5471
    -2.5232  -2.4721  -2.4485  -2.3936  -2.3708  -2.3070  -2.2937  -2.2817
    -2.2465  -2.2323  -2.1566  -2.0931  -2.0651  -2.0374  -1.9850  -1.9555
    -1.9130  -1.8083  -1.8007  -1.7877  -1.7346  -1.6954  -1.5622  -1.3731
    -1.0262  -0.6578  -0.3866  -0.1554   0.2608   1.2549   1.8925   2.6388
     3.0339   3.7118   4.0761   4.4621   5.0734   5.2785   5.7303

          k =-0.0838 0.1129 0.0000 ( 19479 PWs)   bands (ev):

   -90.6110 -90.6106 -90.5996 -90.5932 -90.4112 -90.4104 -90.4061 -90.3885
   -90.3857 -90.3722 -90.2822 -90.2821 -54.1310 -54.1255 -54.1168 -54.1126
   -54.1073 -54.1059 -54.0925 -54.0915 -54.0886 -54.0844 -54.0764 -54.0700
   -53.9377 -53.9288 -53.9224 -53.9157 -53.9093 -53.9012 -53.9005 -53.8945
   -53.8902 -53.8892 -53.8886 -53.8852 -53.8846 -53.8833 -53.8735 -53.8638
   -53.8601 -53.8474 -53.8091 -53.8049 -53.8024 -53.7994 -53.7317 -53.7301
   -17.7178  -6.1442  -4.1019  -3.9981  -3.9181  -3.8921  -3.8713  -3.8448
    -3.8266  -3.8013  -3.7841  -3.7398  -3.6612  -3.5728  -3.5555  -3.5227
    -3.5043  -3.4352  -3.3653  -3.3371  -3.2778  -3.1978  -3.1697  -3.1436
    -3.1331  -3.1007  -3.0060  -2.9717  -2.9423  -2.9176  -2.9030  -2.8828
    -2.8505  -2.7864  -2.7658  -2.6734  -2.6420  -2.6174  -2.5990  -2.5471
    -2.5232  -2.4721  -2.4485  -2.3936  -2.3708  -2.3070  -2.2937  -2.2817
    -2.2465  -2.2323  -2.1566  -2.0931  -2.0651  -2.0374  -1.9850  -1.9555
    -1.9130  -1.8083  -1.8007  -1.7877  -1.7346  -1.6954  -1.5622  -1.3731
    -1.0262  -0.6578  -0.3866  -0.1554   0.2608   1.2549   1.8925   2.6388
     3.0339   3.7118   4.0761   4.4621   5.0734   5.2785   5.7303

          k =-0.0838-0.0484 0.0000 ( 19500 PWs)   bands (ev):

   -90.6108 -90.6107 -90.5996 -90.5932 -90.4111 -90.4105 -90.4061 -90.3885
   -90.3857 -90.3722 -90.2822 -90.2821 -54.1313 -54.1292 -54.1111 -54.1100
   -54.1061 -54.1055 -54.0979 -54.0914 -54.0890 -54.0884 -54.0735 -54.0692
   -53.9389 -53.9311 -53.9142 -53.9141 -53.9100 -53.9080 -53.8994 -53.8956
   -53.8907 -53.8893 -53.8886 -53.8853 -53.8843 -53.8834 -53.8720 -53.8639
   -53.8601 -53.8474 -53.8088 -53.8072 -53.8016 -53.7985 -53.7317 -53.7302
   -17.7178  -6.1440  -4.1121  -4.0790  -3.9415  -3.9220  -3.9056  -3.8886
    -3.7890  -3.7707  -3.6879  -3.6821  -3.6640  -3.6390  -3.5900  -3.5443
    -3.4741  -3.4568  -3.3409  -3.2536  -3.2306  -3.2187  -3.1990  -3.1842
    -3.1510  -3.0909  -2.9735  -2.9489  -2.8799  -2.8404  -2.8323  -2.8056
    -2.7923  -2.7295  -2.6654  -2.6237  -2.5898  -2.5873  -2.5776  -2.5370
    -2.5349  -2.5101  -2.4735  -2.3931  -2.3703  -2.3557  -2.3213  -2.2846
    -2.2703  -2.2458  -2.2382  -2.1951  -2.1896  -2.1004  -2.0622  -2.0546
    -2.0188  -1.9059  -1.7762  -1.7614  -1.7401  -1.6721  -1.6159  -1.4280
    -1.2099  -0.5173  -0.2579  -0.1711   1.2290   1.2517   2.0275   2.1089
     2.7175   2.8836   4.3777   4.4915   5.0007   5.1318   6.0191

     the Fermi energy is     1.4246 ev

!    total energy              =   -3593.56734318 Ry
     Harris-Foulkes estimate   =   -3593.56734673 Ry
     estimated scf accuracy    <       0.00000540 Ry

     The total energy is the sum of the following terms:

     one-electron contribution =  -26317.39877295 Ry
     hartree contribution      =   13154.42246708 Ry
     xc contribution           =    -369.45080066 Ry
     ewald contribution        =    9938.88500089 Ry
     electric field correction =       0.00002276 Ry
     smearing contrib. (-TS)   =      -0.02526030 Ry

     convergence has been achieved in  15 iterations
 
 BEEF-vdW xc energy contributions
           1 :   -320.003785810603     
           2 :    289.422006373543     
           3 :   -238.522347429975     
           4 :    182.781453499051     
           5 :   -136.123885133506     
           6 :    105.919564543374     
           7 :   -91.6990246209378     
           8 :    87.4759677102593     
           9 :   -85.9262060675059     
          10 :    82.0606168206720     
          11 :   -74.7349918268829     
          12 :    65.7656911978678     
          13 :   -57.7517537613844     
          14 :    52.1588010115565     
          15 :   -48.7117386873118     
          16 :    46.1003593311825     
          17 :   -43.1846220179381     
          18 :    39.7519746145419     
          19 :   -36.4116618205760     
          20 :    33.8907738615355     
          21 :   -32.3664230570123     
          22 :    31.3243362213352     
          23 :   -29.9823802479619     
          24 :    27.9003703573486     
          25 :   -25.3100507514570     
          26 :    22.9400746022371     
          27 :   -21.4891270093539     
          28 :    21.1382582842495     
          29 :   -21.4452971041212     
          30 :    21.6686310528863     
          31 :   -31.9982324777664     
          32 :   -23.2059987231526     

     Forces acting on atoms (Ry/au):


     negative rho (up, down):  2.156E-03 0.000E+00
     atom    1 type  1   force =     0.00000058   -0.00063491    0.00131464
     atom    2 type  1   force =    -0.00000107    0.00006366    0.00023173
     atom    3 type  1   force =     0.00047697    0.00031217    0.00167154
     atom    4 type  1   force =    -0.00047693    0.00031295    0.00167307
     atom    5 type  1   force =     0.00038145   -0.00107187    0.00257097
     atom    6 type  1   force =    -0.00038140   -0.00107359    0.00256965
     atom    7 type  1   force =    -0.00000169    0.00238684    0.00886754
     atom    8 type  1   force =     0.00000166    0.00092900   -0.00166391
     atom    9 type  1   force =    -0.03566750   -0.00093138   -0.01777349
     atom   10 type  1   force =     0.03566776   -0.00093223   -0.01777335
     atom   11 type  1   force =    -0.00000025    0.00509446   -0.00537718
     atom   12 type  1   force =     0.00000057   -0.00488716   -0.00591753
     atom   13 type  2   force =    -0.00000038    0.00052794   -0.01919164
     atom   14 type  3   force =     0.00000023   -0.00009587    0.04879798

     Total force =     0.077727     Total SCF correction =     0.013620
     SCF correction compared to forces is large: reduce conv_thr to get better values


     entering subroutine stress ...


     negative rho (up, down):  2.156E-03 0.000E+00
          total   stress  (Ry/bohr**3)                   (kbar)     P=   -6.11
  -0.00003923   0.00000000  -0.00000000         -5.77      0.00     -0.00
   0.00000000  -0.00006598  -0.00000092          0.00     -9.71     -0.14
  -0.00000000  -0.00000092  -0.00001939         -0.00     -0.14     -2.85


     BFGS Geometry Optimization

     number of scf cycles    =   1
     number of bfgs steps    =   0

     energy   new            =   -3593.5673431817 Ry

     new trust radius        =       0.0487980699 bohr
     new conv_thr            =       0.0000099958 Ry


ATOMIC_POSITIONS (crystal)
Ag1      0.166666667   0.166666667   0.402063960    0   0   0
Ag1      0.666666667   0.166666667   0.402063960    0   0   0
Ag1      0.166666667   0.666666667   0.402063960    0   0   0
Ag1      0.666666667   0.666666667   0.402063960    0   0   0
Ag1      0.833333333   0.333333333   0.500000000    0   0   0
Ag1      0.333333333   0.333333333   0.500000000    0   0   0
Ag1      0.833333333   0.833333333   0.500000000    0   0   0
Ag1      0.333333333   0.833333333   0.500000000    0   0   0
Ag1     -0.003115684  -0.000095383   0.597557886
Ag1      0.503211134  -0.000095471   0.597557889
Ag1     -0.000260887   0.500521729   0.597821633
Ag1      0.500250300   0.499499500   0.597810137
O1       0.249972933   0.000054067   0.661154335
H1       0.250004930  -0.000009819   0.700796979



     Writing output data file calc.save
     Check: negative starting charge=   -0.002054
     NEW-OLD atomic charge density approx. for the potential
     Check: negative starting charge=   -0.002053

     negative rho (up, down):  2.149E-03 0.000E+00
 
     Adding external electric field

     Computed dipole along edir(3) : 
        Dipole                0.0734 Ry au,          0.1865 Debye
        Dipole field          0.0002 Ry au
 
        Potential amp.       -0.0163 Ry
        Total length         45.8256 bohr
 

     total cpu time spent up to now is      556.2 secs

     per-process dynamical memory:   175.2 Mb

     Self-consistent Calculation

     iteration #  1     ecut=    36.75 Ry     beta=0.30
     Davidson diagonalization with overlap
     ethr =  1.00E-06,  avg # of iterations =  4.5

     negative rho (up, down):  2.146E-03 0.000E+00
 
     Adding external electric field

     Computed dipole along edir(3) : 
        Dipole                0.2888 Ry au,          0.7340 Debye
        Dipole field          0.0007 Ry au
 
        Potential amp.       -0.0643 Ry
        Total length         45.8256 bohr
 

     total cpu time spent up to now is      595.5 secs

     total energy              =   -3593.56764406 Ry
     Harris-Foulkes estimate   =   -3593.57100514 Ry
     estimated scf accuracy    <       0.00743834 Ry

     iteration #  2     ecut=    36.75 Ry     beta=0.30
     Davidson diagonalization with overlap
     ethr =  3.17E-06,  avg # of iterations =  5.2

     negative rho (up, down):  2.147E-03 0.000E+00
 
     Adding external electric field

     Computed dipole along edir(3) : 
        Dipole                0.0862 Ry au,          0.2190 Debye
        Dipole field          0.0002 Ry au
 
        Potential amp.       -0.0192 Ry
        Total length         45.8256 bohr
 

     total cpu time spent up to now is      625.4 secs

     total energy              =   -3593.56382442 Ry
     Harris-Foulkes estimate   =   -3593.57675691 Ry
     estimated scf accuracy    <       0.12413029 Ry

     iteration #  3     ecut=    36.75 Ry     beta=0.30
     Davidson diagonalization with overlap
     ethr =  3.17E-06,  avg # of iterations =  4.9

     negative rho (up, down):  2.146E-03 0.000E+00
 
     Adding external electric field

     Computed dipole along edir(3) : 
        Dipole                0.1069 Ry au,          0.2718 Debye
        Dipole field          0.0003 Ry au
 
        Potential amp.       -0.0238 Ry
        Total length         45.8256 bohr
 

     total cpu time spent up to now is      652.9 secs

     total energy              =   -3593.57026726 Ry
     Harris-Foulkes estimate   =   -3593.57064106 Ry
     estimated scf accuracy    <       0.00226359 Ry

     iteration #  4     ecut=    36.75 Ry     beta=0.30
     Davidson diagonalization with overlap
     ethr =  9.63E-07,  avg # of iterations =  4.7

     negative rho (up, down):  2.148E-03 0.000E+00
 
     Adding external electric field

     Computed dipole along edir(3) : 
        Dipole                0.1059 Ry au,          0.2693 Debye
        Dipole field          0.0003 Ry au
 
        Potential amp.       -0.0236 Ry
        Total length         45.8256 bohr
 

     total cpu time spent up to now is      679.0 secs

     total energy              =   -3593.57044023 Ry
     Harris-Foulkes estimate   =   -3593.57046886 Ry
     estimated scf accuracy    <       0.00012639 Ry

     iteration #  5     ecut=    36.75 Ry     beta=0.30
     Davidson diagonalization with overlap
     ethr =  5.38E-08,  avg # of iterations =  2.1

     negative rho (up, down):  2.149E-03 0.000E+00
 
     Adding external electric field

     Computed dipole along edir(3) : 
        Dipole                0.1062 Ry au,          0.2700 Debye
        Dipole field          0.0003 Ry au
 
        Potential amp.       -0.0236 Ry
        Total length         45.8256 bohr
 

     total cpu time spent up to now is      702.3 secs

     total energy              =   -3593.57044561 Ry
     Harris-Foulkes estimate   =   -3593.57045243 Ry
     estimated scf accuracy    <       0.00003726 Ry

     iteration #  6     ecut=    36.75 Ry     beta=0.30
     Davidson diagonalization with overlap
     ethr =  1.59E-08,  avg # of iterations =  2.0

     negative rho (up, down):  2.151E-03 0.000E+00

     negative rho (up, down):  2.151E-03 0.000E+00

     negative rho (up, down):  2.151E-03 0.000E+00

     negative rho (up, down):  2.151E-03 0.000E+00

     negative rho (up, down):  2.151E-03 0.000E+00

     negative rho (up, down):  2.151E-03 0.000E+00

     negative rho (up, down):  2.151E-03 0.000E+00

     negative rho (up, down):  2.151E-03 0.000E+00

     negative rho (up, down):  2.151E-03 0.000E+00

     negative rho (up, down):  2.151E-03 0.000E+00

     negative rho (up, down):  2.151E-03 0.000E+00

     negative rho (up, down):  2.151E-03 0.000E+00

     negative rho (up, down):  2.151E-03 0.000E+00

     negative rho (up, down):  2.151E-03 0.000E+00

     negative rho (up, down):  2.151E-03 0.000E+00

     negative rho (up, down):  2.151E-03 0.000E+00

     negative rho (up, down):  2.151E-03 0.000E+00

     negative rho (up, down):  2.151E-03 0.000E+00

     negative rho (up, down):  2.151E-03 0.000E+00

     negative rho (up, down):  2.151E-03 0.000E+00

     negative rho (up, down):  2.151E-03 0.000E+00

     negative rho (up, down):  2.151E-03 0.000E+00

     negative rho (up, down):  2.151E-03 0.000E+00

     negative rho (up, down):  2.151E-03 0.000E+00

     negative rho (up, down):  2.151E-03 0.000E+00

     negative rho (up, down):  2.151E-03 0.000E+00

     negative rho (up, down):  2.151E-03 0.000E+00

     negative rho (up, down):  2.151E-03 0.000E+00

     negative rho (up, down):  2.151E-03 0.000E+00

     negative rho (up, down):  2.151E-03 0.000E+00

     negative rho (up, down):  2.151E-03 0.000E+00

     negative rho (up, down):  2.151E-03 0.000E+00

     negative rho (up, down):  2.151E-03 0.000E+00

     negative rho (up, down):  2.151E-03 0.000E+00

     negative rho (up, down):  2.151E-03 0.000E+00
 
     Adding external electric field

     Computed dipole along edir(3) : 
        Dipole                0.1103 Ry au,          0.2803 Debye
        Dipole field          0.0003 Ry au
 
        Potential amp.       -0.0245 Ry
        Total length         45.8256 bohr
 

     total cpu time spent up to now is      775.0 secs

     End of self-consistent calculation

          k = 0.0000 0.0000 0.0000 ( 19435 PWs)   bands (ev):

   -90.6236 -90.6190 -90.6130 -90.6017 -90.4216 -90.4168 -90.4141 -90.3945
   -90.3937 -90.3759 -90.2865 -90.2830 -54.1610 -54.1553 -54.1519 -54.1225
   -54.1145 -54.1039 -54.0991 -54.0981 -54.0929 -54.0911 -54.0710 -54.0697
   -53.9632 -53.9566 -53.9550 -53.9379 -53.9130 -53.9023 -53.9000 -53.8985
   -53.8966 -53.8945 -53.8945 -53.8926 -53.8763 -53.8749 -53.8741 -53.8710
   -53.8679 -53.8526 -53.8218 -53.8074 -53.7986 -53.7847 -53.7380 -53.7231
   -17.4594  -6.0996  -4.9809  -4.3572  -4.3541  -4.3536  -4.3124  -4.2227
    -4.2171  -4.1988  -4.1345  -4.1030  -4.0994  -4.0220  -3.9654  -3.9294
    -3.7628  -3.3900  -3.3505  -3.3216  -3.2901  -3.2573  -3.1987  -3.1771
    -3.1707  -3.1216  -3.0745  -2.9998  -2.9859  -2.9619  -2.9348  -2.8783
    -2.8463  -2.7598  -2.4357  -2.4119  -2.3385  -2.3341  -2.3286  -2.3134
    -2.2763  -2.2285  -2.1667  -2.1580  -2.0718  -2.0488  -1.9482  -1.9098
    -1.8291  -1.8242  -1.8077  -1.7712  -1.7563  -1.7391  -1.6986  -1.6983
    -1.6948  -1.5153  -1.5145  -1.5093  -1.4963  -1.4637  -1.4625  -1.4538
    -0.6909  -0.2441   0.5004   1.9338   1.9689   2.0104   2.2503   2.6714
     2.8040   2.8760   3.1256   3.3148   3.5920   4.7248   5.0895

          k = 0.0000 0.0323 0.0000 ( 19455 PWs)   bands (ev):

   -90.6233 -90.6190 -90.6131 -90.6017 -90.4213 -90.4168 -90.4144 -90.3946
   -90.3937 -90.3759 -90.2865 -90.2830 -54.1583 -54.1500 -54.1487 -54.1219
   -54.1145 -54.1043 -54.0996 -54.0991 -54.0940 -54.0937 -54.0764 -54.0707
   -53.9601 -53.9521 -53.9519 -53.9366 -53.9100 -53.9044 -53.8998 -53.8994
   -53.8986 -53.8945 -53.8933 -53.8919 -53.8798 -53.8760 -53.8752 -53.8706
   -53.8680 -53.8522 -53.8239 -53.8089 -53.8026 -53.7849 -53.7382 -53.7232
   -17.4592  -6.0821  -4.8180  -4.3018  -4.2532  -4.2510  -4.2143  -4.1531
    -4.1513  -4.1299  -4.0562  -4.0370  -4.0350  -3.9473  -3.8576  -3.8219
    -3.7128  -3.3464  -3.3449  -3.3030  -3.2678  -3.2272  -3.2157  -3.1692
    -3.1509  -3.1131  -3.0757  -3.0424  -2.9850  -2.9459  -2.9418  -2.8286
    -2.7947  -2.7862  -2.5859  -2.4920  -2.4538  -2.3930  -2.3496  -2.3283
    -2.3157  -2.2406  -2.2042  -2.1911  -2.1276  -2.1071  -2.0025  -1.9696
    -1.8962  -1.8802  -1.8570  -1.8323  -1.8075  -1.8040  -1.7774  -1.7742
    -1.7556  -1.6553  -1.6424  -1.6089  -1.5881  -1.5672  -1.5441  -1.3829
    -0.7498  -0.3062   0.5256   0.7016   1.5672   1.6459   1.9611   2.4755
     2.7709   3.0884   3.7833   3.8311   4.2173   4.9126   5.4141

          k = 0.0000 0.0645 0.0000 ( 19481 PWs)   bands (ev):

   -90.6228 -90.6190 -90.6136 -90.6018 -90.4206 -90.4168 -90.4149 -90.3947
   -90.3937 -90.3759 -90.2866 -90.2830 -54.1521 -54.1402 -54.1356 -54.1207
   -54.1143 -54.1073 -54.1055 -54.1013 -54.0989 -54.0922 -54.0901 -54.0733
   -53.9535 -53.9439 -53.9390 -53.9341 -53.9122 -53.9075 -53.9036 -53.8988
   -53.8969 -53.8939 -53.8937 -53.8921 -53.8866 -53.8779 -53.8755 -53.8698
   -53.8679 -53.8509 -53.8289 -53.8119 -53.8118 -53.7852 -53.7385 -53.7233
   -17.4589  -6.0504  -4.3928  -4.1711  -4.0129  -4.0125  -4.0049  -3.9714
    -3.9692  -3.9433  -3.9190  -3.8689  -3.8501  -3.7264  -3.5994  -3.5568
    -3.5488  -3.3787  -3.3576  -3.3183  -3.2685  -3.2535  -3.1906  -3.1282
    -3.1071  -3.0697  -3.0559  -2.9936  -2.9375  -2.8974  -2.8636  -2.8219
    -2.8031  -2.7906  -2.7114  -2.6320  -2.6174  -2.5694  -2.4612  -2.4151
    -2.4103  -2.3556  -2.3386  -2.2906  -2.2855  -2.2537  -2.2404  -2.2061
    -2.1416  -2.1160  -2.0913  -2.0681  -2.0592  -1.9954  -1.9266  -1.8778
    -1.8259  -1.7679  -1.7502  -1.7469  -1.7181  -1.6210  -1.6114  -1.4636
    -1.0912  -0.5080  -0.3954   0.6384   1.1364   1.3019   1.4736   2.6556
     2.7631   3.0754   3.5590   4.7838   4.8352   5.2873   5.7195

          k = 0.0000-0.0968 0.0000 ( 19500 PWs)   bands (ev):

   -90.6225 -90.6190 -90.6138 -90.6019 -90.4203 -90.4168 -90.4153 -90.3948
   -90.3937 -90.3759 -90.2866 -90.2830 -54.1485 -54.1336 -54.1203 -54.1184
   -54.1143 -54.1140 -54.1130 -54.1055 -54.0997 -54.0989 -54.0908 -54.0748
   -53.9497 -53.9375 -53.9327 -53.9231 -53.9192 -53.9188 -53.9008 -53.9000
   -53.8981 -53.8961 -53.8940 -53.8933 -53.8834 -53.8795 -53.8752 -53.8694
   -53.8675 -53.8496 -53.8318 -53.8177 -53.8133 -53.7855 -53.7387 -53.7234
   -17.4588  -6.0360  -4.0940  -4.0712  -3.9436  -3.9088  -3.9076  -3.8730
    -3.7958  -3.7571  -3.7147  -3.6941  -3.6614  -3.6227  -3.5779  -3.4879
    -3.4766  -3.3724  -3.3323  -3.2770  -3.2489  -3.2215  -3.2196  -3.1622
    -3.1193  -3.0563  -3.0417  -2.9691  -2.8920  -2.8695  -2.8307  -2.7989
    -2.7681  -2.7370  -2.7135  -2.6290  -2.6056  -2.5962  -2.5565  -2.5433
    -2.5409  -2.4700  -2.4677  -2.4160  -2.3769  -2.3658  -2.3349  -2.3349
    -2.2937  -2.2613  -2.2574  -2.2405  -2.1836  -2.1542  -2.1525  -2.0870
    -2.0313  -1.8698  -1.7725  -1.7693  -1.7256  -1.7134  -1.6148  -1.6055
    -1.1592  -0.4272  -0.4100  -0.0223   1.2375   1.2387   1.8977   2.0802
     2.7552   2.9220   4.3305   4.4477   5.0405   5.0730   5.9850

          k = 0.0279-0.0161 0.0000 ( 19455 PWs)   bands (ev):

   -90.6232 -90.6192 -90.6130 -90.6018 -90.4212 -90.4170 -90.4142 -90.3946
   -90.3937 -90.3759 -90.2863 -90.2833 -54.1569 -54.1523 -54.1478 -54.1218
   -54.1150 -54.1037 -54.1007 -54.0994 -54.0955 -54.0909 -54.0753 -54.0719
   -53.9596 -53.9534 -53.9510 -53.9340 -53.9112 -53.9046 -53.9011 -53.8995
   -53.8966 -53.8949 -53.8933 -53.8926 -53.8798 -53.8792 -53.8759 -53.8707
   -53.8681 -53.8524 -53.8203 -53.8081 -53.8003 -53.7873 -53.7374 -53.7246
   -17.4591  -6.0634  -4.8206  -4.3038  -4.2529  -4.2506  -4.2107  -4.1636
    -4.1505  -4.1354  -4.0556  -4.0378  -4.0321  -3.9269  -3.8960  -3.8347
    -3.6950  -3.3995  -3.3590  -3.3257  -3.2340  -3.2223  -3.2118  -3.1833
    -3.1183  -3.0984  -3.0856  -3.0444  -2.9752  -2.9424  -2.9197  -2.8835
    -2.8566  -2.7398  -2.5761  -2.4988  -2.4626  -2.4044  -2.3602  -2.3279
    -2.2915  -2.2621  -2.2089  -2.1706  -2.1312  -2.0666  -1.9839  -1.9668
    -1.8917  -1.8728  -1.8531  -1.8365  -1.8120  -1.7993  -1.7780  -1.7696
    -1.7569  -1.6660  -1.6501  -1.6091  -1.5965  -1.5799  -1.5671  -1.3034
    -0.6449  -0.4130   0.4383   0.7833   1.5788   1.6226   1.9281   2.5217
     2.8844   3.0016   3.7742   3.8834   4.1643   4.8864   5.4105

          k = 0.0279 0.0161 0.0000 ( 19455 PWs)   bands (ev):

   -90.6232 -90.6192 -90.6130 -90.6018 -90.4212 -90.4170 -90.4142 -90.3946
   -90.3937 -90.3759 -90.2863 -90.2833 -54.1569 -54.1523 -54.1478 -54.1218
   -54.1150 -54.1037 -54.1007 -54.0994 -54.0955 -54.0909 -54.0753 -54.0719
   -53.9596 -53.9534 -53.9510 -53.9340 -53.9112 -53.9046 -53.9011 -53.8995
   -53.8966 -53.8949 -53.8933 -53.8926 -53.8798 -53.8792 -53.8759 -53.8707
   -53.8681 -53.8524 -53.8203 -53.8081 -53.8003 -53.7873 -53.7374 -53.7246
   -17.4591  -6.0634  -4.8206  -4.3038  -4.2529  -4.2506  -4.2107  -4.1636
    -4.1505  -4.1354  -4.0556  -4.0378  -4.0321  -3.9269  -3.8960  -3.8347
    -3.6950  -3.3995  -3.3590  -3.3257  -3.2340  -3.2223  -3.2118  -3.1833
    -3.1183  -3.0984  -3.0856  -3.0444  -2.9752  -2.9424  -2.9197  -2.8835
    -2.8566  -2.7398  -2.5761  -2.4988  -2.4626  -2.4044  -2.3602  -2.3279
    -2.2915  -2.2621  -2.2089  -2.1706  -2.1312  -2.0666  -1.9839  -1.9668
    -1.8917  -1.8728  -1.8531  -1.8365  -1.8120  -1.7993  -1.7780  -1.7696
    -1.7569  -1.6660  -1.6501  -1.6091  -1.5965  -1.5799  -1.5671  -1.3034
    -0.6449  -0.4130   0.4383   0.7833   1.5788   1.6226   1.9281   2.5217
     2.8844   3.0016   3.7742   3.8834   4.1643   4.8864   5.4105

          k = 0.0279 0.0484 0.0000 ( 19453 PWs)   bands (ev):

   -90.6228 -90.6193 -90.6133 -90.6018 -90.4207 -90.4171 -90.4146 -90.3947
   -90.3936 -90.3759 -90.2863 -90.2833 -54.1526 -54.1429 -54.1411 -54.1208
   -54.1149 -54.1070 -54.1042 -54.0993 -54.0977 -54.0926 -54.0844 -54.0738
   -53.9546 -53.9454 -53.9445 -53.9319 -53.9117 -53.9065 -53.9019 -53.8989
   -53.8986 -53.8949 -53.8932 -53.8896 -53.8872 -53.8794 -53.8780 -53.8700
   -53.8681 -53.8516 -53.8241 -53.8098 -53.8070 -53.7874 -53.7376 -53.7247
   -17.4589  -6.0388  -4.5182  -4.1531  -4.1497  -4.0599  -4.0465  -4.0365
    -4.0146  -4.0079  -3.9635  -3.9361  -3.8848  -3.7626  -3.7319  -3.6267
    -3.5896  -3.4060  -3.3420  -3.3182  -3.2725  -3.2317  -3.1919  -3.1596
    -3.1245  -3.1087  -3.0550  -2.9847  -2.9595  -2.9362  -2.8841  -2.8691
    -2.8129  -2.7569  -2.6641  -2.6239  -2.6036  -2.5496  -2.4095  -2.3810
    -2.3535  -2.3286  -2.2889  -2.2724  -2.2105  -2.1923  -2.1312  -2.0930
    -2.0881  -2.0506  -2.0196  -1.9918  -1.9768  -1.9386  -1.8837  -1.8478
    -1.8153  -1.7718  -1.7450  -1.7195  -1.6837  -1.6647  -1.6552  -1.2284
    -0.7137  -0.5158  -0.0586   0.0025   1.0930   1.3357   1.6363   2.8965
     3.0919   3.4796   3.6295   3.9373   4.3567   5.1972   5.5368

          k = 0.0279-0.1129 0.0000 ( 19479 PWs)   bands (ev):

   -90.6224 -90.6193 -90.6136 -90.6019 -90.4201 -90.4172 -90.4150 -90.3948
   -90.3936 -90.3759 -90.2864 -90.2833 -54.1464 -54.1322 -54.1265 -54.1198
   -54.1183 -54.1149 -54.1063 -54.1047 -54.0992 -54.0954 -54.0912 -54.0768
   -53.9480 -53.9360 -53.9306 -53.9296 -53.9228 -53.9107 -53.9017 -53.8998
   -53.8981 -53.8955 -53.8937 -53.8930 -53.8851 -53.8814 -53.8793 -53.8694
   -53.8679 -53.8502 -53.8278 -53.8152 -53.8116 -53.7877 -53.7379 -53.7247
   -17.4586  -6.0165  -4.0780  -3.9999  -3.9103  -3.8881  -3.8805  -3.8420
    -3.8302  -3.8082  -3.7776  -3.7393  -3.6852  -3.5713  -3.5495  -3.5106
    -3.4780  -3.4401  -3.3448  -3.3246  -3.2383  -3.2337  -3.1879  -3.1531
    -3.1275  -3.0723  -3.0304  -2.9846  -2.9487  -2.9370  -2.9187  -2.8851
    -2.8484  -2.7920  -2.7653  -2.7261  -2.6274  -2.6091  -2.5756  -2.5440
    -2.5335  -2.4966  -2.4413  -2.4017  -2.3725  -2.3351  -2.3010  -2.2741
    -2.2630  -2.2321  -2.2037  -2.1366  -2.1179  -2.0781  -2.0133  -1.9403
    -1.8944  -1.8342  -1.8147  -1.7652  -1.7145  -1.6939  -1.6285  -1.5018
    -1.0336  -0.6338  -0.3710  -0.1476   0.3033   1.3048   1.7780   2.6433
     3.0445   3.6597   4.0301   4.5006   5.0644   5.2370   5.7478

          k = 0.0279-0.0806 0.0000 ( 19479 PWs)   bands (ev):

   -90.6224 -90.6193 -90.6136 -90.6019 -90.4201 -90.4172 -90.4150 -90.3948
   -90.3936 -90.3759 -90.2864 -90.2833 -54.1464 -54.1322 -54.1265 -54.1198
   -54.1183 -54.1149 -54.1063 -54.1047 -54.0992 -54.0954 -54.0912 -54.0768
   -53.9480 -53.9360 -53.9306 -53.9296 -53.9228 -53.9107 -53.9017 -53.8998
   -53.8981 -53.8955 -53.8937 -53.8930 -53.8851 -53.8814 -53.8793 -53.8694
   -53.8679 -53.8502 -53.8278 -53.8152 -53.8116 -53.7877 -53.7379 -53.7247
   -17.4586  -6.0165  -4.0780  -3.9999  -3.9103  -3.8881  -3.8805  -3.8420
    -3.8302  -3.8082  -3.7776  -3.7393  -3.6852  -3.5713  -3.5495  -3.5106
    -3.4780  -3.4401  -3.3448  -3.3246  -3.2383  -3.2337  -3.1879  -3.1531
    -3.1275  -3.0723  -3.0304  -2.9846  -2.9487  -2.9370  -2.9187  -2.8851
    -2.8484  -2.7920  -2.7653  -2.7261  -2.6274  -2.6091  -2.5756  -2.5440
    -2.5335  -2.4966  -2.4413  -2.4017  -2.3725  -2.3351  -2.3010  -2.2741
    -2.2630  -2.2321  -2.2037  -2.1366  -2.1179  -2.0781  -2.0133  -1.9403
    -1.8944  -1.8342  -1.8147  -1.7652  -1.7145  -1.6939  -1.6285  -1.5018
    -1.0336  -0.6338  -0.3710  -0.1476   0.3033   1.3048   1.7780   2.6433
     3.0445   3.6597   4.0301   4.5006   5.0644   5.2370   5.7478

          k = 0.0279-0.0484 0.0000 ( 19453 PWs)   bands (ev):

   -90.6228 -90.6193 -90.6133 -90.6018 -90.4207 -90.4171 -90.4146 -90.3947
   -90.3936 -90.3759 -90.2863 -90.2833 -54.1526 -54.1429 -54.1411 -54.1208
   -54.1149 -54.1070 -54.1042 -54.0993 -54.0977 -54.0926 -54.0844 -54.0738
   -53.9546 -53.9454 -53.9445 -53.9319 -53.9117 -53.9065 -53.9019 -53.8989
   -53.8986 -53.8949 -53.8932 -53.8896 -53.8872 -53.8794 -53.8780 -53.8700
   -53.8681 -53.8516 -53.8241 -53.8098 -53.8070 -53.7874 -53.7376 -53.7247
   -17.4589  -6.0388  -4.5182  -4.1531  -4.1497  -4.0599  -4.0465  -4.0365
    -4.0146  -4.0079  -3.9635  -3.9361  -3.8848  -3.7626  -3.7319  -3.6267
    -3.5896  -3.4060  -3.3420  -3.3182  -3.2725  -3.2317  -3.1919  -3.1596
    -3.1245  -3.1087  -3.0550  -2.9847  -2.9595  -2.9362  -2.8841  -2.8691
    -2.8129  -2.7569  -2.6641  -2.6239  -2.6036  -2.5496  -2.4095  -2.3810
    -2.3535  -2.3286  -2.2889  -2.2724  -2.2105  -2.1923  -2.1312  -2.0930
    -2.0881  -2.0506  -2.0196  -1.9918  -1.9768  -1.9386  -1.8837  -1.8478
    -1.8153  -1.7718  -1.7450  -1.7195  -1.6837  -1.6647  -1.6552  -1.2284
    -0.7137  -0.5158  -0.0586   0.0025   1.0930   1.3357   1.6363   2.8965
     3.0919   3.4796   3.6295   3.9373   4.3567   5.1972   5.5368

          k = 0.0559-0.0323 0.0000 ( 19481 PWs)   bands (ev):

   -90.6223 -90.6199 -90.6131 -90.6019 -90.4202 -90.4177 -90.4143 -90.3947
   -90.3936 -90.3760 -90.2857 -90.2839 -54.1480 -54.1446 -54.1357 -54.1198
   -54.1164 -54.1086 -54.1042 -54.1025 -54.1000 -54.0885 -54.0879 -54.0756
   -53.9519 -53.9457 -53.9390 -53.9237 -53.9122 -53.9090 -53.9074 -53.8985
   -53.8957 -53.8944 -53.8927 -53.8920 -53.8913 -53.8878 -53.8790 -53.8699
   -53.8684 -53.8518 -53.8164 -53.8084 -53.8047 -53.7941 -53.7354 -53.7282
   -17.4585  -5.9909  -4.4078  -4.1758  -4.0334  -4.0117  -4.0049  -3.9893
    -3.9648  -3.9595  -3.9186  -3.8655  -3.8513  -3.7495  -3.6693  -3.5599
    -3.5154  -3.4304  -3.3684  -3.3533  -3.3078  -3.2704  -3.1569  -3.1133
    -3.0933  -3.0611  -3.0583  -2.9891  -2.9426  -2.8895  -2.8701  -2.8482
    -2.8007  -2.7773  -2.7320  -2.7153  -2.6047  -2.5551  -2.4630  -2.4104
    -2.3645  -2.3447  -2.3273  -2.3038  -2.2790  -2.2618  -2.2352  -2.1788
    -2.1295  -2.0993  -2.0720  -2.0572  -2.0261  -1.9815  -1.9224  -1.8966
    -1.8593  -1.7829  -1.7603  -1.7335  -1.7046  -1.6312  -1.6034  -1.3318
    -0.8704  -0.6717  -0.5101   0.6093   1.2056   1.3290   1.4599   2.6428
     2.7615   3.1894   3.4700   4.7898   4.8583   5.3089   5.7204

          k = 0.0559 0.0000 0.0000 ( 19453 PWs)   bands (ev):

   -90.6224 -90.6199 -90.6130 -90.6019 -90.4205 -90.4176 -90.4142 -90.3947
   -90.3936 -90.3760 -90.2857 -90.2839 -54.1496 -54.1464 -54.1405 -54.1203
   -54.1164 -54.1095 -54.1031 -54.1001 -54.0946 -54.0922 -54.0836 -54.0751
   -53.9537 -53.9466 -53.9442 -53.9245 -53.9131 -53.9092 -53.9008 -53.8988
   -53.8977 -53.8956 -53.8928 -53.8916 -53.8891 -53.8870 -53.8787 -53.8701
   -53.8683 -53.8520 -53.8138 -53.8094 -53.8013 -53.7947 -53.7353 -53.7283
   -17.4586  -5.9991  -4.5275  -4.1575  -4.1494  -4.0656  -4.0404  -4.0399
    -4.0293  -4.0073  -3.9644  -3.9600  -3.8711  -3.7561  -3.7265  -3.7167
    -3.5553  -3.4274  -3.3807  -3.3085  -3.2919  -3.2282  -3.1934  -3.1434
    -3.1218  -3.0786  -3.0465  -2.9765  -2.9644  -2.9570  -2.9266  -2.8648
    -2.8228  -2.7760  -2.6697  -2.6399  -2.6029  -2.5320  -2.4572  -2.3717
    -2.3558  -2.3238  -2.2827  -2.2515  -2.1985  -2.1592  -2.1201  -2.0949
    -2.0856  -2.0397  -2.0233  -1.9981  -1.9412  -1.9229  -1.8784  -1.8455
    -1.8065  -1.7813  -1.7552  -1.7285  -1.7017  -1.6764  -1.6400  -1.0676
    -0.6182  -0.5888  -0.1471  -0.0332   1.1529   1.2269   1.6984   2.9253
     3.1661   3.4079   3.6146   4.0763   4.2587   5.1340   5.5369

          k = 0.0559 0.0323 0.0000 ( 19481 PWs)   bands (ev):

   -90.6223 -90.6199 -90.6131 -90.6019 -90.4202 -90.4177 -90.4143 -90.3947
   -90.3936 -90.3760 -90.2857 -90.2839 -54.1480 -54.1446 -54.1357 -54.1198
   -54.1164 -54.1086 -54.1042 -54.1025 -54.1000 -54.0885 -54.0879 -54.0756
   -53.9519 -53.9457 -53.9390 -53.9237 -53.9122 -53.9090 -53.9074 -53.8985
   -53.8957 -53.8944 -53.8927 -53.8920 -53.8913 -53.8878 -53.8790 -53.8699
   -53.8684 -53.8518 -53.8164 -53.8084 -53.8047 -53.7941 -53.7354 -53.7282
   -17.4585  -5.9909  -4.4078  -4.1758  -4.0334  -4.0117  -4.0049  -3.9893
    -3.9648  -3.9595  -3.9186  -3.8655  -3.8513  -3.7495  -3.6693  -3.5599
    -3.5154  -3.4304  -3.3684  -3.3533  -3.3078  -3.2704  -3.1569  -3.1133
    -3.0933  -3.0611  -3.0583  -2.9891  -2.9426  -2.8895  -2.8701  -2.8482
    -2.8007  -2.7773  -2.7320  -2.7153  -2.6047  -2.5551  -2.4630  -2.4104
    -2.3645  -2.3447  -2.3273  -2.3038  -2.2790  -2.2618  -2.2352  -2.1788
    -2.1295  -2.0993  -2.0720  -2.0572  -2.0261  -1.9815  -1.9224  -1.8966
    -1.8593  -1.7829  -1.7603  -1.7335  -1.7046  -1.6312  -1.6034  -1.3318
    -0.8704  -0.6717  -0.5101   0.6093   1.2056   1.3290   1.4599   2.6428
     2.7615   3.1894   3.4700   4.7898   4.8583   5.3089   5.7204

          k = 0.0559-0.1290 0.0000 ( 19479 PWs)   bands (ev):

   -90.6219 -90.6201 -90.6133 -90.6020 -90.4197 -90.4180 -90.4146 -90.3948
   -90.3935 -90.3760 -90.2858 -90.2839 -54.1433 -54.1354 -54.1282 -54.1188
   -54.1168 -54.1160 -54.1086 -54.1038 -54.0999 -54.0940 -54.0877 -54.0790
   -53.9466 -53.9377 -53.9313 -53.9220 -53.9211 -53.9122 -53.9040 -53.8988
   -53.8977 -53.8960 -53.8933 -53.8921 -53.8913 -53.8863 -53.8824 -53.8694
   -53.8685 -53.8511 -53.8189 -53.8112 -53.8080 -53.7939 -53.7357 -53.7281
   -17.4584  -5.9757  -4.0962  -4.0088  -3.9233  -3.8987  -3.8731  -3.8561
    -3.8323  -3.8167  -3.7851  -3.7426  -3.6762  -3.5844  -3.5564  -3.5276
    -3.5138  -3.4318  -3.3736  -3.3201  -3.2604  -3.2125  -3.1850  -3.1621
    -3.1416  -3.0953  -3.0215  -2.9718  -2.9485  -2.9363  -2.9125  -2.8846
    -2.8500  -2.8306  -2.7412  -2.6779  -2.6690  -2.6067  -2.5672  -2.5494
    -2.5214  -2.5012  -2.4458  -2.4231  -2.3440  -2.3261  -2.3009  -2.2726
    -2.2579  -2.2268  -2.1561  -2.1329  -2.1179  -2.0474  -1.9742  -1.9639
    -1.9104  -1.8411  -1.8036  -1.7760  -1.7523  -1.7004  -1.6360  -1.3460
    -1.0226  -0.6843  -0.4214  -0.1580   0.3549   1.2491   1.8226   2.6971
     3.0217   3.6172   4.0725   4.5049   5.0790   5.2397   5.7094

          k = 0.0559-0.0968 0.0000 ( 19479 PWs)   bands (ev):

   -90.6216 -90.6202 -90.6134 -90.6020 -90.4194 -90.4182 -90.4147 -90.3948
   -90.3935 -90.3760 -90.2858 -90.2839 -54.1361 -54.1321 -54.1242 -54.1206
   -54.1187 -54.1164 -54.1156 -54.1042 -54.0998 -54.0938 -54.0868 -54.0834
   -53.9382 -53.9366 -53.9282 -53.9221 -53.9213 -53.9202 -53.9027 -53.9000
   -53.8973 -53.8962 -53.8933 -53.8902 -53.8889 -53.8877 -53.8863 -53.8691
   -53.8685 -53.8506 -53.8195 -53.8141 -53.8087 -53.7941 -53.7358 -53.7281
   -17.4583  -5.9687  -3.8761  -3.8180  -3.8086  -3.7657  -3.7436  -3.7169
    -3.6981  -3.6876  -3.6854  -3.6588  -3.6526  -3.6492  -3.6172  -3.5946
    -3.5916  -3.3966  -3.3598  -3.2539  -3.2226  -3.1894  -3.1858  -3.1765
    -3.1363  -3.0911  -3.0583  -3.0170  -3.0097  -3.0010  -2.9680  -2.9276
    -2.8567  -2.8390  -2.7915  -2.7805  -2.7795  -2.7708  -2.7455  -2.7385
    -2.7190  -2.5875  -2.4546  -2.3743  -2.3600  -2.3566  -2.3322  -2.2711
    -2.2245  -2.1978  -2.1335  -2.1103  -2.0459  -1.9613  -1.9313  -1.9172
    -1.9019  -1.8685  -1.8347  -1.8184  -1.8002  -1.6673  -1.4761  -1.4437
    -1.1938  -0.9112  -0.7565   0.1143   0.1639   0.4195   2.3390   2.5482
     2.8884   4.8233   4.8403   4.8955   5.0065   5.0779   5.2509

          k = 0.0559-0.0645 0.0000 ( 19479 PWs)   bands (ev):

   -90.6219 -90.6201 -90.6133 -90.6020 -90.4197 -90.4180 -90.4146 -90.3948
   -90.3935 -90.3760 -90.2858 -90.2839 -54.1433 -54.1354 -54.1282 -54.1188
   -54.1168 -54.1160 -54.1086 -54.1038 -54.0999 -54.0940 -54.0877 -54.0790
   -53.9466 -53.9377 -53.9313 -53.9220 -53.9211 -53.9122 -53.9040 -53.8988
   -53.8977 -53.8960 -53.8933 -53.8921 -53.8913 -53.8863 -53.8824 -53.8694
   -53.8685 -53.8511 -53.8189 -53.8112 -53.8080 -53.7939 -53.7357 -53.7281
   -17.4584  -5.9757  -4.0962  -4.0088  -3.9233  -3.8987  -3.8731  -3.8561
    -3.8323  -3.8167  -3.7851  -3.7426  -3.6762  -3.5844  -3.5564  -3.5276
    -3.5138  -3.4318  -3.3736  -3.3201  -3.2604  -3.2125  -3.1850  -3.1621
    -3.1416  -3.0953  -3.0215  -2.9718  -2.9485  -2.9363  -2.9125  -2.8846
    -2.8500  -2.8306  -2.7412  -2.6779  -2.6690  -2.6067  -2.5672  -2.5494
    -2.5214  -2.5012  -2.4458  -2.4231  -2.3440  -2.3261  -2.3009  -2.2726
    -2.2579  -2.2268  -2.1561  -2.1329  -2.1179  -2.0474  -1.9742  -1.9639
    -1.9104  -1.8411  -1.8036  -1.7760  -1.7523  -1.7004  -1.6360  -1.3460
    -1.0226  -0.6843  -0.4214  -0.1580   0.3549   1.2491   1.8226   2.6971
[...]
   -90.4400 -90.4185 -90.3163 -90.3114 -54.2044 -54.1961 -54.1911 -54.1754
   -54.1710 -54.1667 -54.1639 -54.1583 -54.1456 -54.1439 -54.1361 -54.1242
   -53.9954 -53.9891 -53.9826 -53.9757 -53.9618 -53.9554 -53.9523 -53.9419
   -53.9385 -53.9382 -53.9369 -53.9366 -53.9361 -53.9321 -53.9252 -53.9232
   -53.9144 -53.8929 -53.8624 -53.8397 -53.8360 -53.8146 -53.7634 -53.7473
   -17.3632  -5.7209  -4.4637  -4.2345  -4.0941  -4.0716  -4.0569  -4.0453
    -4.0228  -4.0157  -3.9831  -3.9291  -3.8993  -3.7870  -3.7128  -3.5970
    -3.5694  -3.4660  -3.4143  -3.3972  -3.3542  -3.3038  -3.1951  -3.1641
    -3.1370  -3.1149  -3.1014  -3.0478  -2.9752  -2.9447  -2.9029  -2.8860
    -2.8652  -2.8288  -2.7849  -2.7477  -2.6501  -2.6126  -2.5076  -2.4499
    -2.4267  -2.3947  -2.3669  -2.3513  -2.3255  -2.3024  -2.2558  -2.2123
    -2.1751  -2.1411  -2.1137  -2.0978  -2.0627  -2.0186  -1.9587  -1.9346
    -1.8738  -1.8091  -1.7825  -1.7575  -1.7464  -1.6720  -1.6378  -1.3878
    -0.9076  -0.7261  -0.4993   0.5486   1.1556   1.2815   1.4254   2.5963
     2.7282   3.1628   3.4629   4.7526   4.8434   5.3392   5.6945

          k = 0.0559-0.1290 0.0000 ( 19479 PWs)   bands (ev):

   -90.6767 -90.6746 -90.6729 -90.6469 -90.4625 -90.4608 -90.4588 -90.4498
   -90.4401 -90.4185 -90.3164 -90.3114 -54.1989 -54.1885 -54.1823 -54.1750
   -54.1734 -54.1713 -54.1671 -54.1618 -54.1470 -54.1457 -54.1382 -54.1275
   -53.9900 -53.9810 -53.9748 -53.9739 -53.9658 -53.9595 -53.9549 -53.9429
   -53.9410 -53.9391 -53.9374 -53.9365 -53.9361 -53.9299 -53.9268 -53.9248
   -53.9145 -53.8920 -53.8648 -53.8425 -53.8384 -53.8147 -53.7636 -53.7473
   -17.3631  -5.6990  -4.1566  -4.0654  -3.9872  -3.9633  -3.9274  -3.9123
    -3.8928  -3.8733  -3.8465  -3.7999  -3.7342  -3.6409  -3.5976  -3.5825
    -3.5645  -3.4748  -3.4096  -3.3513  -3.2996  -3.2585  -3.2396  -3.2147
    -3.1942  -3.1382  -3.0532  -3.0183  -3.0052  -2.9756  -2.9629  -2.9370
    -2.8993  -2.8742  -2.8123  -2.7299  -2.7033  -2.6515  -2.6080  -2.5967
    -2.5601  -2.5304  -2.4934  -2.4415  -2.3711  -2.3654  -2.3447  -2.3161
    -2.3018  -2.2571  -2.1996  -2.1738  -2.1425  -2.0923  -2.0090  -1.9935
    -1.9317  -1.8809  -1.8257  -1.8113  -1.7955  -1.7376  -1.6838  -1.3795
    -1.0427  -0.7133  -0.4689  -0.2002   0.3090   1.2139   1.7782   2.6692
     2.9797   3.6010   4.0452   4.4756   5.0407   5.2348   5.7491

          k = 0.0559-0.0968 0.0000 ( 19479 PWs)   bands (ev):

   -90.6761 -90.6751 -90.6729 -90.6469 -90.4618 -90.4613 -90.4589 -90.4498
   -90.4401 -90.4185 -90.3164 -90.3114 -54.1900 -54.1882 -54.1810 -54.1736
   -54.1730 -54.1712 -54.1698 -54.1672 -54.1497 -54.1456 -54.1341 -54.1330
   -53.9811 -53.9801 -53.9734 -53.9714 -53.9658 -53.9652 -53.9585 -53.9432
   -53.9401 -53.9399 -53.9373 -53.9356 -53.9332 -53.9326 -53.9292 -53.9246
   -53.9146 -53.8914 -53.8657 -53.8450 -53.8388 -53.8148 -53.7637 -53.7473
   -17.3630  -5.6889  -3.9530  -3.8773  -3.8580  -3.8273  -3.8075  -3.7798
    -3.7609  -3.7456  -3.7405  -3.7240  -3.7182  -3.6946  -3.6735  -3.6568
    -3.6335  -3.4404  -3.4187  -3.3051  -3.2502  -3.2440  -3.2260  -3.1897
    -3.1784  -3.1277  -3.1113  -3.0677  -3.0608  -3.0491  -3.0306  -2.9950
    -2.8956  -2.8736  -2.8357  -2.8256  -2.8215  -2.8085  -2.7996  -2.7676
    -2.7493  -2.5974  -2.4748  -2.4148  -2.4043  -2.3916  -2.3729  -2.3078
    -2.2680  -2.2486  -2.1732  -2.1564  -2.0642  -2.0041  -1.9778  -1.9481
    -1.9258  -1.9215  -1.8667  -1.8542  -1.8299  -1.7292  -1.5071  -1.4824
    -1.2266  -0.9387  -0.7600   0.0375   0.1383   0.3818   2.3342   2.4950
     2.8566   4.7788   4.7993   4.8633   4.9939   5.0513   5.2620

          k = 0.0559-0.0645 0.0000 ( 19479 PWs)   bands (ev):

   -90.6767 -90.6746 -90.6729 -90.6469 -90.4625 -90.4608 -90.4588 -90.4498
   -90.4401 -90.4185 -90.3164 -90.3114 -54.1989 -54.1885 -54.1823 -54.1750
   -54.1734 -54.1713 -54.1671 -54.1618 -54.1470 -54.1457 -54.1382 -54.1275
   -53.9900 -53.9810 -53.9748 -53.9739 -53.9658 -53.9595 -53.9549 -53.9429
   -53.9410 -53.9391 -53.9374 -53.9365 -53.9361 -53.9299 -53.9268 -53.9248
   -53.9145 -53.8920 -53.8648 -53.8425 -53.8384 -53.8147 -53.7636 -53.7473
   -17.3631  -5.6990  -4.1566  -4.0654  -3.9872  -3.9633  -3.9274  -3.9123
    -3.8928  -3.8733  -3.8465  -3.7999  -3.7342  -3.6409  -3.5976  -3.5825
    -3.5645  -3.4748  -3.4096  -3.3513  -3.2996  -3.2585  -3.2396  -3.2147
    -3.1942  -3.1382  -3.0532  -3.0183  -3.0052  -2.9756  -2.9629  -2.9370
    -2.8993  -2.8742  -2.8123  -2.7299  -2.7033  -2.6515  -2.6080  -2.5967
    -2.5601  -2.5304  -2.4934  -2.4415  -2.3711  -2.3654  -2.3447  -2.3161
    -2.3018  -2.2571  -2.1996  -2.1738  -2.1425  -2.0923  -2.0090  -1.9935
    -1.9317  -1.8809  -1.8257  -1.8113  -1.7955  -1.7376  -1.6838  -1.3795
    -1.0427  -0.7133  -0.4689  -0.2002   0.3090   1.2139   1.7782   2.6692
     2.9797   3.6010   4.0452   4.4756   5.0407   5.2348   5.7491

          k =-0.0838 0.0484 0.0000 ( 19500 PWs)   bands (ev):

   -90.6768 -90.6744 -90.6730 -90.6469 -90.4623 -90.4611 -90.4587 -90.4498
   -90.4401 -90.4185 -90.3162 -90.3116 -54.2000 -54.1894 -54.1761 -54.1745
   -54.1734 -54.1704 -54.1693 -54.1666 -54.1459 -54.1428 -54.1426 -54.1258
   -53.9911 -53.9833 -53.9695 -53.9657 -53.9651 -53.9610 -53.9599 -53.9453
   -53.9427 -53.9406 -53.9391 -53.9375 -53.9356 -53.9310 -53.9254 -53.9251
   -53.9145 -53.8923 -53.8615 -53.8409 -53.8372 -53.8167 -53.7628 -53.7488
   -17.3629  -5.6681  -4.1913  -4.1402  -4.0227  -3.9861  -3.9726  -3.9471
    -3.8719  -3.8262  -3.7631  -3.7499  -3.7295  -3.7005  -3.6206  -3.5994
    -3.5274  -3.5263  -3.3531  -3.3145  -3.3008  -3.2680  -3.2600  -3.2519
    -3.1945  -3.1432  -3.0182  -2.9868  -2.9596  -2.9152  -2.9044  -2.8605
    -2.8351  -2.7790  -2.7693  -2.6667  -2.6450  -2.6427  -2.6134  -2.6067
    -2.5912  -2.5471  -2.4801  -2.4407  -2.4183  -2.3943  -2.3789  -2.3656
    -2.3336  -2.3148  -2.2768  -2.2731  -2.1724  -2.1318  -2.1117  -2.0925
    -2.0137  -1.9212  -1.7986  -1.7856  -1.7817  -1.7129  -1.6603  -1.4520
    -1.2524  -0.4812  -0.3241  -0.2500   1.1708   1.1951   1.9947   2.0666
     2.6845   2.8360   4.3839   4.4554   4.9615   5.0992   6.0208

          k =-0.0838 0.0806 0.0000 ( 19479 PWs)   bands (ev):

   -90.6768 -90.6743 -90.6731 -90.6469 -90.4624 -90.4610 -90.4587 -90.4498
   -90.4401 -90.4185 -90.3162 -90.3116 -54.1983 -54.1879 -54.1832 -54.1760
   -54.1736 -54.1712 -54.1667 -54.1615 -54.1476 -54.1455 -54.1375 -54.1277
   -53.9899 -53.9809 -53.9744 -53.9691 -53.9670 -53.9604 -53.9540 -53.9430
   -53.9422 -53.9406 -53.9390 -53.9374 -53.9364 -53.9317 -53.9269 -53.9250
   -53.9145 -53.8924 -53.8611 -53.8418 -53.8363 -53.8168 -53.7628 -53.7488
   -17.3629  -5.6686  -4.1740  -4.0669  -3.9955  -3.9630  -3.9365  -3.9122
    -3.8933  -3.8793  -3.8548  -3.7949  -3.7326  -3.6303  -3.6060  -3.5825
    -3.5627  -3.4834  -3.4041  -3.3743  -3.3093  -3.2536  -3.2398  -3.2104
    -3.2006  -3.1383  -3.0699  -3.0221  -2.9982  -2.9777  -2.9636  -2.9405
    -2.8946  -2.8518  -2.8099  -2.7387  -2.6826  -2.6620  -2.6344  -2.6028
    -2.5767  -2.5486  -2.4883  -2.4735  -2.4051  -2.3696  -2.3369  -2.3281
    -2.2997  -2.2635  -2.2042  -2.1371  -2.1084  -2.0721  -2.0166  -1.9798
    -1.9231  -1.8495  -1.8321  -1.8219  -1.7769  -1.7403  -1.5991  -1.4217
    -1.0625  -0.6402  -0.4412  -0.1990   0.2072   1.1990   1.8575   2.5956
     2.9936   3.6601   4.0709   4.4150   5.0219   5.2656   5.7481

          k =-0.0838 0.1129 0.0000 ( 19479 PWs)   bands (ev):

   -90.6768 -90.6743 -90.6731 -90.6469 -90.4624 -90.4610 -90.4587 -90.4498
   -90.4401 -90.4185 -90.3162 -90.3116 -54.1983 -54.1879 -54.1832 -54.1760
   -54.1736 -54.1712 -54.1667 -54.1615 -54.1476 -54.1455 -54.1375 -54.1277
   -53.9899 -53.9809 -53.9744 -53.9691 -53.9670 -53.9604 -53.9540 -53.9430
   -53.9422 -53.9406 -53.9390 -53.9374 -53.9364 -53.9317 -53.9269 -53.9250
   -53.9145 -53.8924 -53.8611 -53.8418 -53.8363 -53.8168 -53.7628 -53.7488
   -17.3629  -5.6686  -4.1740  -4.0669  -3.9955  -3.9630  -3.9365  -3.9122
    -3.8933  -3.8793  -3.8548  -3.7949  -3.7326  -3.6303  -3.6060  -3.5825
    -3.5627  -3.4834  -3.4041  -3.3743  -3.3093  -3.2536  -3.2398  -3.2104
    -3.2006  -3.1383  -3.0699  -3.0221  -2.9982  -2.9777  -2.9636  -2.9405
    -2.8946  -2.8518  -2.8099  -2.7387  -2.6826  -2.6620  -2.6344  -2.6028
    -2.5767  -2.5486  -2.4883  -2.4735  -2.4051  -2.3696  -2.3369  -2.3281
    -2.2997  -2.2635  -2.2042  -2.1371  -2.1084  -2.0721  -2.0166  -1.9798
    -1.9231  -1.8495  -1.8321  -1.8219  -1.7769  -1.7403  -1.5991  -1.4217
    -1.0625  -0.6402  -0.4412  -0.1990   0.2072   1.1990   1.8575   2.5956
     2.9936   3.6601   4.0709   4.4150   5.0219   5.2656   5.7481

          k =-0.0838-0.0484 0.0000 ( 19500 PWs)   bands (ev):

   -90.6768 -90.6744 -90.6730 -90.6469 -90.4623 -90.4611 -90.4587 -90.4498
   -90.4401 -90.4185 -90.3162 -90.3116 -54.2000 -54.1894 -54.1761 -54.1745
   -54.1734 -54.1704 -54.1693 -54.1666 -54.1459 -54.1428 -54.1426 -54.1258
   -53.9911 -53.9833 -53.9695 -53.9657 -53.9651 -53.9610 -53.9599 -53.9453
   -53.9427 -53.9406 -53.9391 -53.9375 -53.9356 -53.9310 -53.9254 -53.9251
   -53.9145 -53.8923 -53.8615 -53.8409 -53.8372 -53.8167 -53.7628 -53.7488
   -17.3629  -5.6681  -4.1913  -4.1402  -4.0227  -3.9861  -3.9726  -3.9471
    -3.8719  -3.8262  -3.7631  -3.7499  -3.7295  -3.7005  -3.6206  -3.5994
    -3.5274  -3.5263  -3.3531  -3.3145  -3.3008  -3.2680  -3.2600  -3.2519
    -3.1945  -3.1432  -3.0182  -2.9868  -2.9596  -2.9152  -2.9044  -2.8605
    -2.8351  -2.7790  -2.7693  -2.6667  -2.6450  -2.6427  -2.6134  -2.6067
    -2.5912  -2.5471  -2.4801  -2.4407  -2.4183  -2.3943  -2.3789  -2.3656
    -2.3336  -2.3148  -2.2768  -2.2731  -2.1724  -2.1318  -2.1117  -2.0925
    -2.0137  -1.9212  -1.7986  -1.7856  -1.7817  -1.7129  -1.6603  -1.4520
    -1.2524  -0.4812  -0.3241  -0.2500   1.1708   1.1951   1.9947   2.0666
     2.6845   2.8360   4.3839   4.4554   4.9615   5.0992   6.0208

     the Fermi energy is     1.3732 ev

!    total energy              =   -3593.57606596 Ry
     Harris-Foulkes estimate   =   -3593.57606600 Ry
     estimated scf accuracy    <       0.00000002 Ry

     The total energy is the sum of the following terms:

     one-electron contribution =  -26412.71153793 Ry
     hartree contribution      =   13201.84864194 Ry
     xc contribution           =    -369.42803853 Ry
     ewald contribution        =    9986.73997039 Ry
     electric field correction =       0.00001303 Ry
     smearing contrib. (-TS)   =      -0.02511485 Ry

     convergence has been achieved in   6 iterations
 
 BEEF-vdW xc energy contributions
           1 :   -319.983700339172     
           2 :    289.407176098106     
           3 :   -238.514202263960     
           4 :    182.775897584247     
           5 :   -136.113543997952     
           6 :    105.897916430549     
           7 :   -91.6658504742445     
           8 :    87.4409263900522     
           9 :   -85.9051741498370     
          10 :    82.0651466475156     
          11 :   -74.7621933124479     
          12 :    65.7970476443825     
          13 :   -57.7644265804483     
          14 :    52.1428400269637     
          15 :   -48.6795325225604     
          16 :    46.0795503759045     
          17 :   -43.1988323349086     
          18 :    39.8027433197440     
          19 :   -36.4745642428127     
          20 :    33.9304339748641     
          21 :   -32.3609645531408     
          22 :    31.2814409330655     
          23 :   -29.9348213683966     
          24 :    27.8833708054750     
          25 :   -25.3363233875410     
          26 :    22.9916209765611     
          27 :   -21.5329451927551     
          28 :    21.1533695932496     
          29 :   -21.4401076559990     
          30 :    21.6759049269435     
          31 :   -31.9977617400669     
          32 :   -23.2064609560752     

     Forces acting on atoms (Ry/au):


     negative rho (up, down):  2.210E-03 0.000E+00
     atom    1 type  1   force =     0.00000000   -0.00058511    0.00069088
     atom    2 type  1   force =     0.00000000    0.00016098   -0.00070287
     atom    3 type  1   force =     0.00045480    0.00023872    0.00052517
     atom    4 type  1   force =    -0.00045480    0.00023872    0.00052517
     atom    5 type  1   force =     0.00049290   -0.00125116    0.00028484
     atom    6 type  1   force =    -0.00049289   -0.00125118    0.00028479
     atom    7 type  1   force =    -0.00000002    0.00015480    0.00286299
     atom    8 type  1   force =     0.00000001    0.00306897   -0.00117126
     atom    9 type  1   force =     0.00093884   -0.00043725   -0.00086787
     atom   10 type  1   force =    -0.00093871   -0.00043740   -0.00086798
     atom   11 type  1   force =    -0.00000015   -0.00042819    0.00007205
     atom   12 type  1   force =     0.00000012   -0.00102299   -0.00032143
     atom   13 type  2   force =    -0.00000013    0.00191105   -0.00124241
     atom   14 type  3   force =     0.00000002   -0.00035996   -0.00007209

     Total force =     0.003213     Total SCF correction =     0.000333
     SCF correction compared to forces is large: reduce conv_thr to get better values


     entering subroutine stress ...


     negative rho (up, down):  2.210E-03 0.000E+00
          total   stress  (Ry/bohr**3)                   (kbar)     P=   -4.70
  -0.00002201   0.00000000  -0.00000000         -3.24      0.00     -0.00
   0.00000000  -0.00004779  -0.00000001          0.00     -7.03     -0.00
  -0.00000000  -0.00000001  -0.00002610         -0.00     -0.00     -3.84


     bfgs converged in  10 scf cycles and   9 bfgs steps
     (criteria: energy <  1.0E+00, force <  1.9E-03)

     End of BFGS Geometry Optimization

     Final energy   =   -3593.5760659604 Ry
Begin final coordinates

ATOMIC_POSITIONS (crystal)
Ag1      0.166666667   0.166666667   0.402063960    0   0   0
Ag1      0.666666667   0.166666667   0.402063960    0   0   0
Ag1      0.166666667   0.666666667   0.402063960    0   0   0
Ag1      0.666666667   0.666666667   0.402063960    0   0   0
Ag1      0.833333333   0.333333333   0.500000000    0   0   0
Ag1      0.333333333   0.333333333   0.500000000    0   0   0
Ag1      0.833333333   0.833333333   0.500000000    0   0   0
Ag1      0.333333333   0.833333333   0.500000000    0   0   0
Ag1     -0.016614628  -0.002342950   0.597108319
Ag1      0.518957484  -0.002342829   0.597108334
Ag1      0.003313333   0.493373572   0.596679154
Ag1      0.497383099   0.505233648   0.596261853
O1       0.248515259   0.002969610   0.661082232
H1       0.250219066  -0.000438103   0.700181115
End final coordinates



     Writing output data file calc.save
 
     init_run     :     12.95s CPU     13.28s WALL (       1 calls)
     electrons    :   2551.33s CPU   2688.62s WALL (      10 calls)
     update_pot   :     30.03s CPU     31.74s WALL (       9 calls)
     forces       :    167.85s CPU    175.24s WALL (      10 calls)
     stress       :    508.64s CPU    545.55s WALL (      10 calls)

     Called by init_run:
     wfcinit      :      5.38s CPU      5.46s WALL (       1 calls)
     potinit      :      1.99s CPU      2.09s WALL (       1 calls)

     Called by electrons:
     c_bands      :   1110.95s CPU   1155.25s WALL (      80 calls)
     sum_band     :    459.02s CPU    485.01s WALL (      80 calls)
     v_of_rho     :    139.01s CPU    153.52s WALL (      85 calls)
     newd         :    392.47s CPU    397.67s WALL (      85 calls)
     mix_rho      :      4.30s CPU      4.43s WALL (      80 calls)
     vdW_energy   :     99.78s CPU    110.04s WALL (     445 calls)
     vdW_ffts     :    244.93s CPU    258.86s WALL (     910 calls)
     vdW_v        :     90.13s CPU     94.31s WALL (     445 calls)

     Called by c_bands:
     init_us_2    :      5.24s CPU      5.24s WALL (     905 calls)
     cegterg      :   1044.78s CPU   1070.80s WALL (     400 calls)

     Called by *egterg:
     h_psi        :    635.42s CPU    651.52s WALL (    1794 calls)
     s_psi        :     56.92s CPU     57.08s WALL (    1794 calls)
     g_psi        :      3.60s CPU      3.62s WALL (    1389 calls)
     cdiaghg      :    128.30s CPU    129.30s WALL (    1719 calls)

     Called by h_psi:
     add_vuspsi   :     58.08s CPU     58.26s WALL (    1794 calls)

     General routines
     calbec       :     93.54s CPU     95.77s WALL (    2294 calls)
     fft          :    373.88s CPU    404.85s WALL (   26669 calls)
     ffts         :      0.31s CPU      0.33s WALL (     165 calls)
     fftw         :    407.92s CPU    424.20s WALL (  295238 calls)
     interpolate  :      3.15s CPU      3.21s WALL (     165 calls)
     davcio       :      0.00s CPU      0.04s WALL (       5 calls)
 
     Parallel routines
     fft_scatter  :    455.57s CPU    500.58s WALL (  322072 calls)
 
     PWSCF        : 55m13.75s CPU    58m22.35s WALL

 
   This run was terminated on:  10:56:39  16Apr2018            

=------------------------------------------------------------------------------=
   JOB DONE.
=------------------------------------------------------------------------------=
Job  /afs/slac/g/suncat/bin/suncat-tsmpirun -x LD_LIBRARY_PATH -wdir /scratch/qe100450_VORxy pw.x -npool 4 -in pw.inp

TID   HOST_NAME   COMMAND_LINE            STATUS            TERMINATION_TIME
===== ========== ================  =======================  ===================
00000 suncat0278 pw.x -npool 4 -i  Done                     04/16/2018 10:56:39
00001 suncat0278 pw.x -npool 4 -i  Done                     04/16/2018 10:56:39
00002 suncat0278 pw.x -npool 4 -i  Done                     04/16/2018 10:56:39
00003 suncat0278 pw.x -npool 4 -i  Done                     04/16/2018 10:56:39
00004 suncat0278 pw.x -npool 4 -i  Done                     04/16/2018 10:56:39
00005 suncat0278 pw.x -npool 4 -i  Done                     04/16/2018 10:56:39
00006 suncat0278 pw.x -npool 4 -i  Done                     04/16/2018 10:56:39
00007 suncat0278 pw.x -npool 4 -i  Done                     04/16/2018 10:56:39
00008 suncat0247 pw.x -npool 4 -i  Done                     04/16/2018 10:56:39
00009 suncat0247 pw.x -npool 4 -i  Done                     04/16/2018 10:56:39
00010 suncat0247 pw.x -npool 4 -i  Done                     04/16/2018 10:56:39
00011 suncat0247 pw.x -npool 4 -i  Done                     04/16/2018 10:56:39
00012 suncat0247 pw.x -npool 4 -i  Done                     04/16/2018 10:56:39
00013 suncat0247 pw.x -npool 4 -i  Done                     04/16/2018 10:56:39
00014 suncat0247 pw.x -npool 4 -i  Done                     04/16/2018 10:56:39
00015 suncat0247 pw.x -npool 4 -i  Done                     04/16/2018 10:56:39
00016 suncat0208 pw.x -npool 4 -i  Done                     04/16/2018 10:56:39
00017 suncat0208 pw.x -npool 4 -i  Done                     04/16/2018 10:56:39
00018 suncat0208 pw.x -npool 4 -i  Done                     04/16/2018 10:56:39
00019 suncat0208 pw.x -npool 4 -i  Done                     04/16/2018 10:56:39
00020 suncat0208 pw.x -npool 4 -i  Done                     04/16/2018 10:56:39
00021 suncat0208 pw.x -npool 4 -i  Done                     04/16/2018 10:56:39
00022 suncat0208 pw.x -npool 4 -i  Done                     04/16/2018 10:56:39
00023 suncat0208 pw.x -npool 4 -i  Done                     04/16/2018 10:56:39
00024 suncat0203 pw.x -npool 4 -i  Done                     04/16/2018 10:56:39
00025 suncat0203 pw.x -npool 4 -i  Done                     04/16/2018 10:56:39
00026 suncat0203 pw.x -npool 4 -i  Done                     04/16/2018 10:56:39
00027 suncat0203 pw.x -npool 4 -i  Done                     04/16/2018 10:56:39
00028 suncat0203 pw.x -npool 4 -i  Done                     04/16/2018 10:56:39
00029 suncat0203 pw.x -npool 4 -i  Done                     04/16/2018 10:56:39
00030 suncat0203 pw.x -npool 4 -i  Done                     04/16/2018 10:56:39
00031 suncat0203 pw.x -npool 4 -i  Done                     04/16/2018 10:56:39
