  python dir          : /u/if/mamunm/src/espresso
  espresso dir        : /nfs/slac/g/suncatfs/sw/espv18/espresso-dynpy-beef/bin
  pseudo dir          : /u/if/mamunm/psp/gbrv1.5pbe
  ase-espresso py git : GITVERSION



     Program PWSCF v.5.1rc2 (svn rev. 11289) starts on 23Apr2018 at  9:40:25 

     This program is part of the open-source Quantum ESPRESSO suite
     for quantum simulation of materials; please cite
         "P. Giannozzi et al., J. Phys.:Condens. Matter 21 395502 (2009);
          URL http://www.quantum-espresso.org", 
     in publications or presentations arising from this work. More details at
     http://www.quantum-espresso.org/quote

     Parallel version (MPI), running on    36 processors
     K-points division:     npool     =       3
     R & G space division:  proc/nbgrp/npool/nimage =      12
     Reading input from pw.inp
     Message from routine read_cards :
     DEPRECATED: no units specified in CELL_PARAMETERS card

     Current dimensions of program PWSCF are:
     Max number of different atomic species (ntypx) = 10
     Max number of k-points (npk) =  40000
     Max angular momentum in pseudopotentials (lmaxx) =  3
     Presently stress not available with electric field


     **************************************************************************
     Initializing libbeef V0.1.1 with the BEEF-vdW functional.
     Citation: Wellendorff et al., PRB 85, 235149 (2012).
     **************************************************************************


     IMPORTANT: XC functional enforced from input :
     Exchange-correlation      = BEEF-VDW ( 1  4 27 13 2)
     Any further DFT definition will be discarded
     Please, verify this is what you really want


     Subspace diagonalization in iterative solution of the eigenvalue problem:
     a serial algorithm will be used

 
     Parallelization info
     --------------------
     sticks:   dense  smooth     PW     G-vecs:    dense   smooth      PW
     Min         269     107     31                51421    12993    2025
     Max         271     108     33                51431    13027    2039
     Sum        3241    1285    379               617075   156145   24367
 


     bravais-lattice index     =            0
     lattice parameter (alat)  =       1.8897  a.u.
     unit-cell volume          =    5185.0501 (a.u.)^3
     number of atoms/cell      =           16
     number of atomic types    =            3
     number of electrons       =       163.00
     number of Kohn-Sham states=           91
     kinetic-energy cutoff     =      36.7493  Ry
     charge density cutoff     =     367.4932  Ry
     convergence threshold     =      1.0E-05
     mixing beta               =       0.3000
     number of iterations used =           10  plain     mixing
     Exchange-correlation      = BEEF-VDW ( 1  4 27 13 2)
     nstep                     =           50


     celldm(1)=   1.889726  celldm(2)=   0.000000  celldm(3)=   0.000000
     celldm(4)=   0.000000  celldm(5)=   0.000000  celldm(6)=   0.000000

     crystal axes: (cart. coord. in units of alat)
               a(1) = (   5.972022   0.000000   0.000000 )  
               a(2) = (   2.986011   5.171923   0.000000 )  
               a(3) = (   0.000000   0.000000  24.876136 )  

     reciprocal axes: (cart. coord. in units 2 pi/alat)
               b(1) = (  0.167447 -0.096676  0.000000 )  
               b(2) = (  0.000000  0.193352  0.000000 )  
               b(3) = (  0.000000  0.000000  0.040199 )  


     PseudoPot. # 1 for Ta read from file:
     /u/if/mamunm/psp/gbrv1.5pbe/Ta.UPF
     MD5 check sum: f8bbe9446314a3b8ea5d9f3e3836c939
     Pseudo is Ultrasoft + core correction, Zval = 13.0
     Generated by new atomic code, or converted to UPF format
     Using radial grid of  921 points,  7 beta functions with: 
                l(1) =   0
                l(2) =   0
                l(3) =   1
                l(4) =   1
                l(5) =   2
                l(6) =   2
                l(7) =   3
     Q(r) pseudized with  6 coefficients,  rinner =    1.300   1.300   1.300
                                                       1.300   1.300   1.300
                                                       1.300

     PseudoPot. # 2 for C  read from file:
     /u/if/mamunm/psp/gbrv1.5pbe/C.UPF
     MD5 check sum: d1aef80898a10debaa0f26306b886e00
     Pseudo is Ultrasoft + core correction, Zval =  4.0
     Generated by new atomic code, or converted to UPF format
     Using radial grid of  721 points,  4 beta functions with: 
                l(1) =   0
                l(2) =   0
                l(3) =   1
                l(4) =   1
     Q(r) pseudized with  8 coefficients,  rinner =    1.100   1.100   1.100


     PseudoPot. # 3 for H  read from file:
     /u/if/mamunm/psp/gbrv1.5pbe/H.UPF
     MD5 check sum: 761ae9a214b05c3daf00ab9f6b793d6f
     Pseudo is Ultrasoft, Zval =  1.0
     Generated by new atomic code, or converted to UPF format
     Using radial grid of  615 points,  2 beta functions with: 
                l(1) =   0
                l(2) =   0
     Q(r) pseudized with  8 coefficients,  rinner =    0.700

     vdW kernel table read from file vdW_kernel_table
     MD5 check sum: 095c7af220d748ca6e76c0b4c6cfb241

     atomic species   valence    mass     pseudopotential
        Ta1           13.00   180.94788     Ta( 1.00)
        C1             4.00    12.01100     C ( 1.00)
        H1             1.00     1.00800     H ( 1.00)

     No symmetry found



   Cartesian axes

     site n.     atom                  positions (alat units)
         1           Ta1 tau(   1) = (   1.4930055   0.8619871  10.0000000  )
         2           Ta1 tau(   2) = (   4.4790165   0.8619871  10.0000000  )
         3           Ta1 tau(   3) = (   2.9860110   3.4479485  10.0000000  )
         4           Ta1 tau(   4) = (   5.9720221   3.4479485  10.0000000  )
         5           Ta1 tau(   5) = (   5.9720221   1.7239743  12.4380678  )
         6           Ta1 tau(   6) = (   2.9860110   1.7239743  12.4380678  )
         7           Ta1 tau(   7) = (   7.4650276   4.3099357  12.4380678  )
         8           Ta1 tau(   8) = (   4.4790165   4.3099357  12.4380678  )
         9           Ta1 tau(   9) = (   0.0000000   0.0000000  14.8761356  )
        10           Ta1 tau(  10) = (   2.9860110   0.0000000  14.8761356  )
        11           Ta1 tau(  11) = (   1.4930055   2.5859614  14.8761356  )
        12           Ta1 tau(  12) = (   4.4790165   2.5859614  14.8761356  )
        13           C1  tau(  13) = (   0.0000000   0.0000000  16.9671356  )
        14           H1  tau(  14) = (   1.0900000   0.0000000  17.5971356  )
        15           H1  tau(  15) = (   5.5220221   0.8895000  17.5971356  )
        16           H1  tau(  16) = (   2.5360110   4.2824228  17.5971356  )

     number of k points=    20  Fermi-Dirac smearing, width (Ry)=  0.0110
                       cart. coord. in units 2pi/alat
        k(    1) = (   0.0000000   0.0000000   0.0000000), wk =   0.0555556
        k(    2) = (   0.0000000   0.0322253   0.0000000), wk =   0.1111111
        k(    3) = (   0.0000000   0.0644506   0.0000000), wk =   0.1111111
        k(    4) = (   0.0000000  -0.0966758   0.0000000), wk =   0.0555556
        k(    5) = (   0.0279079  -0.0161126   0.0000000), wk =   0.1111111
        k(    6) = (   0.0279079   0.0161126   0.0000000), wk =   0.1111111
        k(    7) = (   0.0279079   0.0483379   0.0000000), wk =   0.1111111
        k(    8) = (   0.0279079  -0.1127885   0.0000000), wk =   0.1111111
        k(    9) = (   0.0279079  -0.0805632   0.0000000), wk =   0.1111111
        k(   10) = (   0.0279079  -0.0483379   0.0000000), wk =   0.1111111
        k(   11) = (   0.0558158  -0.0322253   0.0000000), wk =   0.1111111
        k(   12) = (   0.0558158   0.0000000   0.0000000), wk =   0.1111111
        k(   13) = (   0.0558158   0.0322253   0.0000000), wk =   0.1111111
        k(   14) = (   0.0558158  -0.1289011   0.0000000), wk =   0.1111111
        k(   15) = (   0.0558158  -0.0966758   0.0000000), wk =   0.1111111
        k(   16) = (   0.0558158  -0.0644506   0.0000000), wk =   0.1111111
        k(   17) = (  -0.0837237   0.0483379   0.0000000), wk =   0.0555556
        k(   18) = (  -0.0837237   0.0805632   0.0000000), wk =   0.1111111
        k(   19) = (  -0.0837237   0.1127885   0.0000000), wk =   0.1111111
        k(   20) = (  -0.0837237  -0.0483379   0.0000000), wk =   0.0555556

     Dense  grid:   617075 G-vectors     FFT dimensions: (  72,  72, 288)

     Smooth grid:   156145 G-vectors     FFT dimensions: (  45,  45, 192)

     Largest allocated arrays     est. size (Mb)     dimensions
        Kohn-Sham Wavefunctions         2.32 Mb     (    1673,   91)
        NL pseudopotentials             8.02 Mb     (    1673,  314)
        Each V/rho on FFT grid          1.90 Mb     (  124416)
        Each G-vector array             0.39 Mb     (   51431)
        G-vector shells                 0.14 Mb     (   18336)
     Largest temporary arrays     est. size (Mb)     dimensions
        Auxiliary wavefunctions         9.29 Mb     (    1673,  364)
        Each subspace H/S matrix        2.02 Mb     (     364,  364)
        Each <psi_i|beta_j> matrix      0.44 Mb     (     314,   91)
        Arrays for rho mixing          18.98 Mb     (  124416,   10)

     Initial potential from superposition of free atoms
     Check: negative starting charge=   -1.121516

     starting charge  162.98659, renormalised to  163.00000

     negative rho (up, down):  1.122E+00 0.000E+00


     ************************************************************************
     *
     * You are using vdW-DF for exchange-correlation in this calculation.
     * Please cite the following three references that made this development
     * possible:
     *
     *   M. Dion, H. Rydberg, E. Schroder, D. C. Langreth, and
     *   B. I. Lundqvist, Phys. Rev. Lett. 92, 246401 (2004).
     *
     *   T. Thonhauser, V. R. Cooper, S. Li, A. Puzder, P. Hyldgaard, and
     *   D. C. Langreth, Phys. Rev. B 76, 125112 (2007).
     *
     *   G. Roman-Perez and J. M. Soler, Phys. Rev. Lett. 103, 096102 (2009).
     *
     *
     * If you are using vdW-DF2, please also cite:
     *
     *   K. Lee, E. D. Murray, L. Kong, B. I. Lundqvist, and
     *   D. C. Langreth, Phys. Rev. B 82, 081101(R) (2010).
     *
     *
     * If you are calculating the stress with vdW-DF, please also cite:
     *
     *   R. Sabatini, E. Kucukbenli, B. Kolb, T. Thonhauser, and
     *   S. de Gironcoli, J. Phys.: Condens. Matter 24, 424209 (2012).
     *
     ************************************************************************

     Carrying out vdW-DF run using the following parameters:

     Nqs =      20    Nr_points =    1024   r_max =   100.000
     q_mesh =
               0.00001000     0.04494208     0.09755937     0.15916263
               0.23128650     0.31572767     0.41458969     0.53033537
               0.66584808     0.82450364     1.01025438     1.22772762
               1.48234092     1.78043706     2.12944203     2.53805004
               3.01644009     3.57652955     4.23227104     5.00000000

     Gradients computed in reciprocal space

     ************************************************************************


 
     Adding external electric field

     Computed dipole along edir(3) : 
        Dipole               -0.0046 Ry au,         -0.0117 Debye
        Dipole field         -0.0000 Ry au
 
        Potential amp.        0.0010 Ry
        Total length         45.8339 bohr
 
     Starting wfc are  163 randomized atomic wfcs

     total cpu time spent up to now is       12.7 secs

     Self-consistent Calculation

     iteration #  1     ecut=    36.75 Ry     beta=0.30
     Davidson diagonalization with overlap
     ethr =  1.00E-02,  avg # of iterations =  2.0

     negative rho (up, down):  1.135E+00 0.000E+00
 
     Adding external electric field

     Computed dipole along edir(3) : 
        Dipole               -1.8010 Ry au,         -4.5776 Debye
        Dipole field         -0.0044 Ry au
 
        Potential amp.        0.4001 Ry
        Total length         45.8339 bohr
 

     total cpu time spent up to now is       30.3 secs

     total energy              =   -1731.51648058 Ry
     Harris-Foulkes estimate   =   -1734.00406600 Ry
     estimated scf accuracy    <       5.43461052 Ry

     iteration #  2     ecut=    36.75 Ry     beta=0.30
     Davidson diagonalization with overlap
     ethr =  3.33E-03,  avg # of iterations =  8.4

     negative rho (up, down):  1.136E+00 0.000E+00
 
     Adding external electric field

     Computed dipole along edir(3) : 
        Dipole                2.6428 Ry au,          6.7173 Debye
        Dipole field          0.0064 Ry au
 
        Potential amp.       -0.5871 Ry
        Total length         45.8339 bohr
 

     total cpu time spent up to now is       56.3 secs

     total energy              =   -1725.42948074 Ry
     Harris-Foulkes estimate   =   -1739.15320723 Ry
     estimated scf accuracy    <     250.60111711 Ry

     iteration #  3     ecut=    36.75 Ry     beta=0.30
     Davidson diagonalization with overlap
     ethr =  3.33E-03,  avg # of iterations = 10.7

     negative rho (up, down):  1.137E+00 0.000E+00
 
     Adding external electric field

     Computed dipole along edir(3) : 
        Dipole                0.0315 Ry au,          0.0801 Debye
        Dipole field          0.0001 Ry au
 
        Potential amp.       -0.0070 Ry
        Total length         45.8339 bohr
 

     total cpu time spent up to now is       87.6 secs

     total energy              =   -1727.56968357 Ry
     Harris-Foulkes estimate   =   -1738.89245818 Ry
     estimated scf accuracy    <     373.72007211 Ry

     iteration #  4     ecut=    36.75 Ry     beta=0.30
     Davidson diagonalization with overlap
     ethr =  3.33E-03,  avg # of iterations =  6.3

     negative rho (up, down):  1.146E+00 0.000E+00
 
     Adding external electric field

     Computed dipole along edir(3) : 
        Dipole                0.1367 Ry au,          0.3473 Debye
        Dipole field          0.0003 Ry au
 
        Potential amp.       -0.0304 Ry
        Total length         45.8339 bohr
 

     total cpu time spent up to now is      113.3 secs

     total energy              =   -1733.41799474 Ry
     Harris-Foulkes estimate   =   -1733.52108869 Ry
     estimated scf accuracy    <       0.57087893 Ry

     iteration #  5     ecut=    36.75 Ry     beta=0.30
     Davidson diagonalization with overlap
     ethr =  3.50E-04,  avg # of iterations =  4.4

     negative rho (up, down):  1.153E+00 0.000E+00
 
     Adding external electric field

     Computed dipole along edir(3) : 
        Dipole                0.0855 Ry au,          0.2173 Debye
        Dipole field          0.0002 Ry au
 
        Potential amp.       -0.0190 Ry
        Total length         45.8339 bohr
 

     total cpu time spent up to now is      134.8 secs

     total energy              =   -1733.43073563 Ry
     Harris-Foulkes estimate   =   -1733.47543883 Ry
     estimated scf accuracy    <       0.35965138 Ry

     iteration #  6     ecut=    36.75 Ry     beta=0.30
     Davidson diagonalization with overlap
     ethr =  2.21E-04,  avg # of iterations =  2.5

     negative rho (up, down):  1.161E+00 0.000E+00
 
     Adding external electric field

     Computed dipole along edir(3) : 
        Dipole                0.1065 Ry au,          0.2707 Debye
        Dipole field          0.0003 Ry au
 
        Potential amp.       -0.0237 Ry
        Total length         45.8339 bohr
 

     total cpu time spent up to now is      155.4 secs

     total energy              =   -1733.43656902 Ry
     Harris-Foulkes estimate   =   -1733.45026759 Ry
     estimated scf accuracy    <       0.10287528 Ry

     iteration #  7     ecut=    36.75 Ry     beta=0.30
     Davidson diagonalization with overlap
     ethr =  6.31E-05,  avg # of iterations =  4.5

     negative rho (up, down):  1.169E+00 0.000E+00
 
     Adding external electric field

     Computed dipole along edir(3) : 
        Dipole                0.1823 Ry au,          0.4635 Debye
        Dipole field          0.0004 Ry au
 
        Potential amp.       -0.0405 Ry
        Total length         45.8339 bohr
 

     total cpu time spent up to now is      175.9 secs

     total energy              =   -1733.43815524 Ry
     Harris-Foulkes estimate   =   -1733.44389958 Ry
     estimated scf accuracy    <       0.02839856 Ry

     iteration #  8     ecut=    36.75 Ry     beta=0.30
     Davidson diagonalization with overlap
     ethr =  1.74E-05,  avg # of iterations =  7.5

     negative rho (up, down):  1.172E+00 0.000E+00
 
     Adding external electric field

     Computed dipole along edir(3) : 
        Dipole                0.1535 Ry au,          0.3901 Debye
        Dipole field          0.0004 Ry au
 
        Potential amp.       -0.0341 Ry
        Total length         45.8339 bohr
 

     total cpu time spent up to now is      196.1 secs

     total energy              =   -1733.44015092 Ry
     Harris-Foulkes estimate   =   -1733.44094581 Ry
     estimated scf accuracy    <       0.01250816 Ry

     iteration #  9     ecut=    36.75 Ry     beta=0.30
     Davidson diagonalization with overlap
     ethr =  7.67E-06,  avg # of iterations =  3.0

     negative rho (up, down):  1.173E+00 0.000E+00
 
     Adding external electric field

     Computed dipole along edir(3) : 
        Dipole                0.1635 Ry au,          0.4155 Debye
        Dipole field          0.0004 Ry au
 
        Potential amp.       -0.0363 Ry
        Total length         45.8339 bohr
 

     total cpu time spent up to now is      213.7 secs

     total energy              =   -1733.44071855 Ry
     Harris-Foulkes estimate   =   -1733.44077501 Ry
     estimated scf accuracy    <       0.00178883 Ry

     iteration # 10     ecut=    36.75 Ry     beta=0.30
     Davidson diagonalization with overlap
     ethr =  1.10E-06,  avg # of iterations =  5.6

     negative rho (up, down):  1.174E+00 0.000E+00
 
     Adding external electric field

     Computed dipole along edir(3) : 
        Dipole                0.1644 Ry au,          0.4179 Debye
        Dipole field          0.0004 Ry au
 
        Potential amp.       -0.0365 Ry
        Total length         45.8339 bohr
 

     total cpu time spent up to now is      235.7 secs

     total energy              =   -1733.44092653 Ry
     Harris-Foulkes estimate   =   -1733.44090822 Ry
     estimated scf accuracy    <       0.00032723 Ry

     iteration # 11     ecut=    36.75 Ry     beta=0.30
     Davidson diagonalization with overlap
     ethr =  2.01E-07,  avg # of iterations =  4.4

     negative rho (up, down):  1.175E+00 0.000E+00
 
     Adding external electric field

     Computed dipole along edir(3) : 
        Dipole                0.1626 Ry au,          0.4134 Debye
        Dipole field          0.0004 Ry au
 
        Potential amp.       -0.0361 Ry
        Total length         45.8339 bohr
 

     total cpu time spent up to now is      257.3 secs

     total energy              =   -1733.44099182 Ry
     Harris-Foulkes estimate   =   -1733.44098076 Ry
     estimated scf accuracy    <       0.00010208 Ry

     iteration # 12     ecut=    36.75 Ry     beta=0.30
     Davidson diagonalization with overlap
     ethr =  6.26E-08,  avg # of iterations =  3.5

     negative rho (up, down):  1.175E+00 0.000E+00
 
     Adding external electric field

     Computed dipole along edir(3) : 
        Dipole                0.1644 Ry au,          0.4178 Debye
        Dipole field          0.0004 Ry au
 
        Potential amp.       -0.0365 Ry
        Total length         45.8339 bohr
 

     total cpu time spent up to now is      279.1 secs

     total energy              =   -1733.44100873 Ry
     Harris-Foulkes estimate   =   -1733.44100172 Ry
     estimated scf accuracy    <       0.00002989 Ry

     iteration # 13     ecut=    36.75 Ry     beta=0.30
     Davidson diagonalization with overlap
     ethr =  1.83E-08,  avg # of iterations =  3.6

     negative rho (up, down):  1.175E+00 0.000E+00
 
     Adding external electric field

     Computed dipole along edir(3) : 
        Dipole                0.1634 Ry au,          0.4153 Debye
        Dipole field          0.0004 Ry au
 
        Potential amp.       -0.0363 Ry
        Total length         45.8339 bohr
 

     total cpu time spent up to now is      301.1 secs

     total energy              =   -1733.44101540 Ry
     Harris-Foulkes estimate   =   -1733.44101448 Ry
     estimated scf accuracy    <       0.00001744 Ry

     iteration # 14     ecut=    36.75 Ry     beta=0.30
     Davidson diagonalization with overlap
     ethr =  1.07E-08,  avg # of iterations =  2.6

     negative rho (up, down):  1.175E+00 0.000E+00

     negative rho (up, down):  1.175E+00 0.000E+00

     negative rho (up, down):  1.175E+00 0.000E+00

     negative rho (up, down):  1.175E+00 0.000E+00

     negative rho (up, down):  1.175E+00 0.000E+00

     negative rho (up, down):  1.175E+00 0.000E+00

     negative rho (up, down):  1.175E+00 0.000E+00

     negative rho (up, down):  1.175E+00 0.000E+00

     negative rho (up, down):  1.175E+00 0.000E+00

     negative rho (up, down):  1.175E+00 0.000E+00

     negative rho (up, down):  1.175E+00 0.000E+00

     negative rho (up, down):  1.175E+00 0.000E+00

     negative rho (up, down):  1.175E+00 0.000E+00

     negative rho (up, down):  1.175E+00 0.000E+00

     negative rho (up, down):  1.175E+00 0.000E+00

     negative rho (up, down):  1.175E+00 0.000E+00

     negative rho (up, down):  1.175E+00 0.000E+00

     negative rho (up, down):  1.175E+00 0.000E+00

     negative rho (up, down):  1.175E+00 0.000E+00

     negative rho (up, down):  1.175E+00 0.000E+00

     negative rho (up, down):  1.175E+00 0.000E+00

     negative rho (up, down):  1.175E+00 0.000E+00

     negative rho (up, down):  1.175E+00 0.000E+00

     negative rho (up, down):  1.175E+00 0.000E+00

     negative rho (up, down):  1.175E+00 0.000E+00

     negative rho (up, down):  1.175E+00 0.000E+00

     negative rho (up, down):  1.175E+00 0.000E+00

     negative rho (up, down):  1.175E+00 0.000E+00

     negative rho (up, down):  1.175E+00 0.000E+00

     negative rho (up, down):  1.175E+00 0.000E+00

     negative rho (up, down):  1.175E+00 0.000E+00

     negative rho (up, down):  1.175E+00 0.000E+00

     negative rho (up, down):  1.175E+00 0.000E+00

     negative rho (up, down):  1.175E+00 0.000E+00

     negative rho (up, down):  1.175E+00 0.000E+00
 
     Adding external electric field

     Computed dipole along edir(3) : 
        Dipole                0.1549 Ry au,          0.3937 Debye
        Dipole field          0.0004 Ry au
 
        Potential amp.       -0.0344 Ry
        Total length         45.8339 bohr
 

     total cpu time spent up to now is      373.0 secs

     End of self-consistent calculation

          k = 0.0000 0.0000 0.0000 ( 19447 PWs)   bands (ev):

   -65.9917 -65.9699 -65.9459 -65.9433 -65.9134 -65.9133 -65.9089 -65.8718
   -65.8180 -65.7874 -65.7870 -65.7707 -32.6984 -32.6972 -32.6858 -32.6749
   -32.6441 -32.6431 -32.6145 -32.6018 -32.6012 -32.6001 -32.4211 -32.3323
   -32.3307 -32.2647 -32.2445 -32.2443 -32.1658 -32.1246 -32.0945 -32.0944
   -32.0591 -32.0328 -32.0327 -32.0319 -32.0071 -32.0066 -31.9448 -31.9381
   -31.9372 -31.9370 -31.8946 -31.8942 -31.8687 -31.8681 -31.7905 -31.7903
    -9.7259  -5.1247  -3.5526  -2.7354  -2.4671  -2.3681  -1.9469  -1.7067
    -1.6898  -1.6344  -1.5591  -1.5492  -1.1124  -0.8911  -0.8901  -0.7506
    -0.5843  -0.5789  -0.3815   0.5713   0.6869   0.7024   1.7250   1.8926
     1.9303   1.9354   2.1413   2.2601   2.3899   2.3944   2.7107   2.7108
     2.7159   2.9983   2.9987   3.0710   3.0727   3.0741   3.1101   3.1676
     3.1676   3.3114   3.4542

          k = 0.0000 0.0322 0.0000 ( 19481 PWs)   bands (ev):

   -65.9886 -65.9661 -65.9486 -65.9433 -65.9166 -65.9134 -65.9096 -65.8700
   -65.8175 -65.7901 -65.7870 -65.7707 -32.6727 -32.6654 -32.6601 -32.6477
   -32.6212 -32.6149 -32.5884 -32.5757 -32.5750 -32.5542 -32.4188 -32.3532
   -32.3410 -32.2772 -32.2366 -32.2354 -32.1627 -32.1440 -32.1153 -32.1007
   -32.0814 -32.0805 -32.0305 -32.0214 -31.9955 -31.9918 -31.9730 -31.9639
   -31.9576 -31.9406 -31.9286 -31.9083 -31.8930 -31.8802 -31.8375 -31.7995
    -9.7222  -4.8917  -3.3354  -2.7413  -2.3645  -2.2041  -1.9721  -1.7274
    -1.5571  -1.5274  -1.4391  -1.3700  -1.0056  -0.7558  -0.6458  -0.5690
    -0.4438  -0.4301  -0.2675   0.6170   0.7309   0.7354   1.6232   1.8693
     1.9651   1.9865   2.0189   2.1542   2.2043   2.2783   2.2906   2.6705
     2.8269   2.8677   2.9154   2.9232   2.9982   3.0172   3.0891   3.1376
     3.1540   3.1795   3.2214

          k = 0.0000 0.0645 0.0000 ( 19517 PWs)   bands (ev):

   -65.9803 -65.9561 -65.9555 -65.9433 -65.9268 -65.9134 -65.9100 -65.8663
   -65.8161 -65.7960 -65.7869 -65.7709 -32.6187 -32.6088 -32.5991 -32.5682
   -32.5621 -32.5444 -32.5241 -32.5126 -32.5101 -32.4276 -32.4179 -32.3778
   -32.3688 -32.3061 -32.2226 -32.2104 -32.2012 -32.1743 -32.1628 -32.1566
   -32.1384 -32.0996 -32.0665 -32.0551 -32.0396 -32.0329 -32.0003 -31.9982
   -31.9777 -31.9720 -31.9514 -31.9453 -31.9154 -31.9138 -31.9007 -31.8243
    -9.7150  -4.2433  -2.9143  -2.6202  -2.4255  -2.3464  -1.6715  -1.5027
    -1.3542  -1.2158  -1.1065  -0.9323  -0.7319  -0.5351  -0.0987  -0.0657
    -0.0094   0.0867   0.1421   0.7023   0.7905   0.8786   1.2132   1.4610
     1.4960   1.5854   1.7448   1.8905   2.1084   2.2161   2.2308   2.2716
     2.3118   2.3218   2.4166   2.5031   2.5994   2.6492   2.6899   2.9402
     2.9890   3.0499   3.2885

          k = 0.0000-0.0967 0.0000 ( 19532 PWs)   bands (ev):

   -65.9725 -65.9631 -65.9433 -65.9429 -65.9397 -65.9134 -65.9101 -65.8643
   -65.8148 -65.7996 -65.7870 -65.7710 -32.5777 -32.5629 -32.5562 -32.5474
   -32.5386 -32.5211 -32.4667 -32.4602 -32.4464 -32.4351 -32.3974 -32.3464
   -32.2970 -32.2723 -32.2552 -32.2464 -32.2425 -32.2320 -32.1921 -32.1830
   -32.1672 -32.1357 -32.1227 -32.0946 -32.0851 -32.0700 -32.0124 -31.9968
   -31.9915 -31.9746 -31.9628 -31.9497 -31.9452 -31.9258 -31.8780 -31.8479
    -9.7114  -3.3565  -3.3345  -2.8353  -2.3583  -2.0767  -1.8008  -1.2917
    -0.9960  -0.9055  -0.7773  -0.7322  -0.6437  -0.4588   0.2597   0.3285
     0.5128   0.5216   0.5236   0.5910   0.9237   0.9994   1.0729   1.1813
     1.1869   1.2437   1.5329   1.6074   1.6996   1.7235   1.7817   1.9366
     1.9598   2.0020   2.0558   2.1550   2.5155   2.5390   2.6278   2.6324
     2.8207   2.9871   3.5760

          k = 0.0279-0.0161 0.0000 ( 19481 PWs)   bands (ev):

   -65.9887 -65.9661 -65.9469 -65.9449 -65.9166 -65.9134 -65.9096 -65.8700
   -65.8176 -65.7898 -65.7873 -65.7707 -32.6716 -32.6668 -32.6597 -32.6478
   -32.6209 -32.6151 -32.5885 -32.5765 -32.5740 -32.5544 -32.4189 -32.3522
   -32.3421 -32.2771 -32.2366 -32.2353 -32.1627 -32.1441 -32.1153 -32.1008
   -32.0811 -32.0805 -32.0305 -32.0216 -31.9952 -31.9920 -31.9730 -31.9641
   -31.9577 -31.9408 -31.9285 -31.9080 -31.8934 -31.8796 -31.8376 -31.7994
    -9.7223  -4.8916  -3.3315  -2.7372  -2.3881  -2.1918  -1.9694  -1.7260
    -1.5624  -1.5276  -1.4328  -1.3753  -1.0037  -0.7560  -0.6458  -0.5694
    -0.4414  -0.4325  -0.2675   0.6170   0.7230   0.7422   1.6237   1.8703
     1.9710   1.9775   2.0224   2.1539   2.2054   2.2783   2.2918   2.6707
     2.8272   2.8685   2.9132   2.9229   2.9990   3.0184   3.0883   3.1364
     3.1543   3.1921   3.2151

          k = 0.0279 0.0161 0.0000 ( 19481 PWs)   bands (ev):

   -65.9886 -65.9661 -65.9474 -65.9444 -65.9166 -65.9133 -65.9096 -65.8700
   -65.8176 -65.7897 -65.7873 -65.7707 -32.6722 -32.6658 -32.6602 -32.6476
   -32.6204 -32.6158 -32.5884 -32.5761 -32.5743 -32.5544 -32.4189 -32.3523
   -32.3419 -32.2771 -32.2368 -32.2351 -32.1628 -32.1443 -32.1154 -32.1008
   -32.0811 -32.0804 -32.0304 -32.0216 -31.9954 -31.9919 -31.9728 -31.9640
   -31.9580 -31.9409 -31.9283 -31.9080 -31.8932 -31.8798 -31.8377 -31.7993
    -9.7223  -4.8916  -3.3314  -2.7370  -2.3881  -2.1923  -1.9726  -1.7170
    -1.5651  -1.5274  -1.4394  -1.3716  -1.0049  -0.7551  -0.6458  -0.5686
    -0.4410  -0.4334  -0.2676   0.6171   0.7227   0.7414   1.6238   1.8719
     1.9723   1.9823   2.0161   2.1524   2.2031   2.2792   2.2967   2.6708
     2.8273   2.8675   2.9141   2.9229   2.9974   3.0179   3.0909   3.1366
     3.1540   3.1853   3.2128

          k = 0.0279 0.0483 0.0000 ( 19485 PWs)   bands (ev):

   -65.9829 -65.9590 -65.9529 -65.9439 -65.9209 -65.9180 -65.9080 -65.8673
   -65.8164 -65.7947 -65.7868 -65.7708 -32.6353 -32.6313 -32.5947 -32.5912
   -32.5774 -32.5703 -32.5445 -32.5428 -32.4939 -32.4904 -32.4174 -32.3771
   -32.3620 -32.2970 -32.2250 -32.2204 -32.2050 -32.1936 -32.1473 -32.1048
   -32.0883 -32.0771 -32.0597 -32.0521 -32.0329 -32.0261 -31.9989 -31.9848
   -31.9713 -31.9535 -31.9420 -31.9356 -31.9291 -31.9058 -31.8874 -31.8228
    -9.7168  -4.4488  -2.9799  -2.6926  -2.3704  -2.0427  -1.9126  -1.7236
    -1.5020  -1.3055  -1.1214  -1.0402  -0.7676  -0.4802  -0.3925  -0.1682
    -0.1498  -0.1156   0.0041   0.6838   0.7827   0.8023   1.3949   1.6435
     1.6452   1.7071   1.7767   1.9594   2.0591   2.2480   2.3259   2.4066
     2.4241   2.4781   2.5670   2.5846   2.7101   2.8144   2.8381   2.8931
     3.1958   3.2328   3.2633

          k = 0.0279-0.1128 0.0000 ( 19521 PWs)   bands (ev):

   -65.9736 -65.9612 -65.9467 -65.9441 -65.9321 -65.9211 -65.9062 -65.8644
   -65.8140 -65.8010 -65.7863 -65.7711 -32.5848 -32.5678 -32.5435 -32.5335
   -32.5257 -32.5076 -32.4801 -32.4678 -32.4295 -32.4236 -32.3933 -32.3646
   -32.3507 -32.3292 -32.2922 -32.2677 -32.2094 -32.2056 -32.1865 -32.1747
   -32.1446 -32.1189 -32.1097 -32.0793 -32.0621 -32.0398 -32.0195 -32.0087
   -31.9957 -31.9798 -31.9666 -31.9500 -31.9374 -31.9208 -31.9058 -31.8591
    -9.7114  -3.6593  -2.8664  -2.6992  -2.3909  -2.1574  -1.8732  -1.5490
    -1.1630  -0.9190  -0.7808  -0.5430  -0.3912  -0.3085   0.1524   0.2915
     0.3449   0.3524   0.4395   0.7627   0.8451   0.8855   0.9819   1.1729
     1.2594   1.3246   1.4466   1.5183   1.6084   1.7135   1.8365   1.9367
     1.9785   2.0526   2.1706   2.2277   2.3680   2.5440   2.6737   2.8003
     3.0082   3.1190   3.4096

          k = 0.0279-0.0806 0.0000 ( 19521 PWs)   bands (ev):

   -65.9738 -65.9610 -65.9467 -65.9442 -65.9321 -65.9211 -65.9062 -65.8644
   -65.8140 -65.8010 -65.7863 -65.7711 -32.5849 -32.5675 -32.5428 -32.5340
   -32.5260 -32.5080 -32.4809 -32.4673 -32.4280 -32.4242 -32.3937 -32.3643
   -32.3507 -32.3295 -32.2921 -32.2675 -32.2102 -32.2053 -32.1862 -32.1749
   -32.1449 -32.1188 -32.1090 -32.0790 -32.0625 -32.0399 -32.0190 -32.0093
   -31.9963 -31.9794 -31.9671 -31.9500 -31.9364 -31.9215 -31.9055 -31.8592
    -9.7114  -3.6593  -2.8670  -2.6989  -2.3901  -2.1566  -1.8745  -1.5507
    -1.1623  -0.9179  -0.7792  -0.5444  -0.3918  -0.3078   0.1539   0.2858
     0.3460   0.3550   0.4382   0.7565   0.8514   0.8909   0.9806   1.1706
     1.2637   1.3182   1.4480   1.5169   1.6107   1.7166   1.8290   1.9370
     1.9783   2.0605   2.1673   2.2277   2.3658   2.5462   2.6692   2.8032
     3.0103   3.1150   3.4109

          k = 0.0279-0.0483 0.0000 ( 19485 PWs)   bands (ev):

   -65.9830 -65.9590 -65.9525 -65.9442 -65.9208 -65.9181 -65.9080 -65.8673
   -65.8164 -65.7947 -65.7868 -65.7708 -32.6353 -32.6310 -32.5955 -32.5913
   -32.5774 -32.5696 -32.5445 -32.5430 -32.4942 -32.4900 -32.4174 -32.3769
   -32.3621 -32.2969 -32.2249 -32.2207 -32.2046 -32.1937 -32.1470 -32.1049
   -32.0885 -32.0771 -32.0593 -32.0523 -32.0330 -32.0260 -31.9992 -31.9851
   -31.9711 -31.9537 -31.9418 -31.9355 -31.9291 -31.9060 -31.8870 -31.8229
    -9.7168  -4.4488  -2.9799  -2.6928  -2.3704  -2.0388  -1.9152  -1.7246
    -1.5057  -1.3030  -1.1212  -1.0391  -0.7658  -0.4820  -0.3939  -0.1672
    -0.1485  -0.1162   0.0026   0.6839   0.7849   0.8035   1.3948   1.6381
     1.6487   1.7061   1.7758   1.9594   2.0580   2.2436   2.3270   2.4076
     2.4245   2.4749   2.5657   2.5880   2.7119   2.8130   2.8510   2.8960
     3.1898   3.2275   3.2634

          k = 0.0558-0.0322 0.0000 ( 19517 PWs)   bands (ev):

   -65.9809 -65.9558 -65.9531 -65.9454 -65.9268 -65.9134 -65.9100 -65.8663
   -65.8162 -65.7956 -65.7873 -65.7709 -32.6189 -32.6080 -32.6000 -32.5673
   -32.5620 -32.5449 -32.5245 -32.5132 -32.5088 -32.4277 -32.4178 -32.3772
   -32.3697 -32.3061 -32.2231 -32.2102 -32.2014 -32.1741 -32.1630 -32.1560
   -32.1383 -32.1003 -32.0669 -32.0551 -32.0399 -32.0329 -32.0007 -31.9979
   -31.9782 -31.9719 -31.9514 -31.9446 -31.9155 -31.9138 -31.9001 -31.8241
    -9.7151  -4.2425  -2.8414  -2.6781  -2.4816  -2.3234  -1.6696  -1.4934
    -1.3530  -1.2181  -1.1042  -0.9342  -0.7292  -0.5356  -0.0985  -0.0647
    -0.0085   0.0844   0.1417   0.7026   0.7842   0.8832   1.2140   1.4650
     1.4901   1.5870   1.7486   1.8914   2.1092   2.2192   2.2292   2.2731
     2.3059   2.3199   2.4211   2.5049   2.6002   2.6546   2.6795   2.9432
     2.9872   3.0530   3.2940

          k = 0.0558 0.0000 0.0000 ( 19485 PWs)   bands (ev):

   -65.9832 -65.9590 -65.9506 -65.9458 -65.9208 -65.9180 -65.9080 -65.8673
   -65.8165 -65.7944 -65.7870 -65.7708 -32.6351 -32.6310 -32.5954 -32.5915
   -32.5766 -32.5701 -32.5446 -32.5428 -32.4947 -32.4896 -32.4174 -32.3762
   -32.3628 -32.2970 -32.2252 -32.2202 -32.2049 -32.1937 -32.1471 -32.1054
   -32.0883 -32.0774 -32.0592 -32.0521 -32.0332 -32.0263 -31.9990 -31.9853
   -31.9710 -31.9536 -31.9416 -31.9354 -31.9292 -31.9059 -31.8869 -31.8227
    -9.7169  -4.4483  -2.9352  -2.7458  -2.3727  -2.0407  -1.9128  -1.7192
    -1.4988  -1.3053  -1.1208  -1.0447  -0.7650  -0.4824  -0.3939  -0.1663
    -0.1511  -0.1150   0.0031   0.6837   0.7837   0.8004   1.3951   1.6400
     1.6461   1.7087   1.7821   1.9594   2.0569   2.2452   2.3307   2.4072
     2.4245   2.4804   2.5650   2.5865   2.7094   2.8215   2.8359   2.8944
     3.1992   3.2309   3.2636

          k = 0.0558 0.0322 0.0000 ( 19517 PWs)   bands (ev):

   -65.9808 -65.9558 -65.9537 -65.9449 -65.9268 -65.9133 -65.9101 -65.8663
   -65.8163 -65.7955 -65.7873 -65.7709 -32.6187 -32.6085 -32.5995 -32.5671
   -32.5625 -32.5447 -32.5242 -32.5129 -32.5092 -32.4280 -32.4177 -32.3775
   -32.3693 -32.3062 -32.2226 -32.2100 -32.2025 -32.1745 -32.1629 -32.1564
   -32.1381 -32.0997 -32.0669 -32.0549 -32.0395 -32.0331 -32.0004 -31.9983
   -31.9779 -31.9718 -31.9517 -31.9448 -31.9155 -31.9137 -31.9001 -31.8241
    -9.7151  -4.2424  -2.8408  -2.6777  -2.4851  -2.3211  -1.6677  -1.4928
    -1.3536  -1.2195  -1.1066  -0.9330  -0.7308  -0.5318  -0.0985  -0.0634
    -0.0100   0.0841   0.1418   0.7031   0.7822   0.8820   1.2134   1.4640
     1.4899   1.5877   1.7528   1.8912   2.1097   2.2184   2.2296   2.2715
     2.3062   2.3209   2.4200   2.5050   2.5993   2.6561   2.6822   2.9405
     2.9874   3.0505   3.2954

          k = 0.0558-0.1289 0.0000 ( 19521 PWs)   bands (ev):

   -65.9745 -65.9596 -65.9467 -65.9449 -65.9321 -65.9210 -65.9062 -65.8644
   -65.8142 -65.8007 -65.7864 -65.7711 -32.5849 -32.5679 -32.5428 -32.5336
   -32.5255 -32.5078 -32.4806 -32.4674 -32.4277 -32.4243 -32.3938 -32.3650
   -32.3505 -32.3294 -32.2931 -32.2677 -32.2098 -32.2055 -32.1859 -32.1746
   -32.1455 -32.1195 -32.1089 -32.0791 -32.0627 -32.0397 -32.0190 -32.0091
   -31.9959 -31.9794 -31.9670 -31.9499 -31.9372 -31.9207 -31.9055 -31.8590
    -9.7115  -3.6582  -2.8076  -2.7266  -2.4527  -2.1421  -1.8749  -1.5382
    -1.1640  -0.9175  -0.7798  -0.5446  -0.3907  -0.3035   0.1540   0.2875
     0.3454   0.3556   0.4358   0.7540   0.8508   0.8894   0.9801   1.1694
     1.2627   1.3190   1.4560   1.5126   1.6083   1.7159   1.8331   1.9373
     1.9805   2.0581   2.1706   2.2241   2.3633   2.5466   2.6691   2.8095
     3.0094   3.1129   3.4121

          k = 0.0558-0.0967 0.0000 ( 19521 PWs)   bands (ev):

   -65.9681 -65.9652 -65.9455 -65.9360 -65.9351 -65.9307 -65.9043 -65.8635
   -65.8105 -65.8060 -65.7857 -65.7712 -32.5553 -32.5381 -32.5196 -32.4944
   -32.4906 -32.4858 -32.4600 -32.4576 -32.4139 -32.3880 -32.3700 -32.3645
   -32.3352 -32.3200 -32.3172 -32.2937 -32.2912 -32.2907 -32.1894 -32.1770
   -32.1593 -32.1532 -32.1047 -32.0509 -32.0495 -32.0423 -32.0106 -32.0049
   -32.0013 -31.9984 -31.9704 -31.9636 -31.9589 -31.9181 -31.9063 -31.9058
    -9.7097  -2.8823  -2.8666  -2.7803  -2.6722  -2.4138  -1.7671  -1.3514
    -1.3307  -0.7708  -0.0984  -0.0713  -0.0660  -0.0394  -0.0079   0.0176
     0.6080   0.6222   0.6515   0.6554   0.7692   0.8184   0.8298   0.8402
     0.9756   0.9970   1.1832   1.5559   1.5569   1.5636   1.6356   1.6479
     1.7177   1.8404   2.1084   2.1229   2.1580   2.2635   2.9794   3.0500
     3.0637   3.3444   3.3858

          k = 0.0558-0.0645 0.0000 ( 19521 PWs)   bands (ev):

   -65.9748 -65.9589 -65.9468 -65.9453 -65.9321 -65.9211 -65.9062 -65.8644
   -65.8141 -65.8007 -65.7864 -65.7711 -32.5851 -32.5673 -32.5435 -32.5342
   -32.5249 -32.5079 -32.4803 -32.4681 -32.4281 -32.4236 -32.3939 -32.3643
   -32.3510 -32.3292 -32.2926 -32.2679 -32.2093 -32.2057 -32.1865 -32.1746
   -32.1445 -32.1187 -32.1098 -32.0797 -32.0624 -32.0398 -32.0198 -32.0087
   -31.9958 -31.9795 -31.9666 -31.9506 -31.9366 -31.9207 -31.9055 -31.8591
    -9.7115  -3.6583  -2.8090  -2.7248  -2.4524  -2.1437  -1.8741  -1.5386
    -1.1627  -0.9181  -0.7789  -0.5439  -0.3886  -0.3091   0.1510   0.2906
     0.3474   0.3524   0.4377   0.7594   0.8461   0.8885   0.9855   1.1713
     1.2601   1.3207   1.4492   1.5128   1.6087   1.7140   1.8416   1.9375
     1.9781   2.0517   2.1686   2.2266   2.3676   2.5429   2.6700   2.8049
     3.0111   3.1186   3.4152

          k =-0.0837 0.0483 0.0000 ( 19532 PWs)   bands (ev):

   -65.9748 -65.9588 -65.9455 -65.9429 -65.9396 -65.9134 -65.9101 -65.8643
   -65.8151 -65.7990 -65.7873 -65.7710 -32.5784 -32.5626 -32.5553 -32.5481
   -32.5371 -32.5217 -32.4676 -32.4581 -32.4470 -32.4344 -32.3986 -32.3461
   -32.2975 -32.2721 -32.2554 -32.2475 -32.2410 -32.2323 -32.1925 -32.1826
   -32.1671 -32.1361 -32.1235 -32.0950 -32.0850 -32.0697 -32.0134 -31.9963
   -31.9908 -31.9752 -31.9635 -31.9496 -31.9435 -31.9258 -31.8779 -31.8477
    -9.7115  -3.3555  -3.3248  -2.7720  -2.4743  -2.0841  -1.7636  -1.2900
    -0.9970  -0.9046  -0.7767  -0.7258  -0.6434  -0.4605   0.2584   0.3280
     0.5133   0.5220   0.5237   0.5932   0.9271   0.9915   1.0769   1.1818
     1.1868   1.2458   1.5348   1.6079   1.7030   1.7211   1.7812   1.9154
     1.9632   2.0029   2.0653   2.1548   2.5064   2.5403   2.6257   2.6322
     2.8269   2.9983   3.5754

          k =-0.0837 0.0806 0.0000 ( 19521 PWs)   bands (ev):

   -65.9751 -65.9580 -65.9469 -65.9457 -65.9321 -65.9211 -65.9062 -65.8644
   -65.8142 -65.8006 -65.7865 -65.7710 -32.5852 -32.5676 -32.5423 -32.5336
   -32.5257 -32.5081 -32.4809 -32.4677 -32.4279 -32.4239 -32.3943 -32.3641
   -32.3507 -32.3292 -32.2924 -32.2677 -32.2106 -32.2052 -32.1858 -32.1752
   -32.1448 -32.1190 -32.1094 -32.0797 -32.0629 -32.0396 -32.0190 -32.0091
   -31.9959 -31.9792 -31.9672 -31.9501 -31.9363 -31.9207 -31.9058 -31.8589
    -9.7115  -3.6564  -2.8103  -2.6883  -2.5109  -2.1288  -1.8680  -1.5393
    -1.1640  -0.9130  -0.7801  -0.5457  -0.3911  -0.3080   0.1532   0.2869
     0.3459   0.3543   0.4363   0.7540   0.8523   0.8898   0.9802   1.1725
     1.2618   1.3206   1.4521   1.5136   1.6103   1.7162   1.8332   1.9383
     1.9797   2.0603   2.1713   2.2265   2.3571   2.5448   2.6677   2.8079
     3.0127   3.1145   3.4182

          k =-0.0837 0.1128 0.0000 ( 19521 PWs)   bands (ev):

   -65.9749 -65.9585 -65.9469 -65.9454 -65.9321 -65.9210 -65.9062 -65.8644
   -65.8142 -65.8005 -65.7865 -65.7710 -32.5851 -32.5673 -32.5429 -32.5343
   -32.5252 -32.5077 -32.4803 -32.4677 -32.4283 -32.4239 -32.3938 -32.3643
   -32.3513 -32.3296 -32.2919 -32.2677 -32.2101 -32.2056 -32.1866 -32.1752
   -32.1449 -32.1192 -32.1093 -32.0793 -32.0620 -32.0397 -32.0194 -32.0089
   -31.9962 -31.9795 -31.9666 -31.9502 -31.9366 -31.9210 -31.9054 -31.8589
    -9.7115  -3.6564  -2.8085  -2.6902  -2.5118  -2.1283  -1.8669  -1.5378
    -1.1676  -0.9140  -0.7789  -0.5450  -0.3907  -0.3068   0.1512   0.2912
     0.3448   0.3520   0.4376   0.7596   0.8473   0.8852   0.9823   1.1729
     1.2598   1.3203   1.4525   1.5150   1.6086   1.7138   1.8435   1.9369
     1.9792   2.0531   2.1721   2.2274   2.3596   2.5426   2.6703   2.8089
     3.0099   3.1184   3.4159

          k =-0.0837-0.0483 0.0000 ( 19532 PWs)   bands (ev):

   -65.9744 -65.9597 -65.9449 -65.9428 -65.9397 -65.9134 -65.9101 -65.8643
   -65.8151 -65.7989 -65.7873 -65.7710 -32.5781 -32.5628 -32.5556 -32.5479
   -32.5376 -32.5212 -32.4669 -32.4587 -32.4469 -32.4346 -32.3978 -32.3466
   -32.2984 -32.2719 -32.2551 -32.2474 -32.2416 -32.2325 -32.1919 -32.1839
   -32.1674 -32.1360 -32.1225 -32.0946 -32.0853 -32.0697 -32.0127 -31.9967
   -31.9909 -31.9749 -31.9633 -31.9497 -31.9441 -31.9258 -31.8776 -31.8478
    -9.7115  -3.3554  -3.3246  -2.7729  -2.4742  -2.0832  -1.7623  -1.2929
    -0.9975  -0.9063  -0.7770  -0.7236  -0.6434  -0.4571   0.2589   0.3288
     0.5127   0.5220   0.5235   0.5914   0.9268   0.9914   1.0748   1.1800
     1.1869   1.2450   1.5345   1.6145   1.7019   1.7201   1.7818   1.9141
     1.9607   2.0043   2.0637   2.1567   2.5077   2.5416   2.6264   2.6332
     2.8346   2.9874   3.5755

     the Fermi energy is     2.3427 ev

!    total energy              =   -1733.44101497 Ry
     Harris-Foulkes estimate   =   -1733.44102296 Ry
     estimated scf accuracy    <       0.00000452 Ry

     The total energy is the sum of the following terms:

     one-electron contribution =  -11622.22522122 Ry
     hartree contribution      =    5797.64935187 Ry
     xc contribution           =    -528.68025997 Ry
     ewald contribution        =    4619.92320113 Ry
     electric field correction =       0.00005815 Ry
     smearing contrib. (-TS)   =      -0.10814491 Ry

     convergence has been achieved in  14 iterations
 
 BEEF-vdW xc energy contributions
           1 :   -465.218514760472     
           2 :    429.207777396846     
           3 :   -366.457307911707     
           4 :    291.562177599255     
           5 :   -219.038840147931     
           6 :    158.928339956722     
           7 :   -114.850890597048     
           8 :    84.8349522218975     
           9 :   -64.0302900871556     
          10 :    47.7329216631885     
          11 :   -33.3152309138878     
          12 :    20.4752186254029     
          13 :   -10.1851620155117     
          14 :    3.28055004321982     
          15 :   0.430686688972116     
          16 :   -2.16105645223638     
          17 :    3.43810081751008     
          18 :   -5.25474432825706     
          19 :    7.62020954068100     
          20 :   -9.74292610473486     
          21 :    10.6773660176980     
          22 :   -10.0077387658966     
          23 :    8.15247213085905     
          24 :   -6.13081257759524     
          25 :    4.96782152993632     
          26 :   -5.12073331694836     
          27 :    6.26903489554866     
          28 :   -7.56633907540839     
          29 :    8.16920999106441     
          30 :   -7.71045279151002     
          31 :   -41.7659089710667     
          32 :   -30.9662428817733     

     Forces acting on atoms (Ry/au):


     negative rho (up, down):  1.175E+00 0.000E+00
     atom    1 type  1   force =    -0.00043012   -0.00004741    0.00223304
     atom    2 type  1   force =     0.00029980   -0.00032046    0.00220939
     atom    3 type  1   force =     0.00010260    0.00042884    0.00217338
     atom    4 type  1   force =     0.00004963   -0.00003130    0.00116320
     atom    5 type  1   force =     0.00029080    0.00238349   -0.00594899
     atom    6 type  1   force =    -0.00004863   -0.00018423    0.00204178
     atom    7 type  1   force =    -0.00218769   -0.00113243   -0.00606563
     atom    8 type  1   force =     0.00219526   -0.00121178   -0.00607709
     atom    9 type  1   force =    -0.00047132    0.00023216    0.00779729
     atom   10 type  1   force =    -0.00042901    0.00073828   -0.02331465
     atom   11 type  1   force =     0.00080177    0.00136400   -0.02556190
     atom   12 type  1   force =     0.00009725   -0.00204452   -0.02581183
     atom   13 type  2   force =     0.04502448   -0.00017352    0.24844066
     atom   14 type  3   force =    -0.07893678   -0.00039125   -0.07017467
     atom   15 type  3   force =     0.01716197   -0.04421001   -0.05156598
     atom   16 type  3   force =     0.01647998    0.04460015   -0.05153797

     Total force =     0.294385     Total SCF correction =     0.001542


     entering subroutine stress ...


     negative rho (up, down):  1.175E+00 0.000E+00
          total   stress  (Ry/bohr**3)                   (kbar)     P=  -32.24
  -0.00031955  -0.00000034  -0.00001085        -47.01     -0.05     -1.60
  -0.00000034  -0.00031012  -0.00000007         -0.05    -45.62     -0.01
  -0.00001085  -0.00000007  -0.00002778         -1.60     -0.01     -4.09


     BFGS Geometry Optimization

     number of scf cycles    =   1
     number of bfgs steps    =   0

     energy   new            =   -1733.4410149656 Ry

     new trust radius        =       0.2524876115 bohr
     new conv_thr            =       0.0000099958 Ry


ATOMIC_POSITIONS (crystal)
Ta1      0.166666667   0.166666667   0.401991699    0   0   0
Ta1      0.666666667   0.166666667   0.401991699    0   0   0
Ta1      0.166666667   0.666666667   0.401991699    0   0   0
Ta1      0.666666667   0.666666667   0.401991699    0   0   0
Ta1      0.833333333   0.333333333   0.500000000    0   0   0
Ta1      0.333333333   0.333333333   0.500000000    0   0   0
Ta1      0.833333333   0.833333333   0.500000000    0   0   0
Ta1      0.333333333   0.833333333   0.500000000    0   0   0
Ta1     -0.000053640   0.000023754   0.598174169
Ta1      0.499924216   0.000075539   0.597512341
Ta1      0.000001264   0.500139561   0.597464536
Ta1      0.500113212   0.499790810   0.597459220
C1       0.003998468  -0.000017754   0.687349716
H1       0.175543222  -0.000040031   0.705897453
H1       0.842437911   0.167462876   0.706293306
H1       0.009820397   0.832577042   0.706293902



     Writing output data file calc.save
     Check: negative starting charge=   -1.121516
     NEW-OLD atomic charge density approx. for the potential
     Check: negative starting charge=   -1.121678

     negative rho (up, down):  1.176E+00 0.000E+00
 
     Adding external electric field

     Computed dipole along edir(3) : 
        Dipole                0.1548 Ry au,          0.3935 Debye
        Dipole field          0.0004 Ry au
 
        Potential amp.       -0.0344 Ry
        Total length         45.8339 bohr
 

     total cpu time spent up to now is      424.1 secs

     Self-consistent Calculation

     iteration #  1     ecut=    36.75 Ry     beta=0.30
     Davidson diagonalization with overlap
     ethr =  1.00E-06,  avg # of iterations =  6.8

     negative rho (up, down):  1.176E+00 0.000E+00
 
     Adding external electric field

     Computed dipole along edir(3) : 
        Dipole                0.1022 Ry au,          0.2598 Debye
        Dipole field          0.0002 Ry au
 
        Potential amp.       -0.0227 Ry
        Total length         45.8339 bohr
 

     total cpu time spent up to now is      451.8 secs

     total energy              =   -1733.48776282 Ry
     Harris-Foulkes estimate   =   -1733.50509478 Ry
     estimated scf accuracy    <       0.04300847 Ry

     iteration #  2     ecut=    36.75 Ry     beta=0.30
     Davidson diagonalization with overlap
     ethr =  2.64E-05,  avg # of iterations =  4.1

     negative rho (up, down):  1.176E+00 0.000E+00
 
     Adding external electric field

     Computed dipole along edir(3) : 
        Dipole               -0.1059 Ry au,         -0.2693 Debye
        Dipole field         -0.0003 Ry au
 
        Potential amp.        0.0235 Ry
        Total length         45.8339 bohr
 

     total cpu time spent up to now is      472.0 secs

     total energy              =   -1733.46971419 Ry
     Harris-Foulkes estimate   =   -1733.50134133 Ry
     estimated scf accuracy    <       0.58053342 Ry

     iteration #  3     ecut=    36.75 Ry     beta=0.30
     Davidson diagonalization with overlap
     ethr =  2.64E-05,  avg # of iterations =  7.2

     negative rho (up, down):  1.176E+00 0.000E+00
 
     Adding external electric field

     Computed dipole along edir(3) : 
        Dipole                0.0820 Ry au,          0.2084 Debye
        Dipole field          0.0002 Ry au
 
        Potential amp.       -0.0182 Ry
        Total length         45.8339 bohr
 

     total cpu time spent up to now is      494.0 secs

     total energy              =   -1733.46776504 Ry
     Harris-Foulkes estimate   =   -1733.51605080 Ry
     estimated scf accuracy    <       2.25035236 Ry

     iteration #  4     ecut=    36.75 Ry     beta=0.30
     Davidson diagonalization with overlap
     ethr =  2.64E-05,  avg # of iterations =  5.8

     negative rho (up, down):  1.176E+00 0.000E+00
 
     Adding external electric field

     Computed dipole along edir(3) : 
        Dipole                0.0896 Ry au,          0.2277 Debye
        Dipole field          0.0002 Ry au
 
        Potential amp.       -0.0199 Ry
        Total length         45.8339 bohr
 

     total cpu time spent up to now is      517.5 secs

     total energy              =   -1733.48612441 Ry
     Harris-Foulkes estimate   =   -1733.50004546 Ry
     estimated scf accuracy    <       0.14145378 Ry

     iteration #  5     ecut=    36.75 Ry     beta=0.30
     Davidson diagonalization with overlap
     ethr =  2.64E-05,  avg # of iterations =  3.0

     negative rho (up, down):  1.176E+00 0.000E+00
 
     Adding external electric field

     Computed dipole along edir(3) : 
        Dipole                0.0792 Ry au,          0.2012 Debye
        Dipole field          0.0002 Ry au
 
        Potential amp.       -0.0176 Ry
        Total length         45.8339 bohr
 

     total cpu time spent up to now is      537.7 secs

     total energy              =   -1733.49260824 Ry
     Harris-Foulkes estimate   =   -1733.49346265 Ry
     estimated scf accuracy    <       0.00370335 Ry

     iteration #  6     ecut=    36.75 Ry     beta=0.30
     Davidson diagonalization with overlap
     ethr =  2.27E-06,  avg # of iterations =  5.3

     negative rho (up, down):  1.176E+00 0.000E+00
 
     Adding external electric field

     Computed dipole along edir(3) : 
        Dipole                0.0754 Ry au,          0.1917 Debye
        Dipole field          0.0002 Ry au
 
        Potential amp.       -0.0168 Ry
        Total length         45.8339 bohr
 

     total cpu time spent up to now is      557.7 secs

     total energy              =   -1733.49301650 Ry
     Harris-Foulkes estimate   =   -1733.49322136 Ry
     estimated scf accuracy    <       0.00102730 Ry

     iteration #  7     ecut=    36.75 Ry     beta=0.30
     Davidson diagonalization with overlap
     ethr =  6.30E-07,  avg # of iterations =  3.3

     negative rho (up, down):  1.176E+00 0.000E+00
 
     Adding external electric field

     Computed dipole along edir(3) : 
        Dipole                0.0854 Ry au,          0.2171 Debye
        Dipole field          0.0002 Ry au
 
        Potential amp.       -0.0190 Ry
        Total length         45.8339 bohr
 

     total cpu time spent up to now is      575.2 secs

     total energy              =   -1733.49313512 Ry
     Harris-Foulkes estimate   =   -1733.49313553 Ry
     estimated scf accuracy    <       0.00015831 Ry

     iteration #  8     ecut=    36.75 Ry     beta=0.30
     Davidson diagonalization with overlap
     ethr =  9.71E-08,  avg # of iterations =  3.0

     negative rho (up, down):  1.176E+00 0.000E+00
 
     Adding external electric field

     Computed dipole along edir(3) : 
        Dipole                0.0844 Ry au,          0.2146 Debye
        Dipole field          0.0002 Ry au
 
        Potential amp.       -0.0188 Ry
        Total length         45.8339 bohr
 

     total cpu time spent up to now is      591.5 secs

     total energy              =   -1733.49315655 Ry
     Harris-Foulkes estimate   =   -1733.49315203 Ry
     estimated scf accuracy    <       0.00003969 Ry

     iteration #  9     ecut=    36.75 Ry     beta=0.30
     Davidson diagonalization with overlap
     ethr =  2.44E-08,  avg # of iterations =  2.1

     negative rho (up, down):  1.176E+00 0.000E+00

     negative rho (up, down):  1.176E+00 0.000E+00

     negative rho (up, down):  1.176E+00 0.000E+00

     negative rho (up, down):  1.176E+00 0.000E+00

     negative rho (up, down):  1.176E+00 0.000E+00

     negative rho (up, down):  1.176E+00 0.000E+00

     negative rho (up, down):  1.176E+00 0.000E+00

     negative rho (up, down):  1.176E+00 0.000E+00

     negative rho (up, down):  1.176E+00 0.000E+00

     negative rho (up, down):  1.176E+00 0.000E+00

     negative rho (up, down):  1.176E+00 0.000E+00

     negative rho (up, down):  1.176E+00 0.000E+00

     negative rho (up, down):  1.176E+00 0.000E+00

     negative rho (up, down):  1.176E+00 0.000E+00

     negative rho (up, down):  1.176E+00 0.000E+00

     negative rho (up, down):  1.176E+00 0.000E+00

     negative rho (up, down):  1.176E+00 0.000E+00

     negative rho (up, down):  1.176E+00 0.000E+00

     negative rho (up, down):  1.176E+00 0.000E+00

     negative rho (up, down):  1.176E+00 0.000E+00

     negative rho (up, down):  1.176E+00 0.000E+00

     negative rho (up, down):  1.176E+00 0.000E+00

     negative rho (up, down):  1.176E+00 0.000E+00

     negative rho (up, down):  1.176E+00 0.000E+00

     negative rho (up, down):  1.176E+00 0.000E+00

     negative rho (up, down):  1.176E+00 0.000E+00

     negative rho (up, down):  1.176E+00 0.000E+00

     negative rho (up, down):  1.176E+00 0.000E+00

     negative rho (up, down):  1.176E+00 0.000E+00

     negative rho (up, down):  1.176E+00 0.000E+00

     negative rho (up, down):  1.176E+00 0.000E+00

     negative rho (up, down):  1.176E+00 0.000E+00

     negative rho (up, down):  1.176E+00 0.000E+00

     negative rho (up, down):  1.176E+00 0.000E+00

     negative rho (up, down):  1.176E+00 0.000E+00
 
     Adding external electric field

     Computed dipole along edir(3) : 
        Dipole                0.0793 Ry au,          0.2015 Debye
        Dipole field          0.0002 Ry au
 
        Potential amp.       -0.0176 Ry
        Total length         45.8339 bohr
 

     total cpu time spent up to now is      656.1 secs

     End of self-consistent calculation

          k = 0.0000 0.0000 0.0000 ( 19447 PWs)   bands (ev):

   -66.0771 -66.0616 -66.0298 -66.0273 -66.0061 -66.0057 -65.9996 -65.9627
   -65.9150 -65.8850 -65.8846 -65.8842 -32.7933 -32.7925 -32.7801 -32.7712
   -32.7389 -32.7380 -32.7063 -32.6927 -32.6921 -32.6911 -32.5086 -32.4192
   -32.4173 -32.3531 -32.3354 -32.3349 -32.2379 -32.2125 -32.1893 -32.1891
   -32.1488 -32.1260 -32.1258 -32.1169 -32.1018 -32.1017 -32.0320 -32.0305
   -32.0304 -32.0282 -31.9890 -31.9886 -31.9616 -31.9611 -31.8857 -31.8854
   -10.0361  -5.2216  -3.6333  -3.0573  -2.8144  -2.5579  -1.8968  -1.8202
    -1.8149  -1.7050  -1.6616  -1.6581  -1.0385  -0.9796  -0.9783  -0.7658
    -0.6922  -0.6905  -0.1170   0.4818   0.5721   0.5781   1.6496   1.8066
     1.8377   1.8403   2.0550   2.1877   2.2963   2.2989   2.6104   2.6104
     2.6178   2.8990   2.8994   2.9627   2.9727   2.9734   3.0767   3.0773
     3.0793   3.2392   3.3533

          k = 0.0000 0.0322 0.0000 ( 19481 PWs)   bands (ev):

   -66.0738 -66.0579 -66.0325 -66.0273 -66.0091 -66.0058 -66.0005 -65.9607
   -65.9149 -65.8888 -65.8849 -65.8827 -32.7676 -32.7604 -32.7553 -32.7431
   -32.7159 -32.7097 -32.6805 -32.6666 -32.6659 -32.6450 -32.5068 -32.4414
   -32.4288 -32.3640 -32.3263 -32.3248 -32.2399 -32.2320 -32.2083 -32.1917
   -32.1754 -32.1718 -32.1224 -32.1102 -32.0882 -32.0860 -32.0624 -32.0577
   -32.0476 -32.0338 -32.0220 -32.0027 -31.9840 -31.9732 -31.9326 -31.8947
   -10.0331  -4.9873  -3.4183  -3.0535  -2.8152  -2.3005  -2.0001  -1.7298
    -1.6731  -1.6202  -1.5151  -1.4764  -0.9300  -0.7946  -0.7375  -0.6161
    -0.5502  -0.5394  -0.0755   0.5254   0.6137   0.6252   1.5417   1.7815
     1.8654   1.8814   1.9331   2.0592   2.1132   2.1850   2.2016   2.5799
     2.7388   2.7729   2.8137   2.8212   2.9128   2.9286   3.0311   3.0452
     3.0515   3.0852   3.1176

          k = 0.0000 0.0645 0.0000 ( 19517 PWs)   bands (ev):

   -66.0651 -66.0477 -66.0399 -66.0274 -66.0190 -66.0058 -66.0012 -65.9565
   -65.9144 -65.8946 -65.8849 -65.8827 -32.7136 -32.7039 -32.6941 -32.6625
   -32.6576 -32.6382 -32.6166 -32.6033 -32.6013 -32.5177 -32.5072 -32.4673
   -32.4592 -32.3902 -32.3111 -32.2988 -32.2873 -32.2668 -32.2553 -32.2491
   -32.2223 -32.1875 -32.1598 -32.1481 -32.1312 -32.1281 -32.0922 -32.0867
   -32.0704 -32.0647 -32.0455 -32.0410 -32.0058 -32.0018 -31.9949 -31.9196
   -10.0274  -4.3348  -3.1624  -2.8241  -2.7115  -2.5196  -1.6424  -1.5967
    -1.3694  -1.3236  -1.1138  -1.0352  -0.7460  -0.4381  -0.2006  -0.1663
    -0.0930  -0.0127   0.1388   0.6119   0.6785   0.7798   1.1226   1.3630
     1.3823   1.4870   1.6397   1.8150   2.0200   2.1183   2.1358   2.1844
     2.2087   2.2343   2.3205   2.4178   2.5125   2.5519   2.5700   2.8619
     2.8928   2.9739   3.2418

          k = 0.0000-0.0967 0.0000 ( 19532 PWs)   bands (ev):

   -66.0570 -66.0474 -66.0351 -66.0316 -66.0274 -66.0058 -66.0014 -65.9541
   -65.9139 -65.8977 -65.8849 -65.8829 -32.6724 -32.6583 -32.6522 -32.6407
   -32.6324 -32.6139 -32.5569 -32.5517 -32.5386 -32.5265 -32.4898 -32.4326
   -32.3819 -32.3635 -32.3450 -32.3341 -32.3328 -32.3199 -32.2870 -32.2720
   -32.2563 -32.2260 -32.2156 -32.1872 -32.1811 -32.1570 -32.1049 -32.0862
   -32.0845 -32.0674 -32.0533 -32.0435 -32.0419 -32.0100 -31.9696 -31.9447
   -10.0246  -3.4494  -3.4229  -3.1138  -2.8196  -2.0565  -1.9242  -1.1671
    -1.0990  -0.9194  -0.8537  -0.8168  -0.7438  -0.3448   0.1510   0.2504
     0.4172   0.4188   0.4246   0.5022   0.8311   0.8781   0.9627   1.0901
     1.0961   1.1723   1.4476   1.5091   1.6171   1.6198   1.6891   1.8007
     1.8669   1.9135   1.9528   2.0835   2.4162   2.4698   2.5353   2.5556
     2.7264   2.9099   3.4823

          k = 0.0279-0.0161 0.0000 ( 19481 PWs)   bands (ev):

   -66.0738 -66.0579 -66.0308 -66.0289 -66.0089 -66.0060 -66.0004 -65.9607
   -65.9148 -65.8890 -65.8846 -65.8828 -32.7670 -32.7612 -32.7552 -32.7431
   -32.7157 -32.7098 -32.6805 -32.6673 -32.6649 -32.6452 -32.5068 -32.4402
   -32.4301 -32.3640 -32.3268 -32.3243 -32.2400 -32.2322 -32.2083 -32.1918
   -32.1754 -32.1715 -32.1223 -32.1105 -32.0880 -32.0861 -32.0623 -32.0578
   -32.0479 -32.0341 -32.0219 -32.0025 -31.9843 -31.9728 -31.9328 -31.8944
   -10.0332  -4.9872  -3.4126  -3.0581  -2.8189  -2.2987  -2.0005  -1.7284
    -1.6740  -1.6192  -1.5151  -1.4781  -0.9295  -0.7953  -0.7371  -0.6160
    -0.5495  -0.5402  -0.0754   0.5255   0.6102   0.6279   1.5420   1.7818
     1.8684   1.8772   1.9348   2.0591   2.1135   2.1856   2.2015   2.5802
     2.7385   2.7739   2.8123   2.8211   2.9134   2.9294   3.0303   3.0400
     3.0519   3.0983   3.1138

          k = 0.0279 0.0161 0.0000 ( 19481 PWs)   bands (ev):

   -66.0738 -66.0579 -66.0314 -66.0283 -66.0090 -66.0059 -66.0004 -65.9607
   -65.9149 -65.8888 -65.8849 -65.8827 -32.7674 -32.7606 -32.7554 -32.7431
   -32.7152 -32.7104 -32.6804 -32.6669 -32.6653 -32.6452 -32.5068 -32.4404
   -32.4298 -32.3640 -32.3269 -32.3243 -32.2400 -32.2323 -32.2083 -32.1917
   -32.1754 -32.1715 -32.1223 -32.1105 -32.0883 -32.0860 -32.0623 -32.0578
   -32.0479 -32.0339 -32.0218 -32.0026 -31.9842 -31.9729 -31.9328 -31.8945
   -10.0332  -4.9872  -3.4126  -3.0580  -2.8192  -2.2988  -1.9980  -1.7298
    -1.6759  -1.6205  -1.5150  -1.4761  -0.9295  -0.7951  -0.7370  -0.6160
    -0.5492  -0.5407  -0.0758   0.5252   0.6091   0.6295   1.5422   1.7829
     1.8687   1.8795   1.9311   2.0584   2.1133   2.1879   2.2021   2.5799
     2.7390   2.7727   2.8131   2.8213   2.9123   2.9293   3.0302   3.0506
     3.0517   3.0840   3.1107

          k = 0.0279 0.0483 0.0000 ( 19485 PWs)   bands (ev):

   -66.0678 -66.0509 -66.0369 -66.0279 -66.0135 -66.0097 -65.9995 -65.9576
   -65.9144 -65.8935 -65.8847 -65.8827 -32.7305 -32.7261 -32.6901 -32.6862
   -32.6718 -32.6649 -32.6358 -32.6345 -32.5841 -32.5813 -32.5062 -32.4665
   -32.4512 -32.3819 -32.3137 -32.3091 -32.2949 -32.2851 -32.2260 -32.1960
   -32.1826 -32.1674 -32.1510 -32.1445 -32.1257 -32.1190 -32.0889 -32.0770
   -32.0635 -32.0460 -32.0360 -32.0305 -32.0219 -31.9953 -31.9803 -31.9181
   -10.0288  -4.5417  -3.1615  -2.9217  -2.7940  -2.0582  -2.0162  -1.8209
    -1.4683  -1.4062  -1.1728  -1.1033  -0.6917  -0.5792  -0.3929  -0.2730
    -0.2533  -0.1995   0.0459   0.5904   0.6735   0.7018   1.3064   1.5415
     1.5446   1.6033   1.6646   1.8833   1.9720   2.1547   2.2260   2.3210
     2.3341   2.3771   2.4845   2.4899   2.6184   2.7125   2.7322   2.8032
     3.1244   3.1427   3.1823

          k = 0.0279-0.1128 0.0000 ( 19521 PWs)   bands (ev):

   -66.0582 -66.0454 -66.0388 -66.0282 -66.0243 -66.0129 -65.9979 -65.9543
   -65.9130 -65.8991 -65.8843 -65.8830 -32.6796 -32.6630 -32.6387 -32.6275
   -32.6199 -32.6012 -32.5721 -32.5599 -32.5198 -32.5142 -32.4852 -32.4547
   -32.4392 -32.4160 -32.3815 -32.3560 -32.3008 -32.2941 -32.2755 -32.2653
   -32.2342 -32.2122 -32.1961 -32.1728 -32.1527 -32.1324 -32.1098 -32.1014
   -32.0893 -32.0738 -32.0577 -32.0421 -32.0315 -32.0103 -31.9960 -31.9547
   -10.0246  -3.7475  -3.1451  -2.8536  -2.7679  -2.2011  -1.9487  -1.5808
    -1.1216  -1.0205  -0.6874  -0.6247  -0.4874  -0.2811   0.0587   0.1897
     0.2464   0.2597   0.3556   0.6609   0.7447   0.7839   0.8904   1.0709
     1.1659   1.2263   1.3454   1.4148   1.5257   1.6206   1.7448   1.8457
     1.8887   1.9696   2.0844   2.1330   2.2668   2.4587   2.5822   2.7078
     2.9259   3.0343   3.3424

          k = 0.0279-0.0806 0.0000 ( 19521 PWs)   bands (ev):

   -66.0583 -66.0451 -66.0388 -66.0283 -66.0243 -66.0129 -65.9979 -65.9543
   -65.9129 -65.8992 -65.8842 -65.8830 -32.6797 -32.6628 -32.6381 -32.6280
   -32.6200 -32.6016 -32.5729 -32.5593 -32.5186 -32.5147 -32.4857 -32.4544
   -32.4390 -32.4162 -32.3814 -32.3559 -32.3013 -32.2940 -32.2753 -32.2656
   -32.2344 -32.2120 -32.1955 -32.1724 -32.1534 -32.1323 -32.1092 -32.1018
   -32.0898 -32.0735 -32.0583 -32.0418 -32.0312 -32.0103 -31.9960 -31.9547
   -10.0246  -3.7475  -3.1453  -2.8539  -2.7672  -2.2010  -1.9497  -1.5812
    -1.1203  -1.0198  -0.6880  -0.6242  -0.4880  -0.2820   0.0614   0.1861
     0.2454   0.2642   0.3538   0.6565   0.7483   0.7874   0.8886   1.0684
     1.1685   1.2230   1.3462   1.4149   1.5279   1.6224   1.7398   1.8465
     1.8889   1.9746   2.0795   2.1326   2.2667   2.4605   2.5794   2.7106
     2.9270   3.0311   3.3417

          k = 0.0279-0.0483 0.0000 ( 19485 PWs)   bands (ev):

   -66.0679 -66.0509 -66.0365 -66.0283 -66.0134 -66.0098 -65.9994 -65.9576
   -65.9143 -65.8936 -65.8845 -65.8828 -32.7301 -32.7263 -32.6908 -32.6862
   -32.6720 -32.6641 -32.6361 -32.6345 -32.5844 -32.5810 -32.5062 -32.4663
   -32.4514 -32.3819 -32.3136 -32.3095 -32.2945 -32.2853 -32.2259 -32.1960
   -32.1828 -32.1675 -32.1506 -32.1445 -32.1257 -32.1190 -32.0890 -32.0774
   -32.0633 -32.0464 -32.0359 -32.0305 -32.0218 -31.9950 -31.9803 -31.9181
   -10.0288  -4.5417  -3.1614  -2.9219  -2.7937  -2.0587  -2.0171  -1.8211
    -1.4677  -1.4048  -1.1704  -1.1058  -0.6917  -0.5804  -0.3921  -0.2720
    -0.2532  -0.2018   0.0478   0.5904   0.6773   0.6976   1.3060   1.5378
     1.5468   1.6023   1.6648   1.8842   1.9701   2.1528   2.2278   2.3220
     2.3344   2.3745   2.4815   2.4951   2.6219   2.7119   2.7371   2.8037
     3.1260   3.1383   3.1720

          k = 0.0558-0.0322 0.0000 ( 19517 PWs)   bands (ev):

   -66.0656 -66.0477 -66.0373 -66.0294 -66.0189 -66.0061 -66.0010 -65.9565
   -65.9142 -65.8949 -65.8846 -65.8828 -32.7136 -32.7036 -32.6946 -32.6618
   -32.6573 -32.6385 -32.6169 -32.6039 -32.6001 -32.5179 -32.5071 -32.4666
   -32.4602 -32.3903 -32.3121 -32.2982 -32.2876 -32.2667 -32.2556 -32.2487
   -32.2222 -32.1879 -32.1602 -32.1479 -32.1313 -32.1279 -32.0923 -32.0863
   -32.0707 -32.0652 -32.0457 -32.0404 -32.0057 -32.0019 -31.9946 -31.9192
   -10.0274  -4.3342  -3.1038  -2.9280  -2.6762  -2.5160  -1.6424  -1.5924
    -1.3692  -1.3239  -1.1147  -1.0359  -0.7449  -0.4378  -0.2003  -0.1658
    -0.0929  -0.0140   0.1390   0.6113   0.6767   0.7811   1.1225   1.3643
     1.3794   1.4873   1.6414   1.8167   2.0203   2.1209   2.1353   2.1855
     2.2041   2.2335   2.3231   2.4184   2.5128   2.5545   2.5648   2.8645
     2.8931   2.9761   3.2441

          k = 0.0558 0.0000 0.0000 ( 19485 PWs)   bands (ev):

   -66.0681 -66.0509 -66.0348 -66.0298 -66.0132 -66.0100 -65.9994 -65.9576
   -65.9143 -65.8937 -65.8844 -65.8828 -32.7300 -32.7263 -32.6905 -32.6865
   -32.6714 -32.6647 -32.6360 -32.6343 -32.5848 -32.5807 -32.5063 -32.4654
   -32.4521 -32.3820 -32.3142 -32.3088 -32.2949 -32.2853 -32.2259 -32.1963
   -32.1826 -32.1678 -32.1504 -32.1444 -32.1261 -32.1190 -32.0888 -32.0773
   -32.0634 -32.0465 -32.0355 -32.0307 -32.0219 -31.9951 -31.9801 -31.9179
   -10.0289  -4.5414  -3.0699  -3.0537  -2.7563  -2.0585  -2.0168  -1.8192
    -1.4671  -1.4063  -1.1729  -1.1048  -0.6910  -0.5804  -0.3929  -0.2721
    -0.2538  -0.2004   0.0466   0.5902   0.6740   0.7002   1.3065   1.5390
     1.5449   1.6045   1.6674   1.8840   1.9707   2.1533   2.2301   2.3213
     2.3341   2.3774   2.4815   2.4941   2.6188   2.7162   2.7298   2.8035
     3.1262   3.1431   3.1770

          k = 0.0558 0.0322 0.0000 ( 19517 PWs)   bands (ev):

   -66.0655 -66.0477 -66.0381 -66.0288 -66.0190 -66.0059 -66.0011 -65.9565
   -65.9143 -65.8947 -65.8849 -65.8827 -32.7136 -32.7039 -32.6942 -32.6616
   -32.6581 -32.6383 -32.6166 -32.6036 -32.6005 -32.5181 -32.5070 -32.4669
   -32.4597 -32.3904 -32.3113 -32.2982 -32.2888 -32.2669 -32.2554 -32.2487
   -32.2221 -32.1880 -32.1600 -32.1478 -32.1311 -32.1282 -32.0921 -32.0866
   -32.0704 -32.0649 -32.0458 -32.0407 -32.0057 -32.0019 -31.9946 -31.9194
   -10.0274  -4.3342  -3.1038  -2.9281  -2.6773  -2.5141  -1.6429  -1.5931
    -1.3698  -1.3248  -1.1131  -1.0353  -0.7445  -0.4390  -0.1999  -0.1659
    -0.0929  -0.0143   0.1381   0.6124   0.6745   0.7821   1.1230   1.3638
     1.3795   1.4890   1.6453   1.8140   2.0212   2.1192   2.1357   2.1844
     2.2055   2.2347   2.3221   2.4195   2.5124   2.5543   2.5666   2.8613
     2.8934   2.9741   3.2445

          k = 0.0558-0.1289 0.0000 ( 19521 PWs)   bands (ev):

   -66.0589 -66.0439 -66.0388 -66.0290 -66.0242 -66.0130 -65.9978 -65.9543
   -65.9129 -65.8991 -65.8843 -65.8830 -32.6797 -32.6631 -32.6382 -32.6276
   -32.6196 -32.6013 -32.5725 -32.5594 -32.5184 -32.5147 -32.4856 -32.4550
   -32.4391 -32.4159 -32.3822 -32.3561 -32.3008 -32.2946 -32.2747 -32.2653
   -32.2348 -32.2127 -32.1955 -32.1726 -32.1532 -32.1321 -32.1093 -32.1015
   -32.0896 -32.0734 -32.0581 -32.0419 -32.0316 -32.0102 -31.9960 -31.9546
   -10.0246  -3.7464  -3.1089  -2.9108  -2.7559  -2.1973  -1.9498  -1.5776
    -1.1213  -1.0197  -0.6864  -0.6254  -0.4864  -0.2825   0.0611   0.1862
     0.2461   0.2627   0.3534   0.6553   0.7476   0.7873   0.8897   1.0682
     1.1691   1.2224   1.3529   1.4119   1.5242   1.6223   1.7419   1.8466
     1.8903   1.9729   2.0851   2.1292   2.2653   2.4624   2.5796   2.7125
     2.9258   3.0296   3.3417

          k = 0.0558-0.0967 0.0000 ( 19521 PWs)   bands (ev):

   -66.0522 -66.0495 -66.0301 -66.0284 -66.0274 -66.0219 -65.9960 -65.9532
   -65.9104 -65.9034 -65.8837 -65.8832 -32.6500 -32.6333 -32.6143 -32.5883
   -32.5849 -32.5798 -32.5540 -32.5507 -32.5029 -32.4782 -32.4586 -32.4529
   -32.4180 -32.4126 -32.4097 -32.3844 -32.3840 -32.3808 -32.2759 -32.2673
   -32.2520 -32.2457 -32.1876 -32.1448 -32.1417 -32.1295 -32.1026 -32.0948
   -32.0940 -32.0916 -32.0647 -32.0581 -32.0508 -32.0126 -32.0020 -31.9928
   -10.0232  -3.1477  -2.9636  -2.8937  -2.8186  -2.7652  -1.6446  -1.4593
    -1.4508  -0.4606  -0.2007  -0.1750  -0.1551  -0.1483  -0.1185  -0.0517
     0.4978   0.5260   0.5425   0.5465   0.6746   0.7210   0.7342   0.7396
     0.8661   0.8830   1.1378   1.4657   1.4663   1.4765   1.5321   1.5446
     1.6263   1.7875   2.0167   2.0257   2.0656   2.1781   2.8787   2.9487
     2.9877   3.2804   3.2972

          k = 0.0558-0.0645 0.0000 ( 19521 PWs)   bands (ev):

   -66.0592 -66.0432 -66.0388 -66.0295 -66.0241 -66.0130 -65.9978 -65.9543
   -65.9127 -65.8994 -65.8840 -65.8831 -32.6798 -32.6627 -32.6385 -32.6280
   -32.6192 -32.6014 -32.5722 -32.5602 -32.5186 -32.5140 -32.4858 -32.4545
   -32.4395 -32.4159 -32.3817 -32.3564 -32.3006 -32.2947 -32.2751 -32.2655
   -32.2342 -32.2122 -32.1958 -32.1729 -32.1532 -32.1322 -32.1098 -32.1011
   -32.0893 -32.0736 -32.0579 -32.0423 -32.0313 -32.0102 -31.9959 -31.9544
   -10.0246  -3.7464  -3.1089  -2.9097  -2.7575  -2.1974  -1.9495  -1.5768
    -1.1216  -1.0201  -0.6892  -0.6231  -0.4865  -0.2810   0.0588   0.1895
     0.2465   0.2612   0.3543   0.6594   0.7449   0.7859   0.8902   1.0687
     1.1659   1.2242   1.3458   1.4133   1.5283   1.6209   1.7468   1.8464
     1.8876   1.9695   2.0795   2.1340   2.2677   2.4585   2.5802   2.7111
     2.9284   3.0355   3.3451

          k =-0.0837 0.0483 0.0000 ( 19532 PWs)   bands (ev):

   -66.0591 -66.0434 -66.0353 -66.0312 -66.0294 -66.0061 -66.0012 -65.9542
   -65.9136 -65.8982 -65.8846 -65.8830 -32.6731 -32.6584 -32.6511 -32.6412
   -32.6312 -32.6143 -32.5577 -32.5499 -32.5391 -32.5256 -32.4910 -32.4327
   -32.3826 -32.3633 -32.3450 -32.3342 -32.3328 -32.3205 -32.2875 -32.2718
   -32.2566 -32.2260 -32.2153 -32.1877 -32.1806 -32.1573 -32.1058 -32.0851
   -32.0843 -32.0678 -32.0539 -32.0439 -32.0405 -32.0099 -31.9701 -31.9439
   -10.0246  -3.4357  -3.4220  -3.0821  -2.8813  -2.0574  -1.9120  -1.1673
    -1.0992  -0.9191  -0.8523  -0.8167  -0.7434  -0.3441   0.1502   0.2506
     0.4172   0.4185   0.4262   0.5016   0.8315   0.8743   0.9656   1.0909
     1.0966   1.1696   1.4495   1.5081   1.6144   1.6247   1.6890   1.7916
     1.8690   1.9129   1.9563   2.0823   2.4136   2.4697   2.5347   2.5548
     2.7274   2.9224   3.4638

          k =-0.0837 0.0806 0.0000 ( 19521 PWs)   bands (ev):

   -66.0595 -66.0424 -66.0388 -66.0299 -66.0241 -66.0131 -65.9978 -65.9543
   -65.9127 -65.8994 -65.8840 -65.8831 -32.6799 -32.6629 -32.6378 -32.6275
   -32.6197 -32.6015 -32.5727 -32.5596 -32.5184 -32.5142 -32.4863 -32.4544
   -32.4392 -32.4161 -32.3817 -32.3562 -32.3015 -32.2945 -32.2745 -32.2658
   -32.2346 -32.2124 -32.1955 -32.1726 -32.1539 -32.1321 -32.1092 -32.1015
   -32.0893 -32.0735 -32.0583 -32.0421 -32.0310 -32.0102 -31.9961 -31.9543
   -10.0246  -3.7446  -3.1017  -2.9121  -2.7702  -2.1911  -1.9490  -1.5787
    -1.1222  -1.0182  -0.6874  -0.6253  -0.4873  -0.2809   0.0608   0.1866
     0.2453   0.2620   0.3538   0.6553   0.7486   0.7881   0.8874   1.0699
     1.1675   1.2230   1.3483   1.4136   1.5286   1.6228   1.7402   1.8473
     1.8891   1.9746   2.0827   2.1327   2.2613   2.4599   2.5791   2.7130
     2.9286   3.0322   3.3462

          k =-0.0837 0.1128 0.0000 ( 19521 PWs)   bands (ev):

   -66.0593 -66.0429 -66.0388 -66.0296 -66.0242 -66.0130 -65.9978 -65.9543
   -65.9128 -65.8992 -65.8842 -65.8830 -32.6798 -32.6627 -32.6380 -32.6283
   -32.6194 -32.6013 -32.5723 -32.5596 -32.5188 -32.5144 -32.4857 -32.4544
   -32.4395 -32.4163 -32.3815 -32.3560 -32.3013 -32.2944 -32.2755 -32.2659
   -32.2342 -32.2122 -32.1957 -32.1729 -32.1531 -32.1321 -32.1095 -32.1013
   -32.0893 -32.0737 -32.0578 -32.0423 -32.0311 -32.0102 -31.9960 -31.9544
   -10.0246  -3.7446  -3.1015  -2.9123  -2.7702  -2.1913  -1.9490  -1.5785
    -1.1217  -1.0184  -0.6883  -0.6241  -0.4871  -0.2827   0.0586   0.1892
     0.2468   0.2601   0.3542   0.6593   0.7449   0.7837   0.8908   1.0702
     1.1668   1.2244   1.3499   1.4145   1.5246   1.6205   1.7499   1.8458
     1.8885   1.9706   2.0839   2.1322   2.2625   2.4594   2.5810   2.7134
     2.9264   3.0333   3.3432

          k =-0.0837-0.0483 0.0000 ( 19532 PWs)   bands (ev):

   -66.0587 -66.0444 -66.0352 -66.0314 -66.0288 -66.0060 -66.0012 -65.9542
   -65.9138 -65.8978 -65.8849 -65.8829 -32.6728 -32.6583 -32.6516 -32.6412
   -32.6316 -32.6139 -32.5571 -32.5505 -32.5390 -32.5260 -32.4901 -32.4328
   -32.3833 -32.3630 -32.3448 -32.3340 -32.3332 -32.3207 -32.2874 -32.2719
   -32.2570 -32.2260 -32.2153 -32.1874 -32.1809 -32.1569 -32.1051 -32.0853
   -32.0846 -32.0674 -32.0538 -32.0438 -32.0410 -32.0099 -31.9697 -31.9444
   -10.0246  -3.4350  -3.4225  -3.0829  -2.8805  -2.0581  -1.9115  -1.1674
    -1.0994  -0.9187  -0.8510  -0.8165  -0.7438  -0.3465   0.1509   0.2490
     0.4174   0.4183   0.4251   0.5032   0.8312   0.8744   0.9636   1.0896
     1.0960   1.1751   1.4490   1.5164   1.6125   1.6198   1.6893   1.7887
     1.8678   1.9153   1.9556   2.0859   2.4190   2.4687   2.5367   2.5544
     2.7353   2.9036   3.4636

     the Fermi energy is     2.2509 ev

!    total energy              =   -1733.49315971 Ry
     Harris-Foulkes estimate   =   -1733.49316081 Ry
     estimated scf accuracy    <       0.00000847 Ry

     The total energy is the sum of the following terms:

     one-electron contribution =  -11617.76428887 Ry
     hartree contribution      =    5794.96264824 Ry
     xc contribution           =    -528.83150406 Ry
     ewald contribution        =    4618.24812469 Ry
     electric field correction =       0.00001523 Ry
     smearing contrib. (-TS)   =      -0.10815495 Ry

     convergence has been achieved in   9 iterations
 
 BEEF-vdW xc energy contributions
           1 :   -465.346949272219     
           2 :    429.301263449320     
           3 :   -366.513424448520     
           4 :    291.602974049175     
           5 :   -219.086437884005     
           6 :    158.993383026653     
           7 :   -114.933231933065     
           8 :    84.9282061534331     
           9 :   -64.1261924961865     
          10 :    47.8247505547854     
          11 :   -33.3997334852073     
          12 :    20.5527807964011     
          13 :   -10.2593498666935     
          14 :    3.35612372529630     
          15 :   0.351260560386947     
          16 :   -2.07873052436372     
          17 :    3.35596331297501     
          18 :   -5.17715905226561     
          19 :    7.55207494632629     
          20 :   -9.68868008625469     
          21 :    10.6398391678113     
          22 :   -9.98673918620108     
          23 :    8.14388207517487     
          24 :   -6.12701787903273     
          25 :    4.95997186813082     
          26 :   -5.10247400413402     
          27 :    6.23956626722401     
          28 :   -7.53034966583806     
          29 :    8.13363010110805     
          30 :   -7.68014053639894     
          31 :   -41.7739740782050     
          32 :   -30.9678382832906     

     Forces acting on atoms (Ry/au):


     negative rho (up, down):  1.176E+00 0.000E+00
     atom    1 type  1   force =    -0.00010321    0.00003684    0.00202607
     atom    2 type  1   force =     0.00003330   -0.00013978    0.00204137
     atom    3 type  1   force =     0.00008850    0.00011000    0.00199873
     atom    4 type  1   force =     0.00005202    0.00000807    0.00081557
     atom    5 type  1   force =     0.00041551    0.00055923   -0.00751859
     atom    6 type  1   force =     0.00002603   -0.00014704   -0.00194833
     atom    7 type  1   force =    -0.00052749   -0.00027888   -0.00752144
     atom    8 type  1   force =     0.00063165   -0.00018030   -0.00735595
     atom    9 type  1   force =    -0.00128566    0.00010754    0.06256328
     atom   10 type  1   force =    -0.00023086   -0.00010108   -0.02049098
     atom   11 type  1   force =    -0.00005596    0.00125600   -0.02155249
     atom   12 type  1   force =     0.00031283   -0.00113414   -0.02166819
     atom   13 type  2   force =     0.03858130   -0.00000038    0.03998657
     atom   14 type  3   force =    -0.01686435   -0.00028799   -0.01830086
     atom   15 type  3   force =    -0.01023331    0.01081035   -0.00158803
     atom   16 type  3   force =    -0.01084028   -0.01061845   -0.00148672

     Total force =     0.097140     Total SCF correction =     0.008512


     entering subroutine stress ...


     negative rho (up, down):  1.176E+00 0.000E+00
          total   stress  (Ry/bohr**3)                   (kbar)     P=  -28.41
  -0.00028126  -0.00000002  -0.00000627        -41.37     -0.00     -0.92
  -0.00000002  -0.00027079  -0.00000008         -0.00    -39.84     -0.01
  -0.00000627  -0.00000008  -0.00002730         -0.92     -0.01     -4.02


     number of scf cycles    =   2
     number of bfgs steps    =   1

     energy   old            =   -1733.4410149656 Ry
     energy   new            =   -1733.4931597092 Ry

     CASE: energy  _new < energy  _old

     new trust radius        =       0.0929264729 bohr
     new conv_thr            =       0.0000001000 Ry


ATOMIC_POSITIONS (crystal)
Ta1      0.166666667   0.166666667   0.401991699    0   0   0
Ta1      0.666666667   0.166666667   0.401991699    0   0   0
Ta1      0.166666667   0.666666667   0.401991699    0   0   0
Ta1      0.666666667   0.666666667   0.401991699    0   0   0
Ta1      0.833333333   0.333333333   0.500000000    0   0   0
Ta1      0.333333333   0.333333333   0.500000000    0   0   0
Ta1      0.833333333   0.833333333   0.500000000    0   0   0
Ta1      0.333333333   0.833333333   0.500000000    0   0   0
Ta1     -0.000204665   0.000039830   0.599807624
Ta1      0.499896971   0.000071668   0.596926630
Ta1     -0.000082550   0.500311476   0.596845945
Ta1      0.500230220   0.499626024   0.596837032
C1       0.008604632  -0.000019840   0.688988435
H1       0.172947489  -0.000080372   0.705253788
H1       0.841101451   0.168285161   0.706126363
H1       0.009219840   0.831783159   0.706129641



     Writing output data file calc.save
     Check: negative starting charge=   -1.121678
     NEW-OLD atomic charge density approx. for the potential
     Check: negative starting charge=   -1.122002

     negative rho (up, down):  1.175E+00 0.000E+00
 
     Adding external electric field

     Computed dipole along edir(3) : 
        Dipole                0.0793 Ry au,          0.2015 Debye
        Dipole field          0.0002 Ry au
 
        Potential amp.       -0.0176 Ry
        Total length         45.8339 bohr
 

     total cpu time spent up to now is      707.0 secs

     Self-consistent Calculation

     iteration #  1     ecut=    36.75 Ry     beta=0.30
     Davidson diagonalization with overlap
     c_bands:  1 eigenvalues not converged
     ethr =  1.00E-06,  avg # of iterations =  9.3

     negative rho (up, down):  1.175E+00 0.000E+00
 
     Adding external electric field

     Computed dipole along edir(3) : 
        Dipole                0.2180 Ry au,          0.5541 Debye
        Dipole field          0.0005 Ry au
 
        Potential amp.       -0.0484 Ry
        Total length         45.8339 bohr
 

     total cpu time spent up to now is      736.6 secs

     total energy              =   -1733.49958670 Ry
     Harris-Foulkes estimate   =   -1733.50245707 Ry
     estimated scf accuracy    <       0.00720208 Ry

     iteration #  2     ecut=    36.75 Ry     beta=0.30
     Davidson diagonalization with overlap
     ethr =  4.42E-06,  avg # of iterations =  5.8

     negative rho (up, down):  1.175E+00 0.000E+00
 
     Adding external electric field

     Computed dipole along edir(3) : 
        Dipole                0.0503 Ry au,          0.1279 Debye
        Dipole field          0.0001 Ry au
 
        Potential amp.       -0.0112 Ry
        Total length         45.8339 bohr
 

[...]
    -0.2642  -0.1789   0.0061   0.4904   0.6546   0.7396   1.2084   1.2974
     1.4599   1.5136   1.5790   1.7106   1.8537   2.0659   2.0996   2.1913
     2.2572   2.3282   2.4089   2.4863   2.5071   2.5914   2.7379   2.7957
     2.9300   3.0161   3.1051

          k = 0.0558-0.0322 0.0000 ( 19517 PWs)   bands (ev):

   -66.1754 -66.1104 -66.0806 -66.0662 -66.0652 -66.0634 -66.0332 -66.0240
   -66.0060 -65.9862 -65.9815 -65.9541 -32.8003 -32.7827 -32.7787 -32.7422
   -32.7180 -32.7042 -32.6834 -32.6555 -32.6477 -32.5806 -32.5456 -32.5163
   -32.5127 -32.5029 -32.4052 -32.3758 -32.3617 -32.3283 -32.3238 -32.3106
   -32.3026 -32.2646 -32.2477 -32.2239 -32.1958 -32.1936 -32.1511 -32.1485
   -32.1278 -32.1238 -32.1077 -32.0962 -32.0691 -32.0503 -32.0460 -31.9824
   -10.0126  -4.3755  -3.1640  -3.1099  -2.7793  -2.5596  -1.7083  -1.6456
    -1.4155  -1.3575  -1.1585  -1.0751  -0.7817  -0.3642  -0.3045  -0.2577
    -0.1557   0.0437   0.0681   0.4923   0.6860   0.7602   1.0225   1.1985
     1.2734   1.3671   1.4814   1.7241   1.8553   1.8701   1.9682   2.1465
     2.1613   2.1905   2.3072   2.3498   2.3992   2.4760   2.6026   2.7211
     2.8688   3.0776   3.0894

          k = 0.0558 0.0000 0.0000 ( 19485 PWs)   bands (ev):

   -66.1757 -66.1138 -66.0735 -66.0728 -66.0652 -66.0622 -66.0316 -66.0234
   -66.0080 -65.9860 -65.9800 -65.9539 -32.8169 -32.8035 -32.7779 -32.7680
   -32.7320 -32.7267 -32.6994 -32.6803 -32.6352 -32.6328 -32.5466 -32.5137
   -32.5111 -32.4919 -32.4052 -32.3791 -32.3711 -32.3307 -32.3260 -32.2878
   -32.2661 -32.2425 -32.2208 -32.2043 -32.1852 -32.1826 -32.1637 -32.1409
   -32.1235 -32.1013 -32.0957 -32.0855 -32.0770 -32.0437 -32.0377 -31.9844
   -10.0137  -4.5839  -3.1609  -3.1115  -2.9567  -2.0919  -2.0607  -1.8894
    -1.5204  -1.4334  -1.2344  -1.1285  -0.7179  -0.6125  -0.3927  -0.3389
    -0.2664  -0.1765   0.0049   0.4890   0.6579   0.7407   1.2051   1.2988
     1.4578   1.5134   1.5806   1.7093   1.8643   2.0652   2.0957   2.1835
     2.2506   2.3315   2.4037   2.4800   2.5045   2.5919   2.7414   2.7921
     2.9286   3.0245   3.1065

          k = 0.0558 0.0322 0.0000 ( 19517 PWs)   bands (ev):

   -66.1754 -66.1104 -66.0806 -66.0660 -66.0655 -66.0627 -66.0353 -66.0220
   -66.0066 -65.9891 -65.9784 -65.9543 -32.7992 -32.7806 -32.7761 -32.7415
   -32.7192 -32.7061 -32.6827 -32.6543 -32.6491 -32.5806 -32.5463 -32.5194
   -32.5152 -32.5033 -32.4053 -32.3758 -32.3645 -32.3300 -32.3215 -32.3088
   -32.3000 -32.2661 -32.2495 -32.2238 -32.1956 -32.1945 -32.1521 -32.1498
   -32.1244 -32.1219 -32.1031 -32.0955 -32.0702 -32.0492 -32.0462 -31.9856
   -10.0126  -4.3753  -3.1645  -3.1094  -2.7800  -2.5565  -1.7031  -1.6506
    -1.4166  -1.3591  -1.1603  -1.0737  -0.7782  -0.3664  -0.3051  -0.2471
    -0.1511   0.0424   0.0656   0.4883   0.7033   0.7515   1.0226   1.1927
     1.2709   1.3680   1.4817   1.7082   1.8626   1.8742   1.9614   2.1447
     2.1702   2.1881   2.2980   2.3535   2.4058   2.4621   2.5831   2.7245
     2.8606   3.0895   3.1009

          k = 0.0558-0.1289 0.0000 ( 19521 PWs)   bands (ev):

   -66.1748 -66.1010 -66.0861 -66.0752 -66.0603 -66.0564 -66.0416 -66.0228
   -66.0016 -65.9921 -65.9799 -65.9546 -32.7613 -32.7434 -32.7226 -32.7008
   -32.6812 -32.6748 -32.6384 -32.6193 -32.5833 -32.5668 -32.5545 -32.5301
   -32.5010 -32.4911 -32.4431 -32.4303 -32.3924 -32.3633 -32.3415 -32.3238
   -32.3123 -32.2801 -32.2697 -32.2337 -32.2248 -32.2080 -32.1900 -32.1596
   -32.1506 -32.1330 -32.1063 -32.0948 -32.0789 -32.0648 -32.0456 -32.0201
   -10.0103  -3.7819  -3.1652  -3.1240  -2.8220  -2.2508  -1.9861  -1.6309
    -1.1786  -1.1115  -0.7606  -0.6438  -0.5353  -0.2173  -0.0259   0.0557
     0.1190   0.2059   0.3486   0.5064   0.6180   0.7009   0.8186   0.9625
     1.0276   1.1264   1.2005   1.3296   1.4080   1.5196   1.6457   1.7602
     1.8353   1.9045   2.0161   2.0807   2.2077   2.3802   2.6065   2.7074
     2.9284   3.1157   3.2865

          k = 0.0558-0.0967 0.0000 ( 19521 PWs)   bands (ev):

   -66.1745 -66.0885 -66.0881 -66.0876 -66.0583 -66.0506 -66.0468 -66.0243
   -65.9976 -65.9927 -65.9829 -65.9545 -32.7270 -32.7196 -32.7034 -32.6601
   -32.6493 -32.6456 -32.6338 -32.6222 -32.5744 -32.5345 -32.5252 -32.5194
   -32.4930 -32.4844 -32.4763 -32.4569 -32.4500 -32.4050 -32.3888 -32.3259
   -32.3241 -32.2863 -32.2684 -32.2200 -32.2177 -32.2156 -32.1816 -32.1742
   -32.1479 -32.1262 -32.1123 -32.1114 -32.0953 -32.0684 -32.0644 -32.0406
   -10.0092  -3.1592  -3.1571  -2.9363  -2.9178  -2.8325  -1.6048  -1.5768
    -1.5425  -0.4551  -0.4272  -0.3330  -0.2484  -0.2090  -0.0955   0.0171
     0.2843   0.4029   0.4135   0.4322   0.5068   0.5671   0.6985   0.7250
     0.8546   0.8851   0.9950   1.2976   1.3673   1.3930   1.3991   1.5364
     1.6974   1.7060   1.7667   1.9505   2.0182   2.3580   2.8529   2.8993
     2.9838   3.2217   3.3285

          k = 0.0558-0.0645 0.0000 ( 19521 PWs)   bands (ev):

   -66.1748 -66.1010 -66.0861 -66.0752 -66.0602 -66.0580 -66.0389 -66.0246
   -66.0012 -65.9891 -65.9829 -65.9544 -32.7630 -32.7475 -32.7239 -32.7040
   -32.6781 -32.6737 -32.6367 -32.6198 -32.5825 -32.5640 -32.5514 -32.5282
   -32.5009 -32.4919 -32.4437 -32.4301 -32.3927 -32.3631 -32.3378 -32.3238
   -32.3108 -32.2798 -32.2684 -32.2370 -32.2254 -32.2118 -32.1907 -32.1595
   -32.1486 -32.1344 -32.1093 -32.0949 -32.0819 -32.0624 -32.0480 -32.0152
   -10.0103  -3.7823  -3.1645  -3.1243  -2.8235  -2.2513  -1.9858  -1.6278
    -1.1798  -1.1153  -0.7590  -0.6445  -0.5403  -0.2118  -0.0346   0.0394
     0.1194   0.2137   0.3448   0.5090   0.6198   0.6997   0.8157   0.9566
     1.0443   1.1328   1.2091   1.3250   1.4156   1.5147   1.6476   1.7542
     1.8367   1.9014   2.0178   2.0856   2.2121   2.3785   2.6275   2.7139
     2.9394   3.0999   3.2727

          k =-0.0837 0.0483 0.0000 ( 19532 PWs)   bands (ev):

   -66.1748 -66.0958 -66.0953 -66.0662 -66.0652 -66.0582 -66.0391 -66.0240
   -66.0008 -65.9910 -65.9816 -65.9545 -32.7524 -32.7484 -32.7381 -32.7211
   -32.6832 -32.6821 -32.6113 -32.6104 -32.6072 -32.5752 -32.5571 -32.5252
   -32.4733 -32.4434 -32.4049 -32.3898 -32.3842 -32.3745 -32.3703 -32.3475
   -32.3215 -32.3115 -32.2739 -32.2601 -32.2438 -32.2262 -32.1729 -32.1692
   -32.1400 -32.1378 -32.1036 -32.0940 -32.0869 -32.0617 -32.0296 -32.0034
   -10.0103  -3.5119  -3.4051  -3.1647  -3.1123  -2.0540  -2.0186  -1.2165
    -1.1177  -1.0318  -0.9665  -0.8072  -0.7833  -0.2278   0.0230   0.1155
     0.2142   0.2736   0.4360   0.4873   0.7000   0.7896   0.7991   0.9553
     1.0197   1.0758   1.2628   1.3844   1.5542   1.5580   1.6361   1.6522
     1.7633   1.8759   1.9996   2.0572   2.1309   2.4272   2.4673   2.6413
     2.8853   3.2046   3.2523

          k =-0.0837 0.0806 0.0000 ( 19521 PWs)   bands (ev):

   -66.1748 -66.1010 -66.0861 -66.0752 -66.0603 -66.0578 -66.0393 -66.0243
   -66.0013 -65.9898 -65.9822 -65.9544 -32.7627 -32.7459 -32.7247 -32.7046
   -32.6790 -32.6731 -32.6368 -32.6188 -32.5827 -32.5642 -32.5526 -32.5281
   -32.5008 -32.4919 -32.4434 -32.4301 -32.3921 -32.3638 -32.3388 -32.3238
   -32.3123 -32.2803 -32.2696 -32.2347 -32.2243 -32.2099 -32.1911 -32.1595
   -32.1499 -32.1340 -32.1077 -32.0958 -32.0830 -32.0638 -32.0443 -32.0172
   -10.0103  -3.7823  -3.1648  -3.1239  -2.8234  -2.2508  -1.9854  -1.6291
    -1.1806  -1.1132  -0.7611  -0.6443  -0.5390  -0.2131  -0.0248   0.0412
     0.1110   0.2121   0.3480   0.5079   0.6214   0.7048   0.8152   0.9634
     1.0294   1.1319   1.1985   1.3350   1.4134   1.5182   1.6436   1.7636
     1.8374   1.9010   2.0178   2.0818   2.2090   2.3721   2.6268   2.7151
     2.9396   3.1033   3.2722

          k =-0.0837 0.1128 0.0000 ( 19521 PWs)   bands (ev):

   -66.1748 -66.1010 -66.0861 -66.0752 -66.0603 -66.0568 -66.0410 -66.0232
   -66.0013 -65.9920 -65.9802 -65.9546 -32.7618 -32.7448 -32.7218 -32.7003
   -32.6800 -32.6756 -32.6383 -32.6202 -32.5837 -32.5661 -32.5532 -32.5300
   -32.5011 -32.4910 -32.4436 -32.4303 -32.3931 -32.3627 -32.3407 -32.3236
   -32.3109 -32.2793 -32.2688 -32.2359 -32.2259 -32.2099 -32.1895 -32.1596
   -32.1497 -32.1334 -32.1075 -32.0941 -32.0784 -32.0634 -32.0488 -32.0183
   -10.0103  -3.7821  -3.1652  -3.1233  -2.8228  -2.2507  -1.9864  -1.6300
    -1.1775  -1.1134  -0.7584  -0.6441  -0.5369  -0.2161  -0.0361   0.0536
     0.1270   0.2079   0.3445   0.5075   0.6164   0.6964   0.8190   0.9565
     1.0432   1.1271   1.2121   1.3212   1.4091   1.5165   1.6504   1.7506
     1.8339   1.9052   2.0157   2.0839   2.2108   2.3873   2.6066   2.7071
     2.9276   3.1142   3.2844

          k =-0.0837-0.0483 0.0000 ( 19532 PWs)   bands (ev):

   -66.1748 -66.0956 -66.0954 -66.0660 -66.0654 -66.0562 -66.0423 -66.0220
   -66.0006 -65.9947 -65.9784 -65.9548 -32.7498 -32.7461 -32.7349 -32.7166
   -32.6847 -32.6829 -32.6131 -32.6108 -32.6081 -32.5804 -32.5619 -32.5274
   -32.4742 -32.4431 -32.4021 -32.3901 -32.3875 -32.3748 -32.3707 -32.3473
   -32.3222 -32.3078 -32.2754 -32.2620 -32.2408 -32.2266 -32.1729 -32.1676
   -32.1398 -32.1364 -32.1028 -32.0900 -32.0848 -32.0625 -32.0319 -32.0060
   -10.0103  -3.5103  -3.4057  -3.1647  -3.1118  -2.0552  -2.0192  -1.2155
    -1.1190  -1.0225  -0.9624  -0.8073  -0.7839  -0.2369   0.0245   0.1362
     0.2159   0.2675   0.4392   0.4871   0.6974   0.7826   0.7920   0.9722
     1.0190   1.0708   1.2517   1.3798   1.5483   1.5603   1.6443   1.6471
     1.7547   1.8760   2.0010   2.0460   2.1498   2.4309   2.4638   2.6100
     2.8679   3.2159   3.2722

     the Fermi energy is     2.1813 ev

!    total energy              =   -1733.53978005 Ry
     Harris-Foulkes estimate   =   -1733.53978001 Ry
     estimated scf accuracy    <       0.00000003 Ry

     The total energy is the sum of the following terms:

     one-electron contribution =  -11477.98721018 Ry
     hartree contribution      =    5724.76459120 Ry
     xc contribution           =    -528.80407504 Ry
     ewald contribution        =    4548.59042298 Ry
     electric field correction =       0.00000149 Ry
     smearing contrib. (-TS)   =      -0.10351049 Ry

     convergence has been achieved in   8 iterations
 
 BEEF-vdW xc energy contributions
           1 :   -465.316229841350     
           2 :    429.229823262209     
           3 :   -366.404243006690     
           4 :    291.484876539154     
           5 :   -218.984467995024     
           6 :    158.918832913106     
           7 :   -114.878643289966     
           8 :    84.8679924510367     
           9 :   -64.0293652816251     
          10 :    47.6750221335745     
          11 :   -33.2071629976777     
          12 :    20.3433751867967     
          13 :   -10.0485619828036     
          14 :    3.12916155405173     
          15 :   0.631655412347868     
          16 :   -2.43942188316129     
          17 :    3.78220579800700     
          18 :   -5.61057474889787     
          19 :    7.92309960004559     
          20 :   -9.96192204353298     
          21 :    10.8382644396534     
          22 :   -10.1752405239056     
          23 :    8.38334106684260     
          24 :   -6.43148909192752     
          25 :    5.28748674901203     
          26 :   -5.38533351087210     
          27 :    6.43152459365081     
          28 :   -7.63806881936932     
          29 :    8.21181271548278     
          30 :   -7.79401719488038     
          31 :   -41.7700271663571     
          32 :   -30.9534316528253     

     Forces acting on atoms (Ry/au):


     negative rho (up, down):  1.179E+00 0.000E+00
     atom    1 type  1   force =    -0.00239569   -0.00142984    0.00420904
     atom    2 type  1   force =     0.00246442   -0.00140880    0.00431790
     atom    3 type  1   force =     0.00028004    0.00281153    0.00427583
     atom    4 type  1   force =     0.00015066    0.00000835    0.00231338
     atom    5 type  1   force =     0.00102509   -0.01942684    0.00303352
     atom    6 type  1   force =     0.00021733   -0.00010326   -0.02357606
     atom    7 type  1   force =     0.01697613    0.01018616    0.00366125
     atom    8 type  1   force =    -0.01654321    0.00927716    0.00268595
     atom    9 type  1   force =    -0.00055398    0.00000709   -0.00142339
     atom   10 type  1   force =     0.00016612   -0.00014928   -0.00024835
     atom   11 type  1   force =    -0.00066220   -0.00006858   -0.00032976
     atom   12 type  1   force =    -0.00036433    0.00033107   -0.00049591
     atom   13 type  2   force =    -0.00007488   -0.00001185    0.00127066
     atom   14 type  3   force =    -0.00062935    0.00011681   -0.00014217
     atom   15 type  3   force =    -0.00012817    0.00030972    0.00021762
     atom   16 type  3   force =     0.00007203   -0.00044945    0.00023049

     Total force =     0.002440     Total SCF correction =     0.000120


     entering subroutine stress ...


     negative rho (up, down):  1.179E+00 0.000E+00
          total   stress  (Ry/bohr**3)                   (kbar)     P=  -29.40
  -0.00026932   0.00000263  -0.00000326        -39.62      0.39     -0.48
   0.00000263  -0.00026867   0.00000005          0.39    -39.52      0.01
  -0.00000326   0.00000005  -0.00006156         -0.48      0.01     -9.06


     bfgs converged in  18 scf cycles and  17 bfgs steps
     (criteria: energy <  1.0E+00, force <  1.9E-03)

     End of BFGS Geometry Optimization

     Final energy   =   -1733.5397800469 Ry
Begin final coordinates

ATOMIC_POSITIONS (crystal)
Ta1      0.166666667   0.166666667   0.401991699    0   0   0
Ta1      0.666666667   0.166666667   0.401991699    0   0   0
Ta1      0.166666667   0.666666667   0.401991699    0   0   0
Ta1      0.666666667   0.666666667   0.401991699    0   0   0
Ta1      0.833333333   0.333333333   0.500000000    0   0   0
Ta1      0.333333333   0.333333333   0.500000000    0   0   0
Ta1      0.833333333   0.833333333   0.500000000    0   0   0
Ta1      0.333333333   0.833333333   0.500000000    0   0   0
Ta1     -0.001248607  -0.000055312   0.615327228
Ta1      0.495509647  -0.000340311   0.593013423
Ta1     -0.004341550   0.501695218   0.592980385
Ta1      0.497793070   0.498664301   0.592987311
C1       0.008504867  -0.000213900   0.702568280
H1       0.179905966  -0.000300453   0.718474524
H1       0.837264542   0.171230948   0.718560330
H1       0.008066739   0.828843583   0.718652257
End final coordinates



     Writing output data file calc.save
 
     init_run     :      7.27s CPU      8.95s WALL (       1 calls)
     electrons    :   3315.01s CPU   4592.74s WALL (      18 calls)
     update_pot   :     38.89s CPU     49.88s WALL (      17 calls)
     forces       :    192.80s CPU    199.40s WALL (      18 calls)
     stress       :    550.11s CPU    583.54s WALL (      18 calls)

     Called by init_run:
     wfcinit      :      2.77s CPU      3.44s WALL (       1 calls)
     potinit      :      1.36s CPU      2.06s WALL (       1 calls)

     Called by electrons:
     c_bands      :   1609.64s CPU   2291.69s WALL (     203 calls)
     sum_band     :    599.12s CPU    744.90s WALL (     203 calls)
     v_of_rho     :    363.86s CPU    672.35s WALL (     220 calls)
     newd         :    455.76s CPU    498.57s WALL (     220 calls)
     mix_rho      :      4.61s CPU      5.80s WALL (     203 calls)
     vdW_energy   :    101.06s CPU    109.86s WALL (     868 calls)
     vdW_ffts     :    139.19s CPU    197.65s WALL (    1772 calls)
     vdW_v        :     65.20s CPU     77.21s WALL (     868 calls)

     Called by c_bands:
     init_us_2    :     11.58s CPU     12.86s WALL (    3101 calls)
     cegterg      :   1101.96s CPU   1334.18s WALL (    1421 calls)

     Called by *egterg:
     h_psi        :    631.35s CPU    830.77s WALL (    7426 calls)
     s_psi        :     87.05s CPU     88.89s WALL (    7426 calls)
     g_psi        :      6.12s CPU      6.17s WALL (    5998 calls)
     cdiaghg      :    177.84s CPU    180.66s WALL (    7293 calls)

     Called by h_psi:
     add_vuspsi   :     89.79s CPU     91.70s WALL (    7426 calls)

     General routines
     calbec       :    125.76s CPU    131.33s WALL (    9099 calls)
     fft          :    224.33s CPU    333.70s WALL (   52395 calls)
     ffts         :      0.33s CPU      0.53s WALL (     423 calls)
     fftw         :    405.03s CPU    638.41s WALL (  811153 calls)
     interpolate  :      2.14s CPU      3.66s WALL (     423 calls)
     davcio       :      0.01s CPU      0.15s WALL (       7 calls)
 
     Parallel routines
     fft_scatter  :    295.84s CPU    537.08s WALL (  863971 calls)
 
     PWSCF        :     1h 9m CPU        1h31m WALL

 
   This run was terminated on:  11:12: 4  23Apr2018            

=------------------------------------------------------------------------------=
   JOB DONE.
=------------------------------------------------------------------------------=
Job  /afs/slac/g/suncat/bin/suncat-tsmpirun -x LD_LIBRARY_PATH -wdir /scratch/qe3384_OxhWS pw.x -npool 3 -in pw.inp

TID   HOST_NAME   COMMAND_LINE            STATUS            TERMINATION_TIME
===== ========== ================  =======================  ===================
00000 suncat2065 pw.x -npool 3 -i  Done                     04/23/2018 11:12:04
00001 suncat2065 pw.x -npool 3 -i  Done                     04/23/2018 11:12:04
00002 suncat2065 pw.x -npool 3 -i  Done                     04/23/2018 11:12:04
00003 suncat2065 pw.x -npool 3 -i  Done                     04/23/2018 11:12:04
00004 suncat2043 pw.x -npool 3 -i  Done                     04/23/2018 11:12:04
00005 suncat2043 pw.x -npool 3 -i  Done                     04/23/2018 11:12:04
00006 suncat2043 pw.x -npool 3 -i  Done                     04/23/2018 11:12:04
00007 suncat2043 pw.x -npool 3 -i  Done                     04/23/2018 11:12:04
00008 suncat2043 pw.x -npool 3 -i  Done                     04/23/2018 11:12:04
00009 suncat2043 pw.x -npool 3 -i  Done                     04/23/2018 11:12:04
00010 suncat2043 pw.x -npool 3 -i  Done                     04/23/2018 11:12:04
00011 suncat2043 pw.x -npool 3 -i  Done                     04/23/2018 11:12:04
00012 suncat2043 pw.x -npool 3 -i  Done                     04/23/2018 11:12:04
00013 suncat2043 pw.x -npool 3 -i  Done                     04/23/2018 11:12:04
00014 suncat2043 pw.x -npool 3 -i  Done                     04/23/2018 11:12:04
00015 suncat2043 pw.x -npool 3 -i  Done                     04/23/2018 11:12:04
00016 suncat2043 pw.x -npool 3 -i  Done                     04/23/2018 11:12:04
00017 suncat2043 pw.x -npool 3 -i  Done                     04/23/2018 11:12:04
00018 suncat2043 pw.x -npool 3 -i  Done                     04/23/2018 11:12:04
00019 suncat2043 pw.x -npool 3 -i  Done                     04/23/2018 11:12:04
00020 suncat2013 pw.x -npool 3 -i  Done                     04/23/2018 11:12:04
00021 suncat2013 pw.x -npool 3 -i  Done                     04/23/2018 11:12:04
00022 suncat2013 pw.x -npool 3 -i  Done                     04/23/2018 11:12:04
00023 suncat2013 pw.x -npool 3 -i  Done                     04/23/2018 11:12:04
00024 suncat2013 pw.x -npool 3 -i  Done                     04/23/2018 11:12:04
00025 suncat2013 pw.x -npool 3 -i  Done                     04/23/2018 11:12:04
00026 suncat2013 pw.x -npool 3 -i  Done                     04/23/2018 11:12:04
00027 suncat2013 pw.x -npool 3 -i  Done                     04/23/2018 11:12:04
00028 suncat2013 pw.x -npool 3 -i  Done                     04/23/2018 11:12:04
00029 suncat2013 pw.x -npool 3 -i  Done                     04/23/2018 11:12:04
00030 suncat2013 pw.x -npool 3 -i  Done                     04/23/2018 11:12:04
00031 suncat2013 pw.x -npool 3 -i  Done                     04/23/2018 11:12:04
00032 suncat2013 pw.x -npool 3 -i  Done                     04/23/2018 11:12:04
00033 suncat2013 pw.x -npool 3 -i  Done                     04/23/2018 11:12:04
00034 suncat2013 pw.x -npool 3 -i  Done                     04/23/2018 11:12:04
00035 suncat2013 pw.x -npool 3 -i  Done                     04/23/2018 11:12:04
