  python dir          : /u/if/mamunm/src/espresso
  espresso dir        : /nfs/slac/g/suncatfs/sw/espv18/espresso-dynpy-beef/bin
  pseudo dir          : /u/if/mamunm/psp/gbrv1.5pbe
  ase-espresso py git : GITVERSION



     Program PWSCF v.5.1rc2 (svn rev. 11289) starts on 25Apr2018 at  4:36:41 

     This program is part of the open-source Quantum ESPRESSO suite
     for quantum simulation of materials; please cite
         "P. Giannozzi et al., J. Phys.:Condens. Matter 21 395502 (2009);
          URL http://www.quantum-espresso.org", 
     in publications or presentations arising from this work. More details at
     http://www.quantum-espresso.org/quote

     Parallel version (MPI), running on    32 processors
     K-points division:     npool     =       4
     R & G space division:  proc/nbgrp/npool/nimage =       8
     Reading input from pw.inp
     Message from routine read_cards :
     DEPRECATED: no units specified in CELL_PARAMETERS card

     Current dimensions of program PWSCF are:
     Max number of different atomic species (ntypx) = 10
     Max number of k-points (npk) =  40000
     Max angular momentum in pseudopotentials (lmaxx) =  3
     Presently stress not available with electric field


     **************************************************************************
     Initializing libbeef V0.1.1 with the BEEF-vdW functional.
     Citation: Wellendorff et al., PRB 85, 235149 (2012).
     **************************************************************************


     IMPORTANT: XC functional enforced from input :
     Exchange-correlation      = BEEF-VDW ( 1  4 27 13 2)
     Any further DFT definition will be discarded
     Please, verify this is what you really want


     Subspace diagonalization in iterative solution of the eigenvalue problem:
     a serial algorithm will be used

 
     Parallelization info
     --------------------
     sticks:   dense  smooth     PW     G-vecs:    dense   smooth      PW
     Min         354     143     40                67132    16991    2682
     Max         355     144     43                67159    17028    2691
     Sum        2839    1147    337               537229   136073   21493
 


     bravais-lattice index     =            0
     lattice parameter (alat)  =       1.8897  a.u.
     unit-cell volume          =    4515.4205 (a.u.)^3
     number of atoms/cell      =           14
     number of atomic types    =            3
     number of electrons       =       246.00
     number of Kohn-Sham states=          133
     kinetic-energy cutoff     =      36.7493  Ry
     charge density cutoff     =     367.4932  Ry
     convergence threshold     =      1.0E-05
     mixing beta               =       0.3000
     number of iterations used =           10  plain     mixing
     Exchange-correlation      = BEEF-VDW ( 1  4 27 13 2)
     nstep                     =           50


     celldm(1)=   1.889726  celldm(2)=   0.000000  celldm(3)=   0.000000
     celldm(4)=   0.000000  celldm(5)=   0.000000  celldm(6)=   0.000000

     crystal axes: (cart. coord. in units of alat)
               a(1) = (   5.606773   0.000000   0.000000 )  
               a(2) = (   2.803387   4.855608   0.000000 )  
               a(3) = (   0.000000   0.000000  24.577911 )  

     reciprocal axes: (cart. coord. in units 2 pi/alat)
               b(1) = (  0.178356 -0.102974  0.000000 )  
               b(2) = (  0.000000  0.205947  0.000000 )  
               b(3) = (  0.000000  0.000000  0.040687 )  


     PseudoPot. # 1 for Zn read from file:
     /u/if/mamunm/psp/gbrv1.5pbe/Zn.UPF
     MD5 check sum: df62231357ef9e81f77b2b3087fa5675
     Pseudo is Ultrasoft, Zval = 20.0
     Generated by new atomic code, or converted to UPF format
     Using radial grid of  943 points,  6 beta functions with: 
                l(1) =   0
                l(2) =   0
                l(3) =   1
                l(4) =   1
                l(5) =   2
                l(6) =   2
     Q(r) pseudized with  8 coefficients,  rinner =    1.100   1.100   1.100
                                                       1.100   1.100

     PseudoPot. # 2 for N  read from file:
     /u/if/mamunm/psp/gbrv1.5pbe/N.UPF
     MD5 check sum: 95339753478d7afb44899504a8723017
     Pseudo is Ultrasoft + core correction, Zval =  5.0
     Generated by new atomic code, or converted to UPF format
     Using radial grid of  729 points,  4 beta functions with: 
                l(1) =   0
                l(2) =   0
                l(3) =   1
                l(4) =   1
     Q(r) pseudized with  8 coefficients,  rinner =    0.900   0.900   0.900


     PseudoPot. # 3 for H  read from file:
     /u/if/mamunm/psp/gbrv1.5pbe/H.UPF
     MD5 check sum: 761ae9a214b05c3daf00ab9f6b793d6f
     Pseudo is Ultrasoft, Zval =  1.0
     Generated by new atomic code, or converted to UPF format
     Using radial grid of  615 points,  2 beta functions with: 
                l(1) =   0
                l(2) =   0
     Q(r) pseudized with  8 coefficients,  rinner =    0.700

     vdW kernel table read from file vdW_kernel_table
     MD5 check sum: 095c7af220d748ca6e76c0b4c6cfb241

     atomic species   valence    mass     pseudopotential
        Zn1           20.00    65.38000     Zn( 1.00)
        N1             5.00    14.00700     N ( 1.00)
        H1             1.00     1.00800     H ( 1.00)

     No symmetry found



   Cartesian axes

     site n.     atom                  positions (alat units)
         1           Zn1 tau(   1) = (   1.4016933   0.8092680  10.0000000  )
         2           Zn1 tau(   2) = (   4.2050800   0.8092680  10.0000000  )
         3           Zn1 tau(   3) = (   2.8033867   3.2370721  10.0000000  )
         4           Zn1 tau(   4) = (   5.6067733   3.2370721  10.0000000  )
         5           Zn1 tau(   5) = (   5.6067733   1.6185360  12.2889556  )
         6           Zn1 tau(   6) = (   2.8033867   1.6185360  12.2889556  )
         7           Zn1 tau(   7) = (   7.0084667   4.0463401  12.2889556  )
         8           Zn1 tau(   8) = (   4.2050800   4.0463401  12.2889556  )
         9           Zn1 tau(   9) = (   0.0000000   0.0000000  14.5779113  )
        10           Zn1 tau(  10) = (   2.8033867   0.0000000  14.5779113  )
        11           Zn1 tau(  11) = (   1.4016933   2.4278041  14.5779113  )
        12           Zn1 tau(  12) = (   4.2050800   2.4278041  14.5779113  )
        13           N1  tau(  13) = (   2.8033867   1.6185360  15.8324113  )
        14           H1  tau(  14) = (   2.8033867   1.6185360  16.8824113  )

     number of k points=    20  Fermi-Dirac smearing, width (Ry)=  0.0110
                       cart. coord. in units 2pi/alat
        k(    1) = (   0.0000000   0.0000000   0.0000000), wk =   0.0555556
        k(    2) = (   0.0000000   0.0343246   0.0000000), wk =   0.1111111
        k(    3) = (   0.0000000   0.0686491   0.0000000), wk =   0.1111111
        k(    4) = (   0.0000000  -0.1029737   0.0000000), wk =   0.0555556
        k(    5) = (   0.0297260  -0.0171623   0.0000000), wk =   0.1111111
        k(    6) = (   0.0297260   0.0171623   0.0000000), wk =   0.1111111
        k(    7) = (   0.0297260   0.0514869   0.0000000), wk =   0.1111111
        k(    8) = (   0.0297260  -0.1201360   0.0000000), wk =   0.1111111
        k(    9) = (   0.0297260  -0.0858114   0.0000000), wk =   0.1111111
        k(   10) = (   0.0297260  -0.0514869   0.0000000), wk =   0.1111111
        k(   11) = (   0.0594519  -0.0343246   0.0000000), wk =   0.1111111
        k(   12) = (   0.0594519   0.0000000   0.0000000), wk =   0.1111111
        k(   13) = (   0.0594519   0.0343246   0.0000000), wk =   0.1111111
        k(   14) = (   0.0594519  -0.1372983   0.0000000), wk =   0.1111111
        k(   15) = (   0.0594519  -0.1029737   0.0000000), wk =   0.1111111
        k(   16) = (   0.0594519  -0.0686491   0.0000000), wk =   0.1111111
        k(   17) = (  -0.0891779   0.0514869   0.0000000), wk =   0.0555556
        k(   18) = (  -0.0891779   0.0858114   0.0000000), wk =   0.1111111
        k(   19) = (  -0.0891779   0.1201360   0.0000000), wk =   0.1111111
        k(   20) = (  -0.0891779  -0.0514869   0.0000000), wk =   0.0555556

     Dense  grid:   537229 G-vectors     FFT dimensions: (  72,  72, 288)

     Smooth grid:   136073 G-vectors     FFT dimensions: (  45,  45, 180)

     Largest allocated arrays     est. size (Mb)     dimensions
        Kohn-Sham Wavefunctions         4.39 Mb     (    2163,  133)
        NL pseudopotentials             7.46 Mb     (    2163,  226)
        Each V/rho on FFT grid          2.85 Mb     (  186624)
        Each G-vector array             0.51 Mb     (   67157)
        G-vector shells                 0.14 Mb     (   17773)
     Largest temporary arrays     est. size (Mb)     dimensions
        Auxiliary wavefunctions        17.56 Mb     (    2163,  532)
        Each subspace H/S matrix        4.32 Mb     (     532,  532)
        Each <psi_i|beta_j> matrix      0.46 Mb     (     226,  133)
        Arrays for rho mixing          28.48 Mb     (  186624,   10)

     Initial potential from superposition of free atoms
     Check: negative starting charge=   -0.000780

     starting charge  245.99829, renormalised to  246.00000

     negative rho (up, down):  7.796E-04 0.000E+00


     ************************************************************************
     *
     * You are using vdW-DF for exchange-correlation in this calculation.
     * Please cite the following three references that made this development
     * possible:
     *
     *   M. Dion, H. Rydberg, E. Schroder, D. C. Langreth, and
     *   B. I. Lundqvist, Phys. Rev. Lett. 92, 246401 (2004).
     *
     *   T. Thonhauser, V. R. Cooper, S. Li, A. Puzder, P. Hyldgaard, and
     *   D. C. Langreth, Phys. Rev. B 76, 125112 (2007).
     *
     *   G. Roman-Perez and J. M. Soler, Phys. Rev. Lett. 103, 096102 (2009).
     *
     *
     * If you are using vdW-DF2, please also cite:
     *
     *   K. Lee, E. D. Murray, L. Kong, B. I. Lundqvist, and
     *   D. C. Langreth, Phys. Rev. B 82, 081101(R) (2010).
     *
     *
     * If you are calculating the stress with vdW-DF, please also cite:
     *
     *   R. Sabatini, E. Kucukbenli, B. Kolb, T. Thonhauser, and
     *   S. de Gironcoli, J. Phys.: Condens. Matter 24, 424209 (2012).
     *
     ************************************************************************

     Carrying out vdW-DF run using the following parameters:

     Nqs =      20    Nr_points =    1024   r_max =   100.000
     q_mesh =
               0.00001000     0.04494208     0.09755937     0.15916263
               0.23128650     0.31572767     0.41458969     0.53033537
               0.66584808     0.82450364     1.01025438     1.22772762
               1.48234092     1.78043706     2.12944203     2.53805004
               3.01644009     3.57652955     4.23227104     5.00000000

     Gradients computed in reciprocal space

     ************************************************************************


 
     Adding external electric field

     Computed dipole along edir(3) : 
        Dipole               -0.0002 Ry au,         -0.0004 Debye
        Dipole field         -0.0000 Ry au
 
        Potential amp.        0.0000 Ry
        Total length         45.2844 bohr
 
     Starting wfc are  161 randomized atomic wfcs

     total cpu time spent up to now is       12.1 secs

     per-process dynamical memory:    91.8 Mb

     Self-consistent Calculation

     iteration #  1     ecut=    36.75 Ry     beta=0.30
     Davidson diagonalization with overlap
     ethr =  1.00E-02,  avg # of iterations =  2.2

     Threshold (ethr) on eigenvalues was too large:
     Diagonalizing with lowered threshold

     Davidson diagonalization with overlap
     ethr =  6.82E-04,  avg # of iterations =  1.9

     negative rho (up, down):  8.550E-04 0.000E+00
 
     Adding external electric field

     Computed dipole along edir(3) : 
        Dipole               -1.6286 Ry au,         -4.1394 Debye
        Dipole field         -0.0045 Ry au
 
        Potential amp.        0.4105 Ry
        Total length         45.2844 bohr
 

     total cpu time spent up to now is       49.2 secs

     total energy              =   -5574.33548856 Ry
     Harris-Foulkes estimate   =   -5575.08040212 Ry
     estimated scf accuracy    <       1.68686509 Ry

     iteration #  2     ecut=    36.75 Ry     beta=0.30
     Davidson diagonalization with overlap
     ethr =  6.86E-04,  avg # of iterations =  6.2

     negative rho (up, down):  9.817E-04 0.000E+00
 
     Adding external electric field

     Computed dipole along edir(3) : 
        Dipole                0.7960 Ry au,          2.0232 Debye
        Dipole field          0.0022 Ry au
 
        Potential amp.       -0.2006 Ry
        Total length         45.2844 bohr
 

     total cpu time spent up to now is       73.8 secs

     total energy              =   -5573.21724199 Ry
     Harris-Foulkes estimate   =   -5575.49323298 Ry
     estimated scf accuracy    <      22.25991888 Ry

     iteration #  3     ecut=    36.75 Ry     beta=0.30
     Davidson diagonalization with overlap
     ethr =  6.86E-04,  avg # of iterations =  5.8

     negative rho (up, down):  9.969E-04 0.000E+00
 
     Adding external electric field

     Computed dipole along edir(3) : 
        Dipole                0.1263 Ry au,          0.3210 Debye
        Dipole field          0.0004 Ry au
 
        Potential amp.       -0.0318 Ry
        Total length         45.2844 bohr
 

     total cpu time spent up to now is       98.2 secs

     total energy              =   -5574.66170733 Ry
     Harris-Foulkes estimate   =   -5574.95946111 Ry
     estimated scf accuracy    <       3.77725749 Ry

     iteration #  4     ecut=    36.75 Ry     beta=0.30
     Davidson diagonalization with overlap
     ethr =  6.86E-04,  avg # of iterations =  3.2

     negative rho (up, down):  1.021E-03 0.000E+00
 
     Adding external electric field

     Computed dipole along edir(3) : 
        Dipole                0.1055 Ry au,          0.2680 Debye
        Dipole field          0.0003 Ry au
 
        Potential amp.       -0.0266 Ry
        Total length         45.2844 bohr
 

     total cpu time spent up to now is      119.9 secs

     total energy              =   -5574.77242895 Ry
     Harris-Foulkes estimate   =   -5574.80457879 Ry
     estimated scf accuracy    <       0.23572485 Ry

     iteration #  5     ecut=    36.75 Ry     beta=0.30
     Davidson diagonalization with overlap
     ethr =  9.58E-05,  avg # of iterations =  3.6

     negative rho (up, down):  1.042E-03 0.000E+00
 
     Adding external electric field

     Computed dipole along edir(3) : 
        Dipole                0.0516 Ry au,          0.1312 Debye
        Dipole field          0.0001 Ry au
 
        Potential amp.       -0.0130 Ry
        Total length         45.2844 bohr
 

     total cpu time spent up to now is      142.7 secs

     total energy              =   -5574.77425541 Ry
     Harris-Foulkes estimate   =   -5574.78286063 Ry
     estimated scf accuracy    <       0.05159407 Ry

     iteration #  6     ecut=    36.75 Ry     beta=0.30
     Davidson diagonalization with overlap
     ethr =  2.10E-05,  avg # of iterations =  4.5

     negative rho (up, down):  1.110E-03 0.000E+00
 
     Adding external electric field

     Computed dipole along edir(3) : 
        Dipole                0.0612 Ry au,          0.1556 Debye
        Dipole field          0.0002 Ry au
 
        Potential amp.       -0.0154 Ry
        Total length         45.2844 bohr
 

     total cpu time spent up to now is      166.4 secs

     total energy              =   -5574.77908363 Ry
     Harris-Foulkes estimate   =   -5574.77955735 Ry
     estimated scf accuracy    <       0.00861544 Ry

     iteration #  7     ecut=    36.75 Ry     beta=0.30
     Davidson diagonalization with overlap
     ethr =  3.50E-06,  avg # of iterations =  2.3

     negative rho (up, down):  1.151E-03 0.000E+00
 
     Adding external electric field

     Computed dipole along edir(3) : 
        Dipole                0.0893 Ry au,          0.2269 Debye
        Dipole field          0.0002 Ry au
 
        Potential amp.       -0.0225 Ry
        Total length         45.2844 bohr
 

     total cpu time spent up to now is      188.0 secs

     total energy              =   -5574.77907884 Ry
     Harris-Foulkes estimate   =   -5574.77938101 Ry
     estimated scf accuracy    <       0.00493648 Ry

     iteration #  8     ecut=    36.75 Ry     beta=0.30
     Davidson diagonalization with overlap
     ethr =  2.01E-06,  avg # of iterations =  4.5

     negative rho (up, down):  1.164E-03 0.000E+00
 
     Adding external electric field

     Computed dipole along edir(3) : 
        Dipole                0.0962 Ry au,          0.2446 Debye
        Dipole field          0.0003 Ry au
 
        Potential amp.       -0.0243 Ry
        Total length         45.2844 bohr
 

     total cpu time spent up to now is      211.4 secs

     total energy              =   -5574.77925548 Ry
     Harris-Foulkes estimate   =   -5574.77925823 Ry
     estimated scf accuracy    <       0.00030421 Ry

     iteration #  9     ecut=    36.75 Ry     beta=0.30
     Davidson diagonalization with overlap
     ethr =  1.24E-07,  avg # of iterations =  2.2

     negative rho (up, down):  1.174E-03 0.000E+00
 
     Adding external electric field

     Computed dipole along edir(3) : 
        Dipole                0.1005 Ry au,          0.2555 Debye
        Dipole field          0.0003 Ry au
 
        Potential amp.       -0.0253 Ry
        Total length         45.2844 bohr
 

     total cpu time spent up to now is      232.6 secs

     total energy              =   -5574.77925593 Ry
     Harris-Foulkes estimate   =   -5574.77926253 Ry
     estimated scf accuracy    <       0.00007828 Ry

     iteration # 10     ecut=    36.75 Ry     beta=0.30
     Davidson diagonalization with overlap
     ethr =  3.18E-08,  avg # of iterations =  2.4

     negative rho (up, down):  1.196E-03 0.000E+00

     negative rho (up, down):  1.196E-03 0.000E+00

     negative rho (up, down):  1.196E-03 0.000E+00

     negative rho (up, down):  1.196E-03 0.000E+00

     negative rho (up, down):  1.196E-03 0.000E+00

     negative rho (up, down):  1.196E-03 0.000E+00

     negative rho (up, down):  1.196E-03 0.000E+00

     negative rho (up, down):  1.196E-03 0.000E+00

     negative rho (up, down):  1.196E-03 0.000E+00

     negative rho (up, down):  1.196E-03 0.000E+00

     negative rho (up, down):  1.196E-03 0.000E+00

     negative rho (up, down):  1.196E-03 0.000E+00

     negative rho (up, down):  1.196E-03 0.000E+00

     negative rho (up, down):  1.196E-03 0.000E+00

     negative rho (up, down):  1.196E-03 0.000E+00

     negative rho (up, down):  1.196E-03 0.000E+00

     negative rho (up, down):  1.196E-03 0.000E+00

     negative rho (up, down):  1.196E-03 0.000E+00

     negative rho (up, down):  1.196E-03 0.000E+00

     negative rho (up, down):  1.196E-03 0.000E+00

     negative rho (up, down):  1.196E-03 0.000E+00

     negative rho (up, down):  1.196E-03 0.000E+00

     negative rho (up, down):  1.196E-03 0.000E+00

     negative rho (up, down):  1.196E-03 0.000E+00

     negative rho (up, down):  1.196E-03 0.000E+00

     negative rho (up, down):  1.196E-03 0.000E+00

     negative rho (up, down):  1.196E-03 0.000E+00

     negative rho (up, down):  1.196E-03 0.000E+00

     negative rho (up, down):  1.196E-03 0.000E+00

     negative rho (up, down):  1.196E-03 0.000E+00

     negative rho (up, down):  1.196E-03 0.000E+00

     negative rho (up, down):  1.196E-03 0.000E+00

     negative rho (up, down):  1.196E-03 0.000E+00

     negative rho (up, down):  1.196E-03 0.000E+00

     negative rho (up, down):  1.196E-03 0.000E+00
 
     Adding external electric field

     Computed dipole along edir(3) : 
        Dipole                0.0826 Ry au,          0.2099 Debye
        Dipole field          0.0002 Ry au
 
        Potential amp.       -0.0208 Ry
        Total length         45.2844 bohr
 

     total cpu time spent up to now is      300.9 secs

     End of self-consistent calculation

          k = 0.0000 0.0000 0.0000 ( 16931 PWs)   bands (ev):

  -126.1423-126.1138-126.1129-126.1129-125.9181-125.9172-125.9172-125.8996
  -125.8756-125.7781-125.7771-125.7771 -80.3184 -80.3167 -80.3167 -80.2958
   -80.2929 -80.2929 -80.2910 -80.2904 -80.2904 -80.2886 -80.2828 -80.2828
   -80.1055 -80.1040 -80.1040 -80.0981 -80.0954 -80.0954 -80.0875 -80.0862
   -80.0862 -80.0823 -80.0729 -80.0729 -80.0641 -80.0492 -80.0492 -80.0014
   -79.9947 -79.9947 -79.9805 -79.9805 -79.9767 -79.9033 -79.8979 -79.8979
   -14.4765  -8.8505  -7.8998  -7.6696  -7.6696  -7.6652  -7.6599  -7.5800
    -7.5800  -7.5671  -7.4782  -7.4700  -7.4700  -7.4023  -7.3381  -7.3381
    -7.1571  -7.1306  -7.1306  -7.0875  -7.0875  -7.0822  -7.0589  -7.0589
    -7.0277  -7.0160  -7.0160  -7.0017  -6.9611  -6.9611  -6.8745  -6.8745
    -6.7440  -6.7440  -6.6705  -6.6705  -6.6591  -6.6403  -6.6403  -6.6240
    -6.6193  -6.6053  -6.6053  -6.5546  -6.5546  -6.5417  -6.5379  -6.5379
    -6.5016  -6.5016  -6.4458  -6.4359  -6.4331  -6.4331  -6.4015  -6.4015
    -6.3682  -6.3359  -6.3298  -6.3298  -6.2643  -6.2643  -6.2264  -4.7394
    -3.0454  -2.4973  -2.4973  -1.8939  -1.6331  -1.6331  -1.4052  -1.4052
    -1.2851  -0.5990  -0.4769  -0.4769   0.5438   1.0435   1.1041   1.1041
     2.4698   2.8739   2.8739   3.0793   3.6033

          k = 0.0000 0.0343 0.0000 ( 16966 PWs)   bands (ev):

  -126.1423-126.1137-126.1129-126.1129-125.9181-125.9173-125.9172-125.8996
  -125.8756-125.7780-125.7772-125.7771 -80.3185 -80.3166 -80.3164 -80.2952
   -80.2932 -80.2927 -80.2911 -80.2905 -80.2905 -80.2891 -80.2836 -80.2830
   -80.1055 -80.1040 -80.1040 -80.0975 -80.0949 -80.0949 -80.0881 -80.0869
   -80.0863 -80.0824 -80.0733 -80.0731 -80.0642 -80.0492 -80.0491 -80.0010
   -79.9951 -79.9947 -79.9806 -79.9804 -79.9771 -79.9031 -79.8983 -79.8980
   -14.4727  -8.6815  -7.8351  -7.6461  -7.6181  -7.6150  -7.5922  -7.5498
    -7.5494  -7.5267  -7.4581  -7.4423  -7.4390  -7.3572  -7.3014  -7.2861
    -7.1539  -7.1384  -7.1000  -7.0913  -7.0910  -7.0736  -7.0551  -7.0514
    -7.0244  -7.0063  -7.0028  -6.9858  -6.9856  -6.9428  -6.8900  -6.8413
    -6.7941  -6.7486  -6.7218  -6.7081  -6.7029  -6.6746  -6.6715  -6.6402
    -6.6307  -6.6123  -6.6078  -6.5858  -6.5763  -6.5743  -6.5572  -6.5404
    -6.5143  -6.5102  -6.5034  -6.4576  -6.4563  -6.4366  -6.4255  -6.4182
    -6.3824  -6.3773  -6.3693  -6.3349  -6.3004  -6.2756  -6.1866  -4.7654
    -3.7767  -3.1184  -2.9057  -2.5460  -2.1509  -2.0255  -1.3827  -0.6044
    -0.5679  -0.4182  -0.3726   0.1379   0.8255   1.2820   1.5034   1.7929
     2.6418   2.8398   2.9821   3.2551   3.9692

          k = 0.0000 0.0686 0.0000 ( 16996 PWs)   bands (ev):

  -126.1423-126.1136-126.1130-126.1129-125.9179-125.9174-125.9172-125.8996
  -125.8756-125.7779-125.7773-125.7771 -80.3185 -80.3163 -80.3157 -80.2946
   -80.2928 -80.2920 -80.2909 -80.2906 -80.2905 -80.2899 -80.2857 -80.2834
   -80.1052 -80.1043 -80.1040 -80.0964 -80.0936 -80.0935 -80.0893 -80.0888
   -80.0864 -80.0825 -80.0744 -80.0734 -80.0642 -80.0491 -80.0489 -80.0000
   -79.9960 -79.9946 -79.9811 -79.9799 -79.9779 -79.9023 -79.8992 -79.8980
   -14.4649  -8.2151  -7.6978  -7.5975  -7.4915  -7.4874  -7.4693  -7.4659
    -7.4621  -7.4352  -7.4144  -7.3660  -7.3603  -7.2596  -7.2081  -7.1816
    -7.1735  -7.1512  -7.1201  -7.1128  -7.0795  -7.0383  -7.0076  -7.0036
    -7.0015  -6.9790  -6.9768  -6.9698  -6.9627  -6.9164  -6.8980  -6.8707
    -6.8486  -6.8455  -6.8053  -6.7586  -6.7315  -6.7139  -6.7138  -6.6865
    -6.6797  -6.6563  -6.6402  -6.6355  -6.6330  -6.6223  -6.5986  -6.5900
    -6.5627  -6.5572  -6.5527  -6.5495  -6.5298  -6.5205  -6.4948  -6.4661
    -6.4392  -6.4282  -6.4260  -6.3979  -6.3832  -6.3426  -5.8737  -5.5204
    -4.5767  -3.6661  -3.3465  -3.1354  -2.4262  -2.3279  -1.6630  -1.0013
    -0.6468   0.1234   0.5813   1.0913   1.5214   1.9092   2.0547   3.2467
     3.3275   3.4840   3.6992   3.8696   4.5524

          k = 0.0000-0.1030 0.0000 ( 17028 PWs)   bands (ev):

  -126.1423-126.1135-126.1132-126.1129-125.9178-125.9175-125.9172-125.8996
  -125.8756-125.7778-125.7774-125.7771 -80.3185 -80.3162 -80.3154 -80.2948
   -80.2919 -80.2913 -80.2912 -80.2909 -80.2904 -80.2898 -80.2877 -80.2834
   -80.1051 -80.1045 -80.1040 -80.0958 -80.0921 -80.0914 -80.0913 -80.0907
   -80.0863 -80.0825 -80.0750 -80.0734 -80.0643 -80.0491 -80.0489 -79.9992
   -79.9967 -79.9945 -79.9814 -79.9796 -79.9784 -79.9018 -79.9000 -79.8980
   -14.4610  -7.7816  -7.6677  -7.5741  -7.4406  -7.4355  -7.4276  -7.3761
    -7.3411  -7.3405  -7.3325  -7.3311  -7.3220  -7.2999  -7.1847  -7.1823
    -7.1671  -7.1178  -7.0993  -7.0971  -7.0935  -7.0889  -7.0112  -7.0047
    -6.9933  -6.9541  -6.9410  -6.9407  -6.9098  -6.8990  -6.8725  -6.8556
    -6.8471  -6.8386  -6.8093  -6.7748  -6.7684  -6.7655  -6.7488  -6.7260
    -6.7204  -6.6928  -6.6881  -6.6827  -6.6689  -6.6566  -6.6322  -6.6177
    -6.6104  -6.5885  -6.5799  -6.5688  -6.5643  -6.5498  -6.5458  -6.4991
    -6.4545  -6.4393  -6.4301  -6.4243  -6.4235  -6.3989  -6.3515  -5.4159
    -5.0548  -3.9052  -3.4962  -3.0898  -2.7486  -2.4401  -1.8204  -0.6995
    -0.6858  -0.4570   1.1117   1.7664   1.7827   2.6467   3.2285   3.2407
     3.3351   3.5706   4.3285   4.4462   4.7453

          k = 0.0297-0.0172 0.0000 ( 16966 PWs)   bands (ev):

  -126.1423-126.1137-126.1129-126.1129-125.9181-125.9173-125.9172-125.8996
  -125.8756-125.7780-125.7772-125.7771 -80.3185 -80.3166 -80.3164 -80.2952
   -80.2932 -80.2927 -80.2911 -80.2905 -80.2905 -80.2891 -80.2836 -80.2830
   -80.1055 -80.1040 -80.1040 -80.0975 -80.0949 -80.0949 -80.0881 -80.0869
   -80.0863 -80.0824 -80.0733 -80.0731 -80.0642 -80.0492 -80.0491 -80.0010
   -79.9951 -79.9947 -79.9806 -79.9804 -79.9771 -79.9031 -79.8983 -79.8980
   -14.4727  -8.6815  -7.8351  -7.6461  -7.6181  -7.6150  -7.5922  -7.5498
    -7.5494  -7.5267  -7.4581  -7.4423  -7.4390  -7.3572  -7.3014  -7.2861
    -7.1539  -7.1384  -7.1000  -7.0913  -7.0910  -7.0736  -7.0551  -7.0514
    -7.0244  -7.0063  -7.0028  -6.9858  -6.9856  -6.9428  -6.8900  -6.8413
    -6.7941  -6.7486  -6.7218  -6.7081  -6.7029  -6.6746  -6.6715  -6.6402
    -6.6307  -6.6123  -6.6078  -6.5858  -6.5763  -6.5743  -6.5572  -6.5404
    -6.5143  -6.5102  -6.5034  -6.4576  -6.4563  -6.4366  -6.4255  -6.4182
    -6.3824  -6.3773  -6.3693  -6.3349  -6.3004  -6.2756  -6.1866  -4.7654
    -3.7767  -3.1184  -2.9057  -2.5460  -2.1509  -2.0255  -1.3827  -0.6044
    -0.5679  -0.4182  -0.3726   0.1379   0.8255   1.2820   1.5034   1.7929
     2.6418   2.8398   2.9821   3.2551   3.9691

          k = 0.0297 0.0172 0.0000 ( 16966 PWs)   bands (ev):

  -126.1423-126.1137-126.1129-126.1129-125.9181-125.9172-125.9172-125.8996
  -125.8756-125.7780-125.7772-125.7771 -80.3185 -80.3166 -80.3164 -80.2952
   -80.2932 -80.2927 -80.2911 -80.2905 -80.2905 -80.2891 -80.2836 -80.2830
   -80.1055 -80.1040 -80.1040 -80.0976 -80.0949 -80.0949 -80.0881 -80.0869
   -80.0863 -80.0824 -80.0733 -80.0731 -80.0642 -80.0492 -80.0491 -80.0010
   -79.9951 -79.9947 -79.9806 -79.9804 -79.9771 -79.9031 -79.8983 -79.8980
   -14.4727  -8.6815  -7.8351  -7.6461  -7.6181  -7.6150  -7.5922  -7.5498
    -7.5494  -7.5267  -7.4581  -7.4423  -7.4390  -7.3572  -7.3014  -7.2861
    -7.1539  -7.1384  -7.1000  -7.0913  -7.0910  -7.0736  -7.0551  -7.0514
    -7.0244  -7.0063  -7.0028  -6.9858  -6.9856  -6.9428  -6.8900  -6.8413
    -6.7941  -6.7486  -6.7218  -6.7081  -6.7029  -6.6746  -6.6715  -6.6402
    -6.6307  -6.6123  -6.6078  -6.5858  -6.5763  -6.5743  -6.5572  -6.5404
    -6.5143  -6.5102  -6.5034  -6.4576  -6.4563  -6.4366  -6.4255  -6.4182
    -6.3824  -6.3773  -6.3693  -6.3349  -6.3004  -6.2756  -6.1866  -4.7654
    -3.7767  -3.1184  -2.9057  -2.5460  -2.1509  -2.0255  -1.3827  -0.6044
    -0.5679  -0.4182  -0.3726   0.1379   0.8255   1.2820   1.5034   1.7929
     2.6418   2.8398   2.9821   3.2551   3.9691

          k = 0.0297 0.0515 0.0000 ( 16978 PWs)   bands (ev):

  -126.1423-126.1136-126.1130-126.1129-125.9180-125.9174-125.9172-125.8996
  -125.8756-125.7779-125.7773-125.7771 -80.3185 -80.3164 -80.3159 -80.2943
   -80.2936 -80.2921 -80.2908 -80.2908 -80.2905 -80.2897 -80.2849 -80.2833
   -80.1052 -80.1042 -80.1040 -80.0967 -80.0943 -80.0938 -80.0892 -80.0876
   -80.0867 -80.0824 -80.0740 -80.0733 -80.0642 -80.0491 -80.0490 -80.0003
   -79.9957 -79.9946 -79.9809 -79.9800 -79.9777 -79.9025 -79.8989 -79.8980
   -14.4668  -8.3603  -7.7312  -7.5738  -7.5721  -7.5101  -7.4962  -7.4925
    -7.4893  -7.4602  -7.4201  -7.4037  -7.3716  -7.2772  -7.2374  -7.2040
    -7.1824  -7.1522  -7.1147  -7.0824  -7.0680  -7.0596  -7.0252  -7.0221
    -7.0168  -7.0078  -6.9761  -6.9723  -6.9620  -6.9310  -6.9068  -6.8600
    -6.8243  -6.8131  -6.8095  -6.7673  -6.7331  -6.7096  -6.6780  -6.6644
    -6.6576  -6.6425  -6.6392  -6.6283  -6.6137  -6.5919  -6.5856  -6.5600
    -6.5469  -6.5314  -6.5296  -6.5187  -6.5091  -6.4946  -6.4853  -6.4420
    -6.4281  -6.4234  -6.4206  -6.4149  -6.3498  -6.3467  -5.9603  -4.9834
    -4.5220  -4.0840  -3.2932  -3.0595  -1.9999  -1.7889  -1.4917  -1.0578
    -0.8467   0.1254   0.1526   0.6491   1.4264   1.7151   2.2907   2.3095
     3.2207   3.5553   3.6765   4.0801   4.2379

          k = 0.0297-0.1201 0.0000 ( 16986 PWs)   bands (ev):

  -126.1423-126.1135-126.1132-126.1129-125.9178-125.9175-125.9172-125.8996
  -125.8756-125.7778-125.7774-125.7771 -80.3185 -80.3160 -80.3155 -80.2942
   -80.2927 -80.2914 -80.2912 -80.2907 -80.2905 -80.2898 -80.2870 -80.2837
   -80.1050 -80.1045 -80.1040 -80.0955 -80.0931 -80.0918 -80.0911 -80.0892
   -80.0869 -80.0824 -80.0747 -80.0736 -80.0642 -80.0490 -80.0489 -79.9991
   -79.9968 -79.9944 -79.9813 -79.9796 -79.9784 -79.9017 -79.8999 -79.8980
   -14.4610  -7.8517  -7.6055  -7.5227  -7.4346  -7.4299  -7.4037  -7.3992
    -7.3836  -7.3733  -7.3382  -7.3291  -7.3105  -7.2522  -7.2463  -7.2329
    -7.1466  -7.1290  -7.0859  -7.0780  -7.0639  -7.0607  -7.0424  -7.0164
    -6.9895  -6.9776  -6.9657  -6.9554  -6.9280  -6.9019  -6.8939  -6.8754
    -6.8610  -6.8525  -6.8418  -6.7794  -6.7685  -6.7634  -6.7485  -6.7338
    -6.7199  -6.7069  -6.6837  -6.6702  -6.6490  -6.6391  -6.6324  -6.6190
    -6.5946  -6.5887  -6.5767  -6.5601  -6.5540  -6.5332  -6.5082  -6.4885
    -6.4735  -6.4601  -6.4391  -6.4280  -6.4195  -6.3737  -5.9518  -5.5053
    -4.9640  -4.6035  -3.7622  -3.1645  -2.4841  -1.8612  -1.4774  -1.0303
    -0.4783   0.5068   0.6249   0.8258   1.6257   2.3657   2.7674   3.0580
     3.6439   3.8380   4.1438   4.2713   4.8920

          k = 0.0297-0.0858 0.0000 ( 16986 PWs)   bands (ev):

  -126.1423-126.1135-126.1132-126.1129-125.9178-125.9175-125.9172-125.8996
  -125.8756-125.7778-125.7774-125.7771 -80.3185 -80.3160 -80.3155 -80.2942
   -80.2927 -80.2914 -80.2912 -80.2907 -80.2905 -80.2898 -80.2870 -80.2837
   -80.1050 -80.1045 -80.1040 -80.0955 -80.0931 -80.0918 -80.0911 -80.0892
   -80.0869 -80.0824 -80.0747 -80.0736 -80.0642 -80.0490 -80.0489 -79.9991
   -79.9968 -79.9944 -79.9813 -79.9796 -79.9784 -79.9017 -79.8999 -79.8980
   -14.4610  -7.8517  -7.6055  -7.5227  -7.4346  -7.4299  -7.4037  -7.3992
    -7.3836  -7.3733  -7.3382  -7.3291  -7.3105  -7.2522  -7.2463  -7.2329
    -7.1466  -7.1290  -7.0859  -7.0780  -7.0639  -7.0607  -7.0424  -7.0164
    -6.9895  -6.9776  -6.9657  -6.9554  -6.9280  -6.9019  -6.8939  -6.8754
    -6.8610  -6.8525  -6.8418  -6.7794  -6.7685  -6.7634  -6.7485  -6.7338
    -6.7199  -6.7069  -6.6837  -6.6702  -6.6490  -6.6391  -6.6324  -6.6190
    -6.5946  -6.5887  -6.5767  -6.5601  -6.5540  -6.5332  -6.5082  -6.4885
    -6.4735  -6.4601  -6.4391  -6.4280  -6.4195  -6.3737  -5.9518  -5.5053
    -4.9640  -4.6035  -3.7622  -3.1645  -2.4841  -1.8612  -1.4774  -1.0303
    -0.4783   0.5068   0.6249   0.8258   1.6257   2.3657   2.7674   3.0580
     3.6439   3.8380   4.1438   4.2713   4.8920

          k = 0.0297-0.0515 0.0000 ( 16978 PWs)   bands (ev):

  -126.1423-126.1136-126.1130-126.1129-125.9180-125.9174-125.9172-125.8996
  -125.8756-125.7779-125.7773-125.7771 -80.3185 -80.3164 -80.3159 -80.2943
   -80.2936 -80.2921 -80.2908 -80.2908 -80.2905 -80.2897 -80.2849 -80.2833
   -80.1052 -80.1042 -80.1040 -80.0967 -80.0943 -80.0938 -80.0892 -80.0876
   -80.0867 -80.0824 -80.0740 -80.0733 -80.0642 -80.0491 -80.0490 -80.0003
   -79.9957 -79.9946 -79.9809 -79.9800 -79.9777 -79.9025 -79.8989 -79.8980
   -14.4668  -8.3603  -7.7312  -7.5738  -7.5721  -7.5101  -7.4962  -7.4925
    -7.4893  -7.4602  -7.4201  -7.4037  -7.3716  -7.2772  -7.2374  -7.2040
    -7.1824  -7.1522  -7.1147  -7.0824  -7.0680  -7.0596  -7.0252  -7.0221
    -7.0168  -7.0078  -6.9761  -6.9723  -6.9620  -6.9310  -6.9068  -6.8600
    -6.8243  -6.8131  -6.8095  -6.7673  -6.7331  -6.7096  -6.6780  -6.6644
    -6.6576  -6.6425  -6.6392  -6.6283  -6.6137  -6.5919  -6.5856  -6.5600
    -6.5469  -6.5314  -6.5296  -6.5187  -6.5091  -6.4946  -6.4853  -6.4420
    -6.4281  -6.4234  -6.4206  -6.4149  -6.3498  -6.3467  -5.9603  -4.9834
    -4.5220  -4.0840  -3.2932  -3.0595  -1.9999  -1.7889  -1.4917  -1.0578
    -0.8467   0.1254   0.1526   0.6491   1.4264   1.7151   2.2907   2.3095
     3.2207   3.5553   3.6765   4.0801   4.2379

          k = 0.0595-0.0343 0.0000 ( 16996 PWs)   bands (ev):

  -126.1423-126.1136-126.1131-126.1129-125.9179-125.9174-125.9172-125.8996
  -125.8756-125.7779-125.7773-125.7771 -80.3185 -80.3163 -80.3157 -80.2946
   -80.2928 -80.2920 -80.2909 -80.2906 -80.2905 -80.2899 -80.2857 -80.2834
   -80.1052 -80.1043 -80.1040 -80.0964 -80.0936 -80.0935 -80.0893 -80.0888
   -80.0864 -80.0825 -80.0744 -80.0734 -80.0642 -80.0491 -80.0489 -80.0000
   -79.9960 -79.9946 -79.9811 -79.9799 -79.9779 -79.9023 -79.8992 -79.8980
   -14.4649  -8.2151  -7.6978  -7.5975  -7.4915  -7.4874  -7.4693  -7.4659
    -7.4621  -7.4352  -7.4144  -7.3660  -7.3603  -7.2596  -7.2081  -7.1816
    -7.1735  -7.1512  -7.1201  -7.1128  -7.0795  -7.0383  -7.0076  -7.0036
    -7.0015  -6.9790  -6.9768  -6.9698  -6.9627  -6.9164  -6.8980  -6.8707
    -6.8486  -6.8455  -6.8053  -6.7586  -6.7315  -6.7139  -6.7138  -6.6865
    -6.6797  -6.6563  -6.6402  -6.6355  -6.6330  -6.6223  -6.5986  -6.5900
    -6.5627  -6.5572  -6.5527  -6.5495  -6.5298  -6.5205  -6.4948  -6.4661
    -6.4392  -6.4282  -6.4260  -6.3979  -6.3832  -6.3426  -5.8737  -5.5204
    -4.5767  -3.6661  -3.3465  -3.1354  -2.4262  -2.3279  -1.6630  -1.0013
    -0.6468   0.1234   0.5813   1.0913   1.5214   1.9092   2.0547   3.2466
     3.3275   3.4840   3.6992   3.8696   4.5523

          k = 0.0595 0.0000 0.0000 ( 16978 PWs)   bands (ev):

  -126.1423-126.1136-126.1130-126.1129-125.9180-125.9173-125.9172-125.8996
  -125.8756-125.7779-125.7773-125.7771 -80.3185 -80.3164 -80.3159 -80.2943
   -80.2936 -80.2921 -80.2908 -80.2908 -80.2905 -80.2897 -80.2849 -80.2833
   -80.1052 -80.1042 -80.1040 -80.0967 -80.0943 -80.0938 -80.0892 -80.0876
   -80.0867 -80.0824 -80.0740 -80.0733 -80.0642 -80.0491 -80.0490 -80.0003
   -79.9957 -79.9946 -79.9809 -79.9800 -79.9777 -79.9025 -79.8989 -79.8980
   -14.4668  -8.3603  -7.7312  -7.5738  -7.5721  -7.5101  -7.4962  -7.4925
    -7.4893  -7.4602  -7.4201  -7.4037  -7.3716  -7.2772  -7.2374  -7.2040
    -7.1823  -7.1522  -7.1147  -7.0824  -7.0680  -7.0596  -7.0252  -7.0221
    -7.0168  -7.0078  -6.9761  -6.9723  -6.9620  -6.9310  -6.9068  -6.8600
    -6.8243  -6.8131  -6.8095  -6.7673  -6.7331  -6.7096  -6.6780  -6.6644
    -6.6576  -6.6425  -6.6392  -6.6283  -6.6137  -6.5919  -6.5856  -6.5600
    -6.5469  -6.5314  -6.5296  -6.5187  -6.5091  -6.4946  -6.4853  -6.4420
    -6.4281  -6.4234  -6.4206  -6.4149  -6.3498  -6.3467  -5.9603  -4.9834
    -4.5220  -4.0840  -3.2932  -3.0595  -1.9999  -1.7889  -1.4917  -1.0578
    -0.8467   0.1254   0.1526   0.6491   1.4264   1.7151   2.2907   2.3095
     3.2207   3.5553   3.6765   4.0801   4.2379

          k = 0.0595 0.0343 0.0000 ( 16996 PWs)   bands (ev):

  -126.1423-126.1136-126.1130-126.1129-125.9179-125.9174-125.9172-125.8996
  -125.8756-125.7779-125.7773-125.7771 -80.3185 -80.3163 -80.3157 -80.2946
   -80.2928 -80.2920 -80.2909 -80.2906 -80.2905 -80.2899 -80.2857 -80.2834
   -80.1052 -80.1043 -80.1040 -80.0964 -80.0936 -80.0935 -80.0893 -80.0888
   -80.0864 -80.0825 -80.0744 -80.0734 -80.0642 -80.0491 -80.0489 -80.0000
   -79.9960 -79.9946 -79.9811 -79.9799 -79.9779 -79.9023 -79.8992 -79.8980
   -14.4649  -8.2151  -7.6978  -7.5975  -7.4915  -7.4874  -7.4693  -7.4659
    -7.4621  -7.4352  -7.4144  -7.3660  -7.3603  -7.2596  -7.2081  -7.1816
    -7.1735  -7.1512  -7.1201  -7.1128  -7.0795  -7.0383  -7.0076  -7.0036
    -7.0015  -6.9790  -6.9768  -6.9698  -6.9627  -6.9164  -6.8980  -6.8707
    -6.8486  -6.8455  -6.8053  -6.7586  -6.7315  -6.7139  -6.7138  -6.6865
    -6.6797  -6.6563  -6.6402  -6.6355  -6.6330  -6.6223  -6.5986  -6.5900
    -6.5627  -6.5572  -6.5527  -6.5495  -6.5298  -6.5205  -6.4948  -6.4661
    -6.4392  -6.4282  -6.4260  -6.3979  -6.3832  -6.3426  -5.8737  -5.5204
    -4.5767  -3.6661  -3.3465  -3.1354  -2.4262  -2.3279  -1.6630  -1.0013
    -0.6468   0.1234   0.5813   1.0913   1.5214   1.9092   2.0547   3.2467
     3.3275   3.4840   3.6992   3.8696   4.5523

          k = 0.0595-0.1373 0.0000 ( 16986 PWs)   bands (ev):

  -126.1423-126.1135-126.1132-126.1129-125.9178-125.9175-125.9172-125.8996
  -125.8756-125.7777-125.7774-125.7771 -80.3185 -80.3160 -80.3155 -80.2942
   -80.2927 -80.2914 -80.2912 -80.2907 -80.2905 -80.2898 -80.2870 -80.2837
   -80.1050 -80.1045 -80.1040 -80.0955 -80.0931 -80.0918 -80.0911 -80.0892
   -80.0869 -80.0824 -80.0747 -80.0736 -80.0642 -80.0490 -80.0489 -79.9991
   -79.9968 -79.9944 -79.9813 -79.9796 -79.9784 -79.9017 -79.8999 -79.8980
   -14.4610  -7.8517  -7.6055  -7.5227  -7.4346  -7.4299  -7.4037  -7.3992
    -7.3836  -7.3733  -7.3382  -7.3291  -7.3105  -7.2522  -7.2463  -7.2329
    -7.1466  -7.1290  -7.0859  -7.0780  -7.0639  -7.0607  -7.0424  -7.0164
    -6.9895  -6.9776  -6.9657  -6.9553  -6.9280  -6.9019  -6.8939  -6.8754
    -6.8610  -6.8525  -6.8418  -6.7794  -6.7685  -6.7634  -6.7485  -6.7338
    -6.7199  -6.7069  -6.6837  -6.6702  -6.6490  -6.6391  -6.6324  -6.6190
    -6.5946  -6.5887  -6.5767  -6.5601  -6.5540  -6.5332  -6.5082  -6.4885
    -6.4735  -6.4601  -6.4391  -6.4280  -6.4195  -6.3737  -5.9518  -5.5053
    -4.9640  -4.6035  -3.7622  -3.1645  -2.4841  -1.8612  -1.4774  -1.0303
    -0.4783   0.5068   0.6249   0.8258   1.6257   2.3657   2.7674   3.0580
     3.6439   3.8380   4.1438   4.2713   4.8920

          k = 0.0595-0.1030 0.0000 ( 17004 PWs)   bands (ev):

  -126.1423-126.1133-126.1133-126.1129-125.9177-125.9176-125.9172-125.8996
  -125.8756-125.7776-125.7776-125.7771 -80.3185 -80.3157 -80.3157 -80.2934
   -80.2926 -80.2926 -80.2909 -80.2909 -80.2906 -80.2883 -80.2883 -80.2841
   -80.1047 -80.1047 -80.1040 -80.0940 -80.0939 -80.0923 -80.0899 -80.0899
   -80.0878 -80.0824 -80.0744 -80.0744 -80.0642 -80.0490 -80.0490 -79.9980
   -79.9979 -79.9944 -79.9815 -79.9791 -79.9791 -79.9009 -79.9007 -79.8981
   -14.4591  -7.6504  -7.4393  -7.4111  -7.3649  -7.3552  -7.3529  -7.3499
    -7.3497  -7.3397  -7.3152  -7.3114  -7.3079  -7.2936  -7.2910  -7.2883
    -7.2613  -7.1796  -7.1774  -7.0421  -7.0420  -7.0332  -6.9973  -6.9843
    -6.9716  -6.9656  -6.9577  -6.9508  -6.9197  -6.9131  -6.9102  -6.8856
    -6.8698  -6.8514  -6.8267  -6.8205  -6.8184  -6.8106  -6.7966  -6.7788
    -6.7760  -6.7163  -6.6999  -6.6967  -6.6813  -6.6763  -6.6335  -6.6027
    -6.6019  -6.5921  -6.5760  -6.5721  -6.5266  -6.5201  -6.5092  -6.4895
    -6.4760  -6.4721  -6.4484  -6.4242  -6.4233  -6.0929  -5.9918  -5.9367
    -5.1206  -4.5547  -4.4988  -3.0608  -2.4541  -2.3156  -0.6676  -0.5547
    -0.2762   0.6386   0.6843   0.7004   1.9048   1.9959   2.0932   2.9653
     3.1693   3.4186   4.6879   4.7508   5.2359

          k = 0.0595-0.0686 0.0000 ( 16986 PWs)   bands (ev):

  -126.1423-126.1135-126.1132-126.1129-125.9178-125.9175-125.9172-125.8996
  -125.8756-125.7778-125.7774-125.7771 -80.3185 -80.3160 -80.3155 -80.2942
   -80.2927 -80.2914 -80.2912 -80.2907 -80.2905 -80.2898 -80.2870 -80.2837
   -80.1050 -80.1045 -80.1040 -80.0955 -80.0931 -80.0918 -80.0911 -80.0892
   -80.0869 -80.0824 -80.0747 -80.0736 -80.0642 -80.0490 -80.0489 -79.9991
   -79.9968 -79.9944 -79.9813 -79.9796 -79.9784 -79.9017 -79.8999 -79.8980
   -14.4610  -7.8517  -7.6055  -7.5227  -7.4346  -7.4299  -7.4037  -7.3992
    -7.3836  -7.3733  -7.3382  -7.3291  -7.3105  -7.2522  -7.2463  -7.2329
    -7.1466  -7.1290  -7.0859  -7.0780  -7.0639  -7.0607  -7.0424  -7.0164
    -6.9895  -6.9776  -6.9657  -6.9553  -6.9280  -6.9019  -6.8939  -6.8754
    -6.8610  -6.8525  -6.8418  -6.7794  -6.7685  -6.7634  -6.7485  -6.7338
    -6.7199  -6.7069  -6.6837  -6.6702  -6.6490  -6.6391  -6.6324  -6.6190
    -6.5946  -6.5887  -6.5767  -6.5601  -6.5540  -6.5332  -6.5082  -6.4885
    -6.4735  -6.4601  -6.4391  -6.4280  -6.4195  -6.3737  -5.9518  -5.5053
    -4.9640  -4.6035  -3.7622  -3.1645  -2.4841  -1.8612  -1.4774  -1.0303
    -0.4783   0.5068   0.6249   0.8258   1.6257   2.3657   2.7674   3.0580
     3.6439   3.8380   4.1438   4.2713   4.8920

          k =-0.0892 0.0515 0.0000 ( 17028 PWs)   bands (ev):

  -126.1423-126.1135-126.1132-126.1129-125.9178-125.9175-125.9172-125.8996
  -125.8756-125.7778-125.7774-125.7771 -80.3185 -80.3162 -80.3154 -80.2948
   -80.2919 -80.2913 -80.2912 -80.2909 -80.2904 -80.2898 -80.2877 -80.2834
   -80.1051 -80.1045 -80.1040 -80.0958 -80.0921 -80.0914 -80.0914 -80.0907
   -80.0863 -80.0825 -80.0750 -80.0734 -80.0643 -80.0491 -80.0489 -79.9992
   -79.9967 -79.9945 -79.9814 -79.9796 -79.9784 -79.9018 -79.9000 -79.8980
   -14.4610  -7.7816  -7.6677  -7.5741  -7.4406  -7.4355  -7.4276  -7.3761
    -7.3411  -7.3405  -7.3325  -7.3311  -7.3220  -7.2999  -7.1847  -7.1823
    -7.1671  -7.1178  -7.0993  -7.0971  -7.0935  -7.0889  -7.0112  -7.0046
    -6.9933  -6.9541  -6.9410  -6.9407  -6.9098  -6.8990  -6.8725  -6.8556
    -6.8471  -6.8386  -6.8093  -6.7748  -6.7684  -6.7655  -6.7488  -6.7260
    -6.7204  -6.6928  -6.6881  -6.6827  -6.6689  -6.6566  -6.6322  -6.6177
    -6.6104  -6.5885  -6.5799  -6.5688  -6.5643  -6.5498  -6.5458  -6.4991
    -6.4545  -6.4393  -6.4301  -6.4243  -6.4235  -6.3989  -6.3515  -5.4159
    -5.0548  -3.9052  -3.4962  -3.0898  -2.7486  -2.4401  -1.8204  -0.6995
    -0.6858  -0.4570   1.1117   1.7664   1.7827   2.6467   3.2285   3.2407
     3.3351   3.5706   4.3285   4.4462   4.7453

          k =-0.0892 0.0858 0.0000 ( 16986 PWs)   bands (ev):

  -126.1423-126.1135-126.1132-126.1129-125.9178-125.9175-125.9172-125.8996
  -125.8756-125.7778-125.7774-125.7771 -80.3185 -80.3160 -80.3155 -80.2942
   -80.2927 -80.2914 -80.2912 -80.2907 -80.2905 -80.2898 -80.2870 -80.2837
   -80.1050 -80.1044 -80.1040 -80.0955 -80.0931 -80.0918 -80.0911 -80.0892
   -80.0869 -80.0824 -80.0747 -80.0736 -80.0642 -80.0490 -80.0489 -79.9991
   -79.9968 -79.9944 -79.9813 -79.9796 -79.9784 -79.9017 -79.8999 -79.8980
   -14.4610  -7.8517  -7.6055  -7.5227  -7.4346  -7.4299  -7.4037  -7.3992
    -7.3836  -7.3733  -7.3382  -7.3291  -7.3105  -7.2522  -7.2463  -7.2329
    -7.1466  -7.1290  -7.0859  -7.0780  -7.0639  -7.0607  -7.0424  -7.0164
    -6.9895  -6.9776  -6.9657  -6.9554  -6.9280  -6.9019  -6.8939  -6.8754
    -6.8610  -6.8525  -6.8418  -6.7794  -6.7685  -6.7634  -6.7485  -6.7338
    -6.7199  -6.7069  -6.6837  -6.6702  -6.6490  -6.6391  -6.6324  -6.6190
    -6.5946  -6.5887  -6.5767  -6.5601  -6.5540  -6.5332  -6.5082  -6.4885
    -6.4735  -6.4601  -6.4391  -6.4280  -6.4195  -6.3737  -5.9518  -5.5053
    -4.9640  -4.6035  -3.7622  -3.1645  -2.4841  -1.8612  -1.4774  -1.0303
    -0.4783   0.5068   0.6249   0.8258   1.6257   2.3657   2.7674   3.0580
     3.6439   3.8380   4.1438   4.2713   4.8919

          k =-0.0892 0.1201 0.0000 ( 16986 PWs)   bands (ev):

  -126.1423-126.1135-126.1132-126.1129-125.9178-125.9175-125.9172-125.8996
  -125.8756-125.7777-125.7774-125.7771 -80.3185 -80.3160 -80.3155 -80.2942
   -80.2927 -80.2914 -80.2912 -80.2907 -80.2905 -80.2898 -80.2870 -80.2837
   -80.1050 -80.1044 -80.1040 -80.0955 -80.0931 -80.0918 -80.0911 -80.0892
   -80.0869 -80.0824 -80.0747 -80.0736 -80.0642 -80.0490 -80.0489 -79.9991
   -79.9968 -79.9944 -79.9813 -79.9796 -79.9784 -79.9017 -79.8999 -79.8980
   -14.4610  -7.8517  -7.6055  -7.5227  -7.4346  -7.4299  -7.4037  -7.3992
    -7.3836  -7.3733  -7.3382  -7.3291  -7.3105  -7.2522  -7.2463  -7.2329
    -7.1466  -7.1290  -7.0859  -7.0780  -7.0639  -7.0607  -7.0424  -7.0164
    -6.9895  -6.9776  -6.9657  -6.9554  -6.9280  -6.9019  -6.8939  -6.8754
    -6.8610  -6.8525  -6.8418  -6.7794  -6.7685  -6.7634  -6.7485  -6.7338
    -6.7199  -6.7069  -6.6837  -6.6702  -6.6490  -6.6391  -6.6324  -6.6190
    -6.5946  -6.5887  -6.5767  -6.5601  -6.5540  -6.5332  -6.5082  -6.4885
    -6.4735  -6.4601  -6.4391  -6.4280  -6.4195  -6.3737  -5.9518  -5.5053
    -4.9640  -4.6035  -3.7622  -3.1645  -2.4841  -1.8612  -1.4774  -1.0303
    -0.4783   0.5068   0.6249   0.8258   1.6257   2.3657   2.7674   3.0580
     3.6439   3.8380   4.1438   4.2713   4.8920

          k =-0.0892-0.0515 0.0000 ( 17028 PWs)   bands (ev):

  -126.1423-126.1135-126.1132-126.1129-125.9178-125.9175-125.9172-125.8996
  -125.8756-125.7777-125.7774-125.7771 -80.3185 -80.3162 -80.3154 -80.2948
   -80.2919 -80.2913 -80.2912 -80.2909 -80.2904 -80.2898 -80.2877 -80.2834
   -80.1051 -80.1045 -80.1040 -80.0958 -80.0921 -80.0914 -80.0914 -80.0907
   -80.0863 -80.0825 -80.0750 -80.0734 -80.0643 -80.0491 -80.0489 -79.9992
   -79.9968 -79.9945 -79.9814 -79.9796 -79.9784 -79.9018 -79.9000 -79.8980
   -14.4610  -7.7816  -7.6677  -7.5741  -7.4406  -7.4355  -7.4276  -7.3761
    -7.3411  -7.3405  -7.3325  -7.3311  -7.3220  -7.2999  -7.1847  -7.1823
    -7.1671  -7.1178  -7.0993  -7.0971  -7.0935  -7.0889  -7.0112  -7.0046
    -6.9933  -6.9541  -6.9410  -6.9407  -6.9098  -6.8990  -6.8725  -6.8556
    -6.8471  -6.8386  -6.8093  -6.7748  -6.7684  -6.7655  -6.7488  -6.7260
    -6.7204  -6.6928  -6.6881  -6.6827  -6.6689  -6.6566  -6.6322  -6.6177
    -6.6104  -6.5885  -6.5799  -6.5688  -6.5643  -6.5498  -6.5458  -6.4991
    -6.4545  -6.4393  -6.4301  -6.4243  -6.4235  -6.3989  -6.3515  -5.4159
    -5.0548  -3.9052  -3.4962  -3.0898  -2.7486  -2.4401  -1.8204  -0.6995
    -0.6858  -0.4570   1.1117   1.7664   1.7827   2.6467   3.2285   3.2407
     3.3351   3.5706   4.3285   4.4462   4.7454

     the Fermi energy is     0.6547 ev

!    total energy              =   -5574.77926367 Ry
     Harris-Foulkes estimate   =   -5574.77927408 Ry
     estimated scf accuracy    <       0.00000464 Ry

     The total energy is the sum of the following terms:

     one-electron contribution =  -36187.01743561 Ry
     hartree contribution      =   18076.30478956 Ry
     xc contribution           =    -527.23296918 Ry
     ewald contribution        =   13063.19407009 Ry
     electric field correction =       0.00001899 Ry
     smearing contrib. (-TS)   =      -0.02773751 Ry

     convergence has been achieved in  10 iterations
 
 BEEF-vdW xc energy contributions
           1 :   -468.231923490686     
           2 :    424.234819064934     
           3 :   -350.491827841401     
           4 :    268.416957625610     
           5 :   -196.887455536041     
           6 :    145.206239536260     
           7 :   -111.900922669129     
           8 :    89.0282528681001     
           9 :   -68.6742512985259     
          10 :    47.5704176876902     
          11 :   -27.5433299425437     
          12 :    12.4575651165554     
          13 :   -4.42714441614783     
          14 :    2.04475469674759     
          15 :   -1.52604857630672     
          16 :  -0.513725892041634     
          17 :    4.89274147026708     
          18 :   -9.81017236761636     
          19 :    12.6843354810792     
          20 :   -12.3090938986741     
          21 :    9.71028932001548     
          22 :   -7.22370050524671     
          23 :    6.67292862570264     
          24 :   -8.10314259591860     
          25 :    9.96388526266145     
          26 :   -10.4662242744562     
          27 :    8.98295538049945     
          28 :   -6.43413853802122     
          29 :    4.46013459711025     
          30 :   -4.11850203678921     
          31 :   -36.4315366002882     
          32 :   -24.8533025997659     

     Forces acting on atoms (Ry/au):


     negative rho (up, down):  1.196E-03 0.000E+00
     atom    1 type  1   force =     0.00029182    0.00016985   -0.00939140
     atom    2 type  1   force =    -0.00029232    0.00016934   -0.00938999
     atom    3 type  1   force =     0.00000012   -0.00034376   -0.00939372
     atom    4 type  1   force =    -0.00000066    0.00000281   -0.00785455
     atom    5 type  1   force =    -0.00000026    0.00158179    0.00352888
     atom    6 type  1   force =    -0.00000154   -0.00000275    0.00117862
     atom    7 type  1   force =    -0.00137144   -0.00079300    0.00352954
     atom    8 type  1   force =     0.00137113   -0.00078804    0.00352860
     atom    9 type  1   force =    -0.00000172    0.00000473   -0.00202038
     atom   10 type  1   force =     0.00000313   -0.01911088    0.02611074
     atom   11 type  1   force =    -0.01655061    0.00955845    0.02612051
     atom   12 type  1   force =     0.01655305    0.00955185    0.02611834
     atom   13 type  2   force =    -0.00000050   -0.00000079   -0.00991203
     atom   14 type  3   force =    -0.00000021    0.00000041   -0.04215317

     Total force =     0.070860     Total SCF correction =     0.011420
     SCF correction compared to forces is large: reduce conv_thr to get better values


     entering subroutine stress ...


     negative rho (up, down):  1.196E-03 0.000E+00
          total   stress  (Ry/bohr**3)                   (kbar)     P=  -18.19
  -0.00015040  -0.00000000   0.00000000        -22.13     -0.00      0.00
  -0.00000000  -0.00015040  -0.00000000         -0.00    -22.13     -0.00
   0.00000000  -0.00000000  -0.00007019          0.00     -0.00    -10.33


     BFGS Geometry Optimization

     number of scf cycles    =   1
     number of bfgs steps    =   0

     energy   new            =   -5574.7792636724 Ry

     new trust radius        =       0.0421531745 bohr
     new conv_thr            =       0.0000099958 Ry


ATOMIC_POSITIONS (crystal)
Zn1      0.166666667   0.166666667   0.406869400    0   0   0
Zn1      0.666666667   0.166666667   0.406869400    0   0   0
Zn1      0.166666667   0.666666667   0.406869400    0   0   0
Zn1      0.666666667   0.666666667   0.406869400    0   0   0
Zn1      0.833333333   0.333333333   0.500000000    0   0   0
Zn1      0.333333333   0.333333333   0.500000000    0   0   0
Zn1      0.833333333   0.833333333   0.500000000    0   0   0
Zn1      0.333333333   0.833333333   0.500000000    0   0   0
Zn1     -0.000000420   0.000000516   0.593087100
Zn1      0.501041673  -0.002082756   0.593692780
Zn1     -0.002082929   0.501041705   0.593692991
Zn1      0.501041814   0.501040986   0.593692944
N1       0.333333330   0.333333247   0.643958955
H1       0.333333291   0.333333377   0.685986070



     Writing output data file calc.save
     Check: negative starting charge=   -0.000780
     NEW-OLD atomic charge density approx. for the potential
     Check: negative starting charge=   -0.000787

     negative rho (up, down):  1.212E-03 0.000E+00
 
     Adding external electric field

     Computed dipole along edir(3) : 
        Dipole                0.0826 Ry au,          0.2100 Debye
        Dipole field          0.0002 Ry au
 
        Potential amp.       -0.0208 Ry
        Total length         45.2844 bohr
 

     total cpu time spent up to now is      361.9 secs

     per-process dynamical memory:   127.6 Mb

     Self-consistent Calculation

     iteration #  1     ecut=    36.75 Ry     beta=0.30
     Davidson diagonalization with overlap
     ethr =  1.00E-06,  avg # of iterations =  4.2

     negative rho (up, down):  1.208E-03 0.000E+00
 
     Adding external electric field

     Computed dipole along edir(3) : 
        Dipole                0.1647 Ry au,          0.4185 Debye
        Dipole field          0.0005 Ry au
 
        Potential amp.       -0.0415 Ry
        Total length         45.2844 bohr
 

     total cpu time spent up to now is      395.1 secs

     total energy              =   -5574.78354315 Ry
     Harris-Foulkes estimate   =   -5574.78393336 Ry
     estimated scf accuracy    <       0.00099805 Ry

     iteration #  2     ecut=    36.75 Ry     beta=0.30
     Davidson diagonalization with overlap
     ethr =  4.06E-07,  avg # of iterations =  5.2

     negative rho (up, down):  1.208E-03 0.000E+00
 
     Adding external electric field

     Computed dipole along edir(3) : 
        Dipole                0.0974 Ry au,          0.2475 Debye
        Dipole field          0.0003 Ry au
 
        Potential amp.       -0.0245 Ry
        Total length         45.2844 bohr
 

     total cpu time spent up to now is      419.6 secs

     total energy              =   -5574.78291910 Ry
     Harris-Foulkes estimate   =   -5574.78487142 Ry
     estimated scf accuracy    <       0.02050047 Ry

     iteration #  3     ecut=    36.75 Ry     beta=0.30
     Davidson diagonalization with overlap
     ethr =  4.06E-07,  avg # of iterations =  4.8

     negative rho (up, down):  1.207E-03 0.000E+00
 
     Adding external electric field

     Computed dipole along edir(3) : 
        Dipole                0.1026 Ry au,          0.2609 Debye
        Dipole field          0.0003 Ry au
 
        Potential amp.       -0.0259 Ry
        Total length         45.2844 bohr
 

     total cpu time spent up to now is      443.4 secs

     total energy              =   -5574.78387989 Ry
     Harris-Foulkes estimate   =   -5574.78390791 Ry
     estimated scf accuracy    <       0.00019835 Ry

     iteration #  4     ecut=    36.75 Ry     beta=0.30
     Davidson diagonalization with overlap
     ethr =  8.06E-08,  avg # of iterations =  2.0

     negative rho (up, down):  1.204E-03 0.000E+00
 
     Adding external electric field

     Computed dipole along edir(3) : 
        Dipole                0.1036 Ry au,          0.2634 Debye
        Dipole field          0.0003 Ry au
 
        Potential amp.       -0.0261 Ry
        Total length         45.2844 bohr
 

     total cpu time spent up to now is      464.5 secs

     total energy              =   -5574.78389239 Ry
     Harris-Foulkes estimate   =   -5574.78389850 Ry
     estimated scf accuracy    <       0.00003827 Ry

     iteration #  5     ecut=    36.75 Ry     beta=0.30
     Davidson diagonalization with overlap
     ethr =  1.56E-08,  avg # of iterations =  2.4

     negative rho (up, down):  1.203E-03 0.000E+00
 
     Adding external electric field

     Computed dipole along edir(3) : 
        Dipole                0.1038 Ry au,          0.2638 Debye
        Dipole field          0.0003 Ry au
 
        Potential amp.       -0.0262 Ry
        Total length         45.2844 bohr
 

     total cpu time spent up to now is      486.1 secs

     total energy              =   -5574.78389561 Ry
     Harris-Foulkes estimate   =   -5574.78389653 Ry
     estimated scf accuracy    <       0.00001135 Ry

     iteration #  6     ecut=    36.75 Ry     beta=0.30
     Davidson diagonalization with overlap
     ethr =  4.61E-09,  avg # of iterations =  2.1

     negative rho (up, down):  1.202E-03 0.000E+00

     negative rho (up, down):  1.202E-03 0.000E+00

     negative rho (up, down):  1.202E-03 0.000E+00

     negative rho (up, down):  1.202E-03 0.000E+00

     negative rho (up, down):  1.202E-03 0.000E+00

     negative rho (up, down):  1.202E-03 0.000E+00

     negative rho (up, down):  1.202E-03 0.000E+00

     negative rho (up, down):  1.202E-03 0.000E+00

     negative rho (up, down):  1.202E-03 0.000E+00

     negative rho (up, down):  1.202E-03 0.000E+00

     negative rho (up, down):  1.202E-03 0.000E+00

     negative rho (up, down):  1.202E-03 0.000E+00

     negative rho (up, down):  1.202E-03 0.000E+00

     negative rho (up, down):  1.202E-03 0.000E+00

     negative rho (up, down):  1.202E-03 0.000E+00

     negative rho (up, down):  1.202E-03 0.000E+00

     negative rho (up, down):  1.202E-03 0.000E+00

     negative rho (up, down):  1.202E-03 0.000E+00

     negative rho (up, down):  1.202E-03 0.000E+00

     negative rho (up, down):  1.202E-03 0.000E+00

     negative rho (up, down):  1.202E-03 0.000E+00

     negative rho (up, down):  1.202E-03 0.000E+00

     negative rho (up, down):  1.202E-03 0.000E+00

     negative rho (up, down):  1.202E-03 0.000E+00

     negative rho (up, down):  1.202E-03 0.000E+00

     negative rho (up, down):  1.202E-03 0.000E+00

     negative rho (up, down):  1.202E-03 0.000E+00

     negative rho (up, down):  1.202E-03 0.000E+00

     negative rho (up, down):  1.202E-03 0.000E+00

     negative rho (up, down):  1.202E-03 0.000E+00

     negative rho (up, down):  1.202E-03 0.000E+00

     negative rho (up, down):  1.202E-03 0.000E+00

     negative rho (up, down):  1.202E-03 0.000E+00

     negative rho (up, down):  1.202E-03 0.000E+00

     negative rho (up, down):  1.202E-03 0.000E+00
 
     Adding external electric field

     Computed dipole along edir(3) : 
        Dipole                0.1028 Ry au,          0.2612 Debye
        Dipole field          0.0003 Ry au
 
        Potential amp.       -0.0259 Ry
        Total length         45.2844 bohr
 

     total cpu time spent up to now is      555.5 secs

     End of self-consistent calculation

          k = 0.0000 0.0000 0.0000 ( 16931 PWs)   bands (ev):

  -126.1308-126.1057-126.1048-126.1048-125.9142-125.9133-125.9133-125.8957
  -125.8691-125.7629-125.7619-125.7619 -80.3072 -80.3055 -80.3055 -80.2877
   -80.2847 -80.2847 -80.2829 -80.2824 -80.2824 -80.2806 -80.2747 -80.2747
   -80.1014 -80.1000 -80.1000 -80.0942 -80.0915 -80.0915 -80.0837 -80.0822
   -80.0822 -80.0784 -80.0689 -80.0689 -80.0576 -80.0426 -80.0426 -79.9861
   -79.9796 -79.9796 -79.9654 -79.9654 -79.9615 -79.8882 -79.8825 -79.8825
   -14.5631  -8.8366  -7.9086  -7.6580  -7.6580  -7.6562  -7.6530  -7.5673
    -7.5673  -7.5567  -7.4658  -7.4615  -7.4615  -7.3953  -7.3294  -7.3294
    -7.1453  -7.1212  -7.1212  -7.0811  -7.0811  -7.0746  -7.0501  -7.0501
    -7.0180  -7.0054  -7.0054  -6.9914  -6.9526  -6.9526  -6.8656  -6.8656
    -6.7367  -6.7367  -6.6611  -6.6611  -6.6533  -6.6331  -6.6331  -6.6165
    -6.6119  -6.5984  -6.5984  -6.5458  -6.5458  -6.5332  -6.5319  -6.5319
    -6.4954  -6.4954  -6.4365  -6.4289  -6.4240  -6.4240  -6.3921  -6.3921
    -6.3608  -6.3317  -6.3256  -6.3256  -6.2517  -6.2517  -6.2100  -4.7451
    -3.0600  -2.5026  -2.5026  -1.8884  -1.6205  -1.6205  -1.4029  -1.4029
    -1.2727  -0.5938  -0.4747  -0.4747   0.5346   1.0772   1.1225   1.1225
     2.4582   2.8692   2.8692   3.0700   3.6242

          k = 0.0000 0.0343 0.0000 ( 16966 PWs)   bands (ev):

  -126.1308-126.1057-126.1049-126.1048-125.9142-125.9133-125.9133-125.8957
  -125.8691-125.7628-125.7620-125.7619 -80.3073 -80.3053 -80.3051 -80.2871
   -80.2850 -80.2845 -80.2830 -80.2824 -80.2824 -80.2811 -80.2755 -80.2750
   -80.1015 -80.1000 -80.1000 -80.0936 -80.0910 -80.0910 -80.0843 -80.0829
   -80.0823 -80.0785 -80.0694 -80.0691 -80.0577 -80.0426 -80.0425 -79.9858
   -79.9800 -79.9796 -79.9655 -79.9653 -79.9619 -79.8879 -79.8829 -79.8826
   -14.5593  -8.6678  -7.8427  -7.6352  -7.6064  -7.6053  -7.5851  -7.5370
    -7.5369  -7.5175  -7.4480  -7.4315  -7.4305  -7.3494  -7.2927  -7.2775
    -7.1438  -7.1276  -7.0914  -7.0815  -7.0813  -7.0666  -7.0472  -7.0442
    -7.0154  -6.9980  -6.9927  -6.9764  -6.9743  -6.9338  -6.8822  -6.8327
    -6.7872  -6.7408  -6.7131  -6.6990  -6.6945  -6.6677  -6.6633  -6.6324
    -6.6229  -6.6057  -6.6010  -6.5807  -6.5681  -6.5664  -6.5495  -6.5343
    -6.5065  -6.5039  -6.4946  -6.4494  -6.4482  -6.4282  -6.4166  -6.4089
    -6.3776  -6.3726  -6.3650  -6.3248  -6.2880  -6.2594  -6.1794  -4.7691
    -3.7683  -3.1268  -2.9019  -2.5434  -2.1565  -2.0319  -1.3854  -0.5885
    -0.5634  -0.4062  -0.3584   0.1364   0.8334   1.2831   1.5107   1.8000
     2.6646   2.8503   2.9965   3.2476   3.9778

          k = 0.0000 0.0686 0.0000 ( 16996 PWs)   bands (ev):

  -126.1308-126.1056-126.1050-126.1048-125.9140-125.9135-125.9133-125.8957
  -125.8691-125.7627-125.7621-125.7619 -80.3074 -80.3050 -80.3043 -80.2865
   -80.2848 -80.2839 -80.2828 -80.2826 -80.2825 -80.2819 -80.2777 -80.2753
   -80.1012 -80.1003 -80.1000 -80.0924 -80.0897 -80.0896 -80.0855 -80.0848
   -80.0824 -80.0785 -80.0704 -80.0694 -80.0577 -80.0425 -80.0423 -79.9848
   -79.9809 -79.9795 -79.9660 -79.9648 -79.9627 -79.8872 -79.8839 -79.8827
   -14.5517  -8.2023  -7.7009  -7.5864  -7.4784  -7.4774  -7.4604  -7.4544
    -7.4513  -7.4256  -7.4069  -7.3575  -7.3495  -7.2508  -7.1979  -7.1708
    -7.1641  -7.1431  -7.1107  -7.1028  -7.0694  -7.0304  -7.0004  -6.9951
    -6.9928  -6.9706  -6.9669  -6.9595  -6.9530  -6.9065  -6.8920  -6.8624
    -6.8403  -6.8361  -6.7966  -6.7506  -6.7245  -6.7075  -6.7053  -6.6800
    -6.6712  -6.6500  -6.6331  -6.6280  -6.6270  -6.6163  -6.5930  -6.5828
    -6.5544  -6.5502  -6.5458  -6.5429  -6.5219  -6.5102  -6.4868  -6.4595
    -6.4300  -6.4217  -6.4201  -6.3894  -6.3712  -6.3296  -5.8671  -5.5136
    -4.5772  -3.6666  -3.3400  -3.1321  -2.4249  -2.3374  -1.6740  -0.9916
    -0.6384   0.1293   0.5758   1.1003   1.5292   1.9192   2.0581   3.2575
     3.3404   3.5026   3.6985   3.8776   4.5595

          k = 0.0000-0.1030 0.0000 ( 17028 PWs)   bands (ev):

  -126.1308-126.1054-126.1051-126.1048-125.9139-125.9136-125.9133-125.8957
  -125.8691-125.7626-125.7623-125.7619 -80.3074 -80.3049 -80.3039 -80.2868
   -80.2838 -80.2833 -80.2832 -80.2827 -80.2823 -80.2818 -80.2796 -80.2754
   -80.1011 -80.1005 -80.1000 -80.0919 -80.0883 -80.0875 -80.0874 -80.0869
   -80.0824 -80.0785 -80.0710 -80.0695 -80.0577 -80.0425 -80.0423 -79.9841
   -79.9816 -79.9794 -79.9662 -79.9644 -79.9632 -79.8865 -79.8847 -79.8826
   -14.5479  -7.7772  -7.6562  -7.5664  -7.4271  -7.4265  -7.4191  -7.3693
    -7.3308  -7.3288  -7.3223  -7.3220  -7.3097  -7.2898  -7.1744  -7.1712
    -7.1601  -7.1086  -7.0905  -7.0857  -7.0841  -7.0774  -7.0016  -6.9979
    -6.9842  -6.9418  -6.9326  -6.9319  -6.9006  -6.8907  -6.8654  -6.8456
    -6.8382  -6.8324  -6.8022  -6.7700  -6.7637  -6.7590  -6.7414  -6.7202
    -6.7126  -6.6868  -6.6790  -6.6769  -6.6625  -6.6492  -6.6246  -6.6129
    -6.6056  -6.5774  -6.5676  -6.5613  -6.5559  -6.5413  -6.5399  -6.4877
    -6.4458  -6.4329  -6.4220  -6.4176  -6.4176  -6.3899  -6.3390  -5.4129
    -5.0573  -3.8998  -3.4893  -3.0759  -2.7608  -2.4499  -1.8274  -0.6989
    -0.6907  -0.4292   1.1104   1.7513   1.7800   2.6588   3.2442   3.2574
     3.3520   3.5946   4.3348   4.4350   4.7472

          k = 0.0297-0.0172 0.0000 ( 16966 PWs)   bands (ev):

  -126.1308-126.1057-126.1049-126.1048-125.9142-125.9133-125.9133-125.8957
  -125.8691-125.7628-125.7620-125.7619 -80.3073 -80.3053 -80.3051 -80.2871
   -80.2850 -80.2845 -80.2830 -80.2824 -80.2824 -80.2811 -80.2755 -80.2750
   -80.1015 -80.1000 -80.1000 -80.0936 -80.0910 -80.0910 -80.0843 -80.0829
   -80.0823 -80.0785 -80.0694 -80.0691 -80.0577 -80.0426 -80.0425 -79.9858
   -79.9800 -79.9796 -79.9655 -79.9653 -79.9619 -79.8879 -79.8829 -79.8826
   -14.5593  -8.6678  -7.8427  -7.6352  -7.6064  -7.6053  -7.5851  -7.5370
    -7.5369  -7.5175  -7.4480  -7.4315  -7.4305  -7.3494  -7.2927  -7.2775
    -7.1438  -7.1276  -7.0914  -7.0815  -7.0813  -7.0666  -7.0472  -7.0442
    -7.0154  -6.9980  -6.9927  -6.9764  -6.9743  -6.9338  -6.8822  -6.8327
    -6.7872  -6.7408  -6.7131  -6.6990  -6.6945  -6.6677  -6.6633  -6.6324
    -6.6229  -6.6057  -6.6010  -6.5807  -6.5681  -6.5664  -6.5495  -6.5343
    -6.5065  -6.5039  -6.4946  -6.4494  -6.4482  -6.4282  -6.4166  -6.4089
    -6.3776  -6.3726  -6.3650  -6.3248  -6.2880  -6.2594  -6.1794  -4.7691
    -3.7683  -3.1268  -2.9019  -2.5434  -2.1565  -2.0319  -1.3854  -0.5885
    -0.5634  -0.4062  -0.3584   0.1364   0.8334   1.2831   1.5107   1.8000
     2.6646   2.8503   2.9965   3.2476   3.9778

          k = 0.0297 0.0172 0.0000 ( 16966 PWs)   bands (ev):

  -126.1308-126.1057-126.1049-126.1048-125.9142-125.9133-125.9133-125.8957
  -125.8691-125.7628-125.7620-125.7619 -80.3073 -80.3053 -80.3051 -80.2871
   -80.2850 -80.2845 -80.2830 -80.2824 -80.2824 -80.2811 -80.2755 -80.2750
   -80.1015 -80.1000 -80.1000 -80.0936 -80.0910 -80.0910 -80.0843 -80.0829
   -80.0823 -80.0785 -80.0694 -80.0691 -80.0577 -80.0426 -80.0425 -79.9858
   -79.9800 -79.9796 -79.9655 -79.9653 -79.9619 -79.8879 -79.8829 -79.8826
   -14.5593  -8.6678  -7.8427  -7.6352  -7.6064  -7.6053  -7.5851  -7.5370
    -7.5369  -7.5175  -7.4480  -7.4315  -7.4305  -7.3494  -7.2927  -7.2775
    -7.1438  -7.1276  -7.0914  -7.0815  -7.0813  -7.0666  -7.0472  -7.0442
    -7.0154  -6.9980  -6.9927  -6.9764  -6.9743  -6.9338  -6.8822  -6.8327
    -6.7872  -6.7408  -6.7131  -6.6990  -6.6945  -6.6677  -6.6633  -6.6324
    -6.6229  -6.6057  -6.6010  -6.5807  -6.5681  -6.5664  -6.5495  -6.5343
    -6.5065  -6.5039  -6.4946  -6.4494  -6.4482  -6.4282  -6.4166  -6.4089
    -6.3776  -6.3726  -6.3650  -6.3248  -6.2880  -6.2594  -6.1794  -4.7691
    -3.7683  -3.1268  -2.9019  -2.5434  -2.1565  -2.0319  -1.3854  -0.5885
    -0.5634  -0.4062  -0.3584   0.1364   0.8334   1.2831   1.5107   1.8000
     2.6646   2.8503   2.9965   3.2476   3.9778

          k = 0.0297 0.0515 0.0000 ( 16978 PWs)   bands (ev):

  -126.1308-126.1056-126.1050-126.1048-125.9141-125.9134-125.9133-125.8957
  -125.8691-125.7627-125.7621-125.7619 -80.3073 -80.3051 -80.3046 -80.2863
   -80.2855 -80.2840 -80.2827 -80.2827 -80.2824 -80.2817 -80.2768 -80.2752
   -80.1012 -80.1002 -80.1000 -80.0927 -80.0904 -80.0899 -80.0853 -80.0836
   -80.0827 -80.0785 -80.0700 -80.0694 -80.0577 -80.0425 -80.0424 -79.9850
   -79.9806 -79.9795 -79.9658 -79.9649 -79.9625 -79.8874 -79.8836 -79.8827
   -14.5536  -8.3471  -7.7360  -7.5623  -7.5618  -7.4984  -7.4870  -7.4806
    -7.4780  -7.4520  -7.4112  -7.3950  -7.3614  -7.2682  -7.2288  -7.1947
    -7.1719  -7.1433  -7.1040  -7.0734  -7.0576  -7.0515  -7.0169  -7.0141
    -7.0085  -7.0001  -6.9677  -6.9620  -6.9510  -6.9224  -6.8992  -6.8531
    -6.8147  -6.8040  -6.7997  -6.7599  -6.7265  -6.7018  -6.6698  -6.6572
    -6.6505  -6.6357  -6.6324  -6.6215  -6.6064  -6.5849  -6.5788  -6.5540
    -6.5407  -6.5244  -6.5193  -6.5141  -6.5007  -6.4886  -6.4759  -6.4321
    -6.4193  -6.4180  -6.4149  -6.4070  -6.3369  -6.3332  -5.9542  -4.9809
    -4.5134  -4.0764  -3.3022  -3.0673  -2.0058  -1.7899  -1.4902  -1.0439
    -0.8340   0.1241   0.1470   0.6431   1.4402   1.7437   2.3026   2.3253
     3.2163   3.5498   3.6743   4.0809   4.2541

          k = 0.0297-0.1201 0.0000 ( 16986 PWs)   bands (ev):

  -126.1308-126.1054-126.1051-126.1048-125.9139-125.9136-125.9133-125.8957
  -125.8691-125.7626-125.7623-125.7620 -80.3073 -80.3047 -80.3040 -80.2862
   -80.2846 -80.2834 -80.2831 -80.2826 -80.2824 -80.2817 -80.2790 -80.2756
   -80.1010 -80.1004 -80.1000 -80.0915 -80.0892 -80.0880 -80.0872 -80.0853
   -80.0829 -80.0785 -80.0707 -80.0697 -80.0577 -80.0424 -80.0423 -79.9840
   -79.9816 -79.9794 -79.9662 -79.9644 -79.9632 -79.8865 -79.8846 -79.8827
   -14.5479  -7.8430  -7.6026  -7.5113  -7.4223  -7.4194  -7.3949  -7.3886
    -7.3724  -7.3648  -7.3295  -7.3195  -7.2999  -7.2394  -7.2368  -7.2224
    -7.1379  -7.1209  -7.0784  -7.0677  -7.0544  -7.0506  -7.0329  -7.0068
    -6.9807  -6.9685  -6.9571  -6.9461  -6.9191  -6.8951  -6.8862  -6.8689
    -6.8521  -6.8442  -6.8312  -6.7740  -6.7623  -6.7564  -6.7437  -6.7276
    -6.7102  -6.7012  -6.6768  -6.6633  -6.6416  -6.6330  -6.6242  -6.6118
    -6.5859  -6.5810  -6.5695  -6.5514  -6.5461  -6.5258  -6.5005  -6.4806
    -6.4660  -6.4513  -6.4322  -6.4195  -6.4100  -6.3617  -5.9419  -5.5023
    -4.9590  -4.6034  -3.7608  -3.1661  -2.4889  -1.8629  -1.4735  -1.0297
    -0.4896   0.5108   0.6434   0.8381   1.6240   2.3648   2.7772   3.0716
     3.6522   3.8478   4.1490   4.2782   4.9122

          k = 0.0297-0.0858 0.0000 ( 16986 PWs)   bands (ev):

  -126.1308-126.1054-126.1051-126.1048-125.9139-125.9136-125.9133-125.8957
  -125.8691-125.7626-125.7623-125.7620 -80.3073 -80.3047 -80.3040 -80.2862
   -80.2846 -80.2834 -80.2831 -80.2826 -80.2824 -80.2817 -80.2790 -80.2756
   -80.1010 -80.1004 -80.1000 -80.0915 -80.0892 -80.0880 -80.0872 -80.0853
   -80.0829 -80.0785 -80.0707 -80.0697 -80.0577 -80.0424 -80.0423 -79.9840
   -79.9816 -79.9794 -79.9662 -79.9644 -79.9632 -79.8865 -79.8846 -79.8827
   -14.5479  -7.8430  -7.6026  -7.5113  -7.4223  -7.4194  -7.3949  -7.3886
    -7.3724  -7.3648  -7.3295  -7.3195  -7.2999  -7.2394  -7.2368  -7.2224
    -7.1379  -7.1209  -7.0784  -7.0677  -7.0544  -7.0506  -7.0329  -7.0068
    -6.9807  -6.9685  -6.9571  -6.9461  -6.9191  -6.8951  -6.8862  -6.8689
    -6.8521  -6.8442  -6.8312  -6.7740  -6.7623  -6.7564  -6.7437  -6.7276
    -6.7102  -6.7012  -6.6768  -6.6633  -6.6416  -6.6330  -6.6242  -6.6118
    -6.5859  -6.5810  -6.5695  -6.5514  -6.5461  -6.5258  -6.5005  -6.4806
    -6.4660  -6.4513  -6.4322  -6.4195  -6.4100  -6.3617  -5.9419  -5.5023
    -4.9590  -4.6034  -3.7608  -3.1661  -2.4889  -1.8629  -1.4735  -1.0297
    -0.4896   0.5108   0.6434   0.8381   1.6240   2.3648   2.7772   3.0716
     3.6522   3.8478   4.1490   4.2782   4.9122

          k = 0.0297-0.0515 0.0000 ( 16978 PWs)   bands (ev):

  -126.1308-126.1056-126.1050-126.1048-125.9141-125.9134-125.9133-125.8957
  -125.8691-125.7627-125.7621-125.7619 -80.3073 -80.3051 -80.3046 -80.2863
   -80.2855 -80.2840 -80.2827 -80.2827 -80.2824 -80.2817 -80.2768 -80.2752
   -80.1012 -80.1002 -80.1000 -80.0927 -80.0904 -80.0899 -80.0853 -80.0836
   -80.0827 -80.0785 -80.0700 -80.0694 -80.0577 -80.0425 -80.0424 -79.9850
   -79.9806 -79.9795 -79.9658 -79.9649 -79.9625 -79.8874 -79.8836 -79.8827
   -14.5536  -8.3471  -7.7360  -7.5623  -7.5618  -7.4984  -7.4870  -7.4806
    -7.4780  -7.4520  -7.4112  -7.3950  -7.3614  -7.2682  -7.2288  -7.1947
    -7.1719  -7.1433  -7.1040  -7.0734  -7.0576  -7.0515  -7.0169  -7.0141
    -7.0085  -7.0001  -6.9677  -6.9620  -6.9510  -6.9224  -6.8992  -6.8531
    -6.8147  -6.8040  -6.7997  -6.7599  -6.7265  -6.7018  -6.6698  -6.6572
    -6.6505  -6.6357  -6.6324  -6.6215  -6.6064  -6.5849  -6.5788  -6.5540
    -6.5407  -6.5244  -6.5193  -6.5141  -6.5007  -6.4886  -6.4759  -6.4321
    -6.4193  -6.4180  -6.4149  -6.4070  -6.3369  -6.3332  -5.9542  -4.9809
    -4.5134  -4.0764  -3.3022  -3.0673  -2.0058  -1.7899  -1.4902  -1.0439
    -0.8340   0.1241   0.1470   0.6431   1.4402   1.7437   2.3026   2.3253
     3.2163   3.5498   3.6743   4.0809   4.2541

          k = 0.0595-0.0343 0.0000 ( 16996 PWs)   bands (ev):

  -126.1308-126.1056-126.1050-126.1048-125.9140-125.9135-125.9133-125.8957
  -125.8691-125.7627-125.7621-125.7619 -80.3074 -80.3050 -80.3043 -80.2865
   -80.2848 -80.2839 -80.2828 -80.2826 -80.2825 -80.2819 -80.2777 -80.2753
   -80.1012 -80.1003 -80.1000 -80.0924 -80.0897 -80.0896 -80.0855 -80.0848
   -80.0824 -80.0785 -80.0704 -80.0694 -80.0577 -80.0425 -80.0423 -79.9848
   -79.9809 -79.9795 -79.9660 -79.9648 -79.9627 -79.8872 -79.8839 -79.8827
   -14.5517  -8.2023  -7.7009  -7.5864  -7.4784  -7.4774  -7.4604  -7.4544
    -7.4513  -7.4256  -7.4069  -7.3575  -7.3495  -7.2508  -7.1979  -7.1708
    -7.1641  -7.1431  -7.1107  -7.1028  -7.0694  -7.0304  -7.0004  -6.9951
    -6.9928  -6.9706  -6.9669  -6.9595  -6.9530  -6.9065  -6.8920  -6.8624
    -6.8403  -6.8361  -6.7966  -6.7506  -6.7245  -6.7075  -6.7053  -6.6800
    -6.6712  -6.6500  -6.6331  -6.6280  -6.6270  -6.6163  -6.5930  -6.5828
    -6.5544  -6.5502  -6.5458  -6.5429  -6.5219  -6.5102  -6.4868  -6.4595
    -6.4300  -6.4217  -6.4201  -6.3894  -6.3712  -6.3296  -5.8671  -5.5136
    -4.5772  -3.6666  -3.3400  -3.1321  -2.4249  -2.3374  -1.6740  -0.9916
    -0.6384   0.1293   0.5758   1.1003   1.5292   1.9192   2.0581   3.2575
     3.3404   3.5026   3.6985   3.8776   4.5595

          k = 0.0595 0.0000 0.0000 ( 16978 PWs)   bands (ev):

  -126.1308-126.1056-126.1050-126.1048-125.9141-125.9134-125.9133-125.8957
  -125.8691-125.7627-125.7621-125.7620 -80.3073 -80.3051 -80.3046 -80.2863
   -80.2855 -80.2840 -80.2827 -80.2827 -80.2824 -80.2817 -80.2768 -80.2752
   -80.1012 -80.1002 -80.1000 -80.0927 -80.0904 -80.0899 -80.0853 -80.0836
   -80.0827 -80.0785 -80.0700 -80.0694 -80.0577 -80.0425 -80.0424 -79.9850
   -79.9806 -79.9795 -79.9658 -79.9649 -79.9625 -79.8874 -79.8836 -79.8827
   -14.5536  -8.3471  -7.7360  -7.5623  -7.5618  -7.4984  -7.4870  -7.4806
    -7.4780  -7.4520  -7.4112  -7.3950  -7.3614  -7.2682  -7.2288  -7.1947
    -7.1719  -7.1433  -7.1040  -7.0734  -7.0576  -7.0515  -7.0169  -7.0141
    -7.0085  -7.0001  -6.9677  -6.9620  -6.9510  -6.9224  -6.8992  -6.8531
    -6.8147  -6.8040  -6.7997  -6.7599  -6.7265  -6.7018  -6.6698  -6.6572
    -6.6505  -6.6357  -6.6324  -6.6215  -6.6064  -6.5849  -6.5788  -6.5540
    -6.5407  -6.5244  -6.5193  -6.5141  -6.5007  -6.4886  -6.4759  -6.4321
    -6.4193  -6.4180  -6.4149  -6.4070  -6.3369  -6.3332  -5.9542  -4.9809
    -4.5134  -4.0764  -3.3022  -3.0673  -2.0058  -1.7899  -1.4902  -1.0439
    -0.8340   0.1241   0.1470   0.6431   1.4402   1.7437   2.3026   2.3253
     3.2163   3.5498   3.6743   4.0809   4.2541

          k = 0.0595 0.0343 0.0000 ( 16996 PWs)   bands (ev):

  -126.1308-126.1056-126.1050-126.1048-125.9140-125.9135-125.9133-125.8957
  -125.8691-125.7627-125.7621-125.7619 -80.3074 -80.3050 -80.3043 -80.2865
   -80.2848 -80.2839 -80.2828 -80.2826 -80.2825 -80.2819 -80.2777 -80.2753
   -80.1012 -80.1003 -80.1000 -80.0924 -80.0897 -80.0896 -80.0855 -80.0848
   -80.0824 -80.0785 -80.0704 -80.0694 -80.0577 -80.0425 -80.0423 -79.9848
   -79.9809 -79.9795 -79.9660 -79.9648 -79.9627 -79.8872 -79.8839 -79.8827
   -14.5517  -8.2023  -7.7009  -7.5864  -7.4784  -7.4774  -7.4604  -7.4544
    -7.4513  -7.4256  -7.4069  -7.3575  -7.3495  -7.2508  -7.1979  -7.1708
    -7.1641  -7.1431  -7.1107  -7.1028  -7.0694  -7.0304  -7.0004  -6.9951
    -6.9928  -6.9706  -6.9669  -6.9595  -6.9530  -6.9065  -6.8920  -6.8624
    -6.8403  -6.8361  -6.7966  -6.7506  -6.7245  -6.7075  -6.7053  -6.6800
    -6.6712  -6.6500  -6.6331  -6.6280  -6.6270  -6.6163  -6.5930  -6.5828
    -6.5544  -6.5502  -6.5458  -6.5429  -6.5219  -6.5102  -6.4868  -6.4595
    -6.4300  -6.4217  -6.4201  -6.3894  -6.3712  -6.3296  -5.8671  -5.5136
    -4.5772  -3.6666  -3.3400  -3.1321  -2.4249  -2.3374  -1.6740  -0.9916
    -0.6384   0.1293   0.5758   1.1003   1.5292   1.9192   2.0581   3.2575
     3.3404   3.5026   3.6985   3.8776   4.5595

          k = 0.0595-0.1373 0.0000 ( 16986 PWs)   bands (ev):

  -126.1308-126.1054-126.1051-126.1048-125.9139-125.9136-125.9133-125.8957
  -125.8691-125.7626-125.7623-125.7620 -80.3073 -80.3047 -80.3040 -80.2862
   -80.2846 -80.2834 -80.2831 -80.2826 -80.2824 -80.2817 -80.2790 -80.2756
   -80.1010 -80.1004 -80.1000 -80.0915 -80.0892 -80.0880 -80.0872 -80.0853
   -80.0829 -80.0785 -80.0707 -80.0697 -80.0577 -80.0424 -80.0423 -79.9840
   -79.9816 -79.9794 -79.9662 -79.9644 -79.9632 -79.8865 -79.8846 -79.8827
   -14.5479  -7.8430  -7.6026  -7.5113  -7.4223  -7.4194  -7.3949  -7.3886
    -7.3724  -7.3648  -7.3295  -7.3195  -7.2999  -7.2394  -7.2368  -7.2224
    -7.1379  -7.1209  -7.0784  -7.0677  -7.0544  -7.0506  -7.0329  -7.0068
    -6.9807  -6.9685  -6.9571  -6.9461  -6.9191  -6.8951  -6.8862  -6.8689
    -6.8521  -6.8442  -6.8312  -6.7740  -6.7623  -6.7564  -6.7437  -6.7276
    -6.7102  -6.7012  -6.6768  -6.6633  -6.6416  -6.6330  -6.6242  -6.6118
    -6.5859  -6.5810  -6.5695  -6.5514  -6.5461  -6.5258  -6.5005  -6.4806
    -6.4660  -6.4513  -6.4322  -6.4195  -6.4100  -6.3617  -5.9419  -5.5023
    -4.9590  -4.6034  -3.7608  -3.1661  -2.4889  -1.8629  -1.4735  -1.0297
    -0.4896   0.5108   0.6434   0.8381   1.6240   2.3648   2.7772   3.0716
     3.6522   3.8478   4.1490   4.2782   4.9122

          k = 0.0595-0.1030 0.0000 ( 17004 PWs)   bands (ev):

  -126.1308-126.1053-126.1053-126.1048-125.9138-125.9138-125.9133-125.8957
  -125.8691-125.7625-125.7624-125.7620 -80.3073 -80.3043 -80.3043 -80.2855
   -80.2845 -80.2845 -80.2829 -80.2829 -80.2826 -80.2803 -80.2802 -80.2761
   -80.1007 -80.1007 -80.1000 -80.0900 -80.0900 -80.0885 -80.0861 -80.0861
   -80.0837 -80.0785 -80.0704 -80.0704 -80.0577 -80.0424 -80.0424 -79.9830
   -79.9826 -79.9793 -79.9663 -79.9641 -79.9638 -79.8857 -79.8855 -79.8827
   -14.5461  -7.6510  -7.4296  -7.4002  -7.3525  -7.3431  -7.3429  -7.3419
    -7.3365  -7.3291  -7.3057  -7.2992  -7.2979  -7.2828  -7.2818  -7.2779
    -7.2508  -7.1694  -7.1661  -7.0348  -7.0310  -7.0259  -6.9922  -6.9769
    -6.9606  -6.9586  -6.9513  -6.9393  -6.9114  -6.9070  -6.9024  -6.8746
    -6.8620  -6.8446  -6.8219  -6.8161  -6.8126  -6.8013  -6.7879  -6.7720
    -6.7690  -6.7097  -6.6916  -6.6884  -6.6740  -6.6648  -6.6258  -6.5968
    -6.5955  -6.5841  -6.5661  -6.5650  -6.5216  -6.5146  -6.5017  -6.4785
    -6.4675  -6.4650  -6.4401  -6.4145  -6.4119  -6.0807  -5.9836  -5.9296
    -5.1198  -4.5527  -4.5082  -3.0395  -2.4647  -2.3270  -0.6735  -0.5790
    -0.2670   0.6504   0.7047   0.7227   1.9196   1.9971   2.0701   2.9746
     3.1883   3.4402   4.6833   4.7565   5.2591

          k = 0.0595-0.0686 0.0000 ( 16986 PWs)   bands (ev):

  -126.1308-126.1054-126.1051-126.1048-125.9139-125.9136-125.9133-125.8957
  -125.8691-125.7626-125.7622-125.7620 -80.3073 -80.3047 -80.3040 -80.2862
   -80.2846 -80.2834 -80.2831 -80.2826 -80.2824 -80.2817 -80.2790 -80.2756
   -80.1010 -80.1004 -80.1000 -80.0915 -80.0892 -80.0880 -80.0872 -80.0853
   -80.0829 -80.0785 -80.0707 -80.0697 -80.0577 -80.0424 -80.0423 -79.9840
   -79.9816 -79.9794 -79.9662 -79.9644 -79.9632 -79.8865 -79.8846 -79.8827
   -14.5479  -7.8430  -7.6026  -7.5113  -7.4223  -7.4194  -7.3949  -7.3886
    -7.3724  -7.3648  -7.3295  -7.3195  -7.2999  -7.2394  -7.2368  -7.2224
    -7.1379  -7.1209  -7.0784  -7.0677  -7.0544  -7.0506  -7.0329  -7.0068
    -6.9807  -6.9685  -6.9571  -6.9461  -6.9191  -6.8951  -6.8862  -6.8689
    -6.8521  -6.8442  -6.8312  -6.7740  -6.7623  -6.7564  -6.7437  -6.7276
    -6.7102  -6.7012  -6.6768  -6.6633  -6.6416  -6.6330  -6.6242  -6.6118
    -6.5859  -6.5810  -6.5695  -6.5514  -6.5461  -6.5258  -6.5005  -6.4806
    -6.4660  -6.4513  -6.4322  -6.4195  -6.4100  -6.3617  -5.9419  -5.5023
    -4.9590  -4.6034  -3.7608  -3.1661  -2.4889  -1.8629  -1.4735  -1.0297
    -0.4896   0.5108   0.6434   0.8381   1.6240   2.3648   2.7772   3.0716
     3.6522   3.8478   4.1490   4.2782   4.9122

          k =-0.0892 0.0515 0.0000 ( 17028 PWs)   bands (ev):

  -126.1308-126.1054-126.1051-126.1048-125.9139-125.9136-125.9133-125.8957
  -125.8691-125.7626-125.7623-125.7619 -80.3074 -80.3049 -80.3039 -80.2868
   -80.2838 -80.2833 -80.2832 -80.2827 -80.2823 -80.2818 -80.2796 -80.2754
   -80.1011 -80.1005 -80.1000 -80.0919 -80.0883 -80.0875 -80.0874 -80.0869
   -80.0824 -80.0785 -80.0710 -80.0695 -80.0577 -80.0425 -80.0423 -79.9841
   -79.9816 -79.9794 -79.9662 -79.9644 -79.9632 -79.8865 -79.8847 -79.8826
   -14.5479  -7.7772  -7.6562  -7.5664  -7.4271  -7.4265  -7.4191  -7.3693
    -7.3308  -7.3288  -7.3223  -7.3220  -7.3097  -7.2898  -7.1744  -7.1712
    -7.1601  -7.1086  -7.0905  -7.0857  -7.0841  -7.0774  -7.0016  -6.9979
    -6.9842  -6.9418  -6.9326  -6.9319  -6.9006  -6.8907  -6.8654  -6.8456
    -6.8382  -6.8324  -6.8022  -6.7700  -6.7637  -6.7590  -6.7414  -6.7202
    -6.7126  -6.6868  -6.6790  -6.6769  -6.6625  -6.6492  -6.6246  -6.6129
    -6.6056  -6.5774  -6.5676  -6.5613  -6.5559  -6.5413  -6.5399  -6.4877
    -6.4458  -6.4329  -6.4220  -6.4176  -6.4176  -6.3899  -6.3390  -5.4129
    -5.0573  -3.8998  -3.4893  -3.0759  -2.7608  -2.4499  -1.8274  -0.6989
    -0.6907  -0.4292   1.1104   1.7513   1.7800   2.6588   3.2442   3.2574
     3.3520   3.5946   4.3348   4.4350   4.7472
[...]
   -15.0584  -7.9285  -7.5955  -7.3873  -7.3031  -7.2899  -7.2758  -7.2608
    -7.2535  -7.2443  -7.2355  -7.1925  -7.1839  -7.1057  -7.0589  -7.0200
    -6.9984  -6.9789  -6.9581  -6.9439  -6.9121  -6.8838  -6.8595  -6.8558
    -6.8554  -6.8242  -6.7948  -6.7877  -6.7738  -6.7360  -6.7334  -6.7028
    -6.6831  -6.6674  -6.6664  -6.6344  -6.5962  -6.5734  -6.5532  -6.5421
    -6.5285  -6.5194  -6.5019  -6.4986  -6.4761  -6.4737  -6.4637  -6.4499
    -6.4472  -6.4132  -6.3959  -6.3918  -6.3818  -6.3441  -6.3188  -6.3041
    -6.2936  -6.2726  -6.2725  -6.2440  -6.2147  -6.0983  -5.6285  -5.3258
    -4.4692  -3.6462  -3.3581  -3.0697  -2.4215  -2.3435  -1.8675  -0.8625
    -0.3901   0.3116   0.4925   1.2904   1.7169   2.1245   2.1987   3.3117
     3.4566   3.7172   3.9842   4.1372   4.4968

          k = 0.0595-0.1373 0.0000 ( 16986 PWs)   bands (ev):

  -125.9325-125.9322-125.9319-125.9118-125.7824-125.7821-125.7818-125.7711
  -125.7036-125.6179-125.6155-125.6154 -80.1127 -80.1117 -80.1102 -80.1098
   -80.1091 -80.1088 -80.1083 -80.1053 -80.1019 -80.0994 -80.0823 -80.0816
   -79.9705 -79.9702 -79.9699 -79.9589 -79.9583 -79.9559 -79.9557 -79.9543
   -79.9522 -79.9488 -79.9456 -79.9442 -79.8930 -79.8748 -79.8747 -79.8454
   -79.8372 -79.8368 -79.8144 -79.8137 -79.8047 -79.7519 -79.7349 -79.7339
   -15.0528  -7.6243  -7.4361  -7.3054  -7.2697  -7.2315  -7.2162  -7.2079
    -7.1973  -7.1869  -7.1587  -7.1379  -7.1273  -7.0736  -7.0519  -7.0247
    -6.9996  -6.9772  -6.9407  -6.9289  -6.9015  -6.8832  -6.8736  -6.8494
    -6.8338  -6.8156  -6.8075  -6.7928  -6.7776  -6.7657  -6.7583  -6.7404
    -6.7301  -6.6877  -6.6673  -6.6423  -6.6284  -6.6190  -6.6073  -6.5957
    -6.5727  -6.5590  -6.5416  -6.5209  -6.5134  -6.4907  -6.4805  -6.4568
    -6.4416  -6.4320  -6.4168  -6.3988  -6.3913  -6.3834  -6.3435  -6.3292
    -6.3124  -6.2928  -6.2711  -6.2501  -6.2093  -6.1698  -5.7032  -5.3081
    -4.8340  -4.5406  -3.7171  -3.1720  -2.5600  -1.8789  -1.4185  -0.9898
    -0.5908   0.6069   0.9615   1.1133   1.6766   2.2952   3.0686   3.3131
     3.8002   3.9693   4.0174   4.5363   4.9380

          k = 0.0595-0.1030 0.0000 ( 17004 PWs)   bands (ev):

  -125.9323-125.9323-125.9319-125.9118-125.7822-125.7822-125.7818-125.7711
  -125.7036-125.6179-125.6155-125.6154 -80.1119 -80.1112 -80.1112 -80.1095
   -80.1094 -80.1089 -80.1068 -80.1068 -80.1024 -80.0994 -80.0821 -80.0821
   -79.9703 -79.9703 -79.9699 -79.9579 -79.9575 -79.9575 -79.9543 -79.9539
   -79.9539 -79.9492 -79.9451 -79.9451 -79.8930 -79.8748 -79.8748 -79.8453
   -79.8373 -79.8368 -79.8144 -79.8138 -79.8049 -79.7518 -79.7351 -79.7339
   -15.0500  -7.3897  -7.3896  -7.2292  -7.2240  -7.1834  -7.1656  -7.1509
    -7.1441  -7.1439  -7.1262  -7.1197  -7.1181  -7.0808  -7.0705  -7.0407
    -7.0215  -7.0078  -6.9721  -6.9485  -6.9138  -6.8843  -6.8649  -6.8618
    -6.8361  -6.8166  -6.8057  -6.7995  -6.7739  -6.7691  -6.7607  -6.7571
    -6.7540  -6.7441  -6.7119  -6.6917  -6.6812  -6.6353  -6.5944  -6.5877
    -6.5788  -6.5699  -6.5542  -6.5265  -6.5198  -6.4908  -6.4722  -6.4532
    -6.4532  -6.4452  -6.4045  -6.3990  -6.3880  -6.3877  -6.3749  -6.3231
    -6.3018  -6.2852  -6.2599  -6.2556  -6.2339  -5.8561  -5.7541  -5.7442
    -4.9048  -4.6357  -4.5027  -2.6050  -2.5474  -2.5469  -1.0862  -0.6708
    -0.0814   0.8688   1.0393   1.1583   1.6395   2.0706   2.2654   3.2646
     3.5723   3.6442   4.4528   4.8263   5.0919

          k = 0.0595-0.0686 0.0000 ( 16986 PWs)   bands (ev):

  -125.9325-125.9322-125.9319-125.9118-125.7824-125.7821-125.7818-125.7711
  -125.7036-125.6179-125.6155-125.6154 -80.1127 -80.1117 -80.1102 -80.1098
   -80.1091 -80.1088 -80.1083 -80.1053 -80.1019 -80.0994 -80.0823 -80.0816
   -79.9705 -79.9702 -79.9699 -79.9589 -79.9583 -79.9559 -79.9557 -79.9543
   -79.9522 -79.9488 -79.9456 -79.9442 -79.8930 -79.8748 -79.8747 -79.8454
   -79.8372 -79.8368 -79.8144 -79.8137 -79.8047 -79.7519 -79.7349 -79.7339
   -15.0528  -7.6243  -7.4361  -7.3054  -7.2697  -7.2315  -7.2162  -7.2079
    -7.1973  -7.1869  -7.1587  -7.1379  -7.1273  -7.0736  -7.0519  -7.0247
    -6.9996  -6.9772  -6.9407  -6.9289  -6.9015  -6.8832  -6.8736  -6.8494
    -6.8338  -6.8156  -6.8075  -6.7928  -6.7776  -6.7657  -6.7583  -6.7404
    -6.7301  -6.6877  -6.6673  -6.6423  -6.6284  -6.6190  -6.6073  -6.5957
    -6.5727  -6.5590  -6.5416  -6.5209  -6.5134  -6.4907  -6.4805  -6.4568
    -6.4416  -6.4320  -6.4168  -6.3988  -6.3913  -6.3834  -6.3435  -6.3292
    -6.3124  -6.2928  -6.2711  -6.2501  -6.2093  -6.1698  -5.7032  -5.3081
    -4.8340  -4.5406  -3.7171  -3.1720  -2.5600  -1.8789  -1.4185  -0.9898
    -0.5908   0.6069   0.9616   1.1133   1.6766   2.2952   3.0686   3.3131
     3.8002   3.9693   4.0174   4.5363   4.9380

          k =-0.0892 0.0515 0.0000 ( 17028 PWs)   bands (ev):

  -125.9325-125.9322-125.9319-125.9118-125.7824-125.7821-125.7818-125.7711
  -125.7036-125.6179-125.6155-125.6154 -80.1132 -80.1111 -80.1102 -80.1096
   -80.1096 -80.1087 -80.1081 -80.1060 -80.1017 -80.0994 -80.0824 -80.0814
   -79.9706 -79.9702 -79.9698 -79.9593 -79.9582 -79.9556 -79.9552 -79.9543
   -79.9530 -79.9485 -79.9460 -79.9439 -79.8930 -79.8749 -79.8748 -79.8454
   -79.8372 -79.8368 -79.8145 -79.8138 -79.8047 -79.7520 -79.7349 -79.7339
   -15.0527  -7.6054  -7.4562  -7.3536  -7.2696  -7.2409  -7.2104  -7.2044
    -7.1911  -7.1624  -7.1583  -7.1215  -7.1127  -7.0845  -7.0316  -7.0089
    -6.9856  -6.9785  -6.9427  -6.9127  -6.8914  -6.8823  -6.8626  -6.8524
    -6.8252  -6.8100  -6.7900  -6.7837  -6.7706  -6.7637  -6.7315  -6.7181
    -6.7053  -6.6942  -6.6574  -6.6559  -6.6359  -6.6299  -6.6233  -6.5962
    -6.5819  -6.5591  -6.5377  -6.5265  -6.5235  -6.4844  -6.4842  -6.4737
    -6.4666  -6.4429  -6.4236  -6.3983  -6.3970  -6.3924  -6.3274  -6.2950
    -6.2842  -6.2816  -6.2755  -6.2608  -6.2458  -6.1597  -6.1418  -5.1490
    -5.0707  -3.7468  -3.4889  -2.9167  -2.7882  -2.5491  -1.9377  -0.9007
    -0.4311   0.0361   1.1139   1.5769   1.8456   2.7946   3.4723   3.5928
     3.6642   3.9037   4.0973   4.4507   4.8235

          k =-0.0892 0.0858 0.0000 ( 16986 PWs)   bands (ev):

  -125.9325-125.9322-125.9319-125.9118-125.7824-125.7821-125.7818-125.7711
  -125.7036-125.6179-125.6155-125.6154 -80.1127 -80.1117 -80.1102 -80.1098
   -80.1091 -80.1088 -80.1083 -80.1053 -80.1019 -80.0994 -80.0823 -80.0816
   -79.9705 -79.9702 -79.9699 -79.9589 -79.9583 -79.9559 -79.9557 -79.9543
   -79.9522 -79.9488 -79.9456 -79.9442 -79.8930 -79.8748 -79.8747 -79.8454
   -79.8372 -79.8368 -79.8144 -79.8137 -79.8047 -79.7519 -79.7349 -79.7339
   -15.0528  -7.6243  -7.4361  -7.3054  -7.2697  -7.2315  -7.2162  -7.2079
    -7.1973  -7.1869  -7.1587  -7.1379  -7.1273  -7.0736  -7.0519  -7.0247
    -6.9996  -6.9772  -6.9407  -6.9289  -6.9015  -6.8832  -6.8736  -6.8494
    -6.8338  -6.8156  -6.8075  -6.7928  -6.7776  -6.7657  -6.7583  -6.7404
    -6.7301  -6.6877  -6.6673  -6.6423  -6.6284  -6.6190  -6.6073  -6.5957
    -6.5727  -6.5590  -6.5416  -6.5209  -6.5134  -6.4907  -6.4805  -6.4568
    -6.4416  -6.4320  -6.4168  -6.3988  -6.3913  -6.3834  -6.3435  -6.3292
    -6.3124  -6.2928  -6.2711  -6.2501  -6.2093  -6.1698  -5.7032  -5.3081
    -4.8340  -4.5406  -3.7171  -3.1720  -2.5600  -1.8789  -1.4185  -0.9898
    -0.5908   0.6069   0.9616   1.1133   1.6766   2.2952   3.0686   3.3131
     3.8002   3.9693   4.0174   4.5363   4.9380

          k =-0.0892 0.1201 0.0000 ( 16986 PWs)   bands (ev):

  -125.9325-125.9322-125.9319-125.9118-125.7824-125.7821-125.7818-125.7711
  -125.7036-125.6179-125.6155-125.6154 -80.1127 -80.1117 -80.1102 -80.1098
   -80.1091 -80.1088 -80.1083 -80.1053 -80.1019 -80.0994 -80.0823 -80.0816
   -79.9705 -79.9702 -79.9699 -79.9589 -79.9583 -79.9559 -79.9557 -79.9543
   -79.9522 -79.9488 -79.9456 -79.9442 -79.8930 -79.8748 -79.8747 -79.8454
   -79.8372 -79.8368 -79.8144 -79.8137 -79.8047 -79.7519 -79.7349 -79.7339
   -15.0528  -7.6243  -7.4361  -7.3054  -7.2697  -7.2315  -7.2162  -7.2079
    -7.1973  -7.1869  -7.1587  -7.1379  -7.1273  -7.0736  -7.0519  -7.0247
    -6.9996  -6.9772  -6.9407  -6.9289  -6.9015  -6.8832  -6.8736  -6.8494
    -6.8338  -6.8156  -6.8075  -6.7928  -6.7776  -6.7657  -6.7583  -6.7404
    -6.7301  -6.6877  -6.6673  -6.6423  -6.6284  -6.6190  -6.6073  -6.5957
    -6.5727  -6.5590  -6.5416  -6.5209  -6.5134  -6.4907  -6.4805  -6.4568
    -6.4416  -6.4320  -6.4168  -6.3988  -6.3913  -6.3834  -6.3435  -6.3292
    -6.3124  -6.2928  -6.2711  -6.2501  -6.2093  -6.1698  -5.7033  -5.3081
    -4.8340  -4.5406  -3.7171  -3.1720  -2.5600  -1.8789  -1.4185  -0.9898
    -0.5908   0.6069   0.9616   1.1133   1.6766   2.2952   3.0686   3.3131
     3.8002   3.9693   4.0174   4.5363   4.9380

          k =-0.0892-0.0515 0.0000 ( 17028 PWs)   bands (ev):

  -125.9325-125.9322-125.9319-125.9118-125.7824-125.7821-125.7818-125.7711
  -125.7036-125.6179-125.6155-125.6154 -80.1132 -80.1111 -80.1102 -80.1096
   -80.1096 -80.1087 -80.1081 -80.1060 -80.1017 -80.0994 -80.0824 -80.0814
   -79.9706 -79.9702 -79.9698 -79.9593 -79.9582 -79.9556 -79.9552 -79.9543
   -79.9530 -79.9485 -79.9460 -79.9439 -79.8930 -79.8749 -79.8748 -79.8454
   -79.8372 -79.8368 -79.8145 -79.8138 -79.8047 -79.7520 -79.7349 -79.7339
   -15.0527  -7.6054  -7.4562  -7.3536  -7.2696  -7.2409  -7.2104  -7.2044
    -7.1911  -7.1624  -7.1583  -7.1215  -7.1127  -7.0845  -7.0316  -7.0089
    -6.9856  -6.9785  -6.9427  -6.9127  -6.8914  -6.8823  -6.8626  -6.8524
    -6.8252  -6.8100  -6.7900  -6.7837  -6.7706  -6.7637  -6.7315  -6.7181
    -6.7053  -6.6942  -6.6574  -6.6559  -6.6359  -6.6299  -6.6233  -6.5962
    -6.5819  -6.5591  -6.5377  -6.5265  -6.5235  -6.4844  -6.4842  -6.4737
    -6.4666  -6.4429  -6.4236  -6.3983  -6.3970  -6.3924  -6.3274  -6.2950
    -6.2842  -6.2816  -6.2755  -6.2608  -6.2458  -6.1597  -6.1418  -5.1490
    -5.0707  -3.7468  -3.4889  -2.9167  -2.7882  -2.5491  -1.9377  -0.9007
    -0.4311   0.0361   1.1139   1.5769   1.8456   2.7946   3.4723   3.5928
     3.6642   3.9037   4.0973   4.4507   4.8235

     the Fermi energy is     0.8393 ev

!    total energy              =   -5574.82113233 Ry
     Harris-Foulkes estimate   =   -5574.82113211 Ry
     estimated scf accuracy    <       0.00000004 Ry

     The total energy is the sum of the following terms:

     one-electron contribution =  -35528.64518346 Ry
     hartree contribution      =   17748.35432746 Ry
     xc contribution           =    -527.28412134 Ry
     ewald contribution        =   12732.77586810 Ry
     electric field correction =       0.00010594 Ry
     smearing contrib. (-TS)   =      -0.02212903 Ry

     convergence has been achieved in   6 iterations
 
 BEEF-vdW xc energy contributions
           1 :   -468.283254634481     
           2 :    424.264411017991     
           3 :   -350.461497065499     
           4 :    268.292698934883     
           5 :   -196.667422786147     
           6 :    144.926483902700     
           7 :   -111.620712483817     
           8 :    88.8042299079660     
           9 :   -68.5354474478240     
          10 :    47.5057400444541     
          11 :   -27.5079418931553     
          12 :    12.3970646739160     
          13 :   -4.30859230195557     
          14 :    1.87721796958766     
          15 :   -1.35814638587783     
          16 :  -0.620454842890069     
          17 :    4.90184887905758     
          18 :   -9.73532310089786     
          19 :    12.5824001943950     
          20 :   -12.2449633793918     
          21 :    9.71642172879484     
          22 :   -7.28149219139908     
          23 :    6.72905985928747     
          24 :   -8.10941177303545     
          25 :    9.91172120675441     
          26 :   -10.3913116670843     
          27 :    8.93718627931850     
          28 :   -6.44535323709482     
          29 :    4.50956312421238     
          30 :   -4.15431884610115     
          31 :   -36.4335265783433     
          32 :   -24.8425567962003     

     Forces acting on atoms (Ry/au):


     negative rho (up, down):  1.195E-03 0.000E+00
     atom    1 type  1   force =    -0.00084911   -0.00049021   -0.01165965
     atom    2 type  1   force =     0.00084905   -0.00049026   -0.01165956
     atom    3 type  1   force =    -0.00000006    0.00098050   -0.01165962
     atom    4 type  1   force =     0.00000005    0.00000002   -0.00710293
     atom    5 type  1   force =    -0.00000021    0.00561546    0.01054955
     atom    6 type  1   force =     0.00000017    0.00000004    0.00473300
     atom    7 type  1   force =    -0.00486310   -0.00280754    0.01054940
     atom    8 type  1   force =     0.00486353   -0.00280800    0.01054797
     atom    9 type  1   force =    -0.00000243    0.00000255    0.00169370
     atom   10 type  1   force =     0.00000252    0.00065559    0.00103845
     atom   11 type  1   force =     0.00056809   -0.00032844    0.00104046
     atom   12 type  1   force =    -0.00056749   -0.00033083    0.00103962
     atom   13 type  2   force =    -0.00000086   -0.00000064    0.00173814
     atom   14 type  3   force =    -0.00000016    0.00000176   -0.00084852

     Total force =     0.003338     Total SCF correction =     0.000324


     entering subroutine stress ...


     negative rho (up, down):  1.195E-03 0.000E+00
          total   stress  (Ry/bohr**3)                   (kbar)     P=  -11.60
  -0.00011549   0.00000000  -0.00000000        -16.99      0.00     -0.00
   0.00000000  -0.00011549   0.00000000          0.00    -16.99      0.00
  -0.00000000   0.00000000  -0.00000563         -0.00      0.00     -0.83


     bfgs converged in  18 scf cycles and  17 bfgs steps
     (criteria: energy <  1.0E+00, force <  1.9E-03)

     End of BFGS Geometry Optimization

     Final energy   =   -5574.8211323264 Ry
Begin final coordinates

ATOMIC_POSITIONS (crystal)
Zn1      0.166666667   0.166666667   0.406869400    0   0   0
Zn1      0.666666667   0.166666667   0.406869400    0   0   0
Zn1      0.166666667   0.666666667   0.406869400    0   0   0
Zn1      0.666666667   0.666666667   0.406869400    0   0   0
Zn1      0.833333333   0.333333333   0.500000000    0   0   0
Zn1      0.333333333   0.333333333   0.500000000    0   0   0
Zn1      0.833333333   0.833333333   0.500000000    0   0   0
Zn1      0.333333333   0.833333333   0.500000000    0   0   0
Zn1      0.000003073  -0.000001578   0.588617949
Zn1      0.517590432  -0.035186867   0.603958019
Zn1     -0.035189962   0.517597474   0.603958595
Zn1      0.517593335   0.517598328   0.603958775
N1       0.333334064   0.333334460   0.636812442
H1       0.333337047   0.333328476   0.678456802
End final coordinates



     Writing output data file calc.save
 
     init_run     :     11.14s CPU     11.63s WALL (       1 calls)
     electrons    :   4015.76s CPU   4272.64s WALL (      18 calls)
     update_pot   :     44.95s CPU     47.40s WALL (      17 calls)
     forces       :    264.55s CPU    277.19s WALL (      18 calls)
     stress       :    836.22s CPU    880.79s WALL (      18 calls)

     Called by init_run:
     wfcinit      :      4.93s CPU      5.04s WALL (       1 calls)
     potinit      :      1.98s CPU      2.18s WALL (       1 calls)

     Called by electrons:
     c_bands      :   1730.09s CPU   1800.78s WALL (     136 calls)
     sum_band     :    736.75s CPU    785.45s WALL (     136 calls)
     v_of_rho     :    229.66s CPU    270.54s WALL (     142 calls)
     newd         :    563.55s CPU    575.95s WALL (     142 calls)
     mix_rho      :      6.92s CPU      7.09s WALL (     136 calls)
     vdW_energy   :    158.25s CPU    176.27s WALL (     790 calls)
     vdW_ffts     :    402.08s CPU    420.33s WALL (    1616 calls)
     vdW_v        :    155.58s CPU    162.76s WALL (     790 calls)

     Called by c_bands:
     init_us_2    :      8.19s CPU      8.26s WALL (    1545 calls)
     cegterg      :   1643.04s CPU   1687.34s WALL (     680 calls)

     Called by *egterg:
     h_psi        :   1049.42s CPU   1074.56s WALL (    2628 calls)
     s_psi        :     81.58s CPU     81.84s WALL (    2628 calls)
     g_psi        :      5.17s CPU      5.18s WALL (    1943 calls)
     cdiaghg      :    180.23s CPU    181.92s WALL (    2478 calls)

     Called by h_psi:
     add_vuspsi   :     83.80s CPU     84.05s WALL (    2628 calls)

     General routines
     calbec       :    140.90s CPU    144.91s WALL (    3488 calls)
     fft          :    623.27s CPU    674.37s WALL (   47291 calls)
     ffts         :      0.48s CPU      0.53s WALL (     278 calls)
     fftw         :    678.37s CPU    707.18s WALL (  504654 calls)
     interpolate  :      5.02s CPU      5.14s WALL (     278 calls)
     davcio       :      0.00s CPU      0.04s WALL (       5 calls)
 
     Parallel routines
     fft_scatter  :    754.61s CPU    830.50s WALL (  552223 calls)
 
     PWSCF        :     1h27m CPU        1h33m WALL

 
   This run was terminated on:   6: 9:42  25Apr2018            

=------------------------------------------------------------------------------=
   JOB DONE.
=------------------------------------------------------------------------------=
Job  /afs/slac/g/suncat/bin/suncat-tsmpirun -x LD_LIBRARY_PATH -wdir /scratch/qe311965_VkSo8 pw.x -npool 4 -in pw.inp

TID   HOST_NAME   COMMAND_LINE            STATUS            TERMINATION_TIME
===== ========== ================  =======================  ===================
00000 suncat0061 pw.x -npool 4 -i  Done                     04/25/2018 06:09:42
00001 suncat0061 pw.x -npool 4 -i  Done                     04/25/2018 06:09:42
00002 suncat0061 pw.x -npool 4 -i  Done                     04/25/2018 06:09:42
00003 suncat0061 pw.x -npool 4 -i  Done                     04/25/2018 06:09:42
00004 suncat0061 pw.x -npool 4 -i  Done                     04/25/2018 06:09:42
00005 suncat0061 pw.x -npool 4 -i  Done                     04/25/2018 06:09:42
00006 suncat0061 pw.x -npool 4 -i  Done                     04/25/2018 06:09:42
00007 suncat0061 pw.x -npool 4 -i  Done                     04/25/2018 06:09:42
00008 suncat0057 pw.x -npool 4 -i  Done                     04/25/2018 06:09:42
00009 suncat0057 pw.x -npool 4 -i  Done                     04/25/2018 06:09:42
00010 suncat0057 pw.x -npool 4 -i  Done                     04/25/2018 06:09:42
00011 suncat0057 pw.x -npool 4 -i  Done                     04/25/2018 06:09:42
00012 suncat0057 pw.x -npool 4 -i  Done                     04/25/2018 06:09:42
00013 suncat0057 pw.x -npool 4 -i  Done                     04/25/2018 06:09:42
00014 suncat0057 pw.x -npool 4 -i  Done                     04/25/2018 06:09:42
00015 suncat0057 pw.x -npool 4 -i  Done                     04/25/2018 06:09:42
00016 suncat0053 pw.x -npool 4 -i  Done                     04/25/2018 06:09:42
00017 suncat0053 pw.x -npool 4 -i  Done                     04/25/2018 06:09:42
00018 suncat0053 pw.x -npool 4 -i  Done                     04/25/2018 06:09:42
00019 suncat0053 pw.x -npool 4 -i  Done                     04/25/2018 06:09:42
00020 suncat0053 pw.x -npool 4 -i  Done                     04/25/2018 06:09:42
00021 suncat0053 pw.x -npool 4 -i  Done                     04/25/2018 06:09:42
00022 suncat0053 pw.x -npool 4 -i  Done                     04/25/2018 06:09:42
00023 suncat0053 pw.x -npool 4 -i  Done                     04/25/2018 06:09:42
00024 suncat0043 pw.x -npool 4 -i  Done                     04/25/2018 06:09:42
00025 suncat0043 pw.x -npool 4 -i  Done                     04/25/2018 06:09:42
00026 suncat0043 pw.x -npool 4 -i  Done                     04/25/2018 06:09:42
00027 suncat0043 pw.x -npool 4 -i  Done                     04/25/2018 06:09:42
00028 suncat0043 pw.x -npool 4 -i  Done                     04/25/2018 06:09:42
00029 suncat0043 pw.x -npool 4 -i  Done                     04/25/2018 06:09:42
00030 suncat0043 pw.x -npool 4 -i  Done                     04/25/2018 06:09:42
00031 suncat0043 pw.x -npool 4 -i  Done                     04/25/2018 06:09:42
