  python dir          : /home/users/mamunm/src/espresso
  espresso dir        : /home/users/vossj/suncat/s2/qe5/bin
  pseudo dir          : /home/users/mamunm/src/pseudo/gbrv1.5pbe
  ase-espresso py git : GITVERSION



     Program PWSCF v.5.1rc2 starts on 27Apr2018 at 11:23:35 

     This program is part of the open-source Quantum ESPRESSO suite
     for quantum simulation of materials; please cite
         "P. Giannozzi et al., J. Phys.:Condens. Matter 21 395502 (2009);
          URL http://www.quantum-espresso.org", 
     in publications or presentations arising from this work. More details at
     http://www.quantum-espresso.org/quote

     Parallel version (MPI), running on    16 processors
     R & G space division:  proc/nbgrp/npool/nimage =      16
     Reading input from pw.inp
     Message from routine read_cards :
     DEPRECATED: no units specified in CELL_PARAMETERS card

     Current dimensions of program PWSCF are:
     Max number of different atomic species (ntypx) = 10
     Max number of k-points (npk) =  40000
     Max angular momentum in pseudopotentials (lmaxx) =  3
     Presently stress not available with electric field


     **************************************************************************
     Initializing libbeef V0.1.2 with the BEEF-vdW functional.
     Citation: Wellendorff et al., PRB 85, 235149 (2012).
     **************************************************************************


     IMPORTANT: XC functional enforced from input :
     Exchange-correlation      = BEEF-VDW ( 1  4 27 13 2)
     Any further DFT definition will be discarded
     Please, verify this is what you really want


     Subspace diagonalization in iterative solution of the eigenvalue problem:
     scalapack distributed-memory algorithm (size of sub-group:  2*  2 procs)

 
     Parallelization info
     --------------------
     sticks:   dense  smooth     PW     G-vecs:    dense   smooth      PW
     Min         232      93     27                45190    11433    1759
     Max         233      94     28                45199    11472    1773
     Sum        3721    1495    433               723123   183131   28227
 


     bravais-lattice index     =            0
     lattice parameter (alat)  =       1.8897  a.u.
     unit-cell volume          =    6082.7792 (a.u.)^3
     number of atoms/cell      =           15
     number of atomic types    =            3
     number of electrons       =       150.00
     number of Kohn-Sham states=           85
     kinetic-energy cutoff     =      36.7493  Ry
     charge density cutoff     =     367.4932  Ry
     convergence threshold     =      1.0E-05
     mixing beta               =       0.3000
     number of iterations used =           10  plain     mixing
     Exchange-correlation      = BEEF-VDW ( 1  4 27 13 2)
     nstep                     =           50


     celldm(1)=   1.889726  celldm(2)=   0.000000  celldm(3)=   0.000000
     celldm(4)=   0.000000  celldm(5)=   0.000000  celldm(6)=   0.000000

     crystal axes: (cart. coord. in units of alat)
               a(1) = (   6.421223   0.000000   0.000000 )  
               a(2) = (   3.210611   5.560942   0.000000 )  
               a(3) = (   0.000000   0.000000  25.242906 )  

     reciprocal axes: (cart. coord. in units 2 pi/alat)
               b(1) = (  0.155734 -0.089913  0.000000 )  
               b(2) = (  0.000000  0.179826  0.000000 )  
               b(3) = (  0.000000  0.000000  0.039615 )  


     PseudoPot. # 1 for Zr read from file:
     /home/users/mamunm/src/pseudo/gbrv1.5pbe/Zr.UPF
     MD5 check sum: 5db81b1e868ab7776c4564c113de050b
     Pseudo is Ultrasoft + core correction, Zval = 12.0
     Generated by new atomic code, or converted to UPF format
     Using radial grid of  887 points,  6 beta functions with: 
                l(1) =   0
                l(2) =   0
                l(3) =   1
                l(4) =   1
                l(5) =   2
                l(6) =   2
     Q(r) pseudized with  6 coefficients,  rinner =    1.200   1.200   1.200
                                                       1.200   1.200

     PseudoPot. # 2 for C  read from file:
     /home/users/mamunm/src/pseudo/gbrv1.5pbe/C.UPF
     MD5 check sum: d1aef80898a10debaa0f26306b886e00
     Pseudo is Ultrasoft + core correction, Zval =  4.0
     Generated by new atomic code, or converted to UPF format
     Using radial grid of  721 points,  4 beta functions with: 
                l(1) =   0
                l(2) =   0
                l(3) =   1
                l(4) =   1
     Q(r) pseudized with  8 coefficients,  rinner =    1.100   1.100   1.100


     PseudoPot. # 3 for H  read from file:
     /home/users/mamunm/src/pseudo/gbrv1.5pbe/H.UPF
     MD5 check sum: 761ae9a214b05c3daf00ab9f6b793d6f
     Pseudo is Ultrasoft, Zval =  1.0
     Generated by new atomic code, or converted to UPF format
     Using radial grid of  615 points,  2 beta functions with: 
                l(1) =   0
                l(2) =   0
     Q(r) pseudized with  8 coefficients,  rinner =    0.700

     vdW kernel table read from file vdW_kernel_table
     MD5 check sum: 095c7af220d748ca6e76c0b4c6cfb241

     atomic species   valence    mass     pseudopotential
        Zr1           12.00    91.22400     Zr( 1.00)
        C1             4.00    12.01100     C ( 1.00)
        H1             1.00     1.00800     H ( 1.00)

     No symmetry found



   Cartesian axes

     site n.     atom                  positions (alat units)
         1           Zr1 tau(   1) = (   1.6053057   0.9268237  10.0000000  )
         2           Zr1 tau(   2) = (   4.8159170   0.9268237  10.0000000  )
         3           Zr1 tau(   3) = (   3.2106113   3.7072946  10.0000000  )
         4           Zr1 tau(   4) = (   6.4212227   3.7072946  10.0000000  )
         5           Zr1 tau(   5) = (   6.4212227   1.8536473  12.6214532  )
         6           Zr1 tau(   6) = (   3.2106113   1.8536473  12.6214532  )
         7           Zr1 tau(   7) = (   8.0265283   4.6341183  12.6214532  )
         8           Zr1 tau(   8) = (   4.8159170   4.6341183  12.6214532  )
         9           Zr1 tau(   9) = (   0.0000000   0.0000000  15.2429064  )
        10           Zr1 tau(  10) = (   3.2106113   0.0000000  15.2429064  )
        11           Zr1 tau(  11) = (   1.6053057   2.7804710  15.2429064  )
        12           Zr1 tau(  12) = (   4.8159170   2.7804710  15.2429064  )
        13           C1  tau(  13) = (   1.6053057   0.0000000  17.1254064  )
        14           H1  tau(  14) = (   2.2353057   0.6300000  17.7554064  )
        15           H1  tau(  15) = (   4.1859170   4.9309420  17.7554064  )

     number of k points=    20  Fermi-Dirac smearing, width (Ry)=  0.0110
                       cart. coord. in units 2pi/alat
        k(    1) = (   0.0000000   0.0000000   0.0000000), wk =   0.0555556
        k(    2) = (   0.0000000   0.0299709   0.0000000), wk =   0.1111111
        k(    3) = (   0.0000000   0.0599419   0.0000000), wk =   0.1111111
        k(    4) = (   0.0000000  -0.0899128   0.0000000), wk =   0.0555556
        k(    5) = (   0.0259556  -0.0149855   0.0000000), wk =   0.1111111
        k(    6) = (   0.0259556   0.0149855   0.0000000), wk =   0.1111111
        k(    7) = (   0.0259556   0.0449564   0.0000000), wk =   0.1111111
        k(    8) = (   0.0259556  -0.1048983   0.0000000), wk =   0.1111111
        k(    9) = (   0.0259556  -0.0749274   0.0000000), wk =   0.1111111
        k(   10) = (   0.0259556  -0.0449564   0.0000000), wk =   0.1111111
        k(   11) = (   0.0519112  -0.0299709   0.0000000), wk =   0.1111111
        k(   12) = (   0.0519112   0.0000000   0.0000000), wk =   0.1111111
        k(   13) = (   0.0519112   0.0299709   0.0000000), wk =   0.1111111
        k(   14) = (   0.0519112  -0.1198838   0.0000000), wk =   0.1111111
        k(   15) = (   0.0519112  -0.0899128   0.0000000), wk =   0.1111111
        k(   16) = (   0.0519112  -0.0599419   0.0000000), wk =   0.1111111
        k(   17) = (  -0.0778668   0.0449564   0.0000000), wk =   0.0555556
        k(   18) = (  -0.0778668   0.0749274   0.0000000), wk =   0.1111111
        k(   19) = (  -0.0778668   0.1048983   0.0000000), wk =   0.1111111
        k(   20) = (  -0.0778668  -0.0449564   0.0000000), wk =   0.0555556

     Dense  grid:   723123 G-vectors     FFT dimensions: (  75,  75, 300)

     Smooth grid:   183131 G-vectors     FFT dimensions: (  48,  48, 192)

     Largest allocated arrays     est. size (Mb)     dimensions
        Kohn-Sham Wavefunctions         1.90 Mb     (    1464,   85)
        NL pseudopotentials             5.09 Mb     (    1464,  228)
        Each V/rho on FFT grid          1.63 Mb     (  106875)
        Each G-vector array             0.34 Mb     (   45199)
        G-vector shells                 0.14 Mb     (   17726)
     Largest temporary arrays     est. size (Mb)     dimensions
        Auxiliary wavefunctions         7.60 Mb     (    1464,  340)
        Each subspace H/S matrix        0.44 Mb     (     170,  170)
        Each <psi_i|beta_j> matrix      0.30 Mb     (     228,   85)
        Arrays for rho mixing          16.31 Mb     (  106875,   10)

     Initial potential from superposition of free atoms
     Check: negative starting charge=   -0.729079

     starting charge  149.97415, renormalised to  150.00000

     negative rho (up, down):  7.292E-01 0.000E+00


     ************************************************************************
     *
     * You are using vdW-DF for exchange-correlation in this calculation.
     * Please cite the following three references that made this development
     * possible:
     *
     *   M. Dion, H. Rydberg, E. Schroder, D. C. Langreth, and
     *   B. I. Lundqvist, Phys. Rev. Lett. 92, 246401 (2004).
     *
     *   T. Thonhauser, V. R. Cooper, S. Li, A. Puzder, P. Hyldgaard, and
     *   D. C. Langreth, Phys. Rev. B 76, 125112 (2007).
     *
     *   G. Roman-Perez and J. M. Soler, Phys. Rev. Lett. 103, 096102 (2009).
     *
     *
     * If you are using vdW-DF2, please also cite:
     *
     *   K. Lee, E. D. Murray, L. Kong, B. I. Lundqvist, and
     *   D. C. Langreth, Phys. Rev. B 82, 081101(R) (2010).
     *
     *
     * If you are calculating the stress with vdW-DF, please also cite:
     *
     *   R. Sabatini, E. Kucukbenli, B. Kolb, T. Thonhauser, and
     *   S. de Gironcoli, J. Phys.: Condens. Matter 24, 424209 (2012).
     *
     ************************************************************************

     Carrying out vdW-DF run using the following parameters:

     Nqs =      20    Nr_points =    1024   r_max =   100.000
     q_mesh =
               0.00001000     0.04494208     0.09755937     0.15916263
               0.23128650     0.31572767     0.41458969     0.53033537
               0.66584808     0.82450364     1.01025438     1.22772762
               1.48234092     1.78043706     2.12944203     2.53805004
               3.01644009     3.57652955     4.23227104     5.00000000

     Gradients computed in reciprocal space

     ************************************************************************


 
     Adding external electric field

     Computed dipole along edir(3) : 
        Dipole               -0.0087 Ry au,         -0.0221 Debye
        Dipole field         -0.0000 Ry au
 
        Potential amp.        0.0017 Ry
        Total length         46.5096 bohr
 
     Starting wfc are  162 randomized atomic wfcs

     total cpu time spent up to now is        7.6 secs

     per-process dynamical memory:    44.8 Mb

     Self-consistent Calculation

     iteration #  1     ecut=    36.75 Ry     beta=0.30
     Davidson diagonalization with overlap
     ethr =  1.00E-02,  avg # of iterations =  2.0

     negative rho (up, down):  7.334E-01 0.000E+00
 
     Adding external electric field

     Computed dipole along edir(3) : 
        Dipole               -3.7995 Ry au,         -9.6573 Debye
        Dipole field         -0.0078 Ry au
 
        Potential amp.        0.7301 Ry
        Total length         46.5096 bohr
 

     total cpu time spent up to now is       17.2 secs

     total energy              =   -1208.00532637 Ry
     Harris-Foulkes estimate   =   -1211.60099522 Ry
     estimated scf accuracy    <       7.69721132 Ry

     iteration #  2     ecut=    36.75 Ry     beta=0.30
     Davidson diagonalization with overlap
     ethr =  5.13E-03,  avg # of iterations =  9.8

     negative rho (up, down):  7.333E-01 0.000E+00
 
     Adding external electric field

     Computed dipole along edir(3) : 
        Dipole                2.6286 Ry au,          6.6812 Debye
        Dipole field          0.0054 Ry au
 
        Potential amp.       -0.5051 Ry
        Total length         46.5096 bohr
 

     total cpu time spent up to now is       40.2 secs

     total energy              =   -1197.07719266 Ry
     Harris-Foulkes estimate   =   -1222.96115099 Ry
     estimated scf accuracy    <     633.05999752 Ry

     iteration #  3     ecut=    36.75 Ry     beta=0.30
     Davidson diagonalization with overlap
     ethr =  5.13E-03,  avg # of iterations =  9.3

     negative rho (up, down):  7.325E-01 0.000E+00
 
     Adding external electric field

     Computed dipole along edir(3) : 
        Dipole                0.5083 Ry au,          1.2920 Debye
        Dipole field          0.0011 Ry au
 
        Potential amp.       -0.0977 Ry
        Total length         46.5096 bohr
 

     total cpu time spent up to now is       63.2 secs

     total energy              =   -1204.79789882 Ry
     Harris-Foulkes estimate   =   -1217.46556013 Ry
     estimated scf accuracy    <     380.55060492 Ry

     iteration #  4     ecut=    36.75 Ry     beta=0.30
     Davidson diagonalization with overlap
     ethr =  5.13E-03,  avg # of iterations =  4.7

     negative rho (up, down):  7.347E-01 0.000E+00
 
     Adding external electric field

     Computed dipole along edir(3) : 
        Dipole                0.6316 Ry au,          1.6054 Debye
        Dipole field          0.0013 Ry au
 
        Potential amp.       -0.1214 Ry
        Total length         46.5096 bohr
 

     total cpu time spent up to now is       77.1 secs

     total energy              =   -1210.84338786 Ry
     Harris-Foulkes estimate   =   -1210.99054413 Ry
     estimated scf accuracy    <       0.83743914 Ry

     iteration #  5     ecut=    36.75 Ry     beta=0.30
     Davidson diagonalization with overlap
     ethr =  5.58E-04,  avg # of iterations =  7.1

     negative rho (up, down):  7.374E-01 0.000E+00
 
     Adding external electric field

     Computed dipole along edir(3) : 
        Dipole                0.3118 Ry au,          0.7926 Debye
        Dipole field          0.0006 Ry au
 
        Potential amp.       -0.0599 Ry
        Total length         46.5096 bohr
 

     total cpu time spent up to now is       90.8 secs

     total energy              =   -1210.87587552 Ry
     Harris-Foulkes estimate   =   -1210.93283851 Ry
     estimated scf accuracy    <       0.37279677 Ry

     iteration #  6     ecut=    36.75 Ry     beta=0.30
     Davidson diagonalization with overlap
     ethr =  2.49E-04,  avg # of iterations =  3.5

     negative rho (up, down):  7.402E-01 0.000E+00
 
     Adding external electric field

     Computed dipole along edir(3) : 
        Dipole                0.3512 Ry au,          0.8928 Debye
        Dipole field          0.0007 Ry au
 
        Potential amp.       -0.0675 Ry
        Total length         46.5096 bohr
 

     total cpu time spent up to now is      101.3 secs

     total energy              =   -1210.87997638 Ry
     Harris-Foulkes estimate   =   -1210.90335861 Ry
     estimated scf accuracy    <       0.30423060 Ry

     iteration #  7     ecut=    36.75 Ry     beta=0.30
     Davidson diagonalization with overlap
     ethr =  2.03E-04,  avg # of iterations =  1.1

     negative rho (up, down):  7.452E-01 0.000E+00
 
     Adding external electric field

     Computed dipole along edir(3) : 
        Dipole                0.1881 Ry au,          0.4780 Debye
        Dipole field          0.0004 Ry au
 
        Potential amp.       -0.0361 Ry
        Total length         46.5096 bohr
 

     total cpu time spent up to now is      110.1 secs

     total energy              =   -1210.88052268 Ry
     Harris-Foulkes estimate   =   -1210.88929511 Ry
     estimated scf accuracy    <       0.04118558 Ry

     iteration #  8     ecut=    36.75 Ry     beta=0.30
     Davidson diagonalization with overlap
     ethr =  2.75E-05,  avg # of iterations =  6.0

     negative rho (up, down):  7.466E-01 0.000E+00
 
     Adding external electric field

     Computed dipole along edir(3) : 
        Dipole                0.1104 Ry au,          0.2806 Debye
        Dipole field          0.0002 Ry au
 
        Potential amp.       -0.0212 Ry
        Total length         46.5096 bohr
 

     total cpu time spent up to now is      124.6 secs

     total energy              =   -1210.88378665 Ry
     Harris-Foulkes estimate   =   -1210.88900381 Ry
     estimated scf accuracy    <       0.04561398 Ry

     iteration #  9     ecut=    36.75 Ry     beta=0.30
     Davidson diagonalization with overlap
     ethr =  2.75E-05,  avg # of iterations =  2.0

     negative rho (up, down):  7.475E-01 0.000E+00
 
     Adding external electric field

     Computed dipole along edir(3) : 
        Dipole                0.0661 Ry au,          0.1680 Debye
        Dipole field          0.0001 Ry au
 
        Potential amp.       -0.0127 Ry
        Total length         46.5096 bohr
 

     total cpu time spent up to now is      133.9 secs

     total energy              =   -1210.88354054 Ry
     Harris-Foulkes estimate   =   -1210.88542236 Ry
     estimated scf accuracy    <       0.01161390 Ry

     iteration # 10     ecut=    36.75 Ry     beta=0.30
     Davidson diagonalization with overlap
     ethr =  7.74E-06,  avg # of iterations =  5.2

     negative rho (up, down):  7.481E-01 0.000E+00
 
     Adding external electric field

     Computed dipole along edir(3) : 
        Dipole                0.0550 Ry au,          0.1398 Debye
        Dipole field          0.0001 Ry au
 
        Potential amp.       -0.0106 Ry
        Total length         46.5096 bohr
 

     total cpu time spent up to now is      147.2 secs

     total energy              =   -1210.88488793 Ry
     Harris-Foulkes estimate   =   -1210.88552641 Ry
     estimated scf accuracy    <       0.00579417 Ry

     iteration # 11     ecut=    36.75 Ry     beta=0.30
     Davidson diagonalization with overlap
     ethr =  3.86E-06,  avg # of iterations =  3.1

     negative rho (up, down):  7.487E-01 0.000E+00
 
     Adding external electric field

     Computed dipole along edir(3) : 
        Dipole                0.0454 Ry au,          0.1154 Debye
        Dipole field          0.0001 Ry au
 
        Potential amp.       -0.0087 Ry
        Total length         46.5096 bohr
 

     total cpu time spent up to now is      157.1 secs

     total energy              =   -1210.88522783 Ry
     Harris-Foulkes estimate   =   -1210.88521525 Ry
     estimated scf accuracy    <       0.00087907 Ry

     iteration # 12     ecut=    36.75 Ry     beta=0.30
     Davidson diagonalization with overlap
     ethr =  5.86E-07,  avg # of iterations =  5.2

     negative rho (up, down):  7.491E-01 0.000E+00
 
     Adding external electric field

     Computed dipole along edir(3) : 
        Dipole                0.0257 Ry au,          0.0653 Debye
        Dipole field          0.0001 Ry au
 
        Potential amp.       -0.0049 Ry
        Total length         46.5096 bohr
 

     total cpu time spent up to now is      170.8 secs

     total energy              =   -1210.88540859 Ry
     Harris-Foulkes estimate   =   -1210.88545821 Ry
     estimated scf accuracy    <       0.00133203 Ry

     iteration # 13     ecut=    36.75 Ry     beta=0.30
     Davidson diagonalization with overlap
     ethr =  5.86E-07,  avg # of iterations =  2.0

     negative rho (up, down):  7.493E-01 0.000E+00
 
     Adding external electric field

     Computed dipole along edir(3) : 
        Dipole                0.0130 Ry au,          0.0329 Debye
        Dipole field          0.0000 Ry au
 
        Potential amp.       -0.0025 Ry
        Total length         46.5096 bohr
 

     total cpu time spent up to now is      180.3 secs

     total energy              =   -1210.88543365 Ry
     Harris-Foulkes estimate   =   -1210.88544850 Ry
     estimated scf accuracy    <       0.00030502 Ry

     iteration # 14     ecut=    36.75 Ry     beta=0.30
     Davidson diagonalization with overlap
     ethr =  2.03E-07,  avg # of iterations =  4.3

     negative rho (up, down):  7.493E-01 0.000E+00
 
     Adding external electric field

     Computed dipole along edir(3) : 
        Dipole                0.0105 Ry au,          0.0266 Debye
        Dipole field          0.0000 Ry au
 
        Potential amp.       -0.0020 Ry
        Total length         46.5096 bohr
 

     total cpu time spent up to now is      192.8 secs

     total energy              =   -1210.88548464 Ry
     Harris-Foulkes estimate   =   -1210.88548084 Ry
     estimated scf accuracy    <       0.00004961 Ry

     iteration # 15     ecut=    36.75 Ry     beta=0.30
     Davidson diagonalization with overlap
     ethr =  3.31E-08,  avg # of iterations =  3.5

     negative rho (up, down):  7.494E-01 0.000E+00
 
     Adding external electric field

     Computed dipole along edir(3) : 
        Dipole                0.0092 Ry au,          0.0234 Debye
        Dipole field          0.0000 Ry au
 
        Potential amp.       -0.0018 Ry
        Total length         46.5096 bohr
 

     total cpu time spent up to now is      203.7 secs

     total energy              =   -1210.88549039 Ry
     Harris-Foulkes estimate   =   -1210.88548892 Ry
     estimated scf accuracy    <       0.00003452 Ry

     iteration # 16     ecut=    36.75 Ry     beta=0.30
     Davidson diagonalization with overlap
     ethr =  2.30E-08,  avg # of iterations =  1.9

     negative rho (up, down):  7.494E-01 0.000E+00
 
     Adding external electric field

     Computed dipole along edir(3) : 
        Dipole                0.0080 Ry au,          0.0204 Debye
        Dipole field          0.0000 Ry au
 
        Potential amp.       -0.0015 Ry
        Total length         46.5096 bohr
 

     total cpu time spent up to now is      213.0 secs

     total energy              =   -1210.88549100 Ry
     Harris-Foulkes estimate   =   -1210.88549181 Ry
     estimated scf accuracy    <       0.00001935 Ry

     iteration # 17     ecut=    36.75 Ry     beta=0.30
     Davidson diagonalization with overlap
     ethr =  1.29E-08,  avg # of iterations =  3.5

     negative rho (up, down):  7.494E-01 0.000E+00
 
     Adding external electric field

     Computed dipole along edir(3) : 
        Dipole                0.0079 Ry au,          0.0200 Debye
        Dipole field          0.0000 Ry au
 
        Potential amp.       -0.0015 Ry
        Total length         46.5096 bohr
 

     total cpu time spent up to now is      224.2 secs

     total energy              =   -1210.88549297 Ry
     Harris-Foulkes estimate   =   -1210.88549306 Ry
     estimated scf accuracy    <       0.00001599 Ry

     iteration # 18     ecut=    36.75 Ry     beta=0.30
     Davidson diagonalization with overlap
     ethr =  1.07E-08,  avg # of iterations =  1.4

     negative rho (up, down):  7.494E-01 0.000E+00

     negative rho (up, down):  7.494E-01 0.000E+00

     negative rho (up, down):  7.494E-01 0.000E+00

     negative rho (up, down):  7.494E-01 0.000E+00

     negative rho (up, down):  7.494E-01 0.000E+00

     negative rho (up, down):  7.494E-01 0.000E+00

     negative rho (up, down):  7.494E-01 0.000E+00

     negative rho (up, down):  7.494E-01 0.000E+00

     negative rho (up, down):  7.494E-01 0.000E+00

     negative rho (up, down):  7.494E-01 0.000E+00

     negative rho (up, down):  7.494E-01 0.000E+00

     negative rho (up, down):  7.494E-01 0.000E+00

     negative rho (up, down):  7.494E-01 0.000E+00

     negative rho (up, down):  7.494E-01 0.000E+00

     negative rho (up, down):  7.494E-01 0.000E+00

     negative rho (up, down):  7.494E-01 0.000E+00

     negative rho (up, down):  7.494E-01 0.000E+00

     negative rho (up, down):  7.494E-01 0.000E+00

     negative rho (up, down):  7.494E-01 0.000E+00

     negative rho (up, down):  7.494E-01 0.000E+00

     negative rho (up, down):  7.494E-01 0.000E+00

     negative rho (up, down):  7.494E-01 0.000E+00

     negative rho (up, down):  7.494E-01 0.000E+00

     negative rho (up, down):  7.494E-01 0.000E+00

     negative rho (up, down):  7.494E-01 0.000E+00

     negative rho (up, down):  7.494E-01 0.000E+00

     negative rho (up, down):  7.494E-01 0.000E+00

     negative rho (up, down):  7.494E-01 0.000E+00

     negative rho (up, down):  7.494E-01 0.000E+00

     negative rho (up, down):  7.494E-01 0.000E+00

     negative rho (up, down):  7.494E-01 0.000E+00

     negative rho (up, down):  7.494E-01 0.000E+00

     negative rho (up, down):  7.494E-01 0.000E+00

     negative rho (up, down):  7.494E-01 0.000E+00

     negative rho (up, down):  7.494E-01 0.000E+00
 
     Adding external electric field

     Computed dipole along edir(3) : 
        Dipole               -0.0082 Ry au,         -0.0209 Debye
        Dipole field         -0.0000 Ry au
 
        Potential amp.        0.0016 Ry
        Total length         46.5096 bohr
 

     total cpu time spent up to now is      248.1 secs

     End of self-consistent calculation

          k = 0.0000 0.0000 0.0000 ( 22923 PWs)   bands (ev):

   -47.7528 -47.7146 -47.6909 -47.6263 -47.6249 -47.6233 -47.6069 -47.5770
   -47.4000 -47.3262 -47.3193 -47.3044 -26.0268 -26.0193 -26.0024 -25.9740
   -25.9701 -25.9525 -25.9375 -25.8621 -25.8377 -25.8215 -25.7472 -25.6745
   -25.6227 -25.6008 -25.5052 -25.4925 -25.4788 -25.4743 -25.4549 -25.4526
   -25.4459 -25.4406 -25.4258 -25.2981 -25.2847 -25.2831 -25.2583 -25.2414
   -25.2334 -25.2286 -25.1999 -25.1399 -25.1338 -25.1314 -24.9856 -24.9839
   -10.2283  -4.4715  -3.4257  -2.4842  -1.7595  -1.3433  -1.0193  -1.0026
    -0.9804  -0.9092  -0.8633  -0.7094  -0.5391  -0.4348  -0.3220  -0.2666
    -0.2440  -0.0280   0.3494   0.5786   0.9507   1.1050   1.4745   1.7215
     1.7496   1.8703   2.0465   2.1339   2.2604   2.2819   2.4102   2.4634
     2.4740   2.5063   2.7124   2.7277   2.7294

          k = 0.0000 0.0300 0.0000 ( 22902 PWs)   bands (ev):

   -47.7493 -47.7087 -47.6909 -47.6311 -47.6259 -47.6237 -47.6105 -47.5770
   -47.3947 -47.3264 -47.3236 -47.3053 -26.0030 -25.9795 -25.9749 -25.9500
   -25.9308 -25.9272 -25.9198 -25.8474 -25.8178 -25.8035 -25.7417 -25.6782
   -25.6409 -25.6078 -25.5060 -25.4961 -25.4818 -25.4767 -25.4738 -25.4692
   -25.4499 -25.4449 -25.4316 -25.3490 -25.3362 -25.2959 -25.2669 -25.2351
   -25.2311 -25.2219 -25.1915 -25.1645 -25.1564 -25.1239 -25.0307 -24.9941
   -10.2268  -4.4779  -3.2415  -2.3460  -1.6595  -1.1960  -0.9974  -0.8843
    -0.8611  -0.8281  -0.7299  -0.6409  -0.3553  -0.2484  -0.2115  -0.1510
    -0.1298   0.0439   0.3839   0.6279   0.9103   1.1005   1.4425   1.7054
     1.7628   1.8413   1.9631   2.0457   2.1057   2.1306   2.2181   2.2899
     2.4171   2.5347   2.5897   2.6217   2.6394

          k = 0.0000 0.0599 0.0000 ( 22852 PWs)   bands (ev):

   -47.7418 -47.6925 -47.6906 -47.6476 -47.6260 -47.6237 -47.6183 -47.5770
   -47.3807 -47.3373 -47.3260 -47.3063 -25.9458 -25.9143 -25.8955 -25.8912
   -25.8697 -25.8558 -25.8165 -25.8076 -25.7823 -25.7622 -25.7290 -25.6897
   -25.6703 -25.6300 -25.5794 -25.5474 -25.5425 -25.5205 -25.4840 -25.4650
   -25.4601 -25.4338 -25.4198 -25.4141 -25.4061 -25.3265 -25.2881 -25.2403
   -25.2265 -25.2192 -25.2117 -25.2085 -25.1842 -25.1490 -25.0971 -25.0215
   -10.2237  -4.4894  -2.7473  -2.0730  -1.4368  -1.2024  -0.7982  -0.6305
    -0.5444  -0.5065  -0.4102  -0.3834  -0.0413   0.0379   0.1737   0.2178
     0.2430   0.3206   0.5047   0.7429   0.8590   1.0962   1.2070   1.4064
     1.5080   1.5486   1.6364   1.6951   1.8468   1.9669   1.9928   2.0218
     2.0734   2.0916   2.1790   2.1928   2.3931

          k = 0.0000-0.0899 0.0000 ( 22880 PWs)   bands (ev):

   -47.7377 -47.6905 -47.6711 -47.6691 -47.6260 -47.6238 -47.6226 -47.5771
   -47.3673 -47.3505 -47.3261 -47.3066 -25.9089 -25.8704 -25.8700 -25.8524
   -25.8231 -25.8051 -25.7834 -25.7524 -25.7345 -25.7070 -25.6957 -25.6808
   -25.6603 -25.6412 -25.6322 -25.6295 -25.6085 -25.5909 -25.5741 -25.5532
   -25.4358 -25.4082 -25.4055 -25.3681 -25.3671 -25.3054 -25.3010 -25.2916
   -25.2762 -25.2581 -25.2160 -25.2147 -25.2111 -25.1824 -25.0653 -25.0537
   -10.2222  -4.4946  -2.2815  -1.9626  -1.6770  -1.0495  -0.7127  -0.3638
    -0.2960  -0.2823  -0.1893  -0.1817   0.0292   0.1130   0.5423   0.5869
     0.5993   0.6149   0.6831   0.7096   1.0475   1.0680   1.0786   1.1172
     1.1808   1.2427   1.3978   1.4213   1.5304   1.5787   1.6212   1.6944
     1.8199   1.8558   1.9942   2.2061   2.2781

          k = 0.0260-0.0150 0.0000 ( 22902 PWs)   bands (ev):

   -47.7481 -47.7087 -47.6939 -47.6313 -47.6249 -47.6244 -47.6057 -47.5800
   -47.3947 -47.3292 -47.3200 -47.3061 -25.9944 -25.9923 -25.9698 -25.9456
   -25.9401 -25.9268 -25.9162 -25.8462 -25.8216 -25.8006 -25.7421 -25.6843
   -25.6284 -25.6137 -25.4995 -25.4916 -25.4885 -25.4817 -25.4760 -25.4743
   -25.4554 -25.4407 -25.4208 -25.3423 -25.3350 -25.2950 -25.2782 -25.2357
   -25.2326 -25.2210 -25.1897 -25.1611 -25.1584 -25.1251 -25.0296 -24.9952
   -10.2263  -4.4724  -3.2400  -2.3329  -1.6352  -1.1736  -1.0270  -0.9449
    -0.8650  -0.8254  -0.7264  -0.6105  -0.4231  -0.2492  -0.1830  -0.1550
    -0.1270   0.0702   0.3733   0.6314   0.9319   1.0806   1.4471   1.6971
     1.7261   1.8576   1.9553   2.0468   2.0869   2.1155   2.2165   2.2618
     2.4110   2.5565   2.5915   2.5955   2.6155

          k = 0.0260 0.0150 0.0000 ( 22902 PWs)   bands (ev):

   -47.7481 -47.7087 -47.6939 -47.6311 -47.6258 -47.6237 -47.6057 -47.5800
   -47.3947 -47.3296 -47.3196 -47.3063 -25.9981 -25.9943 -25.9655 -25.9465
   -25.9443 -25.9267 -25.9118 -25.8463 -25.8216 -25.8006 -25.7422 -25.6842
   -25.6289 -25.6140 -25.4950 -25.4904 -25.4872 -25.4782 -25.4751 -25.4687
   -25.4558 -25.4442 -25.4323 -25.3380 -25.3152 -25.3011 -25.2948 -25.2357
   -25.2331 -25.2213 -25.1887 -25.1609 -25.1583 -25.1255 -25.0293 -24.9956
   -10.2260  -4.4846  -3.2353  -2.3313  -1.6300  -1.1718  -0.9784  -0.8870
    -0.8702  -0.8516  -0.7912  -0.5905  -0.3811  -0.3211  -0.1898  -0.1395
    -0.1323   0.0644   0.3906   0.6309   0.8904   1.1078   1.4442   1.6832
     1.7277   1.8488   1.9494   2.0482   2.0800   2.1131   2.2234   2.2829
     2.4167   2.5542   2.5773   2.5877   2.6143

          k = 0.0260 0.0450 0.0000 ( 22896 PWs)   bands (ev):

   -47.7423 -47.6977 -47.6942 -47.6363 -47.6363 -47.6195 -47.6118 -47.5795
   -47.3849 -47.3331 -47.3261 -47.3061 -25.9635 -25.9222 -25.9211 -25.9047
   -25.8984 -25.8685 -25.8554 -25.8235 -25.7925 -25.7716 -25.7330 -25.6925
   -25.6592 -25.6236 -25.5630 -25.5576 -25.4759 -25.4724 -25.4684 -25.4586
   -25.4526 -25.4415 -25.4327 -25.4250 -25.3965 -25.3205 -25.3063 -25.2369
   -25.2294 -25.2255 -25.2147 -25.1835 -25.1391 -25.1371 -25.1084 -25.0165
   -10.2235  -4.4988  -2.8882  -2.1135  -1.4366  -0.9830  -0.9552  -0.8441
    -0.6912  -0.6039  -0.5100  -0.3929  -0.1015  -0.0597   0.0530   0.0662
     0.1269   0.2182   0.4643   0.7152   0.8323   1.0944   1.3254   1.4898
     1.5701   1.6482   1.7213   1.7882   1.8771   2.0060   2.0538   2.1243
     2.1615   2.2432   2.2622   2.3611   2.4080

          k = 0.0260-0.1049 0.0000 ( 22856 PWs)   bands (ev):

   -47.7360 -47.6945 -47.6783 -47.6558 -47.6393 -47.6185 -47.6165 -47.5790
   -47.3692 -47.3439 -47.3324 -47.3048 -25.9007 -25.8712 -25.8621 -25.8410
   -25.8186 -25.7972 -25.7854 -25.7624 -25.7377 -25.7332 -25.7188 -25.7064
   -25.6844 -25.6679 -25.6459 -25.6317 -25.5760 -25.5593 -25.5025 -25.4968
   -25.4352 -25.4282 -25.4142 -25.3931 -25.3655 -25.3589 -25.3269 -25.3123
   -25.2367 -25.2260 -25.2162 -25.2139 -25.1829 -25.1697 -25.1000 -25.0549
   -10.2214  -4.5007  -2.3354  -1.9002  -1.4365  -1.0145  -0.8569  -0.6233
    -0.3790  -0.2654  -0.1434  -0.0511   0.1208   0.2057   0.4463   0.4565
     0.5072   0.5706   0.5981   0.8418   0.9329   0.9673   1.1260   1.1493
     1.2137   1.2770   1.3098   1.4091   1.5565   1.6224   1.6586   1.7532
     1.7857   1.8032   1.8713   2.1289   2.3078

          k = 0.0260-0.0749 0.0000 ( 22856 PWs)   bands (ev):

   -47.7360 -47.6945 -47.6783 -47.6558 -47.6392 -47.6185 -47.6165 -47.5790
   -47.3693 -47.3435 -47.3328 -47.3048 -25.8968 -25.8712 -25.8620 -25.8400
   -25.8167 -25.7975 -25.7845 -25.7620 -25.7387 -25.7305 -25.7166 -25.7074
   -25.6805 -25.6727 -25.6573 -25.6285 -25.5839 -25.5642 -25.4983 -25.4925
   -25.4349 -25.4314 -25.4147 -25.3946 -25.3645 -25.3581 -25.3238 -25.3102
   -25.2346 -25.2277 -25.2177 -25.2123 -25.1832 -25.1695 -25.0998 -25.0549
   -10.2217  -4.4895  -2.3442  -1.9024  -1.4269  -1.0576  -0.8808  -0.5835
    -0.4433  -0.2733  -0.1475   0.0359   0.1379   0.2123   0.4310   0.4523
     0.4937   0.5692   0.6410   0.8361   0.9589   0.9860   1.0838   1.1533
     1.2135   1.2797   1.3221   1.4053   1.5099   1.6300   1.6850   1.7620
     1.7810   1.8075   1.8665   2.1187   2.3378

          k = 0.0260-0.0450 0.0000 ( 22896 PWs)   bands (ev):

   -47.7423 -47.6977 -47.6942 -47.6373 -47.6352 -47.6195 -47.6118 -47.5795
   -47.3850 -47.3319 -47.3275 -47.3058 -25.9565 -25.9224 -25.9199 -25.9045
   -25.8960 -25.8676 -25.8599 -25.8234 -25.7926 -25.7716 -25.7324 -25.6928
   -25.6568 -25.6226 -25.5784 -25.5637 -25.4770 -25.4738 -25.4623 -25.4559
   -25.4482 -25.4396 -25.4316 -25.4247 -25.4173 -25.3191 -25.2900 -25.2365
   -25.2288 -25.2264 -25.2141 -25.1847 -25.1393 -25.1370 -25.1079 -25.0162
   -10.2242  -4.4755  -2.8989  -2.1141  -1.4599  -1.0103  -0.9675  -0.8685
    -0.7479  -0.6095  -0.4896  -0.3314  -0.1521   0.0142   0.0437   0.0870
     0.1523   0.2364   0.4351   0.7169   0.8946   1.0568   1.3297   1.5042
     1.5607   1.6704   1.7143   1.7720   1.8882   2.0038   2.0562   2.1167
     2.1756   2.2497   2.2610   2.3298   2.4163

          k = 0.0519-0.0300 0.0000 ( 22852 PWs)   bands (ev):

   -47.7361 -47.7025 -47.6924 -47.6476 -47.6249 -47.6247 -47.6021 -47.5872
   -47.3802 -47.3410 -47.3208 -47.3083 -25.9325 -25.9242 -25.8904 -25.8853
   -25.8817 -25.8630 -25.8182 -25.8032 -25.7858 -25.7590 -25.7296 -25.7045
   -25.6458 -25.6392 -25.5610 -25.5517 -25.5454 -25.5443 -25.4761 -25.4586
   -25.4529 -25.4414 -25.4121 -25.4108 -25.3941 -25.3264 -25.3127 -25.2350
   -25.2326 -25.2189 -25.2134 -25.2057 -25.1813 -25.1478 -25.0985 -25.0227
   -10.2223  -4.4741  -2.7292  -1.9897  -1.3887  -1.2939  -0.8621  -0.6795
    -0.5568  -0.5239  -0.3881  -0.3731  -0.1586   0.1183   0.1717   0.2164
     0.2607   0.3778   0.4794   0.7534   0.9029   1.0415   1.1941   1.4243
     1.4439   1.5281   1.5748   1.6771   1.8366   1.9482   1.9891   2.0115
     2.0636   2.1089   2.1524   2.1988   2.4067

          k = 0.0519 0.0000 0.0000 ( 22896 PWs)   bands (ev):

   -47.7387 -47.7016 -47.6975 -47.6373 -47.6352 -47.6195 -47.5993 -47.5883
   -47.3847 -47.3364 -47.3217 -47.3074 -25.9613 -25.9248 -25.9154 -25.9072
   -25.8990 -25.8705 -25.8555 -25.8234 -25.7964 -25.7677 -25.7333 -25.7014
   -25.6439 -25.6297 -25.5684 -25.5630 -25.4783 -25.4684 -25.4630 -25.4540
   -25.4461 -25.4359 -25.4312 -25.4229 -25.3967 -25.3257 -25.3188 -25.2367
   -25.2313 -25.2249 -25.2120 -25.1827 -25.1423 -25.1350 -25.1075 -25.0176
   -10.2226  -4.4883  -2.8809  -2.0717  -1.3946  -1.0142  -0.9676  -0.8248
    -0.7505  -0.6785  -0.5435  -0.3097  -0.1916  -0.0557   0.0493   0.0728
     0.1264   0.2849   0.4732   0.7125   0.8619   1.0834   1.3377   1.4803
     1.5313   1.6066   1.6855   1.7624   1.8983   1.9481   2.0463   2.0931
     2.1875   2.2384   2.2498   2.3725   2.4313

          k = 0.0519 0.0300 0.0000 ( 22852 PWs)   bands (ev):

   -47.7361 -47.7025 -47.6924 -47.6475 -47.6259 -47.6238 -47.6020 -47.5873
   -47.3801 -47.3415 -47.3198 -47.3088 -25.9371 -25.9317 -25.8907 -25.8878
   -25.8860 -25.8608 -25.8162 -25.8009 -25.7835 -25.7588 -25.7302 -25.7038
   -25.6488 -25.6400 -25.5563 -25.5464 -25.5439 -25.5279 -25.4727 -25.4545
   -25.4490 -25.4294 -25.4224 -25.4059 -25.4011 -25.3394 -25.3252 -25.2351
   -25.2323 -25.2207 -25.2120 -25.2050 -25.1811 -25.1475 -25.0987 -25.0233
   -10.2213  -4.5080  -2.7156  -1.9914  -1.3145  -1.2801  -0.7771  -0.6817
    -0.5526  -0.5144  -0.4906  -0.3191  -0.1475   0.0028   0.1762   0.2144
     0.2263   0.3597   0.5308   0.7454   0.8496   1.0490   1.1974   1.4210
     1.4418   1.5129   1.6037   1.6828   1.8384   1.9320   1.9689   2.0234
     2.0710   2.1021   2.1396   2.2038   2.4080

          k = 0.0519-0.1199 0.0000 ( 22856 PWs)   bands (ev):

   -47.7307 -47.7041 -47.6783 -47.6558 -47.6393 -47.6165 -47.6080 -47.5852
   -47.3681 -47.3481 -47.3284 -47.3057 -25.8975 -25.8712 -25.8567 -25.8541
   -25.8303 -25.8067 -25.7823 -25.7675 -25.7375 -25.7268 -25.7229 -25.6999
   -25.6867 -25.6675 -25.6354 -25.6137 -25.5811 -25.5639 -25.4965 -25.4716
   -25.4326 -25.4266 -25.4120 -25.3950 -25.3680 -25.3630 -25.3534 -25.3134
   -25.2361 -25.2269 -25.2219 -25.2066 -25.1827 -25.1681 -25.1014 -25.0561
   -10.2198  -4.5127  -2.2880  -1.8321  -1.4613  -1.0171  -0.8326  -0.6657
    -0.4172  -0.2392  -0.1367  -0.0495   0.0850   0.1595   0.4413   0.4544
     0.5016   0.5629   0.5994   0.8397   0.9385   0.9708   1.0744   1.1599
     1.2206   1.2657   1.2959   1.4147   1.5212   1.6045   1.6479   1.7542
     1.7887   1.8002   1.8706   2.1066   2.2629

          k = 0.0519-0.0899 0.0000 ( 22914 PWs)   bands (ev):

   -47.7280 -47.7047 -47.6603 -47.6588 -47.6574 -47.6135 -47.6113 -47.5841
   -47.3572 -47.3512 -47.3384 -47.3036 -25.8498 -25.8354 -25.8248 -25.8013
   -25.7936 -25.7792 -25.7674 -25.7535 -25.7485 -25.7130 -25.7009 -25.6908
   -25.6872 -25.6844 -25.6807 -25.6763 -25.6454 -25.6353 -25.4498 -25.4389
   -25.4339 -25.4302 -25.4259 -25.4022 -25.3872 -25.3814 -25.3250 -25.3197
   -25.3140 -25.2307 -25.2150 -25.2059 -25.1811 -25.1185 -25.1113 -25.1094
   -10.2195  -4.4986  -1.9874  -1.5480  -1.5109  -1.3907  -0.7211  -0.5866
    -0.4371   0.0088   0.2297   0.2474   0.2915   0.3093   0.3850   0.4439
     0.7541   0.7669   0.8219   0.8651   0.8790   0.8817   0.8860   0.8946
     0.9405   1.1076   1.1797   1.3606   1.3748   1.4628   1.4807   1.5087
     1.5501   1.6289   1.7281   1.8313   2.3132

          k = 0.0519-0.0599 0.0000 ( 22856 PWs)   bands (ev):

   -47.7307 -47.7040 -47.6783 -47.6559 -47.6392 -47.6165 -47.6081 -47.5851
   -47.3684 -47.3472 -47.3292 -47.3055 -25.8886 -25.8687 -25.8539 -25.8491
   -25.8286 -25.8035 -25.7834 -25.7666 -25.7412 -25.7286 -25.7216 -25.7005
   -25.6768 -25.6707 -25.6450 -25.6261 -25.5956 -25.5677 -25.4984 -25.4890
   -25.4334 -25.4177 -25.4100 -25.3953 -25.3636 -25.3606 -25.3379 -25.3121
   -25.2346 -25.2283 -25.2225 -25.2057 -25.1850 -25.1666 -25.1014 -25.0555
   -10.2208  -4.4796  -2.3045  -1.8357  -1.4945  -1.0907  -0.8553  -0.7006
    -0.3552  -0.2898  -0.1804   0.0329   0.0885   0.2941   0.4270   0.4478
     0.5153   0.5882   0.6067   0.8265   0.9440   0.9965   1.0462   1.1674
     1.2109   1.2714   1.3111   1.3826   1.5062   1.6167   1.6794   1.7545
     1.7817   1.8156   1.8631   2.1143   2.3112

          k =-0.0779 0.0450 0.0000 ( 22880 PWs)   bands (ev):

   -47.7257 -47.7112 -47.6701 -47.6700 -47.6249 -47.6248 -47.5972 -47.5940
   -47.3636 -47.3568 -47.3210 -47.3089 -25.8894 -25.8814 -25.8508 -25.8478
   -25.8433 -25.8367 -25.7688 -25.7626 -25.7282 -25.7233 -25.6767 -25.6708
   -25.6624 -25.6531 -25.6361 -25.6341 -25.5879 -25.5843 -25.5671 -25.5664
   -25.4274 -25.4168 -25.3710 -25.3684 -25.3598 -25.3509 -25.2988 -25.2961
   -25.2668 -25.2626 -25.2208 -25.2182 -25.2034 -25.1799 -25.0665 -25.0551
   -10.2203  -4.4749  -2.1156  -1.9825  -1.7060  -1.1092  -0.8300  -0.3759
    -0.3067  -0.2640  -0.1964  -0.1835  -0.1188   0.3403   0.5307   0.5501
     0.6110   0.6220   0.6518   0.7195   1.0094   1.0670   1.0739   1.0944
     1.1545   1.2158   1.3648   1.3995   1.5505   1.5595   1.6214   1.6594
     1.8083   1.8526   2.0225   2.1711   2.2746

          k =-0.0779 0.0749 0.0000 ( 22856 PWs)   bands (ev):

   -47.7264 -47.7103 -47.6783 -47.6559 -47.6392 -47.6165 -47.5996 -47.5918
   -47.3678 -47.3491 -47.3275 -47.3060 -25.8938 -25.8613 -25.8588 -25.8502
   -25.8332 -25.8000 -25.7836 -25.7637 -25.7369 -25.7297 -25.7236 -25.7079
   -25.6835 -25.6652 -25.6567 -25.6303 -25.5727 -25.5452 -25.5013 -25.4963
   -25.4338 -25.4176 -25.4029 -25.3930 -25.3666 -25.3617 -25.3509 -25.3145
   -25.2340 -25.2277 -25.2222 -25.2058 -25.1845 -25.1677 -25.1010 -25.0562
   -10.2200  -4.4857  -2.2729  -1.8307  -1.4878  -1.0590  -0.8574  -0.7236
    -0.3626  -0.2611  -0.1848  -0.0583   0.0800   0.2992   0.4276   0.4656
     0.5112   0.5467   0.6355   0.8658   0.9276   0.9902   1.0694   1.1479
     1.2012   1.2629   1.3034   1.3678   1.4644   1.6005   1.6732   1.7253
     1.7890   1.8150   1.8662   2.1555   2.3297

          k =-0.0779 0.1049 0.0000 ( 22856 PWs)   bands (ev):

   -47.7264 -47.7104 -47.6783 -47.6558 -47.6392 -47.6165 -47.5995 -47.5918
   -47.3675 -47.3496 -47.3270 -47.3062 -25.8980 -25.8652 -25.8610 -25.8530
   -25.8330 -25.8062 -25.7816 -25.7652 -25.7341 -25.7274 -25.7216 -25.7065
   -25.6819 -25.6678 -25.6523 -25.6300 -25.5715 -25.5333 -25.4953 -25.4778
   -25.4291 -25.4268 -25.4139 -25.3945 -25.3751 -25.3635 -25.3549 -25.3143
   -25.2348 -25.2278 -25.2212 -25.2066 -25.1826 -25.1686 -25.1009 -25.0568
   -10.2193  -4.5076  -2.2663  -1.8278  -1.4455  -1.0127  -0.8871  -0.6509
    -0.4473  -0.2474  -0.1669  -0.0193   0.0663   0.1785   0.4368   0.4528
     0.5066   0.5374   0.6539   0.8800   0.9318   0.9641   1.0766   1.1634
     1.1999   1.2641   1.2990   1.3863   1.4354   1.5985   1.6645   1.7328
     1.7945   1.8038   1.8638   2.1347   2.2921

          k =-0.0779-0.0450 0.0000 ( 22880 PWs)   bands (ev):

   -47.7256 -47.7113 -47.6711 -47.6690 -47.6259 -47.6238 -47.5967 -47.5944
   -47.3618 -47.3590 -47.3199 -47.3096 -25.8977 -25.8898 -25.8526 -25.8484
   -25.8456 -25.8430 -25.7696 -25.7635 -25.7275 -25.7234 -25.6819 -25.6712
   -25.6550 -25.6445 -25.6368 -25.6320 -25.5874 -25.5860 -25.5415 -25.5336
   -25.4256 -25.4132 -25.3851 -25.3790 -25.3661 -25.3654 -25.2992 -25.2969
   -25.2653 -25.2629 -25.2222 -25.2168 -25.2031 -25.1799 -25.0643 -25.0581
   -10.2190  -4.5186  -2.1203  -1.9253  -1.7058  -0.9654  -0.8207  -0.3541
    -0.3074  -0.2560  -0.1939  -0.1781  -0.1127   0.0586   0.5303   0.5761
     0.6105   0.6172   0.6708   0.6859   1.0150   1.0601   1.0815   1.0966
     1.1500   1.2530   1.3734   1.3921   1.5398   1.5833   1.6200   1.6488
     1.7924   1.8500   1.9440   2.0958   2.2744

     the Fermi energy is     1.5609 ev

!    total energy              =   -1210.88549161 Ry
     Harris-Foulkes estimate   =   -1210.88549338 Ry
     estimated scf accuracy    <       0.00000228 Ry

     The total energy is the sum of the following terms:

     one-electron contribution =   -8399.21334932 Ry
     hartree contribution      =    4192.82675697 Ry
     xc contribution           =    -225.67033183 Ry
     ewald contribution        =    3221.28764574 Ry
     electric field correction =       0.00000014 Ry
     smearing contrib. (-TS)   =      -0.11621333 Ry

     convergence has been achieved in  18 iterations
 
 BEEF-vdW xc energy contributions
           1 :   -193.176903048356     
           2 :    174.701266766456     
           3 :   -143.642160157004     
           4 :    108.805156818567     
           5 :   -78.0567023089287     
           6 :    55.6094451987410     
           7 :   -41.4133941636015     
           8 :    32.5210223727228     
           9 :   -25.3815730493254     
          10 :    17.7691961692651     
          11 :   -9.50015741609457     
          12 :    1.87682646352897     
          13 :    3.54433267241458     
          14 :   -6.04730095064954     
          15 :    6.14137946067325     
          16 :   -5.15346091298554     
          17 :    4.39600281869230     
          18 :   -4.46608451862721     
          19 :    5.07768183870445     
          20 :   -5.45575310733960     
          21 :    4.97118250173980     
          22 :   -3.58534616672227     
          23 :    1.84688168872782     
          24 :  -0.500574004630607     
          25 :   8.241552508764016E-003
          26 :  -0.299287661062408     
          27 :   0.881382698873608     
          28 :   -1.19901307637170     
          29 :   0.987022879398694     
          30 :  -0.398728185216584     
          31 :   -22.4833162541324     
          32 :   -16.7392155696359     

     Forces acting on atoms (Ry/au):


     negative rho (up, down):  7.494E-01 0.000E+00
     atom    1 type  1   force =    -0.00024216   -0.00023440    0.01441844
     atom    2 type  1   force =     0.00017089    0.00096052    0.01525274
     atom    3 type  1   force =     0.00057251   -0.00083355    0.01422707
     atom    4 type  1   force =    -0.00075595   -0.00021115    0.01438209
     atom    5 type  1   force =    -0.00201578    0.00127952   -0.00141333
     atom    6 type  1   force =     0.00249841    0.00142046   -0.00225639
     atom    7 type  1   force =     0.00145067    0.00049663   -0.00548681
     atom    8 type  1   force =     0.00069644   -0.00135170   -0.00378903
     atom    9 type  1   force =     0.02402231   -0.00539502    0.02781742
     atom   10 type  1   force =    -0.02601120   -0.00481654    0.03136206
     atom   11 type  1   force =    -0.00057984   -0.00141278   -0.01232636
     atom   12 type  1   force =     0.00044591    0.00995390   -0.00866499
     atom   13 type  2   force =    -0.00110377   -0.00038471   -0.09625999
     atom   14 type  3   force =     0.01430257   -0.00358549    0.00638486
     atom   15 type  3   force =    -0.01345101    0.00411432    0.00635223

     Total force =     0.114698     Total SCF correction =     0.005498


     entering subroutine stress ...


     negative rho (up, down):  7.494E-01 0.000E+00
          total   stress  (Ry/bohr**3)                   (kbar)     P=  -14.17
  -0.00007898   0.00000414  -0.00000170        -11.62      0.61     -0.25
   0.00000414  -0.00007865  -0.00000078          0.61    -11.57     -0.12
  -0.00000170  -0.00000078  -0.00013133         -0.25     -0.12    -19.32


     BFGS Geometry Optimization

     number of scf cycles    =   1
     number of bfgs steps    =   0

     energy   new            =   -1210.8854916144 Ry

     new trust radius        =       0.0962670869 bohr
     new conv_thr            =       0.0000099958 Ry


ATOMIC_POSITIONS (crystal)
Zr1      0.166666667   0.166666667   0.396150897    0   0   0
Zr1      0.666666667   0.166666667   0.396150897    0   0   0
Zr1      0.166666667   0.666666667   0.396150897    0   0   0
Zr1      0.666666667   0.666666667   0.396150897    0   0   0
Zr1      0.833333333   0.333333333   0.500000000    0   0   0
Zr1      0.333333333   0.333333333   0.500000000    0   0   0
Zr1      0.833333333   0.833333333   0.500000000    0   0   0
Zr1      0.333333333   0.833333333   0.500000000    0   0   0
Zr1      0.002236389  -0.000513388   0.604432251
Zr1      0.498085569  -0.000458340   0.604506558
Zr1      0.000019435   0.499865560   0.603590700
Zr1      0.499563143   0.500947209   0.603667455
C1       0.249927342  -0.000036609   0.676406572
H1       0.292816358   0.112948965   0.703515864
H1       0.207228659   0.887101358   0.703515180



     Writing output data file calc.save
     Check: negative starting charge=   -0.729079
     NEW-OLD atomic charge density approx. for the potential
     Check: negative starting charge=   -0.728609

     negative rho (up, down):  7.488E-01 0.000E+00
 
     Adding external electric field

     Computed dipole along edir(3) : 
        Dipole               -0.0082 Ry au,         -0.0207 Debye
        Dipole field         -0.0000 Ry au
 
        Potential amp.        0.0016 Ry
        Total length         46.5096 bohr
 

     total cpu time spent up to now is      271.3 secs

     per-process dynamical memory:    46.5 Mb

     Self-consistent Calculation

     iteration #  1     ecut=    36.75 Ry     beta=0.30
     Davidson diagonalization with overlap
     ethr =  1.00E-06,  avg # of iterations =  7.5

     negative rho (up, down):  7.488E-01 0.000E+00
 
     Adding external electric field

     Computed dipole along edir(3) : 
        Dipole                0.5683 Ry au,          1.4444 Debye
        Dipole field          0.0012 Ry au
 
        Potential amp.       -0.1092 Ry
        Total length         46.5096 bohr
 

     total cpu time spent up to now is      291.9 secs

     total energy              =   -1210.88319298 Ry
     Harris-Foulkes estimate   =   -1210.89550185 Ry
     estimated scf accuracy    <       0.02657374 Ry

     iteration #  2     ecut=    36.75 Ry     beta=0.30
     Davidson diagonalization with overlap
     ethr =  1.77E-05,  avg # of iterations =  7.2

     negative rho (up, down):  7.489E-01 0.000E+00
 
     Adding external electric field

     Computed dipole along edir(3) : 
        Dipole                0.0577 Ry au,          0.1467 Debye
        Dipole field          0.0001 Ry au
 
        Potential amp.       -0.0111 Ry
        Total length         46.5096 bohr
 

     total cpu time spent up to now is      309.2 secs

     total energy              =   -1210.72696042 Ry
     Harris-Foulkes estimate   =   -1211.08318105 Ry
     estimated scf accuracy    <      17.14384169 Ry

     iteration #  3     ecut=    36.75 Ry     beta=0.30
     Davidson diagonalization with overlap
     ethr =  1.77E-05,  avg # of iterations =  6.3

     negative rho (up, down):  7.489E-01 0.000E+00
 
     Adding external electric field

     Computed dipole along edir(3) : 
        Dipole                0.0356 Ry au,          0.0906 Debye
        Dipole field          0.0001 Ry au
 
        Potential amp.       -0.0068 Ry
        Total length         46.5096 bohr
 

     total cpu time spent up to now is      325.4 secs

     total energy              =   -1210.89457322 Ry
     Harris-Foulkes estimate   =   -1210.89513384 Ry
     estimated scf accuracy    <       0.00209099 Ry

     iteration #  4     ecut=    36.75 Ry     beta=0.30
     Davidson diagonalization with overlap
     ethr =  1.39E-06,  avg # of iterations =  4.1

     negative rho (up, down):  7.489E-01 0.000E+00
 
     Adding external electric field

     Computed dipole along edir(3) : 
        Dipole                0.0340 Ry au,          0.0863 Debye
        Dipole field          0.0001 Ry au
 
        Potential amp.       -0.0065 Ry
        Total length         46.5096 bohr
 

     total cpu time spent up to now is      337.8 secs

     total energy              =   -1210.89456372 Ry
     Harris-Foulkes estimate   =   -1210.89507640 Ry
     estimated scf accuracy    <       0.00345685 Ry

     iteration #  5     ecut=    36.75 Ry     beta=0.30
     Davidson diagonalization with overlap
     ethr =  1.39E-06,  avg # of iterations =  3.6

     negative rho (up, down):  7.489E-01 0.000E+00
 
     Adding external electric field

     Computed dipole along edir(3) : 
        Dipole                0.0391 Ry au,          0.0994 Debye
        Dipole field          0.0001 Ry au
 
        Potential amp.       -0.0075 Ry
        Total length         46.5096 bohr
 

     total cpu time spent up to now is      349.4 secs

     total energy              =   -1210.89472669 Ry
     Harris-Foulkes estimate   =   -1210.89501888 Ry
     estimated scf accuracy    <       0.00265959 Ry

     iteration #  6     ecut=    36.75 Ry     beta=0.30
     Davidson diagonalization with overlap
     ethr =  1.39E-06,  avg # of iterations =  3.0

     negative rho (up, down):  7.489E-01 0.000E+00
 
     Adding external electric field

     Computed dipole along edir(3) : 
        Dipole                0.0401 Ry au,          0.1019 Debye
        Dipole field          0.0001 Ry au
 
        Potential amp.       -0.0077 Ry
        Total length         46.5096 bohr
 

     total cpu time spent up to now is      359.5 secs

     total energy              =   -1210.89484827 Ry
     Harris-Foulkes estimate   =   -1210.89487804 Ry
     estimated scf accuracy    <       0.00015873 Ry

     iteration #  7     ecut=    36.75 Ry     beta=0.30
     Davidson diagonalization with overlap
     ethr =  1.06E-07,  avg # of iterations =  4.3

     negative rho (up, down):  7.489E-01 0.000E+00
 
     Adding external electric field

     Computed dipole along edir(3) : 
        Dipole                0.0370 Ry au,          0.0942 Debye
        Dipole field          0.0001 Ry au
 
        Potential amp.       -0.0071 Ry
        Total length         46.5096 bohr
 

     total cpu time spent up to now is      372.1 secs

     total energy              =   -1210.89487970 Ry
     Harris-Foulkes estimate   =   -1210.89488189 Ry
     estimated scf accuracy    <       0.00004831 Ry

     iteration #  8     ecut=    36.75 Ry     beta=0.30
     Davidson diagonalization with overlap
     ethr =  3.22E-08,  avg # of iterations =  3.1

     negative rho (up, down):  7.489E-01 0.000E+00
 
     Adding external electric field

     Computed dipole along edir(3) : 
        Dipole                0.0361 Ry au,          0.0917 Debye
        Dipole field          0.0001 Ry au
 
        Potential amp.       -0.0069 Ry
        Total length         46.5096 bohr
 

     total cpu time spent up to now is      382.8 secs

     total energy              =   -1210.89488323 Ry
     Harris-Foulkes estimate   =   -1210.89488409 Ry
     estimated scf accuracy    <       0.00001489 Ry

     iteration #  9     ecut=    36.75 Ry     beta=0.30
     Davidson diagonalization with overlap
     ethr =  9.93E-09,  avg # of iterations =  3.2

     negative rho (up, down):  7.489E-01 0.000E+00

     negative rho (up, down):  7.489E-01 0.000E+00

     negative rho (up, down):  7.489E-01 0.000E+00

     negative rho (up, down):  7.489E-01 0.000E+00

     negative rho (up, down):  7.489E-01 0.000E+00

     negative rho (up, down):  7.489E-01 0.000E+00

     negative rho (up, down):  7.489E-01 0.000E+00

     negative rho (up, down):  7.489E-01 0.000E+00

     negative rho (up, down):  7.489E-01 0.000E+00

     negative rho (up, down):  7.489E-01 0.000E+00

     negative rho (up, down):  7.489E-01 0.000E+00

     negative rho (up, down):  7.489E-01 0.000E+00

     negative rho (up, down):  7.489E-01 0.000E+00

     negative rho (up, down):  7.489E-01 0.000E+00

     negative rho (up, down):  7.489E-01 0.000E+00

     negative rho (up, down):  7.489E-01 0.000E+00

     negative rho (up, down):  7.489E-01 0.000E+00

     negative rho (up, down):  7.489E-01 0.000E+00

     negative rho (up, down):  7.489E-01 0.000E+00

     negative rho (up, down):  7.489E-01 0.000E+00

     negative rho (up, down):  7.489E-01 0.000E+00

     negative rho (up, down):  7.489E-01 0.000E+00

     negative rho (up, down):  7.489E-01 0.000E+00

     negative rho (up, down):  7.489E-01 0.000E+00

     negative rho (up, down):  7.489E-01 0.000E+00

     negative rho (up, down):  7.489E-01 0.000E+00

     negative rho (up, down):  7.489E-01 0.000E+00

     negative rho (up, down):  7.489E-01 0.000E+00

     negative rho (up, down):  7.489E-01 0.000E+00

     negative rho (up, down):  7.489E-01 0.000E+00

     negative rho (up, down):  7.489E-01 0.000E+00

     negative rho (up, down):  7.489E-01 0.000E+00

     negative rho (up, down):  7.489E-01 0.000E+00

     negative rho (up, down):  7.489E-01 0.000E+00

     negative rho (up, down):  7.489E-01 0.000E+00
 
     Adding external electric field

     Computed dipole along edir(3) : 
        Dipole                0.0303 Ry au,          0.0771 Debye
        Dipole field          0.0001 Ry au
 
        Potential amp.       -0.0058 Ry
        Total length         46.5096 bohr
 

     total cpu time spent up to now is      408.4 secs

     End of self-consistent calculation

          k = 0.0000 0.0000 0.0000 ( 22923 PWs)   bands (ev):

   -47.7180 -47.6861 -47.6532 -47.5976 -47.5963 -47.5953 -47.5785 -47.5498
   -47.3724 -47.2974 -47.2909 -47.2806 -25.9944 -25.9892 -25.9735 -25.9439
   -25.9409 -25.9241 -25.9075 -25.8321 -25.8077 -25.7916 -25.7169 -25.6418
   -25.5956 -25.5733 -25.4753 -25.4654 -25.4536 -25.4445 -25.4252 -25.4236
   -25.4175 -25.4092 -25.3957 -25.2664 -25.2561 -25.2546 -25.2296 -25.2120
   -25.2057 -25.2006 -25.1786 -25.1125 -25.1063 -25.1042 -24.9582 -24.9567
   -10.1281  -4.2524  -3.4070  -2.5370  -1.8224  -1.3330  -1.0100  -0.9711
    -0.9563  -0.8781  -0.8300  -0.6923  -0.5338  -0.4040  -0.2968  -0.2362
    -0.2109  -0.0095   0.3332   0.6071   0.9759   1.1315   1.5029   1.7492
     1.7832   1.9021   2.0753   2.1562   2.2862   2.3068   2.4415   2.4956
     2.5082   2.5319   2.7430   2.7546   2.7571

          k = 0.0000 0.0300 0.0000 ( 22902 PWs)   bands (ev):

   -47.7144 -47.6802 -47.6530 -47.6027 -47.5969 -47.5958 -47.5824 -47.5498
   -47.3671 -47.2981 -47.2950 -47.2812 -25.9703 -25.9513 -25.9440 -25.9198
   -25.9027 -25.8974 -25.8904 -25.8170 -25.7875 -25.7737 -25.7118 -25.6461
   -25.6138 -25.5800 -25.4748 -25.4662 -25.4534 -25.4490 -25.4458 -25.4436
   -25.4219 -25.4146 -25.3999 -25.3176 -25.3073 -25.2674 -25.2385 -25.2057
   -25.2037 -25.1946 -25.1693 -25.1369 -25.1294 -25.0965 -25.0034 -24.9668
   -10.1264  -4.2595  -3.2261  -2.4194  -1.7120  -1.1744  -0.9712  -0.8626
    -0.8323  -0.8131  -0.6969  -0.6227  -0.3546  -0.2185  -0.1871  -0.1219
    -0.0959   0.0639   0.3704   0.6552   0.9337   1.1364   1.4703   1.7376
     1.7935   1.8710   1.9929   2.0710   2.1321   2.1637   2.2494   2.3171
     2.4448   2.5594   2.6176   2.6492   2.6714

          k = 0.0000 0.0599 0.0000 ( 22852 PWs)   bands (ev):

   -47.7066 -47.6640 -47.6526 -47.6192 -47.5970 -47.5958 -47.5908 -47.5498
   -47.3528 -47.3100 -47.2970 -47.2818 -25.9123 -25.8861 -25.8632 -25.8613
   -25.8423 -25.8273 -25.7856 -25.7772 -25.7518 -25.7329 -25.7003 -25.6591
   -25.6435 -25.6013 -25.5473 -25.5188 -25.5141 -25.4910 -25.4533 -25.4360
   -25.4297 -25.4087 -25.3879 -25.3871 -25.3757 -25.2981 -25.2607 -25.2113
   -25.1995 -25.1913 -25.1851 -25.1806 -25.1618 -25.1220 -25.0696 -24.9945
   -10.1230  -4.2716  -2.7545  -2.1849  -1.4245  -1.1917  -0.7732  -0.6079
    -0.5268  -0.4962  -0.3846  -0.3501  -0.0424   0.0390   0.2009   0.2483
     0.2708   0.3469   0.5181   0.7661   0.8904   1.1399   1.2325   1.4355
     1.5443   1.5866   1.6627   1.7207   1.8717   1.9999   2.0134   2.0527
     2.1021   2.1164   2.2069   2.2283   2.4234

          k = 0.0000-0.0899 0.0000 ( 22880 PWs)   bands (ev):

   -47.7023 -47.6523 -47.6422 -47.6411 -47.5971 -47.5958 -47.5955 -47.5498
   -47.3384 -47.3243 -47.2970 -47.2820 -25.8745 -25.8419 -25.8369 -25.8227
   -25.7972 -25.7736 -25.7563 -25.7222 -25.7056 -25.6775 -25.6674 -25.6500
   -25.6308 -25.6128 -25.6047 -25.5966 -25.5760 -25.5622 -25.5455 -25.5244
   -25.4050 -25.3831 -25.3713 -25.3397 -25.3383 -25.2778 -25.2738 -25.2652
   -25.2470 -25.2331 -25.1892 -25.1854 -25.1831 -25.1609 -25.0358 -25.0286
   -10.1213  -4.2771  -2.3989  -1.9328  -1.7073  -1.0257  -0.7036  -0.3701
    -0.2673  -0.2546  -0.1580  -0.1487   0.0306   0.0988   0.5712   0.6129
     0.6270   0.6440   0.7099   0.7450   1.0836   1.0897   1.1096   1.1558
     1.2081   1.2789   1.4284   1.4406   1.5538   1.6064   1.6516   1.7240
     1.8466   1.8861   2.0250   2.2490   2.3050

          k = 0.0260-0.0150 0.0000 ( 22902 PWs)   bands (ev):

   -47.7134 -47.6802 -47.6560 -47.6027 -47.5964 -47.5962 -47.5775 -47.5527
   -47.3670 -47.3004 -47.2918 -47.2822 -25.9642 -25.9602 -25.9406 -25.9165
   -25.9099 -25.8961 -25.8884 -25.8157 -25.7914 -25.7708 -25.7119 -25.6525
   -25.6012 -25.5860 -25.4682 -25.4620 -25.4590 -25.4537 -25.4477 -25.4459
   -25.4287 -25.4118 -25.3909 -25.3135 -25.3055 -25.2664 -25.2480 -25.2063
   -25.2054 -25.1937 -25.1673 -25.1337 -25.1312 -25.0978 -25.0024 -24.9679
   -10.1257  -4.2534  -3.2232  -2.4014  -1.6947  -1.1568  -1.0164  -0.9236
    -0.8346  -0.7953  -0.6940  -0.5945  -0.4155  -0.2225  -0.1566  -0.1234
    -0.0952   0.0931   0.3597   0.6605   0.9590   1.1116   1.4744   1.7225
     1.7569   1.8867   1.9840   2.0688   2.1225   2.1460   2.2431   2.2893
     2.4391   2.5894   2.6154   2.6248   2.6409

          k = 0.0260 0.0150 0.0000 ( 22902 PWs)   bands (ev):

   -47.7134 -47.6802 -47.6560 -47.6026 -47.5973 -47.5954 -47.5775 -47.5527
   -47.3670 -47.3009 -47.2910 -47.2825 -25.9673 -25.9629 -25.9362 -25.9178
   -25.9143 -25.8961 -25.8835 -25.8157 -25.7914 -25.7708 -25.7121 -25.6523
   -25.6017 -25.5863 -25.4643 -25.4616 -25.4570 -25.4498 -25.4470 -25.4407
   -25.4285 -25.4147 -25.4029 -25.3098 -25.2837 -25.2724 -25.2661 -25.2066
   -25.2056 -25.1940 -25.1661 -25.1344 -25.1304 -25.0981 -25.0021 -24.9682
   -10.1254  -4.2681  -3.2173  -2.4005  -1.6868  -1.1544  -0.9499  -0.8763
    -0.8439  -0.8230  -0.7607  -0.5723  -0.3828  -0.2904  -0.1614  -0.1097
    -0.0999   0.0859   0.3773   0.6598   0.9150   1.1393   1.4722   1.7122
     1.7565   1.8785   1.9795   2.0709   2.1130   2.1426   2.2512   2.3121
     2.4444   2.5862   2.6035   2.6165   2.6413

          k = 0.0260 0.0450 0.0000 ( 22896 PWs)   bands (ev):

   -47.7074 -47.6692 -47.6562 -47.6080 -47.6076 -47.5911 -47.5840 -47.5522
   -47.3571 -47.3048 -47.2982 -47.2814 -25.9320 -25.8915 -25.8904 -25.8755
   -25.8690 -25.8391 -25.8267 -25.7921 -25.7619 -25.7419 -25.7037 -25.6617
   -25.6319 -25.5951 -25.5344 -25.5278 -25.4460 -25.4418 -25.4381 -25.4292
   -25.4245 -25.4125 -25.4058 -25.3972 -25.3663 -25.2920 -25.2780 -25.2089
   -25.2018 -25.1970 -25.1875 -25.1612 -25.1120 -25.1092 -25.0815 -24.9892
   -10.1227  -4.2837  -2.8804  -2.2198  -1.4585  -0.9533  -0.9256  -0.8186
    -0.6580  -0.5781  -0.5140  -0.3776  -0.1022  -0.0390   0.0767   0.0947
     0.1564   0.2443   0.4671   0.7430   0.8596   1.1354   1.3532   1.5184
     1.6015   1.6803   1.7500   1.8177   1.9063   2.0274   2.0848   2.1516
     2.1944   2.2737   2.2911   2.3907   2.4363

          k = 0.0260-0.1049 0.0000 ( 22856 PWs)   bands (ev):

   -47.7008 -47.6562 -47.6499 -47.6274 -47.6108 -47.5913 -47.5881 -47.5516
   -47.3409 -47.3168 -47.3044 -47.2795 -25.8680 -25.8383 -25.8319 -25.8133
   -25.7898 -25.7650 -25.7575 -25.7321 -25.7097 -25.7020 -25.6906 -25.6760
   -25.6550 -25.6399 -25.6162 -25.6039 -25.5461 -25.5293 -25.4722 -25.4672
   -25.4062 -25.3948 -25.3848 -25.3673 -25.3369 -25.3315 -25.3004 -25.2852
   -25.2088 -25.1986 -25.1884 -25.1855 -25.1609 -25.1429 -25.0724 -25.0280
   -10.1203  -4.2846  -2.4027  -1.9680  -1.4170  -1.0010  -0.8258  -0.6121
    -0.3604  -0.2476  -0.1282  -0.0532   0.1428   0.2145   0.4726   0.4818
     0.5305   0.6010   0.6304   0.8727   0.9645   0.9949   1.1551   1.1877
     1.2424   1.3079   1.3421   1.4396   1.5718   1.6493   1.6881   1.7832
     1.8130   1.8384   1.8998   2.1599   2.3509

          k = 0.0260-0.0749 0.0000 ( 22856 PWs)   bands (ev):

   -47.7008 -47.6562 -47.6498 -47.6274 -47.6108 -47.5913 -47.5881 -47.5516
   -47.3410 -47.3164 -47.3049 -47.2794 -25.8642 -25.8385 -25.8317 -25.8122
   -25.7876 -25.7654 -25.7566 -25.7318 -25.7091 -25.7013 -25.6883 -25.6777
   -25.6515 -25.6450 -25.6263 -25.5997 -25.5539 -25.5348 -25.4695 -25.4616
   -25.4057 -25.3980 -25.3858 -25.3692 -25.3359 -25.3307 -25.2970 -25.2825
   -25.2069 -25.2000 -25.1894 -25.1844 -25.1613 -25.1426 -25.0723 -25.0279
   -10.1206  -4.2714  -2.4097  -1.9744  -1.4056  -1.0516  -0.8562  -0.5626
    -0.4400  -0.2476  -0.1212   0.0529   0.1475   0.2141   0.4596   0.4803
     0.5190   0.6031   0.6659   0.8669   0.9882   1.0143   1.1203   1.1839
     1.2411   1.3112   1.3567   1.4277   1.5344   1.6525   1.7147   1.7904
     1.8093   1.8419   1.8959   2.1508   2.3804

          k = 0.0260-0.0450 0.0000 ( 22896 PWs)   bands (ev):

   -47.7074 -47.6692 -47.6562 -47.6088 -47.6068 -47.5911 -47.5840 -47.5522
   -47.3572 -47.3030 -47.3003 -47.2810 -25.9253 -25.8920 -25.8887 -25.8750
   -25.8666 -25.8384 -25.8311 -25.7921 -25.7620 -25.7422 -25.7031 -25.6622
   -25.6297 -25.5940 -25.5479 -25.5352 -25.4450 -25.4442 -25.4330 -25.4260
   -25.4202 -25.4117 -25.4030 -25.3971 -25.3888 -25.2906 -25.2608 -25.2086
   -25.2013 -25.1973 -25.1871 -25.1625 -25.1124 -25.1089 -25.0811 -24.9890
   -10.1233  -4.2560  -2.8929  -2.2199  -1.4872  -0.9929  -0.9402  -0.8439
    -0.7293  -0.5849  -0.4704  -0.3014  -0.1467   0.0395   0.0695   0.1118
     0.1782   0.2633   0.4344   0.7447   0.9212   1.0972   1.3568   1.5305
     1.5973   1.6920   1.7441   1.8051   1.9179   2.0286   2.0871   2.1393
     2.2071   2.2765   2.2892   2.3638   2.4441

          k = 0.0519-0.0300 0.0000 ( 22852 PWs)   bands (ev):

   -47.7017 -47.6647 -47.6633 -47.6191 -47.5966 -47.5963 -47.5744 -47.5598
   -47.3525 -47.3125 -47.2927 -47.2838 -25.9028 -25.8930 -25.8596 -25.8562
   -25.8503 -25.8336 -25.7872 -25.7733 -25.7549 -25.7297 -25.6999 -25.6746
   -25.6176 -25.6112 -25.5292 -25.5204 -25.5170 -25.5155 -25.4475 -25.4295
   -25.4254 -25.4147 -25.3864 -25.3820 -25.3642 -25.2977 -25.2816 -25.2066
   -25.2053 -25.1906 -25.1852 -25.1790 -25.1592 -25.1210 -25.0711 -24.9955
   -10.1210  -4.2549  -2.7225  -2.1059  -1.3973  -1.2911  -0.8510  -0.6564
    -0.5349  -0.4938  -0.3643  -0.3471  -0.1431   0.1294   0.1944   0.2469
     0.2887   0.4058   0.4871   0.7858   0.9310   1.0762   1.2196   1.4496
     1.4753   1.5687   1.5889   1.7092   1.8653   1.9730   2.0173   2.0436
     2.0921   2.1374   2.1801   2.2261   2.4360

          k = 0.0519 0.0000 0.0000 ( 22896 PWs)   bands (ev):

   -47.7043 -47.6692 -47.6631 -47.6084 -47.6072 -47.5911 -47.5714 -47.5609
   -47.3570 -47.3075 -47.2944 -47.2826 -25.9309 -25.8928 -25.8865 -25.8776
   -25.8685 -25.8403 -25.8272 -25.7917 -25.7658 -25.7382 -25.7033 -25.6710
   -25.6152 -25.6027 -25.5366 -25.5330 -25.4478 -25.4411 -25.4347 -25.4267
   -25.4174 -25.4081 -25.4025 -25.3954 -25.3683 -25.2941 -25.2900 -25.2088
   -25.2028 -25.1976 -25.1850 -25.1600 -25.1146 -25.1080 -25.0805 -24.9903
   -10.1214  -4.2722  -2.8671  -2.1727  -1.4359  -0.9982  -0.9366  -0.8051
    -0.7358  -0.6491  -0.5183  -0.2944  -0.1862  -0.0271   0.0800   0.1006
     0.1559   0.3117   0.4706   0.7446   0.8878   1.1192   1.3650   1.5037
     1.5608   1.6282   1.7173   1.7954   1.9280   1.9753   2.0745   2.1206
     2.2163   2.2670   2.2755   2.4030   2.4634

          k = 0.0519 0.0300 0.0000 ( 22852 PWs)   bands (ev):

   -47.7017 -47.6647 -47.6633 -47.6191 -47.5974 -47.5955 -47.5742 -47.5598
   -47.3524 -47.3132 -47.2911 -47.2849 -25.9079 -25.8995 -25.8606 -25.8581
   -25.8557 -25.8313 -25.7850 -25.7712 -25.7525 -25.7292 -25.7005 -25.6737
   -25.6210 -25.6116 -25.5234 -25.5176 -25.5149 -25.4985 -25.4442 -25.4262
   -25.4215 -25.4025 -25.3919 -25.3776 -25.3748 -25.3081 -25.2964 -25.2079
   -25.2040 -25.1914 -25.1846 -25.1784 -25.1589 -25.1207 -25.0712 -24.9960
   -10.1200  -4.2949  -2.7072  -2.1070  -1.3186  -1.2643  -0.7460  -0.6630
    -0.5449  -0.4849  -0.4741  -0.2946  -0.1426   0.0007   0.2055   0.2441
     0.2579   0.3862   0.5413   0.7777   0.8726   1.0867   1.2264   1.4505
     1.4694   1.5371   1.6372   1.7129   1.8669   1.9536   2.0000   2.0560
     2.1004   2.1318   2.1681   2.2347   2.4386

          k = 0.0519-0.1199 0.0000 ( 22856 PWs)   bands (ev):

   -47.6964 -47.6654 -47.6499 -47.6273 -47.6109 -47.5881 -47.5807 -47.5576
   -47.3400 -47.3201 -47.3012 -47.2803 -25.8670 -25.8383 -25.8281 -25.8236
   -25.7992 -25.7771 -25.7512 -25.7367 -25.7074 -25.6968 -25.6943 -25.6702
   -25.6578 -25.6387 -25.6070 -25.5871 -25.5500 -25.5333 -25.4684 -25.4422
   -25.4037 -25.3961 -25.3840 -25.3674 -25.3392 -25.3346 -25.3254 -25.2870
   -25.2083 -25.1991 -25.1937 -25.1790 -25.1596 -25.1423 -25.0738 -25.0289
   -10.1183  -4.2995  -2.3300  -1.9310  -1.4341  -0.9996  -0.8080  -0.6417
    -0.4136  -0.2184  -0.1217  -0.0601   0.1085   0.1677   0.4708   0.4823
     0.5317   0.5887   0.6301   0.8686   0.9666   1.0023   1.1120   1.1915
     1.2477   1.2878   1.3300   1.4433   1.5518   1.6239   1.6769   1.7815
     1.8164   1.8405   1.8992   2.1368   2.2972

          k = 0.0519-0.0899 0.0000 ( 22914 PWs)   bands (ev):

   -47.6937 -47.6656 -47.6316 -47.6302 -47.6294 -47.5851 -47.5843 -47.5564
   -47.3286 -47.3224 -47.3129 -47.2778 -25.8163 -25.8034 -25.7961 -25.7720
   -25.7618 -25.7500 -25.7363 -25.7236 -25.7185 -25.6840 -25.6681 -25.6620
   -25.6586 -25.6549 -25.6515 -25.6470 -25.6179 -25.6097 -25.4166 -25.4084
   -25.4053 -25.4016 -25.3969 -25.3745 -25.3597 -25.3536 -25.2971 -25.2940
   -25.2873 -25.2027 -25.1860 -25.1786 -25.1591 -25.0903 -25.0851 -25.0822
   -10.1180  -4.2826  -2.1477  -1.5219  -1.4798  -1.3937  -0.7163  -0.5544
    -0.4242  -0.0285   0.2586   0.2806   0.3233   0.3408   0.4055   0.4647
     0.7824   0.7962   0.8486   0.8938   0.9054   0.9092   0.9159   0.9267
     0.9873   1.1261   1.1975   1.3795   1.4088   1.4893   1.5170   1.5479
     1.5759   1.6580   1.7570   1.8599   2.3606

          k = 0.0519-0.0599 0.0000 ( 22856 PWs)   bands (ev):

   -47.6964 -47.6653 -47.6498 -47.6274 -47.6108 -47.5881 -47.5808 -47.5575
   -47.3404 -47.3190 -47.3023 -47.2800 -25.8587 -25.8359 -25.8257 -25.8181
   -25.7973 -25.7736 -25.7519 -25.7355 -25.7110 -25.6989 -25.6930 -25.6712
   -25.6474 -25.6423 -25.6184 -25.5992 -25.5618 -25.5384 -25.4701 -25.4595
   -25.4055 -25.3889 -25.3806 -25.3677 -25.3354 -25.3329 -25.3080 -25.2854
   -25.2068 -25.2003 -25.1938 -25.1786 -25.1615 -25.1412 -25.0740 -25.0283
   -10.1194  -4.2607  -2.3432  -1.9432  -1.4732  -1.0860  -0.8314  -0.6885
    -0.3252  -0.2788  -0.1573   0.0558   0.1137   0.2816   0.4576   0.4731
     0.5444   0.6158   0.6348   0.8597   0.9714   1.0217   1.0849   1.1982
     1.2409   1.2961   1.3386   1.4135   1.5400   1.6379   1.7024   1.7817
     1.8112   1.8509   1.8912   2.1433   2.3479

          k =-0.0779 0.0450 0.0000 ( 22880 PWs)   bands (ev):

   -47.6927 -47.6712 -47.6418 -47.6414 -47.5966 -47.5963 -47.5705 -47.5656
   -47.3355 -47.3289 -47.2929 -47.2843 -25.8608 -25.8496 -25.8206 -25.8172
   -25.8125 -25.8058 -25.7389 -25.7310 -25.6993 -25.6930 -25.6489 -25.6404
   -25.6294 -25.6187 -25.6076 -25.6059 -25.5604 -25.5555 -25.5495 -25.5310
   -25.4002 -25.3903 -25.3427 -25.3392 -25.3317 -25.3175 -25.2700 -25.2688
   -25.2389 -25.2376 -25.1927 -25.1893 -25.1766 -25.1584 -25.0387 -25.0282
   -10.1187  -4.2556  -2.2009  -1.9572  -1.7731  -1.0999  -0.8262  -0.3705
    -0.2764  -0.2374  -0.1685  -0.1472  -0.1000   0.3168   0.5593   0.5813
     0.6384   0.6531   0.6783   0.7480   1.0381   1.0949   1.1078   1.1197
     1.1812   1.2590   1.3979   1.4246   1.5801   1.5936   1.6561   1.6744
     1.8324   1.8817   2.0504   2.2030   2.3074

          k =-0.0779 0.0749 0.0000 ( 22856 PWs)   bands (ev):

   -47.6932 -47.6705 -47.6498 -47.6274 -47.6108 -47.5881 -47.5727 -47.5636
   -47.3399 -47.3205 -47.3009 -47.2804 -25.8636 -25.8304 -25.8281 -25.8200
   -25.8024 -25.7705 -25.7527 -25.7323 -25.7076 -25.7000 -25.6926 -25.6790
   -25.6527 -25.6365 -25.6263 -25.6009 -25.5449 -25.5206 -25.4717 -25.4661
   -25.4067 -25.3888 -25.3736 -25.3664 -25.3363 -25.3313 -25.3230 -25.2874
   -25.2065 -25.2001 -25.1938 -25.1786 -25.1607 -25.1422 -25.0737 -25.0290
   -10.1184  -4.2684  -2.2963  -1.9484  -1.4701  -1.0575  -0.8291  -0.7150
    -0.3344  -0.2430  -0.1703  -0.0464   0.1068   0.3045   0.4552   0.4929
     0.5405   0.5781   0.6594   0.8999   0.9546   1.0160   1.1004   1.1794
     1.2284   1.2907   1.3423   1.3924   1.4858   1.6298   1.7042   1.7486
     1.8173   1.8483   1.8951   2.1809   2.3604

          k =-0.0779 0.1049 0.0000 ( 22856 PWs)   bands (ev):

   -47.6932 -47.6705 -47.6498 -47.6273 -47.6109 -47.5881 -47.5726 -47.5637
   -47.3397 -47.3211 -47.3002 -47.2806 -25.8677 -25.8342 -25.8300 -25.8229
   -25.8020 -25.7766 -25.7512 -25.7343 -25.7050 -25.6978 -25.6908 -25.6770
   -25.6512 -25.6393 -25.6216 -25.6002 -25.5433 -25.5084 -25.4676 -25.4473
   -25.4015 -25.3965 -25.3851 -25.3674 -25.3439 -25.3350 -25.3273 -25.2872
   -25.2072 -25.2001 -25.1931 -25.1790 -25.1592 -25.1428 -25.0734 -25.0295
   -10.1177  -4.2940  -2.2917  -1.9408  -1.4198  -1.0046  -0.8672  -0.6252
    -0.4466  -0.2235  -0.1491  -0.0272   0.0970   0.1907   0.4649   0.4822
     0.5366   0.5698   0.6787   0.9045   0.9635   0.9920   1.1086   1.1954
     1.2247   1.2901   1.3308   1.4150   1.4616   1.6246   1.6956   1.7599
     1.8245   1.8383   1.8931   2.1624   2.3249

          k =-0.0779-0.0450 0.0000 ( 22880 PWs)   bands (ev):

   -47.6926 -47.6714 -47.6426 -47.6406 -47.5974 -47.5955 -47.5701 -47.5660
   -47.3327 -47.3322 -47.2911 -47.2856 -25.8690 -25.8570 -25.8229 -25.8190
   -25.8142 -25.8118 -25.7395 -25.7326 -25.6984 -25.6934 -25.6556 -25.6399
   -25.6226 -25.6112 -25.6070 -25.6027 -25.5597 -25.5572 -25.5205 -25.5016
   -25.3976 -25.3878 -25.3570 -25.3459 -25.3376 -25.3352 -25.2725 -25.2682
   -25.2387 -25.2364 -25.1927 -25.1895 -25.1762 -25.1581 -25.0355 -25.0320
   -10.1173  -4.3069  -2.2055  -1.8901  -1.7703  -0.9291  -0.8170  -0.3685
    -0.2773  -0.2369  -0.1610  -0.1488  -0.0966   0.0301   0.5590   0.6005
     0.6407   0.6465   0.7030   0.7161   1.0437   1.0829   1.1139   1.1262
     1.1808   1.2890   1.3985   1.4255   1.5722   1.6102   1.6515   1.6707
     1.8134   1.8891   1.9822   2.1240   2.3020

     the Fermi energy is     1.5897 ev

!    total energy              =   -1210.89488466 Ry
     Harris-Foulkes estimate   =   -1210.89488563 Ry
     estimated scf accuracy    <       0.00000388 Ry

     The total energy is the sum of the following terms:

     one-electron contribution =   -8400.77414091 Ry
     hartree contribution      =    4193.75625509 Ry
     xc contribution           =    -225.64778338 Ry
     ewald contribution        =    3221.88702785 Ry
     electric field correction =       0.00000190 Ry
     smearing contrib. (-TS)   =      -0.11624521 Ry

     convergence has been achieved in   9 iterations
 
 BEEF-vdW xc energy contributions
           1 :   -193.159715556313     
           2 :    174.696591738449     
           3 :   -143.652612638599     
           4 :    108.823639673298     
           5 :   -78.0733549889612     
           6 :    55.6173998749232     
           7 :   -41.4106426830402     
           8 :    32.5097173681513     
           9 :   -25.3661165814066     
          10 :    17.7541455996188     
          11 :   -9.48877544267302     
          12 :    1.87054787386694     
          13 :    3.54585054934370     
          14 :   -6.04549796591522     
          15 :    6.13772131754939     
          16 :   -5.14876471269292     
          17 :    4.39004530906936     
          18 :   -4.45744655304256     
          19 :    5.06450965979974     
          20 :   -5.43730627588246     
          21 :    4.94921755353027     
          22 :   -3.56401367754154     
          23 :    1.83067715592446     
          24 :  -0.491571957678161     
          25 :   4.664058084415501E-003
          26 :  -0.296574192256884     
          27 :   0.875060933738951     
          28 :   -1.18736636098134     
          29 :   0.971844578354364     
          30 :  -0.383924832874271     
          31 :   -22.4824763849515     
          32 :   -16.7411596801877     

     Forces acting on atoms (Ry/au):


     negative rho (up, down):  7.489E-01 0.000E+00
     atom    1 type  1   force =    -0.00021986   -0.00013676    0.01481233
     atom    2 type  1   force =     0.00011732    0.00100597    0.01551298
     atom    3 type  1   force =     0.00056748   -0.00089003    0.01468625
     atom    4 type  1   force =    -0.00071756   -0.00023930    0.01479319
     atom    5 type  1   force =    -0.00209560    0.00066739   -0.00165244
     atom    6 type  1   force =     0.00252910    0.00073080   -0.00232339
     atom    7 type  1   force =     0.00141181    0.00156028   -0.00414142
     atom    8 type  1   force =     0.00065184   -0.00100904   -0.00410144
     atom    9 type  1   force =     0.01732089   -0.00476321    0.02200713
     atom   10 type  1   force =    -0.01924494   -0.00372604    0.02576786
     atom   11 type  1   force =    -0.00072656   -0.00129133   -0.01226142
     atom   12 type  1   force =     0.00068935    0.00839682   -0.00915182
     atom   13 type  2   force =    -0.00061060   -0.00013625   -0.03294965
     atom   14 type  3   force =    -0.00410273   -0.02249387   -0.02100282
     atom   15 type  3   force =     0.00443007    0.02232456   -0.01999535

     Total force =     0.071626     Total SCF correction =     0.002484


     entering subroutine stress ...


     negative rho (up, down):  7.489E-01 0.000E+00
          total   stress  (Ry/bohr**3)                   (kbar)     P=  -14.81
  -0.00008153  -0.00000296  -0.00000171        -11.99     -0.44     -0.25
  -0.00000296  -0.00008405  -0.00000141         -0.44    -12.36     -0.21
  -0.00000171  -0.00000141  -0.00013637         -0.25     -0.21    -20.06


     number of scf cycles    =   2
     number of bfgs steps    =   1

     energy   old            =   -1210.8854916144 Ry
     energy   new            =   -1210.8948846570 Ry

     CASE: energy  _new < energy  _old

     new trust radius        =       0.1186043507 bohr
     new conv_thr            =       0.0000001000 Ry


ATOMIC_POSITIONS (crystal)
Zr1      0.166666667   0.166666667   0.396150897    0   0   0
Zr1      0.666666667   0.166666667   0.396150897    0   0   0
Zr1      0.166666667   0.666666667   0.396150897    0   0   0
Zr1      0.666666667   0.666666667   0.396150897    0   0   0
Zr1      0.833333333   0.333333333   0.500000000    0   0   0
Zr1      0.333333333   0.333333333   0.500000000    0   0   0
Zr1      0.833333333   0.833333333   0.500000000    0   0   0
Zr1      0.333333333   0.833333333   0.500000000    0   0   0
Zr1      0.006551633  -0.001633150   0.605610214
Zr1      0.494404257  -0.001370080   0.605869829
Zr1      0.000034445   0.499564979   0.602976352
Zr1      0.498685780   0.502947797   0.603215991
C1       0.249804529  -0.000082472   0.673920518
H1       0.294953201   0.108975482   0.702827281
H1       0.205181727   0.891078307   0.702863247



     Writing output data file calc.save
     Check: negative starting charge=   -0.728609
     NEW-OLD atomic charge density approx. for the potential
     Check: negative starting charge=   -0.729170

     negative rho (up, down):  7.493E-01 0.000E+00
 
     Adding external electric field

     Computed dipole along edir(3) : 
        Dipole                0.0305 Ry au,          0.0774 Debye
        Dipole field          0.0001 Ry au
 
        Potential amp.       -0.0059 Ry
        Total length         46.5096 bohr
 

     total cpu time spent up to now is      431.8 secs

     per-process dynamical memory:    50.3 Mb

     Self-consistent Calculation

     iteration #  1     ecut=    36.75 Ry     beta=0.30
     Davidson diagonalization with overlap
     c_bands:  1 eigenvalues not converged
     c_bands:  1 eigenvalues not converged
     ethr =  1.00E-06,  avg # of iterations = 11.9

     negative rho (up, down):  7.494E-01 0.000E+00
 
     Adding external electric field

     Computed dipole along edir(3) : 
        Dipole                0.2984 Ry au,          0.7585 Debye
        Dipole field          0.0006 Ry au
 
        Potential amp.       -0.0573 Ry
        Total length         46.5096 bohr
 

     total cpu time spent up to now is      456.7 secs

     total energy              =   -1210.90054936 Ry
     Harris-Foulkes estimate   =   -1210.90547027 Ry
     estimated scf accuracy    <       0.01196656 Ry

     iteration #  2     ecut=    36.75 Ry     beta=0.30
     Davidson diagonalization with overlap
     ethr =  7.98E-06,  avg # of iterations =  6.8

     negative rho (up, down):  7.494E-01 0.000E+00
 
[...]
   -25.4780 -25.4679 -25.3188 -25.3155 -25.3075 -25.2913 -25.2795 -25.2728
   -25.2681 -25.2477 -25.2259 -25.1740 -25.1328 -25.1261 -25.0887 -25.0290
   -25.0211 -24.9791 -24.9562 -24.9420 -24.9355 -24.9008 -24.8051 -24.7730
   -10.9785  -5.2042  -3.2474  -2.6919  -1.6977  -1.3537  -1.0308  -0.8539
    -0.7538  -0.7217  -0.6229  -0.4660  -0.4113  -0.1483  -0.0430  -0.0087
     0.0193   0.2719   0.3669   0.7818   1.0819   1.3636   1.6303   1.8231
     1.9096   2.0436   2.1221   2.2174   2.3160   2.3571   2.3873   2.4473
     2.5781   2.6660   2.7335   2.7504   2.7700

          k = 0.0260 0.0450 0.0000 ( 22896 PWs)   bands (ev):

   -47.5509 -47.5347 -47.4891 -47.4748 -47.4730 -47.4570 -47.3991 -47.3650
   -47.1666 -47.1204 -47.0930 -47.0660 -25.7946 -25.7600 -25.7526 -25.7487
   -25.7334 -25.6994 -25.6795 -25.6571 -25.6304 -25.6113 -25.5677 -25.5189
   -25.5070 -25.4752 -25.3994 -25.3801 -25.2962 -25.2918 -25.2888 -25.2631
   -25.2574 -25.2473 -25.2349 -25.2170 -25.1988 -25.1569 -25.1065 -25.0225
   -25.0124 -25.0103 -24.9736 -24.9500 -24.9214 -24.9148 -24.8816 -24.7921
   -10.9762  -5.2049  -3.0430  -2.4723  -1.4981  -1.1231  -0.8322  -0.7923
    -0.6508  -0.4873  -0.4680  -0.2558  -0.1193   0.1023   0.1881   0.1952
     0.2798   0.3986   0.5130   0.8596   1.0067   1.3020   1.5020   1.6191
     1.7236   1.8223   1.8633   1.8926   2.0653   2.1560   2.2285   2.2806
     2.3462   2.4458   2.4943   2.5298   2.5861

          k = 0.0260-0.1049 0.0000 ( 22856 PWs)   bands (ev):

   -47.5456 -47.5158 -47.4933 -47.4885 -47.4769 -47.4541 -47.4054 -47.3645
   -47.1564 -47.1214 -47.1029 -47.0655 -25.7310 -25.7121 -25.6990 -25.6827
   -25.6648 -25.6365 -25.6275 -25.5880 -25.5762 -25.5623 -25.5485 -25.5382
   -25.5246 -25.5072 -25.4838 -25.4579 -25.4086 -25.3728 -25.3304 -25.2925
   -25.2509 -25.2321 -25.2213 -25.2005 -25.1686 -25.1462 -25.1314 -25.0934
   -25.0191 -25.0119 -24.9997 -24.9734 -24.9488 -24.9438 -24.8830 -24.8262
   -10.9739  -5.2057  -2.8731  -1.9753  -1.3412  -1.1618  -0.7341  -0.6334
    -0.4280  -0.1900  -0.0655   0.0386   0.2112   0.3217   0.5691   0.5908
     0.6144   0.6989   0.7586   0.9865   1.0913   1.1191   1.2459   1.2985
     1.3617   1.4281   1.4670   1.5555   1.6739   1.7806   1.8245   1.9057
     1.9397   2.0021   2.0555   2.3168   2.5457

          k = 0.0260-0.0749 0.0000 ( 22856 PWs)   bands (ev):

   -47.5456 -47.5158 -47.4933 -47.4885 -47.4769 -47.4541 -47.4055 -47.3645
   -47.1564 -47.1213 -47.1029 -47.0655 -25.7312 -25.7122 -25.6991 -25.6826
   -25.6647 -25.6365 -25.6275 -25.5881 -25.5763 -25.5622 -25.5483 -25.5382
   -25.5243 -25.5074 -25.4840 -25.4581 -25.4086 -25.3722 -25.3304 -25.2932
   -25.2508 -25.2317 -25.2209 -25.2005 -25.1689 -25.1458 -25.1316 -25.0937
   -25.0191 -25.0121 -24.9996 -24.9734 -24.9488 -24.9437 -24.8831 -24.8260
   -10.9739  -5.2058  -2.8729  -1.9754  -1.3408  -1.1618  -0.7333  -0.6346
    -0.4270  -0.1903  -0.0650   0.0375   0.2115   0.3209   0.5657   0.5920
     0.6149   0.6997   0.7581   0.9863   1.0880   1.1195   1.2458   1.2992
     1.3613   1.4300   1.4679   1.5550   1.6732   1.7827   1.8254   1.9051
     1.9403   2.0022   2.0554   2.3165   2.5482

          k = 0.0260-0.0450 0.0000 ( 22896 PWs)   bands (ev):

   -47.5509 -47.5347 -47.4891 -47.4748 -47.4730 -47.4570 -47.3991 -47.3649
   -47.1666 -47.1204 -47.0930 -47.0660 -25.7948 -25.7599 -25.7524 -25.7491
   -25.7334 -25.6993 -25.6795 -25.6572 -25.6305 -25.6114 -25.5676 -25.5187
   -25.5069 -25.4751 -25.3994 -25.3797 -25.2962 -25.2918 -25.2886 -25.2631
   -25.2571 -25.2471 -25.2351 -25.2175 -25.1990 -25.1569 -25.1063 -25.0227
   -25.0126 -25.0102 -24.9736 -24.9502 -24.9216 -24.9146 -24.8817 -24.7919
   -10.9762  -5.2050  -3.0427  -2.4723  -1.4975  -1.1230  -0.8319  -0.7922
    -0.6512  -0.4861  -0.4694  -0.2564  -0.1187   0.1012   0.1857   0.1949
     0.2812   0.3980   0.5131   0.8599   1.0064   1.2998   1.5022   1.6196
     1.7225   1.8212   1.8638   1.8936   2.0637   2.1572   2.2302   2.2809
     2.3472   2.4480   2.4939   2.5325   2.5903

          k = 0.0519-0.0300 0.0000 ( 22852 PWs)   bands (ev):

   -47.5464 -47.5296 -47.4954 -47.4851 -47.4635 -47.4613 -47.3892 -47.3731
   -47.1613 -47.1287 -47.0855 -47.0706 -25.7734 -25.7558 -25.7379 -25.7180
   -25.7102 -25.6906 -25.6479 -25.6315 -25.6221 -25.6015 -25.5653 -25.5303
   -25.4982 -25.4936 -25.3890 -25.3810 -25.3803 -25.3389 -25.3077 -25.2623
   -25.2472 -25.2333 -25.2298 -25.2053 -25.1923 -25.1634 -25.1200 -25.0217
   -25.0177 -24.9996 -24.9939 -24.9642 -24.9485 -24.9197 -24.8753 -24.8002
   -10.9708  -5.2258  -2.8811  -2.3384  -1.3724  -1.1954  -1.0024  -0.5586
    -0.5165  -0.4153  -0.3480  -0.1956  -0.1241   0.0988   0.2888   0.3488
     0.3756   0.5254   0.6131   0.8973   1.0128   1.2330   1.3482   1.5396
     1.5825   1.6630   1.6933   1.8185   1.9781   2.0956   2.1226   2.1889
     2.2482   2.2846   2.3648   2.3998   2.6277

          k = 0.0519 0.0000 0.0000 ( 22896 PWs)   bands (ev):

   -47.5485 -47.5347 -47.4951 -47.4755 -47.4722 -47.4571 -47.3864 -47.3742
   -47.1649 -47.1268 -47.0835 -47.0708 -25.7931 -25.7561 -25.7531 -25.7492
   -25.7305 -25.6947 -25.6835 -25.6561 -25.6322 -25.6107 -25.5684 -25.5235
   -25.4994 -25.4807 -25.4000 -25.3903 -25.2939 -25.2920 -25.2791 -25.2645
   -25.2544 -25.2423 -25.2310 -25.2227 -25.2036 -25.1561 -25.1156 -25.0204
   -25.0166 -25.0142 -24.9693 -24.9495 -24.9207 -24.9088 -24.8817 -24.7956
   -10.9716  -5.2257  -2.9573  -2.4475  -1.3666  -1.2797  -0.8128  -0.7978
    -0.6624  -0.5496  -0.4818  -0.2672  -0.1331   0.0870   0.1849   0.2077
     0.2625   0.4526   0.5314   0.8566   1.0116   1.3000   1.4972   1.5963
     1.6859   1.7249   1.7923   1.8944   2.0572   2.1453   2.2085   2.2488
     2.3693   2.4129   2.4639   2.5576   2.6142

          k = 0.0519 0.0300 0.0000 ( 22852 PWs)   bands (ev):

   -47.5464 -47.5296 -47.4954 -47.4852 -47.4635 -47.4614 -47.3891 -47.3732
   -47.1613 -47.1288 -47.0854 -47.0706 -25.7733 -25.7558 -25.7378 -25.7180
   -25.7100 -25.6906 -25.6480 -25.6314 -25.6219 -25.6015 -25.5654 -25.5304
   -25.4985 -25.4939 -25.3903 -25.3810 -25.3803 -25.3376 -25.3076 -25.2628
   -25.2473 -25.2339 -25.2297 -25.2051 -25.1918 -25.1634 -25.1203 -25.0217
   -25.0182 -24.9992 -24.9932 -24.9640 -24.9483 -24.9195 -24.8755 -24.8005
   -10.9708  -5.2257  -2.8816  -2.3386  -1.3740  -1.1950  -1.0021  -0.5582
    -0.5150  -0.4164  -0.3475  -0.1959  -0.1250   0.1013   0.2907   0.3484
     0.3762   0.5245   0.6140   0.8972   1.0129   1.2361   1.3479   1.5394
     1.5835   1.6629   1.6928   1.8165   1.9780   2.0943   2.1217   2.1879
     2.2466   2.2847   2.3668   2.3985   2.6222

          k = 0.0519-0.1199 0.0000 ( 22856 PWs)   bands (ev):

   -47.5425 -47.5158 -47.4959 -47.4930 -47.4768 -47.4541 -47.3949 -47.3712
   -47.1526 -47.1323 -47.0925 -47.0687 -25.7299 -25.7103 -25.6963 -25.6794
   -25.6657 -25.6287 -25.6160 -25.5994 -25.5798 -25.5639 -25.5548 -25.5358
   -25.5281 -25.5095 -25.4836 -25.4527 -25.4089 -25.3852 -25.3311 -25.2881
   -25.2502 -25.2183 -25.2131 -25.2004 -25.1789 -25.1573 -25.1393 -25.0851
   -25.0186 -25.0149 -25.0074 -24.9637 -24.9543 -24.9363 -24.8787 -24.8322
   -10.9693  -5.2259  -2.7578  -1.9701  -1.3396  -1.1707  -0.7333  -0.6490
    -0.4470  -0.1947  -0.0756   0.0557   0.1893   0.2602   0.5614   0.5657
     0.6358   0.6862   0.7574   0.9698   1.0771   1.1231   1.2211   1.2797
     1.3695   1.3935   1.4459   1.5437   1.6606   1.7539   1.8075   1.9128
     1.9461   1.9936   2.0455   2.3094   2.5303

          k = 0.0519-0.0899 0.0000 ( 22914 PWs)   bands (ev):

   -47.5406 -47.4982 -47.4973 -47.4956 -47.4933 -47.4511 -47.3980 -47.3701
   -47.1471 -47.1340 -47.0977 -47.0674 -25.6900 -25.6722 -25.6716 -25.6417
   -25.6228 -25.6114 -25.6057 -25.5817 -25.5770 -25.5551 -25.5319 -25.5288
   -25.5237 -25.5185 -25.5155 -25.5042 -25.4822 -25.4596 -25.2658 -25.2644
   -25.2621 -25.2462 -25.2322 -25.2100 -25.1783 -25.1628 -25.1101 -25.0937
   -25.0916 -25.0180 -25.0021 -24.9620 -24.9481 -24.9019 -24.8876 -24.8790
   -10.9685  -5.2259  -2.7103  -1.4495  -1.3354  -1.2833  -1.0325  -0.3972
    -0.3239  -0.2548   0.2860   0.3936   0.4037   0.4544   0.4877   0.5754
     0.8611   0.8815   0.9499   0.9871   0.9913   1.0136   1.0488   1.0582
     1.0654   1.2264   1.3314   1.5110   1.5460   1.6145   1.6421   1.6699
     1.7528   1.7932   1.8879   1.9998   2.6158

          k = 0.0519-0.0599 0.0000 ( 22856 PWs)   bands (ev):

   -47.5425 -47.5158 -47.4959 -47.4930 -47.4768 -47.4541 -47.3950 -47.3711
   -47.1526 -47.1323 -47.0926 -47.0687 -25.7301 -25.7104 -25.6965 -25.6797
   -25.6656 -25.6285 -25.6156 -25.5996 -25.5801 -25.5639 -25.5547 -25.5356
   -25.5281 -25.5090 -25.4834 -25.4519 -25.4090 -25.3859 -25.3311 -25.2878
   -25.2502 -25.2183 -25.2126 -25.2003 -25.1788 -25.1569 -25.1399 -25.0854
   -25.0188 -25.0153 -25.0072 -24.9635 -24.9550 -24.9361 -24.8786 -24.8319
   -10.9693  -5.2259  -2.7571  -1.9701  -1.3389  -1.1701  -0.7344  -0.6486
    -0.4475  -0.1934  -0.0753   0.0539   0.1898   0.2572   0.5594   0.5654
     0.6354   0.6865   0.7563   0.9698   1.0768   1.1195   1.2216   1.2792
     1.3685   1.3948   1.4480   1.5457   1.6601   1.7543   1.8098   1.9127
     1.9476   1.9943   2.0467   2.3094   2.5298

          k =-0.0779 0.0450 0.0000 ( 22880 PWs)   bands (ev):

   -47.5404 -47.5086 -47.5069 -47.4991 -47.4635 -47.4614 -47.3836 -47.3806
   -47.1451 -47.1430 -47.0853 -47.0727 -25.7342 -25.7124 -25.6991 -25.6829
   -25.6779 -25.6531 -25.6035 -25.5945 -25.5714 -25.5582 -25.5278 -25.5183
   -25.5024 -25.4773 -25.4735 -25.4527 -25.4227 -25.4219 -25.3738 -25.3592
   -25.2089 -25.2079 -25.2032 -25.2007 -25.1780 -25.1500 -25.0887 -25.0780
   -25.0391 -25.0355 -25.0057 -25.0031 -24.9573 -24.9465 -24.8442 -24.8319
   -10.9670  -5.2359  -2.6864  -1.7883  -1.7327  -1.1709  -0.7065  -0.5670
    -0.1848  -0.1555  -0.0717  -0.0317   0.0273   0.0571   0.6489   0.6862
     0.7251   0.7504   0.7825   0.8426   1.1305   1.1627   1.2300   1.2428
     1.3114   1.3651   1.5201   1.5505   1.7004   1.7318   1.7588   1.8157
     1.9337   2.0449   2.1785   2.3220   2.4614

          k =-0.0779 0.0749 0.0000 ( 22856 PWs)   bands (ev):

   -47.5407 -47.5158 -47.4992 -47.4933 -47.4767 -47.4542 -47.3859 -47.3785
   -47.1492 -47.1380 -47.0880 -47.0710 -25.7300 -25.7064 -25.6971 -25.6816
   -25.6649 -25.6254 -25.6123 -25.5961 -25.5806 -25.5621 -25.5556 -25.5348
   -25.5291 -25.5148 -25.4877 -25.4697 -25.4086 -25.3591 -25.3307 -25.2969
   -25.2502 -25.2204 -25.2129 -25.1994 -25.1789 -25.1591 -25.1367 -25.0954
   -25.0175 -25.0106 -25.0043 -24.9656 -24.9509 -24.9390 -24.8776 -24.8339
   -10.9670  -5.2359  -2.6941  -1.9609  -1.3730  -1.0884  -0.8279  -0.6882
    -0.4117  -0.1849  -0.0916  -0.0092   0.2005   0.2996   0.5531   0.5751
     0.6348   0.6762   0.7732   0.9867   1.0674   1.1131   1.2199   1.2793
     1.3476   1.4073   1.4349   1.5099   1.5874   1.7354   1.8453   1.8787
     1.9648   1.9989   2.0434   2.3337   2.5010

          k =-0.0779 0.1049 0.0000 ( 22856 PWs)   bands (ev):

   -47.5406 -47.5158 -47.4992 -47.4933 -47.4767 -47.4542 -47.3858 -47.3785
   -47.1492 -47.1380 -47.0879 -47.0710 -25.7298 -25.7064 -25.6969 -25.6815
   -25.6646 -25.6254 -25.6125 -25.5959 -25.5807 -25.5621 -25.5558 -25.5350
   -25.5295 -25.5149 -25.4877 -25.4697 -25.4086 -25.3591 -25.3307 -25.2968
   -25.2502 -25.2207 -25.2127 -25.1994 -25.1792 -25.1592 -25.1364 -25.0953
   -25.0171 -25.0109 -25.0042 -24.9655 -24.9505 -24.9391 -24.8778 -24.8340
   -10.9670  -5.2359  -2.6945  -1.9610  -1.3731  -1.0898  -0.8270  -0.6878
    -0.4108  -0.1861  -0.0905  -0.0095   0.1992   0.3021   0.5547   0.5754
     0.6344   0.6762   0.7734   0.9869   1.0698   1.1112   1.2207   1.2802
     1.3486   1.4074   1.4351   1.5075   1.5859   1.7360   1.8454   1.8772
     1.9639   1.9974   2.0432   2.3337   2.5037

          k =-0.0779-0.0450 0.0000 ( 22880 PWs)   bands (ev):

   -47.5404 -47.5085 -47.5069 -47.4991 -47.4635 -47.4614 -47.3831 -47.3810
   -47.1446 -47.1435 -47.0852 -47.0727 -25.7340 -25.7124 -25.6989 -25.6821
   -25.6781 -25.6532 -25.6035 -25.5938 -25.5719 -25.5585 -25.5286 -25.5189
   -25.5027 -25.4774 -25.4735 -25.4532 -25.4226 -25.4219 -25.3733 -25.3589
   -25.2092 -25.2079 -25.2036 -25.2008 -25.1777 -25.1506 -25.0889 -25.0770
   -25.0389 -25.0356 -25.0053 -25.0028 -24.9573 -24.9464 -24.8442 -24.8324
   -10.9670  -5.2359  -2.6873  -1.7885  -1.7326  -1.1724  -0.7054  -0.5662
    -0.1854  -0.1549  -0.0736  -0.0325   0.0296   0.0609   0.6508   0.6849
     0.7264   0.7499   0.7847   0.8440   1.1302   1.1631   1.2289   1.2449
     1.3132   1.3672   1.5183   1.5482   1.7005   1.7321   1.7552   1.8148
     1.9319   2.0432   2.1744   2.3243   2.4628

     the Fermi energy is     1.7159 ev

!    total energy              =   -1210.94135221 Ry
     Harris-Foulkes estimate   =   -1210.94135252 Ry
     estimated scf accuracy    <       0.00000009 Ry

     The total energy is the sum of the following terms:

     one-electron contribution =   -8583.82672086 Ry
     hartree contribution      =    4285.87084895 Ry
     xc contribution           =    -225.91774144 Ry
     ewald contribution        =    3313.04554719 Ry
     electric field correction =       0.00006130 Ry
     smearing contrib. (-TS)   =      -0.11334735 Ry

     convergence has been achieved in   8 iterations
 
 BEEF-vdW xc energy contributions
           1 :   -193.433223449964     
           2 :    175.069299826487     
           3 :   -144.123811283796     
           4 :    109.291168810539     
           5 :   -78.4104176231121     
           6 :    55.7569058715494     
           7 :   -41.3819716961191     
           8 :    32.4109794886769     
           9 :   -25.3006014327920     
          10 :    17.7749345025428     
          11 :   -9.58040532699636     
          12 :    1.97065801496018     
          13 :    3.50254854997451     
          14 :   -6.08622170563723     
          15 :    6.23484668696346     
          16 :   -5.23648485651165     
          17 :    4.40664871058539     
          18 :   -4.38761462610438     
          19 :    4.95166305362375     
          20 :   -5.35519557544035     
          21 :    4.95166795075033     
          22 :   -3.64849779080967     
          23 :    1.94130668333952     
          24 :  -0.558136724185772     
          25 :  -1.065312053378875E-002
          26 :  -0.216664300366858     
          27 :   0.788506898036644     
          28 :   -1.15307296912295     
          29 :    1.01172292882171     
          30 :  -0.470865870180404     
          31 :   -22.5029336376072     
          32 :   -16.7835561374981     

     Forces acting on atoms (Ry/au):


     negative rho (up, down):  7.493E-01 0.000E+00
     atom    1 type  1   force =     0.00003862    0.00017407    0.01207841
     atom    2 type  1   force =    -0.00001158    0.00151927    0.01333837
     atom    3 type  1   force =     0.00076396   -0.00100650    0.01165008
     atom    4 type  1   force =    -0.00077006   -0.00101542    0.01167216
     atom    5 type  1   force =    -0.00410241   -0.00044117   -0.00738056
     atom    6 type  1   force =     0.00352732   -0.00073252   -0.00722937
     atom    7 type  1   force =     0.00018539   -0.00244553   -0.01728636
     atom    8 type  1   force =    -0.00012329    0.00347018   -0.01721242
     atom    9 type  1   force =    -0.00075232   -0.00052617   -0.00056337
     atom   10 type  1   force =    -0.00057605    0.00041275    0.00055705
     atom   11 type  1   force =     0.00060408    0.00018180   -0.00005767
     atom   12 type  1   force =     0.00053106   -0.00015458    0.00014688
     atom   13 type  2   force =    -0.00012761   -0.00034765   -0.00102071
     atom   14 type  3   force =     0.00098675    0.00047045    0.00069757
     atom   15 type  3   force =    -0.00017389    0.00044103    0.00060995

     Total force =     0.002482     Total SCF correction =     0.000405
     SCF correction compared to forces is large: reduce conv_thr to get better values


     entering subroutine stress ...


     negative rho (up, down):  7.493E-01 0.000E+00
          total   stress  (Ry/bohr**3)                   (kbar)     P=   -6.72
  -0.00003760   0.00000034   0.00000087         -5.53      0.05      0.13
   0.00000034  -0.00005981   0.00000111          0.05     -8.80      0.16
   0.00000087   0.00000111  -0.00003956          0.13      0.16     -5.82


     bfgs converged in  30 scf cycles and  29 bfgs steps
     (criteria: energy <  1.0E+00, force <  1.9E-03)

     End of BFGS Geometry Optimization

     Final energy   =   -1210.9413522084 Ry
Begin final coordinates

ATOMIC_POSITIONS (crystal)
Zr1      0.166666667   0.166666667   0.396150897    0   0   0
Zr1      0.666666667   0.166666667   0.396150897    0   0   0
Zr1      0.166666667   0.666666667   0.396150897    0   0   0
Zr1      0.666666667   0.666666667   0.396150897    0   0   0
Zr1      0.833333333   0.333333333   0.500000000    0   0   0
Zr1      0.333333333   0.333333333   0.500000000    0   0   0
Zr1      0.833333333   0.833333333   0.500000000    0   0   0
Zr1      0.333333333   0.833333333   0.500000000    0   0   0
Zr1      0.002584426  -0.006338676   0.600214254
Zr1      0.503726916  -0.007296823   0.600145025
Zr1      0.004044547   0.490072566   0.600212363
Zr1      0.492691062   0.512540845   0.600568512
C1       0.250293138  -0.002002314   0.661323358
H1       0.386013252  -0.003138275   0.688535010
H1       0.114162524   0.997145228   0.688154866
End final coordinates



     Writing output data file calc.save
 
     init_run     :      6.67s CPU      7.12s WALL (       1 calls)
     electrons    :   4602.35s CPU   4853.21s WALL (      30 calls)
     update_pot   :     36.37s CPU     37.98s WALL (      29 calls)
     forces       :    149.49s CPU    152.66s WALL (      30 calls)
     stress       :    467.79s CPU    472.53s WALL (      30 calls)

     Called by init_run:
     wfcinit      :      4.67s CPU      5.00s WALL (       1 calls)
     potinit      :      0.68s CPU      0.75s WALL (       1 calls)

     Called by electrons:
     c_bands      :   3229.23s CPU   3392.85s WALL (     352 calls)
     sum_band     :    584.64s CPU    617.00s WALL (     352 calls)
     v_of_rho     :    166.01s CPU    187.23s WALL (     375 calls)
     newd         :    226.73s CPU    231.66s WALL (     375 calls)
     mix_rho      :      6.20s CPU      6.64s WALL (     352 calls)
     vdW_energy   :    136.79s CPU    145.42s WALL (    1455 calls)
     vdW_ffts     :    199.76s CPU    227.11s WALL (    2970 calls)
     vdW_v        :     87.76s CPU     91.63s WALL (    1455 calls)

     Called by c_bands:
     init_us_2    :     30.97s CPU     31.23s WALL (   15300 calls)
     cegterg      :   3058.53s CPU   3221.18s WALL (    7040 calls)

     Called by *egterg:
     h_psi        :   1715.56s CPU   1860.15s WALL (   36601 calls)
     s_psi        :    157.95s CPU    158.41s WALL (   36601 calls)
     g_psi        :     10.72s CPU     10.81s WALL (   29541 calls)
     cdiaghg      :    558.68s CPU    567.98s WALL (   35861 calls)

     Called by h_psi:
     add_vuspsi   :    159.20s CPU    159.69s WALL (   36601 calls)

     General routines
     calbec       :    232.35s CPU    244.79s WALL (   44841 calls)
     fft          :    328.76s CPU    368.66s WALL (   87897 calls)
     ffts         :      0.55s CPU      0.61s WALL (     727 calls)
     fftw         :   1338.55s CPU   1469.77s WALL ( 3769004 calls)
     interpolate  :      3.46s CPU      3.92s WALL (     727 calls)
     davcio       :      0.00s CPU      0.03s WALL (      20 calls)
 
     Parallel routines
     fft_scatter  :    915.17s CPU   1027.56s WALL ( 3857628 calls)
 
     PWSCF        :     1h28m CPU        1h32m WALL

 
   This run was terminated on:  12:56:11  27Apr2018            

=------------------------------------------------------------------------------=
   JOB DONE.
=------------------------------------------------------------------------------=
