  python dir          : /home/mamunm/src/espresso
  espresso dir        : /home/vossj/suncat/esdld/espresso-dynpy-beef/bin
  pseudo dir          : /home/mamunm/src/pseudo/gbrv1.5pbe
  ase-espresso py git : GITVERSION



     Program PWSCF v.5.1rc2 (svn rev. ) starts on 18Apr2018 at 21:51:38 

     This program is part of the open-source Quantum ESPRESSO suite
     for quantum simulation of materials; please cite
         "P. Giannozzi et al., J. Phys.:Condens. Matter 21 395502 (2009);
          URL http://www.quantum-espresso.org", 
     in publications or presentations arising from this work. More details at
     http://www.quantum-espresso.org/quote

     Parallel version (MPI), running on    16 processors
     R & G space division:  proc/nbgrp/npool/nimage =      16
     Reading input from pw.inp
     Message from routine read_cards :
     DEPRECATED: no units specified in CELL_PARAMETERS card

     Current dimensions of program PWSCF are:
     Max number of different atomic species (ntypx) = 10
     Max number of k-points (npk) =  40000
     Max angular momentum in pseudopotentials (lmaxx) =  3
     Presently stress not available with electric field


     **************************************************************************
     Initializing libbeef V0.1.1 with the BEEF-vdW functional.
     Citation: Wellendorff et al., PRB 85, 235149 (2012).
     **************************************************************************


     IMPORTANT: XC functional enforced from input :
     Exchange-correlation      = BEEF-VDW ( 1  4 27 13 2)
     Any further DFT definition will be discarded
     Please, verify this is what you really want


     Subspace diagonalization in iterative solution of the eigenvalue problem:
     a serial algorithm will be used

 
     Parallelization info
     --------------------
     sticks:   dense  smooth     PW     G-vecs:    dense   smooth      PW
     Min         315     126     35                63229    15971    2391
     Max         316     127     37                63240    16003    2398
     Sum        5041    2029    571              1011733   255863   38327
 


     bravais-lattice index     =            0
     lattice parameter (alat)  =       1.8897  a.u.
     unit-cell volume          =    8507.0471 (a.u.)^3
     number of atoms/cell      =           14
     number of atomic types    =            3
     number of electrons       =       139.00
     number of Kohn-Sham states=           79
     kinetic-energy cutoff     =      36.7493  Ry
     charge density cutoff     =     367.4932  Ry
     convergence threshold     =      1.0E-05
     mixing beta               =       0.3000
     number of iterations used =           10  plain     mixing
     Exchange-correlation      = BEEF-VDW ( 1  4 27 13 2)
     nstep                     =           50


     celldm(1)=   1.889726  celldm(2)=   0.000000  celldm(3)=   0.000000
     celldm(4)=   0.000000  celldm(5)=   0.000000  celldm(6)=   0.000000

     crystal axes: (cart. coord. in units of alat)
               a(1) = (   7.468327   0.000000   0.000000 )  
               a(2) = (   3.734164   6.467761   0.000000 )  
               a(3) = (   0.000000   0.000000  26.097863 )  

     reciprocal axes: (cart. coord. in units 2 pi/alat)
               b(1) = (  0.133899 -0.077307  0.000000 )  
               b(2) = (  0.000000  0.154613  0.000000 )  
               b(3) = (  0.000000  0.000000  0.038317 )  


     PseudoPot. # 1 for La read from file:
     /home/mamunm/src/pseudo/gbrv1.5pbe/La.UPF
     MD5 check sum: 5937b0c7494ba0601a847275249473aa
     Pseudo is Ultrasoft + core correction, Zval = 11.0
     Generated by new atomic code, or converted to UPF format
     Using radial grid of  995 points,  8 beta functions with: 
                l(1) =   0
                l(2) =   0
                l(3) =   1
                l(4) =   1
                l(5) =   2
                l(6) =   2
                l(7) =   3
                l(8) =   3
     Q(r) pseudized with  8 coefficients,  rinner =    1.700   1.700   1.700
                                                       1.700   1.700   1.700
                                                       1.700

     PseudoPot. # 2 for O  read from file:
     /home/mamunm/src/pseudo/gbrv1.5pbe/O.UPF
     MD5 check sum: 734c27235a0248c51dbae37a1fbe46ec
     Pseudo is Ultrasoft + core correction, Zval =  6.0
     Generated by new atomic code, or converted to UPF format
     Using radial grid of  737 points,  5 beta functions with: 
                l(1) =   0
                l(2) =   0
                l(3) =   1
                l(4) =   1
                l(5) =   2
     Q(r) pseudized with  8 coefficients,  rinner =    0.900   0.900   0.900
                                                       0.900   0.900

     PseudoPot. # 3 for H  read from file:
     /home/mamunm/src/pseudo/gbrv1.5pbe/H.UPF
     MD5 check sum: 761ae9a214b05c3daf00ab9f6b793d6f
     Pseudo is Ultrasoft, Zval =  1.0
     Generated by new atomic code, or converted to UPF format
     Using radial grid of  615 points,  2 beta functions with: 
                l(1) =   0
                l(2) =   0
     Q(r) pseudized with  8 coefficients,  rinner =    0.700

     vdW kernel table read from file vdW_kernel_table
     MD5 check sum: 095c7af220d748ca6e76c0b4c6cfb241

     atomic species   valence    mass     pseudopotential
        La1           11.00   138.90547     La( 1.00)
        O1             6.00    15.99900     O ( 1.00)
        H1             1.00     1.00800     H ( 1.00)

     No symmetry found



   Cartesian axes

     site n.     atom                  positions (alat units)
         1           La1 tau(   1) = (   1.8670818   1.0779602  10.0000000  )
         2           La1 tau(   2) = (   5.6012453   1.0779602  10.0000000  )
         3           La1 tau(   3) = (   3.7341635   4.3118406  10.0000000  )
         4           La1 tau(   4) = (   7.4683270   4.3118406  10.0000000  )
         5           La1 tau(   5) = (   7.4683270   2.1559203  13.0489317  )
         6           La1 tau(   6) = (   3.7341635   2.1559203  13.0489317  )
         7           La1 tau(   7) = (   9.3354088   5.3898008  13.0489317  )
         8           La1 tau(   8) = (   5.6012453   5.3898008  13.0489317  )
         9           La1 tau(   9) = (   0.0000000   0.0000000  16.0978635  )
        10           La1 tau(  10) = (   3.7341635   0.0000000  16.0978635  )
        11           La1 tau(  11) = (   1.8670818   3.2338805  16.0978635  )
        12           La1 tau(  12) = (   5.6012453   3.2338805  16.0978635  )
        13           O1  tau(  13) = (   1.8670818   1.0779602  17.8723635  )
        14           H1  tau(  14) = (   1.8670818   1.0779602  18.8223635  )

     number of k points=    20  Fermi-Dirac smearing, width (Ry)=  0.0110
                       cart. coord. in units 2pi/alat
        k(    1) = (   0.0000000   0.0000000   0.0000000), wk =   0.0555556
        k(    2) = (   0.0000000   0.0257688   0.0000000), wk =   0.1111111
        k(    3) = (   0.0000000   0.0515377   0.0000000), wk =   0.1111111
        k(    4) = (   0.0000000  -0.0773065   0.0000000), wk =   0.0555556
        k(    5) = (   0.0223165  -0.0128844   0.0000000), wk =   0.1111111
        k(    6) = (   0.0223165   0.0128844   0.0000000), wk =   0.1111111
        k(    7) = (   0.0223165   0.0386533   0.0000000), wk =   0.1111111
        k(    8) = (   0.0223165  -0.0901909   0.0000000), wk =   0.1111111
        k(    9) = (   0.0223165  -0.0644221   0.0000000), wk =   0.1111111
        k(   10) = (   0.0223165  -0.0386533   0.0000000), wk =   0.1111111
        k(   11) = (   0.0446329  -0.0257688   0.0000000), wk =   0.1111111
        k(   12) = (   0.0446329   0.0000000   0.0000000), wk =   0.1111111
        k(   13) = (   0.0446329   0.0257688   0.0000000), wk =   0.1111111
        k(   14) = (   0.0446329  -0.1030753   0.0000000), wk =   0.1111111
        k(   15) = (   0.0446329  -0.0773065   0.0000000), wk =   0.1111111
        k(   16) = (   0.0446329  -0.0515377   0.0000000), wk =   0.1111111
        k(   17) = (  -0.0669494   0.0386533   0.0000000), wk =   0.0555556
        k(   18) = (  -0.0669494   0.0644221   0.0000000), wk =   0.1111111
        k(   19) = (  -0.0669494   0.0901909   0.0000000), wk =   0.1111111
        k(   20) = (  -0.0669494  -0.0386533   0.0000000), wk =   0.0555556

     Dense  grid:  1011733 G-vectors     FFT dimensions: (  90,  90, 320)

     Smooth grid:   255863 G-vectors     FFT dimensions: (  60,  60, 192)

     Largest allocated arrays     est. size (Mb)     dimensions
        Kohn-Sham Wavefunctions         2.49 Mb     (    2068,   79)
        NL pseudopotentials            12.59 Mb     (    2068,  399)
        Each V/rho on FFT grid          2.47 Mb     (  162000)
        Each G-vector array             0.48 Mb     (   63235)
        G-vector shells                 0.18 Mb     (   23142)
     Largest temporary arrays     est. size (Mb)     dimensions
        Auxiliary wavefunctions         9.97 Mb     (    2068,  316)
        Each subspace H/S matrix        1.52 Mb     (     316,  316)
        Each <psi_i|beta_j> matrix      0.48 Mb     (     399,   79)
        Arrays for rho mixing          24.72 Mb     (  162000,   10)

     Initial potential from superposition of free atoms
     Check: negative starting charge=   -0.831199

     starting charge  138.61517, renormalised to  139.00000

     negative rho (up, down):  8.335E-01 0.000E+00


     ************************************************************************
     *
     * You are using vdW-DF for exchange-correlation in this calculation.
     * Please cite the following three references that made this development
     * possible:
     *
     *   M. Dion, H. Rydberg, E. Schroder, D. C. Langreth, and
     *   B. I. Lundqvist, Phys. Rev. Lett. 92, 246401 (2004).
     *
     *   T. Thonhauser, V. R. Cooper, S. Li, A. Puzder, P. Hyldgaard, and
     *   D. C. Langreth, Phys. Rev. B 76, 125112 (2007).
     *
     *   G. Roman-Perez and J. M. Soler, Phys. Rev. Lett. 103, 096102 (2009).
     *
     *
     * If you are using vdW-DF2, please also cite:
     *
     *   K. Lee, E. D. Murray, L. Kong, B. I. Lundqvist, and
     *   D. C. Langreth, Phys. Rev. B 82, 081101(R) (2010).
     *
     *
     * If you are calculating the stress with vdW-DF, please also cite:
     *
     *   R. Sabatini, E. Kucukbenli, B. Kolb, T. Thonhauser, and
     *   S. de Gironcoli, J. Phys.: Condens. Matter 24, 424209 (2012).
     *
     ************************************************************************

     Carrying out vdW-DF run using the following parameters:

     Nqs =      20    Nr_points =    1024   r_max =   100.000
     q_mesh =
               0.00001000     0.04494208     0.09755937     0.15916263
               0.23128650     0.31572767     0.41458969     0.53033537
               0.66584808     0.82450364     1.01025438     1.22772762
               1.48234092     1.78043706     2.12944203     2.53805004
               3.01644009     3.57652955     4.23227104     5.00000000

     Gradients computed in reciprocal space

     ************************************************************************


 
     Adding external electric field

     Computed dipole along edir(3) : 
        Dipole               -0.1820 Ry au,         -0.4626 Debye
        Dipole field         -0.0003 Ry au
 
        Potential amp.        0.0259 Ry
        Total length         48.0849 bohr
 
     Starting wfc are  245 randomized atomic wfcs

     total cpu time spent up to now is       29.5 secs

     Self-consistent Calculation

     iteration #  1     ecut=    36.75 Ry     beta=0.30
     Davidson diagonalization with overlap
     ethr =  1.00E-02,  avg # of iterations =  2.0

     negative rho (up, down):  7.117E-01 0.000E+00
 
     Adding external electric field

     Computed dipole along edir(3) : 
        Dipole               -0.0629 Ry au,         -0.1600 Debye
        Dipole field         -0.0001 Ry au
 
        Potential amp.        0.0089 Ry
        Total length         48.0849 bohr
 

     total cpu time spent up to now is       60.4 secs

     total energy              =   -1279.15041164 Ry
     Harris-Foulkes estimate   =   -1283.07911899 Ry
     estimated scf accuracy    <       8.23715177 Ry

     iteration #  2     ecut=    36.75 Ry     beta=0.30
     Davidson diagonalization with overlap
     ethr =  5.93E-03,  avg # of iterations =  8.2

     negative rho (up, down):  6.467E-01 0.000E+00
 
     Adding external electric field

     Computed dipole along edir(3) : 
        Dipole               -1.0385 Ry au,         -2.6396 Debye
        Dipole field         -0.0015 Ry au
 
        Potential amp.        0.1475 Ry
        Total length         48.0849 bohr
 

     total cpu time spent up to now is      109.1 secs

     total energy              =   -1279.22993843 Ry
     Harris-Foulkes estimate   =   -1287.29478282 Ry
     estimated scf accuracy    <      53.36491255 Ry

     iteration #  3     ecut=    36.75 Ry     beta=0.30
     Davidson diagonalization with overlap
     ethr =  5.93E-03,  avg # of iterations =  6.7

     negative rho (up, down):  6.429E-01 0.000E+00
 
     Adding external electric field

     Computed dipole along edir(3) : 
        Dipole                0.0892 Ry au,          0.2268 Debye
        Dipole field          0.0001 Ry au
 
        Potential amp.       -0.0127 Ry
        Total length         48.0849 bohr
 

     total cpu time spent up to now is      151.2 secs

     total energy              =   -1281.61795219 Ry
     Harris-Foulkes estimate   =   -1282.54666560 Ry
     estimated scf accuracy    <      33.63246555 Ry

     iteration #  4     ecut=    36.75 Ry     beta=0.30
     Davidson diagonalization with overlap
     ethr =  5.93E-03,  avg # of iterations =  2.4

     negative rho (up, down):  6.319E-01 0.000E+00
 
     Adding external electric field

     Computed dipole along edir(3) : 
        Dipole                0.0336 Ry au,          0.0855 Debye
        Dipole field          0.0000 Ry au
 
        Potential amp.       -0.0048 Ry
        Total length         48.0849 bohr
 

     total cpu time spent up to now is      181.4 secs

     total energy              =   -1281.99609650 Ry
     Harris-Foulkes estimate   =   -1282.12846305 Ry
     estimated scf accuracy    <       1.40534682 Ry

     iteration #  5     ecut=    36.75 Ry     beta=0.30
     Davidson diagonalization with overlap
     ethr =  1.01E-03,  avg # of iterations =  8.5

     negative rho (up, down):  6.089E-01 0.000E+00
 
     Adding external electric field

     Computed dipole along edir(3) : 
        Dipole               -0.1664 Ry au,         -0.4228 Debye
        Dipole field         -0.0002 Ry au
 
        Potential amp.        0.0236 Ry
        Total length         48.0849 bohr
 

     total cpu time spent up to now is      221.6 secs

     total energy              =   -1282.06953329 Ry
     Harris-Foulkes estimate   =   -1282.16244599 Ry
     estimated scf accuracy    <       0.39943450 Ry

     iteration #  6     ecut=    36.75 Ry     beta=0.30
     Davidson diagonalization with overlap
     ethr =  2.87E-04,  avg # of iterations =  6.8

     negative rho (up, down):  6.156E-01 0.000E+00
 
     Adding external electric field

     Computed dipole along edir(3) : 
        Dipole                0.2317 Ry au,          0.5889 Debye
        Dipole field          0.0003 Ry au
 
        Potential amp.       -0.0329 Ry
        Total length         48.0849 bohr
 

     total cpu time spent up to now is      260.3 secs

     total energy              =   -1282.09173811 Ry
     Harris-Foulkes estimate   =   -1282.15524789 Ry
     estimated scf accuracy    <       3.05458937 Ry

     iteration #  7     ecut=    36.75 Ry     beta=0.30
     Davidson diagonalization with overlap
     ethr =  2.87E-04,  avg # of iterations =  4.5

     negative rho (up, down):  6.155E-01 0.000E+00
 
     Adding external electric field

     Computed dipole along edir(3) : 
        Dipole                0.2047 Ry au,          0.5202 Debye
        Dipole field          0.0003 Ry au
 
        Potential amp.       -0.0291 Ry
        Total length         48.0849 bohr
 

     total cpu time spent up to now is      292.8 secs

     total energy              =   -1282.10159312 Ry
     Harris-Foulkes estimate   =   -1282.11745926 Ry
     estimated scf accuracy    <       0.30891963 Ry

     iteration #  8     ecut=    36.75 Ry     beta=0.30
     Davidson diagonalization with overlap
     c_bands:  1 eigenvalues not converged
     ethr =  2.22E-04,  avg # of iterations =  7.8

     negative rho (up, down):  6.107E-01 0.000E+00
 
     Adding external electric field

     Computed dipole along edir(3) : 
        Dipole                0.2251 Ry au,          0.5722 Debye
        Dipole field          0.0003 Ry au
 
        Potential amp.       -0.0320 Ry
        Total length         48.0849 bohr
 

     total cpu time spent up to now is      327.1 secs

     total energy              =   -1282.10606963 Ry
     Harris-Foulkes estimate   =   -1282.10979518 Ry
     estimated scf accuracy    <       0.03230239 Ry

     iteration #  9     ecut=    36.75 Ry     beta=0.30
     Davidson diagonalization with overlap
     ethr =  2.32E-05,  avg # of iterations = 13.3

     negative rho (up, down):  6.017E-01 0.000E+00
 
     Adding external electric field

     Computed dipole along edir(3) : 
        Dipole                0.2428 Ry au,          0.6172 Debye
        Dipole field          0.0004 Ry au
 
        Potential amp.       -0.0345 Ry
        Total length         48.0849 bohr
 

     total cpu time spent up to now is      378.3 secs

     total energy              =   -1282.11485854 Ry
     Harris-Foulkes estimate   =   -1282.11614290 Ry
     estimated scf accuracy    <       0.07575574 Ry

     iteration # 10     ecut=    36.75 Ry     beta=0.30
     Davidson diagonalization with overlap
     ethr =  2.32E-05,  avg # of iterations =  4.3

     negative rho (up, down):  5.928E-01 0.000E+00
 
     Adding external electric field

     Computed dipole along edir(3) : 
        Dipole                0.1669 Ry au,          0.4243 Debye
        Dipole field          0.0002 Ry au
 
        Potential amp.       -0.0237 Ry
        Total length         48.0849 bohr
 

     total cpu time spent up to now is      410.1 secs

     total energy              =   -1282.11287390 Ry
     Harris-Foulkes estimate   =   -1282.11582072 Ry
     estimated scf accuracy    <       0.12383907 Ry

     iteration # 11     ecut=    36.75 Ry     beta=0.30
     Davidson diagonalization with overlap
     ethr =  2.32E-05,  avg # of iterations =  4.0

     negative rho (up, down):  5.834E-01 0.000E+00
 
     Adding external electric field

     Computed dipole along edir(3) : 
        Dipole                0.1388 Ry au,          0.3529 Debye
        Dipole field          0.0002 Ry au
 
        Potential amp.       -0.0197 Ry
        Total length         48.0849 bohr
 

     total cpu time spent up to now is      442.9 secs

     total energy              =   -1282.11360910 Ry
     Harris-Foulkes estimate   =   -1282.11413357 Ry
     estimated scf accuracy    <       0.01707239 Ry

     iteration # 12     ecut=    36.75 Ry     beta=0.30
     Davidson diagonalization with overlap
     ethr =  1.23E-05,  avg # of iterations =  5.7

     negative rho (up, down):  5.832E-01 0.000E+00
 
     Adding external electric field

     Computed dipole along edir(3) : 
        Dipole                0.1433 Ry au,          0.3643 Debye
        Dipole field          0.0002 Ry au
 
        Potential amp.       -0.0204 Ry
        Total length         48.0849 bohr
 

     total cpu time spent up to now is      476.6 secs

     total energy              =   -1282.11410756 Ry
     Harris-Foulkes estimate   =   -1282.11416347 Ry
     estimated scf accuracy    <       0.00068005 Ry

     iteration # 13     ecut=    36.75 Ry     beta=0.30
     Davidson diagonalization with overlap
     c_bands:  1 eigenvalues not converged
     ethr =  4.89E-07,  avg # of iterations = 12.3

     negative rho (up, down):  5.843E-01 0.000E+00
 
     Adding external electric field

     Computed dipole along edir(3) : 
        Dipole                0.1471 Ry au,          0.3739 Debye
        Dipole field          0.0002 Ry au
 
        Potential amp.       -0.0209 Ry
        Total length         48.0849 bohr
 

     total cpu time spent up to now is      529.3 secs

     total energy              =   -1282.11448608 Ry
     Harris-Foulkes estimate   =   -1282.11454279 Ry
     estimated scf accuracy    <       0.00366664 Ry

     iteration # 14     ecut=    36.75 Ry     beta=0.30
     Davidson diagonalization with overlap
     ethr =  4.89E-07,  avg # of iterations =  1.0

     negative rho (up, down):  5.869E-01 0.000E+00
 
     Adding external electric field

     Computed dipole along edir(3) : 
        Dipole                0.1684 Ry au,          0.4279 Debye
        Dipole field          0.0002 Ry au
 
        Potential amp.       -0.0239 Ry
        Total length         48.0849 bohr
 

     total cpu time spent up to now is      558.8 secs

     total energy              =   -1282.11434289 Ry
     Harris-Foulkes estimate   =   -1282.11449040 Ry
     estimated scf accuracy    <       0.00354337 Ry

     iteration # 15     ecut=    36.75 Ry     beta=0.30
     Davidson diagonalization with overlap
     ethr =  4.89E-07,  avg # of iterations =  6.0

     negative rho (up, down):  5.859E-01 0.000E+00
 
     Adding external electric field

     Computed dipole along edir(3) : 
        Dipole                0.1603 Ry au,          0.4075 Debye
        Dipole field          0.0002 Ry au
 
        Potential amp.       -0.0228 Ry
        Total length         48.0849 bohr
 

     total cpu time spent up to now is      596.5 secs

     total energy              =   -1282.11443592 Ry
     Harris-Foulkes estimate   =   -1282.11445875 Ry
     estimated scf accuracy    <       0.00009967 Ry

     iteration # 16     ecut=    36.75 Ry     beta=0.30
     Davidson diagonalization with overlap
     ethr =  7.17E-08,  avg # of iterations =  9.6

     negative rho (up, down):  5.869E-01 0.000E+00

     negative rho (up, down):  5.869E-01 0.000E+00

     negative rho (up, down):  5.869E-01 0.000E+00

     negative rho (up, down):  5.869E-01 0.000E+00

     negative rho (up, down):  5.869E-01 0.000E+00

     negative rho (up, down):  5.869E-01 0.000E+00

     negative rho (up, down):  5.869E-01 0.000E+00

     negative rho (up, down):  5.869E-01 0.000E+00

     negative rho (up, down):  5.869E-01 0.000E+00

     negative rho (up, down):  5.869E-01 0.000E+00

     negative rho (up, down):  5.869E-01 0.000E+00

     negative rho (up, down):  5.869E-01 0.000E+00

     negative rho (up, down):  5.869E-01 0.000E+00

     negative rho (up, down):  5.869E-01 0.000E+00

     negative rho (up, down):  5.869E-01 0.000E+00

     negative rho (up, down):  5.869E-01 0.000E+00

     negative rho (up, down):  5.869E-01 0.000E+00

     negative rho (up, down):  5.869E-01 0.000E+00

     negative rho (up, down):  5.869E-01 0.000E+00

     negative rho (up, down):  5.869E-01 0.000E+00

     negative rho (up, down):  5.869E-01 0.000E+00

     negative rho (up, down):  5.869E-01 0.000E+00

     negative rho (up, down):  5.869E-01 0.000E+00

     negative rho (up, down):  5.869E-01 0.000E+00

     negative rho (up, down):  5.869E-01 0.000E+00

     negative rho (up, down):  5.869E-01 0.000E+00

     negative rho (up, down):  5.869E-01 0.000E+00

     negative rho (up, down):  5.869E-01 0.000E+00

     negative rho (up, down):  5.869E-01 0.000E+00

     negative rho (up, down):  5.869E-01 0.000E+00

     negative rho (up, down):  5.869E-01 0.000E+00

     negative rho (up, down):  5.869E-01 0.000E+00

     negative rho (up, down):  5.869E-01 0.000E+00

     negative rho (up, down):  5.869E-01 0.000E+00

     negative rho (up, down):  5.869E-01 0.000E+00
 
     Adding external electric field

     Computed dipole along edir(3) : 
        Dipole                0.1754 Ry au,          0.4459 Debye
        Dipole field          0.0003 Ry au
 
        Potential amp.       -0.0249 Ry
        Total length         48.0849 bohr
 

     total cpu time spent up to now is      673.6 secs

     End of self-consistent calculation

          k = 0.0000 0.0000 0.0000 ( 31997 PWs)   bands (ev):

   -31.3172 -31.2908 -31.1867 -31.1828 -31.1815 -31.1599 -31.1596 -31.1590
   -30.8250 -30.7046 -30.7044 -30.6987 -18.1583 -15.4100 -15.4096 -15.3900
   -15.3379 -15.3378 -15.3193 -15.2276 -15.1415 -15.1412 -15.1396 -14.9459
   -14.7978 -14.7944 -14.7938 -14.6194 -14.6123 -14.6121 -14.5781 -14.5778
   -14.5747 -14.5430 -14.5429 -14.5400 -14.3204 -14.3204 -14.2955 -14.2955
   -14.2103 -14.2101 -14.2050 -14.1741 -14.1055 -14.1045 -14.1044 -13.8758
   -13.8757  -5.5815  -1.8658  -1.8658  -0.7098   0.0054   0.3782   0.4054
     0.4585   0.4586   0.6915   0.6916   0.7854   0.9208   0.9209   0.9708
     1.0621   1.0623   1.1503   1.8089   1.8091   2.0585   2.2357   2.4741
     2.6430   2.6430   2.6754   2.9072   3.1462   3.2461   3.2520

          k = 0.0000 0.0258 0.0000 ( 32061 PWs)   bands (ev):

   -31.3085 -31.2822 -31.1932 -31.1851 -31.1818 -31.1685 -31.1597 -31.1592
   -30.8170 -30.7116 -30.7046 -30.6999 -18.1570 -15.3736 -15.3640 -15.3401
   -15.3024 -15.2932 -15.2689 -15.2066 -15.1144 -15.1140 -15.1031 -14.9421
   -14.8290 -14.8060 -14.8055 -14.6196 -14.6195 -14.6045 -14.5982 -14.5942
   -14.5887 -14.5884 -14.5603 -14.5261 -14.4027 -14.3803 -14.3381 -14.3128
   -14.2029 -14.2018 -14.1963 -14.1597 -14.1453 -14.1436 -14.0899 -13.9484
   -13.8915  -5.5735  -1.8712  -1.8595  -0.5264   0.1863   0.5176   0.5602
     0.5855   0.6098   0.7425   0.8378   0.9092   1.0154   1.0972   1.1117
     1.1682   1.1915   1.2462   1.8244   1.8655   2.0742   2.2237   2.4734
     2.6457   2.6628   2.6713   2.8078   2.8365   3.0207   3.0338

          k = 0.0000 0.0515 0.0000 ( 32002 PWs)   bands (ev):

   -31.2844 -31.2586 -31.2176 -31.1930 -31.1855 -31.1819 -31.1598 -31.1593
   -30.7950 -30.7338 -30.7047 -30.7004 -18.1544 -15.2833 -15.2734 -15.2144
   -15.2098 -15.1846 -15.1564 -15.0932 -15.0541 -15.0511 -15.0275 -14.9375
   -14.8864 -14.8426 -14.8362 -14.7194 -14.7144 -14.6980 -14.6971 -14.6082
   -14.5832 -14.5602 -14.5552 -14.5202 -14.5145 -14.4824 -14.3862 -14.3593
   -14.2460 -14.2459 -14.1868 -14.1827 -14.1773 -14.1516 -14.1350 -14.0489
   -13.9343  -5.5577  -1.8804  -1.8475  -0.0482   0.6233   0.7340   0.7749
     0.9435   0.9537   1.0143   1.1821   1.2029   1.3009   1.3737   1.5077
     1.5268   1.6074   1.6385   1.8531   1.9788   2.0517   2.1439   2.2895
     2.3840   2.4900   2.5891   2.6244   2.6516   2.7599   2.7889

          k = 0.0000-0.0773 0.0000 ( 31970 PWs)   bands (ev):

   -31.2526 -31.2496 -31.2263 -31.2257 -31.1856 -31.1819 -31.1598 -31.1594
   -30.7664 -30.7626 -30.7047 -30.7004 -18.1531 -15.2197 -15.2118 -15.1560
   -15.1524 -15.1075 -15.0931 -15.0126 -15.0074 -14.9563 -14.9428 -14.8857
   -14.8847 -14.8647 -14.8440 -14.8417 -14.8182 -14.7784 -14.7726 -14.7587
   -14.7522 -14.5248 -14.5196 -14.4528 -14.4492 -14.4227 -14.4203 -14.3599
   -14.3551 -14.3105 -14.3085 -14.1826 -14.1792 -14.1623 -14.1556 -13.9934
   -13.9906  -5.5499  -1.8845  -1.8418   0.4692   0.5146   0.9021   0.9518
     1.2303   1.2354   1.2828   1.2937   1.3127   1.4679   1.6802   1.7244
     1.8674   1.8749   1.8980   1.9233   2.1442   2.1725   2.2520   2.2613
     2.2692   2.2831   2.3126   2.4742   2.5883   2.5959   2.6068

          k = 0.0223-0.0129 0.0000 ( 32061 PWs)   bands (ev):

   -31.3085 -31.2822 -31.1933 -31.1850 -31.1819 -31.1685 -31.1599 -31.1591
   -30.8170 -30.7116 -30.7045 -30.7000 -18.1570 -15.3735 -15.3641 -15.3401
   -15.3023 -15.2933 -15.2689 -15.2066 -15.1143 -15.1141 -15.1031 -14.9421
   -14.8290 -14.8061 -14.8054 -14.6195 -14.6195 -14.6044 -14.5982 -14.5941
   -14.5886 -14.5885 -14.5603 -14.5261 -14.4027 -14.3803 -14.3381 -14.3127
   -14.2028 -14.2019 -14.1962 -14.1597 -14.1453 -14.1436 -14.0899 -13.9484
   -13.8915  -5.5735  -1.8712  -1.8595  -0.5264   0.1863   0.5176   0.5602
     0.5855   0.6098   0.7425   0.8379   0.9092   1.0154   1.0972   1.1117
     1.1683   1.1915   1.2462   1.8245   1.8654   2.0742   2.2237   2.4734
     2.6457   2.6628   2.6713   2.8078   2.8365   3.0208   3.0338

          k = 0.0223 0.0129 0.0000 ( 32061 PWs)   bands (ev):

   -31.3085 -31.2822 -31.1935 -31.1838 -31.1828 -31.1685 -31.1596 -31.1593
   -30.8170 -30.7117 -30.7044 -30.7001 -18.1570 -15.3732 -15.3644 -15.3401
   -15.3022 -15.2934 -15.2688 -15.2066 -15.1143 -15.1142 -15.1031 -14.9421
   -14.8291 -14.8064 -14.8050 -14.6198 -14.6193 -14.6043 -14.5984 -14.5941
   -14.5886 -14.5884 -14.5602 -14.5261 -14.4027 -14.3803 -14.3381 -14.3127
   -14.2027 -14.2021 -14.1962 -14.1597 -14.1453 -14.1437 -14.0899 -13.9484
   -13.8915  -5.5735  -1.8712  -1.8595  -0.5264   0.1863   0.5176   0.5603
     0.5855   0.6099   0.7424   0.8380   0.9092   1.0154   1.0972   1.1117
     1.1684   1.1914   1.2462   1.8246   1.8653   2.0742   2.2237   2.4734
     2.6457   2.6628   2.6712   2.8078   2.8365   3.0207   3.0339

          k = 0.0223 0.0387 0.0000 ( 32007 PWs)   bands (ev):

   -31.2920 -31.2661 -31.2025 -31.1990 -31.1767 -31.1759 -31.1757 -31.1517
   -30.8020 -30.7201 -30.7165 -30.6950 -18.1550 -15.3199 -15.2640 -15.2608
   -15.2474 -15.1910 -15.1884 -15.1606 -15.0745 -15.0577 -15.0516 -14.9376
   -14.8688 -14.8494 -14.8146 -14.7440 -14.7265 -14.5916 -14.5845 -14.5786
   -14.5656 -14.5653 -14.5434 -14.5410 -14.5377 -14.5160 -14.3752 -14.3514
   -14.2619 -14.1981 -14.1888 -14.1847 -14.1513 -14.1114 -14.1107 -14.0722
   -13.9258  -5.5616  -1.8772  -1.8514  -0.1915   0.5093   0.7433   0.7788
     0.8539   0.8766   0.8813   0.9617   1.2040   1.2125   1.3106   1.3408
     1.3557   1.4726   1.5545   1.8533   1.9439   2.0758   2.1624   2.3737
     2.4464   2.5354   2.5968   2.6506   2.6881   2.7786   2.9192

          k = 0.0223-0.0902 0.0000 ( 31991 PWs)   bands (ev):

   -31.2634 -31.2380 -31.2299 -31.2053 -31.2050 -31.1808 -31.1713 -31.1473
   -30.7758 -30.7450 -30.7223 -30.6910 -18.1531 -15.2239 -15.1727 -15.1638
   -15.1201 -15.1058 -15.0903 -15.0168 -15.0030 -14.9849 -14.9797 -14.9404
   -14.9157 -14.9081 -14.8800 -14.8566 -14.8274 -14.7512 -14.7359 -14.6444
   -14.6261 -14.5344 -14.5247 -14.4990 -14.4924 -14.4446 -14.4359 -14.4203
   -14.3815 -14.2617 -14.2002 -14.1965 -14.1673 -14.1530 -14.1483 -14.0543
   -13.9867  -5.5499  -1.8821  -1.8440   0.3511   0.7946   0.9671   1.0239
     1.1470   1.1738   1.2280   1.3583   1.4369   1.5288   1.5678   1.6561
     1.7362   1.7682   1.9213   1.9777   2.0126   2.0564   2.1226   2.1751
     2.2398   2.2752   2.3872   2.4738   2.5058   2.5664   2.6679

          k = 0.0223-0.0644 0.0000 ( 31991 PWs)   bands (ev):

   -31.2634 -31.2380 -31.2298 -31.2053 -31.2051 -31.1808 -31.1712 -31.1473
   -30.7758 -30.7450 -30.7223 -30.6910 -18.1531 -15.2240 -15.1727 -15.1639
   -15.1201 -15.1058 -15.0903 -15.0169 -15.0028 -14.9850 -14.9797 -14.9403
   -14.9157 -14.9080 -14.8801 -14.8565 -14.8274 -14.7513 -14.7359 -14.6444
   -14.6261 -14.5344 -14.5247 -14.4990 -14.4925 -14.4446 -14.4359 -14.4203
   -14.3815 -14.2617 -14.2002 -14.1965 -14.1673 -14.1531 -14.1482 -14.0543
   -13.9867  -5.5499  -1.8821  -1.8440   0.3510   0.7946   0.9671   1.0239
     1.1470   1.1738   1.2281   1.3583   1.4369   1.5288   1.5678   1.6561
     1.7362   1.7683   1.9213   1.9777   2.0126   2.0564   2.1225   2.1751
     2.2398   2.2752   2.3871   2.4738   2.5057   2.5665   2.6679

          k = 0.0223-0.0387 0.0000 ( 32007 PWs)   bands (ev):

   -31.2920 -31.2661 -31.2017 -31.1999 -31.1765 -31.1762 -31.1756 -31.1517
   -30.8020 -30.7199 -30.7167 -30.6950 -18.1550 -15.3200 -15.2639 -15.2610
   -15.2472 -15.1910 -15.1883 -15.1606 -15.0745 -15.0575 -15.0518 -14.9376
   -14.8687 -14.8495 -14.8147 -14.7440 -14.7265 -14.5914 -14.5848 -14.5786
   -14.5656 -14.5652 -14.5433 -14.5409 -14.5379 -14.5160 -14.3752 -14.3514
   -14.2619 -14.1981 -14.1887 -14.1848 -14.1513 -14.1114 -14.1107 -14.0722
   -13.9258  -5.5616  -1.8772  -1.8514  -0.1916   0.5093   0.7433   0.7789
     0.8538   0.8766   0.8813   0.9618   1.2040   1.2125   1.3106   1.3408
     1.3558   1.4726   1.5545   1.8532   1.9440   2.0758   2.1624   2.3737
     2.4464   2.5354   2.5969   2.6507   2.6881   2.7787   2.9192

          k = 0.0446-0.0258 0.0000 ( 32002 PWs)   bands (ev):

   -31.2844 -31.2586 -31.2176 -31.1930 -31.1854 -31.1820 -31.1599 -31.1592
   -30.7950 -30.7338 -30.7046 -30.7004 -18.1544 -15.2832 -15.2735 -15.2143
   -15.2098 -15.1845 -15.1564 -15.0932 -15.0540 -15.0512 -15.0275 -14.9375
   -14.8864 -14.8427 -14.8361 -14.7195 -14.7144 -14.6979 -14.6972 -14.6082
   -14.5832 -14.5601 -14.5552 -14.5202 -14.5145 -14.4824 -14.3862 -14.3593
   -14.2460 -14.2459 -14.1867 -14.1828 -14.1773 -14.1516 -14.1350 -14.0488
   -13.9343  -5.5577  -1.8804  -1.8475  -0.0482   0.6233   0.7340   0.7749
     0.9435   0.9537   1.0143   1.1821   1.2030   1.3009   1.3737   1.5077
     1.5268   1.6074   1.6385   1.8531   1.9788   2.0517   2.1439   2.2895
     2.3840   2.4899   2.5891   2.6244   2.6515   2.7599   2.7890

          k = 0.0446 0.0000 0.0000 ( 32007 PWs)   bands (ev):

   -31.2920 -31.2661 -31.2025 -31.1989 -31.1766 -31.1761 -31.1757 -31.1517
   -30.8020 -30.7202 -30.7164 -30.6950 -18.1550 -15.3199 -15.2641 -15.2607
   -15.2473 -15.1909 -15.1884 -15.1606 -15.0745 -15.0578 -15.0516 -14.9376
   -14.8689 -14.8494 -14.8146 -14.7440 -14.7265 -14.5916 -14.5845 -14.5785
   -14.5655 -14.5653 -14.5434 -14.5410 -14.5377 -14.5160 -14.3752 -14.3514
   -14.2619 -14.1981 -14.1889 -14.1846 -14.1514 -14.1114 -14.1107 -14.0723
   -13.9258  -5.5616  -1.8772  -1.8514  -0.1915   0.5093   0.7433   0.7788
     0.8539   0.8766   0.8813   0.9617   1.2040   1.2125   1.3106   1.3408
     1.3557   1.4726   1.5545   1.8533   1.9439   2.0758   2.1624   2.3737
     2.4464   2.5354   2.5968   2.6506   2.6881   2.7786   2.9191

          k = 0.0446 0.0258 0.0000 ( 32002 PWs)   bands (ev):

   -31.2843 -31.2586 -31.2177 -31.1930 -31.1844 -31.1829 -31.1597 -31.1594
   -30.7949 -30.7338 -30.7044 -30.7006 -18.1544 -15.2828 -15.2738 -15.2142
   -15.2101 -15.1845 -15.1564 -15.0931 -15.0539 -15.0514 -15.0275 -14.9374
   -14.8866 -14.8430 -14.8358 -14.7200 -14.7140 -14.6979 -14.6971 -14.6081
   -14.5832 -14.5600 -14.5554 -14.5202 -14.5145 -14.4824 -14.3862 -14.3592
   -14.2461 -14.2458 -14.1866 -14.1829 -14.1772 -14.1516 -14.1351 -14.0488
   -13.9343  -5.5577  -1.8803  -1.8475  -0.0482   0.6234   0.7340   0.7748
     0.9435   0.9538   1.0143   1.1820   1.2031   1.3008   1.3737   1.5076
     1.5269   1.6073   1.6386   1.8532   1.9786   2.0517   2.1439   2.2896
     2.3840   2.4899   2.5891   2.6243   2.6515   2.7599   2.7890

          k = 0.0446-0.1031 0.0000 ( 31991 PWs)   bands (ev):

   -31.2634 -31.2380 -31.2300 -31.2052 -31.2050 -31.1808 -31.1713 -31.1473
   -30.7758 -30.7451 -30.7222 -30.6910 -18.1531 -15.2239 -15.1724 -15.1641
   -15.1200 -15.1058 -15.0904 -15.0168 -15.0031 -14.9849 -14.9797 -14.9403
   -14.9157 -14.9082 -14.8801 -14.8565 -14.8274 -14.7513 -14.7359 -14.6443
   -14.6261 -14.5344 -14.5248 -14.4990 -14.4925 -14.4446 -14.4359 -14.4203
   -14.3815 -14.2617 -14.2003 -14.1965 -14.1672 -14.1532 -14.1482 -14.0543
   -13.9867  -5.5499  -1.8821  -1.8440   0.3511   0.7946   0.9672   1.0238
     1.1471   1.1737   1.2280   1.3584   1.4369   1.5289   1.5677   1.6561
     1.7362   1.7683   1.9213   1.9777   2.0126   2.0564   2.1225   2.1752
     2.2398   2.2752   2.3871   2.4738   2.5058   2.5664   2.6678

          k = 0.0446-0.0773 0.0000 ( 31986 PWs)   bands (ev):

   -31.2368 -31.2341 -31.2322 -31.2100 -31.2097 -31.2090 -31.1668 -31.1428
   -30.7511 -30.7508 -30.7455 -30.6869 -18.1524 -15.1310 -15.0895 -15.0868
   -15.0820 -15.0668 -15.0604 -15.0426 -14.9652 -14.9538 -14.9467 -14.9312
   -14.9290 -14.9122 -14.9096 -14.9061 -14.8958 -14.8878 -14.8401 -14.5539
   -14.5477 -14.5403 -14.5257 -14.5241 -14.5229 -14.4839 -14.4777 -14.3883
   -14.3877 -14.3855 -14.2010 -14.1681 -14.1651 -14.1604 -14.0768 -14.0746
   -14.0727  -5.5460  -1.8815  -1.8436   0.8591   0.8635   0.9067   1.2987
     1.3271   1.3321   1.4158   1.4354   1.6972   1.7591   1.7637   1.7648
     1.8023   1.8040   1.8256   1.8521   1.8849   1.9948   2.0098   2.0105
     2.1540   2.3350   2.3518   2.3585   2.4263   2.4336   2.4390

          k = 0.0446-0.0515 0.0000 ( 31991 PWs)   bands (ev):

   -31.2634 -31.2380 -31.2299 -31.2053 -31.2051 -31.1808 -31.1712 -31.1473
   -30.7758 -30.7450 -30.7223 -30.6910 -18.1531 -15.2240 -15.1727 -15.1638
   -15.1201 -15.1058 -15.0903 -15.0169 -15.0029 -14.9850 -14.9798 -14.9403
   -14.9157 -14.9080 -14.8800 -14.8565 -14.8274 -14.7513 -14.7359 -14.6444
   -14.6261 -14.5344 -14.5247 -14.4990 -14.4925 -14.4446 -14.4359 -14.4203
   -14.3815 -14.2617 -14.2003 -14.1965 -14.1673 -14.1531 -14.1482 -14.0543
   -13.9867  -5.5499  -1.8821  -1.8440   0.3510   0.7946   0.9671   1.0239
     1.1470   1.1738   1.2280   1.3583   1.4369   1.5289   1.5678   1.6561
     1.7362   1.7683   1.9213   1.9777   2.0126   2.0564   2.1225   2.1751
     2.2398   2.2752   2.3871   2.4738   2.5057   2.5666   2.6678

          k =-0.0669 0.0387 0.0000 ( 31970 PWs)   bands (ev):

   -31.2526 -31.2497 -31.2264 -31.2256 -31.1855 -31.1820 -31.1600 -31.1592
   -30.7663 -30.7627 -30.7046 -30.7005 -18.1531 -15.2195 -15.2119 -15.1558
   -15.1525 -15.1075 -15.0931 -15.0125 -15.0075 -14.9563 -14.9428 -14.8857
   -14.8846 -14.8646 -14.8439 -14.8418 -14.8182 -14.7785 -14.7725 -14.7588
   -14.7521 -14.5247 -14.5197 -14.4529 -14.4491 -14.4228 -14.4201 -14.3599
   -14.3552 -14.3104 -14.3086 -14.1826 -14.1793 -14.1622 -14.1557 -13.9933
   -13.9907  -5.5499  -1.8845  -1.8418   0.4692   0.5146   0.9021   0.9518
     1.2303   1.2353   1.2828   1.2937   1.3127   1.4678   1.6802   1.7243
     1.8674   1.8750   1.8979   1.9233   2.1443   2.1724   2.2521   2.2613
     2.2692   2.2831   2.3126   2.4742   2.5883   2.5959   2.6068

          k =-0.0669 0.0644 0.0000 ( 31991 PWs)   bands (ev):

   -31.2634 -31.2380 -31.2299 -31.2053 -31.2050 -31.1808 -31.1713 -31.1473
   -30.7758 -30.7451 -30.7222 -30.6910 -18.1531 -15.2239 -15.1727 -15.1638
   -15.1201 -15.1058 -15.0903 -15.0168 -15.0030 -14.9848 -14.9797 -14.9404
   -14.9157 -14.9082 -14.8800 -14.8566 -14.8274 -14.7512 -14.7359 -14.6444
   -14.6261 -14.5343 -14.5247 -14.4990 -14.4924 -14.4446 -14.4359 -14.4203
   -14.3816 -14.2617 -14.2003 -14.1965 -14.1673 -14.1530 -14.1483 -14.0543
   -13.9867  -5.5499  -1.8821  -1.8440   0.3511   0.7946   0.9671   1.0239
     1.1470   1.1738   1.2280   1.3583   1.4369   1.5288   1.5678   1.6561
     1.7363   1.7683   1.9212   1.9777   2.0126   2.0564   2.1226   2.1751
     2.2398   2.2752   2.3871   2.4738   2.5058   2.5664   2.6679

          k =-0.0669 0.0902 0.0000 ( 31991 PWs)   bands (ev):

   -31.2634 -31.2380 -31.2300 -31.2052 -31.2050 -31.1808 -31.1713 -31.1473
   -30.7758 -30.7451 -30.7222 -30.6910 -18.1531 -15.2239 -15.1724 -15.1641
   -15.1200 -15.1058 -15.0904 -15.0167 -15.0031 -14.9849 -14.9797 -14.9403
   -14.9157 -14.9082 -14.8800 -14.8566 -14.8274 -14.7512 -14.7359 -14.6443
   -14.6261 -14.5343 -14.5248 -14.4990 -14.4925 -14.4446 -14.4358 -14.4203
   -14.3816 -14.2617 -14.2003 -14.1965 -14.1672 -14.1531 -14.1482 -14.0543
   -13.9867  -5.5499  -1.8821  -1.8440   0.3511   0.7946   0.9672   1.0238
     1.1471   1.1737   1.2280   1.3584   1.4369   1.5289   1.5677   1.6561
     1.7363   1.7683   1.9213   1.9777   2.0126   2.0564   2.1225   2.1752
     2.2398   2.2752   2.3871   2.4738   2.5058   2.5664   2.6678

          k =-0.0669-0.0387 0.0000 ( 31970 PWs)   bands (ev):

   -31.2518 -31.2504 -31.2261 -31.2259 -31.1845 -31.1829 -31.1597 -31.1595
   -30.7661 -30.7629 -30.7044 -30.7006 -18.1531 -15.2190 -15.2122 -15.1557
   -15.1527 -15.1073 -15.0933 -15.0123 -15.0077 -14.9561 -14.9431 -14.8860
   -14.8846 -14.8645 -14.8442 -14.8416 -14.8184 -14.7791 -14.7721 -14.7588
   -14.7517 -14.5245 -14.5199 -14.4537 -14.4483 -14.4226 -14.4203 -14.3598
   -14.3553 -14.3103 -14.3087 -14.1825 -14.1794 -14.1620 -14.1559 -13.9931
   -13.9909  -5.5499  -1.8844  -1.8418   0.4694   0.5145   0.9024   0.9516
     1.2304   1.2354   1.2826   1.2938   1.3129   1.4677   1.6800   1.7244
     1.8674   1.8750   1.8978   1.9234   2.1441   2.1725   2.2523   2.2613
     2.2692   2.2830   2.3125   2.4743   2.5883   2.5958   2.6068

     the Fermi energy is     2.0642 ev

!    total energy              =   -1282.11445568 Ry
     Harris-Foulkes estimate   =   -1282.11445030 Ry
     estimated scf accuracy    <       0.00000795 Ry

     The total energy is the sum of the following terms:

     one-electron contribution =   -4850.54914827 Ry
     hartree contribution      =    2440.63560370 Ry
     xc contribution           =    -616.93670017 Ry
     ewald contribution        =    1744.85898040 Ry
     electric field correction =       0.00004546 Ry
     smearing contrib. (-TS)   =      -0.12323680 Ry

     convergence has been achieved in  16 iterations
 
 BEEF-vdW xc energy contributions
           1 :   -546.414945281412     
           2 :    502.374229448396     
           3 :   -424.595742552414     
           4 :    329.790311630518     
           5 :   -235.599567324624     
           6 :    155.886809353526     
           7 :   -98.1566938227553     
           8 :    63.3228045853418     
           9 :   -47.2642753219419     
          10 :    43.2365220904647     
          11 :   -44.2413951299080     
          12 :    44.7166219912914     
          13 :   -41.3200319187666     
          14 :    32.9607522574217     
          15 :   -20.4218942595879     
          16 :    5.82757519352492     
          17 :    7.99027821900052     
          18 :   -18.2592677050038     
          19 :    23.0809521286754     
          20 :   -22.0573241989326     
          21 :    16.4630294470199     
          22 :   -8.83643670026686     
          23 :    2.08995242027822     
          24 :    1.53240578372174     
          25 :   -1.22632562908768     
          26 :   -2.20504986393792     
          27 :    6.84850312129788     
          28 :   -10.5949296309124     
          29 :    12.0323152234604     
          30 :   -10.9290859129682     
          31 :   -46.5782362756767     
          32 :   -33.3802854420967     

     Forces acting on atoms (Ry/au):


     negative rho (up, down):  5.869E-01 0.000E+00
     atom    1 type  1   force =     0.00001157    0.00001050    0.00375996
     atom    2 type  1   force =    -0.00000253   -0.00177992    0.00521646
     atom    3 type  1   force =    -0.00154687    0.00090049    0.00517954
     atom    4 type  1   force =     0.00156667    0.00090088    0.00524865
     atom    5 type  1   force =    -0.00231722    0.00145906   -0.00054449
     atom    6 type  1   force =     0.00232297    0.00130897   -0.00048336
     atom    7 type  1   force =    -0.00013945   -0.00005044   -0.00468366
     atom    8 type  1   force =     0.00012190   -0.00272562   -0.00051912
     atom    9 type  1   force =     0.01601430    0.00926874    0.01579167
     atom   10 type  1   force =    -0.01599894    0.00927686    0.01570121
     atom   11 type  1   force =     0.00000759   -0.01850264    0.01570950
     atom   12 type  1   force =     0.00000702   -0.00003131   -0.00930510
     atom   13 type  2   force =    -0.00004865   -0.00003637   -0.09768910
     atom   14 type  3   force =     0.00000163    0.00000081    0.04661783

     Total force =     0.116501     Total SCF correction =     0.006713


     entering subroutine stress ...


     negative rho (up, down):  5.869E-01 0.000E+00
          total   stress  (Ry/bohr**3)                   (kbar)     P=   -2.82
  -0.00001301  -0.00000001   0.00000001         -1.91     -0.00      0.00
  -0.00000001  -0.00001297   0.00000001         -0.00     -1.91      0.00
   0.00000001   0.00000001  -0.00003158          0.00      0.00     -4.65


     BFGS Geometry Optimization

     number of scf cycles    =   1
     number of bfgs steps    =   0

     energy   new            =   -1282.1144556845 Ry

     new trust radius        =       0.0976891148 bohr
     new conv_thr            =       0.0000099958 Ry


ATOMIC_POSITIONS (crystal)
La1      0.166666667   0.166666667   0.383173129    0   0   0
La1      0.666666667   0.166666667   0.383173129    0   0   0
La1      0.166666667   0.666666667   0.383173129    0   0   0
La1      0.666666667   0.666666667   0.383173129    0   0   0
La1      0.833333333   0.333333333   0.500000000    0   0   0
La1      0.333333333   0.333333333   0.500000000    0   0   0
La1      0.833333333   0.833333333   0.500000000    0   0   0
La1      0.333333333   0.833333333   0.500000000    0   0   0
La1      0.000755539   0.000758347   0.617147073
La1      0.498486870   0.000759011   0.617145239
La1      0.000757459   0.498486157   0.617145407
La1      0.500001778   0.499997438   0.616638195
O1       0.166664707   0.166663691   0.682840135
H1       0.166666749   0.166666733   0.722167643



     Writing output data file calc.save
     Check: negative starting charge=   -0.831199
     NEW-OLD atomic charge density approx. for the potential
     Check: negative starting charge=   -0.831424

     negative rho (up, down):  5.863E-01 0.000E+00
 
     Adding external electric field

     Computed dipole along edir(3) : 
        Dipole                0.1766 Ry au,          0.4490 Debye
        Dipole field          0.0003 Ry au
 
        Potential amp.       -0.0251 Ry
        Total length         48.0849 bohr
 

     total cpu time spent up to now is      764.5 secs

     Self-consistent Calculation

     iteration #  1     ecut=    36.75 Ry     beta=0.30
     Davidson diagonalization with overlap
     ethr =  1.00E-06,  avg # of iterations = 12.1

     negative rho (up, down):  5.858E-01 0.000E+00
 
     Adding external electric field

     Computed dipole along edir(3) : 
        Dipole                0.1243 Ry au,          0.3159 Debye
        Dipole field          0.0002 Ry au
 
        Potential amp.       -0.0177 Ry
        Total length         48.0849 bohr
 

     total cpu time spent up to now is      821.7 secs

     total energy              =   -1282.11519953 Ry
     Harris-Foulkes estimate   =   -1282.11950291 Ry
     estimated scf accuracy    <       0.01011377 Ry

     iteration #  2     ecut=    36.75 Ry     beta=0.30
     Davidson diagonalization with overlap
     ethr =  7.28E-06,  avg # of iterations = 10.6

     negative rho (up, down):  5.857E-01 0.000E+00
 
     Adding external electric field

     Computed dipole along edir(3) : 
        Dipole                0.2841 Ry au,          0.7220 Debye
        Dipole field          0.0004 Ry au
 
        Potential amp.       -0.0404 Ry
        Total length         48.0849 bohr
 

     total cpu time spent up to now is      866.6 secs

     total energy              =   -1282.10915373 Ry
     Harris-Foulkes estimate   =   -1282.12044036 Ry
     estimated scf accuracy    <       0.27121049 Ry

     iteration #  3     ecut=    36.75 Ry     beta=0.30
     Davidson diagonalization with overlap
     ethr =  7.28E-06,  avg # of iterations = 10.2

     negative rho (up, down):  5.858E-01 0.000E+00
 
     Adding external electric field

     Computed dipole along edir(3) : 
        Dipole                0.1930 Ry au,          0.4906 Debye
        Dipole field          0.0003 Ry au
 
        Potential amp.       -0.0274 Ry
        Total length         48.0849 bohr
 

     total cpu time spent up to now is      913.1 secs

     total energy              =   -1282.11318788 Ry
     Harris-Foulkes estimate   =   -1282.12009116 Ry
     estimated scf accuracy    <       0.25012505 Ry

     iteration #  4     ecut=    36.75 Ry     beta=0.30
     Davidson diagonalization with overlap
     ethr =  7.28E-06,  avg # of iterations =  8.8

     negative rho (up, down):  5.861E-01 0.000E+00
 
     Adding external electric field

     Computed dipole along edir(3) : 
        Dipole                0.1927 Ry au,          0.4899 Debye
        Dipole field          0.0003 Ry au
 
        Potential amp.       -0.0274 Ry
        Total length         48.0849 bohr
 

     total cpu time spent up to now is      956.7 secs

     total energy              =   -1282.11552934 Ry
     Harris-Foulkes estimate   =   -1282.11811454 Ry
     estimated scf accuracy    <       0.02443552 Ry

     iteration #  5     ecut=    36.75 Ry     beta=0.30
     Davidson diagonalization with overlap
     ethr =  7.28E-06,  avg # of iterations =  5.2

     negative rho (up, down):  5.863E-01 0.000E+00
 
     Adding external electric field

     Computed dipole along edir(3) : 
        Dipole                0.1967 Ry au,          0.4999 Debye
        Dipole field          0.0003 Ry au
 
        Potential amp.       -0.0279 Ry
        Total length         48.0849 bohr
 

     total cpu time spent up to now is      992.7 secs

     total energy              =   -1282.11669895 Ry
     Harris-Foulkes estimate   =   -1282.11687045 Ry
     estimated scf accuracy    <       0.00065804 Ry

     iteration #  6     ecut=    36.75 Ry     beta=0.30
     Davidson diagonalization with overlap
     ethr =  4.73E-07,  avg # of iterations =  9.8

     negative rho (up, down):  5.866E-01 0.000E+00
 
     Adding external electric field

     Computed dipole along edir(3) : 
        Dipole                0.1938 Ry au,          0.4926 Debye
        Dipole field          0.0003 Ry au
 
        Potential amp.       -0.0275 Ry
        Total length         48.0849 bohr
 

     total cpu time spent up to now is     1038.6 secs

     total energy              =   -1282.11684425 Ry
     Harris-Foulkes estimate   =   -1282.11688688 Ry
     estimated scf accuracy    <       0.00025213 Ry

     iteration #  7     ecut=    36.75 Ry     beta=0.30
     Davidson diagonalization with overlap
     ethr =  1.81E-07,  avg # of iterations =  4.6

     negative rho (up, down):  5.867E-01 0.000E+00
 
     Adding external electric field

     Computed dipole along edir(3) : 
        Dipole                0.1889 Ry au,          0.4801 Debye
        Dipole field          0.0003 Ry au
 
        Potential amp.       -0.0268 Ry
        Total length         48.0849 bohr
 

     total cpu time spent up to now is     1072.0 secs

     total energy              =   -1282.11686243 Ry
     Harris-Foulkes estimate   =   -1282.11686816 Ry
     estimated scf accuracy    <       0.00005667 Ry

     iteration #  8     ecut=    36.75 Ry     beta=0.30
     Davidson diagonalization with overlap
     ethr =  4.08E-08,  avg # of iterations =  8.2

     negative rho (up, down):  5.868E-01 0.000E+00
 
     Adding external electric field

     Computed dipole along edir(3) : 
        Dipole                0.1900 Ry au,          0.4829 Debye
        Dipole field          0.0003 Ry au
 
        Potential amp.       -0.0270 Ry
        Total length         48.0849 bohr
 

     total cpu time spent up to now is     1113.0 secs

     total energy              =   -1282.11687094 Ry
     Harris-Foulkes estimate   =   -1282.11687026 Ry
     estimated scf accuracy    <       0.00001261 Ry

     iteration #  9     ecut=    36.75 Ry     beta=0.30
     Davidson diagonalization with overlap
     ethr =  9.07E-09,  avg # of iterations =  8.2

     negative rho (up, down):  5.868E-01 0.000E+00

     negative rho (up, down):  5.868E-01 0.000E+00

     negative rho (up, down):  5.868E-01 0.000E+00

     negative rho (up, down):  5.868E-01 0.000E+00

     negative rho (up, down):  5.868E-01 0.000E+00

     negative rho (up, down):  5.868E-01 0.000E+00

     negative rho (up, down):  5.868E-01 0.000E+00

     negative rho (up, down):  5.868E-01 0.000E+00

     negative rho (up, down):  5.868E-01 0.000E+00

     negative rho (up, down):  5.868E-01 0.000E+00

     negative rho (up, down):  5.868E-01 0.000E+00

     negative rho (up, down):  5.868E-01 0.000E+00

     negative rho (up, down):  5.868E-01 0.000E+00

     negative rho (up, down):  5.868E-01 0.000E+00

     negative rho (up, down):  5.868E-01 0.000E+00

     negative rho (up, down):  5.868E-01 0.000E+00

     negative rho (up, down):  5.868E-01 0.000E+00

     negative rho (up, down):  5.868E-01 0.000E+00

     negative rho (up, down):  5.868E-01 0.000E+00

     negative rho (up, down):  5.868E-01 0.000E+00

     negative rho (up, down):  5.868E-01 0.000E+00

     negative rho (up, down):  5.868E-01 0.000E+00

     negative rho (up, down):  5.868E-01 0.000E+00

     negative rho (up, down):  5.868E-01 0.000E+00

     negative rho (up, down):  5.868E-01 0.000E+00

     negative rho (up, down):  5.868E-01 0.000E+00

     negative rho (up, down):  5.868E-01 0.000E+00

     negative rho (up, down):  5.868E-01 0.000E+00

     negative rho (up, down):  5.868E-01 0.000E+00

     negative rho (up, down):  5.868E-01 0.000E+00

     negative rho (up, down):  5.868E-01 0.000E+00

     negative rho (up, down):  5.868E-01 0.000E+00

     negative rho (up, down):  5.868E-01 0.000E+00

     negative rho (up, down):  5.868E-01 0.000E+00

     negative rho (up, down):  5.868E-01 0.000E+00
 
     Adding external electric field

     Computed dipole along edir(3) : 
        Dipole                0.1813 Ry au,          0.4609 Debye
        Dipole field          0.0003 Ry au
 
        Potential amp.       -0.0258 Ry
        Total length         48.0849 bohr
 

     total cpu time spent up to now is     1187.7 secs

     End of self-consistent calculation

          k = 0.0000 0.0000 0.0000 ( 31997 PWs)   bands (ev):

   -31.2921 -31.2677 -31.1588 -31.1586 -31.1569 -31.1375 -31.1373 -31.1348
   -30.8002 -30.6780 -30.6777 -30.6775 -17.9258 -15.3841 -15.3841 -15.3609
   -15.3133 -15.3132 -15.2855 -15.1902 -15.1157 -15.1156 -15.1091 -14.9096
   -14.7727 -14.7727 -14.7656 -14.5921 -14.5915 -14.5914 -14.5541 -14.5540
   -14.5499 -14.5195 -14.5194 -14.5169 -14.2955 -14.2955 -14.2721 -14.2721
   -14.1842 -14.1840 -14.1814 -14.1503 -14.0807 -14.0806 -14.0793 -13.8509
   -13.8509  -5.5400  -2.0045  -2.0045  -0.6864   0.0271   0.4027   0.4329
     0.4860   0.4861   0.7174   0.7175   0.8097   0.9474   0.9474   0.9980
     1.0878   1.0878   1.1813   1.8345   1.8345   2.0960   2.2562   2.4779
     2.6632   2.6632   2.6966   2.9302   3.1705   3.2704   3.2736

          k = 0.0000 0.0258 0.0000 ( 32061 PWs)   bands (ev):

   -31.2833 -31.2592 -31.1674 -31.1587 -31.1574 -31.1457 -31.1375 -31.1355
   -30.7921 -30.6861 -30.6778 -30.6777 -17.9237 -15.3478 -15.3372 -15.3126
   -15.2776 -15.2658 -15.2408 -15.1687 -15.0886 -15.0867 -15.0754 -14.9077
   -14.8032 -14.7844 -14.7754 -14.5950 -14.5944 -14.5779 -14.5778 -14.5712
   -14.5653 -14.5651 -14.5359 -14.5027 -14.3762 -14.3568 -14.3132 -14.2894
   -14.1769 -14.1764 -14.1733 -14.1361 -14.1198 -14.1197 -14.0652 -13.9235
   -13.8667  -5.5315  -2.0101  -1.9981  -0.5032   0.2078   0.5444   0.5851
     0.6129   0.6373   0.7684   0.8636   0.9341   1.0406   1.1231   1.1391
     1.1936   1.2174   1.2767   1.8498   1.8909   2.1098   2.2449   2.4775
     2.6664   2.6838   2.6932   2.8310   2.8646   3.0466   3.0581

          k = 0.0000 0.0515 0.0000 ( 32002 PWs)   bands (ev):

   -31.2592 -31.2356 -31.1921 -31.1700 -31.1588 -31.1575 -31.1375 -31.1357
   -30.7700 -30.7088 -30.6778 -30.6777 -17.9196 -15.2573 -15.2455 -15.1893
   -15.1842 -15.1592 -15.1250 -15.0646 -15.0265 -15.0261 -15.0008 -14.9089
   -14.8565 -14.8198 -14.8040 -14.6958 -14.6860 -14.6743 -14.6721 -14.5790
   -14.5593 -14.5348 -14.5339 -14.4956 -14.4903 -14.4590 -14.3613 -14.3358
   -14.2222 -14.2201 -14.1612 -14.1601 -14.1530 -14.1283 -14.1101 -14.0241
   -13.9095  -5.5149  -2.0198  -1.9856  -0.0251   0.6450   0.7597   0.8006
     0.9701   0.9805   1.0390   1.2072   1.2279   1.3260   1.4007   1.5338
     1.5536   1.6331   1.6642   1.8779   2.0077   2.0775   2.1685   2.3087
     2.4041   2.5122   2.6120   2.6500   2.6755   2.7844   2.8127

          k = 0.0000-0.0773 0.0000 ( 31970 PWs)   bands (ev):

   -31.2285 -31.2231 -31.2039 -31.2022 -31.1588 -31.1576 -31.1376 -31.1357
   -30.7397 -30.7394 -30.6778 -30.6777 -17.9175 -15.1935 -15.1842 -15.1304
   -15.1272 -15.0814 -15.0650 -14.9861 -14.9830 -14.9318 -14.9170 -14.8613
   -14.8587 -14.8331 -14.8207 -14.8182 -14.7778 -14.7563 -14.7456 -14.7361
   -14.7164 -14.4997 -14.4985 -14.4325 -14.4206 -14.3997 -14.3961 -14.3344
   -14.3305 -14.2855 -14.2841 -14.1571 -14.1568 -14.1374 -14.1334 -13.9679
   -13.9667  -5.5067  -2.0243  -1.9796   0.4929   0.5386   0.9264   0.9758
     1.2559   1.2615   1.3085   1.3185   1.3379   1.4931   1.7078   1.7468
     1.8926   1.9001   1.9252   1.9484   2.1682   2.1982   2.2778   2.2782
     2.2914   2.3072   2.3410   2.5022   2.6058   2.6224   2.6291

          k = 0.0223-0.0129 0.0000 ( 32061 PWs)   bands (ev):

   -31.2833 -31.2592 -31.1674 -31.1587 -31.1574 -31.1457 -31.1375 -31.1355
   -30.7921 -30.6861 -30.6779 -30.6776 -17.9237 -15.3478 -15.3373 -15.3126
   -15.2775 -15.2658 -15.2408 -15.1687 -15.0886 -15.0866 -15.0754 -14.9077
   -14.8032 -14.7845 -14.7754 -14.5950 -14.5944 -14.5779 -14.5778 -14.5712
   -14.5653 -14.5651 -14.5359 -14.5027 -14.3762 -14.3568 -14.3132 -14.2894
   -14.1769 -14.1765 -14.1733 -14.1361 -14.1198 -14.1197 -14.0652 -13.9235
   -13.8667  -5.5315  -2.0101  -1.9981  -0.5032   0.2078   0.5444   0.5851
     0.6129   0.6372   0.7684   0.8636   0.9341   1.0406   1.1231   1.1391
     1.1936   1.2174   1.2767   1.8498   1.8909   2.1098   2.2449   2.4775
     2.6664   2.6838   2.6932   2.8310   2.8646   3.0466   3.0581

          k = 0.0223 0.0129 0.0000 ( 32061 PWs)   bands (ev):

   -31.2833 -31.2592 -31.1674 -31.1589 -31.1573 -31.1457 -31.1373 -31.1356
   -30.7921 -30.6861 -30.6780 -30.6775 -17.9237 -15.3477 -15.3373 -15.3126
   -15.2776 -15.2658 -15.2407 -15.1687 -15.0887 -15.0866 -15.0754 -14.9077
   -14.8032 -14.7845 -14.7754 -14.5951 -14.5944 -14.5780 -14.5778 -14.5712
   -14.5654 -14.5650 -14.5359 -14.5027 -14.3762 -14.3568 -14.3132 -14.2894
   -14.1768 -14.1767 -14.1732 -14.1361 -14.1198 -14.1197 -14.0652 -13.9235
   -13.8667  -5.5315  -2.0101  -1.9981  -0.5032   0.2078   0.5444   0.5851
     0.6130   0.6372   0.7683   0.8636   0.9341   1.0406   1.1232   1.1391
     1.1936   1.2174   1.2767   1.8498   1.8909   2.1098   2.2449   2.4775
     2.6664   2.6838   2.6932   2.8310   2.8646   3.0466   3.0581

          k = 0.0223 0.0387 0.0000 ( 32007 PWs)   bands (ev):

   -31.2669 -31.2431 -31.1765 -31.1738 -31.1543 -31.1524 -31.1502 -31.1287
   -30.7770 -30.6935 -30.6932 -30.6705 -17.9206 -15.2929 -15.2386 -15.2359
   -15.2184 -15.1666 -15.1641 -15.1224 -15.0483 -15.0317 -15.0242 -14.9071
   -14.8438 -14.8185 -14.7886 -14.7165 -14.7028 -14.5681 -14.5582 -14.5548
   -14.5435 -14.5420 -14.5195 -14.5173 -14.5089 -14.4919 -14.3502 -14.3280
   -14.2373 -14.1734 -14.1629 -14.1621 -14.1280 -14.0873 -14.0854 -14.0474
   -13.9010  -5.5190  -2.0167  -1.9894  -0.1685   0.5306   0.7692   0.8064
     0.8809   0.9012   0.9070   0.9872   1.2283   1.2364   1.3389   1.3665
     1.3834   1.4996   1.5799   1.8794   1.9688   2.1070   2.1855   2.3852
     2.4712   2.5582   2.6198   2.6719   2.7140   2.8047   2.9425

          k = 0.0223-0.0902 0.0000 ( 31991 PWs)   bands (ev):

   -31.2383 -31.2150 -31.2044 -31.1822 -31.1795 -31.1578 -31.1458 -31.1243
   -30.7507 -30.7201 -30.6975 -30.6663 -17.9175 -15.1972 -15.1470 -15.1379
   -15.0945 -15.0800 -15.0629 -14.9913 -14.9777 -14.9579 -14.9546 -14.9146
   -14.8895 -14.8831 -14.8506 -14.8217 -14.8036 -14.7186 -14.7082 -14.6178
   -14.6023 -14.5112 -14.4992 -14.4755 -14.4690 -14.4196 -14.4115 -14.3967
   -14.3571 -14.2370 -14.1760 -14.1718 -14.1433 -14.1302 -14.1239 -14.0295
   -13.9619  -5.5066  -2.0223  -1.9815   0.3744   0.8192   0.9895   1.0488
     1.1729   1.2003   1.2531   1.3828   1.4613   1.5546   1.5935   1.6823
     1.7621   1.7949   1.9445   2.0038   2.0383   2.0817   2.1455   2.1952
     2.2635   2.2993   2.4115   2.4983   2.5302   2.5919   2.6896

          k = 0.0223-0.0644 0.0000 ( 31991 PWs)   bands (ev):

   -31.2383 -31.2150 -31.2044 -31.1822 -31.1795 -31.1578 -31.1458 -31.1243
   -30.7507 -30.7201 -30.6975 -30.6663 -17.9175 -15.1972 -15.1470 -15.1380
   -15.0945 -15.0800 -15.0629 -14.9913 -14.9777 -14.9579 -14.9546 -14.9145
   -14.8895 -14.8831 -14.8506 -14.8217 -14.8036 -14.7186 -14.7082 -14.6178
   -14.6023 -14.5112 -14.4992 -14.4754 -14.4690 -14.4196 -14.4115 -14.3967
   -14.3571 -14.2370 -14.1760 -14.1718 -14.1434 -14.1302 -14.1239 -14.0295
   -13.9619  -5.5066  -2.0223  -1.9815   0.3744   0.8192   0.9895   1.0488
     1.1729   1.2003   1.2531   1.3828   1.4613   1.5546   1.5935   1.6823
     1.7621   1.7949   1.9445   2.0038   2.0383   2.0817   2.1454   2.1952
     2.2635   2.2993   2.4114   2.4983   2.5301   2.5920   2.6896

          k = 0.0223-0.0387 0.0000 ( 32007 PWs)   bands (ev):

   -31.2669 -31.2431 -31.1766 -31.1737 -31.1541 -31.1526 -31.1502 -31.1287
   -30.7770 -30.6936 -30.6930 -30.6705 -17.9206 -15.2929 -15.2386 -15.2359
   -15.2184 -15.1666 -15.1641 -15.1225 -15.0483 -15.0317 -15.0242 -14.9070
   -14.8438 -14.8186 -14.7886 -14.7165 -14.7028 -14.5681 -14.5582 -14.5548
   -14.5435 -14.5420 -14.5195 -14.5173 -14.5089 -14.4919 -14.3503 -14.3280
   -14.2373 -14.1734 -14.1630 -14.1621 -14.1280 -14.0873 -14.0854 -14.0474
   -13.9010  -5.5190  -2.0167  -1.9894  -0.1685   0.5306   0.7692   0.8064
     0.8809   0.9012   0.9070   0.9872   1.2283   1.2364   1.3389   1.3665
     1.3834   1.4996   1.5799   1.8794   1.9688   2.1070   2.1855   2.3852
     2.4712   2.5582   2.6198   2.6719   2.7141   2.8048   2.9425

          k = 0.0446-0.0258 0.0000 ( 32002 PWs)   bands (ev):

   -31.2592 -31.2356 -31.1921 -31.1700 -31.1588 -31.1575 -31.1376 -31.1356
   -30.7700 -30.7088 -30.6779 -30.6776 -17.9196 -15.2572 -15.2456 -15.1893
   -15.1842 -15.1592 -15.1250 -15.0646 -15.0264 -15.0262 -15.0008 -14.9089
   -14.8565 -14.8199 -14.8040 -14.6958 -14.6860 -14.6743 -14.6721 -14.5790
   -14.5593 -14.5348 -14.5338 -14.4956 -14.4903 -14.4590 -14.3613 -14.3358
   -14.2222 -14.2201 -14.1612 -14.1601 -14.1530 -14.1284 -14.1101 -14.0241
   -13.9095  -5.5149  -2.0198  -1.9856  -0.0251   0.6450   0.7597   0.8006
     0.9701   0.9805   1.0390   1.2072   1.2280   1.3260   1.4007   1.5338
     1.5536   1.6331   1.6642   1.8780   2.0077   2.0775   2.1685   2.3087
     2.4041   2.5122   2.6120   2.6500   2.6755   2.7844   2.8127

          k = 0.0446 0.0000 0.0000 ( 32007 PWs)   bands (ev):

   -31.2669 -31.2431 -31.1765 -31.1738 -31.1542 -31.1525 -31.1502 -31.1287
   -30.7770 -30.6934 -30.6932 -30.6705 -17.9206 -15.2929 -15.2386 -15.2359
   -15.2184 -15.1666 -15.1641 -15.1224 -15.0483 -15.0317 -15.0242 -14.9071
   -14.8438 -14.8185 -14.7886 -14.7165 -14.7028 -14.5681 -14.5582 -14.5548
   -14.5436 -14.5420 -14.5195 -14.5173 -14.5089 -14.4919 -14.3502 -14.3280
   -14.2373 -14.1734 -14.1630 -14.1621 -14.1280 -14.0873 -14.0854 -14.0474
   -13.9010  -5.5190  -2.0167  -1.9894  -0.1685   0.5306   0.7692   0.8064
     0.8809   0.9012   0.9070   0.9872   1.2283   1.2364   1.3389   1.3665
     1.3833   1.4996   1.5800   1.8794   1.9688   2.1070   2.1855   2.3852
     2.4712   2.5582   2.6197   2.6719   2.7140   2.8047   2.9425

          k = 0.0446 0.0258 0.0000 ( 32002 PWs)   bands (ev):

   -31.2592 -31.2356 -31.1921 -31.1700 -31.1589 -31.1574 -31.1374 -31.1358
   -30.7700 -30.7088 -30.6780 -30.6775 -17.9196 -15.2572 -15.2456 -15.1893
   -15.1842 -15.1592 -15.1250 -15.0646 -15.0264 -15.0262 -15.0008 -14.9090
   -14.8565 -14.8198 -14.8040 -14.6959 -14.6860 -14.6742 -14.6721 -14.5790
   -14.5593 -14.5348 -14.5338 -14.4956 -14.4903 -14.4590 -14.3612 -14.3358
   -14.2223 -14.2200 -14.1611 -14.1602 -14.1530 -14.1284 -14.1101 -14.0241
   -13.9095  -5.5149  -2.0198  -1.9856  -0.0251   0.6450   0.7597   0.8005
     0.9702   0.9804   1.0390   1.2071   1.2280   1.3260   1.4007   1.5338
     1.5536   1.6331   1.6642   1.8779   2.0077   2.0775   2.1685   2.3087
     2.4041   2.5122   2.6120   2.6500   2.6755   2.7844   2.8127

          k = 0.0446-0.1031 0.0000 ( 31991 PWs)   bands (ev):

   -31.2383 -31.2150 -31.2044 -31.1822 -31.1796 -31.1578 -31.1458 -31.1243
   -30.7507 -30.7201 -30.6975 -30.6663 -17.9175 -15.1971 -15.1469 -15.1381
   -15.0944 -15.0800 -15.0629 -14.9913 -14.9777 -14.9579 -14.9546 -14.9146
   -14.8895 -14.8831 -14.8506 -14.8217 -14.8036 -14.7186 -14.7082 -14.6178
   -14.6023 -14.5112 -14.4993 -14.4755 -14.4690 -14.4196 -14.4115 -14.3967
   -14.3571 -14.2370 -14.1761 -14.1717 -14.1433 -14.1302 -14.1239 -14.0295
   -13.9619  -5.5066  -2.0223  -1.9815   0.3744   0.8192   0.9895   1.0487
     1.1729   1.2003   1.2531   1.3828   1.4613   1.5546   1.5934   1.6823
     1.7621   1.7949   1.9445   2.0038   2.0383   2.0817   2.1454   2.1952
     2.2635   2.2994   2.4115   2.4983   2.5302   2.5919   2.6896

          k = 0.0446-0.0773 0.0000 ( 31986 PWs)   bands (ev):

   -31.2136 -31.2069 -31.2065 -31.1876 -31.1873 -31.1849 -31.1412 -31.1198
   -30.7246 -30.7242 -30.7239 -30.6622 -17.9165 -15.1066 -15.0657 -15.0631
   -15.0553 -15.0365 -15.0336 -15.0193 -14.9399 -14.9285 -14.9238 -14.9056
   -14.9005 -14.8885 -14.8857 -14.8817 -14.8710 -14.8630 -14.7833 -14.5324
   -14.5208 -14.5104 -14.5027 -14.5004 -14.4990 -14.4612 -14.4532 -14.3654
   -14.3629 -14.3613 -14.1768 -14.1419 -14.1417 -14.1392 -14.0506 -14.0505
   -14.0485  -5.5024  -2.0223  -1.9806   0.8834   0.8876   0.9301   1.3218
     1.3525   1.3540   1.4401   1.4650   1.7241   1.7863   1.7891   1.7900
     1.8217   1.8240   1.8533   1.8835   1.9040   2.0196   2.0347   2.0359
     2.1693   2.3680   2.3750   2.3796   2.4522   2.4588   2.4642

          k = 0.0446-0.0515 0.0000 ( 31991 PWs)   bands (ev):

   -31.2383 -31.2150 -31.2044 -31.1822 -31.1795 -31.1578 -31.1458 -31.1243
   -30.7507 -30.7201 -30.6975 -30.6663 -17.9175 -15.1972 -15.1471 -15.1379
   -15.0945 -15.0800 -15.0629 -14.9913 -14.9777 -14.9579 -14.9546 -14.9145
   -14.8895 -14.8831 -14.8506 -14.8217 -14.8036 -14.7186 -14.7082 -14.6178
   -14.6023 -14.5112 -14.4992 -14.4754 -14.4690 -14.4196 -14.4115 -14.3967
   -14.3571 -14.2370 -14.1761 -14.1718 -14.1434 -14.1302 -14.1239 -14.0295
   -13.9619  -5.5066  -2.0223  -1.9815   0.3744   0.8192   0.9895   1.0488
     1.1729   1.2003   1.2531   1.3828   1.4613   1.5546   1.5935   1.6823
     1.7621   1.7949   1.9445   2.0038   2.0383   2.0817   2.1454   2.1952
     2.2635   2.2993   2.4114   2.4983   2.5301   2.5920   2.6896

          k =-0.0669 0.0387 0.0000 ( 31970 PWs)   bands (ev):

   -31.2285 -31.2232 -31.2039 -31.2021 -31.1588 -31.1576 -31.1376 -31.1357
   -30.7397 -30.7394 -30.6779 -30.6777 -17.9175 -15.1935 -15.1842 -15.1303
   -15.1272 -15.0814 -15.0650 -14.9860 -14.9831 -14.9319 -14.9170 -14.8613
   -14.8587 -14.8331 -14.8207 -14.8182 -14.7777 -14.7563 -14.7455 -14.7362
   -14.7163 -14.4997 -14.4985 -14.4325 -14.4206 -14.3997 -14.3960 -14.3343
   -14.3305 -14.2855 -14.2840 -14.1571 -14.1568 -14.1374 -14.1334 -13.9679
   -13.9666  -5.5067  -2.0243  -1.9796   0.4930   0.5386   0.9263   0.9758
     1.2559   1.2615   1.3085   1.3185   1.3379   1.4930   1.7078   1.7468
     1.8926   1.9001   1.9252   1.9484   2.1682   2.1982   2.2778   2.2782
     2.2914   2.3072   2.3410   2.5022   2.6058   2.6224   2.6291

          k =-0.0669 0.0644 0.0000 ( 31991 PWs)   bands (ev):

   -31.2383 -31.2150 -31.2044 -31.1822 -31.1795 -31.1578 -31.1458 -31.1243
   -30.7507 -30.7201 -30.6975 -30.6663 -17.9175 -15.1972 -15.1471 -15.1379
   -15.0945 -15.0800 -15.0629 -14.9913 -14.9777 -14.9579 -14.9546 -14.9146
   -14.8895 -14.8831 -14.8506 -14.8217 -14.8036 -14.7186 -14.7082 -14.6178
   -14.6023 -14.5112 -14.4992 -14.4755 -14.4690 -14.4196 -14.4115 -14.3967
   -14.3571 -14.2370 -14.1761 -14.1718 -14.1433 -14.1302 -14.1239 -14.0295
   -13.9619  -5.5066  -2.0223  -1.9815   0.3744   0.8192   0.9895   1.0488
     1.1729   1.2003   1.2531   1.3828   1.4613   1.5546   1.5935   1.6823
     1.7621   1.7949   1.9445   2.0038   2.0383   2.0817   2.1454   2.1952
     2.2635   2.2993   2.4115   2.4983   2.5302   2.5919   2.6896

          k =-0.0669 0.0902 0.0000 ( 31991 PWs)   bands (ev):

   -31.2383 -31.2150 -31.2044 -31.1822 -31.1796 -31.1578 -31.1458 -31.1243
   -30.7507 -30.7201 -30.6975 -30.6663 -17.9175 -15.1971 -15.1469 -15.1381
   -15.0944 -15.0800 -15.0629 -14.9913 -14.9778 -14.9579 -14.9546 -14.9146
   -14.8895 -14.8831 -14.8506 -14.8217 -14.8036 -14.7186 -14.7082 -14.6178
   -14.6023 -14.5112 -14.4993 -14.4755 -14.4690 -14.4196 -14.4115 -14.3967
   -14.3571 -14.2370 -14.1761 -14.1717 -14.1433 -14.1302 -14.1239 -14.0295
   -13.9619  -5.5066  -2.0223  -1.9815   0.3744   0.8192   0.9895   1.0487
     1.1729   1.2003   1.2531   1.3828   1.4613   1.5546   1.5934   1.6823
     1.7621   1.7949   1.9445   2.0038   2.0383   2.0817   2.1454   2.1952
     2.2635   2.2993   2.4115   2.4983   2.5302   2.5919   2.6896

          k =-0.0669-0.0387 0.0000 ( 31970 PWs)   bands (ev):

   -31.2285 -31.2231 -31.2037 -31.2023 -31.1590 -31.1574 -31.1374 -31.1358
   -30.7399 -30.7392 -30.6780 -30.6775 -17.9175 -15.1934 -15.1842 -15.1304
   -15.1272 -15.0814 -15.0651 -14.9860 -14.9831 -14.9318 -14.9171 -14.8613
   -14.8588 -14.8331 -14.8207 -14.8182 -14.7778 -14.7563 -14.7455 -14.7361
   -14.7163 -14.4998 -14.4984 -14.4327 -14.4205 -14.3996 -14.3962 -14.3342
   -14.3306 -14.2856 -14.2839 -14.1570 -14.1569 -14.1373 -14.1334 -13.9680
   -13.9665  -5.5067  -2.0243  -1.9796   0.4930   0.5385   0.9264   0.9757
     1.2560   1.2614   1.3085   1.3185   1.3379   1.4931   1.7077   1.7468
     1.8926   1.9002   1.9251   1.9484   2.1682   2.1982   2.2779   2.2782
     2.2914   2.3071   2.3410   2.5023   2.6058   2.6223   2.6291

     the Fermi energy is     2.0888 ev

!    total energy              =   -1282.11686667 Ry
     Harris-Foulkes estimate   =   -1282.11687772 Ry
     estimated scf accuracy    <       0.00000962 Ry

     The total energy is the sum of the following terms:

     one-electron contribution =   -4853.21441378 Ry
     hartree contribution      =    2441.93929353 Ry
     xc contribution           =    -616.87417529 Ry
     ewald contribution        =    1746.15612733 Ry
     electric field correction =       0.00004858 Ry
     smearing contrib. (-TS)   =      -0.12374703 Ry

     convergence has been achieved in   9 iterations
 
 BEEF-vdW xc energy contributions
           1 :   -546.361150970780     
           2 :    502.331944395383     
           3 :   -424.561582234141     
           4 :    329.751099910081     
           5 :   -235.546640971905     
           6 :    155.823407018986     
           7 :   -98.0948839583364     
           8 :    63.2744261904519     
           9 :   -47.2335858690915     
          10 :    43.2195691599084     
          11 :   -44.2312258409133     
          12 :    44.7088835305217     
          13 :   -41.3150744700055     
          14 :    32.9631660351325     
          15 :   -20.4369500126986     
          16 :    5.85446181480188     
          17 :    7.96054534604150     
          18 :   -18.2368534698467     
          19 :    23.0693047399343     
          20 :   -22.0518083321722     
          21 :    16.4550677939895     
          22 :   -8.81971644562611     
          23 :    2.06495042446375     
          24 :    1.55891871718120     
          25 :   -1.24646128545578     
          26 :   -2.19512943938935     
          27 :    6.84698580089389     
          28 :   -10.5960496506166     
          29 :    12.0309138402877     
          30 :   -10.9252619967421     
          31 :   -46.5751573114283     
          32 :   -33.3788561400941     

     Forces acting on atoms (Ry/au):


     negative rho (up, down):  5.868E-01 0.000E+00
     atom    1 type  1   force =     0.00001280    0.00001293    0.00239078
     atom    2 type  1   force =    -0.00001560   -0.00182963    0.00415181
     atom    3 type  1   force =    -0.00159451    0.00089948    0.00414379
     atom    4 type  1   force =     0.00160083    0.00092015    0.00415617
     atom    5 type  1   force =    -0.00235160    0.00140976   -0.00025213
     atom    6 type  1   force =     0.00234984    0.00135007   -0.00020996
     atom    7 type  1   force =    -0.00002921   -0.00001131   -0.00421015
     atom    8 type  1   force =     0.00005115   -0.00273961   -0.00024970
     atom    9 type  1   force =     0.01332421    0.00770189    0.01514143
     atom   10 type  1   force =    -0.01331665    0.00769508    0.01508778
     atom   11 type  1   force =     0.00000086   -0.01538477    0.01508510
     atom   12 type  1   force =    -0.00000879   -0.00000970   -0.00823509
     atom   13 type  2   force =    -0.00002139   -0.00001338    0.04371070
     atom   14 type  3   force =    -0.00000194   -0.00000096   -0.09071054

     Total force =     0.107710     Total SCF correction =     0.008609


     entering subroutine stress ...


     negative rho (up, down):  5.868E-01 0.000E+00
          total   stress  (Ry/bohr**3)                   (kbar)     P=   -3.45
  -0.00000690   0.00000000   0.00000000         -1.01      0.00      0.00
   0.00000000  -0.00000689   0.00000000          0.00     -1.01      0.00
   0.00000000   0.00000000  -0.00005650          0.00      0.00     -8.31


     number of scf cycles    =   2
     number of bfgs steps    =   1

     energy   old            =   -1282.1144556845 Ry
     energy   new            =   -1282.1168666673 Ry

     CASE: energy  _new < energy  _old

     new trust radius        =       0.0479286377 bohr
     new conv_thr            =       0.0000001000 Ry


ATOMIC_POSITIONS (crystal)
La1      0.166666667   0.166666667   0.383173129    0   0   0
La1      0.666666667   0.166666667   0.383173129    0   0   0
La1      0.166666667   0.666666667   0.383173129    0   0   0
La1      0.666666667   0.666666667   0.383173129    0   0   0
La1      0.833333333   0.333333333   0.500000000    0   0   0
La1      0.333333333   0.333333333   0.500000000    0   0   0
La1      0.833333333   0.833333333   0.500000000    0   0   0
La1      0.333333333   0.833333333   0.500000000    0   0   0
La1      0.001373475   0.001377772   0.617435822
La1      0.497250250   0.001378242   0.617432779
La1      0.001376174   0.497249094   0.617432956
La1      0.500002098   0.499996233   0.616477306
O1       0.166663545   0.166662176   0.682904657
H1       0.166666706   0.166666698   0.721195811



     Writing output data file calc.save
     Check: negative starting charge=   -0.831424
     NEW-OLD atomic charge density approx. for the potential
     Check: negative starting charge=   -0.831764

     negative rho (up, down):  5.864E-01 0.000E+00
 
     Adding external electric field

     Computed dipole along edir(3) : 
        Dipole                0.1825 Ry au,          0.4638 Debye
        Dipole field          0.0003 Ry au
 
        Potential amp.       -0.0259 Ry
        Total length         48.0849 bohr
 

     total cpu time spent up to now is     1278.3 secs

     Self-consistent Calculation

     iteration #  1     ecut=    36.75 Ry     beta=0.30
     Davidson diagonalization with overlap
     ethr =  1.00E-06,  avg # of iterations =  7.8

     negative rho (up, down):  5.864E-01 0.000E+00
 
     Adding external electric field

     Computed dipole along edir(3) : 
        Dipole                0.3134 Ry au,          0.7967 Debye
        Dipole field          0.0005 Ry au
 
        Potential amp.       -0.0445 Ry
        Total length         48.0849 bohr
 

     total cpu time spent up to now is     1327.7 secs

     total energy              =   -1282.12055441 Ry
     Harris-Foulkes estimate   =   -1282.12188875 Ry
     estimated scf accuracy    <       0.00307287 Ry

     iteration #  2     ecut=    36.75 Ry     beta=0.30
     Davidson diagonalization with overlap
     c_bands:  2 eigenvalues not converged
     ethr =  2.21E-06,  avg # of iterations = 12.5

     negative rho (up, down):  5.864E-01 0.000E+00
 
     Adding external electric field

     Computed dipole along edir(3) : 
        Dipole                0.1534 Ry au,          0.3898 Debye
        Dipole field          0.0002 Ry au
 
        Potential amp.       -0.0218 Ry
        Total length         48.0849 bohr
 

     total cpu time spent up to now is     1381.3 secs

     total energy              =   -1282.11163690 Ry
     Harris-Foulkes estimate   =   -1282.13033587 Ry
     estimated scf accuracy    <       0.71848059 Ry

     iteration #  3     ecut=    36.75 Ry     beta=0.30
     Davidson diagonalization with overlap
     c_bands:  1 eigenvalues not converged
     ethr =  2.21E-06,  avg # of iterations = 12.8

     negative rho (up, down):  5.865E-01 0.000E+00
 
     Adding external electric field

     Computed dipole along edir(3) : 
        Dipole                0.1891 Ry au,          0.4807 Debye
        Dipole field          0.0003 Ry au
 
        Potential amp.       -0.0269 Ry
        Total length         48.0849 bohr
 

     total cpu time spent up to now is     1434.2 secs

     total energy              =   -1282.12013445 Ry
     Harris-Foulkes estimate   =   -1282.12300825 Ry
     estimated scf accuracy    <       0.06732582 Ry

     iteration #  4     ecut=    36.75 Ry     beta=0.30
     Davidson diagonalization with overlap
     ethr =  2.21E-06,  avg # of iterations =  8.8

     negative rho (up, down):  5.866E-01 0.000E+00
 
     Adding external electric field

     Computed dipole along edir(3) : 
        Dipole                0.1927 Ry au,          0.4897 Debye
        Dipole field          0.0003 Ry au
 
        Potential amp.       -0.0274 Ry
        Total length         48.0849 bohr
 

     total cpu time spent up to now is     1478.1 secs

     total energy              =   -1282.12163990 Ry
     Harris-Foulkes estimate   =   -1282.12173819 Ry
     estimated scf accuracy    <       0.00072293 Ry

     iteration #  5     ecut=    36.75 Ry     beta=0.30
     Davidson diagonalization with overlap
     ethr =  5.20E-07,  avg # of iterations =  5.3

     negative rho (up, down):  5.867E-01 0.000E+00
 
     Adding external electric field

     Computed dipole along edir(3) : 
        Dipole                0.1913 Ry au,          0.4863 Debye
        Dipole field          0.0003 Ry au
 
        Potential amp.       -0.0272 Ry
        Total length         48.0849 bohr
 

     total cpu time spent up to now is     1514.1 secs

     total energy              =   -1282.12169441 Ry
     Harris-Foulkes estimate   =   -1282.12170898 Ry
     estimated scf accuracy    <       0.00008398 Ry

     iteration #  6     ecut=    36.75 Ry     beta=0.30
     Davidson diagonalization with overlap
     ethr =  6.04E-08,  avg # of iterations =  8.5

     negative rho (up, down):  5.869E-01 0.000E+00
 
     Adding external electric field

     Computed dipole along edir(3) : 
        Dipole                0.1932 Ry au,          0.4911 Debye
        Dipole field          0.0003 Ry au
 
        Potential amp.       -0.0274 Ry
        Total length         48.0849 bohr
 

     total cpu time spent up to now is     1555.6 secs

     total energy              =   -1282.12170493 Ry
     Harris-Foulkes estimate   =   -1282.12170742 Ry
     estimated scf accuracy    <       0.00002159 Ry

     iteration #  7     ecut=    36.75 Ry     beta=0.30
     Davidson diagonalization with overlap
     ethr =  1.55E-08,  avg # of iterations =  5.3

     negative rho (up, down):  5.870E-01 0.000E+00
 
     Adding external electric field

     Computed dipole along edir(3) : 
        Dipole                0.1911 Ry au,          0.4858 Debye
        Dipole field          0.0003 Ry au
 
        Potential amp.       -0.0272 Ry
        Total length         48.0849 bohr
 

     total cpu time spent up to now is     1592.0 secs

     total energy              =   -1282.12170666 Ry
     Harris-Foulkes estimate   =   -1282.12170867 Ry
[...]
   -30.7451 -30.6464 -30.6279 -30.6233 -19.3010 -15.3147 -15.3068 -15.2835
   -15.2372 -15.2281 -15.2070 -15.1359 -15.0632 -15.0629 -15.0460 -14.8568
   -14.7719 -14.7659 -14.7297 -14.5684 -14.5644 -14.5504 -14.5428 -14.5318
   -14.5196 -14.4982 -14.4927 -14.4728 -14.3340 -14.3200 -14.2705 -14.2587
   -14.1365 -14.1189 -14.1174 -14.0716 -14.0679 -14.0668 -14.0157 -13.8751
   -13.8190  -6.5287  -3.0249  -3.0093  -0.4696   0.2459   0.5557   0.6072
     0.6254   0.6413   0.7980   0.8922   0.9583   1.0723   1.1467   1.1739
     1.2178   1.2479   1.3684   1.8882   1.9336   2.1897   2.2736   2.4659
     2.6988   2.7300   2.7314   2.8645   2.9176   3.0717   3.0778

          k = 0.0223 0.0129 0.0000 ( 32061 PWs)   bands (ev):

   -31.2398 -31.2284 -31.1238 -31.1184 -31.1158 -31.1127 -31.1117 -31.0461
   -30.7451 -30.6464 -30.6279 -30.6233 -19.3010 -15.3147 -15.3068 -15.2835
   -15.2372 -15.2281 -15.2070 -15.1359 -15.0632 -15.0629 -15.0460 -14.8568
   -14.7719 -14.7659 -14.7297 -14.5684 -14.5644 -14.5504 -14.5428 -14.5318
   -14.5196 -14.4982 -14.4927 -14.4728 -14.3340 -14.3200 -14.2705 -14.2587
   -14.1365 -14.1189 -14.1174 -14.0716 -14.0679 -14.0668 -14.0157 -13.8751
   -13.8190  -6.5287  -3.0249  -3.0093  -0.4696   0.2459   0.5557   0.6072
     0.6254   0.6413   0.7980   0.8922   0.9583   1.0723   1.1467   1.1739
     1.2178   1.2479   1.3684   1.8882   1.9336   2.1897   2.2736   2.4659
     2.6988   2.7300   2.7314   2.8645   2.9176   3.0717   3.0779

          k = 0.0223 0.0387 0.0000 ( 32007 PWs)   bands (ev):

   -31.2233 -31.2132 -31.1326 -31.1309 -31.1288 -31.1142 -31.1065 -31.0487
   -30.7307 -30.6540 -30.6385 -30.6200 -19.2978 -15.2614 -15.2090 -15.2016
   -15.1854 -15.1442 -15.1280 -15.0829 -15.0268 -15.0119 -14.9939 -14.8688
   -14.8122 -14.7807 -14.7540 -14.6792 -14.6687 -14.5415 -14.5255 -14.5182
   -14.5014 -14.4972 -14.4817 -14.4715 -14.4650 -14.4308 -14.3057 -14.2984
   -14.1866 -14.1346 -14.1108 -14.1012 -14.0601 -14.0397 -14.0338 -13.9951
   -13.8530  -6.5090  -3.0363  -2.9980  -0.1349   0.5639   0.7815   0.8137
     0.8921   0.9154   0.9385   1.0261   1.2513   1.2533   1.3722   1.3809
     1.4423   1.5258   1.6057   1.9231   2.0117   2.1363   2.2280   2.3933
     2.4907   2.5699   2.6483   2.6975   2.7439   2.8301   3.0013

          k = 0.0223-0.0902 0.0000 ( 31991 PWs)   bands (ev):

   -31.1949 -31.1887 -31.1604 -31.1495 -31.1357 -31.1179 -31.1021 -31.0502
   -30.7069 -30.6723 -30.6477 -30.6167 -19.2945 -15.1674 -15.1195 -15.1032
   -15.0767 -15.0612 -15.0296 -14.9699 -14.9563 -14.9326 -14.9210 -14.8821
   -14.8556 -14.8521 -14.8131 -14.7805 -14.7615 -14.6902 -14.6394 -14.5797
   -14.5715 -14.4717 -14.4600 -14.4432 -14.4090 -14.3755 -14.3688 -14.3530
   -14.3011 -14.1854 -14.1389 -14.1171 -14.0949 -14.0692 -14.0535 -13.9806
   -13.9129  -6.4895  -3.0475  -2.9871   0.4096   0.8529   1.0119   1.0707
     1.1899   1.2209   1.2737   1.4038   1.4796   1.5681   1.6137   1.6970
     1.7652   1.8190   1.9496   2.0209   2.0734   2.0892   2.1653   2.2095
     2.2891   2.3224   2.4324   2.5212   2.5465   2.6253   2.6974

          k = 0.0223-0.0644 0.0000 ( 31991 PWs)   bands (ev):

   -31.1949 -31.1887 -31.1604 -31.1495 -31.1357 -31.1179 -31.1021 -31.0502
   -30.7069 -30.6723 -30.6477 -30.6167 -19.2945 -15.1674 -15.1195 -15.1032
   -15.0767 -15.0612 -15.0296 -14.9699 -14.9563 -14.9326 -14.9210 -14.8821
   -14.8556 -14.8521 -14.8131 -14.7805 -14.7615 -14.6902 -14.6394 -14.5797
   -14.5715 -14.4717 -14.4600 -14.4432 -14.4090 -14.3755 -14.3688 -14.3530
   -14.3011 -14.1854 -14.1389 -14.1171 -14.0949 -14.0692 -14.0535 -13.9806
   -13.9129  -6.4895  -3.0475  -2.9871   0.4096   0.8529   1.0119   1.0707
     1.1899   1.2209   1.2737   1.4038   1.4796   1.5681   1.6137   1.6970
     1.7652   1.8190   1.9496   2.0209   2.0734   2.0892   2.1653   2.2095
     2.2891   2.3224   2.4324   2.5212   2.5466   2.6253   2.6974

          k = 0.0223-0.0387 0.0000 ( 32007 PWs)   bands (ev):

   -31.2233 -31.2132 -31.1326 -31.1309 -31.1288 -31.1142 -31.1065 -31.0487
   -30.7307 -30.6540 -30.6385 -30.6200 -19.2978 -15.2614 -15.2090 -15.2016
   -15.1854 -15.1442 -15.1280 -15.0829 -15.0268 -15.0119 -14.9939 -14.8688
   -14.8122 -14.7807 -14.7541 -14.6792 -14.6687 -14.5415 -14.5255 -14.5182
   -14.5014 -14.4972 -14.4817 -14.4715 -14.4650 -14.4308 -14.3057 -14.2984
   -14.1866 -14.1346 -14.1108 -14.1012 -14.0601 -14.0397 -14.0338 -13.9951
   -13.8530  -6.5090  -3.0363  -2.9980  -0.1349   0.5639   0.7815   0.8137
     0.8921   0.9154   0.9385   1.0261   1.2513   1.2533   1.3722   1.3809
     1.4423   1.5258   1.6057   1.9231   2.0116   2.1363   2.2280   2.3933
     2.4907   2.5699   2.6483   2.6975   2.7440   2.8301   3.0013

          k = 0.0446-0.0258 0.0000 ( 32002 PWs)   bands (ev):

   -31.2156 -31.2063 -31.1482 -31.1379 -31.1159 -31.1130 -31.1118 -31.0499
   -30.7241 -30.6629 -30.6330 -30.6233 -19.2967 -15.2229 -15.2187 -15.1532
   -15.1462 -15.1352 -15.1035 -15.0274 -15.0055 -15.0039 -14.9722 -14.8741
   -14.8132 -14.7981 -14.7610 -14.6638 -14.6511 -14.6499 -14.6242 -14.5414
   -14.5172 -14.5040 -14.4645 -14.4541 -14.4313 -14.4309 -14.3188 -14.3030
   -14.1769 -14.1640 -14.1285 -14.1049 -14.0894 -14.0679 -14.0484 -13.9756
   -13.8611  -6.5025  -3.0403  -2.9941   0.0087   0.6749   0.7744   0.8340
     0.9847   0.9849   1.0639   1.2297   1.2539   1.3585   1.4340   1.5511
     1.5697   1.6660   1.6787   1.9165   2.0428   2.1161   2.2041   2.3268
     2.4177   2.5256   2.6236   2.6729   2.7001   2.8333   2.8439

          k = 0.0446 0.0000 0.0000 ( 32007 PWs)   bands (ev):

   -31.2233 -31.2132 -31.1326 -31.1309 -31.1288 -31.1142 -31.1065 -31.0487
   -30.7307 -30.6540 -30.6385 -30.6200 -19.2978 -15.2614 -15.2090 -15.2016
   -15.1854 -15.1442 -15.1280 -15.0829 -15.0268 -15.0119 -14.9939 -14.8688
   -14.8122 -14.7808 -14.7540 -14.6792 -14.6687 -14.5415 -14.5255 -14.5182
   -14.5014 -14.4972 -14.4817 -14.4715 -14.4650 -14.4308 -14.3057 -14.2984
   -14.1866 -14.1346 -14.1108 -14.1012 -14.0601 -14.0397 -14.0338 -13.9951
   -13.8530  -6.5090  -3.0363  -2.9980  -0.1349   0.5639   0.7815   0.8137
     0.8921   0.9154   0.9385   1.0261   1.2513   1.2533   1.3722   1.3809
     1.4423   1.5258   1.6057   1.9231   2.0117   2.1363   2.2280   2.3933
     2.4907   2.5699   2.6483   2.6975   2.7439   2.8301   3.0013

          k = 0.0446 0.0258 0.0000 ( 32002 PWs)   bands (ev):

   -31.2156 -31.2063 -31.1482 -31.1379 -31.1159 -31.1130 -31.1118 -31.0499
   -30.7241 -30.6629 -30.6330 -30.6233 -19.2967 -15.2229 -15.2187 -15.1532
   -15.1462 -15.1352 -15.1035 -15.0274 -15.0055 -15.0039 -14.9722 -14.8741
   -14.8132 -14.7981 -14.7610 -14.6638 -14.6511 -14.6499 -14.6242 -14.5414
   -14.5172 -14.5040 -14.4645 -14.4541 -14.4313 -14.4309 -14.3188 -14.3030
   -14.1769 -14.1640 -14.1285 -14.1049 -14.0894 -14.0679 -14.0484 -13.9756
   -13.8611  -6.5025  -3.0403  -2.9941   0.0087   0.6749   0.7744   0.8340
     0.9847   0.9849   1.0639   1.2297   1.2539   1.3585   1.4340   1.5511
     1.5696   1.6660   1.6787   1.9165   2.0428   2.1161   2.2041   2.3268
     2.4177   2.5256   2.6236   2.6729   2.7001   2.8333   2.8439

          k = 0.0446-0.1031 0.0000 ( 31991 PWs)   bands (ev):

   -31.1949 -31.1887 -31.1604 -31.1495 -31.1357 -31.1179 -31.1021 -31.0502
   -30.7069 -30.6723 -30.6477 -30.6167 -19.2945 -15.1674 -15.1195 -15.1032
   -15.0767 -15.0612 -15.0296 -14.9699 -14.9563 -14.9326 -14.9210 -14.8821
   -14.8556 -14.8521 -14.8131 -14.7805 -14.7615 -14.6902 -14.6394 -14.5797
   -14.5715 -14.4717 -14.4600 -14.4432 -14.4090 -14.3755 -14.3688 -14.3529
   -14.3011 -14.1854 -14.1389 -14.1171 -14.0949 -14.0692 -14.0535 -13.9806
   -13.9129  -6.4894  -3.0475  -2.9871   0.4096   0.8529   1.0119   1.0707
     1.1899   1.2209   1.2737   1.4038   1.4796   1.5681   1.6137   1.6970
     1.7652   1.8190   1.9496   2.0209   2.0734   2.0892   2.1653   2.2095
     2.2891   2.3224   2.4324   2.5212   2.5466   2.6253   2.6974

          k = 0.0446-0.0773 0.0000 ( 31986 PWs)   bands (ev):

   -31.1765 -31.1664 -31.1660 -31.1616 -31.1567 -31.1256 -31.0976 -31.0495
   -30.6933 -30.6699 -30.6676 -30.6130 -19.2934 -15.0885 -15.0507 -15.0477
   -15.0355 -15.0142 -14.9911 -14.9783 -14.9140 -14.9076 -14.8951 -14.8714
   -14.8652 -14.8643 -14.8599 -14.8520 -14.8264 -14.8201 -14.6915 -14.5220
   -14.4776 -14.4759 -14.4722 -14.4563 -14.4543 -14.4083 -14.4022 -14.3090
   -14.3052 -14.3051 -14.1385 -14.1008 -14.0782 -14.0685 -14.0020 -13.9988
   -13.9950  -6.4828  -3.0509  -2.9838   0.9220   0.9246   0.9682   1.3498
     1.3634   1.3739   1.4637   1.4664   1.7239   1.7697   1.8092   1.8129
     1.8198   1.8204   1.8630   1.8870   1.9060   2.0476   2.0587   2.0704
     2.1522   2.3697   2.4112   2.4150   2.4865   2.4986   2.5062

          k = 0.0446-0.0515 0.0000 ( 31991 PWs)   bands (ev):

   -31.1949 -31.1887 -31.1604 -31.1495 -31.1357 -31.1179 -31.1021 -31.0502
   -30.7069 -30.6723 -30.6477 -30.6167 -19.2945 -15.1674 -15.1195 -15.1032
   -15.0767 -15.0612 -15.0296 -14.9699 -14.9563 -14.9326 -14.9210 -14.8821
   -14.8556 -14.8521 -14.8131 -14.7805 -14.7615 -14.6902 -14.6394 -14.5797
   -14.5715 -14.4717 -14.4600 -14.4432 -14.4090 -14.3755 -14.3688 -14.3530
   -14.3011 -14.1854 -14.1389 -14.1171 -14.0949 -14.0692 -14.0535 -13.9806
   -13.9129  -6.4895  -3.0475  -2.9871   0.4096   0.8529   1.0119   1.0707
     1.1899   1.2209   1.2737   1.4038   1.4796   1.5681   1.6137   1.6970
     1.7652   1.8190   1.9496   2.0209   2.0734   2.0892   2.1653   2.2095
     2.2891   2.3224   2.4324   2.5212   2.5466   2.6253   2.6974

          k =-0.0669 0.0387 0.0000 ( 31970 PWs)   bands (ev):

   -31.1883 -31.1826 -31.1791 -31.1573 -31.1159 -31.1131 -31.1118 -31.0514
   -30.7025 -30.6837 -30.6341 -30.6233 -19.2945 -15.1609 -15.1574 -15.1010
   -15.0848 -15.0594 -15.0553 -14.9640 -14.9621 -14.9097 -14.8847 -14.8336
   -14.8306 -14.7978 -14.7937 -14.7770 -14.7342 -14.7128 -14.7097 -14.6844
   -14.6577 -14.4684 -14.4239 -14.4108 -14.3817 -14.3750 -14.3454 -14.2825
   -14.2781 -14.2371 -14.2250 -14.1264 -14.1004 -14.0759 -14.0584 -13.9269
   -13.9108  -6.4896  -3.0479  -2.9867   0.5283   0.5731   0.9425   1.0080
     1.2637   1.2757   1.3245   1.3480   1.3635   1.5285   1.7090   1.7637
     1.9005   1.9111   1.9348   1.9524   2.1575   2.2404   2.2820   2.3026
     2.3229   2.3303   2.3833   2.5196   2.6295   2.6388   2.6567

          k =-0.0669 0.0644 0.0000 ( 31991 PWs)   bands (ev):

   -31.1949 -31.1887 -31.1604 -31.1495 -31.1357 -31.1179 -31.1021 -31.0502
   -30.7069 -30.6723 -30.6477 -30.6167 -19.2945 -15.1674 -15.1195 -15.1032
   -15.0767 -15.0612 -15.0296 -14.9699 -14.9563 -14.9326 -14.9210 -14.8821
   -14.8556 -14.8521 -14.8131 -14.7805 -14.7615 -14.6902 -14.6394 -14.5797
   -14.5715 -14.4717 -14.4600 -14.4432 -14.4090 -14.3755 -14.3688 -14.3530
   -14.3011 -14.1854 -14.1389 -14.1171 -14.0949 -14.0692 -14.0535 -13.9806
   -13.9129  -6.4894  -3.0475  -2.9871   0.4096   0.8529   1.0119   1.0707
     1.1899   1.2209   1.2737   1.4038   1.4796   1.5681   1.6137   1.6970
     1.7652   1.8190   1.9496   2.0209   2.0734   2.0892   2.1653   2.2095
     2.2891   2.3224   2.4324   2.5212   2.5465   2.6253   2.6974

          k =-0.0669 0.0902 0.0000 ( 31991 PWs)   bands (ev):

   -31.1949 -31.1887 -31.1604 -31.1495 -31.1357 -31.1179 -31.1021 -31.0502
   -30.7069 -30.6723 -30.6477 -30.6167 -19.2945 -15.1674 -15.1195 -15.1032
   -15.0767 -15.0612 -15.0296 -14.9699 -14.9563 -14.9326 -14.9210 -14.8821
   -14.8556 -14.8521 -14.8131 -14.7805 -14.7615 -14.6902 -14.6393 -14.5797
   -14.5715 -14.4717 -14.4600 -14.4432 -14.4090 -14.3755 -14.3688 -14.3529
   -14.3011 -14.1854 -14.1389 -14.1171 -14.0949 -14.0692 -14.0535 -13.9806
   -13.9129  -6.4894  -3.0475  -2.9871   0.4096   0.8529   1.0119   1.0707
     1.1899   1.2209   1.2737   1.4038   1.4796   1.5681   1.6137   1.6970
     1.7652   1.8190   1.9496   2.0209   2.0734   2.0892   2.1653   2.2095
     2.2891   2.3224   2.4324   2.5212   2.5466   2.6253   2.6974

          k =-0.0669-0.0387 0.0000 ( 31970 PWs)   bands (ev):

   -31.1883 -31.1826 -31.1791 -31.1573 -31.1159 -31.1131 -31.1118 -31.0514
   -30.7025 -30.6837 -30.6341 -30.6233 -19.2945 -15.1609 -15.1574 -15.1010
   -15.0848 -15.0594 -15.0553 -14.9640 -14.9621 -14.9097 -14.8847 -14.8336
   -14.8306 -14.7978 -14.7937 -14.7770 -14.7342 -14.7128 -14.7097 -14.6844
   -14.6577 -14.4684 -14.4239 -14.4108 -14.3817 -14.3750 -14.3453 -14.2825
   -14.2781 -14.2371 -14.2250 -14.1264 -14.1004 -14.0759 -14.0584 -13.9269
   -13.9108  -6.4896  -3.0479  -2.9867   0.5283   0.5731   0.9425   1.0080
     1.2637   1.2757   1.3245   1.3480   1.3635   1.5285   1.7090   1.7637
     1.9005   1.9111   1.9348   1.9524   2.1575   2.2404   2.2820   2.3026
     2.3229   2.3303   2.3833   2.5196   2.6295   2.6388   2.6567

     the Fermi energy is     2.1125 ev

!    total energy              =   -1282.13943079 Ry
     Harris-Foulkes estimate   =   -1282.13943064 Ry
     estimated scf accuracy    <       0.00000003 Ry

     The total energy is the sum of the following terms:

     one-electron contribution =   -4945.67215809 Ry
     hartree contribution      =    2488.19215139 Ry
     xc contribution           =    -617.05583449 Ry
     ewald contribution        =    1792.51973905 Ry
     electric field correction =       0.00006168 Ry
     smearing contrib. (-TS)   =      -0.12339033 Ry

     convergence has been achieved in   9 iterations
 
 BEEF-vdW xc energy contributions
           1 :   -546.548201329578     
           2 :    502.587156901982     
           3 :   -424.872930917274     
           4 :    330.032694124212     
           5 :   -235.705752888424     
           6 :    155.824376042043     
           7 :   -97.9799096826666     
           8 :    63.1333304167995     
           9 :   -47.1502222571013     
          10 :    43.2296255617252     
          11 :   -44.3099399139248     
          12 :    44.7927863916248     
          13 :   -41.3447716504000     
          14 :    32.9203541106601     
          15 :   -20.3534452533478     
          16 :    5.78842682691993     
          17 :    7.96557230691951     
          18 :   -18.1815755609178     
          19 :    22.9966912966493     
          20 :   -22.0175271377357     
          21 :    16.4921153542185     
          22 :   -8.91921439031717     
          23 :    2.18262047617804     
          24 :    1.47656518554618     
          25 :   -1.23206934639472     
          26 :   -2.14611530855177     
          27 :    6.76975308592250     
          28 :   -10.5327972270439     
          29 :    12.0064670919387     
          30 :   -10.9369194254909     
          31 :   -46.5875208097580     
          32 :   -33.4057918296882     

     Forces acting on atoms (Ry/au):


     negative rho (up, down):  5.846E-01 0.000E+00
     atom    1 type  1   force =     0.00000022   -0.00000013    0.00193229
     atom    2 type  1   force =    -0.00000009   -0.00219688    0.00438858
     atom    3 type  1   force =    -0.00190256    0.00109842    0.00438843
     atom    4 type  1   force =     0.00190264    0.00109857    0.00438849
     atom    5 type  1   force =    -0.00058826    0.00034053   -0.00307509
     atom    6 type  1   force =     0.00058789    0.00033959   -0.00307562
     atom    7 type  1   force =     0.00000050    0.00000064   -0.00549254
     atom    8 type  1   force =     0.00000041   -0.00068011   -0.00307499
     atom    9 type  1   force =     0.00005300    0.00002985   -0.00009797
     atom   10 type  1   force =    -0.00006036    0.00003335   -0.00009735
     atom   11 type  1   force =    -0.00000084   -0.00007220   -0.00009708
     atom   12 type  1   force =     0.00000318    0.00000339   -0.00012808
     atom   13 type  2   force =     0.00000536    0.00000601    0.00068632
     atom   14 type  3   force =    -0.00000109   -0.00000103   -0.00064539

     Total force =     0.000973     Total SCF correction =     0.000318
     SCF correction compared to forces is large: reduce conv_thr to get better values


     entering subroutine stress ...


     negative rho (up, down):  5.846E-01 0.000E+00
          total   stress  (Ry/bohr**3)                   (kbar)     P=    0.01
   0.00000596   0.00000000   0.00000000          0.88      0.00      0.00
   0.00000000   0.00000596   0.00000000          0.00      0.88      0.00
   0.00000000   0.00000000  -0.00001179          0.00      0.00     -1.73


     bfgs converged in  26 scf cycles and  25 bfgs steps
     (criteria: energy <  1.0E+00, force <  1.9E-03)

     End of BFGS Geometry Optimization

     Final energy   =   -1282.1394307851 Ry
Begin final coordinates

ATOMIC_POSITIONS (crystal)
La1      0.166666667   0.166666667   0.383173129    0   0   0
La1      0.666666667   0.166666667   0.383173129    0   0   0
La1      0.166666667   0.666666667   0.383173129    0   0   0
La1      0.666666667   0.666666667   0.383173129    0   0   0
La1      0.833333333   0.333333333   0.500000000    0   0   0
La1      0.333333333   0.333333333   0.500000000    0   0   0
La1      0.833333333   0.833333333   0.500000000    0   0   0
La1      0.333333333   0.833333333   0.500000000    0   0   0
La1      0.001679519   0.001681193   0.616081193
La1      0.496645449   0.001678800   0.616081608
La1      0.001676869   0.496648307   0.616081807
La1      0.499998174   0.499995574   0.611102464
O1       0.166665212   0.166660430   0.669237397
H1       0.166667836   0.166666347   0.706615518
End final coordinates



     Writing output data file calc.save
 
     init_run     :     22.14s CPU     29.27s WALL (       1 calls)
     electrons    :  10700.53s CPU  13380.56s WALL (      26 calls)
     update_pot   :     57.67s CPU     66.39s WALL (      25 calls)
     forces       :    493.95s CPU    516.49s WALL (      26 calls)
     stress       :   1563.16s CPU   1635.06s WALL (      26 calls)

     Called by init_run:
     wfcinit      :     15.84s CPU     21.91s WALL (       1 calls)
     potinit      :      1.28s CPU      1.62s WALL (       1 calls)

     Called by electrons:
     c_bands      :   6812.53s CPU   8647.12s WALL (     301 calls)
     sum_band     :   1809.75s CPU   2148.58s WALL (     301 calls)
     v_of_rho     :    267.21s CPU    353.55s WALL (     323 calls)
     newd         :   1246.97s CPU   1454.41s WALL (     323 calls)
     mix_rho      :      8.91s CPU     11.86s WALL (     301 calls)
     vdW_energy   :    196.45s CPU    251.04s WALL (    1259 calls)
     vdW_ffts     :    357.77s CPU    481.32s WALL (    2570 calls)
     vdW_v        :    133.89s CPU    159.22s WALL (    1259 calls)

     Called by c_bands:
     init_us_2    :     62.74s CPU     73.39s WALL (   13100 calls)
     cegterg      :   6125.77s CPU   7938.17s WALL (    6020 calls)

     Called by *egterg:
     h_psi        :   3763.67s CPU   5346.20s WALL (   50921 calls)
     s_psi        :    404.26s CPU    419.03s WALL (   50921 calls)
     g_psi        :     24.95s CPU     25.73s WALL (   44881 calls)
     cdiaghg      :    963.93s CPU    987.11s WALL (   50321 calls)

     Called by h_psi:
     add_vuspsi   :    402.10s CPU    417.65s WALL (   50921 calls)

     General routines
     calbec       :    517.74s CPU    530.02s WALL (   57981 calls)
     fft          :    577.92s CPU    761.95s WALL (   76037 calls)
     ffts         :      0.71s CPU      1.12s WALL (     624 calls)
     fftw         :   2387.33s CPU   4214.81s WALL ( 3330564 calls)
     interpolate  :      5.34s CPU      9.04s WALL (     624 calls)
     davcio       :      0.04s CPU      0.58s WALL (      20 calls)
 
     Parallel routines
     fft_scatter  :   1728.32s CPU   2887.25s WALL ( 3407225 calls)
 
     PWSCF        :     3h35m CPU        4h22m WALL

 
   This run was terminated on:   2:14:20  19Apr2018            

=------------------------------------------------------------------------------=
   JOB DONE.
=------------------------------------------------------------------------------=
