  python dir          : /u/if/mamunm/src/espresso
  espresso dir        : /nfs/slac/g/suncatfs/sw/espv18/espresso-dynpy-beef/bin
  pseudo dir          : /u/if/mamunm/psp/gbrv1.5pbe
  ase-espresso py git : GITVERSION



     Program PWSCF v.5.1rc2 (svn rev. 11289) starts on  3May2018 at  7:44:35 

     This program is part of the open-source Quantum ESPRESSO suite
     for quantum simulation of materials; please cite
         "P. Giannozzi et al., J. Phys.:Condens. Matter 21 395502 (2009);
          URL http://www.quantum-espresso.org", 
     in publications or presentations arising from this work. More details at
     http://www.quantum-espresso.org/quote

     Parallel version (MPI), running on    32 processors
     K-points division:     npool     =       4
     R & G space division:  proc/nbgrp/npool/nimage =       8
     Reading input from pw.inp
     Message from routine read_cards :
     DEPRECATED: no units specified in CELL_PARAMETERS card

     Current dimensions of program PWSCF are:
     Max number of different atomic species (ntypx) = 10
     Max number of k-points (npk) =  40000
     Max angular momentum in pseudopotentials (lmaxx) =  3
     Presently stress not available with electric field


     **************************************************************************
     Initializing libbeef V0.1.1 with the BEEF-vdW functional.
     Citation: Wellendorff et al., PRB 85, 235149 (2012).
     **************************************************************************


     IMPORTANT: XC functional enforced from input :
     Exchange-correlation      = BEEF-VDW ( 1  4 27 13 2)
     Any further DFT definition will be discarded
     Please, verify this is what you really want


     Subspace diagonalization in iterative solution of the eigenvalue problem:
     a serial algorithm will be used

 
     Parallelization info
     --------------------
     sticks:   dense  smooth     PW     G-vecs:    dense   smooth      PW
     Min         358     144     41                67928    17211    2707
     Max         359     145     43                67951    17239    2717
     Sum        2869    1159    337               543535   137813   21685
 


     bravais-lattice index     =            0
     lattice parameter (alat)  =       1.8897  a.u.
     unit-cell volume          =    4569.9960 (a.u.)^3
     number of atoms/cell      =           13
     number of atomic types    =            2
     number of electrons       =       193.00
     number of Kohn-Sham states=          106
     kinetic-energy cutoff     =      36.7493  Ry
     charge density cutoff     =     367.4932  Ry
     convergence threshold     =      1.0E-05
     mixing beta               =       0.3000
     number of iterations used =           10  plain     mixing
     Exchange-correlation      = BEEF-VDW ( 1  4 27 13 2)
     nstep                     =           50


     celldm(1)=   1.889726  celldm(2)=   0.000000  celldm(3)=   0.000000
     celldm(4)=   0.000000  celldm(5)=   0.000000  celldm(6)=   0.000000

     crystal axes: (cart. coord. in units of alat)
               a(1) = (   5.637663   0.000000   0.000000 )  
               a(2) = (   2.818831   4.882359   0.000000 )  
               a(3) = (   0.000000   0.000000  24.603132 )  

     reciprocal axes: (cart. coord. in units 2 pi/alat)
               b(1) = (  0.177378 -0.102410  0.000000 )  
               b(2) = (  0.000000  0.204819  0.000000 )  
               b(3) = (  0.000000  0.000000  0.040645 )  


     PseudoPot. # 1 for Pd read from file:
     /u/if/mamunm/psp/gbrv1.5pbe/Pd.UPF
     MD5 check sum: 2d733d2bc2cbfd217af676df1668a4bc
     Pseudo is Ultrasoft + core correction, Zval = 16.0
     Generated by new atomic code, or converted to UPF format
     Using radial grid of  887 points,  6 beta functions with: 
                l(1) =   0
                l(2) =   0
                l(3) =   1
                l(4) =   1
                l(5) =   2
                l(6) =   2
     Q(r) pseudized with  8 coefficients,  rinner =    1.130   1.130   1.130
                                                       1.130   1.130

     PseudoPot. # 2 for H  read from file:
     /u/if/mamunm/psp/gbrv1.5pbe/H.UPF
     MD5 check sum: 761ae9a214b05c3daf00ab9f6b793d6f
     Pseudo is Ultrasoft, Zval =  1.0
     Generated by new atomic code, or converted to UPF format
     Using radial grid of  615 points,  2 beta functions with: 
                l(1) =   0
                l(2) =   0
     Q(r) pseudized with  8 coefficients,  rinner =    0.700

     vdW kernel table read from file vdW_kernel_table
     MD5 check sum: 095c7af220d748ca6e76c0b4c6cfb241

     atomic species   valence    mass     pseudopotential
        Pd1           16.00   106.42000     Pd( 1.00)
        H1             1.00     1.00800     H ( 1.00)

     No symmetry found



   Cartesian axes

     site n.     atom                  positions (alat units)
         1           Pd1 tau(   1) = (   1.4094157   0.8137265  10.0000000  )
         2           Pd1 tau(   2) = (   4.2282471   0.8137265  10.0000000  )
         3           Pd1 tau(   3) = (   2.8188314   3.2549061  10.0000000  )
         4           Pd1 tau(   4) = (   5.6376627   3.2549061  10.0000000  )
         5           Pd1 tau(   5) = (   5.6376627   1.6274531  12.3015662  )
         6           Pd1 tau(   6) = (   2.8188314   1.6274531  12.3015662  )
         7           Pd1 tau(   7) = (   7.0470784   4.0686326  12.3015662  )
         8           Pd1 tau(   8) = (   4.2282471   4.0686326  12.3015662  )
         9           Pd1 tau(   9) = (   0.0000000   0.0000000  14.6031324  )
        10           Pd1 tau(  10) = (   2.8188314   0.0000000  14.6031324  )
        11           Pd1 tau(  11) = (   1.4094157   2.4411796  14.6031324  )
        12           Pd1 tau(  12) = (   4.2282471   2.4411796  14.6031324  )
        13           H1  tau(  13) = (   0.0000000   0.0000000  16.0481324  )

     number of k points=    20  Fermi-Dirac smearing, width (Ry)=  0.0110
                       cart. coord. in units 2pi/alat
        k(    1) = (   0.0000000   0.0000000   0.0000000), wk =   0.0555556
        k(    2) = (   0.0000000   0.0341365   0.0000000), wk =   0.1111111
        k(    3) = (   0.0000000   0.0682730   0.0000000), wk =   0.1111111
        k(    4) = (   0.0000000  -0.1024095   0.0000000), wk =   0.0555556
        k(    5) = (   0.0295631  -0.0170683   0.0000000), wk =   0.1111111
        k(    6) = (   0.0295631   0.0170683   0.0000000), wk =   0.1111111
        k(    7) = (   0.0295631   0.0512048   0.0000000), wk =   0.1111111
        k(    8) = (   0.0295631  -0.1194778   0.0000000), wk =   0.1111111
        k(    9) = (   0.0295631  -0.0853413   0.0000000), wk =   0.1111111
        k(   10) = (   0.0295631  -0.0512048   0.0000000), wk =   0.1111111
        k(   11) = (   0.0591262  -0.0341365   0.0000000), wk =   0.1111111
        k(   12) = (   0.0591262  -0.0000000   0.0000000), wk =   0.1111111
        k(   13) = (   0.0591262   0.0341365   0.0000000), wk =   0.1111111
        k(   14) = (   0.0591262  -0.1365460   0.0000000), wk =   0.1111111
        k(   15) = (   0.0591262  -0.1024095   0.0000000), wk =   0.1111111
        k(   16) = (   0.0591262  -0.0682730   0.0000000), wk =   0.1111111
        k(   17) = (  -0.0886892   0.0512048   0.0000000), wk =   0.0555556
        k(   18) = (  -0.0886892   0.0853413   0.0000000), wk =   0.1111111
        k(   19) = (  -0.0886892   0.1194778   0.0000000), wk =   0.1111111
        k(   20) = (  -0.0886892  -0.0512048   0.0000000), wk =   0.0555556

     Dense  grid:   543535 G-vectors     FFT dimensions: (  72,  72, 288)

     Smooth grid:   137813 G-vectors     FFT dimensions: (  45,  45, 180)

     Largest allocated arrays     est. size (Mb)     dimensions
        Kohn-Sham Wavefunctions         3.55 Mb     (    2194,  106)
        NL pseudopotentials             7.30 Mb     (    2194,  218)
        Each V/rho on FFT grid          2.85 Mb     (  186624)
        Each G-vector array             0.52 Mb     (   67930)
        G-vector shells                 0.13 Mb     (   17595)
     Largest temporary arrays     est. size (Mb)     dimensions
        Auxiliary wavefunctions        14.19 Mb     (    2194,  424)
        Each subspace H/S matrix        2.74 Mb     (     424,  424)
        Each <psi_i|beta_j> matrix      0.35 Mb     (     218,  106)
        Arrays for rho mixing          28.48 Mb     (  186624,   10)

     Initial potential from superposition of free atoms
     Check: negative starting charge=   -0.904081

     starting charge  186.99991, renormalised to  193.00000

     negative rho (up, down):  9.331E-01 0.000E+00


     ************************************************************************
     *
     * You are using vdW-DF for exchange-correlation in this calculation.
     * Please cite the following three references that made this development
     * possible:
     *
     *   M. Dion, H. Rydberg, E. Schroder, D. C. Langreth, and
     *   B. I. Lundqvist, Phys. Rev. Lett. 92, 246401 (2004).
     *
     *   T. Thonhauser, V. R. Cooper, S. Li, A. Puzder, P. Hyldgaard, and
     *   D. C. Langreth, Phys. Rev. B 76, 125112 (2007).
     *
     *   G. Roman-Perez and J. M. Soler, Phys. Rev. Lett. 103, 096102 (2009).
     *
     *
     * If you are using vdW-DF2, please also cite:
     *
     *   K. Lee, E. D. Murray, L. Kong, B. I. Lundqvist, and
     *   D. C. Langreth, Phys. Rev. B 82, 081101(R) (2010).
     *
     *
     * If you are calculating the stress with vdW-DF, please also cite:
     *
     *   R. Sabatini, E. Kucukbenli, B. Kolb, T. Thonhauser, and
     *   S. de Gironcoli, J. Phys.: Condens. Matter 24, 424209 (2012).
     *
     ************************************************************************

     Carrying out vdW-DF run using the following parameters:

     Nqs =      20    Nr_points =    1024   r_max =   100.000
     q_mesh =
               0.00001000     0.04494208     0.09755937     0.15916263
               0.23128650     0.31572767     0.41458969     0.53033537
               0.66584808     0.82450364     1.01025438     1.22772762
               1.48234092     1.78043706     2.12944203     2.53805004
               3.01644009     3.57652955     4.23227104     5.00000000

     Gradients computed in reciprocal space

     ************************************************************************


 
     Adding external electric field

     Computed dipole along edir(3) : 
        Dipole               -0.2271 Ry au,         -0.5772 Debye
        Dipole field         -0.0006 Ry au
 
        Potential amp.        0.0566 Ry
        Total length         45.3309 bohr
 
     Starting wfc are  145 randomized atomic wfcs

     total cpu time spent up to now is       11.0 secs

     per-process dynamical memory:    82.5 Mb

     Self-consistent Calculation

     iteration #  1     ecut=    36.75 Ry     beta=0.30
     Davidson diagonalization with overlap
     ethr =  1.00E-02,  avg # of iterations =  3.7

     negative rho (up, down):  9.267E-01 0.000E+00
 
     Adding external electric field

     Computed dipole along edir(3) : 
        Dipole                3.3962 Ry au,          8.6322 Debye
        Dipole field          0.0093 Ry au
 
        Potential amp.       -0.8467 Ry
        Total length         45.3309 bohr
 

     total cpu time spent up to now is       30.5 secs

     total energy              =   -2392.21044574 Ry
     Harris-Foulkes estimate   =   -2402.51847477 Ry
     estimated scf accuracy    <      23.29534737 Ry

     iteration #  2     ecut=    36.75 Ry     beta=0.30
     Davidson diagonalization with overlap
     ethr =  1.00E-02,  avg # of iterations =  4.2

     negative rho (up, down):  9.285E-01 0.000E+00
 
     Adding external electric field

     Computed dipole along edir(3) : 
        Dipole               -2.4194 Ry au,         -6.1495 Debye
        Dipole field         -0.0067 Ry au
 
        Potential amp.        0.6032 Ry
        Total length         45.3309 bohr
 

     total cpu time spent up to now is       52.7 secs

     total energy              =   -2384.64629344 Ry
     Harris-Foulkes estimate   =   -2408.17738006 Ry
     estimated scf accuracy    <     315.39131140 Ry

     iteration #  3     ecut=    36.75 Ry     beta=0.30
     Davidson diagonalization with overlap
     ethr =  1.00E-02,  avg # of iterations =  4.7

     negative rho (up, down):  9.323E-01 0.000E+00
 
     Adding external electric field

     Computed dipole along edir(3) : 
        Dipole                0.4982 Ry au,          1.2662 Debye
        Dipole field          0.0014 Ry au
 
        Potential amp.       -0.1242 Ry
        Total length         45.3309 bohr
 

     total cpu time spent up to now is       76.5 secs

     total energy              =   -2392.00564432 Ry
     Harris-Foulkes estimate   =   -2403.42044502 Ry
     estimated scf accuracy    <     162.61053349 Ry

     iteration #  4     ecut=    36.75 Ry     beta=0.30
     Davidson diagonalization with overlap
     ethr =  1.00E-02,  avg # of iterations =  3.0

     negative rho (up, down):  9.361E-01 0.000E+00
 
     Adding external electric field

     Computed dipole along edir(3) : 
        Dipole                0.0152 Ry au,          0.0388 Debye
        Dipole field          0.0000 Ry au
 
        Potential amp.       -0.0038 Ry
        Total length         45.3309 bohr
 

     total cpu time spent up to now is       95.6 secs

     total energy              =   -2397.45778499 Ry
     Harris-Foulkes estimate   =   -2400.48656417 Ry
     estimated scf accuracy    <      21.18172676 Ry

     iteration #  5     ecut=    36.75 Ry     beta=0.30
     Davidson diagonalization with overlap
     ethr =  1.00E-02,  avg # of iterations =  1.4

     negative rho (up, down):  9.368E-01 0.000E+00
 
     Adding external electric field

     Computed dipole along edir(3) : 
        Dipole                0.0937 Ry au,          0.2383 Debye
        Dipole field          0.0003 Ry au
 
        Potential amp.       -0.0234 Ry
        Total length         45.3309 bohr
 

     total cpu time spent up to now is      112.4 secs

     total energy              =   -2398.43454417 Ry
     Harris-Foulkes estimate   =   -2398.81144342 Ry
     estimated scf accuracy    <       1.75779680 Ry

     iteration #  6     ecut=    36.75 Ry     beta=0.30
     Davidson diagonalization with overlap
     ethr =  9.11E-04,  avg # of iterations =  2.0

     negative rho (up, down):  9.375E-01 0.000E+00
 
     Adding external electric field

     Computed dipole along edir(3) : 
        Dipole                0.0328 Ry au,          0.0832 Debye
        Dipole field          0.0001 Ry au
 
        Potential amp.       -0.0082 Ry
        Total length         45.3309 bohr
 

     total cpu time spent up to now is      129.5 secs

     total energy              =   -2398.53738174 Ry
     Harris-Foulkes estimate   =   -2398.64267111 Ry
     estimated scf accuracy    <       0.60716517 Ry

     iteration #  7     ecut=    36.75 Ry     beta=0.30
     Davidson diagonalization with overlap
     ethr =  3.15E-04,  avg # of iterations =  2.8

     negative rho (up, down):  9.380E-01 0.000E+00
 
     Adding external electric field

     Computed dipole along edir(3) : 
        Dipole                0.0018 Ry au,          0.0046 Debye
        Dipole field          0.0000 Ry au
 
        Potential amp.       -0.0005 Ry
        Total length         45.3309 bohr
 

     total cpu time spent up to now is      147.3 secs

     total energy              =   -2398.57633567 Ry
     Harris-Foulkes estimate   =   -2398.59502814 Ry
     estimated scf accuracy    <       0.22115847 Ry

     iteration #  8     ecut=    36.75 Ry     beta=0.30
     Davidson diagonalization with overlap
     ethr =  1.15E-04,  avg # of iterations =  1.3

     negative rho (up, down):  9.388E-01 0.000E+00
 
     Adding external electric field

     Computed dipole along edir(3) : 
        Dipole               -0.0470 Ry au,         -0.1195 Debye
        Dipole field         -0.0001 Ry au
 
        Potential amp.        0.0117 Ry
        Total length         45.3309 bohr
 

     total cpu time spent up to now is      164.2 secs

     total energy              =   -2398.56899893 Ry
     Harris-Foulkes estimate   =   -2398.58414312 Ry
     estimated scf accuracy    <       0.06077951 Ry

     iteration #  9     ecut=    36.75 Ry     beta=0.30
     Davidson diagonalization with overlap
     ethr =  3.15E-05,  avg # of iterations =  4.3

     negative rho (up, down):  9.399E-01 0.000E+00
 
     Adding external electric field

     Computed dipole along edir(3) : 
        Dipole               -0.0608 Ry au,         -0.1545 Debye
        Dipole field         -0.0002 Ry au
 
        Potential amp.        0.0152 Ry
        Total length         45.3309 bohr
 

     total cpu time spent up to now is      183.0 secs

     total energy              =   -2398.57007152 Ry
     Harris-Foulkes estimate   =   -2398.57711179 Ry
     estimated scf accuracy    <       0.09863908 Ry

     iteration # 10     ecut=    36.75 Ry     beta=0.30
     Davidson diagonalization with overlap
     ethr =  3.15E-05,  avg # of iterations =  1.9

     negative rho (up, down):  9.403E-01 0.000E+00
 
     Adding external electric field

     Computed dipole along edir(3) : 
        Dipole               -0.0448 Ry au,         -0.1138 Debye
        Dipole field         -0.0001 Ry au
 
        Potential amp.        0.0112 Ry
        Total length         45.3309 bohr
 

     total cpu time spent up to now is      200.2 secs

     total energy              =   -2398.57261325 Ry
     Harris-Foulkes estimate   =   -2398.57539980 Ry
     estimated scf accuracy    <       0.03016189 Ry

     iteration # 11     ecut=    36.75 Ry     beta=0.30
     Davidson diagonalization with overlap
     ethr =  1.56E-05,  avg # of iterations =  1.0

     negative rho (up, down):  9.405E-01 0.000E+00
 
     Adding external electric field

     Computed dipole along edir(3) : 
        Dipole               -0.0348 Ry au,         -0.0886 Debye
        Dipole field         -0.0001 Ry au
 
        Potential amp.        0.0087 Ry
        Total length         45.3309 bohr
 

     total cpu time spent up to now is      216.9 secs

     total energy              =   -2398.57267998 Ry
     Harris-Foulkes estimate   =   -2398.57413425 Ry
     estimated scf accuracy    <       0.01237898 Ry

     iteration # 12     ecut=    36.75 Ry     beta=0.30
     Davidson diagonalization with overlap
     ethr =  6.41E-06,  avg # of iterations =  1.0

     negative rho (up, down):  9.410E-01 0.000E+00
 
     Adding external electric field

     Computed dipole along edir(3) : 
        Dipole               -0.0424 Ry au,         -0.1078 Debye
        Dipole field         -0.0001 Ry au
 
        Potential amp.        0.0106 Ry
        Total length         45.3309 bohr
 

     total cpu time spent up to now is      233.6 secs

     total energy              =   -2398.57329933 Ry
     Harris-Foulkes estimate   =   -2398.57343135 Ry
     estimated scf accuracy    <       0.00105012 Ry

     iteration # 13     ecut=    36.75 Ry     beta=0.30
     Davidson diagonalization with overlap
     ethr =  5.44E-07,  avg # of iterations =  4.2

     negative rho (up, down):  9.413E-01 0.000E+00
 
     Adding external electric field

     Computed dipole along edir(3) : 
        Dipole               -0.0385 Ry au,         -0.0977 Debye
        Dipole field         -0.0001 Ry au
 
        Potential amp.        0.0096 Ry
        Total length         45.3309 bohr
 

     total cpu time spent up to now is      252.6 secs

     total energy              =   -2398.57338563 Ry
     Harris-Foulkes estimate   =   -2398.57346861 Ry
     estimated scf accuracy    <       0.00062921 Ry

     iteration # 14     ecut=    36.75 Ry     beta=0.30
     Davidson diagonalization with overlap
     ethr =  3.26E-07,  avg # of iterations =  2.0

     negative rho (up, down):  9.414E-01 0.000E+00
 
     Adding external electric field

     Computed dipole along edir(3) : 
        Dipole               -0.0403 Ry au,         -0.1024 Debye
        Dipole field         -0.0001 Ry au
 
        Potential amp.        0.0100 Ry
        Total length         45.3309 bohr
 

     total cpu time spent up to now is      269.6 secs

     total energy              =   -2398.57341633 Ry
     Harris-Foulkes estimate   =   -2398.57343988 Ry
     estimated scf accuracy    <       0.00025100 Ry

     iteration # 15     ecut=    36.75 Ry     beta=0.30
     Davidson diagonalization with overlap
     ethr =  1.30E-07,  avg # of iterations =  1.4

     negative rho (up, down):  9.415E-01 0.000E+00
 
     Adding external electric field

     Computed dipole along edir(3) : 
        Dipole               -0.0406 Ry au,         -0.1033 Debye
        Dipole field         -0.0001 Ry au
 
        Potential amp.        0.0101 Ry
        Total length         45.3309 bohr
 

     total cpu time spent up to now is      286.7 secs

     total energy              =   -2398.57342760 Ry
     Harris-Foulkes estimate   =   -2398.57343074 Ry
     estimated scf accuracy    <       0.00003485 Ry

     iteration # 16     ecut=    36.75 Ry     beta=0.30
     Davidson diagonalization with overlap
     ethr =  1.81E-08,  avg # of iterations =  1.6

     negative rho (up, down):  9.416E-01 0.000E+00

     negative rho (up, down):  9.416E-01 0.000E+00

     negative rho (up, down):  9.416E-01 0.000E+00

     negative rho (up, down):  9.416E-01 0.000E+00

     negative rho (up, down):  9.416E-01 0.000E+00

     negative rho (up, down):  9.416E-01 0.000E+00

     negative rho (up, down):  9.416E-01 0.000E+00

     negative rho (up, down):  9.416E-01 0.000E+00

     negative rho (up, down):  9.416E-01 0.000E+00

     negative rho (up, down):  9.416E-01 0.000E+00

     negative rho (up, down):  9.416E-01 0.000E+00

     negative rho (up, down):  9.416E-01 0.000E+00

     negative rho (up, down):  9.416E-01 0.000E+00

     negative rho (up, down):  9.416E-01 0.000E+00

     negative rho (up, down):  9.416E-01 0.000E+00

     negative rho (up, down):  9.416E-01 0.000E+00

     negative rho (up, down):  9.416E-01 0.000E+00

     negative rho (up, down):  9.416E-01 0.000E+00

     negative rho (up, down):  9.416E-01 0.000E+00

     negative rho (up, down):  9.416E-01 0.000E+00

     negative rho (up, down):  9.416E-01 0.000E+00

     negative rho (up, down):  9.416E-01 0.000E+00

     negative rho (up, down):  9.416E-01 0.000E+00

     negative rho (up, down):  9.416E-01 0.000E+00

     negative rho (up, down):  9.416E-01 0.000E+00

     negative rho (up, down):  9.416E-01 0.000E+00

     negative rho (up, down):  9.416E-01 0.000E+00

     negative rho (up, down):  9.416E-01 0.000E+00

     negative rho (up, down):  9.416E-01 0.000E+00

     negative rho (up, down):  9.416E-01 0.000E+00

     negative rho (up, down):  9.416E-01 0.000E+00

     negative rho (up, down):  9.416E-01 0.000E+00

     negative rho (up, down):  9.416E-01 0.000E+00

     negative rho (up, down):  9.416E-01 0.000E+00

     negative rho (up, down):  9.416E-01 0.000E+00
 
     Adding external electric field

     Computed dipole along edir(3) : 
        Dipole               -0.0559 Ry au,         -0.1420 Debye
        Dipole field         -0.0002 Ry au
 
        Potential amp.        0.0139 Ry
        Total length         45.3309 bohr
 

     total cpu time spent up to now is      351.2 secs

     End of self-consistent calculation

          k = 0.0000 0.0000 0.0000 ( 17231 PWs)   bands (ev):

   -49.6504 -49.2255 -49.2255 -49.0792 -49.0676 -49.0671 -48.9764 -48.9544
   -48.9409 -48.9401 -48.8967 -48.8962 -48.8830 -48.8378 -48.8317 -48.8316
   -48.8147 -48.8143 -48.8070 -48.7437 -48.7433 -48.6677 -48.6641 -48.6503
   -48.6499 -48.6171 -48.6167 -48.5917 -48.5916 -48.5421 -48.5205 -48.5199
   -48.5161 -48.5060 -48.5054 -48.4431  -5.0322  -4.3168  -3.7001  -3.5906
    -3.5905  -3.5854  -3.5439  -3.3902  -3.3901  -3.2761  -3.2599  -3.2598
    -3.0831  -3.0411  -3.0409  -3.0076  -2.2415  -2.2414  -2.0728  -1.8164
    -1.8164  -1.7568  -1.5922  -1.5922  -1.5770  -1.4421  -1.4420  -1.3248
    -1.3247  -1.2764  -1.2764  -1.2687  -1.0058  -0.6233  -0.6228  -0.4453
    -0.4453  -0.2409  -0.2309  -0.2308  -0.1201  -0.0534  -0.0531   0.0735
     0.1298   0.1298   0.5011   0.5013   0.5553   0.6089   0.6093   0.6291
     0.6292   0.7338   0.8023   0.8024   0.8194   0.9181   0.9183   1.0080
     1.0429   1.0431   1.0490   2.0465   3.0831   3.1043   3.1043   4.3336
     4.3436   4.3440

          k = 0.0000 0.0341 0.0000 ( 17192 PWs)   bands (ev):

   -49.6503 -49.2235 -49.2205 -49.0690 -49.0587 -49.0534 -48.9738 -48.9527
   -48.9412 -48.9392 -48.9052 -48.8998 -48.8848 -48.8481 -48.8356 -48.8272
   -48.8069 -48.8050 -48.7989 -48.7456 -48.7384 -48.6733 -48.6693 -48.6586
   -48.6494 -48.6303 -48.6197 -48.6064 -48.5952 -48.5399 -48.5207 -48.5195
   -48.5158 -48.5070 -48.5059 -48.4431  -4.8692  -4.2603  -3.5182  -3.5020
    -3.4546  -3.4278  -3.4092  -3.3190  -3.2656  -3.1869  -3.1769  -3.1652
    -3.0039  -2.9498  -2.8827  -2.8573  -2.2254  -2.1908  -2.0464  -1.7628
    -1.7545  -1.7229  -1.6843  -1.6416  -1.5280  -1.4708  -1.3860  -1.3785
    -1.3383  -1.3158  -1.2606  -1.1516  -1.0553  -0.7564  -0.7404  -0.6014
    -0.4824  -0.4010  -0.3274  -0.2654  -0.2571  -0.1876  -0.1395  -0.1267
     0.0640   0.1193   0.3331   0.3900   0.4031   0.4281   0.4376   0.4810
     0.5107   0.5916   0.6277   0.6650   0.6759   0.7200   0.8037   0.8452
     0.8738   0.8923   1.0638   1.8637   2.4962   2.9506   3.1891   3.2017
     4.0105   4.1371

          k = 0.0000 0.0683 0.0000 ( 17196 PWs)   bands (ev):

   -49.6501 -49.2194 -49.2100 -49.0465 -49.0375 -49.0122 -48.9674 -48.9505
   -48.9448 -48.9375 -48.9252 -48.9188 -48.8922 -48.8766 -48.8463 -48.8062
   -48.7871 -48.7837 -48.7695 -48.7425 -48.7242 -48.6933 -48.6833 -48.6812
   -48.6656 -48.6435 -48.6425 -48.6249 -48.6043 -48.5345 -48.5222 -48.5184
   -48.5150 -48.5097 -48.5066 -48.4432  -4.5746  -3.9868  -3.3514  -3.1994
    -3.1385  -3.1099  -3.0890  -2.9654  -2.9633  -2.9325  -2.9112  -2.8898
    -2.7687  -2.7184  -2.4709  -2.4347  -2.2082  -2.1291  -1.9921  -1.9564
    -1.9016  -1.6522  -1.6295  -1.6269  -1.5472  -1.5302  -1.4486  -1.3249
    -1.2311  -1.2285  -1.1350  -1.1265  -1.1149  -1.0898  -0.9871  -0.8008
    -0.7875  -0.6558  -0.5961  -0.5108  -0.4637  -0.4545  -0.4321  -0.3924
    -0.3625  -0.3012  -0.2601  -0.0905   0.0453   0.0753   0.0863   0.1728
     0.2484   0.2713   0.3069   0.3214   0.4099   0.4731   0.6072   0.6260
     0.6971   0.8125   0.8608   1.2485   1.8411   3.1727   3.2921   3.3207
     4.0992   4.2488

          k = 0.0000-0.1024 0.0000 ( 17240 PWs)   bands (ev):

   -49.6500 -49.2173 -49.2046 -49.0318 -49.0232 -48.9654 -48.9591 -48.9530
   -48.9470 -48.9454 -48.9394 -48.9357 -48.9301 -48.8660 -48.8574 -48.7958
   -48.7757 -48.7719 -48.7239 -48.7207 -48.7139 -48.7103 -48.7056 -48.7034
   -48.7007 -48.6685 -48.6364 -48.6273 -48.6109 -48.5303 -48.5244 -48.5178
   -48.5145 -48.5113 -48.5070 -48.4433  -4.4842  -3.5330  -3.4581  -3.0388
    -2.9827  -2.9414  -2.8813  -2.8315  -2.7514  -2.6748  -2.6221  -2.5582
    -2.4930  -2.4010  -2.3633  -2.3228  -2.2766  -1.9918  -1.9869  -1.9268
    -1.8913  -1.8649  -1.8030  -1.6295  -1.5317  -1.4333  -1.3650  -1.3475
    -1.3445  -1.1874  -1.1727  -1.1440  -1.0933  -1.0399  -1.0232  -1.0197
    -0.9771  -0.9560  -0.9488  -0.8949  -0.7896  -0.6523  -0.6084  -0.5162
    -0.4389  -0.4338  -0.3380  -0.3357  -0.2427  -0.2303  -0.2047  -0.1636
    -0.0871   0.0450   0.1603   0.1749   0.2721   0.6030   0.6091   0.6225
     0.6829   0.7285   0.8453   0.8707   2.1287   3.0880   3.3011   3.3293
     4.0475   4.3328

          k = 0.0296-0.0171 0.0000 ( 17192 PWs)   bands (ev):

   -49.6503 -49.2235 -49.2204 -49.0691 -49.0585 -49.0535 -48.9738 -48.9527
   -48.9407 -48.9396 -48.9049 -48.9001 -48.8847 -48.8481 -48.8356 -48.8271
   -48.8071 -48.8048 -48.7988 -48.7455 -48.7386 -48.6733 -48.6693 -48.6588
   -48.6492 -48.6305 -48.6195 -48.6063 -48.5953 -48.5399 -48.5209 -48.5193
   -48.5158 -48.5072 -48.5057 -48.4431  -4.8692  -4.2603  -3.5182  -3.5020
    -3.4546  -3.4279  -3.4092  -3.3191  -3.2656  -3.1869  -3.1769  -3.1651
    -3.0039  -2.9498  -2.8828  -2.8572  -2.2255  -2.1907  -2.0464  -1.7628
    -1.7545  -1.7229  -1.6842  -1.6416  -1.5281  -1.4708  -1.3861  -1.3784
    -1.3384  -1.3158  -1.2606  -1.1516  -1.0553  -0.7566  -0.7403  -0.6013
    -0.4823  -0.4010  -0.3274  -0.2654  -0.2572  -0.1875  -0.1395  -0.1267
     0.0640   0.1194   0.3333   0.3900   0.4031   0.4281   0.4375   0.4810
     0.5106   0.5918   0.6277   0.6651   0.6759   0.7201   0.8037   0.8452
     0.8738   0.8923   1.0638   1.8637   2.4962   2.9506   3.1891   3.2017
     4.0105   4.1370

          k = 0.0296 0.0171 0.0000 ( 17192 PWs)   bands (ev):

   -49.6503 -49.2234 -49.2205 -49.0689 -49.0589 -49.0533 -48.9738 -48.9527
   -48.9414 -48.9389 -48.9054 -48.8996 -48.8848 -48.8480 -48.8357 -48.8272
   -48.8067 -48.8051 -48.7989 -48.7458 -48.7382 -48.6733 -48.6692 -48.6584
   -48.6496 -48.6301 -48.6199 -48.6064 -48.5952 -48.5399 -48.5204 -48.5198
   -48.5158 -48.5067 -48.5062 -48.4431  -4.8692  -4.2603  -3.5181  -3.5021
    -3.4547  -3.4278  -3.4092  -3.3190  -3.2657  -3.1868  -3.1768  -3.1653
    -3.0039  -2.9498  -2.8827  -2.8573  -2.2254  -2.1909  -2.0464  -1.7629
    -1.7545  -1.7229  -1.6843  -1.6416  -1.5280  -1.4708  -1.3860  -1.3785
    -1.3382  -1.3158  -1.2607  -1.1516  -1.0553  -0.7562  -0.7406  -0.6014
    -0.4824  -0.4010  -0.3274  -0.2654  -0.2570  -0.1877  -0.1394  -0.1267
     0.0640   0.1193   0.3331   0.3900   0.4031   0.4281   0.4377   0.4811
     0.5108   0.5915   0.6278   0.6650   0.6759   0.7199   0.8037   0.8453
     0.8738   0.8923   1.0639   1.8637   2.4962   2.9506   3.1892   3.2017
     4.0104   4.1371

          k = 0.0296 0.0512 0.0000 ( 17186 PWs)   bands (ev):

   -49.6502 -49.2196 -49.2135 -49.0539 -49.0370 -49.0306 -48.9693 -48.9506
   -48.9446 -48.9373 -48.9283 -48.8966 -48.8874 -48.8773 -48.8439 -48.8107
   -48.7915 -48.7871 -48.7828 -48.7488 -48.7265 -48.6933 -48.6805 -48.6614
   -48.6527 -48.6506 -48.6303 -48.6262 -48.6028 -48.5361 -48.5211 -48.5192
   -48.5152 -48.5087 -48.5066 -48.4432  -4.6377  -4.0922  -3.3113  -3.2883
    -3.2113  -3.1843  -3.1638  -3.1166  -3.1038  -3.0276  -2.9956  -2.9412
    -2.8420  -2.7212  -2.7068  -2.5239  -2.2157  -2.1192  -2.0161  -1.8956
    -1.8100  -1.6979  -1.6696  -1.6367  -1.6115  -1.5152  -1.3785  -1.3471
    -1.3097  -1.2211  -1.2111  -1.1208  -1.0311  -0.9939  -0.8949  -0.8721
    -0.6945  -0.5869  -0.4695  -0.4437  -0.4054  -0.3625  -0.3265  -0.2327
    -0.1781  -0.1594  -0.1450  -0.0939   0.0313   0.1577   0.2061   0.2229
     0.3237   0.3564   0.4201   0.5019   0.5520   0.5792   0.5916   0.7113
     0.7281   0.7627   1.4179   1.6414   1.6667   2.3952   2.5864   3.3247
     4.3071   4.7148

          k = 0.0296-0.1195 0.0000 ( 17183 PWs)   bands (ev):

   -49.6500 -49.2152 -49.2069 -49.0311 -49.0124 -48.9861 -48.9652 -48.9629
   -48.9497 -48.9428 -48.9356 -48.9266 -48.9052 -48.8770 -48.8584 -48.7905
   -48.7726 -48.7643 -48.7481 -48.7397 -48.7234 -48.7091 -48.7033 -48.6906
   -48.6767 -48.6576 -48.6412 -48.6332 -48.6147 -48.5307 -48.5235 -48.5185
   -48.5144 -48.5113 -48.5069 -48.4433  -4.4869  -3.6198  -3.2347  -2.9844
    -2.9735  -2.9000  -2.8795  -2.8532  -2.7333  -2.7053  -2.6729  -2.6178
    -2.4924  -2.4395  -2.3913  -2.2908  -2.1768  -2.0875  -2.0707  -1.9826
    -1.9142  -1.7839  -1.7515  -1.6907  -1.6050  -1.5075  -1.4703  -1.4287
    -1.3941  -1.3379  -1.2916  -1.2486  -1.2093  -1.1027  -1.0264  -0.9804
    -0.9600  -0.8826  -0.8309  -0.7961  -0.7747  -0.6834  -0.5265  -0.4761
    -0.4151  -0.3891  -0.3637  -0.2939  -0.1909  -0.1366  -0.0629   0.0397
     0.0923   0.1834   0.2807   0.3634   0.5031   0.5244   0.5568   0.5982
     0.6275   0.7128   0.7359   1.1386   1.7507   2.0498   2.6470   3.3775
     4.3454   4.8737

          k = 0.0296-0.0853 0.0000 ( 17183 PWs)   bands (ev):

   -49.6500 -49.2152 -49.2068 -49.0312 -49.0123 -48.9861 -48.9649 -48.9629
   -48.9499 -48.9428 -48.9357 -48.9267 -48.9052 -48.8770 -48.8583 -48.7905
   -48.7725 -48.7642 -48.7479 -48.7392 -48.7239 -48.7101 -48.7035 -48.6902
   -48.6763 -48.6576 -48.6412 -48.6331 -48.6148 -48.5306 -48.5237 -48.5183
   -48.5143 -48.5115 -48.5068 -48.4433  -4.4870  -3.6198  -3.2347  -2.9845
    -2.9734  -2.9000  -2.8796  -2.8532  -2.7334  -2.7053  -2.6728  -2.6179
    -2.4924  -2.4395  -2.3913  -2.2908  -2.1768  -2.0875  -2.0708  -1.9827
    -1.9142  -1.7841  -1.7515  -1.6907  -1.6049  -1.5073  -1.4704  -1.4287
    -1.3942  -1.3378  -1.2915  -1.2485  -1.2093  -1.1025  -1.0264  -0.9805
    -0.9600  -0.8827  -0.8309  -0.7960  -0.7748  -0.6835  -0.5263  -0.4763
    -0.4153  -0.3889  -0.3636  -0.2941  -0.1908  -0.1366  -0.0628   0.0397
     0.0922   0.1834   0.2809   0.3633   0.5031   0.5243   0.5568   0.5981
     0.6275   0.7129   0.7359   1.1387   1.7507   2.0498   2.6471   3.3775
     4.3454   4.8737

          k = 0.0296-0.0512 0.0000 ( 17186 PWs)   bands (ev):

   -49.6502 -49.2197 -49.2134 -49.0541 -49.0365 -49.0309 -48.9692 -48.9508
   -48.9439 -48.9379 -48.9280 -48.8969 -48.8874 -48.8773 -48.8438 -48.8105
   -48.7914 -48.7872 -48.7827 -48.7483 -48.7270 -48.6934 -48.6808 -48.6615
   -48.6524 -48.6507 -48.6303 -48.6258 -48.6029 -48.5360 -48.5216 -48.5187
   -48.5152 -48.5092 -48.5062 -48.4432  -4.6377  -4.0922  -3.3114  -3.2882
    -3.2114  -3.1843  -3.1638  -3.1166  -3.1038  -3.0276  -2.9955  -2.9412
    -2.8421  -2.7211  -2.7069  -2.5239  -2.2157  -2.1191  -2.0161  -1.8957
    -1.8099  -1.6978  -1.6695  -1.6368  -1.6115  -1.5152  -1.3785  -1.3472
    -1.3096  -1.2210  -1.2111  -1.1208  -1.0315  -0.9937  -0.8949  -0.8719
    -0.6945  -0.5869  -0.4696  -0.4437  -0.4056  -0.3624  -0.3264  -0.2328
    -0.1781  -0.1595  -0.1448  -0.0939   0.0313   0.1577   0.2061   0.2229
     0.3236   0.3563   0.4200   0.5019   0.5521   0.5793   0.5916   0.7112
     0.7282   0.7627   1.4178   1.6414   1.6668   2.3952   2.5864   3.3247
     4.3071   4.7148

          k = 0.0591-0.0341 0.0000 ( 17196 PWs)   bands (ev):

   -49.6501 -49.2194 -49.2100 -49.0468 -49.0372 -49.0122 -48.9673 -48.9507
   -48.9443 -48.9379 -48.9248 -48.9191 -48.8923 -48.8768 -48.8462 -48.8059
   -48.7873 -48.7835 -48.7695 -48.7425 -48.7243 -48.6932 -48.6835 -48.6815
   -48.6659 -48.6434 -48.6423 -48.6246 -48.6044 -48.5344 -48.5225 -48.5181
   -48.5149 -48.5100 -48.5064 -48.4432  -4.5746  -3.9868  -3.3514  -3.1995
    -3.1385  -3.1099  -3.0890  -2.9654  -2.9633  -2.9326  -2.9111  -2.8896
    -2.7688  -2.7184  -2.4710  -2.4346  -2.2083  -2.1290  -1.9921  -1.9564
    -1.9017  -1.6522  -1.6295  -1.6270  -1.5472  -1.5302  -1.4486  -1.3248
    -1.2312  -1.2285  -1.1348  -1.1266  -1.1150  -1.0898  -0.9870  -0.8008
    -0.7875  -0.6558  -0.5961  -0.5109  -0.4637  -0.4545  -0.4321  -0.3925
    -0.3625  -0.3012  -0.2601  -0.0905   0.0453   0.0753   0.0863   0.1729
     0.2483   0.2713   0.3069   0.3214   0.4099   0.4729   0.6074   0.6258
     0.6973   0.8126   0.8607   1.2484   1.8411   3.1727   3.2920   3.3208
     4.0992   4.2487

          k = 0.0591-0.0000 0.0000 ( 17186 PWs)   bands (ev):

   -49.6502 -49.2197 -49.2135 -49.0540 -49.0367 -49.0308 -48.9693 -48.9507
   -48.9442 -48.9376 -48.9281 -48.8968 -48.8874 -48.8773 -48.8439 -48.8106
   -48.7914 -48.7872 -48.7827 -48.7485 -48.7268 -48.6934 -48.6807 -48.6614
   -48.6525 -48.6507 -48.6303 -48.6260 -48.6028 -48.5361 -48.5214 -48.5189
   -48.5152 -48.5090 -48.5064 -48.4432  -4.6377  -4.0922  -3.3114  -3.2882
    -3.2113  -3.1843  -3.1638  -3.1166  -3.1038  -3.0276  -2.9956  -2.9412
    -2.8421  -2.7211  -2.7068  -2.5239  -2.2157  -2.1191  -2.0161  -1.8957
    -1.8100  -1.6978  -1.6696  -1.6368  -1.6115  -1.5152  -1.3785  -1.3472
    -1.3097  -1.2211  -1.2111  -1.1208  -1.0313  -0.9938  -0.8949  -0.8720
    -0.6945  -0.5869  -0.4695  -0.4437  -0.4055  -0.3624  -0.3265  -0.2327
    -0.1781  -0.1594  -0.1449  -0.0939   0.0313   0.1577   0.2061   0.2229
     0.3237   0.3563   0.4201   0.5019   0.5521   0.5793   0.5916   0.7113
     0.7281   0.7627   1.4179   1.6414   1.6668   2.3952   2.5864   3.3247
     4.3071   4.7148

          k = 0.0591 0.0341 0.0000 ( 17196 PWs)   bands (ev):

   -49.6501 -49.2193 -49.2101 -49.0463 -49.0377 -49.0122 -48.9674 -48.9503
   -48.9452 -48.9372 -48.9255 -48.9185 -48.8922 -48.8766 -48.8464 -48.8063
   -48.7869 -48.7839 -48.7696 -48.7425 -48.7241 -48.6934 -48.6832 -48.6810
   -48.6654 -48.6435 -48.6426 -48.6252 -48.6042 -48.5346 -48.5218 -48.5187
   -48.5150 -48.5093 -48.5069 -48.4432  -4.5746  -3.9868  -3.3514  -3.1993
    -3.1386  -3.1099  -3.0890  -2.9654  -2.9633  -2.9324  -2.9112  -2.8899
    -2.7687  -2.7184  -2.4708  -2.4348  -2.2081  -2.1292  -1.9920  -1.9564
    -1.9016  -1.6523  -1.6294  -1.6269  -1.5472  -1.5302  -1.4486  -1.3250
    -1.2310  -1.2285  -1.1351  -1.1264  -1.1149  -1.0898  -0.9871  -0.8008
    -0.7875  -0.6559  -0.5960  -0.5108  -0.4637  -0.4546  -0.4321  -0.3923
    -0.3625  -0.3012  -0.2601  -0.0905   0.0453   0.0754   0.0863   0.1728
     0.2485   0.2713   0.3069   0.3215   0.4100   0.4732   0.6070   0.6261
     0.6969   0.8124   0.8609   1.2486   1.8411   3.1728   3.2921   3.3207
     4.0992   4.2488

          k = 0.0591-0.1365 0.0000 ( 17183 PWs)   bands (ev):

   -49.6500 -49.2152 -49.2069 -49.0310 -49.0125 -48.9862 -48.9652 -48.9630
   -48.9495 -48.9432 -48.9355 -48.9266 -48.9051 -48.8769 -48.8585 -48.7907
   -48.7727 -48.7642 -48.7480 -48.7396 -48.7235 -48.7094 -48.7030 -48.6905
   -48.6765 -48.6576 -48.6413 -48.6334 -48.6146 -48.5308 -48.5232 -48.5187
   -48.5144 -48.5111 -48.5070 -48.4433  -4.4869  -3.6198  -3.2347  -2.9844
    -2.9734  -2.9000  -2.8795  -2.8533  -2.7333  -2.7054  -2.6729  -2.6178
    -2.4923  -2.4395  -2.3913  -2.2908  -2.1768  -2.0875  -2.0707  -1.9826
    -1.9143  -1.7840  -1.7515  -1.6907  -1.6050  -1.5075  -1.4704  -1.4287
    -1.3941  -1.3379  -1.2916  -1.2485  -1.2094  -1.1026  -1.0265  -0.9804
    -0.9599  -0.8826  -0.8310  -0.7960  -0.7748  -0.6835  -0.5265  -0.4761
    -0.4151  -0.3891  -0.3637  -0.2938  -0.1909  -0.1366  -0.0629   0.0397
     0.0923   0.1835   0.2808   0.3634   0.5032   0.5243   0.5567   0.5983
     0.6274   0.7128   0.7360   1.1387   1.7507   2.0498   2.6470   3.3775
     4.3454   4.8737

          k = 0.0591-0.1024 0.0000 ( 17208 PWs)   bands (ev):

   -49.6500 -49.2093 -49.2092 -49.0029 -49.0025 -48.9763 -48.9756 -48.9633
   -48.9608 -48.9478 -48.9448 -48.9346 -48.8894 -48.8772 -48.8766 -48.7651
   -48.7621 -48.7507 -48.7404 -48.7402 -48.7398 -48.7225 -48.7216 -48.6841
   -48.6828 -48.6540 -48.6431 -48.6329 -48.6324 -48.5269 -48.5257 -48.5189
   -48.5135 -48.5128 -48.5070 -48.4433  -4.4582  -3.1606  -3.1393  -3.0857
    -2.7021  -2.6957  -2.6468  -2.6459  -2.6189  -2.6010  -2.5130  -2.4865
    -2.4639  -2.4493  -2.4456  -2.2769  -2.1101  -2.0033  -1.9645  -1.9277
    -1.9008  -1.8515  -1.8057  -1.8018  -1.7377  -1.6854  -1.6443  -1.5606
    -1.5593  -1.5055  -1.4885  -1.3500  -1.3404  -1.2118  -1.2045  -1.1724
    -1.0495  -1.0250  -1.0244  -1.0216  -0.8884  -0.6093  -0.5259  -0.3862
    -0.3801  -0.3289  -0.3101  -0.2555  -0.0808  -0.0624  -0.0438   0.0911
     0.2645   0.2863   0.3527   0.4161   0.4836   0.4996   0.5228   0.5695
     0.6319   0.6340   0.6448   0.8561   1.3033   1.3141   2.5285   3.6643
     3.6697   5.1831

          k = 0.0591-0.0683 0.0000 ( 17183 PWs)   bands (ev):

   -49.6500 -49.2153 -49.2068 -49.0313 -49.0122 -48.9860 -48.9649 -48.9629
   -48.9501 -48.9424 -48.9360 -48.9267 -48.9052 -48.8772 -48.8582 -48.7903
   -48.7724 -48.7643 -48.7480 -48.7394 -48.7237 -48.7097 -48.7040 -48.6904
   -48.6766 -48.6575 -48.6411 -48.6329 -48.6149 -48.5305 -48.5240 -48.5181
   -48.5142 -48.5117 -48.5067 -48.4433  -4.4870  -3.6198  -3.2348  -2.9845
    -2.9735  -2.9000  -2.8795  -2.8531  -2.7334  -2.7052  -2.6728  -2.6179
    -2.4924  -2.4394  -2.3913  -2.2907  -2.1768  -2.0875  -2.0708  -1.9827
    -1.9142  -1.7840  -1.7515  -1.6907  -1.6049  -1.5073  -1.4703  -1.4287
    -1.3942  -1.3379  -1.2915  -1.2485  -1.2093  -1.1025  -1.0264  -0.9805
    -0.9601  -0.8827  -0.8309  -0.7962  -0.7748  -0.6834  -0.5264  -0.4763
    -0.4153  -0.3890  -0.3637  -0.2941  -0.1908  -0.1366  -0.0627   0.0397
     0.0923   0.1833   0.2808   0.3633   0.5030   0.5244   0.5569   0.5980
     0.6277   0.7129   0.7358   1.1386   1.7507   2.0498   2.6470   3.3775
     4.3454   4.8737

          k =-0.0887 0.0512 0.0000 ( 17240 PWs)   bands (ev):

   -49.6500 -49.2173 -49.2046 -49.0322 -49.0228 -48.9649 -48.9588 -48.9533
   -48.9472 -48.9453 -48.9398 -48.9351 -48.9306 -48.8664 -48.8569 -48.7955
   -48.7754 -48.7723 -48.7236 -48.7206 -48.7142 -48.7101 -48.7055 -48.7040
   -48.7011 -48.6685 -48.6361 -48.6269 -48.6111 -48.5300 -48.5250 -48.5175
   -48.5143 -48.5118 -48.5067 -48.4433  -4.4842  -3.5329  -3.4582  -3.0389
    -2.9825  -2.9413  -2.8815  -2.8316  -2.7512  -2.6747  -2.6222  -2.5580
    -2.4931  -2.4009  -2.3633  -2.3230  -2.2765  -1.9918  -1.9871  -1.9269
    -1.8911  -1.8650  -1.8029  -1.6295  -1.5315  -1.4334  -1.3649  -1.3474
    -1.3445  -1.1874  -1.1726  -1.1440  -1.0935  -1.0397  -1.0234  -1.0197
    -0.9772  -0.9559  -0.9488  -0.8950  -0.7896  -0.6523  -0.6084  -0.5162
    -0.4387  -0.4341  -0.3382  -0.3359  -0.2427  -0.2303  -0.2047  -0.1635
    -0.0869   0.0450   0.1603   0.1749   0.2722   0.6032   0.6089   0.6223
     0.6832   0.7285   0.8454   0.8706   2.1287   3.0880   3.3011   3.3293
     4.0474   4.3329

          k =-0.0887 0.0853 0.0000 ( 17183 PWs)   bands (ev):

   -49.6500 -49.2153 -49.2068 -49.0313 -49.0122 -48.9860 -48.9650 -48.9629
   -48.9500 -48.9424 -48.9359 -48.9267 -48.9052 -48.8772 -48.8582 -48.7903
   -48.7724 -48.7643 -48.7481 -48.7396 -48.7235 -48.7093 -48.7038 -48.6906
   -48.6768 -48.6575 -48.6411 -48.6329 -48.6149 -48.5305 -48.5239 -48.5182
   -48.5143 -48.5116 -48.5068 -48.4433  -4.4870  -3.6198  -3.2347  -2.9845
    -2.9735  -2.9001  -2.8795  -2.8532  -2.7334  -2.7052  -2.6729  -2.6179
    -2.4924  -2.4394  -2.3913  -2.2907  -2.1768  -2.0875  -2.0708  -1.9826
    -1.9142  -1.7840  -1.7515  -1.6907  -1.6049  -1.5074  -1.4703  -1.4287
    -1.3941  -1.3379  -1.2915  -1.2486  -1.2093  -1.1026  -1.0264  -0.9805
    -0.9600  -0.8826  -0.8309  -0.7962  -0.7747  -0.6834  -0.5264  -0.4762
    -0.4152  -0.3890  -0.3637  -0.2941  -0.1908  -0.1366  -0.0628   0.0398
     0.0923   0.1833   0.2807   0.3634   0.5030   0.5245   0.5569   0.5980
     0.6277   0.7129   0.7358   1.1386   1.7507   2.0498   2.6470   3.3775
     4.3454   4.8737

          k =-0.0887 0.1195 0.0000 ( 17183 PWs)   bands (ev):

   -49.6500 -49.2152 -49.2069 -49.0310 -49.0125 -48.9862 -48.9650 -48.9629
   -48.9496 -48.9431 -48.9355 -48.9267 -48.9051 -48.8769 -48.8584 -48.7907
   -48.7726 -48.7642 -48.7480 -48.7393 -48.7238 -48.7100 -48.7031 -48.6903
   -48.6763 -48.6576 -48.6414 -48.6334 -48.6146 -48.5307 -48.5233 -48.5186
   -48.5144 -48.5112 -48.5070 -48.4433  -4.4869  -3.6198  -3.2347  -2.9844
    -2.9734  -2.9000  -2.8796  -2.8533  -2.7333  -2.7054  -2.6729  -2.6178
    -2.4923  -2.4395  -2.3913  -2.2908  -2.1768  -2.0874  -2.0707  -1.9826
    -1.9142  -1.7840  -1.7515  -1.6907  -1.6049  -1.5074  -1.4704  -1.4287
    -1.3942  -1.3378  -1.2916  -1.2485  -1.2093  -1.1025  -1.0265  -0.9804
    -0.9600  -0.8826  -0.8310  -0.7959  -0.7748  -0.6835  -0.5264  -0.4762
    -0.4152  -0.3890  -0.3636  -0.2939  -0.1909  -0.1366  -0.0629   0.0397
     0.0922   0.1834   0.2809   0.3634   0.5032   0.5243   0.5568   0.5982
     0.6274   0.7128   0.7360   1.1387   1.7507   2.0497   2.6471   3.3775
     4.3454   4.8737

          k =-0.0887-0.0512 0.0000 ( 17240 PWs)   bands (ev):

   -49.6500 -49.2173 -49.2047 -49.0314 -49.0235 -48.9657 -48.9594 -48.9526
   -48.9469 -48.9454 -48.9391 -48.9361 -48.9298 -48.8656 -48.8577 -48.7960
   -48.7760 -48.7716 -48.7241 -48.7208 -48.7137 -48.7105 -48.7057 -48.7029
   -48.7003 -48.6685 -48.6366 -48.6275 -48.6107 -48.5306 -48.5240 -48.5181
   -48.5146 -48.5108 -48.5072 -48.4433  -4.4842  -3.5331  -3.4581  -3.0386
    -2.9828  -2.9414  -2.8812  -2.8314  -2.7516  -2.6748  -2.6220  -2.5584
    -2.4928  -2.4010  -2.3633  -2.3227  -2.2767  -1.9917  -1.9867  -1.9267
    -1.8915  -1.8649  -1.8031  -1.6294  -1.5318  -1.4333  -1.3651  -1.3475
    -1.3445  -1.1874  -1.1727  -1.1440  -1.0931  -1.0401  -1.0230  -1.0197
    -0.9770  -0.9562  -0.9488  -0.8948  -0.7896  -0.6523  -0.6083  -0.5163
    -0.4391  -0.4336  -0.3378  -0.3356  -0.2428  -0.2303  -0.2047  -0.1636
    -0.0872   0.0450   0.1603   0.1750   0.2721   0.6029   0.6093   0.6227
     0.6827   0.7284   0.8453   0.8708   2.1287   3.0880   3.3011   3.3293
     4.0476   4.3328

     the Fermi energy is     0.8188 ev

!    total energy              =   -2398.57342478 Ry
     Harris-Foulkes estimate   =   -2398.57342575 Ry
     estimated scf accuracy    <       0.00000593 Ry

     The total energy is the sum of the following terms:

     one-electron contribution =  -20197.42506385 Ry
     hartree contribution      =   10147.38311787 Ry
     xc contribution           =    -390.88851486 Ry
     ewald contribution        =    8042.47158105 Ry
     electric field correction =       0.00000859 Ry
     smearing contrib. (-TS)   =      -0.11455357 Ry

     convergence has been achieved in  16 iterations
 
 BEEF-vdW xc energy contributions
           1 :   -340.347701305159     
           2 :    310.984858184660     
           3 :   -260.906555480012     
           4 :    203.610833713782     
           5 :   -152.159791583886     
           6 :    114.853660041917     
           7 :   -93.4359283783013     
           8 :    84.1193351225660     
           9 :   -80.5452166129951     
          10 :    77.0821477893031     
          11 :   -70.9772040397496     
          12 :    62.6366039844104     
          13 :   -54.3301836366238     
          14 :    48.3115156658192     
          15 :   -45.4421447526426     
          16 :    44.9170884651123     
          17 :   -44.9967801883938     
          18 :    44.1307855991533     
          19 :   -41.7675446060739     
          20 :    38.4481209598650     
          21 :   -35.2640983203202     
          22 :    33.0997984571788     
          23 :   -32.1311296833399     
          24 :    31.8264542361978     
          25 :   -31.3729845798861     
          26 :    30.2131150279583     
          27 :   -28.3535264037765     
          28 :    26.2853256992435     
          29 :   -24.6111527566838     
          30 :    23.6429537251554     
          31 :   -33.1262490048023     
          32 :   -24.4569204615980     

     Forces acting on atoms (Ry/au):


     negative rho (up, down):  9.416E-01 0.000E+00
     atom    1 type  1   force =    -0.00006507   -0.00008559    0.00000262
     atom    2 type  1   force =     0.00007367   -0.00001733   -0.00013295
     atom    3 type  1   force =     0.00006577    0.00008381   -0.00004531
     atom    4 type  1   force =    -0.00007088    0.00000982   -0.00553597
     atom    5 type  1   force =    -0.00000754    0.00057989   -0.00137889
     atom    6 type  1   force =     0.00001009   -0.00000030   -0.00149667
     atom    7 type  1   force =    -0.00052359   -0.00029657   -0.00141069
     atom    8 type  1   force =     0.00053376   -0.00030446   -0.00140786
     atom    9 type  1   force =     0.00005826   -0.00000366   -0.06670264
     atom   10 type  1   force =    -0.00007870   -0.00099220    0.00058920
     atom   11 type  1   force =    -0.00085695    0.00047418    0.00066494
     atom   12 type  1   force =     0.00085826    0.00055077    0.00053833
     atom   13 type  2   force =     0.00000292    0.00000164    0.07631589

     Total force =     0.101378     Total SCF correction =     0.004238


     entering subroutine stress ...


     negative rho (up, down):  9.416E-01 0.000E+00
          total   stress  (Ry/bohr**3)                   (kbar)     P=   -6.17
  -0.00008764  -0.00000001   0.00000001        -12.89     -0.00      0.00
  -0.00000001  -0.00008768   0.00000001         -0.00    -12.90      0.00
   0.00000001   0.00000001   0.00004953          0.00      0.00      7.29


     BFGS Geometry Optimization

     number of scf cycles    =   1
     number of bfgs steps    =   0

     energy   new            =   -2398.5734247770 Ry

     new trust radius        =       0.0763158949 bohr
     new conv_thr            =       0.0000099958 Ry


ATOMIC_POSITIONS (crystal)
Pd1      0.166666667   0.166666667   0.406452311    0   0   0
Pd1      0.666666667   0.166666667   0.406452311    0   0   0
Pd1      0.166666667   0.666666667   0.406452311    0   0   0
Pd1      0.666666667   0.666666667   0.406452311    0   0   0
Pd1      0.833333333   0.333333333   0.500000000    0   0   0
Pd1      0.333333333   0.333333333   0.500000000    0   0   0
Pd1      0.833333333   0.833333333   0.500000000    0   0   0
Pd1      0.333333333   0.833333333   0.500000000    0   0   0
Pd1      0.000005667  -0.000000397   0.592113013
Pd1      0.500046383  -0.000107540   0.593560362
Pd1     -0.000106135   0.500051394   0.593561991
Pd1      0.500050712   0.500059696   0.593559268
H1       0.000000186   0.000000177   0.653921491



     Writing output data file calc.save
     Check: negative starting charge=   -0.904081
     NEW-OLD atomic charge density approx. for the potential
     Check: negative starting charge=   -0.906868

     negative rho (up, down):  9.447E-01 0.000E+00
 
     Adding external electric field

     Computed dipole along edir(3) : 
        Dipole               -0.0883 Ry au,         -0.2245 Debye
        Dipole field         -0.0002 Ry au
 
        Potential amp.        0.0220 Ry
        Total length         45.3309 bohr
 

     total cpu time spent up to now is      408.8 secs

     per-process dynamical memory:   145.0 Mb

     Self-consistent Calculation

     iteration #  1     ecut=    36.75 Ry     beta=0.30
     Davidson diagonalization with overlap
     ethr =  1.00E-06,  avg # of iterations =  4.1

     negative rho (up, down):  9.447E-01 0.000E+00
 
     Adding external electric field

     Computed dipole along edir(3) : 
        Dipole                0.7021 Ry au,          1.7845 Debye
        Dipole field          0.0019 Ry au
 
        Potential amp.       -0.1750 Ry
        Total length         45.3309 bohr
 

     total cpu time spent up to now is      436.5 secs

     total energy              =   -2398.53564226 Ry
     Harris-Foulkes estimate   =   -2398.57907368 Ry
     estimated scf accuracy    <       0.08887228 Ry

     iteration #  2     ecut=    36.75 Ry     beta=0.30
     Davidson diagonalization with overlap
     ethr =  4.60E-05,  avg # of iterations =  4.5

     negative rho (up, down):  9.447E-01 0.000E+00
 
     Adding external electric field

     Computed dipole along edir(3) : 
        Dipole               -0.0285 Ry au,         -0.0726 Debye
        Dipole field         -0.0001 Ry au
 
        Potential amp.        0.0071 Ry
        Total length         45.3309 bohr
 

     total cpu time spent up to now is      458.7 secs

     total energy              =   -2398.25501176 Ry
     Harris-Foulkes estimate   =   -2399.01198349 Ry
     estimated scf accuracy    <      22.17449936 Ry

     iteration #  3     ecut=    36.75 Ry     beta=0.30
     Davidson diagonalization with overlap
     ethr =  4.60E-05,  avg # of iterations =  4.2

     negative rho (up, down):  9.448E-01 0.000E+00
 
     Adding external electric field

     Computed dipole along edir(3) : 
        Dipole               -0.0469 Ry au,         -0.1192 Debye
        Dipole field         -0.0001 Ry au
 
        Potential amp.        0.0117 Ry
        Total length         45.3309 bohr
 

     total cpu time spent up to now is      480.2 secs

     total energy              =   -2398.57227830 Ry
     Harris-Foulkes estimate   =   -2398.58824064 Ry
     estimated scf accuracy    <       0.23179813 Ry

     iteration #  4     ecut=    36.75 Ry     beta=0.30
     Davidson diagonalization with overlap
     ethr =  4.60E-05,  avg # of iterations =  1.2

     negative rho (up, down):  9.448E-01 0.000E+00
 
     Adding external electric field

     Computed dipole along edir(3) : 
        Dipole               -0.0461 Ry au,         -0.1171 Debye
        Dipole field         -0.0001 Ry au
 
        Potential amp.        0.0115 Ry
        Total length         45.3309 bohr
 

     total cpu time spent up to now is      497.8 secs

     total energy              =   -2398.57909070 Ry
     Harris-Foulkes estimate   =   -2398.57936353 Ry
     estimated scf accuracy    <       0.01033584 Ry

     iteration #  5     ecut=    36.75 Ry     beta=0.30
     Davidson diagonalization with overlap
     ethr =  5.36E-06,  avg # of iterations =  1.8

     negative rho (up, down):  9.448E-01 0.000E+00
 
     Adding external electric field

     Computed dipole along edir(3) : 
        Dipole               -0.0480 Ry au,         -0.1221 Debye
        Dipole field         -0.0001 Ry au
 
        Potential amp.        0.0120 Ry
        Total length         45.3309 bohr
 

     total cpu time spent up to now is      515.8 secs

     total energy              =   -2398.57916657 Ry
     Harris-Foulkes estimate   =   -2398.57924781 Ry
     estimated scf accuracy    <       0.00144545 Ry

     iteration #  6     ecut=    36.75 Ry     beta=0.30
     Davidson diagonalization with overlap
     ethr =  7.49E-07,  avg # of iterations =  2.0

     negative rho (up, down):  9.448E-01 0.000E+00
 
     Adding external electric field

     Computed dipole along edir(3) : 
        Dipole               -0.0502 Ry au,         -0.1275 Debye
        Dipole field         -0.0001 Ry au
 
        Potential amp.        0.0125 Ry
        Total length         45.3309 bohr
 

     total cpu time spent up to now is      534.5 secs

     total energy              =   -2398.57923320 Ry
     Harris-Foulkes estimate   =   -2398.57925783 Ry
     estimated scf accuracy    <       0.00054836 Ry

     iteration #  7     ecut=    36.75 Ry     beta=0.30
     Davidson diagonalization with overlap
     ethr =  2.84E-07,  avg # of iterations =  1.1

     negative rho (up, down):  9.447E-01 0.000E+00
 
     Adding external electric field

     Computed dipole along edir(3) : 
        Dipole               -0.0511 Ry au,         -0.1298 Debye
        Dipole field         -0.0001 Ry au
 
        Potential amp.        0.0127 Ry
        Total length         45.3309 bohr
 

     total cpu time spent up to now is      552.2 secs

     total energy              =   -2398.57925879 Ry
     Harris-Foulkes estimate   =   -2398.57926064 Ry
     estimated scf accuracy    <       0.00043635 Ry

     iteration #  8     ecut=    36.75 Ry     beta=0.30
     Davidson diagonalization with overlap
     ethr =  2.26E-07,  avg # of iterations =  1.0

     negative rho (up, down):  9.447E-01 0.000E+00
 
     Adding external electric field

     Computed dipole along edir(3) : 
        Dipole               -0.0505 Ry au,         -0.1284 Debye
        Dipole field         -0.0001 Ry au
 
        Potential amp.        0.0126 Ry
        Total length         45.3309 bohr
 

     total cpu time spent up to now is      569.9 secs

     total energy              =   -2398.57925016 Ry
     Harris-Foulkes estimate   =   -2398.57927063 Ry
     estimated scf accuracy    <       0.00064822 Ry

     iteration #  9     ecut=    36.75 Ry     beta=0.30
     Davidson diagonalization with overlap
     ethr =  2.26E-07,  avg # of iterations =  1.0

     negative rho (up, down):  9.447E-01 0.000E+00
 
     Adding external electric field

     Computed dipole along edir(3) : 
        Dipole               -0.0504 Ry au,         -0.1282 Debye
        Dipole field         -0.0001 Ry au
 
        Potential amp.        0.0126 Ry
        Total length         45.3309 bohr
 

     total cpu time spent up to now is      587.5 secs

     total energy              =   -2398.57925763 Ry
     Harris-Foulkes estimate   =   -2398.57926030 Ry
     estimated scf accuracy    <       0.00004792 Ry

     iteration # 10     ecut=    36.75 Ry     beta=0.30
     Davidson diagonalization with overlap
     ethr =  2.48E-08,  avg # of iterations =  1.0

     negative rho (up, down):  9.447E-01 0.000E+00

     negative rho (up, down):  9.447E-01 0.000E+00

     negative rho (up, down):  9.447E-01 0.000E+00

     negative rho (up, down):  9.447E-01 0.000E+00

     negative rho (up, down):  9.447E-01 0.000E+00

     negative rho (up, down):  9.447E-01 0.000E+00

     negative rho (up, down):  9.447E-01 0.000E+00

     negative rho (up, down):  9.447E-01 0.000E+00

     negative rho (up, down):  9.447E-01 0.000E+00

     negative rho (up, down):  9.447E-01 0.000E+00

     negative rho (up, down):  9.447E-01 0.000E+00

     negative rho (up, down):  9.447E-01 0.000E+00

     negative rho (up, down):  9.447E-01 0.000E+00

     negative rho (up, down):  9.447E-01 0.000E+00

     negative rho (up, down):  9.447E-01 0.000E+00

     negative rho (up, down):  9.447E-01 0.000E+00

     negative rho (up, down):  9.447E-01 0.000E+00

     negative rho (up, down):  9.447E-01 0.000E+00

     negative rho (up, down):  9.447E-01 0.000E+00

     negative rho (up, down):  9.447E-01 0.000E+00

     negative rho (up, down):  9.447E-01 0.000E+00

     negative rho (up, down):  9.447E-01 0.000E+00

     negative rho (up, down):  9.447E-01 0.000E+00

     negative rho (up, down):  9.447E-01 0.000E+00

     negative rho (up, down):  9.447E-01 0.000E+00

     negative rho (up, down):  9.447E-01 0.000E+00

     negative rho (up, down):  9.447E-01 0.000E+00

     negative rho (up, down):  9.447E-01 0.000E+00

     negative rho (up, down):  9.447E-01 0.000E+00

     negative rho (up, down):  9.447E-01 0.000E+00

     negative rho (up, down):  9.447E-01 0.000E+00

     negative rho (up, down):  9.447E-01 0.000E+00

     negative rho (up, down):  9.447E-01 0.000E+00

     negative rho (up, down):  9.447E-01 0.000E+00

     negative rho (up, down):  9.447E-01 0.000E+00
 
     Adding external electric field

     Computed dipole along edir(3) : 
        Dipole               -0.0392 Ry au,         -0.0998 Debye
        Dipole field         -0.0001 Ry au
 
        Potential amp.        0.0098 Ry
        Total length         45.3309 bohr
 

     total cpu time spent up to now is      652.9 secs

     End of self-consistent calculation

          k = 0.0000 0.0000 0.0000 ( 17231 PWs)   bands (ev):

   -49.5635 -49.2223 -49.2223 -49.0968 -49.0810 -49.0810 -48.9923 -48.9691
   -48.9593 -48.9591 -48.9131 -48.9130 -48.8992 -48.8467 -48.8467 -48.8460
   -48.8256 -48.8254 -48.8151 -48.7497 -48.7496 -48.6768 -48.6706 -48.6600
   -48.6598 -48.6229 -48.6228 -48.6019 -48.6018 -48.5485 -48.5257 -48.5255
   -48.5244 -48.5147 -48.5145 -48.4558  -5.0063  -4.0969  -3.7111  -3.6091
    -3.6090  -3.5964  -3.5518  -3.4041  -3.4041  -3.2733  -3.2733  -3.2667
    -3.0502  -3.0483  -3.0482  -3.0127  -2.2316  -2.2316  -2.0812  -1.8198
    -1.8198  -1.7688  -1.6093  -1.6093  -1.5912  -1.4569  -1.4569  -1.3410
    -1.3409  -1.2845  -1.2845  -1.2830  -1.0114  -0.6311  -0.6311  -0.4309
    -0.4308  -0.2484  -0.2409  -0.2408  -0.1419  -0.0605  -0.0604   0.0523
     0.1253   0.1254   0.4989   0.4989   0.5425   0.6040   0.6041   0.6204
     0.6204   0.7313   0.7887   0.7888   0.8044   0.9119   0.9120   0.9998
     1.0332   1.0333   1.0401   2.0133   3.0766   3.0975   3.0975   4.2647
     4.3416   4.3416

          k = 0.0000 0.0341 0.0000 ( 17192 PWs)   bands (ev):

   -49.5633 -49.2202 -49.2172 -49.0864 -49.0723 -49.0672 -48.9898 -48.9677
   -48.9598 -48.9581 -48.9219 -48.9165 -48.9011 -48.8631 -48.8507 -48.8356
   -48.8177 -48.8153 -48.8071 -48.7519 -48.7445 -48.6827 -48.6755 -48.6684
   -48.6592 -48.6362 -48.6256 -48.6167 -48.6055 -48.5462 -48.5260 -48.5249
   -48.5240 -48.5160 -48.5151 -48.4558  -4.8210  -4.0497  -3.5350  -3.5148
    -3.4731  -3.4411  -3.4181  -3.3318  -3.2796  -3.1957  -3.1904  -3.1685
    -2.9756  -2.9560  -2.8903  -2.8654  -2.2189  -2.1838  -2.0543  -1.7681
    -1.7556  -1.7346  -1.6958  -1.6567  -1.5395  -1.4891  -1.4029  -1.3961
    -1.3498  -1.3230  -1.2753  -1.1594  -1.0634  -0.7634  -0.7496  -0.5889
    -0.4733  -0.4189  -0.3343  -0.2722  -0.2679  -0.1945  -0.1479  -0.1339
     0.0513   0.1173   0.3379   0.3802   0.3924   0.4235   0.4275   0.4719
     0.5047   0.5844   0.6198   0.6535   0.6650   0.7117   0.7952   0.8371
     0.8642   0.8818   1.0420   1.8547   2.4504   2.9484   3.1824   3.1924
     3.9822   4.1339

          k = 0.0000 0.0683 0.0000 ( 17196 PWs)   bands (ev):

   -49.5629 -49.2159 -49.2066 -49.0637 -49.0507 -49.0268 -48.9829 -48.9672
   -48.9619 -48.9563 -48.9429 -48.9361 -48.9069 -48.8934 -48.8610 -48.8149
   -48.7977 -48.7912 -48.7793 -48.7489 -48.7303 -48.7029 -48.6908 -48.6894
   -48.6717 -48.6541 -48.6521 -48.6309 -48.6146 -48.5406 -48.5275 -48.5234
   -48.5231 -48.5190 -48.5162 -48.4560  -4.3970  -3.8871  -3.3622  -3.2151
    -3.1552  -3.1233  -3.1031  -2.9788  -2.9777  -2.9444  -2.9253  -2.9016
    -2.7591  -2.7258  -2.4801  -2.4416  -2.2105  -2.1346  -2.0024  -1.9610
    -1.9108  -1.6621  -1.6356  -1.6299  -1.5579  -1.5315  -1.4632  -1.3298
    -1.2520  -1.2367  -1.1473  -1.1322  -1.1302  -1.1015  -0.9933  -0.8068
    -0.7918  -0.6595  -0.5964  -0.5173  -0.4659  -0.4600  -0.4312  -0.3996
    -0.3739  -0.3070  -0.2610  -0.1056   0.0348   0.0767   0.0795   0.1641
     0.2418   0.2595   0.2983   0.3128   0.4001   0.4685   0.5987   0.6228
     0.6876   0.8061   0.8485   1.2171   1.8220   3.1252   3.2810   3.3002
     4.1030   4.2362

          k = 0.0000-0.1024 0.0000 ( 17240 PWs)   bands (ev):

   -49.5628 -49.2138 -49.2011 -49.0491 -49.0359 -48.9795 -48.9737 -48.9716
   -48.9650 -48.9601 -48.9566 -48.9519 -48.9498 -48.8844 -48.8704 -48.8043
   -48.7834 -48.7825 -48.7334 -48.7280 -48.7222 -48.7196 -48.7116 -48.7095
   -48.7072 -48.6797 -48.6458 -48.6332 -48.6214 -48.5359 -48.5301 -48.5229
   -48.5223 -48.5206 -48.5169 -48.4560  -4.2113  -3.5462  -3.4424  -3.0595
    -2.9924  -2.9536  -2.8982  -2.8498  -2.7663  -2.6861  -2.6301  -2.5720
    -2.5025  -2.4128  -2.3686  -2.3407  -2.2836  -1.9986  -1.9880  -1.9397
    -1.9000  -1.8782  -1.8138  -1.6388  -1.5452  -1.4290  -1.3823  -1.3410
    -1.3366  -1.1863  -1.1762  -1.1449  -1.1157  -1.0532  -1.0302  -1.0275
    -0.9853  -0.9608  -0.9571  -0.9011  -0.7909  -0.6677  -0.6217  -0.5079
    -0.4463  -0.4451  -0.3403  -0.3402  -0.2530  -0.2370  -0.2085  -0.1696
    -0.1027   0.0544   0.1501   0.1637   0.2538   0.5956   0.6037   0.6206
     0.6720   0.7196   0.8398   0.8584   2.0602   3.0917   3.2912   3.3182
     4.0092   4.3298

          k = 0.0296-0.0171 0.0000 ( 17192 PWs)   bands (ev):

   -49.5633 -49.2202 -49.2172 -49.0865 -49.0722 -49.0673 -48.9898 -48.9677
   -48.9596 -48.9582 -48.9219 -48.9166 -48.9011 -48.8631 -48.8506 -48.8356
   -48.8179 -48.8152 -48.8071 -48.7519 -48.7445 -48.6827 -48.6755 -48.6686
   -48.6591 -48.6362 -48.6257 -48.6167 -48.6055 -48.5462 -48.5259 -48.5249
   -48.5239 -48.5161 -48.5149 -48.4558  -4.8210  -4.0497  -3.5350  -3.5148
    -3.4731  -3.4411  -3.4181  -3.3318  -3.2796  -3.1957  -3.1903  -3.1685
    -2.9756  -2.9560  -2.8903  -2.8654  -2.2189  -2.1838  -2.0543  -1.7681
    -1.7556  -1.7346  -1.6958  -1.6567  -1.5396  -1.4891  -1.4029  -1.3961
    -1.3498  -1.3230  -1.2753  -1.1594  -1.0634  -0.7635  -0.7496  -0.5890
    -0.4733  -0.4189  -0.3342  -0.2723  -0.2678  -0.1945  -0.1479  -0.1340
     0.0514   0.1173   0.3379   0.3802   0.3924   0.4235   0.4275   0.4719
     0.5047   0.5844   0.6197   0.6535   0.6650   0.7117   0.7952   0.8371
     0.8642   0.8818   1.0420   1.8547   2.4504   2.9484   3.1824   3.1924
     3.9822   4.1339

          k = 0.0296 0.0171 0.0000 ( 17192 PWs)   bands (ev):

   -49.5633 -49.2202 -49.2172 -49.0864 -49.0723 -49.0673 -48.9898 -48.9677
   -48.9597 -48.9581 -48.9219 -48.9166 -48.9011 -48.8631 -48.8506 -48.8356
   -48.8177 -48.8153 -48.8071 -48.7518 -48.7446 -48.6827 -48.6755 -48.6684
   -48.6593 -48.6363 -48.6256 -48.6167 -48.6055 -48.5462 -48.5260 -48.5248
   -48.5240 -48.5159 -48.5151 -48.4558  -4.8210  -4.0497  -3.5350  -3.5148
    -3.4731  -3.4411  -3.4181  -3.3318  -3.2796  -3.1957  -3.1904  -3.1685
    -2.9756  -2.9560  -2.8903  -2.8654  -2.2189  -2.1838  -2.0543  -1.7681
    -1.7556  -1.7346  -1.6958  -1.6567  -1.5395  -1.4891  -1.4029  -1.3961
    -1.3499  -1.3230  -1.2753  -1.1594  -1.0634  -0.7635  -0.7496  -0.5889
    -0.4733  -0.4188  -0.3343  -0.2721  -0.2679  -0.1945  -0.1479  -0.1339
     0.0513   0.1173   0.3379   0.3802   0.3924   0.4235   0.4275   0.4719
     0.5046   0.5844   0.6198   0.6535   0.6650   0.7118   0.7952   0.8371
     0.8642   0.8818   1.0420   1.8547   2.4504   2.9484   3.1824   3.1924
     3.9822   4.1339

          k = 0.0296 0.0512 0.0000 ( 17186 PWs)   bands (ev):

   -49.5630 -49.2163 -49.2100 -49.0706 -49.0511 -49.0448 -48.9850 -48.9664
   -48.9620 -48.9565 -48.9460 -48.9139 -48.9041 -48.8917 -48.8588 -48.8196
   -48.8005 -48.7974 -48.7914 -48.7549 -48.7330 -48.7030 -48.6868 -48.6710
   -48.6623 -48.6567 -48.6409 -48.6318 -48.6131 -48.5422 -48.5267 -48.5240
   -48.5235 -48.5182 -48.5159 -48.4559  -4.5080  -3.9473  -3.3303  -3.3023
    -3.2244  -3.1987  -3.1812  -3.1247  -3.1140  -3.0413  -3.0081  -2.9539
    -2.8262  -2.7277  -2.7152  -2.5320  -2.2175  -2.1184  -2.0217  -1.9049
    -1.8233  -1.7088  -1.6685  -1.6411  -1.6181  -1.5280  -1.3884  -1.3631
    -1.3247  -1.2361  -1.2228  -1.1318  -1.0377  -1.0028  -0.9009  -0.8778
    -0.7010  -0.5882  -0.4733  -0.4429  -0.4153  -0.3599  -0.3318  -0.2434
    -0.1886  -0.1619  -0.1517  -0.1029   0.0262   0.1461   0.1941   0.2188
     0.3220   0.3462   0.4155   0.4911   0.5409   0.5741   0.5850   0.7062
     0.7199   0.7504   1.3730   1.6315   1.6571   2.3826   2.5793   3.2815
     4.2858   4.7062

          k = 0.0296-0.1195 0.0000 ( 17183 PWs)   bands (ev):

   -49.5628 -49.2117 -49.2033 -49.0475 -49.0263 -49.0013 -48.9796 -48.9770
   -48.9685 -48.9624 -48.9544 -48.9427 -48.9219 -48.8936 -48.8727 -48.7996
   -48.7804 -48.7737 -48.7571 -48.7464 -48.7332 -48.7158 -48.7097 -48.7002
   -48.6825 -48.6679 -48.6511 -48.6391 -48.6252 -48.5363 -48.5288 -48.5240
   -48.5225 -48.5204 -48.5167 -48.4560  -4.2186  -3.6049  -3.2441  -2.9997
    -2.9899  -2.9165  -2.8969  -2.8663  -2.7482  -2.7212  -2.6856  -2.6254
    -2.5012  -2.4490  -2.4036  -2.2980  -2.1846  -2.0988  -2.0770  -1.9892
    -1.9206  -1.7930  -1.7617  -1.6963  -1.6179  -1.5162  -1.4754  -1.4386
    -1.3905  -1.3412  -1.2884  -1.2566  -1.2160  -1.1113  -1.0396  -0.9892
    -0.9652  -0.8842  -0.8364  -0.8042  -0.7834  -0.6911  -0.5255  -0.4865
    -0.4209  -0.3897  -0.3688  -0.3000  -0.1974  -0.1468  -0.0717   0.0346
     0.0843   0.1755   0.2740   0.3523   0.4961   0.5157   0.5485   0.5935
     0.6173   0.7073   0.7234   1.1188   1.7403   2.0005   2.6405   3.3557
     4.3146   4.8731

          k = 0.0296-0.0853 0.0000 ( 17183 PWs)   bands (ev):

   -49.5628 -49.2117 -49.2033 -49.0475 -49.0263 -49.0013 -48.9795 -48.9770
   -48.9686 -48.9624 -48.9544 -48.9428 -48.9219 -48.8936 -48.8727 -48.7996
   -48.7804 -48.7737 -48.7571 -48.7466 -48.7334 -48.7155 -48.7096 -48.7000
   -48.6827 -48.6679 -48.6512 -48.6392 -48.6252 -48.5363 -48.5287 -48.5242
   -48.5223 -48.5206 -48.5166 -48.4560  -4.2186  -3.6049  -3.2441  -2.9997
    -2.9899  -2.9165  -2.8969  -2.8663  -2.7482  -2.7212  -2.6856  -2.6254
    -2.5012  -2.4490  -2.4036  -2.2980  -2.1846  -2.0988  -2.0770  -1.9891
    -1.9207  -1.7930  -1.7618  -1.6963  -1.6179  -1.5162  -1.4754  -1.4386
    -1.3904  -1.3412  -1.2884  -1.2567  -1.2160  -1.1113  -1.0396  -0.9892
    -0.9653  -0.8841  -0.8364  -0.8042  -0.7835  -0.6910  -0.5254  -0.4866
    -0.4209  -0.3897  -0.3688  -0.3000  -0.1975  -0.1468  -0.0717   0.0346
     0.0843   0.1755   0.2740   0.3523   0.4961   0.5157   0.5485   0.5935
     0.6173   0.7073   0.7234   1.1188   1.7403   2.0005   2.6405   3.3557
     4.3146   4.8731

          k = 0.0296-0.0512 0.0000 ( 17186 PWs)   bands (ev):

   -49.5630 -49.2163 -49.2100 -49.0706 -49.0510 -49.0449 -48.9850 -48.9664
   -48.9619 -48.9565 -48.9459 -48.9140 -48.9041 -48.8917 -48.8588 -48.8195
   -48.8005 -48.7974 -48.7914 -48.7551 -48.7328 -48.7031 -48.6867 -48.6710
   -48.6622 -48.6567 -48.6409 -48.6320 -48.6132 -48.5422 -48.5265 -48.5243
   -48.5232 -48.5184 -48.5157 -48.4559  -4.5080  -3.9473  -3.3303  -3.3023
    -3.2244  -3.1987  -3.1813  -3.1247  -3.1140  -3.0413  -3.0081  -2.9539
    -2.8262  -2.7277  -2.7152  -2.5320  -2.2175  -2.1183  -2.0217  -1.9050
    -1.8233  -1.7088  -1.6685  -1.6411  -1.6181  -1.5280  -1.3884  -1.3631
    -1.3246  -1.2361  -1.2228  -1.1318  -1.0377  -1.0028  -0.9009  -0.8778
    -0.7010  -0.5882  -0.4733  -0.4429  -0.4152  -0.3599  -0.3318  -0.2434
    -0.1886  -0.1619  -0.1516  -0.1029   0.0262   0.1461   0.1941   0.2188
     0.3220   0.3462   0.4155   0.4911   0.5408   0.5740   0.5851   0.7062
     0.7199   0.7504   1.3730   1.6315   1.6571   2.3826   2.5793   3.2815
     4.2858   4.7062

          k = 0.0591-0.0341 0.0000 ( 17196 PWs)   bands (ev):

   -49.5629 -49.2160 -49.2065 -49.0638 -49.0506 -49.0269 -48.9829 -48.9673
   -48.9617 -48.9565 -48.9427 -48.9362 -48.9070 -48.8934 -48.8609 -48.8148
   -48.7979 -48.7912 -48.7793 -48.7489 -48.7302 -48.7028 -48.6910 -48.6894
   -48.6716 -48.6541 -48.6520 -48.6310 -48.6147 -48.5406 -48.5274 -48.5234
   -48.5232 -48.5193 -48.5160 -48.4560  -4.3970  -3.8871  -3.3622  -3.2151
    -3.1552  -3.1233  -3.1031  -2.9788  -2.9777  -2.9444  -2.9253  -2.9016
    -2.7591  -2.7258  -2.4801  -2.4415  -2.2105  -2.1346  -2.0024  -1.9610
    -1.9108  -1.6621  -1.6356  -1.6299  -1.5578  -1.5315  -1.4632  -1.3298
    -1.2520  -1.2367  -1.1473  -1.1322  -1.1302  -1.1015  -0.9933  -0.8068
    -0.7918  -0.6596  -0.5964  -0.5173  -0.4659  -0.4600  -0.4312  -0.3996
    -0.3739  -0.3071  -0.2611  -0.1056   0.0348   0.0767   0.0795   0.1641
     0.2418   0.2595   0.2983   0.3128   0.4001   0.4685   0.5988   0.6228
     0.6877   0.8061   0.8485   1.2171   1.8220   3.1252   3.2810   3.3002
     4.1030   4.2362

          k = 0.0591-0.0000 0.0000 ( 17186 PWs)   bands (ev):

   -49.5630 -49.2163 -49.2100 -49.0706 -49.0510 -49.0449 -48.9850 -48.9664
   -48.9618 -48.9566 -48.9459 -48.9140 -48.9041 -48.8917 -48.8588 -48.8195
   -48.8005 -48.7974 -48.7914 -48.7550 -48.7329 -48.7031 -48.6867 -48.6710
   -48.6622 -48.6567 -48.6409 -48.6319 -48.6131 -48.5422 -48.5266 -48.5242
   -48.5233 -48.5184 -48.5157 -48.4559  -4.5080  -3.9473  -3.3303  -3.3023
    -3.2244  -3.1987  -3.1813  -3.1247  -3.1140  -3.0413  -3.0081  -2.9539
    -2.8262  -2.7277  -2.7152  -2.5320  -2.2175  -2.1183  -2.0217  -1.9049
    -1.8233  -1.7088  -1.6685  -1.6411  -1.6181  -1.5280  -1.3884  -1.3631
    -1.3246  -1.2361  -1.2228  -1.1318  -1.0377  -1.0028  -0.9009  -0.8778
    -0.7010  -0.5882  -0.4733  -0.4429  -0.4153  -0.3599  -0.3318  -0.2434
    -0.1886  -0.1619  -0.1516  -0.1029   0.0262   0.1461   0.1941   0.2188
     0.3220   0.3461   0.4155   0.4911   0.5409   0.5741   0.5851   0.7062
     0.7200   0.7504   1.3730   1.6315   1.6571   2.3826   2.5793   3.2815
     4.2858   4.7062

          k = 0.0591 0.0341 0.0000 ( 17196 PWs)   bands (ev):

   -49.5629 -49.2160 -49.2066 -49.0637 -49.0507 -49.0268 -48.9829 -48.9672
   -48.9618 -48.9564 -48.9428 -48.9361 -48.9069 -48.8934 -48.8610 -48.8149
   -48.7976 -48.7912 -48.7793 -48.7489 -48.7303 -48.7030 -48.6907 -48.6895
   -48.6718 -48.6542 -48.6522 -48.6307 -48.6146 -48.5405 -48.5275 -48.5234
   -48.5231 -48.5190 -48.5162 -48.4560  -4.3970  -3.8871  -3.3622  -3.2152
    -3.1552  -3.1233  -3.1030  -2.9788  -2.9777  -2.9444  -2.9253  -2.9015
    -2.7591  -2.7258  -2.4801  -2.4415  -2.2105  -2.1346  -2.0024  -1.9610
    -1.9108  -1.6621  -1.6356  -1.6299  -1.5579  -1.5315  -1.4632  -1.3298
    -1.2520  -1.2367  -1.1473  -1.1322  -1.1302  -1.1015  -0.9933  -0.8068
    -0.7918  -0.6595  -0.5965  -0.5173  -0.4659  -0.4600  -0.4312  -0.3996
    -0.3739  -0.3070  -0.2610  -0.1056   0.0348   0.0767   0.0795   0.1641
     0.2418   0.2595   0.2983   0.3128   0.4002   0.4685   0.5987   0.6228
     0.6876   0.8061   0.8485   1.2171   1.8220   3.1252   3.2810   3.3003
     4.1030   4.2362

          k = 0.0591-0.1365 0.0000 ( 17183 PWs)   bands (ev):

   -49.5628 -49.2117 -49.2033 -49.0475 -49.0263 -49.0013 -48.9796 -48.9770
   -48.9686 -48.9623 -48.9544 -48.9427 -48.9219 -48.8936 -48.8727 -48.7996
   -48.7803 -48.7736 -48.7571 -48.7465 -48.7332 -48.7157 -48.7099 -48.7002
   -48.6826 -48.6679 -48.6512 -48.6390 -48.6251 -48.5363 -48.5289 -48.5240
   -48.5224 -48.5204 -48.5167 -48.4560  -4.2186  -3.6049  -3.2441  -2.9997
    -2.9899  -2.9165  -2.8969  -2.8663  -2.7482  -2.7212  -2.6856  -2.6254
    -2.5012  -2.4490  -2.4036  -2.2980  -2.1846  -2.0988  -2.0770  -1.9891
    -1.9206  -1.7930  -1.7618  -1.6963  -1.6179  -1.5162  -1.4754  -1.4386
    -1.3905  -1.3412  -1.2884  -1.2567  -1.2160  -1.1113  -1.0396  -0.9892
    -0.9652  -0.8842  -0.8364  -0.8042  -0.7835  -0.6910  -0.5255  -0.4865
    -0.4209  -0.3897  -0.3688  -0.3000  -0.1975  -0.1468  -0.0717   0.0346
     0.0843   0.1755   0.2740   0.3524   0.4961   0.5158   0.5485   0.5935
     0.6173   0.7073   0.7234   1.1188   1.7403   2.0005   2.6405   3.3557
     4.3146   4.8731

          k = 0.0591-0.1024 0.0000 ( 17208 PWs)   bands (ev):

   -49.5627 -49.2057 -49.2056 -49.0192 -49.0185 -48.9896 -48.9887 -48.9796
   -48.9723 -48.9691 -48.9661 -48.9530 -48.9093 -48.8909 -48.8907 -48.7747
   -48.7710 -48.7573 -48.7492 -48.7475 -48.7468 -48.7327 -48.7315 -48.6901
   -48.6888 -48.6634 -48.6491 -48.6434 -48.6429 -48.5322 -48.5305 -48.5257
   -48.5219 -48.5210 -48.5168 -48.4560  -4.1632  -3.1760  -3.1496  -3.0965
    -2.7236  -2.7118  -2.6623  -2.6619  -2.6417  -2.6148  -2.5294  -2.4983
    -2.4776  -2.4625  -2.4591  -2.2802  -2.1255  -2.0087  -1.9646  -1.9336
    -1.9110  -1.8497  -1.8176  -1.8147  -1.7514  -1.6903  -1.6259  -1.5709
    -1.5703  -1.5188  -1.4936  -1.3593  -1.3327  -1.2222  -1.2148  -1.1508
    -1.0549  -1.0311  -1.0303  -1.0296  -0.9037  -0.6028  -0.5394  -0.3960
    -0.3834  -0.3218  -0.3135  -0.2709  -0.0949  -0.0746  -0.0530   0.0880
     0.2541   0.2852   0.3444   0.4064   0.4891   0.4906   0.5112   0.5570
     0.6218   0.6282   0.6344   0.8201   1.2960   1.3076   2.4620   3.6670
     3.6695   5.1227

          k = 0.0591-0.0683 0.0000 ( 17183 PWs)   bands (ev):

   -49.5628 -49.2117 -49.2033 -49.0476 -49.0262 -49.0013 -48.9795 -48.9770
   -48.9686 -48.9623 -48.9545 -48.9428 -48.9219 -48.8937 -48.8726 -48.7995
   -48.7806 -48.7738 -48.7571 -48.7465 -48.7333 -48.7156 -48.7095 -48.7001
   -48.6826 -48.6679 -48.6510 -48.6392 -48.6253 -48.5364 -48.5286 -48.5242
   -48.5223 -48.5208 -48.5165 -48.4560  -4.2186  -3.6049  -3.2441  -2.9997
    -2.9899  -2.9165  -2.8969  -2.8663  -2.7482  -2.7212  -2.6856  -2.6254
    -2.5012  -2.4490  -2.4036  -2.2980  -2.1846  -2.0988  -2.0770  -1.9891
    -1.9207  -1.7930  -1.7618  -1.6963  -1.6179  -1.5162  -1.4753  -1.4386
    -1.3905  -1.3412  -1.2884  -1.2567  -1.2160  -1.1113  -1.0396  -0.9892
    -0.9653  -0.8842  -0.8364  -0.8042  -0.7834  -0.6911  -0.5254  -0.4866
    -0.4209  -0.3897  -0.3688  -0.3001  -0.1974  -0.1468  -0.0717   0.0346
     0.0843   0.1755   0.2740   0.3523   0.4961   0.5157   0.5485   0.5935
     0.6173   0.7073   0.7234   1.1188   1.7403   2.0005   2.6405   3.3556
     4.3147   4.8731

          k =-0.0887 0.0512 0.0000 ( 17240 PWs)   bands (ev):

   -49.5628 -49.2138 -49.2010 -49.0493 -49.0358 -48.9793 -48.9737 -48.9716
   -48.9651 -48.9600 -48.9567 -48.9518 -48.9499 -48.8845 -48.8703 -48.8041
   -48.7834 -48.7828 -48.7332 -48.7283 -48.7225 -48.7194 -48.7117 -48.7092
   -48.7070 -48.6797 -48.6456 -48.6334 -48.6216 -48.5360 -48.5299 -48.5227
   -48.5224 -48.5210 -48.5167 -48.4560  -4.2113  -3.5462  -3.4424  -3.0595
    -2.9925  -2.9536  -2.8983  -2.8498  -2.7663  -2.6861  -2.6302  -2.5719
    -2.5025  -2.4128  -2.3687  -2.3407  -2.2835  -1.9986  -1.9880  -1.9397
    -1.9000  -1.8782  -1.8137  -1.6388  -1.5451  -1.4290  -1.3822  -1.3411
    -1.3366  -1.1863  -1.1761  -1.1449  -1.1156  -1.0531  -1.0303  -1.0275
    -0.9853  -0.9608  -0.9571  -0.9011  -0.7909  -0.6676  -0.6218  -0.5078
    -0.4463  -0.4451  -0.3403  -0.3401  -0.2530  -0.2371  -0.2085  -0.1695
    -0.1027   0.0544   0.1500   0.1637   0.2538   0.5957   0.6037   0.6205
     0.6721   0.7195   0.8398   0.8583   2.0602   3.0917   3.2912   3.3182
     4.0092   4.3298

          k =-0.0887 0.0853 0.0000 ( 17183 PWs)   bands (ev):

   -49.5628 -49.2117 -49.2033 -49.0476 -49.0262 -49.0013 -48.9795 -48.9770
   -48.9686 -48.9623 -48.9545 -48.9428 -48.9219 -48.8937 -48.8726 -48.7995
   -48.7806 -48.7738 -48.7571 -48.7464 -48.7332 -48.7158 -48.7095 -48.7001
   -48.6825 -48.6679 -48.6510 -48.6392 -48.6253 -48.5363 -48.5286 -48.5241
   -48.5223 -48.5207 -48.5165 -48.4560  -4.2186  -3.6049  -3.2441  -2.9997
    -2.9899  -2.9165  -2.8969  -2.8663  -2.7482  -2.7212  -2.6856  -2.6254
    -2.5012  -2.4490  -2.4036  -2.2980  -2.1846  -2.0988  -2.0770  -1.9892
    -1.9206  -1.7930  -1.7617  -1.6963  -1.6179  -1.5162  -1.4753  -1.4386
    -1.3905  -1.3412  -1.2884  -1.2566  -1.2160  -1.1113  -1.0396  -0.9892
    -0.9652  -0.8842  -0.8364  -0.8042  -0.7834  -0.6911  -0.5254  -0.4866
    -0.4209  -0.3897  -0.3688  -0.3001  -0.1974  -0.1468  -0.0717   0.0346
     0.0843   0.1755   0.2740   0.3523   0.4961   0.5157   0.5485   0.5935
     0.6173   0.7073   0.7234   1.1188   1.7403   2.0005   2.6405   3.3557
     4.3146   4.8731

          k =-0.0887 0.1195 0.0000 ( 17183 PWs)   bands (ev):

   -49.5628 -49.2117 -49.2033 -49.0475 -49.0263 -49.0013 -48.9795 -48.9770
   -48.9686 -48.9623 -48.9544 -48.9428 -48.9219 -48.8936 -48.8727 -48.7996
   -48.7803 -48.7736 -48.7571 -48.7466 -48.7334 -48.7155 -48.7099 -48.7000
   -48.6827 -48.6679 -48.6512 -48.6390 -48.6252 -48.5363 -48.5288 -48.5241
   -48.5223 -48.5205 -48.5166 -48.4560  -4.2186  -3.6049  -3.2441  -2.9997
    -2.9899  -2.9165  -2.8969  -2.8663  -2.7482  -2.7212  -2.6856  -2.6254
    -2.5012  -2.4490  -2.4036  -2.2980  -2.1846  -2.0988  -2.0770  -1.9891
    -1.9207  -1.7930  -1.7618  -1.6963  -1.6179  -1.5162  -1.4754  -1.4386
    -1.3904  -1.3412  -1.2883  -1.2567  -1.2160  -1.1113  -1.0396  -0.9892
    -0.9653  -0.8842  -0.8364  -0.8042  -0.7835  -0.6910  -0.5255  -0.4866
    -0.4209  -0.3897  -0.3688  -0.3001  -0.1975  -0.1468  -0.0716   0.0346
     0.0843   0.1755   0.2740   0.3524   0.4961   0.5158   0.5485   0.5935
     0.6173   0.7073   0.7234   1.1188   1.7403   2.0005   2.6405   3.3557
     4.3146   4.8731

          k =-0.0887-0.0512 0.0000 ( 17240 PWs)   bands (ev):

   -49.5628 -49.2138 -49.2011 -49.0492 -49.0359 -48.9795 -48.9737 -48.9716
   -48.9650 -48.9601 -48.9567 -48.9519 -48.9499 -48.8844 -48.8704 -48.8043
   -48.7833 -48.7824 -48.7334 -48.7279 -48.7221 -48.7196 -48.7116 -48.7097
   -48.7074 -48.6797 -48.6459 -48.6331 -48.6214 -48.5358 -48.5302 -48.5230
   -48.5222 -48.5205 -48.5170 -48.4560  -4.2113  -3.5462  -3.4424  -3.0596
    -2.9924  -2.9536  -2.8983  -2.8499  -2.7662  -2.6861  -2.6302  -2.5719
    -2.5025  -2.4128  -2.3686  -2.3407  -2.2835  -1.9986  -1.9880  -1.9397
    -1.9000  -1.8782  -1.8138  -1.6388  -1.5452  -1.4290  -1.3823  -1.3410
    -1.3365  -1.1863  -1.1762  -1.1449  -1.1157  -1.0531  -1.0302  -1.0275
    -0.9854  -0.9608  -0.9572  -0.9011  -0.7909  -0.6677  -0.6217  -0.5079
    -0.4462  -0.4451  -0.3403  -0.3402  -0.2530  -0.2369  -0.2085  -0.1696
    -0.1027   0.0544   0.1501   0.1637   0.2538   0.5956   0.6037   0.6206
     0.6721   0.7196   0.8398   0.8584   2.0602   3.0917   3.2912   3.3182
     4.0092   4.3298

     the Fermi energy is     0.8096 ev

!    total energy              =   -2398.57925584 Ry
     Harris-Foulkes estimate   =   -2398.57926175 Ry
     estimated scf accuracy    <       0.00000370 Ry

[...]
    -2.7641  -2.7320  -2.4830  -2.4604  -2.1967  -2.1373  -2.0008  -1.9631
    -1.9256  -1.6698  -1.6483  -1.6455  -1.5667  -1.5632  -1.4719  -1.3474
    -1.2511  -1.2195  -1.1611  -1.1476  -1.1380  -1.1085  -1.0147  -0.8242
    -0.7829  -0.6758  -0.6241  -0.5348  -0.4910  -0.4805  -0.4432  -0.4189
    -0.3854  -0.3291  -0.2854  -0.1141   0.0190   0.0515   0.0521   0.1463
     0.2184   0.2429   0.2842   0.2933   0.3815   0.4518   0.5774   0.5969
     0.6679   0.7822   0.8322   1.1893   1.7733   3.0655   3.2717   3.2767
     4.0744   4.2335

          k = 0.0591-0.0000 0.0000 ( 17186 PWs)   bands (ev):

   -49.4912 -49.1831 -49.1760 -49.0827 -49.0656 -49.0598 -48.9967 -48.9782
   -48.9733 -48.9658 -48.9555 -48.9247 -48.9168 -48.9062 -48.8728 -48.8406
   -48.8218 -48.8163 -48.8127 -48.7782 -48.7556 -48.7228 -48.7113 -48.6910
   -48.6823 -48.6816 -48.6588 -48.6573 -48.6316 -48.5664 -48.5518 -48.5493
   -48.5454 -48.5391 -48.5366 -48.4721  -4.4408  -3.8260  -3.3176  -3.2999
    -3.2193  -3.1949  -3.1738  -3.1298  -3.1268  -3.0359  -3.0177  -2.9496
    -2.8256  -2.7382  -2.7293  -2.5441  -2.2042  -2.1027  -2.0409  -1.9159
    -1.8252  -1.7255  -1.6879  -1.6548  -1.6378  -1.5375  -1.4012  -1.3612
    -1.3256  -1.2428  -1.2294  -1.1421  -1.0454  -1.0116  -0.9174  -0.8969
    -0.7077  -0.5925  -0.4930  -0.4619  -0.4313  -0.3871  -0.3541  -0.2596
    -0.2019  -0.1824  -0.1693  -0.1228   0.0097   0.1287   0.1791   0.1946
     0.2953   0.3286   0.3933   0.4730   0.5266   0.5489   0.5631   0.6807
     0.7005   0.7343   1.3257   1.6199   1.6380   2.3648   2.5644   3.2022
     4.2739   4.6942

          k = 0.0591 0.0341 0.0000 ( 17196 PWs)   bands (ev):

   -49.4912 -49.1827 -49.1719 -49.0752 -49.0665 -49.0413 -48.9948 -48.9779
   -48.9738 -48.9661 -48.9522 -48.9473 -48.9210 -48.9055 -48.8752 -48.8362
   -48.8161 -48.8147 -48.7989 -48.7727 -48.7532 -48.7228 -48.7138 -48.7107
   -48.6970 -48.6719 -48.6719 -48.6563 -48.6330 -48.5648 -48.5526 -48.5488
   -48.5452 -48.5398 -48.5368 -48.4721  -4.3056  -3.7898  -3.3558  -3.2052
    -3.1317  -3.1296  -3.1054  -2.9845  -2.9741  -2.9532  -2.9253  -2.9040
    -2.7641  -2.7320  -2.4830  -2.4604  -2.1967  -2.1373  -2.0008  -1.9631
    -1.9257  -1.6698  -1.6483  -1.6456  -1.5667  -1.5633  -1.4719  -1.3474
    -1.2511  -1.2195  -1.1611  -1.1476  -1.1380  -1.1085  -1.0147  -0.8241
    -0.7829  -0.6758  -0.6241  -0.5348  -0.4910  -0.4805  -0.4432  -0.4189
    -0.3854  -0.3291  -0.2854  -0.1141   0.0190   0.0515   0.0521   0.1463
     0.2184   0.2429   0.2842   0.2933   0.3815   0.4518   0.5774   0.5969
     0.6679   0.7822   0.8322   1.1893   1.7733   3.0656   3.2717   3.2767
     4.0744   4.2335

          k = 0.0591-0.1365 0.0000 ( 17183 PWs)   bands (ev):

   -49.4910 -49.1778 -49.1681 -49.0600 -49.0413 -49.0153 -48.9944 -48.9904
   -48.9771 -48.9704 -48.9641 -48.9549 -48.9334 -48.9059 -48.8873 -48.8204
   -48.8034 -48.7937 -48.7778 -48.7700 -48.7532 -48.7400 -48.7333 -48.7199
   -48.7074 -48.6864 -48.6704 -48.6646 -48.6434 -48.5609 -48.5540 -48.5488
   -48.5445 -48.5416 -48.5371 -48.4722  -4.0530  -3.5784  -3.2331  -2.9928
    -2.9643  -2.9132  -2.8933  -2.8700  -2.7522  -2.7139  -2.6896  -2.6323
    -2.5077  -2.4587  -2.3989  -2.3091  -2.1921  -2.1002  -2.0825  -1.9851
    -1.9346  -1.8063  -1.7631  -1.7086  -1.6219  -1.5122  -1.4861  -1.4305
    -1.4252  -1.3522  -1.3062  -1.2720  -1.2356  -1.1271  -1.0365  -1.0028
    -0.9846  -0.9022  -0.8603  -0.8203  -0.7992  -0.7078  -0.5533  -0.5002
    -0.4345  -0.4175  -0.3865  -0.3178  -0.2177  -0.1627  -0.0877   0.0156
     0.0634   0.1574   0.2538   0.3333   0.4752   0.4954   0.5275   0.5668
     0.5992   0.6832   0.7075   1.0994   1.7246   1.9471   2.6198   3.3067
     4.2507   4.8476

          k = 0.0591-0.1024 0.0000 ( 17208 PWs)   bands (ev):

   -49.4909 -49.1709 -49.1708 -49.0319 -49.0316 -49.0052 -49.0046 -48.9931
   -48.9885 -48.9749 -48.9714 -48.9630 -48.9171 -48.9062 -48.9059 -48.7947
   -48.7918 -48.7831 -48.7709 -48.7704 -48.7696 -48.7516 -48.7509 -48.7147
   -48.7127 -48.6837 -48.6748 -48.6614 -48.6610 -48.5569 -48.5564 -48.5492
   -48.5436 -48.5431 -48.5371 -48.4722  -3.9743  -3.1653  -3.1486  -3.0718
    -2.6993  -2.6914  -2.6719  -2.6586  -2.6216  -2.6158  -2.5288  -2.5064
    -2.4894  -2.4735  -2.4693  -2.2897  -2.1304  -2.0163  -1.9826  -1.9288
    -1.9253  -1.8733  -1.8372  -1.7695  -1.7476  -1.6764  -1.6714  -1.5888
    -1.5836  -1.5298  -1.5175  -1.3437  -1.3385  -1.2410  -1.2340  -1.1941
    -1.0796  -1.0602  -1.0525  -1.0487  -0.9131  -0.6327  -0.5420  -0.4131
    -0.4115  -0.3534  -0.3400  -0.2687  -0.1109  -0.0846  -0.0688   0.0700
     0.2465   0.2593   0.3226   0.3862   0.4461   0.4762   0.4903   0.5419
     0.6055   0.6068   0.6179   0.8039   1.2812   1.2890   2.3876   3.6367
     3.6382   4.9935

          k = 0.0591-0.0683 0.0000 ( 17183 PWs)   bands (ev):

   -49.4910 -49.1778 -49.1681 -49.0600 -49.0413 -49.0153 -48.9944 -48.9904
   -48.9771 -48.9704 -48.9641 -48.9549 -48.9334 -48.9059 -48.8873 -48.8203
   -48.8034 -48.7937 -48.7778 -48.7700 -48.7532 -48.7400 -48.7333 -48.7199
   -48.7074 -48.6864 -48.6704 -48.6646 -48.6434 -48.5609 -48.5541 -48.5487
   -48.5445 -48.5416 -48.5371 -48.4722  -4.0530  -3.5784  -3.2331  -2.9929
    -2.9643  -2.9132  -2.8933  -2.8700  -2.7523  -2.7139  -2.6896  -2.6323
    -2.5077  -2.4587  -2.3989  -2.3091  -2.1921  -2.1002  -2.0825  -1.9851
    -1.9346  -1.8063  -1.7631  -1.7086  -1.6219  -1.5122  -1.4861  -1.4305
    -1.4252  -1.3522  -1.3062  -1.2720  -1.2356  -1.1271  -1.0365  -1.0029
    -0.9846  -0.9022  -0.8602  -0.8203  -0.7992  -0.7078  -0.5533  -0.5002
    -0.4345  -0.4175  -0.3865  -0.3178  -0.2177  -0.1627  -0.0877   0.0156
     0.0634   0.1574   0.2538   0.3332   0.4752   0.4954   0.5275   0.5668
     0.5992   0.6832   0.7075   1.0994   1.7245   1.9471   2.6198   3.3067
     4.2507   4.8476

          k =-0.0887 0.0512 0.0000 ( 17240 PWs)   bands (ev):

   -49.4910 -49.1802 -49.1655 -49.0607 -49.0521 -48.9945 -48.9871 -48.9820
   -48.9749 -48.9735 -48.9692 -48.9620 -48.9577 -48.8946 -48.8864 -48.8260
   -48.8065 -48.8009 -48.7537 -48.7513 -48.7442 -48.7403 -48.7354 -48.7346
   -48.7303 -48.6965 -48.6661 -48.6587 -48.6394 -48.5606 -48.5550 -48.5481
   -48.5446 -48.5415 -48.5372 -48.4722  -4.0383  -3.5486  -3.4118  -3.0443
    -3.0091  -2.9322  -2.8895  -2.8293  -2.7680  -2.6925  -2.6460  -2.5770
    -2.5074  -2.4202  -2.3731  -2.3241  -2.3020  -2.0022  -1.9931  -1.9475
    -1.9175  -1.8921  -1.7897  -1.6441  -1.5558  -1.4300  -1.3793  -1.3704
    -1.3509  -1.2241  -1.1889  -1.1540  -1.0997  -1.0615  -1.0456  -1.0389
    -0.9994  -0.9844  -0.9804  -0.9210  -0.8175  -0.6657  -0.6362  -0.5497
    -0.4678  -0.4640  -0.3582  -0.3493  -0.2699  -0.2596  -0.2201  -0.1933
    -0.1175   0.0162   0.1322   0.1479   0.2425   0.5730   0.5755   0.5935
     0.6534   0.7040   0.8160   0.8419   1.9840   3.0579   3.2807   3.3082
     3.9815   4.3101

          k =-0.0887 0.0853 0.0000 ( 17183 PWs)   bands (ev):

   -49.4910 -49.1778 -49.1681 -49.0600 -49.0413 -49.0153 -48.9944 -48.9904
   -48.9771 -48.9704 -48.9641 -48.9549 -48.9334 -48.9059 -48.8873 -48.8203
   -48.8034 -48.7937 -48.7778 -48.7699 -48.7532 -48.7401 -48.7333 -48.7199
   -48.7074 -48.6864 -48.6704 -48.6646 -48.6434 -48.5609 -48.5541 -48.5487
   -48.5445 -48.5416 -48.5371 -48.4722  -4.0530  -3.5784  -3.2331  -2.9929
    -2.9643  -2.9132  -2.8933  -2.8700  -2.7523  -2.7139  -2.6896  -2.6323
    -2.5077  -2.4587  -2.3989  -2.3091  -2.1921  -2.1002  -2.0825  -1.9851
    -1.9346  -1.8063  -1.7631  -1.7086  -1.6219  -1.5122  -1.4861  -1.4305
    -1.4252  -1.3522  -1.3062  -1.2720  -1.2356  -1.1271  -1.0365  -1.0029
    -0.9846  -0.9022  -0.8602  -0.8203  -0.7992  -0.7078  -0.5533  -0.5002
    -0.4345  -0.4175  -0.3865  -0.3178  -0.2177  -0.1627  -0.0878   0.0156
     0.0634   0.1574   0.2538   0.3332   0.4752   0.4954   0.5275   0.5668
     0.5992   0.6832   0.7075   1.0994   1.7245   1.9471   2.6198   3.3067
     4.2507   4.8476

          k =-0.0887 0.1195 0.0000 ( 17183 PWs)   bands (ev):

   -49.4910 -49.1778 -49.1681 -49.0600 -49.0413 -49.0153 -48.9944 -48.9905
   -48.9771 -48.9704 -48.9641 -48.9549 -48.9334 -48.9059 -48.8873 -48.8204
   -48.8034 -48.7937 -48.7778 -48.7699 -48.7532 -48.7401 -48.7333 -48.7199
   -48.7074 -48.6864 -48.6704 -48.6646 -48.6434 -48.5609 -48.5540 -48.5488
   -48.5445 -48.5416 -48.5371 -48.4722  -4.0530  -3.5784  -3.2331  -2.9928
    -2.9643  -2.9132  -2.8933  -2.8700  -2.7523  -2.7139  -2.6896  -2.6323
    -2.5077  -2.4587  -2.3989  -2.3091  -2.1921  -2.1002  -2.0825  -1.9851
    -1.9346  -1.8063  -1.7631  -1.7086  -1.6219  -1.5122  -1.4861  -1.4305
    -1.4252  -1.3522  -1.3062  -1.2719  -1.2356  -1.1271  -1.0365  -1.0029
    -0.9846  -0.9022  -0.8603  -0.8203  -0.7992  -0.7078  -0.5533  -0.5002
    -0.4345  -0.4174  -0.3865  -0.3178  -0.2177  -0.1627  -0.0878   0.0156
     0.0634   0.1574   0.2538   0.3333   0.4752   0.4954   0.5275   0.5668
     0.5992   0.6832   0.7075   1.0994   1.7246   1.9471   2.6198   3.3067
     4.2507   4.8476

          k =-0.0887-0.0512 0.0000 ( 17240 PWs)   bands (ev):

   -49.4910 -49.1802 -49.1655 -49.0607 -49.0521 -48.9945 -48.9871 -48.9820
   -48.9749 -48.9735 -48.9692 -48.9620 -48.9577 -48.8946 -48.8864 -48.8260
   -48.8065 -48.8009 -48.7537 -48.7513 -48.7442 -48.7403 -48.7354 -48.7345
   -48.7303 -48.6965 -48.6661 -48.6587 -48.6394 -48.5606 -48.5549 -48.5482
   -48.5446 -48.5415 -48.5372 -48.4722  -4.0383  -3.5486  -3.4118  -3.0443
    -3.0091  -2.9322  -2.8895  -2.8293  -2.7680  -2.6925  -2.6460  -2.5770
    -2.5074  -2.4202  -2.3731  -2.3241  -2.3020  -2.0022  -1.9931  -1.9475
    -1.9175  -1.8921  -1.7897  -1.6441  -1.5558  -1.4300  -1.3793  -1.3704
    -1.3509  -1.2241  -1.1889  -1.1540  -1.0997  -1.0616  -1.0456  -1.0389
    -0.9994  -0.9844  -0.9804  -0.9210  -0.8175  -0.6657  -0.6362  -0.5497
    -0.4678  -0.4640  -0.3581  -0.3493  -0.2699  -0.2596  -0.2201  -0.1933
    -0.1175   0.0162   0.1322   0.1479   0.2425   0.5730   0.5755   0.5934
     0.6534   0.7040   0.8160   0.8419   1.9841   3.0578   3.2807   3.3082
     3.9815   4.3101

     the Fermi energy is     0.7891 ev

!    total energy              =   -2398.58076789 Ry
     Harris-Foulkes estimate   =   -2398.58076806 Ry
     estimated scf accuracy    <       0.00000003 Ry

     The total energy is the sum of the following terms:

     one-electron contribution =  -20156.13186223 Ry
     hartree contribution      =   10126.55584932 Ry
     xc contribution           =    -390.81898069 Ry
     ewald contribution        =    8021.92974250 Ry
     electric field correction =       0.00001103 Ry
     smearing contrib. (-TS)   =      -0.11552782 Ry

     convergence has been achieved in   8 iterations
 
 BEEF-vdW xc energy contributions
           1 :   -340.277990664130     
           2 :    310.898191828809     
           3 :   -260.800651400748     
           4 :    203.501732814037     
           5 :   -152.074237898517     
           6 :    114.815165370972     
           7 :   -93.4515219221995     
           8 :    84.1747764953137     
           9 :   -80.6115597550767     
          10 :    77.1298342075222     
          11 :   -70.9899765947207     
          12 :    62.6175882221363     
          13 :   -54.2970483532003     
          14 :    48.2849015263495     
          15 :   -45.4346395702361     
          16 :    44.9283912526876     
          17 :   -45.0168430448284     
          18 :    44.1484062115939     
          19 :   -41.7783354493640     
          20 :    38.4562950965068     
          21 :   -35.2774747924560     
          22 :    33.1222449505894     
          23 :   -32.1580047329879     
          24 :    31.8465450398413     
          25 :   -31.3759069643088     
          26 :    30.1973173075448     
          27 :   -28.3292689930561     
          28 :    26.2698814436299     
          29 :   -24.6186870571830     
          30 :    23.6756496288550     
          31 :   -33.1217326230181     
          32 :   -24.4487771953962     

     Forces acting on atoms (Ry/au):


     negative rho (up, down):  9.441E-01 0.000E+00
     atom    1 type  1   force =    -0.00009329   -0.00005363    0.00034316
     atom    2 type  1   force =     0.00009369   -0.00005498    0.00034437
     atom    3 type  1   force =    -0.00000123    0.00010892    0.00034207
     atom    4 type  1   force =     0.00000072    0.00000128   -0.00516698
     atom    5 type  1   force =    -0.00000255   -0.00163644    0.00171023
     atom    6 type  1   force =     0.00000233   -0.00000342   -0.00070149
     atom    7 type  1   force =     0.00141451    0.00082046    0.00170740
     atom    8 type  1   force =    -0.00141312    0.00081874    0.00171101
     atom    9 type  1   force =     0.00000166    0.00000538    0.00008337
     atom   10 type  1   force =    -0.00000251    0.00066891   -0.00001266
     atom   11 type  1   force =     0.00057335   -0.00033783   -0.00001230
     atom   12 type  1   force =    -0.00057344   -0.00033751   -0.00001792
     atom   13 type  2   force =    -0.00000011    0.00000014   -0.00033025

     Total force =     0.001204     Total SCF correction =     0.000408
     SCF correction compared to forces is large: reduce conv_thr to get better values


     entering subroutine stress ...


     negative rho (up, down):  9.441E-01 0.000E+00
          total   stress  (Ry/bohr**3)                   (kbar)     P=  -10.09
  -0.00009658   0.00000000  -0.00000000        -14.21      0.00     -0.00
   0.00000000  -0.00009657   0.00000000          0.00    -14.21      0.00
  -0.00000000   0.00000000  -0.00001266         -0.00      0.00     -1.86


     bfgs converged in   9 scf cycles and   8 bfgs steps
     (criteria: energy <  1.0E+00, force <  1.9E-03)

     End of BFGS Geometry Optimization

     Final energy   =   -2398.5807678900 Ry
Begin final coordinates

ATOMIC_POSITIONS (crystal)
Pd1      0.166666667   0.166666667   0.406452311    0   0   0
Pd1      0.666666667   0.166666667   0.406452311    0   0   0
Pd1      0.166666667   0.666666667   0.406452311    0   0   0
Pd1      0.666666667   0.666666667   0.406452311    0   0   0
Pd1      0.833333333   0.333333333   0.500000000    0   0   0
Pd1      0.333333333   0.333333333   0.500000000    0   0   0
Pd1      0.833333333   0.833333333   0.500000000    0   0   0
Pd1      0.333333333   0.833333333   0.500000000    0   0   0
Pd1     -0.000000422  -0.000002016   0.595203658
Pd1      0.500422832  -0.000842626   0.593601745
Pd1     -0.000840710   0.500423149   0.593599166
Pd1      0.500417269   0.500422994   0.593601809
H1      -0.000003605   0.000002345   0.658274191
End final coordinates



     Writing output data file calc.save
 
     init_run     :     10.12s CPU     10.52s WALL (       1 calls)
     electrons    :   2316.25s CPU   2549.04s WALL (       9 calls)
     update_pot   :     19.92s CPU     21.14s WALL (       8 calls)
     forces       :    122.48s CPU    142.67s WALL (       9 calls)
     stress       :    366.88s CPU    402.90s WALL (       9 calls)

     Called by init_run:
     wfcinit      :      4.30s CPU      4.38s WALL (       1 calls)
     potinit      :      1.74s CPU      1.94s WALL (       1 calls)

     Called by electrons:
     c_bands      :    902.66s CPU    965.13s WALL (     100 calls)
     sum_band     :    461.05s CPU    514.56s WALL (     100 calls)
     v_of_rho     :    158.96s CPU    180.31s WALL (     109 calls)
     newd         :    369.16s CPU    375.42s WALL (     109 calls)
     mix_rho      :      5.44s CPU      5.70s WALL (     100 calls)
     vdW_energy   :     88.17s CPU     98.13s WALL (     433 calls)
     vdW_ffts     :    220.46s CPU    232.55s WALL (     884 calls)
     vdW_v        :     84.27s CPU     89.78s WALL (     433 calls)

     Called by c_bands:
     init_us_2    :      4.94s CPU      4.98s WALL (    1095 calls)
     cegterg      :    835.64s CPU    864.27s WALL (     500 calls)

     Called by *egterg:
     h_psi        :    567.83s CPU    591.02s WALL (    1651 calls)
     s_psi        :     45.70s CPU     45.80s WALL (    1651 calls)
     g_psi        :      3.02s CPU      3.04s WALL (    1146 calls)
     cdiaghg      :     66.54s CPU     67.08s WALL (    1606 calls)

     Called by h_psi:
     add_vuspsi   :     46.75s CPU     46.87s WALL (    1651 calls)

     General routines
     calbec       :     75.12s CPU     77.85s WALL (    2241 calls)
     fft          :    333.22s CPU    364.65s WALL (   26129 calls)
     ffts         :      0.33s CPU      0.40s WALL (     209 calls)
     fftw         :    379.88s CPU    401.04s WALL (  294890 calls)
     interpolate  :      3.54s CPU      3.63s WALL (     209 calls)
     davcio       :      0.00s CPU      0.04s WALL (       5 calls)
 
     Parallel routines
     fft_scatter  :    404.80s CPU    457.33s WALL (  321228 calls)
 
     PWSCF        : 47m48.78s CPU    52m44.91s WALL

 
   This run was terminated on:   8:37:20   3May2018            

=------------------------------------------------------------------------------=
   JOB DONE.
=------------------------------------------------------------------------------=
Job  /afs/slac/g/suncat/bin/suncat-tsmpirun -x LD_LIBRARY_PATH -wdir /scratch/qe676914_WwgST pw.x -npool 4 -in pw.inp

TID   HOST_NAME   COMMAND_LINE            STATUS            TERMINATION_TIME
===== ========== ================  =======================  ===================
00000 suncat0088 pw.x -npool 4 -i  Done                     05/03/2018 08:37:20
00001 suncat0088 pw.x -npool 4 -i  Done                     05/03/2018 08:37:20
00002 suncat0088 pw.x -npool 4 -i  Done                     05/03/2018 08:37:20
00003 suncat0088 pw.x -npool 4 -i  Done                     05/03/2018 08:37:20
00004 suncat0088 pw.x -npool 4 -i  Done                     05/03/2018 08:37:20
00005 suncat0088 pw.x -npool 4 -i  Done                     05/03/2018 08:37:20
00006 suncat0088 pw.x -npool 4 -i  Done                     05/03/2018 08:37:20
00007 suncat0088 pw.x -npool 4 -i  Done                     05/03/2018 08:37:20
00008 suncat0066 pw.x -npool 4 -i  Done                     05/03/2018 08:37:20
00009 suncat0066 pw.x -npool 4 -i  Done                     05/03/2018 08:37:20
00010 suncat0066 pw.x -npool 4 -i  Done                     05/03/2018 08:37:20
00011 suncat0066 pw.x -npool 4 -i  Done                     05/03/2018 08:37:20
00012 suncat0066 pw.x -npool 4 -i  Done                     05/03/2018 08:37:20
00013 suncat0066 pw.x -npool 4 -i  Done                     05/03/2018 08:37:20
00014 suncat0066 pw.x -npool 4 -i  Done                     05/03/2018 08:37:20
00015 suncat0066 pw.x -npool 4 -i  Done                     05/03/2018 08:37:20
00016 suncat0008 pw.x -npool 4 -i  Done                     05/03/2018 08:37:20
00017 suncat0008 pw.x -npool 4 -i  Done                     05/03/2018 08:37:20
00018 suncat0008 pw.x -npool 4 -i  Done                     05/03/2018 08:37:20
00019 suncat0008 pw.x -npool 4 -i  Done                     05/03/2018 08:37:20
00020 suncat0008 pw.x -npool 4 -i  Done                     05/03/2018 08:37:20
00021 suncat0008 pw.x -npool 4 -i  Done                     05/03/2018 08:37:20
00022 suncat0008 pw.x -npool 4 -i  Done                     05/03/2018 08:37:20
00023 suncat0008 pw.x -npool 4 -i  Done                     05/03/2018 08:37:20
00024 suncat0001 pw.x -npool 4 -i  Done                     05/03/2018 08:37:20
00025 suncat0001 pw.x -npool 4 -i  Done                     05/03/2018 08:37:20
00026 suncat0001 pw.x -npool 4 -i  Done                     05/03/2018 08:37:20
00027 suncat0001 pw.x -npool 4 -i  Done                     05/03/2018 08:37:20
00028 suncat0001 pw.x -npool 4 -i  Done                     05/03/2018 08:37:20
00029 suncat0001 pw.x -npool 4 -i  Done                     05/03/2018 08:37:20
00030 suncat0001 pw.x -npool 4 -i  Done                     05/03/2018 08:37:20
00031 suncat0001 pw.x -npool 4 -i  Done                     05/03/2018 08:37:20
