  python dir          : /u/if/mamunm/src/espresso
  espresso dir        : /nfs/slac/g/suncatfs/sw/espv18/espresso-dynpy-beef/bin
  pseudo dir          : /u/if/mamunm/psp/gbrv1.5pbe
  ase-espresso py git : GITVERSION



     Program PWSCF v.5.1rc2 (svn rev. 11289) starts on  2May2018 at 21: 1:38 

     This program is part of the open-source Quantum ESPRESSO suite
     for quantum simulation of materials; please cite
         "P. Giannozzi et al., J. Phys.:Condens. Matter 21 395502 (2009);
          URL http://www.quantum-espresso.org", 
     in publications or presentations arising from this work. More details at
     http://www.quantum-espresso.org/quote

     Parallel version (MPI), running on    32 processors
     K-points division:     npool     =       4
     R & G space division:  proc/nbgrp/npool/nimage =       8
     Reading input from pw.inp
     Message from routine read_cards :
     DEPRECATED: no units specified in CELL_PARAMETERS card

     Current dimensions of program PWSCF are:
     Max number of different atomic species (ntypx) = 10
     Max number of k-points (npk) =  40000
     Max angular momentum in pseudopotentials (lmaxx) =  3
     Presently stress not available with electric field


     **************************************************************************
     Initializing libbeef V0.1.1 with the BEEF-vdW functional.
     Citation: Wellendorff et al., PRB 85, 235149 (2012).
     **************************************************************************


     IMPORTANT: XC functional enforced from input :
     Exchange-correlation      = BEEF-VDW ( 1  4 27 13 2)
     Any further DFT definition will be discarded
     Please, verify this is what you really want


     Subspace diagonalization in iterative solution of the eigenvalue problem:
     a serial algorithm will be used

 
     Parallelization info
     --------------------
     sticks:   dense  smooth     PW     G-vecs:    dense   smooth      PW
     Min         354     143     40                67132    16991    2682
     Max         355     144     43                67159    17028    2691
     Sum        2839    1147    337               537229   136073   21493
 


     bravais-lattice index     =            0
     lattice parameter (alat)  =       1.8897  a.u.
     unit-cell volume          =    4515.4205 (a.u.)^3
     number of atoms/cell      =           13
     number of atomic types    =            2
     number of electrons       =       241.00
     number of Kohn-Sham states=          130
     kinetic-energy cutoff     =      36.7493  Ry
     charge density cutoff     =     367.4932  Ry
     convergence threshold     =      1.0E-05
     mixing beta               =       0.3000
     number of iterations used =           10  plain     mixing
     Exchange-correlation      = BEEF-VDW ( 1  4 27 13 2)
     nstep                     =           50


     celldm(1)=   1.889726  celldm(2)=   0.000000  celldm(3)=   0.000000
     celldm(4)=   0.000000  celldm(5)=   0.000000  celldm(6)=   0.000000

     crystal axes: (cart. coord. in units of alat)
               a(1) = (   5.606773   0.000000   0.000000 )  
               a(2) = (   2.803387   4.855608   0.000000 )  
               a(3) = (   0.000000   0.000000  24.577911 )  

     reciprocal axes: (cart. coord. in units 2 pi/alat)
               b(1) = (  0.178356 -0.102974  0.000000 )  
               b(2) = (  0.000000  0.205947  0.000000 )  
               b(3) = (  0.000000  0.000000  0.040687 )  


     PseudoPot. # 1 for Zn read from file:
     /u/if/mamunm/psp/gbrv1.5pbe/Zn.UPF
     MD5 check sum: df62231357ef9e81f77b2b3087fa5675
     Pseudo is Ultrasoft, Zval = 20.0
     Generated by new atomic code, or converted to UPF format
     Using radial grid of  943 points,  6 beta functions with: 
                l(1) =   0
                l(2) =   0
                l(3) =   1
                l(4) =   1
                l(5) =   2
                l(6) =   2
     Q(r) pseudized with  8 coefficients,  rinner =    1.100   1.100   1.100
                                                       1.100   1.100

     PseudoPot. # 2 for H  read from file:
     /u/if/mamunm/psp/gbrv1.5pbe/H.UPF
     MD5 check sum: 761ae9a214b05c3daf00ab9f6b793d6f
     Pseudo is Ultrasoft, Zval =  1.0
     Generated by new atomic code, or converted to UPF format
     Using radial grid of  615 points,  2 beta functions with: 
                l(1) =   0
                l(2) =   0
     Q(r) pseudized with  8 coefficients,  rinner =    0.700

     vdW kernel table read from file vdW_kernel_table
     MD5 check sum: 095c7af220d748ca6e76c0b4c6cfb241

     atomic species   valence    mass     pseudopotential
        Zn1           20.00    65.38000     Zn( 1.00)
        H1             1.00     1.00800     H ( 1.00)

     No symmetry found



   Cartesian axes

     site n.     atom                  positions (alat units)
         1           Zn1 tau(   1) = (   1.4016933   0.8092680  10.0000000  )
         2           Zn1 tau(   2) = (   4.2050800   0.8092680  10.0000000  )
         3           Zn1 tau(   3) = (   2.8033867   3.2370721  10.0000000  )
         4           Zn1 tau(   4) = (   5.6067733   3.2370721  10.0000000  )
         5           Zn1 tau(   5) = (   5.6067733   1.6185360  12.2889556  )
         6           Zn1 tau(   6) = (   2.8033867   1.6185360  12.2889556  )
         7           Zn1 tau(   7) = (   7.0084667   4.0463401  12.2889556  )
         8           Zn1 tau(   8) = (   4.2050800   4.0463401  12.2889556  )
         9           Zn1 tau(   9) = (   0.0000000   0.0000000  14.5779113  )
        10           Zn1 tau(  10) = (   2.8033867   0.0000000  14.5779113  )
        11           Zn1 tau(  11) = (   1.4016933   2.4278041  14.5779113  )
        12           Zn1 tau(  12) = (   4.2050800   2.4278041  14.5779113  )
        13           H1  tau(  13) = (   0.0000000   0.0000000  15.8784113  )

     number of k points=    20  Fermi-Dirac smearing, width (Ry)=  0.0110
                       cart. coord. in units 2pi/alat
        k(    1) = (   0.0000000   0.0000000   0.0000000), wk =   0.0555556
        k(    2) = (   0.0000000   0.0343246   0.0000000), wk =   0.1111111
        k(    3) = (   0.0000000   0.0686491   0.0000000), wk =   0.1111111
        k(    4) = (   0.0000000  -0.1029737   0.0000000), wk =   0.0555556
        k(    5) = (   0.0297260  -0.0171623   0.0000000), wk =   0.1111111
        k(    6) = (   0.0297260   0.0171623   0.0000000), wk =   0.1111111
        k(    7) = (   0.0297260   0.0514869   0.0000000), wk =   0.1111111
        k(    8) = (   0.0297260  -0.1201360   0.0000000), wk =   0.1111111
        k(    9) = (   0.0297260  -0.0858114   0.0000000), wk =   0.1111111
        k(   10) = (   0.0297260  -0.0514869   0.0000000), wk =   0.1111111
        k(   11) = (   0.0594519  -0.0343246   0.0000000), wk =   0.1111111
        k(   12) = (   0.0594519   0.0000000   0.0000000), wk =   0.1111111
        k(   13) = (   0.0594519   0.0343246   0.0000000), wk =   0.1111111
        k(   14) = (   0.0594519  -0.1372983   0.0000000), wk =   0.1111111
        k(   15) = (   0.0594519  -0.1029737   0.0000000), wk =   0.1111111
        k(   16) = (   0.0594519  -0.0686491   0.0000000), wk =   0.1111111
        k(   17) = (  -0.0891779   0.0514869   0.0000000), wk =   0.0555556
        k(   18) = (  -0.0891779   0.0858114   0.0000000), wk =   0.1111111
        k(   19) = (  -0.0891779   0.1201360   0.0000000), wk =   0.1111111
        k(   20) = (  -0.0891779  -0.0514869   0.0000000), wk =   0.0555556

     Dense  grid:   537229 G-vectors     FFT dimensions: (  72,  72, 288)

     Smooth grid:   136073 G-vectors     FFT dimensions: (  45,  45, 180)

     Largest allocated arrays     est. size (Mb)     dimensions
        Kohn-Sham Wavefunctions         4.29 Mb     (    2163,  130)
        NL pseudopotentials             7.20 Mb     (    2163,  218)
        Each V/rho on FFT grid          2.85 Mb     (  186624)
        Each G-vector array             0.51 Mb     (   67157)
        G-vector shells                 0.14 Mb     (   17773)
     Largest temporary arrays     est. size (Mb)     dimensions
        Auxiliary wavefunctions        17.16 Mb     (    2163,  520)
        Each subspace H/S matrix        4.13 Mb     (     520,  520)
        Each <psi_i|beta_j> matrix      0.43 Mb     (     218,  130)
        Arrays for rho mixing          28.48 Mb     (  186624,   10)

     Initial potential from superposition of free atoms
     Check: negative starting charge=   -0.000852

     starting charge  240.99830, renormalised to  241.00000

     negative rho (up, down):  8.520E-04 0.000E+00


     ************************************************************************
     *
     * You are using vdW-DF for exchange-correlation in this calculation.
     * Please cite the following three references that made this development
     * possible:
     *
     *   M. Dion, H. Rydberg, E. Schroder, D. C. Langreth, and
     *   B. I. Lundqvist, Phys. Rev. Lett. 92, 246401 (2004).
     *
     *   T. Thonhauser, V. R. Cooper, S. Li, A. Puzder, P. Hyldgaard, and
     *   D. C. Langreth, Phys. Rev. B 76, 125112 (2007).
     *
     *   G. Roman-Perez and J. M. Soler, Phys. Rev. Lett. 103, 096102 (2009).
     *
     *
     * If you are using vdW-DF2, please also cite:
     *
     *   K. Lee, E. D. Murray, L. Kong, B. I. Lundqvist, and
     *   D. C. Langreth, Phys. Rev. B 82, 081101(R) (2010).
     *
     *
     * If you are calculating the stress with vdW-DF, please also cite:
     *
     *   R. Sabatini, E. Kucukbenli, B. Kolb, T. Thonhauser, and
     *   S. de Gironcoli, J. Phys.: Condens. Matter 24, 424209 (2012).
     *
     ************************************************************************

     Carrying out vdW-DF run using the following parameters:

     Nqs =      20    Nr_points =    1024   r_max =   100.000
     q_mesh =
               0.00001000     0.04494208     0.09755937     0.15916263
               0.23128650     0.31572767     0.41458969     0.53033537
               0.66584808     0.82450364     1.01025438     1.22772762
               1.48234092     1.78043706     2.12944203     2.53805004
               3.01644009     3.57652955     4.23227104     5.00000000

     Gradients computed in reciprocal space

     ************************************************************************


 
     Adding external electric field

     Computed dipole along edir(3) : 
        Dipole                0.0000 Ry au,          0.0000 Debye
        Dipole field          0.0000 Ry au
 
        Potential amp.       -0.0000 Ry
        Total length         45.2844 bohr
 
     Starting wfc are  157 randomized atomic wfcs

     total cpu time spent up to now is       11.0 secs

     per-process dynamical memory:    89.0 Mb

     Self-consistent Calculation

     iteration #  1     ecut=    36.75 Ry     beta=0.30
     Davidson diagonalization with overlap
     ethr =  1.00E-02,  avg # of iterations =  2.0

     Threshold (ethr) on eigenvalues was too large:
     Diagonalizing with lowered threshold

     Davidson diagonalization with overlap
     ethr =  1.50E-04,  avg # of iterations =  3.4

     negative rho (up, down):  9.196E-04 0.000E+00
 
     Adding external electric field

     Computed dipole along edir(3) : 
        Dipole               -0.7603 Ry au,         -1.9325 Debye
        Dipole field         -0.0021 Ry au
 
        Potential amp.        0.1916 Ry
        Total length         45.2844 bohr
 

     total cpu time spent up to now is       47.6 secs

     total energy              =   -5554.30968423 Ry
     Harris-Foulkes estimate   =   -5554.42827781 Ry
     estimated scf accuracy    <       0.37205647 Ry

     iteration #  2     ecut=    36.75 Ry     beta=0.30
     Davidson diagonalization with overlap
     ethr =  1.54E-04,  avg # of iterations =  4.0

     negative rho (up, down):  1.096E-03 0.000E+00
 
     Adding external electric field

     Computed dipole along edir(3) : 
        Dipole                0.1239 Ry au,          0.3150 Debye
        Dipole field          0.0003 Ry au
 
        Potential amp.       -0.0312 Ry
        Total length         45.2844 bohr
 

     total cpu time spent up to now is       70.2 secs

     total energy              =   -5554.22110006 Ry
     Harris-Foulkes estimate   =   -5554.44772791 Ry
     estimated scf accuracy    <       1.72256213 Ry

     iteration #  3     ecut=    36.75 Ry     beta=0.30
     Davidson diagonalization with overlap
     ethr =  1.54E-04,  avg # of iterations =  4.2

     negative rho (up, down):  1.078E-03 0.000E+00
 
     Adding external electric field

     Computed dipole along edir(3) : 
        Dipole               -0.1492 Ry au,         -0.3792 Debye
        Dipole field         -0.0004 Ry au
 
        Potential amp.        0.0376 Ry
        Total length         45.2844 bohr
 

     total cpu time spent up to now is       91.9 secs

     total energy              =   -5554.33735556 Ry
     Harris-Foulkes estimate   =   -5554.38822390 Ry
     estimated scf accuracy    <       0.47614856 Ry

     iteration #  4     ecut=    36.75 Ry     beta=0.30
     Davidson diagonalization with overlap
     ethr =  1.54E-04,  avg # of iterations =  3.0

     negative rho (up, down):  1.104E-03 0.000E+00
 
     Adding external electric field

     Computed dipole along edir(3) : 
        Dipole               -0.1131 Ry au,         -0.2875 Debye
        Dipole field         -0.0003 Ry au
 
        Potential amp.        0.0285 Ry
        Total length         45.2844 bohr
 

     total cpu time spent up to now is      112.4 secs

     total energy              =   -5554.35796685 Ry
     Harris-Foulkes estimate   =   -5554.36255961 Ry
     estimated scf accuracy    <       0.02187261 Ry

     iteration #  5     ecut=    36.75 Ry     beta=0.30
     Davidson diagonalization with overlap
     ethr =  9.08E-06,  avg # of iterations =  3.0

     negative rho (up, down):  1.135E-03 0.000E+00
 
     Adding external electric field

     Computed dipole along edir(3) : 
        Dipole               -0.0897 Ry au,         -0.2280 Debye
        Dipole field         -0.0002 Ry au
 
        Potential amp.        0.0226 Ry
        Total length         45.2844 bohr
 

     total cpu time spent up to now is      133.4 secs

     total energy              =   -5554.36085745 Ry
     Harris-Foulkes estimate   =   -5554.36109666 Ry
     estimated scf accuracy    <       0.00631106 Ry

     iteration #  6     ecut=    36.75 Ry     beta=0.30
     Davidson diagonalization with overlap
     ethr =  2.62E-06,  avg # of iterations =  3.0

     negative rho (up, down):  1.176E-03 0.000E+00
 
     Adding external electric field

     Computed dipole along edir(3) : 
        Dipole               -0.0801 Ry au,         -0.2035 Debye
        Dipole field         -0.0002 Ry au
 
        Potential amp.        0.0202 Ry
        Total length         45.2844 bohr
 

     total cpu time spent up to now is      154.0 secs

     total energy              =   -5554.36150249 Ry
     Harris-Foulkes estimate   =   -5554.36128333 Ry
     estimated scf accuracy    <       0.00106142 Ry

     iteration #  7     ecut=    36.75 Ry     beta=0.30
     Davidson diagonalization with overlap
     ethr =  4.40E-07,  avg # of iterations =  2.0

     negative rho (up, down):  1.190E-03 0.000E+00
 
     Adding external electric field

     Computed dipole along edir(3) : 
        Dipole               -0.0801 Ry au,         -0.2036 Debye
        Dipole field         -0.0002 Ry au
 
        Potential amp.        0.0202 Ry
        Total length         45.2844 bohr
 

     total cpu time spent up to now is      174.2 secs

     total energy              =   -5554.36161566 Ry
     Harris-Foulkes estimate   =   -5554.36158314 Ry
     estimated scf accuracy    <       0.00005877 Ry

     iteration #  8     ecut=    36.75 Ry     beta=0.30
     Davidson diagonalization with overlap
     ethr =  2.44E-08,  avg # of iterations =  2.4

     negative rho (up, down):  1.198E-03 0.000E+00
 
     Adding external electric field

     Computed dipole along edir(3) : 
        Dipole               -0.0811 Ry au,         -0.2061 Debye
        Dipole field         -0.0002 Ry au
 
        Potential amp.        0.0204 Ry
        Total length         45.2844 bohr
 

     total cpu time spent up to now is      196.1 secs

     total energy              =   -5554.36162713 Ry
     Harris-Foulkes estimate   =   -5554.36162116 Ry
     estimated scf accuracy    <       0.00001093 Ry

     iteration #  9     ecut=    36.75 Ry     beta=0.30
     Davidson diagonalization with overlap
     ethr =  4.54E-09,  avg # of iterations =  2.7

     negative rho (up, down):  1.225E-03 0.000E+00

     negative rho (up, down):  1.225E-03 0.000E+00

     negative rho (up, down):  1.225E-03 0.000E+00

     negative rho (up, down):  1.225E-03 0.000E+00

     negative rho (up, down):  1.225E-03 0.000E+00

     negative rho (up, down):  1.225E-03 0.000E+00

     negative rho (up, down):  1.225E-03 0.000E+00

     negative rho (up, down):  1.225E-03 0.000E+00

     negative rho (up, down):  1.225E-03 0.000E+00

     negative rho (up, down):  1.225E-03 0.000E+00

     negative rho (up, down):  1.225E-03 0.000E+00

     negative rho (up, down):  1.225E-03 0.000E+00

     negative rho (up, down):  1.225E-03 0.000E+00

     negative rho (up, down):  1.225E-03 0.000E+00

     negative rho (up, down):  1.225E-03 0.000E+00

     negative rho (up, down):  1.225E-03 0.000E+00

     negative rho (up, down):  1.225E-03 0.000E+00

     negative rho (up, down):  1.225E-03 0.000E+00

     negative rho (up, down):  1.225E-03 0.000E+00

     negative rho (up, down):  1.225E-03 0.000E+00

     negative rho (up, down):  1.225E-03 0.000E+00

     negative rho (up, down):  1.225E-03 0.000E+00

     negative rho (up, down):  1.225E-03 0.000E+00

     negative rho (up, down):  1.225E-03 0.000E+00

     negative rho (up, down):  1.225E-03 0.000E+00

     negative rho (up, down):  1.225E-03 0.000E+00

     negative rho (up, down):  1.225E-03 0.000E+00

     negative rho (up, down):  1.225E-03 0.000E+00

     negative rho (up, down):  1.225E-03 0.000E+00

     negative rho (up, down):  1.225E-03 0.000E+00

     negative rho (up, down):  1.225E-03 0.000E+00

     negative rho (up, down):  1.225E-03 0.000E+00

     negative rho (up, down):  1.225E-03 0.000E+00

     negative rho (up, down):  1.225E-03 0.000E+00

     negative rho (up, down):  1.225E-03 0.000E+00
 
     Adding external electric field

     Computed dipole along edir(3) : 
        Dipole               -0.0809 Ry au,         -0.2056 Debye
        Dipole field         -0.0002 Ry au
 
        Potential amp.        0.0204 Ry
        Total length         45.2844 bohr
 

     total cpu time spent up to now is      263.6 secs

     End of self-consistent calculation

          k = 0.0000 0.0000 0.0000 ( 16931 PWs)   bands (ev):

  -126.5821-126.4621-126.4443-126.4434-126.4434-126.2488-126.2223-126.2214
  -126.2214-126.2131-126.2122-126.2122 -80.8133 -80.7203 -80.7203 -80.6451
   -80.6400 -80.6400 -80.6246 -80.6240 -80.6240 -80.6211 -80.6178 -80.6170
   -80.6170 -80.6122 -80.6122 -80.4419 -80.4214 -80.4214 -80.4139 -80.4130
   -80.4130 -80.4036 -80.4036 -80.4002 -80.3994 -80.3994 -80.3985 -80.3944
   -80.3903 -80.3895 -80.3895 -80.3850 -80.3826 -80.3826 -80.3780 -80.3780
    -9.2228  -8.4229  -8.0076  -8.0076  -8.0064  -7.9545  -7.9420  -7.9304
    -7.9304  -7.8565  -7.8565  -7.8407  -7.7936  -7.7129  -7.7129  -7.6549
    -7.5350  -7.5350  -7.4587  -7.4587  -7.4310  -7.4310  -7.4170  -7.3927
    -7.3539  -7.3539  -7.3396  -7.3374  -7.3164  -7.3164  -7.2261  -7.2261
    -7.0994  -7.0994  -7.0543  -7.0543  -7.0030  -7.0030  -6.9728  -6.9545
    -6.9545  -6.9512  -6.9002  -6.9002  -6.8867  -6.8841  -6.8841  -6.8763
    -6.8416  -6.8416  -6.8169  -6.8061  -6.8061  -6.7844  -6.7844  -6.7709
    -6.7164  -6.7164  -6.6434  -6.6424  -6.6424  -6.6294  -4.4358  -2.3830
    -2.2570  -2.2570  -2.0910  -1.8700  -1.8700  -1.8378  -0.8590  -0.8205
    -0.8205  -0.3913   0.2242   0.2242   0.8193   2.1137   2.1137   2.3941
     2.6043   2.6043

          k = 0.0000 0.0343 0.0000 ( 16966 PWs)   bands (ev):

  -126.5821-126.4621-126.4442-126.4434-126.4434-126.2488-126.2223-126.2215
  -126.2214-126.2131-126.2123-126.2122 -80.8134 -80.7203 -80.7203 -80.6452
   -80.6397 -80.6394 -80.6246 -80.6240 -80.6238 -80.6216 -80.6179 -80.6171
   -80.6171 -80.6130 -80.6124 -80.4420 -80.4213 -80.4212 -80.4141 -80.4131
   -80.4131 -80.4035 -80.4033 -80.4004 -80.3994 -80.3994 -80.3989 -80.3937
   -80.3899 -80.3893 -80.3893 -80.3855 -80.3834 -80.3828 -80.3788 -80.3782
    -9.0535  -8.4118  -7.9798  -7.9566  -7.9493  -7.9062  -7.9008  -7.8996
    -7.8546  -7.8347  -7.8261  -7.7943  -7.7708  -7.6828  -7.6668  -7.6109
    -7.5295  -7.5241  -7.4753  -7.4288  -7.4282  -7.4144  -7.4024  -7.3963
    -7.3665  -7.3569  -7.3410  -7.3324  -7.3076  -7.2955  -7.2424  -7.1953
    -7.1349  -7.1048  -7.1011  -7.0685  -7.0446  -7.0424  -6.9924  -6.9898
    -6.9680  -6.9560  -6.9363  -6.9214  -6.9194  -6.9031  -6.8995  -6.8908
    -6.8846  -6.8462  -6.8423  -6.8316  -6.8120  -6.8079  -6.8041  -6.7708
    -6.7417  -6.6947  -6.6921  -6.6837  -6.6734  -6.5890  -4.3508  -4.0867
    -3.0140  -2.9796  -2.5981  -1.9286  -1.3272  -1.2110  -0.7562  -0.7471
    -0.2344   0.2497   0.7894   0.9763   1.0950   1.5893   2.0537   2.5142
     3.0321   3.5548

          k = 0.0000 0.0686 0.0000 ( 16996 PWs)   bands (ev):

  -126.5821-126.4621-126.4441-126.4436-126.4434-126.2488-126.2221-126.2216
  -126.2214-126.2130-126.2124-126.2122 -80.8135 -80.7203 -80.7203 -80.6453
   -80.6392 -80.6382 -80.6259 -80.6237 -80.6223 -80.6220 -80.6177 -80.6175
   -80.6171 -80.6150 -80.6127 -80.4421 -80.4212 -80.4207 -80.4139 -80.4133
   -80.4131 -80.4035 -80.4024 -80.4002 -80.3998 -80.3997 -80.3994 -80.3920
   -80.3904 -80.3885 -80.3875 -80.3863 -80.3854 -80.3830 -80.3809 -80.3785
    -8.6352  -8.3354  -7.9271  -7.8349  -7.8248  -7.8196  -7.8186  -7.7985
    -7.7849  -7.7544  -7.7407  -7.7147  -7.6288  -7.6019  -7.5718  -7.5268
    -7.5166  -7.5075  -7.4724  -7.4539  -7.4202  -7.3992  -7.3733  -7.3519
    -7.3413  -7.3330  -7.3248  -7.3128  -7.2789  -7.2612  -7.2321  -7.2191
    -7.2086  -7.1891  -7.1309  -7.1164  -7.0915  -7.0777  -7.0428  -7.0340
    -7.0292  -6.9928  -6.9911  -6.9749  -6.9721  -6.9629  -6.9521  -6.9407
    -6.9306  -6.9151  -6.9049  -6.9033  -6.8908  -6.8526  -6.8508  -6.8206
    -6.8056  -6.7714  -6.7612  -6.7565  -6.7348  -6.2033  -5.7575  -4.3563
    -3.7305  -3.4863  -3.4721  -2.2728  -1.7794  -1.5761  -0.7453   0.3280
     0.6268   0.8948   1.1467   1.6219   2.4225   2.7139   3.0237   3.2649
     3.6945   4.3146

          k = 0.0000-0.1030 0.0000 ( 17028 PWs)   bands (ev):

  -126.5821-126.4621-126.4440-126.4437-126.4434-126.2488-126.2220-126.2217
  -126.2214-126.2128-126.2125-126.2122 -80.8135 -80.7204 -80.7203 -80.6453
   -80.6390 -80.6375 -80.6266 -80.6235 -80.6227 -80.6204 -80.6181 -80.6176
   -80.6171 -80.6165 -80.6128 -80.4421 -80.4211 -80.4205 -80.4139 -80.4135
   -80.4130 -80.4036 -80.4016 -80.4006 -80.4002 -80.3998 -80.3994 -80.3907
   -80.3905 -80.3875 -80.3874 -80.3872 -80.3857 -80.3831 -80.3830 -80.3786
    -8.4900  -8.0120  -7.9630  -7.7883  -7.7826  -7.7725  -7.7486  -7.7383
    -7.6845  -7.6831  -7.6611  -7.6523  -7.6478  -7.5589  -7.5471  -7.5360
    -7.4980  -7.4486  -7.4423  -7.4411  -7.4362  -7.4116  -7.3756  -7.3375
    -7.3358  -7.3275  -7.2864  -7.2800  -7.2600  -7.2427  -7.2216  -7.1966
    -7.1869  -7.1774  -7.1727  -7.1037  -7.1004  -7.0950  -7.0767  -7.0694
    -7.0686  -7.0641  -7.0290  -7.0273  -7.0217  -7.0182  -6.9952  -6.9870
    -6.9562  -6.9348  -6.9247  -6.9197  -6.9122  -6.8972  -6.8768  -6.8262
    -6.8038  -6.8017  -6.7870  -6.7679  -6.7613  -6.7448  -5.5893  -5.2759
    -3.7654  -3.6477  -3.3988  -2.4914  -2.0543  -1.9360  -0.6679   0.6606
     0.7341   0.8530   2.4920   2.8231   2.9303   2.9698   2.9744   4.0268
     4.0737   4.1340

          k = 0.0297-0.0172 0.0000 ( 16966 PWs)   bands (ev):

  -126.5821-126.4621-126.4442-126.4434-126.4434-126.2488-126.2223-126.2215
  -126.2214-126.2131-126.2123-126.2122 -80.8134 -80.7203 -80.7203 -80.6452
   -80.6397 -80.6394 -80.6246 -80.6240 -80.6238 -80.6216 -80.6179 -80.6171
   -80.6171 -80.6130 -80.6124 -80.4420 -80.4213 -80.4212 -80.4141 -80.4131
   -80.4131 -80.4035 -80.4033 -80.4004 -80.3994 -80.3994 -80.3989 -80.3937
   -80.3899 -80.3893 -80.3893 -80.3855 -80.3834 -80.3828 -80.3788 -80.3782
    -9.0535  -8.4118  -7.9798  -7.9566  -7.9493  -7.9062  -7.9008  -7.8996
    -7.8546  -7.8347  -7.8261  -7.7943  -7.7708  -7.6828  -7.6668  -7.6109
    -7.5295  -7.5241  -7.4753  -7.4288  -7.4282  -7.4144  -7.4024  -7.3963
    -7.3665  -7.3569  -7.3410  -7.3324  -7.3076  -7.2955  -7.2424  -7.1953
    -7.1349  -7.1048  -7.1011  -7.0685  -7.0446  -7.0424  -6.9924  -6.9898
    -6.9680  -6.9560  -6.9363  -6.9214  -6.9194  -6.9031  -6.8995  -6.8908
    -6.8846  -6.8462  -6.8423  -6.8316  -6.8120  -6.8079  -6.8041  -6.7708
    -6.7417  -6.6947  -6.6921  -6.6837  -6.6734  -6.5890  -4.3508  -4.0867
    -3.0140  -2.9796  -2.5981  -1.9286  -1.3272  -1.2110  -0.7562  -0.7471
    -0.2344   0.2497   0.7894   0.9763   1.0950   1.5893   2.0537   2.5142
     3.0321   3.5548

          k = 0.0297 0.0172 0.0000 ( 16966 PWs)   bands (ev):

  -126.5821-126.4621-126.4442-126.4434-126.4434-126.2488-126.2223-126.2215
  -126.2214-126.2131-126.2123-126.2122 -80.8134 -80.7203 -80.7203 -80.6452
   -80.6397 -80.6394 -80.6246 -80.6240 -80.6238 -80.6216 -80.6179 -80.6171
   -80.6171 -80.6130 -80.6124 -80.4420 -80.4213 -80.4212 -80.4141 -80.4131
   -80.4131 -80.4035 -80.4033 -80.4004 -80.3994 -80.3994 -80.3989 -80.3937
   -80.3899 -80.3893 -80.3893 -80.3855 -80.3834 -80.3828 -80.3788 -80.3782
    -9.0535  -8.4118  -7.9798  -7.9566  -7.9493  -7.9062  -7.9008  -7.8996
    -7.8546  -7.8347  -7.8261  -7.7943  -7.7708  -7.6828  -7.6668  -7.6109
    -7.5295  -7.5241  -7.4753  -7.4288  -7.4282  -7.4144  -7.4024  -7.3963
    -7.3665  -7.3569  -7.3410  -7.3324  -7.3076  -7.2955  -7.2424  -7.1953
    -7.1349  -7.1048  -7.1011  -7.0685  -7.0446  -7.0424  -6.9924  -6.9898
    -6.9680  -6.9560  -6.9363  -6.9214  -6.9194  -6.9031  -6.8995  -6.8908
    -6.8846  -6.8462  -6.8423  -6.8316  -6.8120  -6.8079  -6.8041  -6.7708
    -6.7417  -6.6947  -6.6921  -6.6837  -6.6734  -6.5890  -4.3508  -4.0867
    -3.0140  -2.9796  -2.5981  -1.9286  -1.3272  -1.2110  -0.7562  -0.7471
    -0.2344   0.2497   0.7894   0.9763   1.0950   1.5893   2.0537   2.5142
     3.0321   3.5548

          k = 0.0297 0.0515 0.0000 ( 16978 PWs)   bands (ev):

  -126.5821-126.4621-126.4441-126.4435-126.4434-126.2488-126.2222-126.2216
  -126.2214-126.2130-126.2124-126.2122 -80.8134 -80.7203 -80.7203 -80.6452
   -80.6393 -80.6386 -80.6253 -80.6241 -80.6225 -80.6222 -80.6177 -80.6174
   -80.6171 -80.6143 -80.6126 -80.4420 -80.4212 -80.4209 -80.4139 -80.4133
   -80.4131 -80.4035 -80.4027 -80.4002 -80.3996 -80.3996 -80.3994 -80.3926
   -80.3899 -80.3893 -80.3879 -80.3861 -80.3847 -80.3830 -80.3801 -80.3785
    -8.7498  -8.3740  -7.9127  -7.8945  -7.8516  -7.8477  -7.8430  -7.8192
    -7.7963  -7.7882  -7.7620  -7.7306  -7.6574  -7.6211  -7.6029  -7.5501
    -7.5202  -7.5062  -7.4934  -7.4369  -7.4246  -7.3892  -7.3805  -7.3659
    -7.3529  -7.3472  -7.3429  -7.3244  -7.2891  -7.2728  -7.2574  -7.1966
    -7.1845  -7.1687  -7.1289  -7.1110  -7.0857  -7.0705  -7.0393  -7.0206
    -7.0011  -6.9818  -6.9764  -6.9653  -6.9517  -6.9381  -6.9273  -6.9155
    -6.9026  -6.8879  -6.8812  -6.8726  -6.8657  -6.8594  -6.8214  -6.8170
    -6.7889  -6.7729  -6.7531  -6.7394  -6.7364  -6.3302  -4.8570  -4.8185
    -4.1274  -3.2112  -3.1072  -1.7928  -1.5356  -1.3316  -0.4645  -0.4186
    -0.1310   0.5197   1.3376   1.8579   1.9096   2.7518   3.0649   3.0966
     3.1106   3.7263

          k = 0.0297-0.1201 0.0000 ( 16986 PWs)   bands (ev):

  -126.5821-126.4621-126.4440-126.4437-126.4434-126.2488-126.2220-126.2217
  -126.2214-126.2128-126.2125-126.2122 -80.8135 -80.7204 -80.7203 -80.6453
   -80.6387 -80.6378 -80.6262 -80.6237 -80.6229 -80.6205 -80.6179 -80.6175
   -80.6171 -80.6162 -80.6129 -80.4421 -80.4209 -80.4206 -80.4138 -80.4134
   -80.4131 -80.4034 -80.4019 -80.4004 -80.4001 -80.3998 -80.3994 -80.3906
   -80.3902 -80.3884 -80.3871 -80.3869 -80.3858 -80.3832 -80.3824 -80.3788
    -8.4967  -8.0828  -7.8606  -7.7845  -7.7672  -7.7575  -7.7469  -7.7429
    -7.7199  -7.6966  -7.6812  -7.6544  -7.6027  -7.5897  -7.5661  -7.5288
    -7.5141  -7.4612  -7.4410  -7.4329  -7.4075  -7.3982  -7.3808  -7.3599
    -7.3421  -7.3199  -7.3045  -7.2958  -7.2862  -7.2665  -7.2411  -7.2261
    -7.2083  -7.1947  -7.1807  -7.1372  -7.1060  -7.1026  -7.0839  -7.0732
    -7.0646  -7.0505  -7.0291  -7.0224  -7.0017  -6.9945  -6.9813  -6.9756
    -6.9509  -6.9425  -6.9249  -6.9119  -6.9029  -6.8753  -6.8576  -6.8401
    -6.8293  -6.8088  -6.8041  -6.7805  -6.7674  -6.2121  -5.7664  -5.1424
    -4.7374  -3.7566  -3.1903  -2.1952  -1.8078  -1.1698  -0.3066   0.0333
     0.3821   1.0713   1.9554   2.1670   2.6086   2.6619   3.4113   3.7440
     4.0725   4.4489

          k = 0.0297-0.0858 0.0000 ( 16986 PWs)   bands (ev):

  -126.5821-126.4621-126.4440-126.4437-126.4434-126.2488-126.2220-126.2217
  -126.2214-126.2128-126.2125-126.2122 -80.8135 -80.7204 -80.7203 -80.6453
   -80.6387 -80.6378 -80.6262 -80.6237 -80.6229 -80.6205 -80.6179 -80.6175
   -80.6171 -80.6162 -80.6129 -80.4421 -80.4209 -80.4206 -80.4138 -80.4134
   -80.4131 -80.4034 -80.4019 -80.4004 -80.4001 -80.3998 -80.3994 -80.3906
   -80.3902 -80.3884 -80.3871 -80.3869 -80.3858 -80.3832 -80.3824 -80.3788
    -8.4967  -8.0828  -7.8606  -7.7845  -7.7672  -7.7575  -7.7469  -7.7429
    -7.7199  -7.6966  -7.6812  -7.6544  -7.6027  -7.5897  -7.5661  -7.5288
    -7.5141  -7.4612  -7.4410  -7.4329  -7.4075  -7.3982  -7.3808  -7.3599
    -7.3421  -7.3199  -7.3045  -7.2958  -7.2862  -7.2665  -7.2411  -7.2261
    -7.2083  -7.1947  -7.1807  -7.1372  -7.1060  -7.1026  -7.0839  -7.0732
    -7.0646  -7.0505  -7.0291  -7.0224  -7.0017  -6.9945  -6.9813  -6.9756
    -6.9509  -6.9425  -6.9249  -6.9119  -6.9029  -6.8753  -6.8576  -6.8401
    -6.8293  -6.8088  -6.8041  -6.7805  -6.7674  -6.2121  -5.7664  -5.1424
    -4.7374  -3.7566  -3.1903  -2.1952  -1.8078  -1.1698  -0.3066   0.0333
     0.3821   1.0713   1.9554   2.1670   2.6086   2.6619   3.4113   3.7440
     4.0725   4.4489

          k = 0.0297-0.0515 0.0000 ( 16978 PWs)   bands (ev):

  -126.5821-126.4621-126.4441-126.4435-126.4434-126.2488-126.2222-126.2216
  -126.2214-126.2130-126.2124-126.2122 -80.8134 -80.7203 -80.7203 -80.6452
   -80.6393 -80.6386 -80.6253 -80.6241 -80.6225 -80.6222 -80.6177 -80.6174
   -80.6171 -80.6143 -80.6126 -80.4420 -80.4212 -80.4209 -80.4139 -80.4133
   -80.4131 -80.4035 -80.4027 -80.4002 -80.3996 -80.3996 -80.3994 -80.3926
   -80.3899 -80.3893 -80.3879 -80.3861 -80.3847 -80.3830 -80.3801 -80.3785
    -8.7498  -8.3740  -7.9127  -7.8945  -7.8516  -7.8477  -7.8430  -7.8192
    -7.7963  -7.7882  -7.7620  -7.7306  -7.6574  -7.6211  -7.6029  -7.5501
    -7.5202  -7.5062  -7.4934  -7.4369  -7.4246  -7.3892  -7.3805  -7.3659
    -7.3529  -7.3472  -7.3429  -7.3244  -7.2891  -7.2728  -7.2574  -7.1966
    -7.1845  -7.1687  -7.1289  -7.1110  -7.0857  -7.0705  -7.0393  -7.0206
    -7.0011  -6.9818  -6.9764  -6.9653  -6.9517  -6.9381  -6.9273  -6.9155
    -6.9026  -6.8879  -6.8812  -6.8726  -6.8657  -6.8594  -6.8214  -6.8170
    -6.7889  -6.7729  -6.7531  -6.7394  -6.7364  -6.3302  -4.8570  -4.8185
    -4.1274  -3.2112  -3.1072  -1.7928  -1.5356  -1.3316  -0.4645  -0.4186
    -0.1310   0.5197   1.3376   1.8579   1.9096   2.7518   3.0649   3.0966
     3.1106   3.7262

          k = 0.0595-0.0343 0.0000 ( 16996 PWs)   bands (ev):

  -126.5821-126.4621-126.4441-126.4436-126.4434-126.2488-126.2222-126.2216
  -126.2214-126.2129-126.2124-126.2122 -80.8135 -80.7203 -80.7203 -80.6453
   -80.6392 -80.6382 -80.6259 -80.6237 -80.6223 -80.6220 -80.6177 -80.6175
   -80.6171 -80.6150 -80.6127 -80.4421 -80.4212 -80.4207 -80.4139 -80.4133
   -80.4131 -80.4035 -80.4024 -80.4002 -80.3998 -80.3997 -80.3994 -80.3920
   -80.3904 -80.3885 -80.3875 -80.3863 -80.3854 -80.3830 -80.3809 -80.3785
    -8.6352  -8.3354  -7.9271  -7.8349  -7.8248  -7.8196  -7.8186  -7.7985
    -7.7849  -7.7544  -7.7407  -7.7147  -7.6288  -7.6019  -7.5718  -7.5268
    -7.5166  -7.5075  -7.4724  -7.4539  -7.4202  -7.3991  -7.3733  -7.3519
    -7.3413  -7.3330  -7.3248  -7.3128  -7.2789  -7.2612  -7.2321  -7.2191
    -7.2086  -7.1891  -7.1309  -7.1164  -7.0915  -7.0777  -7.0428  -7.0340
    -7.0292  -6.9928  -6.9911  -6.9749  -6.9721  -6.9629  -6.9521  -6.9407
    -6.9306  -6.9151  -6.9049  -6.9033  -6.8908  -6.8526  -6.8508  -6.8206
    -6.8056  -6.7714  -6.7612  -6.7565  -6.7348  -6.2033  -5.7575  -4.3563
    -3.7305  -3.4863  -3.4721  -2.2728  -1.7794  -1.5761  -0.7453   0.3280
     0.6268   0.8948   1.1467   1.6219   2.4225   2.7139   3.0237   3.2649
     3.6945   4.3146

          k = 0.0595 0.0000 0.0000 ( 16978 PWs)   bands (ev):

  -126.5821-126.4621-126.4441-126.4435-126.4434-126.2488-126.2222-126.2216
  -126.2214-126.2130-126.2124-126.2122 -80.8134 -80.7203 -80.7203 -80.6452
   -80.6393 -80.6386 -80.6253 -80.6241 -80.6225 -80.6222 -80.6177 -80.6174
   -80.6171 -80.6143 -80.6126 -80.4420 -80.4212 -80.4209 -80.4139 -80.4132
   -80.4131 -80.4035 -80.4027 -80.4002 -80.3996 -80.3996 -80.3994 -80.3926
   -80.3899 -80.3893 -80.3879 -80.3861 -80.3847 -80.3830 -80.3801 -80.3785
    -8.7498  -8.3740  -7.9127  -7.8945  -7.8516  -7.8477  -7.8430  -7.8192
    -7.7963  -7.7882  -7.7620  -7.7306  -7.6574  -7.6211  -7.6029  -7.5501
    -7.5202  -7.5062  -7.4934  -7.4369  -7.4246  -7.3892  -7.3805  -7.3659
    -7.3529  -7.3472  -7.3429  -7.3244  -7.2891  -7.2728  -7.2574  -7.1966
    -7.1845  -7.1687  -7.1289  -7.1110  -7.0857  -7.0705  -7.0393  -7.0206
    -7.0011  -6.9818  -6.9764  -6.9653  -6.9517  -6.9381  -6.9273  -6.9155
    -6.9026  -6.8879  -6.8812  -6.8726  -6.8657  -6.8594  -6.8214  -6.8170
    -6.7889  -6.7729  -6.7531  -6.7394  -6.7364  -6.3302  -4.8570  -4.8185
    -4.1274  -3.2112  -3.1072  -1.7928  -1.5356  -1.3316  -0.4645  -0.4186
    -0.1310   0.5197   1.3376   1.8579   1.9096   2.7518   3.0649   3.0966
     3.1106   3.7263

          k = 0.0595 0.0343 0.0000 ( 16996 PWs)   bands (ev):

  -126.5821-126.4621-126.4441-126.4436-126.4434-126.2488-126.2222-126.2216
  -126.2214-126.2130-126.2124-126.2122 -80.8135 -80.7203 -80.7203 -80.6453
   -80.6392 -80.6382 -80.6259 -80.6237 -80.6223 -80.6220 -80.6177 -80.6175
   -80.6171 -80.6150 -80.6127 -80.4421 -80.4212 -80.4207 -80.4139 -80.4133
   -80.4131 -80.4035 -80.4024 -80.4002 -80.3998 -80.3997 -80.3994 -80.3920
   -80.3904 -80.3885 -80.3875 -80.3863 -80.3854 -80.3830 -80.3809 -80.3785
    -8.6352  -8.3354  -7.9271  -7.8349  -7.8248  -7.8196  -7.8186  -7.7985
    -7.7849  -7.7544  -7.7407  -7.7147  -7.6288  -7.6019  -7.5718  -7.5268
    -7.5166  -7.5075  -7.4724  -7.4539  -7.4202  -7.3992  -7.3733  -7.3519
    -7.3413  -7.3330  -7.3248  -7.3128  -7.2789  -7.2612  -7.2321  -7.2191
    -7.2086  -7.1891  -7.1309  -7.1164  -7.0915  -7.0777  -7.0428  -7.0340
    -7.0292  -6.9928  -6.9911  -6.9749  -6.9721  -6.9629  -6.9521  -6.9407
    -6.9306  -6.9151  -6.9049  -6.9033  -6.8908  -6.8526  -6.8508  -6.8206
    -6.8056  -6.7714  -6.7612  -6.7565  -6.7348  -6.2033  -5.7575  -4.3563
    -3.7305  -3.4863  -3.4721  -2.2728  -1.7794  -1.5761  -0.7453   0.3280
     0.6268   0.8948   1.1467   1.6219   2.4225   2.7139   3.0237   3.2649
     3.6945   4.3146

          k = 0.0595-0.1373 0.0000 ( 16986 PWs)   bands (ev):

  -126.5821-126.4621-126.4440-126.4437-126.4434-126.2488-126.2220-126.2217
  -126.2214-126.2128-126.2125-126.2122 -80.8135 -80.7204 -80.7203 -80.6453
   -80.6387 -80.6378 -80.6262 -80.6237 -80.6229 -80.6205 -80.6179 -80.6175
   -80.6171 -80.6162 -80.6129 -80.4421 -80.4209 -80.4206 -80.4138 -80.4134
   -80.4131 -80.4034 -80.4019 -80.4005 -80.4001 -80.3998 -80.3994 -80.3906
   -80.3902 -80.3884 -80.3871 -80.3869 -80.3858 -80.3832 -80.3824 -80.3788
    -8.4967  -8.0828  -7.8606  -7.7845  -7.7672  -7.7575  -7.7469  -7.7429
    -7.7199  -7.6966  -7.6812  -7.6544  -7.6027  -7.5897  -7.5661  -7.5288
    -7.5141  -7.4612  -7.4410  -7.4329  -7.4075  -7.3982  -7.3808  -7.3599
    -7.3421  -7.3199  -7.3045  -7.2958  -7.2862  -7.2665  -7.2411  -7.2261
    -7.2083  -7.1947  -7.1807  -7.1372  -7.1060  -7.1026  -7.0839  -7.0732
    -7.0646  -7.0505  -7.0291  -7.0224  -7.0017  -6.9945  -6.9813  -6.9756
    -6.9509  -6.9425  -6.9249  -6.9119  -6.9029  -6.8753  -6.8576  -6.8401
    -6.8293  -6.8088  -6.8041  -6.7805  -6.7674  -6.2121  -5.7664  -5.1424
    -4.7374  -3.7566  -3.1903  -2.1952  -1.8078  -1.1698  -0.3066   0.0333
     0.3821   1.0713   1.9554   2.1670   2.6086   2.6619   3.4113   3.7440
     4.0725   4.4489

          k = 0.0595-0.1030 0.0000 ( 17004 PWs)   bands (ev):

  -126.5821-126.4621-126.4438-126.4438-126.4434-126.2488-126.2219-126.2219
  -126.2214-126.2127-126.2127-126.2122 -80.8134 -80.7204 -80.7204 -80.6452
   -80.6381 -80.6381 -80.6260 -80.6238 -80.6238 -80.6188 -80.6188 -80.6172
   -80.6171 -80.6170 -80.6133 -80.4420 -80.4207 -80.4207 -80.4136 -80.4136
   -80.4131 -80.4033 -80.4013 -80.4013 -80.3999 -80.3999 -80.3994 -80.3898
   -80.3888 -80.3887 -80.3882 -80.3882 -80.3840 -80.3839 -80.3834 -80.3792
    -8.4733  -7.8043  -7.7914  -7.7479  -7.7069  -7.6882  -7.6862  -7.6840
    -7.6715  -7.6574  -7.6486  -7.6420  -7.6417  -7.6329  -7.6298  -7.5610
    -7.5304  -7.4747  -7.4519  -7.4508  -7.4300  -7.3624  -7.3614  -7.3275
    -7.3177  -7.3123  -7.2897  -7.2864  -7.2791  -7.2580  -7.2531  -7.2270
    -7.2265  -7.2192  -7.2019  -7.1678  -7.1671  -7.1559  -7.1350  -7.1341
    -7.0936  -7.0754  -7.0477  -7.0209  -7.0208  -7.0029  -6.9936  -6.9928
    -6.9412  -6.9410  -6.9380  -6.9169  -6.8749  -6.8524  -6.8520  -6.8440
    -6.8312  -6.8304  -6.8225  -6.8217  -6.3080  -6.3026  -6.2927  -5.1973
    -4.7277  -4.7216  -3.0932  -1.9844  -1.9773  -0.2116   0.1739   0.2145
     0.3033   1.4435   1.4481   1.5691   2.0791   2.2029   3.2476   4.2589
     4.4310   4.6385

          k = 0.0595-0.0686 0.0000 ( 16986 PWs)   bands (ev):

  -126.5821-126.4621-126.4440-126.4437-126.4434-126.2488-126.2220-126.2217
  -126.2214-126.2128-126.2125-126.2122 -80.8135 -80.7204 -80.7203 -80.6453
   -80.6387 -80.6378 -80.6262 -80.6237 -80.6229 -80.6205 -80.6179 -80.6175
   -80.6171 -80.6162 -80.6129 -80.4421 -80.4209 -80.4206 -80.4138 -80.4134
   -80.4131 -80.4034 -80.4019 -80.4004 -80.4001 -80.3998 -80.3994 -80.3906
   -80.3902 -80.3884 -80.3871 -80.3869 -80.3858 -80.3832 -80.3824 -80.3788
    -8.4967  -8.0828  -7.8606  -7.7845  -7.7672  -7.7575  -7.7469  -7.7429
    -7.7199  -7.6966  -7.6812  -7.6544  -7.6027  -7.5897  -7.5661  -7.5288
    -7.5141  -7.4612  -7.4410  -7.4329  -7.4075  -7.3982  -7.3808  -7.3599
    -7.3421  -7.3199  -7.3045  -7.2958  -7.2862  -7.2665  -7.2411  -7.2261
    -7.2083  -7.1947  -7.1807  -7.1372  -7.1060  -7.1026  -7.0839  -7.0732
    -7.0646  -7.0505  -7.0291  -7.0224  -7.0017  -6.9945  -6.9813  -6.9756
    -6.9509  -6.9425  -6.9249  -6.9119  -6.9029  -6.8753  -6.8576  -6.8401
    -6.8293  -6.8088  -6.8041  -6.7805  -6.7674  -6.2121  -5.7664  -5.1424
    -4.7374  -3.7566  -3.1903  -2.1952  -1.8078  -1.1698  -0.3066   0.0333
     0.3821   1.0713   1.9554   2.1670   2.6086   2.6619   3.4113   3.7440
     4.0725   4.4489

          k =-0.0892 0.0515 0.0000 ( 17028 PWs)   bands (ev):

  -126.5821-126.4621-126.4440-126.4437-126.4434-126.2488-126.2220-126.2217
  -126.2214-126.2128-126.2125-126.2122 -80.8135 -80.7204 -80.7203 -80.6453
   -80.6390 -80.6375 -80.6266 -80.6235 -80.6227 -80.6204 -80.6181 -80.6176
   -80.6171 -80.6165 -80.6128 -80.4421 -80.4211 -80.4205 -80.4139 -80.4135
   -80.4130 -80.4036 -80.4016 -80.4006 -80.4002 -80.3998 -80.3994 -80.3907
   -80.3905 -80.3875 -80.3874 -80.3872 -80.3857 -80.3831 -80.3830 -80.3786
    -8.4900  -8.0120  -7.9630  -7.7883  -7.7826  -7.7725  -7.7486  -7.7383
    -7.6845  -7.6831  -7.6611  -7.6523  -7.6478  -7.5589  -7.5471  -7.5360
    -7.4980  -7.4486  -7.4423  -7.4411  -7.4362  -7.4116  -7.3756  -7.3375
    -7.3358  -7.3275  -7.2864  -7.2800  -7.2600  -7.2427  -7.2216  -7.1966
    -7.1869  -7.1774  -7.1728  -7.1037  -7.1004  -7.0950  -7.0767  -7.0694
    -7.0686  -7.0641  -7.0290  -7.0273  -7.0217  -7.0182  -6.9952  -6.9870
    -6.9562  -6.9348  -6.9247  -6.9197  -6.9122  -6.8972  -6.8768  -6.8262
    -6.8038  -6.8017  -6.7870  -6.7679  -6.7613  -6.7448  -5.5893  -5.2759
    -3.7654  -3.6477  -3.3988  -2.4914  -2.0543  -1.9360  -0.6679   0.6606
     0.7341   0.8530   2.4920   2.8231   2.9303   2.9698   2.9744   4.0268
     4.0737   4.1340

          k =-0.0892 0.0858 0.0000 ( 16986 PWs)   bands (ev):

  -126.5821-126.4621-126.4440-126.4437-126.4434-126.2488-126.2220-126.2217
  -126.2214-126.2128-126.2125-126.2122 -80.8135 -80.7204 -80.7203 -80.6453
   -80.6387 -80.6378 -80.6262 -80.6237 -80.6229 -80.6205 -80.6179 -80.6175
   -80.6171 -80.6162 -80.6129 -80.4421 -80.4209 -80.4206 -80.4138 -80.4134
   -80.4131 -80.4034 -80.4019 -80.4004 -80.4001 -80.3998 -80.3994 -80.3906
   -80.3902 -80.3884 -80.3871 -80.3869 -80.3858 -80.3832 -80.3824 -80.3788
    -8.4967  -8.0828  -7.8606  -7.7845  -7.7672  -7.7575  -7.7469  -7.7429
    -7.7199  -7.6966  -7.6812  -7.6544  -7.6027  -7.5897  -7.5661  -7.5288
    -7.5141  -7.4612  -7.4410  -7.4329  -7.4075  -7.3982  -7.3808  -7.3599
    -7.3421  -7.3199  -7.3045  -7.2958  -7.2862  -7.2665  -7.2411  -7.2261
    -7.2083  -7.1947  -7.1807  -7.1372  -7.1060  -7.1026  -7.0839  -7.0732
    -7.0646  -7.0505  -7.0291  -7.0224  -7.0017  -6.9945  -6.9813  -6.9756
    -6.9509  -6.9425  -6.9249  -6.9119  -6.9029  -6.8753  -6.8576  -6.8401
    -6.8293  -6.8088  -6.8041  -6.7805  -6.7674  -6.2121  -5.7664  -5.1424
    -4.7374  -3.7566  -3.1903  -2.1952  -1.8078  -1.1698  -0.3066   0.0333
     0.3821   1.0713   1.9554   2.1670   2.6086   2.6619   3.4113   3.7440
     4.0725   4.4489

          k =-0.0892 0.1201 0.0000 ( 16986 PWs)   bands (ev):

  -126.5821-126.4621-126.4440-126.4437-126.4434-126.2488-126.2220-126.2217
  -126.2214-126.2128-126.2125-126.2122 -80.8135 -80.7204 -80.7203 -80.6453
   -80.6387 -80.6378 -80.6262 -80.6237 -80.6229 -80.6205 -80.6179 -80.6175
   -80.6171 -80.6162 -80.6129 -80.4421 -80.4209 -80.4206 -80.4138 -80.4134
   -80.4131 -80.4034 -80.4019 -80.4005 -80.4001 -80.3998 -80.3994 -80.3906
   -80.3902 -80.3884 -80.3871 -80.3869 -80.3858 -80.3832 -80.3824 -80.3788
    -8.4967  -8.0828  -7.8606  -7.7845  -7.7672  -7.7575  -7.7469  -7.7429
    -7.7199  -7.6966  -7.6812  -7.6544  -7.6027  -7.5897  -7.5661  -7.5288
    -7.5141  -7.4612  -7.4410  -7.4329  -7.4075  -7.3982  -7.3808  -7.3599
    -7.3421  -7.3199  -7.3045  -7.2958  -7.2862  -7.2665  -7.2411  -7.2261
    -7.2083  -7.1947  -7.1807  -7.1372  -7.1060  -7.1026  -7.0839  -7.0732
    -7.0646  -7.0505  -7.0291  -7.0224  -7.0017  -6.9945  -6.9813  -6.9756
    -6.9509  -6.9425  -6.9249  -6.9119  -6.9029  -6.8753  -6.8576  -6.8401
    -6.8293  -6.8088  -6.8041  -6.7805  -6.7674  -6.2121  -5.7664  -5.1424
    -4.7374  -3.7566  -3.1903  -2.1952  -1.8078  -1.1698  -0.3066   0.0333
     0.3821   1.0713   1.9554   2.1670   2.6086   2.6619   3.4113   3.7440
     4.0725   4.4489

          k =-0.0892-0.0515 0.0000 ( 17028 PWs)   bands (ev):

  -126.5821-126.4621-126.4440-126.4437-126.4434-126.2488-126.2220-126.2217
  -126.2214-126.2128-126.2125-126.2122 -80.8135 -80.7204 -80.7203 -80.6453
   -80.6390 -80.6375 -80.6266 -80.6235 -80.6227 -80.6204 -80.6181 -80.6176
   -80.6171 -80.6165 -80.6128 -80.4421 -80.4211 -80.4205 -80.4139 -80.4135
   -80.4131 -80.4036 -80.4016 -80.4006 -80.4002 -80.3998 -80.3994 -80.3907
   -80.3905 -80.3875 -80.3874 -80.3872 -80.3857 -80.3831 -80.3830 -80.3786
    -8.4900  -8.0120  -7.9630  -7.7883  -7.7826  -7.7725  -7.7486  -7.7383
    -7.6845  -7.6831  -7.6611  -7.6523  -7.6478  -7.5589  -7.5471  -7.5360
    -7.4980  -7.4486  -7.4423  -7.4411  -7.4362  -7.4116  -7.3756  -7.3375
    -7.3358  -7.3275  -7.2864  -7.2800  -7.2600  -7.2427  -7.2216  -7.1966
    -7.1869  -7.1774  -7.1728  -7.1037  -7.1004  -7.0950  -7.0767  -7.0694
    -7.0686  -7.0641  -7.0290  -7.0273  -7.0217  -7.0182  -6.9952  -6.9870
    -6.9562  -6.9348  -6.9247  -6.9197  -6.9122  -6.8973  -6.8768  -6.8262
    -6.8038  -6.8017  -6.7870  -6.7678  -6.7613  -6.7448  -5.5893  -5.2759
    -3.7654  -3.6477  -3.3988  -2.4914  -2.0543  -1.9360  -0.6679   0.6606
     0.7341   0.8530   2.4920   2.8231   2.9303   2.9698   2.9744   4.0268
     4.0737   4.1340

     the Fermi energy is     0.3158 ev

!    total energy              =   -5554.36163126 Ry
     Harris-Foulkes estimate   =   -5554.36162830 Ry
     estimated scf accuracy    <       0.00000250 Ry

     The total energy is the sum of the following terms:

     one-electron contribution =  -35513.31874872 Ry
     hartree contribution      =   17734.39109152 Ry
     xc contribution           =    -521.64533125 Ry
     ewald contribution        =   12746.23583727 Ry
     electric field correction =       0.00001822 Ry
     smearing contrib. (-TS)   =      -0.02449830 Ry

     convergence has been achieved in   9 iterations
 
 BEEF-vdW xc energy contributions
           1 :   -463.518034023326     
           2 :    420.088524717285     
           3 :   -347.248097453328     
           4 :    266.132759742596     
           5 :   -195.440620653920     
           6 :    144.415283524159     
           7 :   -111.601948398257     
           8 :    89.0935372877896     
           9 :   -68.9887036101142     
          10 :    48.0036917731636     
          11 :   -27.9522160947913     
          12 :    12.7277528753665     
          13 :   -4.52445527258931     
          14 :    2.02978631572819     
          15 :   -1.51539129559910     
          16 :  -0.417565562505672     
          17 :    4.66219504764388     
          18 :   -9.50418660190508     
          19 :    12.4015384705200     
          20 :   -12.1189035854206     
          21 :    9.61329076859340     
          22 :   -7.16546180871984     
          23 :    6.59545702431808     
          24 :   -7.99285741453798     
          25 :    9.85988729624069     
          26 :   -10.4248681053169     
          27 :    9.02899248997653     
          28 :   -6.53827488385133     
          29 :    4.55989470110978     
          30 :   -4.16415798469097     
          31 :   -35.8235903105317     
          32 :   -24.4209045181531     

     Forces acting on atoms (Ry/au):

     atom    1 type  1   force =    -0.00330311   -0.00190853   -0.00707961
     atom    2 type  1   force =     0.00330412   -0.00190428   -0.00707782
     atom    3 type  1   force =     0.00000131    0.00381395   -0.00708032
     atom    4 type  1   force =    -0.00000045   -0.00000160   -0.00727116
     atom    5 type  1   force =     0.00000046   -0.00720970    0.00662194
     atom    6 type  1   force =     0.00000031   -0.00000055   -0.00668328
     atom    7 type  1   force =     0.00624551    0.00360451    0.00661893
     atom    8 type  1   force =    -0.00624574    0.00360291    0.00662118
     atom    9 type  1   force =     0.00000111    0.00000203   -0.20879691
     atom   10 type  1   force =    -0.00000089   -0.00380521    0.00110197
     atom   11 type  1   force =    -0.00329704    0.00190349    0.00110416
     atom   12 type  1   force =     0.00329464    0.00190275    0.00110243
     atom   13 type  2   force =    -0.00000024    0.00000021    0.22081847

     Total force =     0.303980     Total SCF correction =     0.001344


     entering subroutine stress ...

          total   stress  (Ry/bohr**3)                   (kbar)     P=   -8.25
  -0.00013942  -0.00000000   0.00000000        -20.51     -0.00      0.00
  -0.00000000  -0.00013942  -0.00000000         -0.00    -20.51     -0.00
   0.00000000  -0.00000000   0.00011058          0.00     -0.00     16.27


     BFGS Geometry Optimization

     number of scf cycles    =   1
     number of bfgs steps    =   0

     energy   new            =   -5554.3616312580 Ry

     new trust radius        =       0.2208184709 bohr
     new conv_thr            =       0.0000099958 Ry


ATOMIC_POSITIONS (crystal)
Zn1      0.166666667   0.166666667   0.406869400    0   0   0
Zn1      0.666666667   0.166666667   0.406869400    0   0   0
Zn1      0.166666667   0.666666667   0.406869400    0   0   0
Zn1      0.666666667   0.666666667   0.406869400    0   0   0
Zn1      0.833333333   0.333333333   0.500000000    0   0   0
Zn1      0.333333333   0.333333333   0.500000000    0   0   0
Zn1      0.833333333   0.833333333   0.500000000    0   0   0
Zn1      0.333333333   0.833333333   0.500000000    0   0   0
Zn1     -0.000000006   0.000000222   0.588635077
Zn1      0.500207267  -0.000414702   0.593154326
Zn1     -0.000414904   0.500207448   0.593154373
Zn1      0.500207271   0.500207367   0.593154336
H1      -0.000000034   0.000000023   0.650798320



     Writing output data file calc.save
     Check: negative starting charge=   -0.000852
     NEW-OLD atomic charge density approx. for the potential
     Check: negative starting charge=   -0.000845

     negative rho (up, down):  1.130E-03 0.000E+00
 
     Adding external electric field

     Computed dipole along edir(3) : 
        Dipole               -0.0809 Ry au,         -0.2057 Debye
        Dipole field         -0.0002 Ry au
 
        Potential amp.        0.0204 Ry
        Total length         45.2844 bohr
 

     total cpu time spent up to now is      315.8 secs

     per-process dynamical memory:   123.3 Mb

     Self-consistent Calculation

     iteration #  1     ecut=    36.75 Ry     beta=0.30
     Davidson diagonalization with overlap
     ethr =  1.00E-06,  avg # of iterations =  6.5

     negative rho (up, down):  1.051E-03 0.000E+00
 
     Adding external electric field

     Computed dipole along edir(3) : 
        Dipole               -0.0999 Ry au,         -0.2538 Debye
        Dipole field         -0.0003 Ry au
 
        Potential amp.        0.0252 Ry
        Total length         45.2844 bohr
 

     total cpu time spent up to now is      352.6 secs

     total energy              =   -5554.40450022 Ry
     Harris-Foulkes estimate   =   -5554.40552219 Ry
     estimated scf accuracy    <       0.00408547 Ry

     iteration #  2     ecut=    36.75 Ry     beta=0.30
     Davidson diagonalization with overlap
     ethr =  1.70E-06,  avg # of iterations =  2.1

     negative rho (up, down):  1.033E-03 0.000E+00
 
     Adding external electric field

     Computed dipole along edir(3) : 
        Dipole               -0.0584 Ry au,         -0.1483 Debye
        Dipole field         -0.0002 Ry au
 
        Potential amp.        0.0147 Ry
        Total length         45.2844 bohr
 

     total cpu time spent up to now is      374.8 secs

     total energy              =   -5554.40477000 Ry
     Harris-Foulkes estimate   =   -5554.40498974 Ry
     estimated scf accuracy    <       0.00134462 Ry

     iteration #  3     ecut=    36.75 Ry     beta=0.30
     Davidson diagonalization with overlap
     ethr =  5.58E-07,  avg # of iterations =  3.4

     negative rho (up, down):  1.048E-03 0.000E+00
 
     Adding external electric field

     Computed dipole along edir(3) : 
        Dipole               -0.1152 Ry au,         -0.2927 Debye
        Dipole field         -0.0003 Ry au
 
        Potential amp.        0.0290 Ry
        Total length         45.2844 bohr
 

     total cpu time spent up to now is      397.0 secs

     total energy              =   -5554.40441341 Ry
     Harris-Foulkes estimate   =   -5554.40538802 Ry
     estimated scf accuracy    <       0.01010385 Ry

     iteration #  4     ecut=    36.75 Ry     beta=0.30
     Davidson diagonalization with overlap
     ethr =  5.58E-07,  avg # of iterations =  3.6

     negative rho (up, down):  1.056E-03 0.000E+00
 
     Adding external electric field

     Computed dipole along edir(3) : 
        Dipole               -0.1158 Ry au,         -0.2942 Debye
        Dipole field         -0.0003 Ry au
 
        Potential amp.        0.0292 Ry
        Total length         45.2844 bohr
 

     total cpu time spent up to now is      419.0 secs

     total energy              =   -5554.40501862 Ry
     Harris-Foulkes estimate   =   -5554.40500710 Ry
     estimated scf accuracy    <       0.00062413 Ry

     iteration #  5     ecut=    36.75 Ry     beta=0.30
     Davidson diagonalization with overlap
     ethr =  2.59E-07,  avg # of iterations =  2.0

     negative rho (up, down):  1.075E-03 0.000E+00
 
     Adding external electric field

     Computed dipole along edir(3) : 
        Dipole               -0.1180 Ry au,         -0.2999 Debye
        Dipole field         -0.0003 Ry au
 
        Potential amp.        0.0297 Ry
        Total length         45.2844 bohr
 

     total cpu time spent up to now is      439.6 secs

     total energy              =   -5554.40506529 Ry
     Harris-Foulkes estimate   =   -5554.40506454 Ry
     estimated scf accuracy    <       0.00011774 Ry

     iteration #  6     ecut=    36.75 Ry     beta=0.30
     Davidson diagonalization with overlap
     ethr =  4.89E-08,  avg # of iterations =  2.7

     negative rho (up, down):  1.094E-03 0.000E+00
 
     Adding external electric field

     Computed dipole along edir(3) : 
        Dipole               -0.1168 Ry au,         -0.2970 Debye
        Dipole field         -0.0003 Ry au
 
        Potential amp.        0.0295 Ry
        Total length         45.2844 bohr
 

     total cpu time spent up to now is      460.8 secs

     total energy              =   -5554.40508414 Ry
     Harris-Foulkes estimate   =   -5554.40507843 Ry
     estimated scf accuracy    <       0.00001374 Ry

     iteration #  7     ecut=    36.75 Ry     beta=0.30
     Davidson diagonalization with overlap
     ethr =  5.70E-09,  avg # of iterations =  2.4

     negative rho (up, down):  1.116E-03 0.000E+00

     negative rho (up, down):  1.116E-03 0.000E+00

     negative rho (up, down):  1.116E-03 0.000E+00

     negative rho (up, down):  1.116E-03 0.000E+00

     negative rho (up, down):  1.116E-03 0.000E+00

     negative rho (up, down):  1.116E-03 0.000E+00

     negative rho (up, down):  1.116E-03 0.000E+00

     negative rho (up, down):  1.116E-03 0.000E+00

     negative rho (up, down):  1.116E-03 0.000E+00

     negative rho (up, down):  1.116E-03 0.000E+00

     negative rho (up, down):  1.116E-03 0.000E+00

     negative rho (up, down):  1.116E-03 0.000E+00

     negative rho (up, down):  1.116E-03 0.000E+00

     negative rho (up, down):  1.116E-03 0.000E+00

     negative rho (up, down):  1.116E-03 0.000E+00

     negative rho (up, down):  1.116E-03 0.000E+00

     negative rho (up, down):  1.116E-03 0.000E+00

     negative rho (up, down):  1.116E-03 0.000E+00

     negative rho (up, down):  1.116E-03 0.000E+00

     negative rho (up, down):  1.116E-03 0.000E+00

     negative rho (up, down):  1.116E-03 0.000E+00

     negative rho (up, down):  1.116E-03 0.000E+00

     negative rho (up, down):  1.116E-03 0.000E+00

     negative rho (up, down):  1.116E-03 0.000E+00

     negative rho (up, down):  1.116E-03 0.000E+00

     negative rho (up, down):  1.116E-03 0.000E+00

     negative rho (up, down):  1.116E-03 0.000E+00

     negative rho (up, down):  1.116E-03 0.000E+00

     negative rho (up, down):  1.116E-03 0.000E+00

     negative rho (up, down):  1.116E-03 0.000E+00

     negative rho (up, down):  1.116E-03 0.000E+00

     negative rho (up, down):  1.116E-03 0.000E+00

     negative rho (up, down):  1.116E-03 0.000E+00

     negative rho (up, down):  1.116E-03 0.000E+00

     negative rho (up, down):  1.116E-03 0.000E+00
 
     Adding external electric field

     Computed dipole along edir(3) : 
        Dipole               -0.1146 Ry au,         -0.2913 Debye
        Dipole field         -0.0003 Ry au
 
        Potential amp.        0.0289 Ry
        Total length         45.2844 bohr
 

     total cpu time spent up to now is      528.2 secs

     End of self-consistent calculation

          k = 0.0000 0.0000 0.0000 ( 16931 PWs)   bands (ev):

  -126.5076-126.5028-126.5020-126.5020-126.3785-126.2941-126.2709-126.2700
  -126.2700-126.2586-126.2577-126.2577 -80.6906 -80.6896 -80.6896 -80.6833
   -80.6788 -80.6776 -80.6776 -80.6771 -80.6761 -80.6761 -80.6708 -80.6708
   -80.5571 -80.5571 -80.5259 -80.4870 -80.4667 -80.4667 -80.4625 -80.4616
   -80.4616 -80.4524 -80.4524 -80.4474 -80.4456 -80.4448 -80.4448 -80.4434
   -80.4357 -80.4349 -80.4349 -80.4316 -80.4316 -80.4304 -80.4234 -80.4234
    -9.2764  -8.1026  -8.0595  -8.0595  -8.0554  -7.9902  -7.9747  -7.9747
    -7.9688  -7.8748  -7.8748  -7.8508  -7.7297  -7.7297  -7.7114  -7.5664
    -7.5211  -7.5211  -7.4780  -7.4780  -7.4641  -7.4640  -7.4640  -7.4400
    -7.4072  -7.4072  -7.3931  -7.3535  -7.3535  -7.3264  -7.2566  -7.2566
    -7.1179  -7.1179  -7.0494  -7.0494  -7.0364  -7.0364  -7.0199  -6.9986
    -6.9908  -6.9908  -6.9372  -6.9372  -6.9334  -6.9320  -6.9320  -6.9199
    -6.8707  -6.8707  -6.8670  -6.8512  -6.8512  -6.8232  -6.8210  -6.8210
    -6.7258  -6.7258  -6.6930  -6.6876  -6.6876  -6.6746  -4.3611  -2.4205
    -2.3128  -2.3128  -2.0978  -1.9366  -1.9366  -1.8986  -0.9227  -0.8673
    -0.8673  -0.4215   0.1929   0.1929   0.7541   2.0856   2.0856   2.3458
     2.5806   2.6019

          k = 0.0000 0.0343 0.0000 ( 16966 PWs)   bands (ev):

  -126.5076-126.5028-126.5020-126.5020-126.3785-126.2941-126.2709-126.2701
  -126.2700-126.2586-126.2578-126.2577 -80.6907 -80.6891 -80.6887 -80.6825
   -80.6793 -80.6784 -80.6777 -80.6773 -80.6762 -80.6762 -80.6716 -80.6710
   -80.5571 -80.5571 -80.5260 -80.4871 -80.4666 -80.4664 -80.4627 -80.4617
   -80.4617 -80.4523 -80.4521 -80.4479 -80.4458 -80.4448 -80.4448 -80.4426
   -80.4353 -80.4347 -80.4346 -80.4324 -80.4317 -80.4308 -80.4242 -80.4237
    -9.1004  -8.0692  -8.0250  -8.0078  -7.9983  -7.9456  -7.9445  -7.9407
    -7.8805  -7.8559  -7.8451  -7.8256  -7.7007  -7.6800  -7.6663  -7.5676
    -7.5323  -7.5017  -7.4860  -7.4798  -7.4648  -7.4459  -7.4430  -7.4254
    -7.4118  -7.3986  -7.3867  -7.3828  -7.3368  -7.3104  -7.2684  -7.2223
    -7.1698  -7.1145  -7.1092  -7.0979  -7.0611  -7.0512  -7.0353  -7.0238
    -7.0049  -6.9930  -6.9752  -6.9630  -6.9614  -6.9524  -6.9451  -6.9348
    -6.9241  -6.8785  -6.8779  -6.8723  -6.8527  -6.8467  -6.8418  -6.7788
    -6.7617  -6.7401  -6.7391  -6.7300  -6.7187  -6.6293  -4.2703  -4.1466
    -3.0821  -3.0413  -2.6023  -1.9247  -1.3751  -1.2737  -0.8395  -0.8038
    -0.2581   0.1940   0.7454   0.9579   1.0468   1.5563   2.0075   2.4475
     3.0152   3.5348

          k = 0.0000 0.0686 0.0000 ( 16996 PWs)   bands (ev):

  -126.5076-126.5027-126.5021-126.5020-126.3785-126.2941-126.2707-126.2702
  -126.2700-126.2584-126.2579-126.2577 -80.6907 -80.6880 -80.6866 -80.6813
   -80.6803 -80.6798 -80.6776 -80.6771 -80.6765 -80.6762 -80.6738 -80.6713
   -80.5571 -80.5570 -80.5260 -80.4871 -80.4664 -80.4660 -80.4625 -80.4619
   -80.4617 -80.4524 -80.4512 -80.4487 -80.4456 -80.4450 -80.4448 -80.4409
   -80.4358 -80.4344 -80.4339 -80.4329 -80.4320 -80.4317 -80.4264 -80.4240
    -8.6119  -8.0151  -7.9281  -7.8802  -7.8761  -7.8639  -7.8627  -7.8439
    -7.8268  -7.7787  -7.7614  -7.6853  -7.6356  -7.6140  -7.5790  -7.5639
    -7.5253  -7.5111  -7.5020  -7.4838  -7.4377  -7.4051  -7.4030  -7.3893
    -7.3815  -7.3684  -7.3644  -7.3608  -7.3121  -7.2984  -7.2599  -7.2521
    -7.2326  -7.2287  -7.1296  -7.1294  -7.1096  -7.0868  -7.0807  -7.0715
    -7.0712  -7.0307  -7.0234  -7.0150  -7.0087  -6.9966  -6.9850  -6.9756
    -6.9700  -6.9608  -6.9422  -6.9420  -6.9277  -6.8863  -6.8654  -6.8545
    -6.8455  -6.8139  -6.8044  -6.8006  -6.7836  -6.2253  -5.8144  -4.2975
    -3.7183  -3.5503  -3.5496  -2.2485  -1.8256  -1.6309  -0.7813   0.2943
     0.6052   0.8117   1.1093   1.5577   2.3787   2.6641   2.9601   3.2034
     3.6668   4.2810

          k = 0.0000-0.1030 0.0000 ( 17028 PWs)   bands (ev):

  -126.5076-126.5026-126.5022-126.5020-126.3785-126.2941-126.2706-126.2703
  -126.2700-126.2583-126.2580-126.2577 -80.6907 -80.6873 -80.6844 -80.6830
   -80.6811 -80.6788 -80.6775 -80.6770 -80.6767 -80.6762 -80.6757 -80.6714
   -80.5571 -80.5570 -80.5260 -80.4872 -80.4663 -80.4658 -80.4625 -80.4620
   -80.4616 -80.4525 -80.4505 -80.4496 -80.4456 -80.4452 -80.4448 -80.4394
   -80.4361 -80.4361 -80.4329 -80.4328 -80.4320 -80.4311 -80.4284 -80.4240
    -8.1294  -8.0610  -7.8738  -7.8322  -7.8299  -7.8197  -7.7697  -7.7550
    -7.7358  -7.7315  -7.7148  -7.7038  -7.6269  -7.5890  -7.5715  -7.5494
    -7.5398  -7.4904  -7.4852  -7.4819  -7.4217  -7.4166  -7.4047  -7.3815
    -7.3490  -7.3375  -7.3252  -7.2821  -7.2756  -7.2654  -7.2518  -7.2398
    -7.2344  -7.2187  -7.1944  -7.1463  -7.1456  -7.1253  -7.1159  -7.1139
    -7.0976  -7.0734  -7.0695  -7.0691  -7.0561  -7.0391  -7.0114  -6.9888
    -6.9881  -6.9825  -6.9668  -6.9599  -6.9519  -6.9446  -6.8943  -6.8546
    -6.8483  -6.8393  -6.8305  -6.8093  -6.8084  -6.7944  -5.5570  -5.3241
    -3.7706  -3.7115  -3.3567  -2.5100  -2.1024  -1.9823  -0.7094   0.6619
     0.6907   0.8230   2.3813   2.7596   2.8509   2.8980   2.9206   3.9686
     4.0378   4.0994

          k = 0.0297-0.0172 0.0000 ( 16966 PWs)   bands (ev):

  -126.5076-126.5028-126.5020-126.5020-126.3785-126.2941-126.2709-126.2701
  -126.2700-126.2586-126.2578-126.2577 -80.6907 -80.6891 -80.6887 -80.6825
   -80.6793 -80.6784 -80.6777 -80.6773 -80.6762 -80.6762 -80.6716 -80.6710
   -80.5571 -80.5571 -80.5260 -80.4871 -80.4666 -80.4664 -80.4627 -80.4617
   -80.4617 -80.4523 -80.4521 -80.4479 -80.4458 -80.4448 -80.4448 -80.4426
   -80.4353 -80.4347 -80.4346 -80.4324 -80.4317 -80.4308 -80.4242 -80.4237
    -9.1004  -8.0692  -8.0250  -8.0078  -7.9983  -7.9456  -7.9445  -7.9407
    -7.8805  -7.8559  -7.8451  -7.8256  -7.7007  -7.6800  -7.6663  -7.5676
    -7.5323  -7.5017  -7.4860  -7.4798  -7.4648  -7.4459  -7.4430  -7.4254
    -7.4118  -7.3986  -7.3867  -7.3828  -7.3368  -7.3104  -7.2684  -7.2223
    -7.1698  -7.1145  -7.1092  -7.0979  -7.0611  -7.0512  -7.0353  -7.0238
    -7.0049  -6.9930  -6.9752  -6.9630  -6.9614  -6.9524  -6.9451  -6.9348
    -6.9241  -6.8785  -6.8779  -6.8723  -6.8527  -6.8467  -6.8418  -6.7788
    -6.7617  -6.7401  -6.7391  -6.7300  -6.7187  -6.6293  -4.2703  -4.1466
    -3.0821  -3.0413  -2.6023  -1.9247  -1.3751  -1.2737  -0.8395  -0.8038
    -0.2581   0.1940   0.7454   0.9579   1.0468   1.5563   2.0075   2.4475
     3.0152   3.5348

          k = 0.0297 0.0172 0.0000 ( 16966 PWs)   bands (ev):

  -126.5076-126.5028-126.5020-126.5020-126.3785-126.2941-126.2709-126.2701
  -126.2700-126.2586-126.2578-126.2577 -80.6907 -80.6891 -80.6887 -80.6825
   -80.6793 -80.6784 -80.6777 -80.6773 -80.6762 -80.6762 -80.6716 -80.6710
   -80.5571 -80.5571 -80.5260 -80.4871 -80.4666 -80.4664 -80.4627 -80.4617
   -80.4617 -80.4523 -80.4521 -80.4479 -80.4458 -80.4448 -80.4448 -80.4426
   -80.4353 -80.4347 -80.4346 -80.4324 -80.4317 -80.4308 -80.4242 -80.4237
    -9.1004  -8.0692  -8.0250  -8.0078  -7.9983  -7.9456  -7.9445  -7.9407
    -7.8805  -7.8559  -7.8451  -7.8256  -7.7007  -7.6800  -7.6663  -7.5676
    -7.5323  -7.5017  -7.4860  -7.4798  -7.4648  -7.4459  -7.4430  -7.4254
    -7.4118  -7.3986  -7.3867  -7.3828  -7.3368  -7.3104  -7.2684  -7.2223
    -7.1698  -7.1145  -7.1092  -7.0979  -7.0611  -7.0512  -7.0353  -7.0238
    -7.0049  -6.9930  -6.9752  -6.9630  -6.9614  -6.9524  -6.9451  -6.9348
    -6.9241  -6.8785  -6.8779  -6.8723  -6.8527  -6.8467  -6.8418  -6.7788
    -6.7617  -6.7401  -6.7391  -6.7300  -6.7187  -6.6293  -4.2703  -4.1466
    -3.0821  -3.0413  -2.6023  -1.9247  -1.3751  -1.2737  -0.8395  -0.8038
    -0.2581   0.1940   0.7454   0.9579   1.0468   1.5563   2.0075   2.4475
     3.0152   3.5348

          k = 0.0297 0.0515 0.0000 ( 16978 PWs)   bands (ev):

  -126.5076-126.5027-126.5021-126.5019-126.3785-126.2941-126.2708-126.2702
  -126.2700-126.2585-126.2579-126.2577 -80.6907 -80.6883 -80.6874 -80.6815
   -80.6805 -80.6789 -80.6779 -80.6771 -80.6764 -80.6762 -80.6730 -80.6713
   -80.5571 -80.5570 -80.5260 -80.4871 -80.4664 -80.4661 -80.4625 -80.4618
   -80.4617 -80.4523 -80.4515 -80.4485 -80.4456 -80.4450 -80.4448 -80.4415
   -80.4353 -80.4347 -80.4337 -80.4333 -80.4319 -80.4315 -80.4256 -80.4239
    -8.7647  -8.0102  -7.9644  -7.9205  -7.9021  -7.8944  -7.8878  -7.8714
    -7.8222  -7.8142  -7.7727  -7.7233  -7.6320  -7.6244  -7.6110  -7.5744
    -7.5350  -7.5250  -7.4808  -7.4619  -7.4595  -7.4149  -7.4092  -7.4089
    -7.3927  -7.3867  -7.3783  -7.3680  -7.3287  -7.2980  -7.2845  -7.2374
    -7.2069  -7.2052  -7.1478  -7.1236  -7.0911  -7.0784  -7.0581  -7.0560
    -7.0458  -7.0256  -7.0146  -7.0010  -6.9963  -6.9760  -6.9643  -6.9551
    -6.9432  -6.9284  -6.9127  -6.9035  -6.9016  -6.8825  -6.8616  -6.8570
    -6.8197  -6.8101  -6.8006  -6.7849  -6.7814  -6.3582  -4.9181  -4.8681
    -4.0272  -3.2535  -3.1519  -1.7817  -1.6089  -1.4008  -0.4920  -0.4375
    -0.1823   0.4725   1.2724   1.7815   1.8562   2.7203   3.0219   3.0597
     3.0915   3.6908

          k = 0.0297-0.1201 0.0000 ( 16986 PWs)   bands (ev):

  -126.5076-126.5026-126.5022-126.5019-126.3785-126.2941-126.2706-126.2703
  -126.2700-126.2583-126.2580-126.2577 -80.6907 -80.6870 -80.6851 -80.6827
   -80.6804 -80.6794 -80.6776 -80.6769 -80.6767 -80.6762 -80.6752 -80.6716
   -80.5571 -80.5570 -80.5260 -80.4871 -80.4662 -80.4658 -80.4624 -80.4620
   -80.4617 -80.4524 -80.4507 -80.4494 -80.4455 -80.4451 -80.4448 -80.4395
   -80.4358 -80.4356 -80.4338 -80.4325 -80.4321 -80.4312 -80.4278 -80.4242
    -8.2207  -7.9545  -7.8664  -7.8258  -7.8071  -7.8010  -7.7957  -7.7826
    -7.7627  -7.7330  -7.7208  -7.6744  -7.6439  -7.6312  -7.5619  -7.5348
    -7.5291  -7.4807  -7.4627  -7.4580  -7.4484  -7.4242  -7.4067  -7.3883
    -7.3686  -7.3598  -7.3411  -7.3080  -7.2832  -7.2781  -7.2708  -7.2576
    -7.2514  -7.2392  -7.2134  -7.1552  -7.1379  -7.1335  -7.1264  -7.1131
    -7.0976  -7.0732  -7.0614  -7.0434  -7.0359  -7.0252  -7.0159  -6.9981
    -6.9857  -6.9793  -6.9664  -6.9491  -6.9460  -6.9084  -6.8962  -6.8765
    -6.8602  -6.8519  -6.8444  -6.8289  -6.8123  -6.2624  -5.7694  -5.1981
    -4.7364  -3.7155  -3.2148  -2.1957  -1.8790  -1.1893  -0.3296  -0.0302
     0.3109   1.0258   1.9130   2.1170   2.5777   2.6140   3.3068   3.6795
     4.0450   4.3975

          k = 0.0297-0.0858 0.0000 ( 16986 PWs)   bands (ev):

  -126.5076-126.5026-126.5022-126.5019-126.3785-126.2941-126.2706-126.2703
  -126.2700-126.2583-126.2580-126.2577 -80.6907 -80.6870 -80.6851 -80.6827
   -80.6804 -80.6794 -80.6776 -80.6769 -80.6767 -80.6762 -80.6752 -80.6716
   -80.5571 -80.5570 -80.5260 -80.4871 -80.4662 -80.4658 -80.4624 -80.4620
   -80.4617 -80.4524 -80.4507 -80.4494 -80.4455 -80.4451 -80.4448 -80.4395
   -80.4358 -80.4356 -80.4338 -80.4325 -80.4321 -80.4312 -80.4278 -80.4242
    -8.2207  -7.9545  -7.8664  -7.8258  -7.8071  -7.8010  -7.7957  -7.7826
    -7.7627  -7.7330  -7.7208  -7.6744  -7.6439  -7.6312  -7.5619  -7.5348
    -7.5291  -7.4807  -7.4627  -7.4580  -7.4484  -7.4242  -7.4067  -7.3883
    -7.3686  -7.3598  -7.3411  -7.3080  -7.2832  -7.2781  -7.2708  -7.2576
    -7.2514  -7.2392  -7.2134  -7.1552  -7.1379  -7.1335  -7.1264  -7.1131
    -7.0976  -7.0732  -7.0614  -7.0434  -7.0359  -7.0252  -7.0159  -6.9981
    -6.9857  -6.9793  -6.9664  -6.9491  -6.9460  -6.9084  -6.8962  -6.8765
    -6.8602  -6.8519  -6.8444  -6.8289  -6.8123  -6.2624  -5.7694  -5.1981
    -4.7364  -3.7155  -3.2148  -2.1957  -1.8790  -1.1893  -0.3296  -0.0302
     0.3109   1.0258   1.9130   2.1170   2.5777   2.6140   3.3068   3.6795
     4.0450   4.3975

          k = 0.0297-0.0515 0.0000 ( 16978 PWs)   bands (ev):

  -126.5076-126.5027-126.5021-126.5019-126.3785-126.2941-126.2708-126.2702
  -126.2700-126.2585-126.2579-126.2577 -80.6907 -80.6883 -80.6874 -80.6815
   -80.6805 -80.6789 -80.6779 -80.6771 -80.6764 -80.6762 -80.6730 -80.6713
   -80.5571 -80.5570 -80.5260 -80.4871 -80.4664 -80.4661 -80.4625 -80.4618
   -80.4617 -80.4523 -80.4515 -80.4485 -80.4456 -80.4450 -80.4448 -80.4415
   -80.4353 -80.4347 -80.4337 -80.4333 -80.4319 -80.4315 -80.4256 -80.4239
    -8.7647  -8.0102  -7.9644  -7.9205  -7.9021  -7.8944  -7.8878  -7.8714
    -7.8222  -7.8142  -7.7727  -7.7233  -7.6320  -7.6244  -7.6110  -7.5744
    -7.5350  -7.5250  -7.4808  -7.4619  -7.4595  -7.4149  -7.4092  -7.4089
    -7.3927  -7.3867  -7.3783  -7.3680  -7.3287  -7.2980  -7.2845  -7.2374
    -7.2069  -7.2052  -7.1478  -7.1236  -7.0911  -7.0784  -7.0581  -7.0560
    -7.0458  -7.0256  -7.0146  -7.0010  -6.9963  -6.9760  -6.9643  -6.9551
    -6.9432  -6.9284  -6.9127  -6.9035  -6.9016  -6.8825  -6.8616  -6.8570
    -6.8197  -6.8101  -6.8006  -6.7849  -6.7814  -6.3582  -4.9181  -4.8681
    -4.0272  -3.2535  -3.1519  -1.7817  -1.6089  -1.4008  -0.4920  -0.4375
    -0.1823   0.4725   1.2724   1.7815   1.8562   2.7203   3.0219   3.0597
     3.0915   3.6908

          k = 0.0595-0.0343 0.0000 ( 16996 PWs)   bands (ev):

  -126.5076-126.5026-126.5021-126.5020-126.3785-126.2941-126.2707-126.2702
  -126.2700-126.2584-126.2579-126.2577 -80.6907 -80.6880 -80.6866 -80.6813
   -80.6803 -80.6798 -80.6776 -80.6771 -80.6765 -80.6762 -80.6738 -80.6713
   -80.5571 -80.5570 -80.5260 -80.4871 -80.4664 -80.4660 -80.4625 -80.4619
   -80.4617 -80.4524 -80.4512 -80.4487 -80.4456 -80.4450 -80.4448 -80.4409
   -80.4358 -80.4344 -80.4339 -80.4329 -80.4320 -80.4317 -80.4264 -80.4240
    -8.6119  -8.0151  -7.9281  -7.8802  -7.8761  -7.8639  -7.8627  -7.8439
    -7.8268  -7.7787  -7.7614  -7.6853  -7.6356  -7.6140  -7.5790  -7.5639
    -7.5253  -7.5111  -7.5020  -7.4838  -7.4377  -7.4051  -7.4030  -7.3893
    -7.3815  -7.3684  -7.3644  -7.3608  -7.3121  -7.2984  -7.2599  -7.2521
    -7.2326  -7.2287  -7.1296  -7.1294  -7.1096  -7.0868  -7.0807  -7.0715
    -7.0712  -7.0307  -7.0234  -7.0150  -7.0087  -6.9966  -6.9850  -6.9756
    -6.9700  -6.9608  -6.9422  -6.9420  -6.9277  -6.8863  -6.8654  -6.8545
    -6.8455  -6.8139  -6.8044  -6.8006  -6.7836  -6.2253  -5.8144  -4.2975
    -3.7183  -3.5503  -3.5496  -2.2485  -1.8256  -1.6309  -0.7813   0.2943
     0.6052   0.8117   1.1093   1.5577   2.3787   2.6641   2.9601   3.2034
     3.6668   4.2810

          k = 0.0595 0.0000 0.0000 ( 16978 PWs)   bands (ev):

  -126.5076-126.5027-126.5021-126.5019-126.3785-126.2941-126.2708-126.2702
  -126.2700-126.2585-126.2579-126.2577 -80.6907 -80.6883 -80.6874 -80.6815
   -80.6805 -80.6789 -80.6779 -80.6771 -80.6764 -80.6762 -80.6730 -80.6713
   -80.5571 -80.5570 -80.5260 -80.4871 -80.4664 -80.4661 -80.4625 -80.4618
   -80.4617 -80.4523 -80.4515 -80.4485 -80.4456 -80.4450 -80.4448 -80.4415
   -80.4353 -80.4347 -80.4337 -80.4333 -80.4319 -80.4315 -80.4256 -80.4239
    -8.7647  -8.0102  -7.9644  -7.9205  -7.9021  -7.8944  -7.8878  -7.8714
    -7.8222  -7.8142  -7.7727  -7.7233  -7.6320  -7.6244  -7.6110  -7.5744
    -7.5350  -7.5250  -7.4808  -7.4619  -7.4595  -7.4149  -7.4092  -7.4089
    -7.3927  -7.3867  -7.3783  -7.3680  -7.3287  -7.2980  -7.2845  -7.2374
    -7.2069  -7.2052  -7.1478  -7.1236  -7.0911  -7.0784  -7.0581  -7.0560
    -7.0458  -7.0256  -7.0146  -7.0010  -6.9963  -6.9760  -6.9643  -6.9551
    -6.9432  -6.9284  -6.9127  -6.9035  -6.9016  -6.8825  -6.8616  -6.8570
    -6.8197  -6.8101  -6.8006  -6.7849  -6.7814  -6.3582  -4.9181  -4.8681
    -4.0272  -3.2535  -3.1519  -1.7817  -1.6089  -1.4008  -0.4920  -0.4375
    -0.1823   0.4725   1.2724   1.7815   1.8562   2.7203   3.0219   3.0597
     3.0915   3.6908

          k = 0.0595 0.0343 0.0000 ( 16996 PWs)   bands (ev):

  -126.5076-126.5026-126.5021-126.5020-126.3785-126.2941-126.2707-126.2702
  -126.2700-126.2584-126.2579-126.2577 -80.6907 -80.6880 -80.6866 -80.6813
   -80.6803 -80.6798 -80.6776 -80.6771 -80.6765 -80.6762 -80.6738 -80.6713
   -80.5571 -80.5570 -80.5260 -80.4871 -80.4664 -80.4660 -80.4625 -80.4619
   -80.4617 -80.4524 -80.4512 -80.4487 -80.4456 -80.4450 -80.4448 -80.4409
   -80.4358 -80.4344 -80.4339 -80.4329 -80.4320 -80.4317 -80.4264 -80.4240
    -8.6119  -8.0151  -7.9281  -7.8802  -7.8761  -7.8639  -7.8627  -7.8439
    -7.8268  -7.7787  -7.7614  -7.6853  -7.6356  -7.6140  -7.5790  -7.5639
    -7.5253  -7.5111  -7.5020  -7.4838  -7.4377  -7.4051  -7.4030  -7.3893
    -7.3815  -7.3684  -7.3644  -7.3608  -7.3121  -7.2984  -7.2599  -7.2521
    -7.2326  -7.2287  -7.1296  -7.1294  -7.1096  -7.0868  -7.0807  -7.0715
    -7.0712  -7.0307  -7.0234  -7.0150  -7.0087  -6.9966  -6.9850  -6.9756
    -6.9700  -6.9608  -6.9422  -6.9420  -6.9277  -6.8863  -6.8654  -6.8545
    -6.8455  -6.8139  -6.8044  -6.8006  -6.7836  -6.2253  -5.8144  -4.2975
    -3.7183  -3.5503  -3.5496  -2.2485  -1.8256  -1.6309  -0.7813   0.2943
     0.6052   0.8117   1.1093   1.5577   2.3787   2.6641   2.9601   3.2034
     3.6668   4.2810

          k = 0.0595-0.1373 0.0000 ( 16986 PWs)   bands (ev):

  -126.5076-126.5026-126.5022-126.5019-126.3785-126.2941-126.2706-126.2703
  -126.2700-126.2583-126.2580-126.2577 -80.6907 -80.6870 -80.6851 -80.6827
   -80.6804 -80.6794 -80.6776 -80.6769 -80.6767 -80.6762 -80.6752 -80.6716
   -80.5571 -80.5570 -80.5260 -80.4871 -80.4662 -80.4658 -80.4624 -80.4620
   -80.4617 -80.4524 -80.4507 -80.4494 -80.4455 -80.4451 -80.4448 -80.4395
   -80.4358 -80.4356 -80.4338 -80.4325 -80.4321 -80.4312 -80.4278 -80.4242
    -8.2207  -7.9545  -7.8664  -7.8258  -7.8071  -7.8010  -7.7957  -7.7826
    -7.7627  -7.7330  -7.7208  -7.6744  -7.6439  -7.6312  -7.5619  -7.5348
    -7.5291  -7.4807  -7.4627  -7.4580  -7.4484  -7.4242  -7.4067  -7.3883
    -7.3686  -7.3598  -7.3411  -7.3080  -7.2832  -7.2781  -7.2708  -7.2576
    -7.2514  -7.2392  -7.2134  -7.1552  -7.1379  -7.1335  -7.1264  -7.1131
    -7.0976  -7.0732  -7.0614  -7.0434  -7.0359  -7.0252  -7.0159  -6.9981
    -6.9857  -6.9793  -6.9664  -6.9491  -6.9460  -6.9084  -6.8962  -6.8765
    -6.8602  -6.8519  -6.8444  -6.8289  -6.8123  -6.2624  -5.7694  -5.1981
    -4.7364  -3.7155  -3.2148  -2.1957  -1.8790  -1.1893  -0.3296  -0.0302
     0.3109   1.0258   1.9130   2.1170   2.5777   2.6140   3.3068   3.6795
     4.0450   4.3975

          k = 0.0595-0.1030 0.0000 ( 17004 PWs)   bands (ev):

  -126.5076-126.5024-126.5024-126.5019-126.3785-126.2941-126.2705-126.2705
  -126.2700-126.2582-126.2582-126.2577 -80.6907 -80.6854 -80.6854 -80.6836
   -80.6800 -80.6800 -80.6771 -80.6770 -80.6764 -80.6764 -80.6762 -80.6720
   -80.5571 -80.5571 -80.5260 -80.4871 -80.4660 -80.4660 -80.4622 -80.4621
   -80.4617 -80.4522 -80.4503 -80.4502 -80.4453 -80.4453 -80.4448 -80.4378
   -80.4376 -80.4352 -80.4336 -80.4336 -80.4324 -80.4294 -80.4294 -80.4246
    -7.9509  -7.8305  -7.8208  -7.8007  -7.7526  -7.7386  -7.7379  -7.7369
    -7.7097  -7.7032  -7.6975  -7.6940  -7.6938  -7.6826  -7.6793  -7.5863
    -7.5727  -7.4641  -7.4429  -7.4381  -7.4035  -7.3799  -7.3754  -7.3717
    -7.3592  -7.3357  -7.3242  -7.3096  -7.3067  -7.2871  -7.2719  -7.2714
    -7.2543  -7.2246  -7.2151  -7.2105  -7.2002  -7.1916  -7.1784  -7.1779
    -7.1221  -7.0904  -7.0802  -7.0706  -7.0695  -7.0453  -7.0066  -7.0050
    -6.9866  -6.9843  -6.9836  -6.9529  -6.8986  -6.8894  -6.8891  -6.8819
    -6.8784  -6.8694  -6.8674  -6.8649  -6.3686  -6.3427  -6.3343  -5.1244
    -4.7708  -4.7697  -3.0330  -2.0034  -2.0010  -0.2485   0.1078   0.1511
     0.2090   1.4115   1.4120   1.5244   2.0220   2.1676   3.1501   4.2440
     4.3791   4.6047

          k = 0.0595-0.0686 0.0000 ( 16986 PWs)   bands (ev):

  -126.5076-126.5026-126.5022-126.5019-126.3785-126.2941-126.2706-126.2703
  -126.2700-126.2583-126.2580-126.2577 -80.6907 -80.6870 -80.6851 -80.6827
   -80.6804 -80.6794 -80.6776 -80.6769 -80.6767 -80.6762 -80.6752 -80.6716
   -80.5571 -80.5570 -80.5260 -80.4871 -80.4662 -80.4658 -80.4624 -80.4620
   -80.4617 -80.4524 -80.4507 -80.4494 -80.4455 -80.4451 -80.4448 -80.4395
   -80.4358 -80.4356 -80.4338 -80.4325 -80.4321 -80.4312 -80.4278 -80.4242
    -8.2207  -7.9545  -7.8664  -7.8258  -7.8071  -7.8010  -7.7957  -7.7826
    -7.7627  -7.7330  -7.7208  -7.6744  -7.6439  -7.6312  -7.5619  -7.5348
    -7.5291  -7.4807  -7.4627  -7.4580  -7.4484  -7.4242  -7.4067  -7.3883
    -7.3686  -7.3598  -7.3411  -7.3080  -7.2832  -7.2781  -7.2708  -7.2576
    -7.2514  -7.2392  -7.2134  -7.1552  -7.1379  -7.1335  -7.1264  -7.1131
    -7.0976  -7.0732  -7.0614  -7.0434  -7.0359  -7.0252  -7.0159  -6.9981
    -6.9857  -6.9793  -6.9664  -6.9491  -6.9460  -6.9084  -6.8962  -6.8765
    -6.8602  -6.8519  -6.8444  -6.8289  -6.8123  -6.2624  -5.7694  -5.1981
    -4.7364  -3.7155  -3.2148  -2.1957  -1.8790  -1.1893  -0.3296  -0.0302
     0.3109   1.0258   1.9130   2.1170   2.5777   2.6140   3.3068   3.6795
     4.0450   4.3975

          k =-0.0892 0.0515 0.0000 ( 17028 PWs)   bands (ev):

  -126.5076-126.5026-126.5022-126.5020-126.3785-126.2941-126.2706-126.2703
  -126.2700-126.2583-126.2580-126.2577 -80.6907 -80.6873 -80.6844 -80.6830
   -80.6811 -80.6788 -80.6775 -80.6770 -80.6767 -80.6762 -80.6757 -80.6714
   -80.5571 -80.5570 -80.5260 -80.4872 -80.4663 -80.4658 -80.4625 -80.4620
   -80.4616 -80.4525 -80.4505 -80.4496 -80.4456 -80.4452 -80.4448 -80.4394
   -80.4361 -80.4361 -80.4329 -80.4328 -80.4320 -80.4311 -80.4284 -80.4240
    -8.1294  -8.0610  -7.8738  -7.8322  -7.8299  -7.8197  -7.7697  -7.7550
    -7.7358  -7.7315  -7.7148  -7.7038  -7.6269  -7.5890  -7.5715  -7.5494
    -7.5398  -7.4904  -7.4852  -7.4819  -7.4217  -7.4166  -7.4047  -7.3815
    -7.3490  -7.3375  -7.3252  -7.2821  -7.2756  -7.2654  -7.2518  -7.2398
    -7.2344  -7.2187  -7.1944  -7.1463  -7.1456  -7.1253  -7.1159  -7.1139
    -7.0976  -7.0734  -7.0695  -7.0691  -7.0561  -7.0391  -7.0114  -6.9888
    -6.9881  -6.9825  -6.9668  -6.9599  -6.9519  -6.9446  -6.8943  -6.8546
    -6.8483  -6.8393  -6.8305  -6.8093  -6.8084  -6.7944  -5.5570  -5.3241
    -3.7706  -3.7115  -3.3567  -2.5100  -2.1024  -1.9823  -0.7094   0.6619
     0.6907   0.8230   2.3813   2.7596   2.8509   2.8980   2.9206   3.9686
     4.0378   4.0994

          k =-0.0892 0.0858 0.0000 ( 16986 PWs)   bands (ev):

  -126.5076-126.5026-126.5022-126.5019-126.3785-126.2941-126.2706-126.2703
  -126.2700-126.2583-126.2580-126.2577 -80.6907 -80.6870 -80.6851 -80.6827
   -80.6804 -80.6794 -80.6776 -80.6769 -80.6767 -80.6762 -80.6752 -80.6716
   -80.5571 -80.5570 -80.5260 -80.4871 -80.4662 -80.4658 -80.4624 -80.4620
   -80.4617 -80.4524 -80.4507 -80.4494 -80.4455 -80.4451 -80.4448 -80.4395
   -80.4358 -80.4356 -80.4338 -80.4325 -80.4321 -80.4312 -80.4278 -80.4242
    -8.2207  -7.9545  -7.8664  -7.8258  -7.8071  -7.8010  -7.7957  -7.7826
    -7.7627  -7.7330  -7.7208  -7.6744  -7.6439  -7.6312  -7.5619  -7.5348
    -7.5291  -7.4807  -7.4627  -7.4580  -7.4484  -7.4242  -7.4067  -7.3883
    -7.3686  -7.3598  -7.3411  -7.3080  -7.2832  -7.2781  -7.2708  -7.2576
    -7.2514  -7.2392  -7.2134  -7.1552  -7.1379  -7.1335  -7.1264  -7.1131
    -7.0976  -7.0732  -7.0614  -7.0434  -7.0359  -7.0252  -7.0159  -6.9981
    -6.9857  -6.9793  -6.9664  -6.9491  -6.9460  -6.9084  -6.8962  -6.8765
    -6.8602  -6.8519  -6.8444  -6.8289  -6.8123  -6.2624  -5.7694  -5.1981
    -4.7364  -3.7155  -3.2148  -2.1957  -1.8790  -1.1893  -0.3296  -0.0302
     0.3109   1.0258   1.9130   2.1170   2.5777   2.6140   3.3068   3.6795
     4.0450   4.3975

          k =-0.0892 0.1201 0.0000 ( 16986 PWs)   bands (ev):

  -126.5076-126.5026-126.5022-126.5019-126.3785-126.2941-126.2706-126.2703
  -126.2700-126.2583-126.2580-126.2577 -80.6907 -80.6870 -80.6851 -80.6827
   -80.6804 -80.6794 -80.6776 -80.6769 -80.6767 -80.6762 -80.6752 -80.6716
   -80.5571 -80.5570 -80.5260 -80.4871 -80.4662 -80.4658 -80.4624 -80.4620
   -80.4617 -80.4524 -80.4507 -80.4494 -80.4455 -80.4451 -80.4448 -80.4395
   -80.4358 -80.4356 -80.4338 -80.4325 -80.4321 -80.4312 -80.4278 -80.4242
    -8.2207  -7.9545  -7.8664  -7.8258  -7.8071  -7.8010  -7.7957  -7.7826
    -7.7627  -7.7330  -7.7208  -7.6744  -7.6439  -7.6312  -7.5619  -7.5348
[...]
  -126.2523-126.2516-126.2513-126.2512 -80.7123 -80.7051 -80.7041 -80.6926
   -80.6905 -80.6899 -80.6884 -80.6868 -80.6862 -80.6859 -80.6841 -80.6816
   -80.5536 -80.5286 -80.5282 -80.5045 -80.5039 -80.5037 -80.4919 -80.4900
   -80.4891 -80.4877 -80.4826 -80.4802 -80.4448 -80.4442 -80.4440 -80.4407
   -80.4394 -80.4300 -80.4279 -80.4268 -80.4229 -80.4161 -80.4137 -80.3881
    -8.4974  -7.9790  -7.8752  -7.8719  -7.8668  -7.8459  -7.8418  -7.8377
    -7.8015  -7.7469  -7.7445  -7.6650  -7.6304  -7.5746  -7.5631  -7.5598
    -7.5115  -7.4960  -7.4950  -7.4772  -7.4528  -7.4132  -7.4068  -7.3935
    -7.3769  -7.3736  -7.3607  -7.3536  -7.3090  -7.3045  -7.2721  -7.2515
    -7.2372  -7.2220  -7.1420  -7.1410  -7.1139  -7.1022  -7.0877  -7.0816
    -7.0774  -7.0516  -7.0390  -7.0388  -7.0308  -7.0136  -6.9928  -6.9837
    -6.9771  -6.9768  -6.9668  -6.9653  -6.9549  -6.9050  -6.8712  -6.8669
    -6.8590  -6.8367  -6.8296  -6.8129  -6.7936  -6.2166  -5.7576  -4.2735
    -3.7606  -3.4867  -3.4735  -2.3013  -1.8127  -1.6488  -0.9363   0.2290
     0.5247   0.8760   1.0923   1.3740   2.3083   2.6778   2.8145   3.2463
     3.5849   4.2114

          k = 0.0595-0.1373 0.0000 ( 16986 PWs)   bands (ev):

  -126.5285-126.5115-126.5112-126.5109-126.3579-126.3153-126.3150-126.3147
  -126.2521-126.2517-126.2515-126.2512 -80.7122 -80.7046 -80.7036 -80.6926
   -80.6905 -80.6893 -80.6884 -80.6867 -80.6863 -80.6859 -80.6855 -80.6819
   -80.5536 -80.5284 -80.5281 -80.5043 -80.5040 -80.5036 -80.4917 -80.4899
   -80.4885 -80.4874 -80.4840 -80.4805 -80.4447 -80.4443 -80.4440 -80.4401
   -80.4388 -80.4306 -80.4280 -80.4272 -80.4214 -80.4175 -80.4139 -80.3880
    -8.1079  -7.9026  -7.8180  -7.8087  -7.7943  -7.7826  -7.7795  -7.7575
    -7.7325  -7.7222  -7.6947  -7.6414  -7.6213  -7.6181  -7.5489  -7.5189
    -7.4967  -7.4813  -7.4576  -7.4489  -7.4436  -7.4380  -7.4135  -7.3847
    -7.3683  -7.3585  -7.3461  -7.3164  -7.3074  -7.2847  -7.2759  -7.2583
    -7.2546  -7.2401  -7.1982  -7.1866  -7.1637  -7.1514  -7.1416  -7.1262
    -7.1060  -7.0847  -7.0719  -7.0557  -7.0466  -7.0391  -7.0289  -7.0088
    -6.9983  -6.9878  -6.9775  -6.9712  -6.9585  -6.9212  -6.9042  -6.8930
    -6.8833  -6.8741  -6.8660  -6.8586  -6.8255  -6.2185  -5.7525  -5.1382
    -4.7202  -3.7088  -3.2332  -2.2965  -1.8056  -1.3174  -0.4912  -0.0548
     0.3913   0.8852   1.8676   2.0704   2.4655   2.6577   3.0898   3.7267
     3.9874   4.3418

          k = 0.0595-0.1030 0.0000 ( 17004 PWs)   bands (ev):

  -126.5285-126.5113-126.5113-126.5109-126.3579-126.3152-126.3152-126.3147
  -126.2520-126.2517-126.2516-126.2511 -80.7122 -80.7040 -80.7040 -80.6921
   -80.6905 -80.6905 -80.6869 -80.6868 -80.6864 -80.6864 -80.6859 -80.6824
   -80.5536 -80.5282 -80.5282 -80.5041 -80.5041 -80.5037 -80.4912 -80.4897
   -80.4897 -80.4856 -80.4856 -80.4809 -80.4445 -80.4444 -80.4440 -80.4393
   -80.4392 -80.4306 -80.4282 -80.4277 -80.4201 -80.4188 -80.4142 -80.3880
    -7.7851  -7.7821  -7.7757  -7.7447  -7.7394  -7.7393  -7.7321  -7.7156
    -7.6979  -7.6929  -7.6904  -7.6747  -7.6702  -7.6661  -7.6600  -7.5646
    -7.5585  -7.4416  -7.4292  -7.4267  -7.3936  -7.3920  -7.3835  -7.3697
    -7.3528  -7.3494  -7.3481  -7.3209  -7.3159  -7.3050  -7.2848  -7.2834
    -7.2673  -7.2384  -7.2374  -7.2281  -7.2103  -7.2096  -7.1643  -7.1560
    -7.1342  -7.0979  -7.0863  -7.0810  -7.0784  -7.0609  -7.0134  -7.0122
    -7.0011  -6.9989  -6.9873  -6.9760  -6.9400  -6.9327  -6.9051  -6.9009
    -6.8985  -6.8925  -6.8858  -6.8788  -6.3266  -6.3149  -6.3046  -5.0744
    -4.7916  -4.7528  -3.0088  -2.1509  -2.1225  -0.4965   0.1721   0.1913
     0.3056   1.3199   1.3464   1.5665   2.0330   2.1809   2.8286   4.1108
     4.2533   4.4873

          k = 0.0595-0.0686 0.0000 ( 16986 PWs)   bands (ev):

  -126.5285-126.5115-126.5112-126.5109-126.3579-126.3153-126.3150-126.3147
  -126.2521-126.2517-126.2515-126.2512 -80.7122 -80.7046 -80.7036 -80.6926
   -80.6905 -80.6893 -80.6884 -80.6867 -80.6863 -80.6859 -80.6855 -80.6819
   -80.5536 -80.5284 -80.5281 -80.5043 -80.5040 -80.5036 -80.4917 -80.4899
   -80.4885 -80.4874 -80.4840 -80.4805 -80.4447 -80.4443 -80.4440 -80.4401
   -80.4388 -80.4306 -80.4280 -80.4272 -80.4214 -80.4175 -80.4139 -80.3880
    -8.1079  -7.9026  -7.8180  -7.8087  -7.7943  -7.7826  -7.7795  -7.7575
    -7.7325  -7.7222  -7.6947  -7.6414  -7.6213  -7.6181  -7.5489  -7.5189
    -7.4967  -7.4813  -7.4576  -7.4489  -7.4436  -7.4380  -7.4135  -7.3847
    -7.3683  -7.3585  -7.3461  -7.3164  -7.3074  -7.2847  -7.2759  -7.2583
    -7.2546  -7.2401  -7.1982  -7.1866  -7.1637  -7.1514  -7.1416  -7.1262
    -7.1060  -7.0847  -7.0719  -7.0557  -7.0466  -7.0391  -7.0289  -7.0088
    -6.9983  -6.9878  -6.9775  -6.9712  -6.9585  -6.9212  -6.9042  -6.8930
    -6.8833  -6.8741  -6.8660  -6.8586  -6.8255  -6.2185  -5.7525  -5.1382
    -4.7202  -3.7088  -3.2332  -2.2965  -1.8056  -1.3174  -0.4912  -0.0548
     0.3913   0.8852   1.8676   2.0704   2.4655   2.6577   3.0898   3.7267
     3.9874   4.3418

          k =-0.0892 0.0515 0.0000 ( 17028 PWs)   bands (ev):

  -126.5285-126.5115-126.5112-126.5109-126.3579-126.3153-126.3150-126.3147
  -126.2521-126.2518-126.2513-126.2512 -80.7123 -80.7049 -80.7034 -80.6932
   -80.6897 -80.6888 -80.6887 -80.6868 -80.6863 -80.6861 -80.6859 -80.6817
   -80.5537 -80.5285 -80.5281 -80.5044 -80.5040 -80.5036 -80.4921 -80.4890
   -80.4888 -80.4873 -80.4846 -80.4803 -80.4448 -80.4443 -80.4439 -80.4404
   -80.4385 -80.4310 -80.4280 -80.4269 -80.4213 -80.4179 -80.4138 -80.3881
    -8.0201  -8.0116  -7.8218  -7.8161  -7.8099  -7.8081  -7.7359  -7.7300
    -7.7092  -7.7042  -7.7032  -7.6945  -7.5714  -7.5674  -7.5585  -7.5575
    -7.5064  -7.4851  -7.4783  -7.4732  -7.4485  -7.4132  -7.4016  -7.3930
    -7.3383  -7.3290  -7.3077  -7.3031  -7.2769  -7.2673  -7.2611  -7.2474
    -7.2399  -7.2262  -7.1915  -7.1854  -7.1692  -7.1504  -7.1323  -7.1205
    -7.1070  -7.1031  -7.0913  -7.0863  -7.0510  -7.0346  -7.0299  -7.0142
    -7.0122  -6.9993  -6.9852  -6.9779  -6.9492  -6.9433  -6.8851  -6.8752
    -6.8716  -6.8536  -6.8437  -6.8221  -6.8142  -6.8072  -5.5220  -5.3246
    -3.7134  -3.6491  -3.3338  -2.6487  -2.0989  -1.9712  -0.8752   0.5036
     0.5971   0.7418   2.1148   2.8115   2.8536   2.9766   2.9889   3.9603
     3.9669   3.9872

          k =-0.0892 0.0858 0.0000 ( 16986 PWs)   bands (ev):

  -126.5285-126.5115-126.5112-126.5109-126.3579-126.3153-126.3150-126.3147
  -126.2521-126.2517-126.2515-126.2512 -80.7122 -80.7046 -80.7036 -80.6926
   -80.6905 -80.6893 -80.6884 -80.6867 -80.6863 -80.6859 -80.6855 -80.6819
   -80.5536 -80.5284 -80.5281 -80.5043 -80.5040 -80.5036 -80.4917 -80.4899
   -80.4885 -80.4874 -80.4840 -80.4805 -80.4447 -80.4443 -80.4440 -80.4401
   -80.4388 -80.4306 -80.4280 -80.4272 -80.4214 -80.4175 -80.4139 -80.3880
    -8.1079  -7.9026  -7.8180  -7.8087  -7.7943  -7.7826  -7.7795  -7.7575
    -7.7325  -7.7222  -7.6947  -7.6414  -7.6213  -7.6181  -7.5489  -7.5189
    -7.4967  -7.4813  -7.4576  -7.4489  -7.4436  -7.4380  -7.4135  -7.3847
    -7.3683  -7.3585  -7.3461  -7.3164  -7.3074  -7.2847  -7.2759  -7.2583
    -7.2546  -7.2401  -7.1982  -7.1866  -7.1637  -7.1514  -7.1416  -7.1262
    -7.1060  -7.0847  -7.0719  -7.0557  -7.0466  -7.0391  -7.0289  -7.0088
    -6.9983  -6.9878  -6.9775  -6.9712  -6.9585  -6.9212  -6.9042  -6.8930
    -6.8833  -6.8741  -6.8660  -6.8586  -6.8255  -6.2185  -5.7525  -5.1382
    -4.7202  -3.7088  -3.2332  -2.2965  -1.8056  -1.3174  -0.4912  -0.0548
     0.3913   0.8852   1.8676   2.0704   2.4655   2.6577   3.0898   3.7267
     3.9874   4.3418

          k =-0.0892 0.1201 0.0000 ( 16986 PWs)   bands (ev):

  -126.5285-126.5115-126.5112-126.5109-126.3579-126.3153-126.3150-126.3147
  -126.2521-126.2517-126.2515-126.2512 -80.7122 -80.7046 -80.7036 -80.6926
   -80.6905 -80.6893 -80.6884 -80.6867 -80.6863 -80.6859 -80.6855 -80.6819
   -80.5536 -80.5284 -80.5281 -80.5043 -80.5040 -80.5036 -80.4917 -80.4899
   -80.4885 -80.4874 -80.4840 -80.4805 -80.4447 -80.4443 -80.4440 -80.4401
   -80.4388 -80.4306 -80.4280 -80.4272 -80.4214 -80.4175 -80.4139 -80.3880
    -8.1079  -7.9026  -7.8180  -7.8087  -7.7943  -7.7826  -7.7795  -7.7575
    -7.7325  -7.7222  -7.6947  -7.6414  -7.6213  -7.6181  -7.5489  -7.5189
    -7.4967  -7.4813  -7.4576  -7.4489  -7.4436  -7.4380  -7.4135  -7.3847
    -7.3683  -7.3585  -7.3461  -7.3164  -7.3074  -7.2847  -7.2759  -7.2583
    -7.2546  -7.2401  -7.1982  -7.1866  -7.1637  -7.1514  -7.1416  -7.1262
    -7.1060  -7.0847  -7.0719  -7.0557  -7.0466  -7.0391  -7.0289  -7.0088
    -6.9983  -6.9878  -6.9775  -6.9712  -6.9585  -6.9212  -6.9042  -6.8930
    -6.8833  -6.8741  -6.8660  -6.8586  -6.8255  -6.2185  -5.7525  -5.1382
    -4.7202  -3.7088  -3.2332  -2.2965  -1.8056  -1.3174  -0.4912  -0.0548
     0.3913   0.8852   1.8676   2.0704   2.4655   2.6577   3.0898   3.7267
     3.9874   4.3418

          k =-0.0892-0.0515 0.0000 ( 17028 PWs)   bands (ev):

  -126.5285-126.5115-126.5112-126.5109-126.3579-126.3153-126.3150-126.3147
  -126.2521-126.2518-126.2513-126.2512 -80.7123 -80.7049 -80.7034 -80.6932
   -80.6897 -80.6888 -80.6887 -80.6868 -80.6863 -80.6861 -80.6859 -80.6817
   -80.5537 -80.5285 -80.5281 -80.5044 -80.5040 -80.5036 -80.4921 -80.4890
   -80.4888 -80.4873 -80.4846 -80.4803 -80.4448 -80.4444 -80.4439 -80.4404
   -80.4385 -80.4310 -80.4280 -80.4269 -80.4213 -80.4179 -80.4138 -80.3881
    -8.0201  -8.0116  -7.8218  -7.8161  -7.8099  -7.8081  -7.7359  -7.7300
    -7.7092  -7.7042  -7.7032  -7.6945  -7.5714  -7.5674  -7.5585  -7.5575
    -7.5064  -7.4851  -7.4783  -7.4732  -7.4485  -7.4132  -7.4016  -7.3930
    -7.3383  -7.3290  -7.3077  -7.3031  -7.2769  -7.2673  -7.2611  -7.2474
    -7.2399  -7.2262  -7.1915  -7.1854  -7.1692  -7.1504  -7.1323  -7.1205
    -7.1070  -7.1031  -7.0913  -7.0863  -7.0510  -7.0346  -7.0299  -7.0142
    -7.0122  -6.9993  -6.9852  -6.9779  -6.9492  -6.9433  -6.8851  -6.8752
    -6.8716  -6.8536  -6.8437  -6.8221  -6.8142  -6.8072  -5.5220  -5.3246
    -3.7134  -3.6491  -3.3338  -2.6487  -2.0989  -1.9712  -0.8752   0.5036
     0.5971   0.7418   2.1148   2.8115   2.8536   2.9766   2.9889   3.9603
     3.9669   3.9872

     the Fermi energy is     0.2593 ev

!    total energy              =   -5554.41191507 Ry
     Harris-Foulkes estimate   =   -5554.41191518 Ry
     estimated scf accuracy    <       0.00000002 Ry

     The total energy is the sum of the following terms:

     one-electron contribution =  -35074.13999725 Ry
     hartree contribution      =   17514.56654184 Ry
     xc contribution           =    -521.52000245 Ry
     ewald contribution        =   12526.70617871 Ry
     electric field correction =       0.00009371 Ry
     smearing contrib. (-TS)   =      -0.02472964 Ry

     convergence has been achieved in   6 iterations
 
 BEEF-vdW xc energy contributions
           1 :   -463.383466217418     
           2 :    419.884152850294     
           3 :   -346.978325504297     
           4 :    265.880415939003     
           5 :   -195.303249877815     
           6 :    144.427926349661     
           7 :   -111.704029356255     
           8 :    89.1677588303278     
           9 :   -68.9445050988531     
          10 :    47.8430979607130     
          11 :   -27.7676797971535     
          12 :    12.6328354396920     
          13 :   -4.56918588303921     
          14 :    2.16439558359968     
          15 :   -1.62916255770881     
          16 :  -0.413098429533079     
          17 :    4.76975344473988     
          18 :   -9.64328182106544     
          19 :    12.4730970102614     
          20 :   -12.0814451197587     
          21 :    9.51192907788231     
          22 :   -7.09288792284519     
          23 :    6.61680148297722     
          24 :   -8.09335902068761     
          25 :    9.95575564759372     
          26 :   -10.4279737600617     
          27 :    8.91525499912785     
          28 :   -6.36881278827389     
          29 :    4.44095861701641     
          30 :   -4.17685158118491     
          31 :   -35.8120352696233     
          32 :   -24.3957607159225     

     Forces acting on atoms (Ry/au):

     atom    1 type  1   force =    -0.00373338   -0.00215545   -0.00719021
     atom    2 type  1   force =     0.00373337   -0.00215547   -0.00719022
     atom    3 type  1   force =    -0.00000001    0.00431091   -0.00719022
     atom    4 type  1   force =     0.00000001    0.00000001   -0.00810295
     atom    5 type  1   force =     0.00000005   -0.00666877    0.01110074
     atom    6 type  1   force =    -0.00000006   -0.00000008   -0.00040309
     atom    7 type  1   force =     0.00577526    0.00333441    0.01110075
     atom    8 type  1   force =    -0.00577525    0.00333446    0.01110071
     atom    9 type  1   force =    -0.00000005   -0.00000005   -0.00090578
     atom   10 type  1   force =     0.00000004   -0.00049370   -0.00135899
     atom   11 type  1   force =    -0.00042759    0.00024689   -0.00135874
     atom   12 type  1   force =     0.00042762    0.00024686   -0.00135843
     atom   13 type  2   force =     0.00000000   -0.00000000    0.00175643

     Total force =     0.003190     Total SCF correction =     0.001145
     SCF correction compared to forces is large: reduce conv_thr to get better values


     entering subroutine stress ...

          total   stress  (Ry/bohr**3)                   (kbar)     P=  -16.13
  -0.00015192   0.00000000   0.00000000        -22.35      0.00      0.00
   0.00000000  -0.00015192  -0.00000000          0.00    -22.35     -0.00
   0.00000000  -0.00000000  -0.00002509          0.00     -0.00     -3.69


     bfgs converged in  14 scf cycles and  13 bfgs steps
     (criteria: energy <  1.0E+00, force <  1.9E-03)

     End of BFGS Geometry Optimization

     Final energy   =   -5554.4119150658 Ry
Begin final coordinates

ATOMIC_POSITIONS (crystal)
Zn1      0.166666667   0.166666667   0.406869400    0   0   0
Zn1      0.666666667   0.166666667   0.406869400    0   0   0
Zn1      0.166666667   0.666666667   0.406869400    0   0   0
Zn1      0.666666667   0.666666667   0.406869400    0   0   0
Zn1      0.833333333   0.333333333   0.500000000    0   0   0
Zn1      0.333333333   0.333333333   0.500000000    0   0   0
Zn1      0.833333333   0.833333333   0.500000000    0   0   0
Zn1      0.333333333   0.833333333   0.500000000    0   0   0
Zn1     -0.000000168   0.000000411   0.599471534
Zn1      0.501400757  -0.002801527   0.595937202
Zn1     -0.002801540   0.501400937   0.595937053
Zn1      0.501400565   0.501400900   0.595936832
H1      -0.000000021   0.000000069   0.663918804
End final coordinates



     Writing output data file calc.save
 
     init_run     :     10.11s CPU     10.45s WALL (       1 calls)
     electrons    :   2928.56s CPU   3099.34s WALL (      14 calls)
     update_pot   :     27.77s CPU     29.49s WALL (      13 calls)
     forces       :    156.41s CPU    168.13s WALL (      14 calls)
     stress       :    548.10s CPU    578.79s WALL (      14 calls)

     Called by init_run:
     wfcinit      :      4.78s CPU      4.86s WALL (       1 calls)
     potinit      :      1.70s CPU      1.86s WALL (       1 calls)

     Called by electrons:
     c_bands      :   1271.52s CPU   1315.53s WALL (     107 calls)
     sum_band     :    520.75s CPU    555.83s WALL (     107 calls)
     v_of_rho     :    165.60s CPU    182.01s WALL (     112 calls)
     newd         :    375.14s CPU    388.05s WALL (     112 calls)
     mix_rho      :      5.08s CPU      5.23s WALL (     107 calls)
     vdW_energy   :    112.81s CPU    126.45s WALL (     588 calls)
     vdW_ffts     :    297.29s CPU    311.49s WALL (    1204 calls)
     vdW_v        :    114.99s CPU    120.39s WALL (     588 calls)

     Called by c_bands:
     init_us_2    :      5.16s CPU      5.21s WALL (    1215 calls)
     cegterg      :   1199.27s CPU   1228.48s WALL (     535 calls)

     Called by *egterg:
     h_psi        :    754.56s CPU    769.80s WALL (    2020 calls)
     s_psi        :     60.09s CPU     60.16s WALL (    2020 calls)
     g_psi        :      3.99s CPU      4.01s WALL (    1480 calls)
     cdiaghg      :    135.24s CPU    136.24s WALL (    1905 calls)

     Called by h_psi:
     add_vuspsi   :     61.14s CPU     61.21s WALL (    2020 calls)

     General routines
     calbec       :    103.24s CPU    106.90s WALL (    2695 calls)
     fft          :    461.08s CPU    499.07s WALL (   35245 calls)
     ffts         :      0.37s CPU      0.40s WALL (     219 calls)
     fftw         :    497.82s CPU    514.05s WALL (  389438 calls)
     interpolate  :      3.83s CPU      3.92s WALL (     219 calls)
     davcio       :      0.00s CPU      0.04s WALL (       5 calls)
 
     Parallel routines
     fft_scatter  :    540.13s CPU    599.59s WALL (  424902 calls)
 
     PWSCF        :     1h 1m CPU        1h 5m WALL

 
   This run was terminated on:  22: 7:20   2May2018            

=------------------------------------------------------------------------------=
   JOB DONE.
=------------------------------------------------------------------------------=
Job  /afs/slac/g/suncat/bin/suncat-tsmpirun -x LD_LIBRARY_PATH -wdir /scratch/qe193460_kSue8 pw.x -npool 4 -in pw.inp

TID   HOST_NAME   COMMAND_LINE            STATUS            TERMINATION_TIME
===== ========== ================  =======================  ===================
00000 suncat0058 pw.x -npool 4 -i  Done                     05/02/2018 22:07:20
00001 suncat0058 pw.x -npool 4 -i  Done                     05/02/2018 22:07:20
00002 suncat0058 pw.x -npool 4 -i  Done                     05/02/2018 22:07:20
00003 suncat0058 pw.x -npool 4 -i  Done                     05/02/2018 22:07:20
00004 suncat0058 pw.x -npool 4 -i  Done                     05/02/2018 22:07:20
00005 suncat0058 pw.x -npool 4 -i  Done                     05/02/2018 22:07:20
00006 suncat0058 pw.x -npool 4 -i  Done                     05/02/2018 22:07:20
00007 suncat0058 pw.x -npool 4 -i  Done                     05/02/2018 22:07:20
00008 suncat0052 pw.x -npool 4 -i  Done                     05/02/2018 22:07:20
00009 suncat0052 pw.x -npool 4 -i  Done                     05/02/2018 22:07:20
00010 suncat0052 pw.x -npool 4 -i  Done                     05/02/2018 22:07:20
00011 suncat0052 pw.x -npool 4 -i  Done                     05/02/2018 22:07:20
00012 suncat0052 pw.x -npool 4 -i  Done                     05/02/2018 22:07:20
00013 suncat0052 pw.x -npool 4 -i  Done                     05/02/2018 22:07:20
00014 suncat0052 pw.x -npool 4 -i  Done                     05/02/2018 22:07:20
00015 suncat0052 pw.x -npool 4 -i  Done                     05/02/2018 22:07:20
00016 suncat0238 pw.x -npool 4 -i  Done                     05/02/2018 22:07:20
00017 suncat0238 pw.x -npool 4 -i  Done                     05/02/2018 22:07:20
00018 suncat0238 pw.x -npool 4 -i  Done                     05/02/2018 22:07:20
00019 suncat0238 pw.x -npool 4 -i  Done                     05/02/2018 22:07:20
00020 suncat0238 pw.x -npool 4 -i  Done                     05/02/2018 22:07:20
00021 suncat0238 pw.x -npool 4 -i  Done                     05/02/2018 22:07:20
00022 suncat0238 pw.x -npool 4 -i  Done                     05/02/2018 22:07:20
00023 suncat0238 pw.x -npool 4 -i  Done                     05/02/2018 22:07:20
00024 suncat0218 pw.x -npool 4 -i  Done                     05/02/2018 22:07:20
00025 suncat0218 pw.x -npool 4 -i  Done                     05/02/2018 22:07:20
00026 suncat0218 pw.x -npool 4 -i  Done                     05/02/2018 22:07:20
00027 suncat0218 pw.x -npool 4 -i  Done                     05/02/2018 22:07:20
00028 suncat0218 pw.x -npool 4 -i  Done                     05/02/2018 22:07:20
00029 suncat0218 pw.x -npool 4 -i  Done                     05/02/2018 22:07:20
00030 suncat0218 pw.x -npool 4 -i  Done                     05/02/2018 22:07:20
00031 suncat0218 pw.x -npool 4 -i  Done                     05/02/2018 22:07:20
