  python dir          : /u/if/mamunm/src/espresso
  espresso dir        : /nfs/slac/g/suncatfs/sw/espv18/espresso-dynpy-beef/bin
  pseudo dir          : /u/if/mamunm/psp/gbrv1.5pbe
  ase-espresso py git : GITVERSION



     Program PWSCF v.5.1rc2 (svn rev. 11289) starts on  2May2018 at 17:56:31 

     This program is part of the open-source Quantum ESPRESSO suite
     for quantum simulation of materials; please cite
         "P. Giannozzi et al., J. Phys.:Condens. Matter 21 395502 (2009);
          URL http://www.quantum-espresso.org", 
     in publications or presentations arising from this work. More details at
     http://www.quantum-espresso.org/quote

     Parallel version (MPI), running on    32 processors
     K-points division:     npool     =       4
     R & G space division:  proc/nbgrp/npool/nimage =       8
     Reading input from pw.inp
     Message from routine read_cards :
     DEPRECATED: no units specified in CELL_PARAMETERS card

     Current dimensions of program PWSCF are:
     Max number of different atomic species (ntypx) = 10
     Max number of k-points (npk) =  40000
     Max angular momentum in pseudopotentials (lmaxx) =  3
     Presently stress not available with electric field


     **************************************************************************
     Initializing libbeef V0.1.1 with the BEEF-vdW functional.
     Citation: Wellendorff et al., PRB 85, 235149 (2012).
     **************************************************************************


     IMPORTANT: XC functional enforced from input :
     Exchange-correlation      = BEEF-VDW ( 1  4 27 13 2)
     Any further DFT definition will be discarded
     Please, verify this is what you really want


     Subspace diagonalization in iterative solution of the eigenvalue problem:
     a serial algorithm will be used

 
     Parallelization info
     --------------------
     sticks:   dense  smooth     PW     G-vecs:    dense   smooth      PW
     Min         329     130     39                61797    15613    2499
     Max         330     131     40                61814    15645    2512
     Sum        2635    1045    313               494447   125015   20053
 


     bravais-lattice index     =            0
     lattice parameter (alat)  =       1.8897  a.u.
     unit-cell volume          =    4158.3597 (a.u.)^3
     number of atoms/cell      =           13
     number of atomic types    =            2
     number of electrons       =       162.00
     number of Kohn-Sham states=           91
     kinetic-energy cutoff     =      36.7493  Ry
     charge density cutoff     =     367.4932  Ry
     convergence threshold     =      1.0E-05
     mixing beta               =       0.3000
     number of iterations used =           10  plain     mixing
     Exchange-correlation      = BEEF-VDW ( 1  4 27 13 2)
     nstep                     =           50


     celldm(1)=   1.889726  celldm(2)=   0.000000  celldm(3)=   0.000000
     celldm(4)=   0.000000  celldm(5)=   0.000000  celldm(6)=   0.000000

     crystal axes: (cart. coord. in units of alat)
               a(1) = (   5.399178   0.000000   0.000000 )  
               a(2) = (   2.699589   4.675825   0.000000 )  
               a(3) = (   0.000000   0.000000  24.408411 )  

     reciprocal axes: (cart. coord. in units 2 pi/alat)
               b(1) = (  0.185213 -0.106933  0.000000 )  
               b(2) = (  0.000000  0.213866  0.000000 )  
               b(3) = (  0.000000  0.000000  0.040969 )  


     PseudoPot. # 1 for V  read from file:
     /u/if/mamunm/psp/gbrv1.5pbe/V.UPF
     MD5 check sum: 22b79981416ebb76fdaf5b1b8640f6fb
     Pseudo is Ultrasoft + core correction, Zval = 13.0
     Generated by new atomic code, or converted to UPF format
     Using radial grid of  853 points,  6 beta functions with: 
                l(1) =   0
                l(2) =   0
                l(3) =   1
                l(4) =   1
                l(5) =   2
                l(6) =   2
     Q(r) pseudized with  8 coefficients,  rinner =    1.100   1.100   1.100
                                                       1.100   1.100

     PseudoPot. # 2 for S  read from file:
     /u/if/mamunm/psp/gbrv1.5pbe/S.UPF
     MD5 check sum: 88d86576ff6df21479756cfb9bdac1df
     Pseudo is Ultrasoft + core correction, Zval =  6.0
     Generated by new atomic code, or converted to UPF format
     Using radial grid of  907 points,  6 beta functions with: 
                l(1) =   0
                l(2) =   0
                l(3) =   1
                l(4) =   1
                l(5) =   2
                l(6) =   2
     Q(r) pseudized with  8 coefficients,  rinner =    1.300   1.300   1.300
                                                       1.300   1.300

     vdW kernel table read from file vdW_kernel_table
     MD5 check sum: 095c7af220d748ca6e76c0b4c6cfb241

     atomic species   valence    mass     pseudopotential
        V1            13.00    50.94150     V ( 1.00)
        S1             6.00    32.06000     S ( 1.00)

     No symmetry found



   Cartesian axes

     site n.     atom                  positions (alat units)
         1           V1  tau(   1) = (   1.3497945   0.7793042  10.0000000  )
         2           V1  tau(   2) = (   4.0493836   0.7793042  10.0000000  )
         3           V1  tau(   3) = (   2.6995891   3.1172170  10.0000000  )
         4           V1  tau(   4) = (   5.3991782   3.1172170  10.0000000  )
         5           V1  tau(   5) = (   5.3991782   1.5586085  12.2042053  )
         6           V1  tau(   6) = (   2.6995891   1.5586085  12.2042053  )
         7           V1  tau(   7) = (   6.7489727   3.8965212  12.2042053  )
         8           V1  tau(   8) = (   4.0493836   3.8965212  12.2042053  )
         9           V1  tau(   9) = (   0.0000000   0.0000000  14.4084105  )
        10           V1  tau(  10) = (   2.6995891   0.0000000  14.4084105  )
        11           V1  tau(  11) = (   1.3497945   2.3379127  14.4084105  )
        12           V1  tau(  12) = (   4.0493836   2.3379127  14.4084105  )
        13           S1  tau(  13) = (   0.0000000   0.0000000  16.6014105  )

     number of k points=    20  Fermi-Dirac smearing, width (Ry)=  0.0110
                       cart. coord. in units 2pi/alat
        k(    1) = (   0.0000000   0.0000000   0.0000000), wk =   0.0555556
        k(    2) = (   0.0000000   0.0356443   0.0000000), wk =   0.1111111
        k(    3) = (   0.0000000   0.0712887   0.0000000), wk =   0.1111111
        k(    4) = (   0.0000000  -0.1069330   0.0000000), wk =   0.0555556
        k(    5) = (   0.0308689  -0.0178222   0.0000000), wk =   0.1111111
        k(    6) = (   0.0308689   0.0178222   0.0000000), wk =   0.1111111
        k(    7) = (   0.0308689   0.0534665   0.0000000), wk =   0.1111111
        k(    8) = (   0.0308689  -0.1247552   0.0000000), wk =   0.1111111
        k(    9) = (   0.0308689  -0.0891108   0.0000000), wk =   0.1111111
        k(   10) = (   0.0308689  -0.0534665   0.0000000), wk =   0.1111111
        k(   11) = (   0.0617378  -0.0356443   0.0000000), wk =   0.1111111
        k(   12) = (   0.0617378   0.0000000   0.0000000), wk =   0.1111111
        k(   13) = (   0.0617378   0.0356443   0.0000000), wk =   0.1111111
        k(   14) = (   0.0617378  -0.1425773   0.0000000), wk =   0.1111111
        k(   15) = (   0.0617378  -0.1069330   0.0000000), wk =   0.1111111
        k(   16) = (   0.0617378  -0.0712887   0.0000000), wk =   0.1111111
        k(   17) = (  -0.0926067   0.0534665   0.0000000), wk =   0.0555556
        k(   18) = (  -0.0926067   0.0891108   0.0000000), wk =   0.1111111
        k(   19) = (  -0.0926067   0.1247552   0.0000000), wk =   0.1111111
        k(   20) = (  -0.0926067  -0.0534665   0.0000000), wk =   0.0555556

     Dense  grid:   494447 G-vectors     FFT dimensions: (  64,  64, 288)

     Smooth grid:   125015 G-vectors     FFT dimensions: (  40,  40, 180)

     Largest allocated arrays     est. size (Mb)     dimensions
        Kohn-Sham Wavefunctions         2.84 Mb     (    2047,   91)
        NL pseudopotentials             7.31 Mb     (    2047,  234)
        Each V/rho on FFT grid          2.25 Mb     (  147456)
        Each G-vector array             0.47 Mb     (   61814)
        G-vector shells                 0.12 Mb     (   16161)
     Largest temporary arrays     est. size (Mb)     dimensions
        Auxiliary wavefunctions        11.37 Mb     (    2047,  364)
        Each subspace H/S matrix        2.02 Mb     (     364,  364)
        Each <psi_i|beta_j> matrix      0.32 Mb     (     234,   91)
        Arrays for rho mixing          22.50 Mb     (  147456,   10)

     Check: negative/imaginary core charge=   -0.000001    0.000000

     Initial potential from superposition of free atoms
     Check: negative starting charge=   -0.011524

     starting charge  161.98523, renormalised to  162.00000

     negative rho (up, down):  1.153E-02 0.000E+00


     ************************************************************************
     *
     * You are using vdW-DF for exchange-correlation in this calculation.
     * Please cite the following three references that made this development
     * possible:
     *
     *   M. Dion, H. Rydberg, E. Schroder, D. C. Langreth, and
     *   B. I. Lundqvist, Phys. Rev. Lett. 92, 246401 (2004).
     *
     *   T. Thonhauser, V. R. Cooper, S. Li, A. Puzder, P. Hyldgaard, and
     *   D. C. Langreth, Phys. Rev. B 76, 125112 (2007).
     *
     *   G. Roman-Perez and J. M. Soler, Phys. Rev. Lett. 103, 096102 (2009).
     *
     *
     * If you are using vdW-DF2, please also cite:
     *
     *   K. Lee, E. D. Murray, L. Kong, B. I. Lundqvist, and
     *   D. C. Langreth, Phys. Rev. B 82, 081101(R) (2010).
     *
     *
     * If you are calculating the stress with vdW-DF, please also cite:
     *
     *   R. Sabatini, E. Kucukbenli, B. Kolb, T. Thonhauser, and
     *   S. de Gironcoli, J. Phys.: Condens. Matter 24, 424209 (2012).
     *
     ************************************************************************

     Carrying out vdW-DF run using the following parameters:

     Nqs =      20    Nr_points =    1024   r_max =   100.000
     q_mesh =
               0.00001000     0.04494208     0.09755937     0.15916263
               0.23128650     0.31572767     0.41458969     0.53033537
               0.66584808     0.82450364     1.01025438     1.22772762
               1.48234092     1.78043706     2.12944203     2.53805004
               3.01644009     3.57652955     4.23227104     5.00000000

     Gradients computed in reciprocal space

     ************************************************************************


 
     Adding external electric field

     Computed dipole along edir(3) : 
        Dipole               -0.0042 Ry au,         -0.0108 Debye
        Dipole field         -0.0000 Ry au
 
        Potential amp.        0.0012 Ry
        Total length         44.9721 bohr
 
     Starting wfc are  124 randomized atomic wfcs

     total cpu time spent up to now is        9.9 secs

     per-process dynamical memory:    70.2 Mb

     Self-consistent Calculation

     iteration #  1     ecut=    36.75 Ry     beta=0.30
     Davidson diagonalization with overlap
     ethr =  1.00E-02,  avg # of iterations =  2.4

     negative rho (up, down):  1.188E-02 0.000E+00
 
     Adding external electric field

     Computed dipole along edir(3) : 
        Dipole                0.2845 Ry au,          0.7231 Debye
        Dipole field          0.0009 Ry au
 
        Potential amp.       -0.0773 Ry
        Total length         44.9721 bohr
 

     total cpu time spent up to now is       24.8 secs

     total energy              =   -1767.01428830 Ry
     Harris-Foulkes estimate   =   -1774.14728086 Ry
     estimated scf accuracy    <      14.55285353 Ry

     iteration #  2     ecut=    36.75 Ry     beta=0.30
     Davidson diagonalization with overlap
     ethr =  8.98E-03,  avg # of iterations =  6.3

     negative rho (up, down):  1.104E-02 0.000E+00
 
     Adding external electric field

     Computed dipole along edir(3) : 
        Dipole                3.6231 Ry au,          9.2089 Debye
        Dipole field          0.0109 Ry au
 
        Potential amp.       -0.9848 Ry
        Total length         44.9721 bohr
 

     total cpu time spent up to now is       44.5 secs

     total energy              =   -1763.92717014 Ry
     Harris-Foulkes estimate   =   -1789.56591503 Ry
     estimated scf accuracy    <     262.86165282 Ry

     iteration #  3     ecut=    36.75 Ry     beta=0.30
     Davidson diagonalization with overlap
     ethr =  8.98E-03,  avg # of iterations =  8.2

     negative rho (up, down):  1.070E-02 0.000E+00
 
     Adding external electric field

     Computed dipole along edir(3) : 
        Dipole               -1.0624 Ry au,         -2.7003 Debye
        Dipole field         -0.0032 Ry au
 
        Potential amp.        0.2888 Ry
        Total length         44.9721 bohr
 

     total cpu time spent up to now is       65.6 secs

     total energy              =   -1762.38450359 Ry
     Harris-Foulkes estimate   =   -1794.30835260 Ry
     estimated scf accuracy    <    1132.30307773 Ry

     iteration #  4     ecut=    36.75 Ry     beta=0.30
     Davidson diagonalization with overlap
     ethr =  8.98E-03,  avg # of iterations =  6.7

     negative rho (up, down):  1.099E-02 0.000E+00
 
     Adding external electric field

     Computed dipole along edir(3) : 
        Dipole               -0.6769 Ry au,         -1.7206 Debye
        Dipole field         -0.0020 Ry au
 
        Potential amp.        0.1840 Ry
        Total length         44.9721 bohr
 

     total cpu time spent up to now is       85.1 secs

     total energy              =   -1773.13626773 Ry
     Harris-Foulkes estimate   =   -1773.74805641 Ry
     estimated scf accuracy    <      45.19384986 Ry

     iteration #  5     ecut=    36.75 Ry     beta=0.30
     Davidson diagonalization with overlap
     ethr =  8.98E-03,  avg # of iterations =  1.2

     negative rho (up, down):  1.177E-02 0.000E+00
 
     Adding external electric field

     Computed dipole along edir(3) : 
        Dipole               -0.4483 Ry au,         -1.1394 Debye
        Dipole field         -0.0014 Ry au
 
        Potential amp.        0.1218 Ry
        Total length         44.9721 bohr
 

     total cpu time spent up to now is       99.0 secs

     total energy              =   -1773.12273051 Ry
     Harris-Foulkes estimate   =   -1773.32338092 Ry
     estimated scf accuracy    <      15.29744724 Ry

     iteration #  6     ecut=    36.75 Ry     beta=0.30
     Davidson diagonalization with overlap
     ethr =  8.98E-03,  avg # of iterations =  1.0

     negative rho (up, down):  1.275E-02 0.000E+00
 
     Adding external electric field

     Computed dipole along edir(3) : 
        Dipole               -0.4329 Ry au,         -1.1004 Debye
        Dipole field         -0.0013 Ry au
 
        Potential amp.        0.1177 Ry
        Total length         44.9721 bohr
 

     total cpu time spent up to now is      112.6 secs

     total energy              =   -1773.04264112 Ry
     Harris-Foulkes estimate   =   -1773.18896204 Ry
     estimated scf accuracy    <       7.00958644 Ry

     iteration #  7     ecut=    36.75 Ry     beta=0.30
     Davidson diagonalization with overlap
     ethr =  4.33E-03,  avg # of iterations =  1.4

     negative rho (up, down):  1.458E-02 0.000E+00
 
     Adding external electric field

     Computed dipole along edir(3) : 
        Dipole               -0.1698 Ry au,         -0.4317 Debye
        Dipole field         -0.0005 Ry au
 
        Potential amp.        0.0462 Ry
        Total length         44.9721 bohr
 

     total cpu time spent up to now is      126.9 secs

     total energy              =   -1773.03514468 Ry
     Harris-Foulkes estimate   =   -1773.13462682 Ry
     estimated scf accuracy    <       2.32178539 Ry

     iteration #  8     ecut=    36.75 Ry     beta=0.30
     Davidson diagonalization with overlap
     ethr =  1.43E-03,  avg # of iterations =  8.4

     negative rho (up, down):  1.394E-02 0.000E+00
 
     Adding external electric field

     Computed dipole along edir(3) : 
        Dipole               -0.2167 Ry au,         -0.5508 Debye
        Dipole field         -0.0007 Ry au
 
        Potential amp.        0.0589 Ry
        Total length         44.9721 bohr
 

     total cpu time spent up to now is      145.8 secs

     total energy              =   -1773.42784186 Ry
     Harris-Foulkes estimate   =   -1773.46678083 Ry
     estimated scf accuracy    <       8.15771433 Ry

     iteration #  9     ecut=    36.75 Ry     beta=0.30
     Davidson diagonalization with overlap
     ethr =  1.43E-03,  avg # of iterations =  1.1

     negative rho (up, down):  1.385E-02 0.000E+00
 
     Adding external electric field

     Computed dipole along edir(3) : 
        Dipole               -0.2885 Ry au,         -0.7333 Debye
        Dipole field         -0.0009 Ry au
 
        Potential amp.        0.0784 Ry
        Total length         44.9721 bohr
 

     total cpu time spent up to now is      159.5 secs

     total energy              =   -1773.42017109 Ry
     Harris-Foulkes estimate   =   -1773.44424816 Ry
     estimated scf accuracy    <       5.50157042 Ry

     iteration # 10     ecut=    36.75 Ry     beta=0.30
     Davidson diagonalization with overlap
     ethr =  1.43E-03,  avg # of iterations =  1.0

     negative rho (up, down):  1.354E-02 0.000E+00
 
     Adding external electric field

     Computed dipole along edir(3) : 
        Dipole               -0.3591 Ry au,         -0.9128 Debye
        Dipole field         -0.0011 Ry au
 
        Potential amp.        0.0976 Ry
        Total length         44.9721 bohr
 

     total cpu time spent up to now is      173.8 secs

     total energy              =   -1773.37910017 Ry
     Harris-Foulkes estimate   =   -1773.42630472 Ry
     estimated scf accuracy    <       4.08939794 Ry

     iteration # 11     ecut=    36.75 Ry     beta=0.30
     Davidson diagonalization with overlap
     ethr =  1.43E-03,  avg # of iterations =  1.0

     negative rho (up, down):  1.356E-02 0.000E+00
 
     Adding external electric field

     Computed dipole along edir(3) : 
        Dipole               -0.3918 Ry au,         -0.9959 Debye
        Dipole field         -0.0012 Ry au
 
        Potential amp.        0.1065 Ry
        Total length         44.9721 bohr
 

     total cpu time spent up to now is      187.4 secs

     total energy              =   -1773.37013341 Ry
     Harris-Foulkes estimate   =   -1773.40032121 Ry
     estimated scf accuracy    <       3.25203972 Ry

     iteration # 12     ecut=    36.75 Ry     beta=0.30
     Davidson diagonalization with overlap
     ethr =  1.43E-03,  avg # of iterations =  1.0

     negative rho (up, down):  1.385E-02 0.000E+00
 
     Adding external electric field

     Computed dipole along edir(3) : 
        Dipole               -0.3987 Ry au,         -1.0134 Debye
        Dipole field         -0.0012 Ry au
 
        Potential amp.        0.1084 Ry
        Total length         44.9721 bohr
 

     total cpu time spent up to now is      201.1 secs

     total energy              =   -1773.35192895 Ry
     Harris-Foulkes estimate   =   -1773.37975693 Ry
     estimated scf accuracy    <       1.29158810 Ry

     iteration # 13     ecut=    36.75 Ry     beta=0.30
     Davidson diagonalization with overlap
     ethr =  7.97E-04,  avg # of iterations =  1.1

     negative rho (up, down):  1.409E-02 0.000E+00
 
     Adding external electric field

     Computed dipole along edir(3) : 
        Dipole               -0.3914 Ry au,         -0.9947 Debye
        Dipole field         -0.0012 Ry au
 
        Potential amp.        0.1064 Ry
        Total length         44.9721 bohr
 

     total cpu time spent up to now is      215.0 secs

     total energy              =   -1773.36207582 Ry
     Harris-Foulkes estimate   =   -1773.36547854 Ry
     estimated scf accuracy    <       0.03838496 Ry

     iteration # 14     ecut=    36.75 Ry     beta=0.30
     Davidson diagonalization with overlap
     ethr =  2.37E-05,  avg # of iterations =  7.9

     negative rho (up, down):  1.428E-02 0.000E+00
 
     Adding external electric field

     Computed dipole along edir(3) : 
        Dipole               -0.3077 Ry au,         -0.7820 Debye
        Dipole field         -0.0009 Ry au
 
        Potential amp.        0.0836 Ry
        Total length         44.9721 bohr
 

     total cpu time spent up to now is      235.0 secs

     total energy              =   -1773.37669885 Ry
     Harris-Foulkes estimate   =   -1773.38174883 Ry
     estimated scf accuracy    <       0.84559133 Ry

     iteration # 15     ecut=    36.75 Ry     beta=0.30
     Davidson diagonalization with overlap
     ethr =  2.37E-05,  avg # of iterations =  2.2

     negative rho (up, down):  1.433E-02 0.000E+00
 
     Adding external electric field

     Computed dipole along edir(3) : 
        Dipole               -0.3001 Ry au,         -0.7627 Debye
        Dipole field         -0.0009 Ry au
 
        Potential amp.        0.0816 Ry
        Total length         44.9721 bohr
 

     total cpu time spent up to now is      249.3 secs

     total energy              =   -1773.37728980 Ry
     Harris-Foulkes estimate   =   -1773.37854512 Ry
     estimated scf accuracy    <       0.81681343 Ry

     iteration # 16     ecut=    36.75 Ry     beta=0.30
     Davidson diagonalization with overlap
     ethr =  2.37E-05,  avg # of iterations =  1.4

     negative rho (up, down):  1.431E-02 0.000E+00
 
     Adding external electric field

     Computed dipole along edir(3) : 
        Dipole               -0.2942 Ry au,         -0.7477 Debye
        Dipole field         -0.0009 Ry au
 
        Potential amp.        0.0800 Ry
        Total length         44.9721 bohr
 

     total cpu time spent up to now is      263.3 secs

     total energy              =   -1773.37099478 Ry
     Harris-Foulkes estimate   =   -1773.37807641 Ry
     estimated scf accuracy    <       0.80141315 Ry

     iteration # 17     ecut=    36.75 Ry     beta=0.30
     Davidson diagonalization with overlap
     ethr =  2.37E-05,  avg # of iterations =  4.7

     negative rho (up, down):  1.433E-02 0.000E+00
 
     Adding external electric field

     Computed dipole along edir(3) : 
        Dipole               -0.2684 Ry au,         -0.6822 Debye
        Dipole field         -0.0008 Ry au
 
        Potential amp.        0.0730 Ry
        Total length         44.9721 bohr
 

     total cpu time spent up to now is      278.8 secs

     total energy              =   -1773.36919805 Ry
     Harris-Foulkes estimate   =   -1773.37297879 Ry
     estimated scf accuracy    <       0.23449472 Ry

     iteration # 18     ecut=    36.75 Ry     beta=0.30
     Davidson diagonalization with overlap
     ethr =  2.37E-05,  avg # of iterations =  6.8

     negative rho (up, down):  1.451E-02 0.000E+00
 
     Adding external electric field

     Computed dipole along edir(3) : 
        Dipole               -0.2305 Ry au,         -0.5858 Debye
        Dipole field         -0.0007 Ry au
 
        Potential amp.        0.0626 Ry
        Total length         44.9721 bohr
 

     total cpu time spent up to now is      296.7 secs

     total energy              =   -1773.37124666 Ry
     Harris-Foulkes estimate   =   -1773.37182106 Ry
     estimated scf accuracy    <       0.00756416 Ry

     iteration # 19     ecut=    36.75 Ry     beta=0.30
     Davidson diagonalization with overlap
     ethr =  4.67E-06,  avg # of iterations =  6.9

     negative rho (up, down):  1.448E-02 0.000E+00
 
     Adding external electric field

     Computed dipole along edir(3) : 
        Dipole               -0.2318 Ry au,         -0.5891 Debye
        Dipole field         -0.0007 Ry au
 
        Potential amp.        0.0630 Ry
        Total length         44.9721 bohr
 

     total cpu time spent up to now is      315.8 secs

     total energy              =   -1773.37204773 Ry
     Harris-Foulkes estimate   =   -1773.37227190 Ry
     estimated scf accuracy    <       0.00590410 Ry

     iteration # 20     ecut=    36.75 Ry     beta=0.30
     Davidson diagonalization with overlap
     ethr =  3.64E-06,  avg # of iterations =  1.2

     negative rho (up, down):  1.473E-02 0.000E+00
 
     Adding external electric field

     Computed dipole along edir(3) : 
        Dipole               -0.2149 Ry au,         -0.5463 Debye
        Dipole field         -0.0006 Ry au
 
        Potential amp.        0.0584 Ry
        Total length         44.9721 bohr
 

     total cpu time spent up to now is      330.2 secs

     total energy              =   -1773.37208952 Ry
     Harris-Foulkes estimate   =   -1773.37216939 Ry
     estimated scf accuracy    <       0.00516767 Ry

     iteration # 21     ecut=    36.75 Ry     beta=0.30
     Davidson diagonalization with overlap
     ethr =  3.19E-06,  avg # of iterations =  1.1

     negative rho (up, down):  1.470E-02 0.000E+00
 
     Adding external electric field

     Computed dipole along edir(3) : 
        Dipole               -0.2185 Ry au,         -0.5554 Debye
        Dipole field         -0.0007 Ry au
 
        Potential amp.        0.0594 Ry
        Total length         44.9721 bohr
 

     total cpu time spent up to now is      344.5 secs

     total energy              =   -1773.37210926 Ry
     Harris-Foulkes estimate   =   -1773.37216588 Ry
     estimated scf accuracy    <       0.00264589 Ry

     iteration # 22     ecut=    36.75 Ry     beta=0.30
     Davidson diagonalization with overlap
     ethr =  1.63E-06,  avg # of iterations =  1.6

     negative rho (up, down):  1.485E-02 0.000E+00
 
     Adding external electric field

     Computed dipole along edir(3) : 
        Dipole               -0.2115 Ry au,         -0.5375 Debye
        Dipole field         -0.0006 Ry au
 
        Potential amp.        0.0575 Ry
        Total length         44.9721 bohr
 

     total cpu time spent up to now is      359.1 secs

     total energy              =   -1773.37211099 Ry
     Harris-Foulkes estimate   =   -1773.37216973 Ry
     estimated scf accuracy    <       0.00237149 Ry

     iteration # 23     ecut=    36.75 Ry     beta=0.30
     Davidson diagonalization with overlap
     ethr =  1.46E-06,  avg # of iterations =  2.0

     negative rho (up, down):  1.501E-02 0.000E+00
 
     Adding external electric field

     Computed dipole along edir(3) : 
        Dipole               -0.2055 Ry au,         -0.5224 Debye
        Dipole field         -0.0006 Ry au
 
        Potential amp.        0.0559 Ry
        Total length         44.9721 bohr
 

     total cpu time spent up to now is      373.9 secs

     total energy              =   -1773.37214052 Ry
     Harris-Foulkes estimate   =   -1773.37216696 Ry
     estimated scf accuracy    <       0.00057147 Ry

     iteration # 24     ecut=    36.75 Ry     beta=0.30
     Davidson diagonalization with overlap
     ethr =  3.53E-07,  avg # of iterations =  5.9

     negative rho (up, down):  1.505E-02 0.000E+00
 
     Adding external electric field

     Computed dipole along edir(3) : 
        Dipole               -0.2042 Ry au,         -0.5190 Debye
        Dipole field         -0.0006 Ry au
 
        Potential amp.        0.0555 Ry
        Total length         44.9721 bohr
 

     total cpu time spent up to now is      392.0 secs

     total energy              =   -1773.37217481 Ry
     Harris-Foulkes estimate   =   -1773.37219223 Ry
     estimated scf accuracy    <       0.00036579 Ry

     iteration # 25     ecut=    36.75 Ry     beta=0.30
     Davidson diagonalization with overlap
     ethr =  2.26E-07,  avg # of iterations =  1.6

     negative rho (up, down):  1.511E-02 0.000E+00
 
     Adding external electric field

     Computed dipole along edir(3) : 
        Dipole               -0.2032 Ry au,         -0.5164 Debye
        Dipole field         -0.0006 Ry au
 
        Potential amp.        0.0552 Ry
        Total length         44.9721 bohr
 

     total cpu time spent up to now is      406.6 secs

     total energy              =   -1773.37217502 Ry
     Harris-Foulkes estimate   =   -1773.37218466 Ry
     estimated scf accuracy    <       0.00023604 Ry

     iteration # 26     ecut=    36.75 Ry     beta=0.30
     Davidson diagonalization with overlap
     ethr =  1.46E-07,  avg # of iterations =  2.5

     negative rho (up, down):  1.519E-02 0.000E+00
 
     Adding external electric field

     Computed dipole along edir(3) : 
        Dipole               -0.2007 Ry au,         -0.5101 Debye
        Dipole field         -0.0006 Ry au
 
        Potential amp.        0.0545 Ry
        Total length         44.9721 bohr
 

     total cpu time spent up to now is      421.7 secs

     total energy              =   -1773.37217765 Ry
     Harris-Foulkes estimate   =   -1773.37218304 Ry
     estimated scf accuracy    <       0.00007934 Ry

     iteration # 27     ecut=    36.75 Ry     beta=0.30
     Davidson diagonalization with overlap
     ethr =  4.90E-08,  avg # of iterations =  6.3

     negative rho (up, down):  1.525E-02 0.000E+00
 
     Adding external electric field

     Computed dipole along edir(3) : 
        Dipole               -0.1986 Ry au,         -0.5049 Debye
        Dipole field         -0.0006 Ry au
 
        Potential amp.        0.0540 Ry
        Total length         44.9721 bohr
 

     total cpu time spent up to now is      439.4 secs

     total energy              =   -1773.37218070 Ry
     Harris-Foulkes estimate   =   -1773.37218459 Ry
     estimated scf accuracy    <       0.00004143 Ry

     iteration # 28     ecut=    36.75 Ry     beta=0.30
     Davidson diagonalization with overlap
     ethr =  2.56E-08,  avg # of iterations =  3.8

     negative rho (up, down):  1.532E-02 0.000E+00

     negative rho (up, down):  1.532E-02 0.000E+00

     negative rho (up, down):  1.532E-02 0.000E+00

     negative rho (up, down):  1.532E-02 0.000E+00

     negative rho (up, down):  1.532E-02 0.000E+00

     negative rho (up, down):  1.532E-02 0.000E+00

     negative rho (up, down):  1.532E-02 0.000E+00

     negative rho (up, down):  1.532E-02 0.000E+00

     negative rho (up, down):  1.532E-02 0.000E+00

     negative rho (up, down):  1.532E-02 0.000E+00

     negative rho (up, down):  1.532E-02 0.000E+00

     negative rho (up, down):  1.532E-02 0.000E+00

     negative rho (up, down):  1.532E-02 0.000E+00

     negative rho (up, down):  1.532E-02 0.000E+00

     negative rho (up, down):  1.532E-02 0.000E+00

     negative rho (up, down):  1.532E-02 0.000E+00

     negative rho (up, down):  1.532E-02 0.000E+00

     negative rho (up, down):  1.532E-02 0.000E+00

     negative rho (up, down):  1.532E-02 0.000E+00

     negative rho (up, down):  1.532E-02 0.000E+00

     negative rho (up, down):  1.532E-02 0.000E+00

     negative rho (up, down):  1.532E-02 0.000E+00

     negative rho (up, down):  1.532E-02 0.000E+00

     negative rho (up, down):  1.532E-02 0.000E+00

     negative rho (up, down):  1.532E-02 0.000E+00

     negative rho (up, down):  1.532E-02 0.000E+00

     negative rho (up, down):  1.532E-02 0.000E+00

     negative rho (up, down):  1.532E-02 0.000E+00

     negative rho (up, down):  1.532E-02 0.000E+00

     negative rho (up, down):  1.532E-02 0.000E+00

     negative rho (up, down):  1.532E-02 0.000E+00

     negative rho (up, down):  1.532E-02 0.000E+00

     negative rho (up, down):  1.532E-02 0.000E+00

     negative rho (up, down):  1.532E-02 0.000E+00

     negative rho (up, down):  1.532E-02 0.000E+00
 
     Adding external electric field

     Computed dipole along edir(3) : 
        Dipole               -0.2067 Ry au,         -0.5255 Debye
        Dipole field         -0.0006 Ry au
 
        Potential amp.        0.0562 Ry
        Total length         44.9721 bohr
 

     total cpu time spent up to now is      495.8 secs

     End of self-consistent calculation

          k = 0.0000 0.0000 0.0000 ( 15569 PWs)   bands (ev):

   -63.3075 -63.2247 -63.1913 -63.1905 -63.1755 -63.1546 -63.1194 -63.0967
   -63.0965 -63.0728 -63.0691 -63.0685 -37.3832 -37.3830 -37.3531 -37.3400
   -37.3341 -37.3338 -37.3032 -37.2381 -37.2376 -37.2308 -37.1068 -37.0541
   -37.0535 -37.0480 -36.9458 -36.9437 -36.9431 -36.9226 -36.8675 -36.8674
   -36.8264 -36.8077 -36.8011 -36.8007 -36.7951 -36.7949 -36.7652 -36.7271
   -36.7268 -36.7199 -36.7085 -36.7082 -36.6594 -36.6594 -36.5995 -36.5995
   -11.0127  -5.0576  -3.5423  -2.4310  -2.1270  -2.1269  -2.0527  -2.0014
    -1.8031  -1.8030  -1.5409  -1.5408  -1.4987  -1.3224  -1.3223  -1.3034
    -1.1450  -1.1449  -1.1038  -0.4140  -0.0975  -0.0974   0.5299   0.6357
     0.7663   0.7663   0.8743   1.0369   1.1703   1.1703   1.2508   1.2511
     1.3253   1.3254   1.4123   1.4217   1.4218   1.4342   1.4519   1.4519
     1.8786   2.1837   2.1840

          k = 0.0000 0.0356 0.0000 ( 15635 PWs)   bands (ev):

   -63.2996 -63.2177 -63.1969 -63.1913 -63.1772 -63.1505 -63.1210 -63.1022
   -63.0967 -63.0755 -63.0703 -63.0687 -37.3608 -37.3521 -37.3388 -37.3149
   -37.3147 -37.3073 -37.2819 -37.2171 -37.2132 -37.1986 -37.1046 -37.0663
   -37.0593 -37.0548 -36.9479 -36.9459 -36.9401 -36.9300 -36.8846 -36.8648
   -36.8448 -36.8374 -36.8086 -36.7939 -36.7909 -36.7854 -36.7756 -36.7513
   -36.7417 -36.7358 -36.7264 -36.7090 -36.6913 -36.6685 -36.6374 -36.6075
   -11.0062  -4.8419  -3.3499  -2.2554  -2.1077  -2.0430  -2.0262  -1.9242
    -1.7705  -1.6917  -1.6081  -1.5146  -1.3984  -1.2170  -1.1707  -1.1537
    -1.0454  -1.0162  -0.9954  -0.3706  -0.1250  -0.0981   0.4577   0.6637
     0.7805   0.8014   0.8119   0.9250   0.9692   1.0156   1.1129   1.2520
     1.2757   1.3130   1.3721   1.3795   1.3894   1.4301   1.4650   1.5942
     1.6293   1.9067   1.9240

          k = 0.0000 0.0713 0.0000 ( 15669 PWs)   bands (ev):

   -63.2781 -63.2179 -63.1985 -63.1914 -63.1786 -63.1469 -63.1256 -63.1084
   -63.0968 -63.0863 -63.0712 -63.0686 -37.3056 -37.3040 -37.2851 -37.2703
   -37.2578 -37.2456 -37.2223 -37.1679 -37.1634 -37.1137 -37.1031 -37.0778
   -37.0749 -37.0612 -36.9814 -36.9456 -36.9354 -36.9308 -36.9196 -36.8908
   -36.8823 -36.8782 -36.8422 -36.8252 -36.8109 -36.8090 -36.7818 -36.7763
   -36.7683 -36.7667 -36.7618 -36.7436 -36.7165 -36.6955 -36.6875 -36.6292
   -10.9933  -4.2347  -2.8499  -2.5384  -2.0737  -1.8540  -1.8093  -1.6555
    -1.6151  -1.4762  -1.4751  -1.3711  -1.2346  -1.0156  -0.8508  -0.8223
    -0.7341  -0.6416  -0.6178  -0.2571  -0.1083  -0.0801   0.1495   0.4138
     0.4748   0.5272   0.6371   0.7050   0.8338   0.9308   0.9309   0.9596
     1.0127   1.0694   1.1037   1.1703   1.3297   1.4267   1.4760   1.4920
     1.5795   1.6516   1.7085

          k = 0.0000-0.1069 0.0000 ( 15660 PWs)   bands (ev):

   -63.2533 -63.2425 -63.1914 -63.1819 -63.1777 -63.1591 -63.1230 -63.1030
   -63.1001 -63.0968 -63.0714 -63.0686 -37.2664 -37.2651 -37.2574 -37.2438
   -37.2418 -37.2227 -37.1444 -37.1395 -37.1336 -37.1234 -37.0939 -37.0931
   -37.0348 -37.0061 -36.9991 -36.9580 -36.9510 -36.9484 -36.9433 -36.9361
   -36.8917 -36.8714 -36.8681 -36.8656 -36.8640 -36.8607 -36.8142 -36.7899
   -36.7827 -36.7658 -36.7534 -36.7445 -36.7297 -36.7232 -36.6627 -36.6557
   -10.9869  -3.3813  -3.3661  -2.3553  -2.2801  -1.7102  -1.6680  -1.6209
    -1.3409  -1.3348  -1.2559  -1.2240  -1.1206  -0.9838  -0.5430  -0.5120
    -0.4663  -0.4570  -0.3625  -0.2875   0.0496   0.0641   0.0821   0.1229
     0.2112   0.2283   0.4543   0.4920   0.5629   0.6187   0.6272   0.7808
     0.8275   0.9241   0.9793   1.0239   1.1396   1.2097   1.2168   1.4044
     1.4187   1.6805   1.7226

          k = 0.0309-0.0178 0.0000 ( 15635 PWs)   bands (ev):

   -63.2996 -63.2177 -63.1974 -63.1907 -63.1774 -63.1505 -63.1210 -63.1020
   -63.0967 -63.0755 -63.0705 -63.0685 -37.3610 -37.3519 -37.3388 -37.3149
   -37.3147 -37.3072 -37.2819 -37.2173 -37.2129 -37.1986 -37.1046 -37.0665
   -37.0588 -37.0550 -36.9478 -36.9461 -36.9402 -36.9298 -36.8847 -36.8648
   -36.8449 -36.8373 -36.8085 -36.7939 -36.7910 -36.7854 -36.7756 -36.7515
   -36.7416 -36.7359 -36.7263 -36.7088 -36.6914 -36.6685 -36.6374 -36.6074
   -11.0062  -4.8419  -3.3499  -2.2554  -2.1077  -2.0430  -2.0262  -1.9241
    -1.7705  -1.6917  -1.6081  -1.5146  -1.3984  -1.2170  -1.1707  -1.1536
    -1.0454  -1.0163  -0.9954  -0.3706  -0.1249  -0.0982   0.4577   0.6637
     0.7804   0.8014   0.8120   0.9250   0.9691   1.0158   1.1129   1.2520
     1.2758   1.3130   1.3721   1.3795   1.3894   1.4301   1.4650   1.5942
     1.6292   1.9071   1.9240

          k = 0.0309 0.0178 0.0000 ( 15635 PWs)   bands (ev):

   -63.2996 -63.2177 -63.1973 -63.1908 -63.1773 -63.1505 -63.1209 -63.1024
   -63.0965 -63.0754 -63.0700 -63.0690 -37.3610 -37.3518 -37.3388 -37.3150
   -37.3147 -37.3072 -37.2819 -37.2168 -37.2135 -37.1985 -37.1046 -37.0665
   -37.0589 -37.0550 -36.9479 -36.9458 -36.9400 -36.9302 -36.8846 -36.8648
   -36.8448 -36.8373 -36.8086 -36.7940 -36.7909 -36.7853 -36.7759 -36.7513
   -36.7418 -36.7358 -36.7264 -36.7089 -36.6914 -36.6685 -36.6374 -36.6074
   -11.0062  -4.8419  -3.3499  -2.2554  -2.1077  -2.0430  -2.0262  -1.9241
    -1.7705  -1.6917  -1.6080  -1.5146  -1.3984  -1.2170  -1.1707  -1.1537
    -1.0454  -1.0162  -0.9954  -0.3706  -0.1250  -0.0980   0.4577   0.6637
     0.7806   0.8014   0.8118   0.9249   0.9691   1.0157   1.1130   1.2520
     1.2756   1.3130   1.3721   1.3795   1.3895   1.4301   1.4650   1.5942
     1.6293   1.9067   1.9241

          k = 0.0309 0.0535 0.0000 ( 15620 PWs)   bands (ev):

   -63.2849 -63.2081 -63.2028 -63.1986 -63.1758 -63.1455 -63.1221 -63.1137
   -63.0948 -63.0791 -63.0761 -63.0667 -37.3247 -37.3143 -37.2948 -37.2825
   -37.2671 -37.2641 -37.2461 -37.1877 -37.1593 -37.1476 -37.1027 -37.0754
   -37.0742 -37.0647 -36.9852 -36.9417 -36.9359 -36.9306 -36.9079 -36.8885
   -36.8635 -36.8484 -36.8253 -36.8158 -36.8138 -36.7912 -36.7844 -36.7780
   -36.7733 -36.7497 -36.7348 -36.7230 -36.7194 -36.7046 -36.6776 -36.6265
   -10.9966  -4.4290  -2.9994  -2.1693  -2.0905  -2.0025  -1.9123  -1.8618
    -1.6747  -1.5617  -1.4921  -1.4469  -1.1874  -1.0177  -0.9856  -0.9133
    -0.8209  -0.7795  -0.7452  -0.2894  -0.1383  -0.0887   0.2804   0.5255
     0.5801   0.6170   0.6931   0.7497   0.8039   0.9468   0.9942   1.0393
     1.1184   1.1784   1.1806   1.2953   1.3203   1.4036   1.5528   1.5961
     1.6109   1.6409   1.6769

          k = 0.0309-0.1248 0.0000 ( 15642 PWs)   bands (ev):

   -63.2598 -63.2286 -63.2052 -63.1837 -63.1728 -63.1507 -63.1272 -63.1129
   -63.0968 -63.0870 -63.0791 -63.0651 -37.2750 -37.2654 -37.2451 -37.2363
   -37.2320 -37.2109 -37.1731 -37.1427 -37.1265 -37.1121 -37.1039 -37.0743
   -37.0670 -37.0385 -37.0151 -36.9770 -36.9583 -36.9344 -36.9262 -36.9140
   -36.8996 -36.8938 -36.8702 -36.8452 -36.8372 -36.8273 -36.8008 -36.7920
   -36.7838 -36.7726 -36.7511 -36.7405 -36.7357 -36.7166 -36.6928 -36.6583
   -10.9869  -3.6827  -2.7996  -2.4604  -2.1272  -2.0005  -1.8096  -1.6359
    -1.5206  -1.3643  -1.1821  -1.1406  -0.9306  -0.8297  -0.6272  -0.5879
    -0.5528  -0.4482  -0.3670  -0.1326  -0.0886  -0.0426   0.0408   0.1590
     0.1988   0.2914   0.4022   0.4743   0.5390   0.6403   0.6825   0.7379
     0.7905   0.8854   0.9155   1.0334   1.1535   1.1809   1.3780   1.4218
     1.4984   1.5781   1.7234

          k = 0.0309-0.0891 0.0000 ( 15642 PWs)   bands (ev):

   -63.2598 -63.2287 -63.2051 -63.1836 -63.1728 -63.1509 -63.1270 -63.1131
   -63.0966 -63.0872 -63.0790 -63.0651 -37.2750 -37.2654 -37.2451 -37.2362
   -37.2320 -37.2109 -37.1731 -37.1428 -37.1264 -37.1120 -37.1040 -37.0743
   -37.0670 -37.0385 -37.0151 -36.9772 -36.9584 -36.9344 -36.9258 -36.9144
   -36.8995 -36.8937 -36.8705 -36.8450 -36.8372 -36.8274 -36.8007 -36.7920
   -36.7837 -36.7729 -36.7511 -36.7400 -36.7361 -36.7167 -36.6928 -36.6583
   -10.9869  -3.6827  -2.7996  -2.4604  -2.1272  -2.0005  -1.8096  -1.6359
    -1.5206  -1.3643  -1.1821  -1.1406  -0.9305  -0.8297  -0.6272  -0.5879
    -0.5528  -0.4482  -0.3670  -0.1326  -0.0885  -0.0426   0.0407   0.1589
     0.1990   0.2913   0.4021   0.4743   0.5389   0.6403   0.6824   0.7380
     0.7904   0.8855   0.9154   1.0335   1.1535   1.1809   1.3781   1.4218
     1.4984   1.5781   1.7231

          k = 0.0309-0.0535 0.0000 ( 15620 PWs)   bands (ev):

   -63.2849 -63.2081 -63.2029 -63.1984 -63.1758 -63.1456 -63.1223 -63.1133
   -63.0946 -63.0798 -63.0757 -63.0666 -37.3247 -37.3143 -37.2948 -37.2825
   -37.2671 -37.2641 -37.2462 -37.1878 -37.1590 -37.1477 -37.1027 -37.0754
   -37.0741 -37.0647 -36.9852 -36.9421 -36.9354 -36.9308 -36.9080 -36.8885
   -36.8635 -36.8486 -36.8251 -36.8159 -36.8136 -36.7913 -36.7844 -36.7782
   -36.7730 -36.7497 -36.7347 -36.7230 -36.7193 -36.7046 -36.6776 -36.6265
   -10.9966  -4.4290  -2.9994  -2.1693  -2.0905  -2.0025  -1.9123  -1.8618
    -1.6747  -1.5617  -1.4922  -1.4469  -1.1873  -1.0177  -0.9855  -0.9133
    -0.8209  -0.7796  -0.7452  -0.2893  -0.1382  -0.0888   0.2804   0.5255
     0.5800   0.6169   0.6933   0.7498   0.8038   0.9468   0.9942   1.0394
     1.1183   1.1785   1.1807   1.2953   1.3203   1.4037   1.5526   1.5961
     1.6110   1.6408   1.6770

          k = 0.0617-0.0356 0.0000 ( 15669 PWs)   bands (ev):

   -63.2781 -63.2182 -63.1985 -63.1908 -63.1790 -63.1470 -63.1256 -63.1082
   -63.0969 -63.0863 -63.0715 -63.0684 -37.3059 -37.3039 -37.2850 -37.2703
   -37.2579 -37.2456 -37.2223 -37.1681 -37.1631 -37.1137 -37.1031 -37.0775
   -37.0752 -37.0612 -36.9810 -36.9458 -36.9351 -36.9309 -36.9197 -36.8908
   -36.8823 -36.8785 -36.8423 -36.8252 -36.8109 -36.8092 -36.7821 -36.7763
   -36.7681 -36.7667 -36.7619 -36.7433 -36.7165 -36.6954 -36.6874 -36.6292
   -10.9933  -4.2347  -2.8499  -2.5384  -2.0736  -1.8540  -1.8094  -1.6556
    -1.6150  -1.4762  -1.4751  -1.3711  -1.2347  -1.0155  -0.8508  -0.8223
    -0.7341  -0.6416  -0.6180  -0.2570  -0.1084  -0.0800   0.1495   0.4138
     0.4748   0.5273   0.6371   0.7051   0.8339   0.9308   0.9309   0.9595
     1.0127   1.0693   1.1038   1.1703   1.3297   1.4267   1.4761   1.4919
     1.5794   1.6516   1.7085

          k = 0.0617 0.0000 0.0000 ( 15620 PWs)   bands (ev):

   -63.2849 -63.2085 -63.2031 -63.1978 -63.1760 -63.1456 -63.1222 -63.1135
   -63.0947 -63.0794 -63.0759 -63.0666 -37.3248 -37.3143 -37.2947 -37.2825
   -37.2672 -37.2640 -37.2461 -37.1877 -37.1591 -37.1477 -37.1027 -37.0756
   -37.0739 -37.0648 -36.9850 -36.9419 -36.9356 -36.9307 -36.9080 -36.8887
   -36.8635 -36.8485 -36.8252 -36.8159 -36.8138 -36.7913 -36.7845 -36.7780
   -36.7732 -36.7496 -36.7347 -36.7230 -36.7193 -36.7046 -36.6776 -36.6265
   -10.9966  -4.4290  -2.9994  -2.1693  -2.0905  -2.0025  -1.9123  -1.8618
    -1.6747  -1.5617  -1.4922  -1.4469  -1.1873  -1.0177  -0.9855  -0.9133
    -0.8209  -0.7796  -0.7452  -0.2893  -0.1382  -0.0888   0.2804   0.5254
     0.5800   0.6170   0.6932   0.7497   0.8038   0.9469   0.9942   1.0393
     1.1184   1.1784   1.1807   1.2953   1.3203   1.4036   1.5527   1.5961
     1.6109   1.6409   1.6770

          k = 0.0617 0.0356 0.0000 ( 15669 PWs)   bands (ev):

   -63.2781 -63.2182 -63.1985 -63.1909 -63.1790 -63.1467 -63.1256 -63.1087
   -63.0967 -63.0863 -63.0709 -63.0689 -37.3059 -37.3040 -37.2850 -37.2705
   -37.2577 -37.2456 -37.2222 -37.1675 -37.1637 -37.1137 -37.1031 -37.0776
   -37.0751 -37.0612 -36.9811 -36.9457 -36.9356 -36.9308 -36.9195 -36.8908
   -36.8823 -36.8781 -36.8423 -36.8253 -36.8109 -36.8091 -36.7817 -36.7767
   -36.7686 -36.7666 -36.7618 -36.7433 -36.7165 -36.6954 -36.6876 -36.6291
   -10.9933  -4.2347  -2.8499  -2.5384  -2.0736  -1.8539  -1.8095  -1.6555
    -1.6151  -1.4762  -1.4751  -1.3712  -1.2346  -1.0156  -0.8509  -0.8222
    -0.7341  -0.6417  -0.6178  -0.2572  -0.1083  -0.0800   0.1495   0.4139
     0.4748   0.5273   0.6371   0.7050   0.8338   0.9308   0.9309   0.9594
     1.0129   1.0695   1.1036   1.1702   1.3298   1.4267   1.4760   1.4920
     1.5794   1.6515   1.7085

          k = 0.0617-0.1426 0.0000 ( 15642 PWs)   bands (ev):

   -63.2597 -63.2289 -63.2049 -63.1837 -63.1729 -63.1505 -63.1274 -63.1130
   -63.0965 -63.0874 -63.0788 -63.0651 -37.2750 -37.2655 -37.2451 -37.2363
   -37.2321 -37.2109 -37.1730 -37.1427 -37.1264 -37.1121 -37.1039 -37.0742
   -37.0670 -37.0385 -37.0151 -36.9771 -36.9583 -36.9345 -36.9261 -36.9141
   -36.8996 -36.8938 -36.8703 -36.8453 -36.8373 -36.8274 -36.8007 -36.7919
   -36.7840 -36.7728 -36.7510 -36.7402 -36.7359 -36.7166 -36.6929 -36.6582
   -10.9869  -3.6827  -2.7996  -2.4604  -2.1272  -2.0005  -1.8097  -1.6359
    -1.5206  -1.3643  -1.1821  -1.1406  -0.9306  -0.8298  -0.6272  -0.5879
    -0.5528  -0.4482  -0.3670  -0.1326  -0.0886  -0.0425   0.0408   0.1590
     0.1988   0.2914   0.4021   0.4744   0.5389   0.6403   0.6824   0.7378
     0.7904   0.8854   0.9156   1.0334   1.1535   1.1809   1.3779   1.4219
     1.4983   1.5781   1.7231

          k = 0.0617-0.1069 0.0000 ( 15672 PWs)   bands (ev):

   -63.2396 -63.2355 -63.2222 -63.1735 -63.1693 -63.1450 -63.1439 -63.1081
   -63.0938 -63.0930 -63.0816 -63.0636 -37.2473 -37.2396 -37.2341 -37.2011
   -37.1963 -37.1915 -37.1549 -37.1486 -37.1448 -37.0994 -37.0932 -37.0688
   -37.0394 -37.0363 -37.0328 -36.9852 -36.9810 -36.9788 -36.9431 -36.9190
   -36.9115 -36.9111 -36.8774 -36.8572 -36.8535 -36.8119 -36.8029 -36.7733
   -36.7717 -36.7696 -36.7589 -36.7580 -36.7489 -36.7062 -36.7030 -36.7026
   -10.9837  -2.9281  -2.8591  -2.8576  -2.0457  -2.0400  -2.0272  -1.4890
    -1.4791  -1.3562  -0.8533  -0.8242  -0.7125  -0.6691  -0.6080  -0.6043
    -0.2510  -0.2311  -0.2196  -0.2160  -0.1757  -0.1046  -0.0937  -0.0822
     0.2033   0.2151   0.2172   0.3620   0.3907   0.3924   0.4590   0.5222
     0.5637   0.7021   0.7945   0.8630   1.0294   1.1637   1.4777   1.4908
     1.5819   1.6271   1.6704

          k = 0.0617-0.0713 0.0000 ( 15642 PWs)   bands (ev):

   -63.2597 -63.2290 -63.2049 -63.1836 -63.1729 -63.1510 -63.1268 -63.1130
   -63.0968 -63.0869 -63.0792 -63.0650 -37.2750 -37.2654 -37.2451 -37.2362
   -37.2320 -37.2109 -37.1731 -37.1428 -37.1264 -37.1121 -37.1039 -37.0741
   -37.0670 -37.0384 -37.0152 -36.9772 -36.9584 -36.9344 -36.9260 -36.9142
   -36.8997 -36.8938 -36.8705 -36.8452 -36.8373 -36.8273 -36.8007 -36.7922
   -36.7837 -36.7727 -36.7510 -36.7403 -36.7360 -36.7166 -36.6927 -36.6583
   -10.9869  -3.6827  -2.7996  -2.4604  -2.1272  -2.0005  -1.8096  -1.6360
    -1.5206  -1.3643  -1.1821  -1.1407  -0.9305  -0.8297  -0.6271  -0.5879
    -0.5528  -0.4482  -0.3671  -0.1326  -0.0885  -0.0427   0.0407   0.1589
     0.1990   0.2913   0.4022   0.4743   0.5390   0.6403   0.6824   0.7378
     0.7905   0.8855   0.9154   1.0334   1.1535   1.1809   1.3779   1.4219
     1.4984   1.5781   1.7234

          k =-0.0926 0.0535 0.0000 ( 15660 PWs)   bands (ev):

   -63.2528 -63.2432 -63.1908 -63.1819 -63.1780 -63.1594 -63.1228 -63.1033
   -63.0998 -63.0969 -63.0717 -63.0684 -37.2666 -37.2648 -37.2575 -37.2438
   -37.2419 -37.2225 -37.1442 -37.1397 -37.1337 -37.1232 -37.0938 -37.0931
   -37.0343 -37.0054 -36.9993 -36.9585 -36.9510 -36.9481 -36.9433 -36.9368
   -36.8919 -36.8711 -36.8681 -36.8660 -36.8644 -36.8604 -36.8147 -36.7895
   -36.7829 -36.7658 -36.7531 -36.7448 -36.7297 -36.7231 -36.6623 -36.6560
   -10.9869  -3.3814  -3.3660  -2.3553  -2.2801  -1.7104  -1.6680  -1.6209
    -1.3408  -1.3349  -1.2558  -1.2240  -1.1207  -0.9837  -0.5428  -0.5121
    -0.4665  -0.4568  -0.3626  -0.2874   0.0496   0.0643   0.0818   0.1229
     0.2111   0.2284   0.4543   0.4920   0.5627   0.6187   0.6272   0.7809
     0.8274   0.9239   0.9793   1.0240   1.1397   1.2098   1.2166   1.4044
     1.4186   1.6806   1.7230

          k =-0.0926 0.0891 0.0000 ( 15642 PWs)   bands (ev):

   -63.2597 -63.2291 -63.2047 -63.1836 -63.1730 -63.1509 -63.1270 -63.1129
   -63.0969 -63.0868 -63.0792 -63.0650 -37.2749 -37.2656 -37.2450 -37.2364
   -37.2320 -37.2108 -37.1731 -37.1428 -37.1265 -37.1120 -37.1038 -37.0741
   -37.0669 -37.0382 -37.0152 -36.9771 -36.9585 -36.9344 -36.9262 -36.9141
   -36.8997 -36.8938 -36.8703 -36.8453 -36.8373 -36.8273 -36.8008 -36.7922
   -36.7836 -36.7726 -36.7510 -36.7405 -36.7357 -36.7166 -36.6927 -36.6583
   -10.9869  -3.6827  -2.7996  -2.4604  -2.1272  -2.0005  -1.8097  -1.6359
    -1.5206  -1.3643  -1.1821  -1.1407  -0.9305  -0.8297  -0.6272  -0.5879
    -0.5528  -0.4482  -0.3671  -0.1326  -0.0885  -0.0426   0.0408   0.1589
     0.1989   0.2914   0.4022   0.4743   0.5390   0.6403   0.6825   0.7378
     0.7904   0.8855   0.9154   1.0335   1.1536   1.1809   1.3779   1.4218
     1.4983   1.5781   1.7234

          k =-0.0926 0.1248 0.0000 ( 15642 PWs)   bands (ev):

   -63.2597 -63.2290 -63.2048 -63.1837 -63.1729 -63.1506 -63.1273 -63.1130
   -63.0964 -63.0875 -63.0787 -63.0651 -37.2749 -37.2656 -37.2450 -37.2364
   -37.2321 -37.2108 -37.1730 -37.1427 -37.1264 -37.1120 -37.1039 -37.0742
   -37.0670 -37.0382 -37.0151 -36.9771 -36.9585 -36.9345 -36.9259 -36.9143
   -36.8996 -36.8937 -36.8704 -36.8452 -36.8373 -36.8275 -36.8008 -36.7918
   -36.7839 -36.7729 -36.7510 -36.7400 -36.7361 -36.7166 -36.6929 -36.6582
   -10.9869  -3.6827  -2.7996  -2.4604  -2.1272  -2.0005  -1.8097  -1.6359
    -1.5206  -1.3643  -1.1821  -1.1407  -0.9305  -0.8298  -0.6272  -0.5879
    -0.5527  -0.4482  -0.3670  -0.1327  -0.0885  -0.0425   0.0408   0.1589
     0.1989   0.2914   0.4022   0.4744   0.5389   0.6403   0.6824   0.7379
     0.7903   0.8855   0.9156   1.0334   1.1536   1.1808   1.3779   1.4218
     1.4983   1.5781   1.7232

          k =-0.0926-0.0535 0.0000 ( 15660 PWs)   bands (ev):

   -63.2529 -63.2430 -63.1909 -63.1820 -63.1782 -63.1588 -63.1234 -63.1025
   -63.1006 -63.0967 -63.0711 -63.0688 -37.2667 -37.2650 -37.2573 -37.2441
   -37.2418 -37.2225 -37.1444 -37.1391 -37.1335 -37.1235 -37.0936 -37.0934
   -37.0346 -37.0056 -36.9991 -36.9580 -36.9510 -36.9485 -36.9434 -36.9364
   -36.8915 -36.8719 -36.8679 -36.8655 -36.8637 -36.8612 -36.8146 -36.7900
   -36.7826 -36.7657 -36.7540 -36.7443 -36.7297 -36.7229 -36.6632 -36.6552
   -10.9869  -3.3814  -3.3661  -2.3552  -2.2802  -1.7104  -1.6680  -1.6209
    -1.3410  -1.3347  -1.2561  -1.2239  -1.1207  -0.9838  -0.5432  -0.5118
    -0.4663  -0.4571  -0.3625  -0.2875   0.0497   0.0641   0.0822   0.1229
     0.2113   0.2281   0.4543   0.4920   0.5628   0.6187   0.6271   0.7807
     0.8275   0.9242   0.9792   1.0241   1.1396   1.2096   1.2168   1.4043
     1.4188   1.6805   1.7225

     the Fermi energy is     1.0296 ev

!    total energy              =   -1773.37217739 Ry
     Harris-Foulkes estimate   =   -1773.37217264 Ry
     estimated scf accuracy    <       0.00000585 Ry

     The total energy is the sum of the following terms:

     one-electron contribution =  -15183.49920209 Ry
     hartree contribution      =    7581.07625993 Ry
     xc contribution           =    -252.96204765 Ry
     ewald contribution        =    6082.15664551 Ry
     electric field correction =       0.00012915 Ry
     smearing contrib. (-TS)   =      -0.14396224 Ry

     convergence has been achieved in  28 iterations
 
 BEEF-vdW xc energy contributions
           1 :   -217.839585785301     
           2 :    195.268910260431     
           3 :   -158.020502152498     
           4 :    117.800689733968     
           5 :   -84.7653169727170     
           6 :    63.7507765586622     
           7 :   -53.6528918832107     
           8 :    49.6533524742499     
           9 :   -46.6150585943298     
          10 :    41.6808940329635     
          11 :   -34.9592665188893     
          12 :    28.4115700519417     
          13 :   -23.9933478317312     
          14 :    22.2749978215532     
          15 :   -22.2560137801010     
          16 :    22.2440206750215     
          17 :   -21.0541180785904     
          18 :    18.6918051181663     
          19 :   -16.1384669524095     
          20 :    14.5011798820938     
          21 :   -14.1932382257004     
          22 :    14.7047689410826     
          23 :   -15.0501631731594     
          24 :    14.4975643168228     
          25 :   -13.0450756620159     
          26 :    11.3453929641977     
          27 :   -10.1916954403170     
          28 :    9.95715927111056     
          29 :   -10.3733185852201     
          30 :    10.7672708621167     
          31 :   -22.6913822039098     
          32 :   -16.3228574990391     

     Forces acting on atoms (Ry/au):


     negative rho (up, down):  1.532E-02 0.000E+00
     atom    1 type  1   force =     0.00005216    0.00003585   -0.00172417
     atom    2 type  1   force =    -0.00005528    0.00004487   -0.00177368
     atom    3 type  1   force =     0.00000677   -0.00007980   -0.00175738
     atom    4 type  1   force =    -0.00000217   -0.00001067   -0.00058156
     atom    5 type  1   force =    -0.00001117    0.00463944   -0.00694448
     atom    6 type  1   force =     0.00000512    0.00001192    0.00717049
     atom    7 type  1   force =    -0.00399696   -0.00232868   -0.00698237
     atom    8 type  1   force =     0.00400103   -0.00232627   -0.00697736
     atom    9 type  1   force =    -0.00001406    0.00001503    0.07300101
     atom   10 type  1   force =     0.00001377    0.00277704    0.00264914
     atom   11 type  1   force =     0.00240428   -0.00138111    0.00269599
     atom   12 type  1   force =    -0.00240026   -0.00139014    0.00261148
     atom   13 type  2   force =    -0.00000322   -0.00000749   -0.06138711

     Total force =     0.095612     Total SCF correction =     0.000689


     entering subroutine stress ...


     negative rho (up, down):  1.532E-02 0.000E+00
          total   stress  (Ry/bohr**3)                   (kbar)     P=  -19.78
  -0.00018177   0.00000003   0.00000001        -26.74      0.00      0.00
   0.00000003  -0.00018191   0.00000001          0.00    -26.76      0.00
   0.00000001   0.00000001  -0.00003972          0.00      0.00     -5.84


     BFGS Geometry Optimization

     number of scf cycles    =   1
     number of bfgs steps    =   0

     energy   new            =   -1773.3721773867 Ry

     new trust radius        =       0.0730010081 bohr
     new conv_thr            =       0.0000099958 Ry


ATOMIC_POSITIONS (crystal)
V1       0.166666667   0.166666667   0.409694847    0   0   0
V1       0.666666667   0.166666667   0.409694847    0   0   0
V1       0.166666667   0.666666667   0.409694847    0   0   0
V1       0.666666667   0.666666667   0.409694847    0   0   0
V1       0.833333333   0.333333333   0.500000000    0   0   0
V1       0.333333333   0.333333333   0.500000000    0   0   0
V1       0.833333333   0.833333333   0.500000000    0   0   0
V1       0.333333333   0.833333333   0.500000000    0   0   0
V1      -0.000002228   0.000001700   0.591887824
V1       0.499844206   0.000314286   0.590362587
V1       0.000313797   0.499843696   0.590363603
V1       0.499843412   0.499842674   0.590361771
S1       0.000000108  -0.000000847   0.678820354



     Writing output data file calc.save
     Check: negative starting charge=   -0.011524
     NEW-OLD atomic charge density approx. for the potential

     Check: negative/imaginary core charge=   -0.000001    0.000000
     Check: negative starting charge=   -0.011583

     negative rho (up, down):  1.550E-02 0.000E+00
 
     Adding external electric field

     Computed dipole along edir(3) : 
        Dipole               -0.2066 Ry au,         -0.5252 Debye
        Dipole field         -0.0006 Ry au
 
        Potential amp.        0.0562 Ry
        Total length         44.9721 bohr
 

     total cpu time spent up to now is      554.0 secs

     per-process dynamical memory:   106.3 Mb

     Self-consistent Calculation

     iteration #  1     ecut=    36.75 Ry     beta=0.30
     Davidson diagonalization with overlap
     ethr =  1.00E-06,  avg # of iterations = 13.7

     negative rho (up, down):  1.549E-02 0.000E+00
 
     Adding external electric field

     Computed dipole along edir(3) : 
        Dipole                0.1478 Ry au,          0.3756 Debye
        Dipole field          0.0004 Ry au
 
        Potential amp.       -0.0402 Ry
        Total length         44.9721 bohr
 

     total cpu time spent up to now is      581.2 secs

     total energy              =   -1773.36608373 Ry
     Harris-Foulkes estimate   =   -1773.37984144 Ry
     estimated scf accuracy    <       0.02819796 Ry

     iteration #  2     ecut=    36.75 Ry     beta=0.30
     Davidson diagonalization with overlap
     ethr =  1.74E-05,  avg # of iterations =  6.9

     negative rho (up, down):  1.552E-02 0.000E+00
 
     Adding external electric field

     Computed dipole along edir(3) : 
        Dipole               -0.1950 Ry au,         -0.4956 Debye
        Dipole field         -0.0006 Ry au
 
        Potential amp.        0.0530 Ry
        Total length         44.9721 bohr
 

     total cpu time spent up to now is      602.3 secs

     total energy              =   -1773.16456674 Ry
     Harris-Foulkes estimate   =   -1773.59334219 Ry
     estimated scf accuracy    <      28.94849337 Ry

     iteration #  3     ecut=    36.75 Ry     beta=0.30
     Davidson diagonalization with overlap
     ethr =  1.74E-05,  avg # of iterations =  7.5

     negative rho (up, down):  1.553E-02 0.000E+00
 
     Adding external electric field

     Computed dipole along edir(3) : 
        Dipole               -0.1610 Ry au,         -0.4092 Debye
        Dipole field         -0.0005 Ry au
 
        Potential amp.        0.0438 Ry
        Total length         44.9721 bohr
 

     total cpu time spent up to now is      624.8 secs

     total energy              =   -1773.36231102 Ry
     Harris-Foulkes estimate   =   -1773.39478035 Ry
     estimated scf accuracy    <       0.77821236 Ry

     iteration #  4     ecut=    36.75 Ry     beta=0.30
     Davidson diagonalization with overlap
     ethr =  1.74E-05,  avg # of iterations =  6.0

     negative rho (up, down):  1.555E-02 0.000E+00
 
     Adding external electric field

     Computed dipole along edir(3) : 
        Dipole               -0.1685 Ry au,         -0.4284 Debye
        Dipole field         -0.0005 Ry au
 
        Potential amp.        0.0458 Ry
        Total length         44.9721 bohr
 

     total cpu time spent up to now is      644.1 secs

     total energy              =   -1773.37781894 Ry
     Harris-Foulkes estimate   =   -1773.37957858 Ry
     estimated scf accuracy    <       0.01919552 Ry

     iteration #  5     ecut=    36.75 Ry     beta=0.30
     Davidson diagonalization with overlap
     ethr =  1.18E-05,  avg # of iterations =  1.0

     negative rho (up, down):  1.554E-02 0.000E+00
 
     Adding external electric field

     Computed dipole along edir(3) : 
        Dipole               -0.1783 Ry au,         -0.4533 Debye
        Dipole field         -0.0005 Ry au
 
        Potential amp.        0.0485 Ry
        Total length         44.9721 bohr
 

     total cpu time spent up to now is      658.3 secs

     total energy              =   -1773.37837846 Ry
     Harris-Foulkes estimate   =   -1773.37856378 Ry
     estimated scf accuracy    <       0.00127769 Ry

     iteration #  6     ecut=    36.75 Ry     beta=0.30
     Davidson diagonalization with overlap
     ethr =  7.89E-07,  avg # of iterations =  6.5

     negative rho (up, down):  1.554E-02 0.000E+00
 
     Adding external electric field

     Computed dipole along edir(3) : 
        Dipole               -0.1798 Ry au,         -0.4569 Debye
        Dipole field         -0.0005 Ry au
 
        Potential amp.        0.0489 Ry
        Total length         44.9721 bohr
 

     total cpu time spent up to now is      679.3 secs

     total energy              =   -1773.37871723 Ry
     Harris-Foulkes estimate   =   -1773.37915001 Ry
     estimated scf accuracy    <       0.00604636 Ry

     iteration #  7     ecut=    36.75 Ry     beta=0.30
     Davidson diagonalization with overlap
     ethr =  7.89E-07,  avg # of iterations =  5.3

     negative rho (up, down):  1.553E-02 0.000E+00
 
     Adding external electric field

     Computed dipole along edir(3) : 
        Dipole               -0.1670 Ry au,         -0.4246 Debye
        Dipole field         -0.0005 Ry au
 
        Potential amp.        0.0454 Ry
        Total length         44.9721 bohr
 

     total cpu time spent up to now is      698.4 secs

     total energy              =   -1773.37878277 Ry
     Harris-Foulkes estimate   =   -1773.37901204 Ry
     estimated scf accuracy    <       0.00320204 Ry

     iteration #  8     ecut=    36.75 Ry     beta=0.30
     Davidson diagonalization with overlap
     ethr =  7.89E-07,  avg # of iterations =  3.5

     negative rho (up, down):  1.554E-02 0.000E+00
 
     Adding external electric field

     Computed dipole along edir(3) : 
        Dipole               -0.1666 Ry au,         -0.4236 Debye
        Dipole field         -0.0005 Ry au
 
        Potential amp.        0.0453 Ry
        Total length         44.9721 bohr
 

     total cpu time spent up to now is      714.5 secs

     total energy              =   -1773.37881848 Ry
     Harris-Foulkes estimate   =   -1773.37886805 Ry
     estimated scf accuracy    <       0.00059673 Ry

     iteration #  9     ecut=    36.75 Ry     beta=0.30
     Davidson diagonalization with overlap
     ethr =  3.68E-07,  avg # of iterations =  5.3

     negative rho (up, down):  1.553E-02 0.000E+00
 
     Adding external electric field

     Computed dipole along edir(3) : 
        Dipole               -0.1691 Ry au,         -0.4299 Debye
        Dipole field         -0.0005 Ry au
 
        Potential amp.        0.0460 Ry
        Total length         44.9721 bohr
 

     total cpu time spent up to now is      733.3 secs

     total energy              =   -1773.37887181 Ry
     Harris-Foulkes estimate   =   -1773.37888212 Ry
     estimated scf accuracy    <       0.00025873 Ry

     iteration # 10     ecut=    36.75 Ry     beta=0.30
     Davidson diagonalization with overlap
     ethr =  1.60E-07,  avg # of iterations =  4.8

     negative rho (up, down):  1.553E-02 0.000E+00
 
     Adding external electric field

     Computed dipole along edir(3) : 
        Dipole               -0.1701 Ry au,         -0.4323 Debye
        Dipole field         -0.0005 Ry au
 
        Potential amp.        0.0462 Ry
        Total length         44.9721 bohr
 

     total cpu time spent up to now is      750.6 secs

     total energy              =   -1773.37887322 Ry
     Harris-Foulkes estimate   =   -1773.37889937 Ry
     estimated scf accuracy    <       0.00053821 Ry

     iteration # 11     ecut=    36.75 Ry     beta=0.30
     Davidson diagonalization with overlap
     ethr =  1.60E-07,  avg # of iterations =  1.9

     negative rho (up, down):  1.554E-02 0.000E+00
 
     Adding external electric field

     Computed dipole along edir(3) : 
        Dipole               -0.1705 Ry au,         -0.4334 Debye
        Dipole field         -0.0005 Ry au
 
        Potential amp.        0.0463 Ry
        Total length         44.9721 bohr
 

     total cpu time spent up to now is      766.2 secs

     total energy              =   -1773.37886205 Ry
     Harris-Foulkes estimate   =   -1773.37888318 Ry
     estimated scf accuracy    <       0.00023588 Ry

     iteration # 12     ecut=    36.75 Ry     beta=0.30
     Davidson diagonalization with overlap
     ethr =  1.46E-07,  avg # of iterations =  4.8

     negative rho (up, down):  1.554E-02 0.000E+00
 
     Adding external electric field

     Computed dipole along edir(3) : 
        Dipole               -0.1702 Ry au,         -0.4326 Debye
        Dipole field         -0.0005 Ry au
 
        Potential amp.        0.0463 Ry
        Total length         44.9721 bohr
 

     total cpu time spent up to now is      783.8 secs

     total energy              =   -1773.37888095 Ry
     Harris-Foulkes estimate   =   -1773.37888412 Ry
     estimated scf accuracy    <       0.00005375 Ry

     iteration # 13     ecut=    36.75 Ry     beta=0.30
     Davidson diagonalization with overlap
     ethr =  3.32E-08,  avg # of iterations =  4.3

     negative rho (up, down):  1.554E-02 0.000E+00
 
     Adding external electric field

     Computed dipole along edir(3) : 
        Dipole               -0.1704 Ry au,         -0.4330 Debye
        Dipole field         -0.0005 Ry au
 
        Potential amp.        0.0463 Ry
        Total length         44.9721 bohr
 

     total cpu time spent up to now is      801.5 secs

     total energy              =   -1773.37888014 Ry
     Harris-Foulkes estimate   =   -1773.37888512 Ry
     estimated scf accuracy    <       0.00007011 Ry

     iteration # 14     ecut=    36.75 Ry     beta=0.30
     Davidson diagonalization with overlap
     ethr =  3.32E-08,  avg # of iterations =  1.9

     negative rho (up, down):  1.554E-02 0.000E+00
 
     Adding external electric field

     Computed dipole along edir(3) : 
        Dipole               -0.1700 Ry au,         -0.4321 Debye
        Dipole field         -0.0005 Ry au
 
        Potential amp.        0.0462 Ry
        Total length         44.9721 bohr
 

     total cpu time spent up to now is      817.2 secs

     total energy              =   -1773.37888229 Ry
     Harris-Foulkes estimate   =   -1773.37888260 Ry
     estimated scf accuracy    <       0.00002594 Ry

     iteration # 15     ecut=    36.75 Ry     beta=0.30
     Davidson diagonalization with overlap
     ethr =  1.60E-08,  avg # of iterations =  3.2

     negative rho (up, down):  1.554E-02 0.000E+00
 
     Adding external electric field

     Computed dipole along edir(3) : 
        Dipole               -0.1704 Ry au,         -0.4331 Debye
        Dipole field         -0.0005 Ry au
 
        Potential amp.        0.0463 Ry
        Total length         44.9721 bohr
 

     total cpu time spent up to now is      833.3 secs

     total energy              =   -1773.37888088 Ry
     Harris-Foulkes estimate   =   -1773.37888354 Ry
     estimated scf accuracy    <       0.00008392 Ry

     iteration # 16     ecut=    36.75 Ry     beta=0.30
     Davidson diagonalization with overlap
     ethr =  1.60E-08,  avg # of iterations =  4.2

     negative rho (up, down):  1.554E-02 0.000E+00

     negative rho (up, down):  1.554E-02 0.000E+00

     negative rho (up, down):  1.554E-02 0.000E+00

     negative rho (up, down):  1.554E-02 0.000E+00

     negative rho (up, down):  1.554E-02 0.000E+00

     negative rho (up, down):  1.554E-02 0.000E+00

     negative rho (up, down):  1.554E-02 0.000E+00

     negative rho (up, down):  1.554E-02 0.000E+00

     negative rho (up, down):  1.554E-02 0.000E+00

     negative rho (up, down):  1.554E-02 0.000E+00

     negative rho (up, down):  1.554E-02 0.000E+00

     negative rho (up, down):  1.554E-02 0.000E+00

     negative rho (up, down):  1.554E-02 0.000E+00

     negative rho (up, down):  1.554E-02 0.000E+00

     negative rho (up, down):  1.554E-02 0.000E+00

     negative rho (up, down):  1.554E-02 0.000E+00

     negative rho (up, down):  1.554E-02 0.000E+00

     negative rho (up, down):  1.554E-02 0.000E+00

     negative rho (up, down):  1.554E-02 0.000E+00

     negative rho (up, down):  1.554E-02 0.000E+00

     negative rho (up, down):  1.554E-02 0.000E+00

     negative rho (up, down):  1.554E-02 0.000E+00

     negative rho (up, down):  1.554E-02 0.000E+00

     negative rho (up, down):  1.554E-02 0.000E+00

     negative rho (up, down):  1.554E-02 0.000E+00

     negative rho (up, down):  1.554E-02 0.000E+00

     negative rho (up, down):  1.554E-02 0.000E+00

     negative rho (up, down):  1.554E-02 0.000E+00

     negative rho (up, down):  1.554E-02 0.000E+00

     negative rho (up, down):  1.554E-02 0.000E+00

     negative rho (up, down):  1.554E-02 0.000E+00

     negative rho (up, down):  1.554E-02 0.000E+00

     negative rho (up, down):  1.554E-02 0.000E+00

     negative rho (up, down):  1.554E-02 0.000E+00

     negative rho (up, down):  1.554E-02 0.000E+00
 
     Adding external electric field

     Computed dipole along edir(3) : 
        Dipole               -0.1671 Ry au,         -0.4247 Debye
        Dipole field         -0.0005 Ry au
 
        Potential amp.        0.0454 Ry
        Total length         44.9721 bohr
 

     total cpu time spent up to now is      891.0 secs

     End of self-consistent calculation

          k = 0.0000 0.0000 0.0000 ( 15569 PWs)   bands (ev):

   -63.2637 -63.1857 -63.1521 -63.1515 -63.1163 -63.1098 -63.0794 -63.0594
   -63.0590 -63.0323 -63.0310 -63.0301 -37.3348 -37.3346 -37.3097 -37.2995
   -37.2909 -37.2908 -37.2591 -37.1979 -37.1974 -37.1916 -37.0692 -37.0165
   -37.0160 -37.0124 -36.9061 -36.9054 -36.9046 -36.8814 -36.8190 -36.8189
   -36.7879 -36.7702 -36.7633 -36.7631 -36.7471 -36.7469 -36.7295 -36.6849
   -36.6847 -36.6817 -36.6662 -36.6660 -36.6202 -36.6202 -36.5603 -36.5603
   -11.0996  -5.0112  -3.4970  -2.3850  -2.1248  -2.1247  -2.0598  -1.9592
    -1.7618  -1.7617  -1.5845  -1.5845  -1.4912  -1.2749  -1.2748  -1.2557
    -1.1218  -1.1217  -1.0834  -0.3734  -0.0534  -0.0533   0.5691   0.6696
     0.8048   0.8049   0.9036   1.0629   1.2178   1.2178   1.2902   1.2905
     1.3742   1.3742   1.4549   1.4710   1.4784   1.4785   1.4942   1.4942
     1.9086   2.2273   2.2273

          k = 0.0000 0.0356 0.0000 ( 15635 PWs)   bands (ev):

   -63.2560 -63.1787 -63.1574 -63.1521 -63.1148 -63.1089 -63.0814 -63.0645
   -63.0592 -63.0360 -63.0313 -63.0302 -37.3126 -37.3046 -37.2962 -37.2720
   -37.2711 -37.2652 -37.2378 -37.1769 -37.1732 -37.1588 -37.0668 -37.0286
   -37.0215 -37.0180 -36.9083 -36.9068 -36.9023 -36.8895 -36.8355 -36.8176
   -36.8035 -36.7975 -36.7654 -36.7548 -36.7498 -36.7401 -36.7390 -36.7095
   -36.7023 -36.6963 -36.6833 -36.6694 -36.6521 -36.6292 -36.5983 -36.5683
   -11.0932  -4.7958  -3.3067  -2.2193  -2.0910  -2.0580  -2.0397  -1.8897
    -1.7285  -1.6582  -1.6396  -1.5422  -1.3993  -1.1741  -1.1257  -1.1065
    -1.0140  -0.9841  -0.9683  -0.3301  -0.0814  -0.0515   0.4960   0.6954
     0.8108   0.8393   0.8531   0.9661   1.0087   1.0567   1.1527   1.2965
     1.3252   1.3603   1.4135   1.4235   1.4308   1.4791   1.5186   1.6371
     1.6634   1.9518   1.9709

          k = 0.0000 0.0713 0.0000 ( 15669 PWs)   bands (ev):

   -63.2353 -63.1759 -63.1594 -63.1522 -63.1178 -63.1049 -63.0870 -63.0700
   -63.0594 -63.0477 -63.0317 -63.0301 -37.2620 -37.2579 -37.2416 -37.2252
   -37.2146 -37.2015 -37.1795 -37.1276 -37.1234 -37.0728 -37.0649 -37.0395
   -37.0356 -37.0228 -36.9396 -36.9052 -36.8967 -36.8946 -36.8659 -36.8492
   -36.8447 -36.8344 -36.7940 -36.7858 -36.7709 -36.7704 -36.7436 -36.7308
   -36.7299 -36.7262 -36.7241 -36.7033 -36.6782 -36.6556 -36.6487 -36.5901
   -11.0804  -4.1900  -2.8183  -2.5026  -2.1094  -1.8830  -1.8562  -1.6308
    -1.5809  -1.4663  -1.4606  -1.3322  -1.2120  -0.9760  -0.8053  -0.7757
    -0.6959  -0.6064  -0.5723  -0.2178  -0.0594  -0.0413   0.1896   0.4534
     0.5162   0.5690   0.6674   0.7508   0.8687   0.9616   0.9738   0.9970
     1.0526   1.1085   1.1388   1.2146   1.3663   1.4664   1.5195   1.5229
     1.6189   1.6970   1.7540

          k = 0.0000-0.1069 0.0000 ( 15660 PWs)   bands (ev):

   -63.2140 -63.1961 -63.1522 -63.1410 -63.1255 -63.1119 -63.0832 -63.0646
   -63.0620 -63.0594 -63.0318 -63.0301 -37.2250 -37.2194 -37.2127 -37.2016
   -37.1965 -37.1790 -37.1025 -37.0994 -37.0925 -37.0845 -37.0549 -37.0526
   -36.9941 -36.9651 -36.9454 -36.9176 -36.9133 -36.9102 -36.9030 -36.8883
   -36.8523 -36.8322 -36.8315 -36.8293 -36.8243 -36.8226 -36.7580 -36.7489
   -36.7438 -36.7272 -36.7161 -36.7074 -36.6897 -36.6835 -36.6238 -36.6166
   -11.0740  -3.3385  -3.3254  -2.3794  -2.2619  -1.8238  -1.6870  -1.6296
    -1.2966  -1.2933  -1.2072  -1.1753  -1.0797  -0.9591  -0.5013  -0.4697
    -0.4162  -0.4055  -0.3284  -0.2445   0.0877   0.1012   0.1258   0.1650
     0.2525   0.2838   0.4860   0.5078   0.6029   0.6562   0.6707   0.8104
     0.8725   0.9572   1.0110   1.0435   1.1934   1.2425   1.2620   1.4474
     1.4741   1.7674   1.7822

          k = 0.0309-0.0178 0.0000 ( 15635 PWs)   bands (ev):

   -63.2560 -63.1787 -63.1578 -63.1516 -63.1149 -63.1089 -63.0814 -63.0646
   -63.0591 -63.0360 -63.0313 -63.0302 -37.3127 -37.3044 -37.2963 -37.2720
   -37.2712 -37.2651 -37.2378 -37.1769 -37.1733 -37.1588 -37.0668 -37.0287
   -37.0212 -37.0182 -36.9083 -36.9068 -36.9023 -36.8895 -36.8356 -36.8175
   -36.8036 -36.7974 -36.7654 -36.7548 -36.7497 -36.7401 -36.7391 -36.7095
   -36.7023 -36.6964 -36.6833 -36.6693 -36.6521 -36.6292 -36.5983 -36.5682
   -11.0932  -4.7958  -3.3067  -2.2192  -2.0910  -2.0579  -2.0398  -1.8897
    -1.7285  -1.6583  -1.6396  -1.5422  -1.3993  -1.1741  -1.1257  -1.1064
    -1.0140  -0.9841  -0.9683  -0.3301  -0.0813  -0.0515   0.4960   0.6954
     0.8109   0.8392   0.8531   0.9661   1.0086   1.0568   1.1527   1.2965
     1.3252   1.3603   1.4135   1.4234   1.4308   1.4791   1.5186   1.6371
     1.6634   1.9518   1.9709

          k = 0.0309 0.0178 0.0000 ( 15635 PWs)   bands (ev):

   -63.2560 -63.1787 -63.1577 -63.1518 -63.1149 -63.1089 -63.0814 -63.0643
   -63.0594 -63.0359 -63.0309 -63.0307 -37.3127 -37.3045 -37.2962 -37.2720
   -37.2712 -37.2652 -37.2378 -37.1765 -37.1737 -37.1588 -37.0668 -37.0287
   -37.0214 -37.0180 -36.9085 -36.9066 -36.9021 -36.8897 -36.8355 -36.8176
   -36.8034 -36.7975 -36.7655 -36.7549 -36.7495 -36.7402 -36.7391 -36.7094
   -36.7027 -36.6961 -36.6832 -36.6694 -36.6521 -36.6292 -36.5983 -36.5682
   -11.0932  -4.7958  -3.3067  -2.2193  -2.0910  -2.0579  -2.0397  -1.8897
    -1.7285  -1.6582  -1.6396  -1.5421  -1.3993  -1.1741  -1.1257  -1.1065
    -1.0140  -0.9840  -0.9683  -0.3302  -0.0814  -0.0514   0.4960   0.6954
     0.8109   0.8392   0.8530   0.9661   1.0087   1.0566   1.1528   1.2965
     1.3252   1.3603   1.4136   1.4234   1.4308   1.4791   1.5186   1.6371
     1.6634   1.9518   1.9709

          k = 0.0309 0.0535 0.0000 ( 15620 PWs)   bands (ev):

   -63.2417 -63.1687 -63.1642 -63.1551 -63.1160 -63.1040 -63.0837 -63.0753
   -63.0570 -63.0405 -63.0373 -63.0276 -37.2777 -37.2724 -37.2482 -37.2375
   -37.2250 -37.2206 -37.2026 -37.1477 -37.1187 -37.1076 -37.0647 -37.0371
   -37.0361 -37.0263 -36.9413 -36.9032 -36.8986 -36.8935 -36.8695 -36.8363
   -36.8139 -36.8025 -36.7856 -36.7770 -36.7725 -36.7534 -36.7451 -36.7399
   -36.7291 -36.7101 -36.6943 -36.6844 -36.6803 -36.6649 -36.6388 -36.5873
   -11.0836  -4.3838  -2.9629  -2.1598  -2.0718  -2.0160  -1.9280  -1.8649
    -1.6454  -1.5658  -1.4819  -1.4418  -1.1601  -0.9725  -0.9443  -0.8665
    -0.7822  -0.7437  -0.7056  -0.2494  -0.0967  -0.0396   0.3190   0.5678
     0.6106   0.6563   0.7303   0.7948   0.8394   0.9853   1.0317   1.0880
     1.1545   1.2108   1.2234   1.3362   1.3627   1.4507   1.5928   1.6361
     1.6554   1.6929   1.7150

          k = 0.0309-0.1248 0.0000 ( 15642 PWs)   bands (ev):

   -63.2182 -63.1865 -63.1599 -63.1445 -63.1188 -63.1077 -63.0878 -63.0747
   -63.0581 -63.0495 -63.0405 -63.0258 -37.2334 -37.2197 -37.2009 -37.1930
   -37.1880 -37.1662 -37.1312 -37.1019 -37.0851 -37.0730 -37.0630 -37.0324
   -37.0276 -36.9941 -36.9765 -36.9395 -36.9095 -36.8974 -36.8871 -36.8780
   -36.8561 -36.8479 -36.8312 -36.8053 -36.7926 -36.7833 -36.7602 -36.7519
   -36.7424 -36.7342 -36.7121 -36.7017 -36.6977 -36.6774 -36.6540 -36.6192
   -11.0740  -3.6396  -2.7616  -2.4527  -2.1421  -1.9877  -1.8884  -1.6581
    -1.5143  -1.3266  -1.1365  -1.1150  -0.8828  -0.7896  -0.5823  -0.5400
    -0.5079  -0.4091  -0.3227  -0.0951  -0.0505   0.0042   0.0817   0.2039
     0.2425   0.3293   0.4321   0.5106   0.5714   0.6770   0.7190   0.7666
     0.8294   0.9149   0.9529   1.0782   1.1916   1.2280   1.4365   1.4601
     1.5455   1.6500   1.7743

          k = 0.0309-0.0891 0.0000 ( 15642 PWs)   bands (ev):

   -63.2182 -63.1866 -63.1598 -63.1445 -63.1188 -63.1077 -63.0878 -63.0745
   -63.0583 -63.0494 -63.0405 -63.0258 -37.2334 -37.2197 -37.2009 -37.1930
   -37.1880 -37.1662 -37.1312 -37.1019 -37.0851 -37.0730 -37.0630 -37.0324
   -37.0276 -36.9941 -36.9765 -36.9396 -36.9095 -36.8975 -36.8868 -36.8781
   -36.8560 -36.8479 -36.8314 -36.8054 -36.7926 -36.7833 -36.7602 -36.7519
   -36.7424 -36.7342 -36.7121 -36.7016 -36.6979 -36.6774 -36.6540 -36.6192
   -11.0740  -3.6396  -2.7616  -2.4527  -2.1421  -1.9878  -1.8884  -1.6581
    -1.5143  -1.3266  -1.1365  -1.1150  -0.8828  -0.7896  -0.5823  -0.5400
    -0.5079  -0.4091  -0.3227  -0.0951  -0.0505   0.0043   0.0817   0.2039
     0.2426   0.3293   0.4321   0.5106   0.5714   0.6770   0.7190   0.7667
     0.8293   0.9149   0.9529   1.0782   1.1916   1.2279   1.4365   1.4601
     1.5455   1.6499   1.7743

          k = 0.0309-0.0535 0.0000 ( 15620 PWs)   bands (ev):

   -63.2417 -63.1688 -63.1643 -63.1549 -63.1161 -63.1041 -63.0835 -63.0754
   -63.0570 -63.0408 -63.0371 -63.0276 -37.2776 -37.2724 -37.2481 -37.2375
   -37.2251 -37.2206 -37.2026 -37.1478 -37.1186 -37.1077 -37.0647 -37.0373
   -37.0359 -37.0263 -36.9413 -36.9035 -36.8982 -36.8934 -36.8695 -36.8364
   -36.8139 -36.8025 -36.7855 -36.7770 -36.7724 -36.7536 -36.7452 -36.7398
   -36.7292 -36.7101 -36.6942 -36.6845 -36.6801 -36.6650 -36.6387 -36.5873
   -11.0836  -4.3838  -2.9629  -2.1598  -2.0717  -2.0160  -1.9280  -1.8649
    -1.6454  -1.5658  -1.4820  -1.4417  -1.1600  -0.9726  -0.9443  -0.8665
    -0.7822  -0.7437  -0.7056  -0.2493  -0.0966  -0.0397   0.3190   0.5678
     0.6106   0.6563   0.7304   0.7948   0.8393   0.9853   1.0317   1.0880
     1.1544   1.2107   1.2235   1.3361   1.3626   1.4508   1.5927   1.6361
     1.6554   1.6930   1.7150

          k = 0.0617-0.0356 0.0000 ( 15669 PWs)   bands (ev):

   -63.2352 -63.1763 -63.1595 -63.1516 -63.1179 -63.1049 -63.0870 -63.0702
   -63.0593 -63.0478 -63.0317 -63.0301 -37.2620 -37.2580 -37.2415 -37.2254
   -37.2145 -37.2014 -37.1795 -37.1276 -37.1234 -37.0729 -37.0649 -37.0392
   -37.0358 -37.0228 -36.9393 -36.9053 -36.8967 -36.8946 -36.8661 -36.8493
   -36.8446 -36.8344 -36.7940 -36.7858 -36.7708 -36.7705 -36.7436 -36.7309
   -36.7300 -36.7263 -36.7241 -36.7031 -36.6782 -36.6555 -36.6487 -36.5900
   -11.0804  -4.1900  -2.8183  -2.5026  -2.1094  -1.8831  -1.8562  -1.6308
    -1.5808  -1.4664  -1.4606  -1.3323  -1.2120  -0.9760  -0.8053  -0.7757
    -0.6959  -0.6063  -0.5723  -0.2177  -0.0594  -0.0412   0.1896   0.4534
     0.5162   0.5691   0.6673   0.7508   0.8687   0.9616   0.9738   0.9969
     1.0527   1.1085   1.1387   1.2146   1.3663   1.4664   1.5195   1.5228
     1.6189   1.6970   1.7540

          k = 0.0617 0.0000 0.0000 ( 15620 PWs)   bands (ev):

   -63.2417 -63.1690 -63.1643 -63.1546 -63.1161 -63.1041 -63.0836 -63.0753
   -63.0570 -63.0404 -63.0374 -63.0276 -37.2777 -37.2724 -37.2481 -37.2376
   -37.2251 -37.2206 -37.2026 -37.1477 -37.1187 -37.1076 -37.0647 -37.0373
   -37.0359 -37.0263 -36.9412 -36.9032 -36.8986 -36.8935 -36.8695 -36.8365
   -36.8138 -36.8024 -36.7856 -36.7770 -36.7725 -36.7535 -36.7452 -36.7398
   -36.7292 -36.7100 -36.6942 -36.6844 -36.6802 -36.6649 -36.6387 -36.5873
   -11.0836  -4.3838  -2.9628  -2.1598  -2.0718  -2.0160  -1.9280  -1.8649
    -1.6454  -1.5658  -1.4820  -1.4417  -1.1601  -0.9726  -0.9443  -0.8665
    -0.7822  -0.7437  -0.7056  -0.2494  -0.0966  -0.0396   0.3190   0.5677
     0.6106   0.6563   0.7303   0.7948   0.8393   0.9853   1.0317   1.0880
     1.1545   1.2108   1.2234   1.3362   1.3627   1.4507   1.5928   1.6361
     1.6554   1.6930   1.7150

          k = 0.0617 0.0356 0.0000 ( 15669 PWs)   bands (ev):

   -63.2352 -63.1762 -63.1595 -63.1518 -63.1179 -63.1047 -63.0873 -63.0698
   -63.0595 -63.0476 -63.0311 -63.0308 -37.2620 -37.2580 -37.2415 -37.2253
   -37.2145 -37.2015 -37.1795 -37.1272 -37.1238 -37.0728 -37.0649 -37.0394
   -37.0356 -37.0228 -36.9394 -36.9051 -36.8971 -36.8946 -36.8658 -36.8490
   -36.8450 -36.8343 -36.7940 -36.7859 -36.7710 -36.7704 -36.7433 -36.7310
[...]

   -63.2560 -63.1837 -63.1817 -63.1684 -63.1233 -63.1111 -63.1005 -63.0922
   -63.0782 -63.0603 -63.0576 -63.0471 -37.2933 -37.2927 -37.2651 -37.2484
   -37.2375 -37.2347 -37.2130 -37.1658 -37.1344 -37.1244 -37.0810 -37.0542
   -37.0516 -37.0392 -36.9523 -36.9219 -36.9172 -36.9101 -36.8882 -36.8469
   -36.8260 -36.8113 -36.8020 -36.7952 -36.7880 -36.7715 -36.7624 -36.7591
   -36.7404 -36.7267 -36.7108 -36.7043 -36.6988 -36.6812 -36.6567 -36.6068
   -11.0648  -4.3963  -2.9625  -2.1577  -2.0737  -2.0200  -1.9092  -1.8662
    -1.6669  -1.5882  -1.4814  -1.4548  -1.1856  -0.9899  -0.9628  -0.8825
    -0.7981  -0.7617  -0.7176  -0.2684  -0.1125  -0.0419   0.3087   0.5408
     0.5777   0.6322   0.7053   0.7834   0.8147   0.9695   1.0110   1.0929
     1.1321   1.1702   1.2096   1.3093   1.3483   1.4409   1.5693   1.6065
     1.6340   1.6637   1.7127

          k = 0.0617-0.0356 0.0000 ( 15669 PWs)   bands (ev):

   -63.2497 -63.1900 -63.1767 -63.1666 -63.1266 -63.1101 -63.1024 -63.0877
   -63.0814 -63.0678 -63.0510 -63.0503 -37.2827 -37.2740 -37.2596 -37.2315
   -37.2301 -37.2138 -37.1928 -37.1454 -37.1398 -37.0869 -37.0815 -37.0569
   -37.0486 -37.0393 -36.9506 -36.9241 -36.9136 -36.9126 -36.8779 -36.8659
   -36.8620 -36.8408 -36.8068 -36.8012 -36.7901 -36.7885 -36.7607 -36.7498
   -36.7491 -36.7439 -36.7338 -36.7201 -36.6970 -36.6715 -36.6678 -36.6095
   -11.0617  -4.2021  -2.8147  -2.5105  -2.0920  -1.8736  -1.8561  -1.6354
    -1.6040  -1.4868  -1.4613  -1.3459  -1.2327  -0.9950  -0.8241  -0.7928
    -0.7146  -0.6346  -0.5776  -0.2376  -0.0647  -0.0605   0.1771   0.4247
     0.4980   0.5438   0.6318   0.7432   0.8391   0.9294   0.9538   0.9740
     1.0509   1.0806   1.1121   1.2108   1.3474   1.4461   1.4916   1.4997
     1.5688   1.6623   1.7422

          k = 0.0617 0.0000 0.0000 ( 15620 PWs)   bands (ev):

   -63.2560 -63.1836 -63.1816 -63.1685 -63.1233 -63.1111 -63.1005 -63.0922
   -63.0782 -63.0604 -63.0576 -63.0471 -37.2933 -37.2927 -37.2651 -37.2484
   -37.2375 -37.2347 -37.2130 -37.1658 -37.1344 -37.1244 -37.0810 -37.0541
   -37.0516 -37.0392 -36.9523 -36.9219 -36.9172 -36.9101 -36.8882 -36.8469
   -36.8260 -36.8113 -36.8019 -36.7952 -36.7880 -36.7715 -36.7624 -36.7591
   -36.7404 -36.7267 -36.7108 -36.7043 -36.6988 -36.6812 -36.6567 -36.6068
   -11.0648  -4.3963  -2.9625  -2.1577  -2.0737  -2.0200  -1.9092  -1.8662
    -1.6669  -1.5882  -1.4814  -1.4548  -1.1856  -0.9899  -0.9628  -0.8825
    -0.7981  -0.7617  -0.7176  -0.2684  -0.1125  -0.0419   0.3087   0.5408
     0.5777   0.6322   0.7054   0.7834   0.8147   0.9694   1.0110   1.0929
     1.1321   1.1702   1.2096   1.3093   1.3483   1.4409   1.5693   1.6065
     1.6340   1.6637   1.7127

          k = 0.0617 0.0356 0.0000 ( 15669 PWs)   bands (ev):

   -63.2498 -63.1899 -63.1766 -63.1666 -63.1266 -63.1101 -63.1024 -63.0877
   -63.0814 -63.0678 -63.0510 -63.0503 -37.2827 -37.2740 -37.2596 -37.2315
   -37.2301 -37.2138 -37.1928 -37.1455 -37.1398 -37.0869 -37.0815 -37.0569
   -37.0485 -37.0393 -36.9507 -36.9241 -36.9136 -36.9126 -36.8778 -36.8659
   -36.8620 -36.8408 -36.8068 -36.8012 -36.7901 -36.7884 -36.7607 -36.7498
   -36.7491 -36.7439 -36.7338 -36.7201 -36.6970 -36.6715 -36.6678 -36.6095
   -11.0617  -4.2021  -2.8147  -2.5105  -2.0920  -1.8736  -1.8561  -1.6354
    -1.6040  -1.4868  -1.4613  -1.3459  -1.2327  -0.9950  -0.8240  -0.7928
    -0.7146  -0.6346  -0.5776  -0.2376  -0.0648  -0.0605   0.1771   0.4247
     0.4980   0.5438   0.6318   0.7432   0.8391   0.9294   0.9538   0.9740
     1.0509   1.0806   1.1121   1.2108   1.3474   1.4461   1.4915   1.4997
     1.5687   1.6623   1.7422

          k = 0.0617-0.1426 0.0000 ( 15642 PWs)   bands (ev):

   -63.2336 -63.2006 -63.1720 -63.1608 -63.1330 -63.1123 -63.0999 -63.0933
   -63.0780 -63.0712 -63.0608 -63.0451 -37.2555 -37.2382 -37.2198 -37.2076
   -37.1947 -37.1778 -37.1462 -37.1195 -37.0968 -37.0906 -37.0754 -37.0486
   -37.0428 -37.0030 -36.9946 -36.9577 -36.9203 -36.9160 -36.9030 -36.8990
   -36.8734 -36.8537 -36.8455 -36.8242 -36.8108 -36.7950 -36.7761 -36.7698
   -36.7571 -36.7501 -36.7291 -36.7195 -36.7171 -36.6936 -36.6734 -36.6386
   -11.0555  -3.6503  -2.7696  -2.4387  -2.1317  -1.9825  -1.8764  -1.6715
    -1.5255  -1.3376  -1.1531  -1.1360  -0.8992  -0.8095  -0.6057  -0.5586
    -0.5262  -0.4293  -0.3361  -0.1249  -0.0705  -0.0074   0.0595   0.1867
     0.2249   0.3011   0.3966   0.4853   0.5449   0.6465   0.6884   0.7476
     0.8131   0.8838   0.9336   1.0570   1.1609   1.2300   1.4054   1.4539
     1.5220   1.6783   1.7698

          k = 0.0617-0.1069 0.0000 ( 15672 PWs)   bands (ev):

   -63.2188 -63.2094 -63.1786 -63.1480 -63.1314 -63.1273 -63.0998 -63.0867
   -63.0755 -63.0749 -63.0673 -63.0432 -37.2342 -37.2105 -37.2078 -37.1758
   -37.1659 -37.1530 -37.1287 -37.1222 -37.1127 -37.0661 -37.0637 -37.0420
   -37.0178 -37.0034 -36.9997 -36.9686 -36.9606 -36.9522 -36.9244 -36.9015
   -36.8928 -36.8926 -36.8560 -36.8017 -36.8000 -36.7967 -36.7806 -36.7528
   -36.7523 -36.7486 -36.7391 -36.7376 -36.7264 -36.6868 -36.6843 -36.6823
   -11.0525  -2.8981  -2.8303  -2.8244  -2.0716  -2.0615  -2.0353  -1.5171
    -1.5109  -1.3265  -0.8164  -0.8044  -0.6758  -0.6205  -0.6103  -0.5751
    -0.2466  -0.2127  -0.2020  -0.1970  -0.1585  -0.0931  -0.0544  -0.0456
     0.1657   0.2174   0.2317   0.3728   0.3734   0.4725   0.4764   0.5288
     0.5721   0.6939   0.8146   0.8831   1.0257   1.3116   1.4793   1.5060
     1.6018   1.6906   1.7326

          k = 0.0617-0.0713 0.0000 ( 15642 PWs)   bands (ev):

   -63.2336 -63.2007 -63.1720 -63.1608 -63.1330 -63.1123 -63.0999 -63.0933
   -63.0780 -63.0712 -63.0608 -63.0451 -37.2555 -37.2382 -37.2198 -37.2076
   -37.1947 -37.1778 -37.1462 -37.1195 -37.0968 -37.0906 -37.0754 -37.0486
   -37.0428 -37.0030 -36.9946 -36.9578 -36.9204 -36.9160 -36.9031 -36.8990
   -36.8734 -36.8537 -36.8455 -36.8243 -36.8108 -36.7950 -36.7761 -36.7698
   -36.7571 -36.7501 -36.7291 -36.7195 -36.7171 -36.6936 -36.6734 -36.6386
   -11.0555  -3.6503  -2.7696  -2.4387  -2.1317  -1.9825  -1.8764  -1.6715
    -1.5255  -1.3376  -1.1531  -1.1360  -0.8992  -0.8095  -0.6057  -0.5586
    -0.5262  -0.4293  -0.3361  -0.1249  -0.0705  -0.0073   0.0595   0.1867
     0.2249   0.3011   0.3966   0.4853   0.5449   0.6465   0.6885   0.7476
     0.8131   0.8838   0.9336   1.0570   1.1609   1.2300   1.4054   1.4539
     1.5220   1.6783   1.7699

          k =-0.0926 0.0535 0.0000 ( 15660 PWs)   bands (ev):

   -63.2305 -63.2080 -63.1666 -63.1562 -63.1436 -63.1082 -63.0978 -63.0849
   -63.0821 -63.0815 -63.0510 -63.0502 -37.2504 -37.2386 -37.2282 -37.2184
   -37.1982 -37.1905 -37.1179 -37.1173 -37.1063 -37.1018 -37.0729 -37.0657
   -37.0082 -36.9757 -36.9559 -36.9398 -36.9309 -36.9260 -36.9175 -36.8860
   -36.8664 -36.8530 -36.8528 -36.8497 -36.8430 -36.8420 -36.7729 -36.7602
   -36.7545 -36.7465 -36.7364 -36.7268 -36.7062 -36.6981 -36.6428 -36.6363
   -11.0555  -3.3468  -3.3368  -2.3556  -2.2552  -1.8106  -1.7038  -1.6265
    -1.3144  -1.2991  -1.2185  -1.1889  -1.0866  -0.9964  -0.5268  -0.4951
    -0.4519  -0.3940  -0.3557  -0.2607   0.0587   0.0722   0.1185   0.1429
     0.2264   0.2829   0.4248   0.4789   0.5913   0.6313   0.6591   0.7820
     0.8619   0.9268   0.9694   0.9895   1.1944   1.2146   1.2667   1.4245
     1.4515   1.7352   1.8578

          k =-0.0926 0.0891 0.0000 ( 15642 PWs)   bands (ev):

   -63.2336 -63.2006 -63.1720 -63.1608 -63.1330 -63.1123 -63.0999 -63.0933
   -63.0780 -63.0712 -63.0608 -63.0451 -37.2555 -37.2382 -37.2198 -37.2076
   -37.1947 -37.1778 -37.1462 -37.1194 -37.0968 -37.0906 -37.0754 -37.0486
   -37.0428 -37.0030 -36.9946 -36.9577 -36.9204 -36.9160 -36.9031 -36.8990
   -36.8734 -36.8537 -36.8455 -36.8243 -36.8108 -36.7950 -36.7761 -36.7698
   -36.7571 -36.7501 -36.7291 -36.7195 -36.7171 -36.6936 -36.6734 -36.6386
   -11.0555  -3.6503  -2.7696  -2.4387  -2.1317  -1.9825  -1.8764  -1.6715
    -1.5255  -1.3376  -1.1531  -1.1360  -0.8992  -0.8095  -0.6057  -0.5586
    -0.5262  -0.4293  -0.3361  -0.1249  -0.0705  -0.0073   0.0595   0.1867
     0.2249   0.3011   0.3966   0.4853   0.5449   0.6465   0.6885   0.7476
     0.8131   0.8838   0.9336   1.0570   1.1609   1.2300   1.4054   1.4539
     1.5220   1.6783   1.7699

          k =-0.0926 0.1248 0.0000 ( 15642 PWs)   bands (ev):

   -63.2336 -63.2006 -63.1720 -63.1608 -63.1330 -63.1123 -63.0999 -63.0933
   -63.0780 -63.0712 -63.0608 -63.0451 -37.2555 -37.2382 -37.2198 -37.2076
   -37.1947 -37.1778 -37.1462 -37.1195 -37.0968 -37.0906 -37.0754 -37.0486
   -37.0428 -37.0030 -36.9946 -36.9577 -36.9203 -36.9160 -36.9030 -36.8990
   -36.8734 -36.8537 -36.8455 -36.8243 -36.8108 -36.7950 -36.7761 -36.7698
   -36.7571 -36.7501 -36.7291 -36.7195 -36.7171 -36.6936 -36.6734 -36.6386
   -11.0555  -3.6503  -2.7696  -2.4387  -2.1317  -1.9825  -1.8764  -1.6715
    -1.5255  -1.3376  -1.1531  -1.1360  -0.8992  -0.8095  -0.6057  -0.5586
    -0.5262  -0.4293  -0.3361  -0.1249  -0.0705  -0.0074   0.0595   0.1867
     0.2249   0.3011   0.3966   0.4853   0.5449   0.6465   0.6885   0.7476
     0.8131   0.8838   0.9336   1.0570   1.1609   1.2300   1.4054   1.4539
     1.5220   1.6783   1.7698

          k =-0.0926-0.0535 0.0000 ( 15660 PWs)   bands (ev):

   -63.2305 -63.2079 -63.1667 -63.1562 -63.1436 -63.1082 -63.0978 -63.0849
   -63.0821 -63.0815 -63.0511 -63.0502 -37.2505 -37.2387 -37.2282 -37.2185
   -37.1982 -37.1905 -37.1180 -37.1173 -37.1063 -37.1018 -37.0730 -37.0657
   -37.0082 -36.9758 -36.9559 -36.9398 -36.9309 -36.9260 -36.9174 -36.8860
   -36.8664 -36.8530 -36.8528 -36.8497 -36.8430 -36.8420 -36.7729 -36.7602
   -36.7545 -36.7465 -36.7363 -36.7268 -36.7062 -36.6981 -36.6428 -36.6364
   -11.0555  -3.3468  -3.3368  -2.3556  -2.2552  -1.8106  -1.7038  -1.6265
    -1.3145  -1.2991  -1.2185  -1.1889  -1.0865  -0.9964  -0.5268  -0.4951
    -0.4519  -0.3940  -0.3557  -0.2608   0.0587   0.0721   0.1185   0.1429
     0.2264   0.2829   0.4248   0.4790   0.5913   0.6313   0.6591   0.7820
     0.8618   0.9268   0.9694   0.9895   1.1944   1.2146   1.2667   1.4245
     1.4514   1.7352   1.8577

     the Fermi energy is     1.0496 ev

!    total energy              =   -1773.38062298 Ry
     Harris-Foulkes estimate   =   -1773.38062317 Ry
     estimated scf accuracy    <       0.00000008 Ry

     The total energy is the sum of the following terms:

     one-electron contribution =  -15154.43477837 Ry
     hartree contribution      =    7566.62631351 Ry
     xc contribution           =    -252.98521202 Ry
     ewald contribution        =    6067.55404937 Ry
     electric field correction =       0.00010011 Ry
     smearing contrib. (-TS)   =      -0.14109558 Ry

     convergence has been achieved in  20 iterations
 
 BEEF-vdW xc energy contributions
           1 :   -217.863947376840     
           2 :    195.300014462426     
           3 :   -158.059680753970     
           4 :    117.841681141454     
           5 :   -84.7988892815319     
           6 :    63.7717239605017     
           7 :   -53.6614518590395     
           8 :    49.6512847535640     
           9 :   -46.6038539956496     
          10 :    41.6642303314354     
          11 :   -34.9451331641797     
          12 :    28.4090143703881     
          13 :   -24.0041427817563     
          14 :    22.2878505281154     
          15 :   -22.2509111378580     
          16 :    22.2055131643872     
          17 :   -20.9834510205283     
          18 :    18.6079170501835     
          19 :   -16.0664052612108     
          20 :    14.4560989442558     
          21 :   -14.1709895246632     
          22 :    14.6859609145426     
          23 :   -15.0144790665075     
          24 :    14.4387143854598     
          25 :   -12.9763189984232     
          26 :    11.2912389092506     
          27 :   -10.1711453499341     
          28 :    9.97045397653014     
          29 :   -10.4016096228851     
          30 :    10.7854074040354     
          31 :   -22.6929163163392     
          32 :   -16.3257253026867     

     Forces acting on atoms (Ry/au):


     negative rho (up, down):  1.519E-02 0.000E+00
     atom    1 type  1   force =    -0.00044909   -0.00026061   -0.00174299
     atom    2 type  1   force =     0.00044936   -0.00026103   -0.00174377
     atom    3 type  1   force =     0.00000014    0.00052003   -0.00174174
     atom    4 type  1   force =    -0.00000030    0.00000048   -0.00070773
     atom    5 type  1   force =     0.00000057   -0.00031521    0.00057860
     atom    6 type  1   force =    -0.00000246    0.00000016    0.00373423
     atom    7 type  1   force =     0.00027226    0.00015497    0.00058166
     atom    8 type  1   force =    -0.00027121    0.00015822    0.00057862
     atom    9 type  1   force =     0.00000202   -0.00000073    0.00087557
     atom   10 type  1   force =    -0.00000123   -0.00087609   -0.00017649
     atom   11 type  1   force =    -0.00075833    0.00043994   -0.00016960
     atom   12 type  1   force =     0.00075808    0.00044124   -0.00016986
     atom   13 type  2   force =     0.00000020   -0.00000139    0.00010350

     Total force =     0.001781     Total SCF correction =     0.000647
     SCF correction compared to forces is large: reduce conv_thr to get better values


     entering subroutine stress ...


     negative rho (up, down):  1.519E-02 0.000E+00
          total   stress  (Ry/bohr**3)                   (kbar)     P=  -17.97
  -0.00018324  -0.00000000   0.00000000        -26.96     -0.00      0.00
  -0.00000000  -0.00018324   0.00000000         -0.00    -26.96      0.00
   0.00000000   0.00000000   0.00000002          0.00      0.00      0.00


     bfgs converged in   9 scf cycles and   8 bfgs steps
     (criteria: energy <  1.0E+00, force <  1.9E-03)

     End of BFGS Geometry Optimization

     Final energy   =   -1773.3806229790 Ry
Begin final coordinates

ATOMIC_POSITIONS (crystal)
V1       0.166666667   0.166666667   0.409694847    0   0   0
V1       0.666666667   0.166666667   0.409694847    0   0   0
V1       0.166666667   0.666666667   0.409694847    0   0   0
V1       0.666666667   0.666666667   0.409694847    0   0   0
V1       0.833333333   0.333333333   0.500000000    0   0   0
V1       0.333333333   0.333333333   0.500000000    0   0   0
V1       0.833333333   0.833333333   0.500000000    0   0   0
V1       0.333333333   0.833333333   0.500000000    0   0   0
V1      -0.000001790   0.000003812   0.594709918
V1       0.498878314   0.002245805   0.589719737
V1       0.002242832   0.498880137   0.589719144
V1       0.498879129   0.498877973   0.589717722
S1       0.000000649  -0.000002252   0.680053728
End final coordinates



     Writing output data file calc.save
 
     init_run     :      8.85s CPU      9.22s WALL (       1 calls)
     electrons    :   3181.65s CPU   3335.00s WALL (       9 calls)
     update_pot   :     19.15s CPU     20.03s WALL (       8 calls)
     forces       :    110.34s CPU    112.36s WALL (       9 calls)
     stress       :    350.63s CPU    359.75s WALL (       9 calls)

     Called by init_run:
     wfcinit      :      2.95s CPU      3.00s WALL (       1 calls)
     potinit      :      1.52s CPU      1.63s WALL (       1 calls)

     Called by electrons:
     c_bands      :   1342.61s CPU   1403.68s WALL (     169 calls)
     sum_band     :    645.15s CPU    664.83s WALL (     169 calls)
     v_of_rho     :    223.19s CPU    242.03s WALL (     177 calls)
     newd         :    617.65s CPU    628.08s WALL (     177 calls)
     mix_rho      :      8.57s CPU      8.78s WALL (     169 calls)
     vdW_energy   :     96.11s CPU    105.35s WALL (     501 calls)
     vdW_ffts     :    204.58s CPU    218.02s WALL (    1020 calls)
     vdW_v        :     84.09s CPU     87.81s WALL (     501 calls)

     Called by c_bands:
     init_us_2    :      8.85s CPU      8.93s WALL (    1785 calls)
     cegterg      :   1217.79s CPU   1242.25s WALL (     845 calls)

     Called by *egterg:
     h_psi        :    744.95s CPU    764.09s WALL (    4343 calls)
     s_psi        :     79.59s CPU     79.83s WALL (    4343 calls)
     g_psi        :      4.74s CPU      4.78s WALL (    3493 calls)
     cdiaghg      :    151.02s CPU    152.19s WALL (    4293 calls)

     Called by h_psi:
     add_vuspsi   :     82.48s CPU     82.72s WALL (    4343 calls)

     General routines
     calbec       :    123.34s CPU    124.77s WALL (    5278 calls)
     fft          :    310.76s CPU    337.08s WALL (   30621 calls)
     ffts         :      0.55s CPU      0.61s WALL (     346 calls)
     fftw         :    432.80s CPU    452.55s WALL (  463097 calls)
     interpolate  :      4.78s CPU      4.96s WALL (     346 calls)
     davcio       :      0.00s CPU      0.02s WALL (       5 calls)
 
     Parallel routines
     fft_scatter  :    431.16s CPU    473.96s WALL (  494064 calls)
 
     PWSCF        :     1h 1m CPU        1h 4m WALL

 
   This run was terminated on:  19: 1: 2   2May2018            

=------------------------------------------------------------------------------=
   JOB DONE.
=------------------------------------------------------------------------------=
Job  /afs/slac/g/suncat/bin/suncat-tsmpirun -x LD_LIBRARY_PATH -wdir /scratch/qe822723_RaFtn pw.x -npool 4 -in pw.inp

TID   HOST_NAME   COMMAND_LINE            STATUS            TERMINATION_TIME
===== ========== ================  =======================  ===================
00000 suncat0094 pw.x -npool 4 -i  Done                     05/02/2018 19:01:02
00001 suncat0094 pw.x -npool 4 -i  Done                     05/02/2018 19:01:02
00002 suncat0094 pw.x -npool 4 -i  Done                     05/02/2018 19:01:02
00003 suncat0094 pw.x -npool 4 -i  Done                     05/02/2018 19:01:02
00004 suncat0094 pw.x -npool 4 -i  Done                     05/02/2018 19:01:02
00005 suncat0094 pw.x -npool 4 -i  Done                     05/02/2018 19:01:02
00006 suncat0094 pw.x -npool 4 -i  Done                     05/02/2018 19:01:02
00007 suncat0094 pw.x -npool 4 -i  Done                     05/02/2018 19:01:02
00008 suncat0059 pw.x -npool 4 -i  Done                     05/02/2018 19:01:02
00009 suncat0059 pw.x -npool 4 -i  Done                     05/02/2018 19:01:02
00010 suncat0059 pw.x -npool 4 -i  Done                     05/02/2018 19:01:02
00011 suncat0059 pw.x -npool 4 -i  Done                     05/02/2018 19:01:02
00012 suncat0059 pw.x -npool 4 -i  Done                     05/02/2018 19:01:02
00013 suncat0059 pw.x -npool 4 -i  Done                     05/02/2018 19:01:02
00014 suncat0059 pw.x -npool 4 -i  Done                     05/02/2018 19:01:02
00015 suncat0059 pw.x -npool 4 -i  Done                     05/02/2018 19:01:02
00016 suncat0142 pw.x -npool 4 -i  Done                     05/02/2018 19:01:02
00017 suncat0142 pw.x -npool 4 -i  Done                     05/02/2018 19:01:02
00018 suncat0142 pw.x -npool 4 -i  Done                     05/02/2018 19:01:02
00019 suncat0142 pw.x -npool 4 -i  Done                     05/02/2018 19:01:02
00020 suncat0142 pw.x -npool 4 -i  Done                     05/02/2018 19:01:02
00021 suncat0142 pw.x -npool 4 -i  Done                     05/02/2018 19:01:02
00022 suncat0142 pw.x -npool 4 -i  Done                     05/02/2018 19:01:02
00023 suncat0142 pw.x -npool 4 -i  Done                     05/02/2018 19:01:02
00024 suncat0126 pw.x -npool 4 -i  Done                     05/02/2018 19:01:02
00025 suncat0126 pw.x -npool 4 -i  Done                     05/02/2018 19:01:02
00026 suncat0126 pw.x -npool 4 -i  Done                     05/02/2018 19:01:02
00027 suncat0126 pw.x -npool 4 -i  Done                     05/02/2018 19:01:02
00028 suncat0126 pw.x -npool 4 -i  Done                     05/02/2018 19:01:02
00029 suncat0126 pw.x -npool 4 -i  Done                     05/02/2018 19:01:02
00030 suncat0126 pw.x -npool 4 -i  Done                     05/02/2018 19:01:02
00031 suncat0126 pw.x -npool 4 -i  Done                     05/02/2018 19:01:02
