  python dir          : /home/mamunm/src/espresso
  espresso dir        : /home/vossj/suncat/esdld/espresso-dynpy-beef/bin
  pseudo dir          : /home/mamunm/src/pseudo/gbrv1.5pbe
  ase-espresso py git : GITVERSION



     Program PWSCF v.5.1rc2 (svn rev. ) starts on  4Feb2018 at 13:57:57 

     This program is part of the open-source Quantum ESPRESSO suite
     for quantum simulation of materials; please cite
         "P. Giannozzi et al., J. Phys.:Condens. Matter 21 395502 (2009);
          URL http://www.quantum-espresso.org", 
     in publications or presentations arising from this work. More details at
     http://www.quantum-espresso.org/quote

     Parallel version (MPI), running on    16 processors
     R & G space division:  proc/nbgrp/npool/nimage =      16
     Reading input from pw.inp
     Message from routine read_cards :
     DEPRECATED: no units specified in CELL_PARAMETERS card

     Current dimensions of program PWSCF are:
     Max number of different atomic species (ntypx) = 10
     Max number of k-points (npk) =  40000
     Max angular momentum in pseudopotentials (lmaxx) =  3
     Presently stress not available with electric field


     **************************************************************************
     Initializing libbeef V0.1.1 with the BEEF-vdW functional.
     Citation: Wellendorff et al., PRB 85, 235149 (2012).
     **************************************************************************


     IMPORTANT: XC functional enforced from input :
     Exchange-correlation      = BEEF-VDW ( 1  4 27 13 2)
     Any further DFT definition will be discarded
     Please, verify this is what you really want


     Subspace diagonalization in iterative solution of the eigenvalue problem:
     a serial algorithm will be used

 
     Parallelization info
     --------------------
     sticks:   dense  smooth     PW     G-vecs:    dense   smooth      PW
     Min         221      88     26                42669    10776    1670
     Max         222      89     27                42674    10821    1674
     Sum        3547    1417    421               682735   172803   26751
 


     bravais-lattice index     =            0
     lattice parameter (alat)  =       1.8897  a.u.
     unit-cell volume          =    5739.2980 (a.u.)^3
     number of atoms/cell      =           13
     number of atomic types    =            2
     number of electrons       =       150.00
     number of Kohn-Sham states=           85
     kinetic-energy cutoff     =      36.7493  Ry
     charge density cutoff     =     367.4932  Ry
     convergence threshold     =      1.0E-05
     mixing beta               =       0.3000
     number of iterations used =           10  plain     mixing
     Exchange-correlation      = BEEF-VDW ( 1  4 27 13 2)
     nstep                     =           50


     celldm(1)=   1.889726  celldm(2)=   0.000000  celldm(3)=   0.000000
     celldm(4)=   0.000000  celldm(5)=   0.000000  celldm(6)=   0.000000

     crystal axes: (cart. coord. in units of alat)
               a(1) = (   6.254208   0.000000   0.000000 )  
               a(2) = (   3.127104   5.416303   0.000000 )  
               a(3) = (   0.000000   0.000000  25.106540 )  

     reciprocal axes: (cart. coord. in units 2 pi/alat)
               b(1) = (  0.159892 -0.092314  0.000000 )  
               b(2) = (  0.000000  0.184628  0.000000 )  
               b(3) = (  0.000000  0.000000  0.039830 )  


     PseudoPot. # 1 for Cd read from file:
     /home/mamunm/src/pseudo/gbrv1.5pbe/Cd.UPF
     MD5 check sum: 17164a7926edb8e0dc231208abae86a6
     Pseudo is Ultrasoft + core correction, Zval = 12.0
     Generated by new atomic code, or converted to UPF format
     Using radial grid of  889 points,  6 beta functions with: 
                l(1) =   0
                l(2) =   0
                l(3) =   1
                l(4) =   1
                l(5) =   2
                l(6) =   2
     Q(r) pseudized with  6 coefficients,  rinner =    1.000   1.000   1.000
                                                       1.000   1.000

     PseudoPot. # 2 for O  read from file:
     /home/mamunm/src/pseudo/gbrv1.5pbe/O.UPF
     MD5 check sum: 734c27235a0248c51dbae37a1fbe46ec
     Pseudo is Ultrasoft + core correction, Zval =  6.0
     Generated by new atomic code, or converted to UPF format
     Using radial grid of  737 points,  5 beta functions with: 
                l(1) =   0
                l(2) =   0
                l(3) =   1
                l(4) =   1
                l(5) =   2
     Q(r) pseudized with  8 coefficients,  rinner =    0.900   0.900   0.900
                                                       0.900   0.900

     vdW kernel table read from file vdW_kernel_table
     MD5 check sum: 095c7af220d748ca6e76c0b4c6cfb241

     atomic species   valence    mass     pseudopotential
        Cd1           12.00   112.41400     Cd( 1.00)
        O1             6.00    15.99900     O ( 1.00)

     No symmetry found



   Cartesian axes

     site n.     atom                  positions (alat units)
         1           Cd1 tau(   1) = (   1.5635521   0.9027172  10.0000000  )
         2           Cd1 tau(   2) = (   4.6906562   0.9027172  10.0000000  )
         3           Cd1 tau(   3) = (   3.1271041   3.6108688  10.0000000  )
         4           Cd1 tau(   4) = (   6.2542083   3.6108688  10.0000000  )
         5           Cd1 tau(   5) = (   6.2542083   1.8054344  12.5532698  )
         6           Cd1 tau(   6) = (   3.1271041   1.8054344  12.5532698  )
         7           Cd1 tau(   7) = (   7.8177603   4.5135860  12.5532698  )
         8           Cd1 tau(   8) = (   4.6906562   4.5135860  12.5532698  )
         9           Cd1 tau(   9) = (   0.0000000   0.0000000  15.1065397  )
        10           Cd1 tau(  10) = (   3.1271041   0.0000000  15.1065397  )
        11           Cd1 tau(  11) = (   1.5635521   2.7081516  15.1065397  )
        12           Cd1 tau(  12) = (   4.6906562   2.7081516  15.1065397  )
        13           O1  tau(  13) = (   1.5635521   0.9027172  16.4715397  )

     number of k points=    20  Fermi-Dirac smearing, width (Ry)=  0.0110
                       cart. coord. in units 2pi/alat
        k(    1) = (   0.0000000   0.0000000   0.0000000), wk =   0.0555556
        k(    2) = (   0.0000000   0.0307713   0.0000000), wk =   0.1111111
        k(    3) = (   0.0000000   0.0615426   0.0000000), wk =   0.1111111
        k(    4) = (   0.0000000  -0.0923139   0.0000000), wk =   0.0555556
        k(    5) = (   0.0266487  -0.0153856   0.0000000), wk =   0.1111111
        k(    6) = (   0.0266487   0.0153856   0.0000000), wk =   0.1111111
        k(    7) = (   0.0266487   0.0461569   0.0000000), wk =   0.1111111
        k(    8) = (   0.0266487  -0.1076995   0.0000000), wk =   0.1111111
        k(    9) = (   0.0266487  -0.0769282   0.0000000), wk =   0.1111111
        k(   10) = (   0.0266487  -0.0461569   0.0000000), wk =   0.1111111
        k(   11) = (   0.0532974  -0.0307713   0.0000000), wk =   0.1111111
        k(   12) = (   0.0532974   0.0000000   0.0000000), wk =   0.1111111
        k(   13) = (   0.0532974   0.0307713   0.0000000), wk =   0.1111111
        k(   14) = (   0.0532974  -0.1230852   0.0000000), wk =   0.1111111
        k(   15) = (   0.0532974  -0.0923139   0.0000000), wk =   0.1111111
        k(   16) = (   0.0532974  -0.0615426   0.0000000), wk =   0.1111111
        k(   17) = (  -0.0799462   0.0461569   0.0000000), wk =   0.0555556
        k(   18) = (  -0.0799462   0.0769282   0.0000000), wk =   0.1111111
        k(   19) = (  -0.0799462   0.1076995   0.0000000), wk =   0.1111111
        k(   20) = (  -0.0799462  -0.0461569   0.0000000), wk =   0.0555556

     Dense  grid:   682735 G-vectors     FFT dimensions: (  75,  75, 300)

     Smooth grid:   172803 G-vectors     FFT dimensions: (  45,  45, 192)

     Largest allocated arrays     est. size (Mb)     dimensions
        Kohn-Sham Wavefunctions         1.79 Mb     (    1379,   85)
        NL pseudopotentials             4.82 Mb     (    1379,  229)
        Each V/rho on FFT grid          1.63 Mb     (  106875)
        Each G-vector array             0.33 Mb     (   42674)
        G-vector shells                 0.13 Mb     (   17058)
     Largest temporary arrays     est. size (Mb)     dimensions
        Auxiliary wavefunctions         7.15 Mb     (    1379,  340)
        Each subspace H/S matrix        1.76 Mb     (     340,  340)
        Each <psi_i|beta_j> matrix      0.30 Mb     (     229,   85)
        Arrays for rho mixing          16.31 Mb     (  106875,   10)

     Initial potential from superposition of free atoms
     Check: negative starting charge=   -0.258035

     starting charge  143.99950, renormalised to  150.00000

     negative rho (up, down):  2.688E-01 0.000E+00


     ************************************************************************
     *
     * You are using vdW-DF for exchange-correlation in this calculation.
     * Please cite the following three references that made this development
     * possible:
     *
     *   M. Dion, H. Rydberg, E. Schroder, D. C. Langreth, and
     *   B. I. Lundqvist, Phys. Rev. Lett. 92, 246401 (2004).
     *
     *   T. Thonhauser, V. R. Cooper, S. Li, A. Puzder, P. Hyldgaard, and
     *   D. C. Langreth, Phys. Rev. B 76, 125112 (2007).
     *
     *   G. Roman-Perez and J. M. Soler, Phys. Rev. Lett. 103, 096102 (2009).
     *
     *
     * If you are using vdW-DF2, please also cite:
     *
     *   K. Lee, E. D. Murray, L. Kong, B. I. Lundqvist, and
     *   D. C. Langreth, Phys. Rev. B 82, 081101(R) (2010).
     *
     *
     * If you are calculating the stress with vdW-DF, please also cite:
     *
     *   R. Sabatini, E. Kucukbenli, B. Kolb, T. Thonhauser, and
     *   S. de Gironcoli, J. Phys.: Condens. Matter 24, 424209 (2012).
     *
     ************************************************************************

     Carrying out vdW-DF run using the following parameters:

     Nqs =      20    Nr_points =    1024   r_max =   100.000
     q_mesh =
               0.00001000     0.04494208     0.09755937     0.15916263
               0.23128650     0.31572767     0.41458969     0.53033537
               0.66584808     0.82450364     1.01025438     1.22772762
               1.48234092     1.78043706     2.12944203     2.53805004
               3.01644009     3.57652955     4.23227104     5.00000000

     Gradients computed in reciprocal space

     ************************************************************************


 
     Adding external electric field

     Computed dipole along edir(3) : 
        Dipole               -1.8513 Ry au,         -4.7054 Debye
        Dipole field         -0.0041 Ry au
 
        Potential amp.        0.3750 Ry
        Total length         46.2584 bohr
 
     Starting wfc are  112 randomized atomic wfcs

     total cpu time spent up to now is        8.6 secs

     Self-consistent Calculation

     iteration #  1     ecut=    36.75 Ry     beta=0.30
     Davidson diagonalization with overlap
     ethr =  1.00E-02,  avg # of iterations =  6.0

     negative rho (up, down):  2.620E-01 0.000E+00
 
     Adding external electric field

     Computed dipole along edir(3) : 
        Dipole                8.1044 Ry au,         20.5993 Debye
        Dipole field          0.0177 Ry au
 
        Potential amp.       -1.6417 Ry
        Total length         46.2584 bohr
 

     total cpu time spent up to now is       25.4 secs

     total energy              =   -1421.53313673 Ry
     Harris-Foulkes estimate   =   -1426.07169896 Ry
     estimated scf accuracy    <       9.44688760 Ry

     iteration #  2     ecut=    36.75 Ry     beta=0.30
     Davidson diagonalization with overlap
     ethr =  6.30E-03,  avg # of iterations = 11.8

     negative rho (up, down):  2.619E-01 0.000E+00
 
     Adding external electric field

     Computed dipole along edir(3) : 
        Dipole               -1.6955 Ry au,         -4.3094 Debye
        Dipole field         -0.0037 Ry au
 
        Potential amp.        0.3434 Ry
        Total length         46.2584 bohr
 

     total cpu time spent up to now is       57.3 secs

     total energy              =   -1378.35277262 Ry
     Harris-Foulkes estimate   =   -1443.33316363 Ry
     estimated scf accuracy    <    2246.39500855 Ry

     iteration #  3     ecut=    36.75 Ry     beta=0.30
     Davidson diagonalization with overlap
     ethr =  6.30E-03,  avg # of iterations =  8.7

     negative rho (up, down):  2.624E-01 0.000E+00
 
     Adding external electric field

     Computed dipole along edir(3) : 
        Dipole               -1.4116 Ry au,         -3.5879 Debye
        Dipole field         -0.0031 Ry au
 
        Potential amp.        0.2859 Ry
        Total length         46.2584 bohr
 

     total cpu time spent up to now is       86.6 secs

     total energy              =   -1424.89332417 Ry
     Harris-Foulkes estimate   =   -1425.73441862 Ry
     estimated scf accuracy    <       4.95993040 Ry

     iteration #  4     ecut=    36.75 Ry     beta=0.30
     Davidson diagonalization with overlap
     ethr =  3.31E-03,  avg # of iterations =  2.4

     negative rho (up, down):  2.624E-01 0.000E+00
 
     Adding external electric field

     Computed dipole along edir(3) : 
        Dipole               -1.2346 Ry au,         -3.1381 Debye
        Dipole field         -0.0027 Ry au
 
        Potential amp.        0.2501 Ry
        Total length         46.2584 bohr
 

     total cpu time spent up to now is      101.3 secs

     total energy              =   -1425.32663503 Ry
     Harris-Foulkes estimate   =   -1425.39653274 Ry
     estimated scf accuracy    <       0.26435025 Ry

     iteration #  5     ecut=    36.75 Ry     beta=0.30
     Davidson diagonalization with overlap
     ethr =  1.76E-04,  avg # of iterations =  5.7

     negative rho (up, down):  2.628E-01 0.000E+00
 
     Adding external electric field

     Computed dipole along edir(3) : 
        Dipole               -1.2681 Ry au,         -3.2233 Debye
        Dipole field         -0.0028 Ry au
 
        Potential amp.        0.2569 Ry
        Total length         46.2584 bohr
 

     total cpu time spent up to now is      119.4 secs

     total energy              =   -1425.50277193 Ry
     Harris-Foulkes estimate   =   -1425.52740075 Ry
     estimated scf accuracy    <       0.32975903 Ry

     iteration #  6     ecut=    36.75 Ry     beta=0.30
     Davidson diagonalization with overlap
     ethr =  1.76E-04,  avg # of iterations =  2.0

     negative rho (up, down):  2.638E-01 0.000E+00
 
     Adding external electric field

     Computed dipole along edir(3) : 
        Dipole               -1.2605 Ry au,         -3.2038 Debye
        Dipole field         -0.0028 Ry au
 
        Potential amp.        0.2553 Ry
        Total length         46.2584 bohr
 

     total cpu time spent up to now is      133.5 secs

     total energy              =   -1425.51908236 Ry
     Harris-Foulkes estimate   =   -1425.52199606 Ry
     estimated scf accuracy    <       0.03970332 Ry

     iteration #  7     ecut=    36.75 Ry     beta=0.30
     Davidson diagonalization with overlap
     ethr =  2.65E-05,  avg # of iterations =  2.6

     negative rho (up, down):  2.648E-01 0.000E+00
 
     Adding external electric field

     Computed dipole along edir(3) : 
        Dipole               -1.1602 Ry au,         -2.9489 Debye
        Dipole field         -0.0025 Ry au
 
        Potential amp.        0.2350 Ry
        Total length         46.2584 bohr
 

     total cpu time spent up to now is      148.2 secs

     total energy              =   -1425.52204953 Ry
     Harris-Foulkes estimate   =   -1425.52315579 Ry
     estimated scf accuracy    <       0.02467997 Ry

     iteration #  8     ecut=    36.75 Ry     beta=0.30
     Davidson diagonalization with overlap
     ethr =  1.65E-05,  avg # of iterations =  1.2

     negative rho (up, down):  2.657E-01 0.000E+00
 
     Adding external electric field

     Computed dipole along edir(3) : 
        Dipole               -1.0372 Ry au,         -2.6362 Debye
        Dipole field         -0.0023 Ry au
 
        Potential amp.        0.2101 Ry
        Total length         46.2584 bohr
 

     total cpu time spent up to now is      161.7 secs

     total energy              =   -1425.52109512 Ry
     Harris-Foulkes estimate   =   -1425.52335453 Ry
     estimated scf accuracy    <       0.01590892 Ry

     iteration #  9     ecut=    36.75 Ry     beta=0.30
     Davidson diagonalization with overlap
     ethr =  1.06E-05,  avg # of iterations =  2.9

     negative rho (up, down):  2.660E-01 0.000E+00
 
     Adding external electric field

     Computed dipole along edir(3) : 
        Dipole               -0.9420 Ry au,         -2.3943 Debye
        Dipole field         -0.0021 Ry au
 
        Potential amp.        0.1908 Ry
        Total length         46.2584 bohr
 

     total cpu time spent up to now is      175.9 secs

     total energy              =   -1425.52048857 Ry
     Harris-Foulkes estimate   =   -1425.52188437 Ry
     estimated scf accuracy    <       0.00993020 Ry

     iteration # 10     ecut=    36.75 Ry     beta=0.30
     Davidson diagonalization with overlap
     ethr =  6.62E-06,  avg # of iterations =  2.0

     negative rho (up, down):  2.660E-01 0.000E+00
 
     Adding external electric field

     Computed dipole along edir(3) : 
        Dipole               -0.8829 Ry au,         -2.2440 Debye
        Dipole field         -0.0019 Ry au
 
        Potential amp.        0.1788 Ry
        Total length         46.2584 bohr
 

     total cpu time spent up to now is      189.9 secs

     total energy              =   -1425.52028606 Ry
     Harris-Foulkes estimate   =   -1425.52096676 Ry
     estimated scf accuracy    <       0.00652589 Ry

     iteration # 11     ecut=    36.75 Ry     beta=0.30
     Davidson diagonalization with overlap
     ethr =  4.35E-06,  avg # of iterations =  2.0

     negative rho (up, down):  2.661E-01 0.000E+00
 
     Adding external electric field

     Computed dipole along edir(3) : 
        Dipole               -0.7591 Ry au,         -1.9295 Debye
        Dipole field         -0.0017 Ry au
 
        Potential amp.        0.1538 Ry
        Total length         46.2584 bohr
 

     total cpu time spent up to now is      203.7 secs

     total energy              =   -1425.51984434 Ry
     Harris-Foulkes estimate   =   -1425.52085127 Ry
     estimated scf accuracy    <       0.00502659 Ry

     iteration # 12     ecut=    36.75 Ry     beta=0.30
     Davidson diagonalization with overlap
     ethr =  3.35E-06,  avg # of iterations =  2.9

     negative rho (up, down):  2.660E-01 0.000E+00
 
     Adding external electric field

     Computed dipole along edir(3) : 
        Dipole               -0.7215 Ry au,         -1.8339 Debye
        Dipole field         -0.0016 Ry au
 
        Potential amp.        0.1462 Ry
        Total length         46.2584 bohr
 

     total cpu time spent up to now is      218.1 secs

     total energy              =   -1425.51987143 Ry
     Harris-Foulkes estimate   =   -1425.52007822 Ry
     estimated scf accuracy    <       0.00241475 Ry

     iteration # 13     ecut=    36.75 Ry     beta=0.30
     Davidson diagonalization with overlap
     ethr =  1.61E-06,  avg # of iterations =  2.2

     negative rho (up, down):  2.665E-01 0.000E+00
 
     Adding external electric field

     Computed dipole along edir(3) : 
        Dipole               -0.4953 Ry au,         -1.2589 Debye
        Dipole field         -0.0011 Ry au
 
        Potential amp.        0.1003 Ry
        Total length         46.2584 bohr
 

     total cpu time spent up to now is      232.0 secs

     total energy              =   -1425.51981110 Ry
     Harris-Foulkes estimate   =   -1425.52054803 Ry
     estimated scf accuracy    <       0.00174264 Ry

     iteration # 14     ecut=    36.75 Ry     beta=0.30
     Davidson diagonalization with overlap
     ethr =  1.16E-06,  avg # of iterations =  4.2

     negative rho (up, down):  2.665E-01 0.000E+00

     negative rho (up, down):  2.665E-01 0.000E+00

     negative rho (up, down):  2.665E-01 0.000E+00

     negative rho (up, down):  2.665E-01 0.000E+00

     negative rho (up, down):  2.665E-01 0.000E+00

     negative rho (up, down):  2.665E-01 0.000E+00

     negative rho (up, down):  2.665E-01 0.000E+00

     negative rho (up, down):  2.665E-01 0.000E+00

     negative rho (up, down):  2.665E-01 0.000E+00

     negative rho (up, down):  2.665E-01 0.000E+00

     negative rho (up, down):  2.665E-01 0.000E+00

     negative rho (up, down):  2.665E-01 0.000E+00

     negative rho (up, down):  2.665E-01 0.000E+00

     negative rho (up, down):  2.665E-01 0.000E+00

     negative rho (up, down):  2.665E-01 0.000E+00

     negative rho (up, down):  2.665E-01 0.000E+00

     negative rho (up, down):  2.665E-01 0.000E+00

     negative rho (up, down):  2.665E-01 0.000E+00

     negative rho (up, down):  2.665E-01 0.000E+00

     negative rho (up, down):  2.665E-01 0.000E+00

     negative rho (up, down):  2.665E-01 0.000E+00

     negative rho (up, down):  2.665E-01 0.000E+00

     negative rho (up, down):  2.665E-01 0.000E+00

     negative rho (up, down):  2.665E-01 0.000E+00

     negative rho (up, down):  2.665E-01 0.000E+00

     negative rho (up, down):  2.665E-01 0.000E+00

     negative rho (up, down):  2.665E-01 0.000E+00

     negative rho (up, down):  2.665E-01 0.000E+00

     negative rho (up, down):  2.665E-01 0.000E+00

     negative rho (up, down):  2.665E-01 0.000E+00

     negative rho (up, down):  2.665E-01 0.000E+00

     negative rho (up, down):  2.665E-01 0.000E+00

     negative rho (up, down):  2.665E-01 0.000E+00

     negative rho (up, down):  2.665E-01 0.000E+00

     negative rho (up, down):  2.665E-01 0.000E+00
 
     Adding external electric field

     Computed dipole along edir(3) : 
        Dipole               -0.5024 Ry au,         -1.2769 Debye
        Dipole field         -0.0011 Ry au
 
        Potential amp.        0.1018 Ry
        Total length         46.2584 bohr
 

     total cpu time spent up to now is      268.8 secs

     End of self-consistent calculation

          k = 0.0000 0.0000 0.0000 ( 21643 PWs)   bands (ev):

   -16.6833  -9.7729  -9.7729  -9.7682  -9.6300  -9.6300  -9.6254  -9.6227
    -9.5212  -9.5211  -9.5063  -9.4000  -9.4000  -9.3331  -9.2989  -9.2428
    -9.2428  -9.1901  -9.1890  -9.1890  -9.1051  -9.1002  -9.1001  -9.0919
    -9.0808  -9.0808  -9.0733  -9.0732  -8.9565  -8.9340  -8.9340  -8.7468
    -8.7468  -8.6600  -8.6599  -8.6407  -8.6076  -8.5958  -8.5955  -8.5462
    -8.5462  -8.5385  -8.5384  -8.4836  -8.4836  -8.4726  -8.4708  -8.4153
    -8.4153  -8.3757  -8.3529  -8.3529  -8.3041  -8.2895  -8.2894  -8.2847
    -8.2845  -8.2764  -8.1155  -8.1154  -8.0789  -8.0548  -6.2087  -3.3951
    -2.5762  -2.5762  -2.3941  -2.0661  -2.0661  -1.9512  -1.6061  -1.6061
    -1.4425  -0.7304  -0.4992  -0.4992  -0.4229   0.2144   0.2144   0.8375
     1.7518   1.7519   2.0281   2.5824   2.9047

          k = 0.0000 0.0308 0.0000 ( 21640 PWs)   bands (ev):

   -16.6824  -9.7434  -9.7162  -9.7126  -9.6015  -9.5978  -9.5886  -9.5813
    -9.4889  -9.4755  -9.4612  -9.3663  -9.3508  -9.3109  -9.2970  -9.2281
    -9.1986  -9.1742  -9.1712  -9.1547  -9.1309  -9.1277  -9.1081  -9.0858
    -9.0565  -9.0491  -9.0380  -9.0263  -8.9630  -8.9380  -8.8993  -8.7856
    -8.7396  -8.6770  -8.6743  -8.6600  -8.6550  -8.6470  -8.6326  -8.6098
    -8.5630  -8.5562  -8.5456  -8.5252  -8.5206  -8.5043  -8.4769  -8.4353
    -8.4263  -8.4157  -8.3905  -8.3573  -8.3500  -8.3412  -8.3322  -8.3297
    -8.3059  -8.2921  -8.1772  -8.1579  -8.1338  -7.8624  -6.0432  -3.8447
    -3.3170  -2.9575  -2.8777  -2.6351  -2.3069  -1.9653  -1.6255  -0.9690
    -0.8598  -0.6216  -0.5532  -0.3114   0.2120   0.5646   0.7626   1.1517
     1.6499   1.8624   2.3026   2.7813   3.2667

          k = 0.0000 0.0615 0.0000 ( 21582 PWs)   bands (ev):

   -16.6805  -9.6671  -9.5824  -9.5780  -9.5175  -9.5121  -9.5068  -9.4853
    -9.4079  -9.3966  -9.3781  -9.3286  -9.2934  -9.2577  -9.2571  -9.2264
    -9.1695  -9.1437  -9.1407  -9.1196  -9.0811  -9.0571  -9.0536  -9.0445
    -9.0061  -8.9933  -8.9720  -8.9651  -8.9539  -8.9330  -8.8432  -8.8269
    -8.8113  -8.8079  -8.7501  -8.7171  -8.7097  -8.7048  -8.6976  -8.6743
    -8.6316  -8.6245  -8.6044  -8.5861  -8.5630  -8.5512  -8.5461  -8.5410
    -8.5141  -8.5039  -8.4837  -8.4548  -8.4286  -8.3915  -8.3816  -8.3671
    -8.3671  -8.3538  -8.2903  -8.2363  -8.1883  -7.3558  -5.5854  -5.3242
    -3.8152  -3.3765  -3.2764  -3.0150  -2.5142  -2.1629  -1.8925  -1.1888
    -1.0598  -0.3547   0.1844   0.7099   0.7299   1.0714   1.3002   2.2920
     2.3694   2.6862   2.9135   3.2573   3.9237

          k = 0.0000-0.0923 0.0000 ( 21576 PWs)   bands (ev):

   -16.6796  -9.5733  -9.5654  -9.5067  -9.5036  -9.4148  -9.4026  -9.3839
    -9.3735  -9.3608  -9.3596  -9.3119  -9.3032  -9.2586  -9.2574  -9.2152
    -9.2061  -9.0966  -9.0589  -9.0468  -9.0423  -9.0358  -9.0250  -9.0235
    -9.0194  -8.9349  -8.9264  -8.9249  -8.8942  -8.8904  -8.8770  -8.8652
    -8.8633  -8.8136  -8.7906  -8.7779  -8.7713  -8.7289  -8.7156  -8.7052
    -8.6849  -8.6625  -8.6538  -8.6246  -8.6176  -8.5983  -8.5921  -8.5858
    -8.5738  -8.5732  -8.5437  -8.5234  -8.4989  -8.4674  -8.3924  -8.3818
    -8.3784  -8.3660  -8.3535  -8.2370  -8.1973  -6.5522  -6.4869  -4.9235
    -4.7094  -3.5208  -3.4205  -2.8125  -2.5972  -2.3472  -2.0031  -1.2953
    -1.1245  -0.6078   0.6781   1.0220   1.1063   1.6506   2.2234   2.3040
     2.5445   2.7722   3.5992   3.6498   3.8472

          k = 0.0266-0.0154 0.0000 ( 21640 PWs)   bands (ev):

   -16.6824  -9.7434  -9.7162  -9.7127  -9.6015  -9.5978  -9.5886  -9.5813
    -9.4889  -9.4756  -9.4612  -9.3663  -9.3508  -9.3109  -9.2970  -9.2281
    -9.1986  -9.1742  -9.1713  -9.1547  -9.1308  -9.1277  -9.1081  -9.0858
    -9.0565  -9.0491  -9.0380  -9.0264  -8.9630  -8.9380  -8.8993  -8.7856
    -8.7396  -8.6771  -8.6742  -8.6600  -8.6550  -8.6469  -8.6326  -8.6098
    -8.5630  -8.5562  -8.5456  -8.5252  -8.5206  -8.5043  -8.4770  -8.4353
    -8.4263  -8.4157  -8.3905  -8.3573  -8.3501  -8.3411  -8.3323  -8.3298
    -8.3058  -8.2921  -8.1772  -8.1578  -8.1338  -7.8624  -6.0432  -3.8447
    -3.3170  -2.9575  -2.8777  -2.6350  -2.3069  -1.9654  -1.6255  -0.9690
    -0.8598  -0.6215  -0.5532  -0.3114   0.2120   0.5646   0.7626   1.1517
     1.6499   1.8624   2.3026   2.7813   3.2667

          k = 0.0266 0.0154 0.0000 ( 21640 PWs)   bands (ev):

   -16.6824  -9.7434  -9.7162  -9.7126  -9.6014  -9.5978  -9.5886  -9.5813
    -9.4890  -9.4755  -9.4612  -9.3663  -9.3508  -9.3109  -9.2970  -9.2281
    -9.1986  -9.1742  -9.1712  -9.1547  -9.1309  -9.1277  -9.1081  -9.0858
    -9.0565  -9.0491  -9.0380  -9.0263  -8.9630  -8.9380  -8.8993  -8.7856
    -8.7396  -8.6770  -8.6743  -8.6600  -8.6550  -8.6470  -8.6325  -8.6098
    -8.5630  -8.5562  -8.5457  -8.5252  -8.5206  -8.5043  -8.4769  -8.4352
    -8.4263  -8.4157  -8.3905  -8.3573  -8.3500  -8.3412  -8.3322  -8.3297
    -8.3059  -8.2921  -8.1772  -8.1579  -8.1338  -7.8624  -6.0432  -3.8447
    -3.3170  -2.9575  -2.8777  -2.6351  -2.3069  -1.9654  -1.6255  -0.9690
    -0.8598  -0.6215  -0.5532  -0.3114   0.2120   0.5646   0.7626   1.1518
     1.6499   1.8624   2.3026   2.7813   3.2667

          k = 0.0266 0.0462 0.0000 ( 21609 PWs)   bands (ev):

   -16.6810  -9.6631  -9.6612  -9.6043  -9.5359  -9.5302  -9.5265  -9.5144
    -9.4267  -9.4182  -9.3894  -9.3371  -9.3012  -9.2860  -9.2789  -9.1954
    -9.1753  -9.1522  -9.1449  -9.1254  -9.1166  -9.0937  -9.0858  -9.0579
    -9.0136  -8.9934  -8.9857  -8.9829  -8.9727  -8.9389  -8.8528  -8.8257
    -8.7744  -8.7631  -8.7551  -8.7339  -8.7087  -8.6786  -8.6657  -8.6481
    -8.6240  -8.6079  -8.5787  -8.5683  -8.5532  -8.5388  -8.5092  -8.4888
    -8.4724  -8.4677  -8.4481  -8.4311  -8.4150  -8.3987  -8.3724  -8.3679
    -8.3601  -8.3073  -8.2643  -8.2154  -8.2041  -7.5198  -5.7284  -4.4899
    -4.4741  -3.2933  -3.1015  -2.9679  -2.1588  -1.9185  -1.6064  -1.2773
    -1.1230  -0.4032  -0.0754   0.1876   0.5030   0.9735   1.5169   1.6669
     2.4508   2.7124   2.8976   3.0214   3.4580

          k = 0.0266-0.1077 0.0000 ( 21571 PWs)   bands (ev):

   -16.6796  -9.5729  -9.5176  -9.5138  -9.4852  -9.4412  -9.4110  -9.3941
    -9.3796  -9.3572  -9.3504  -9.3478  -9.3061  -9.2684  -9.2194  -9.2001
    -9.1407  -9.1121  -9.0913  -9.0493  -9.0358  -9.0276  -9.0228  -9.0139
    -9.0080  -8.9879  -8.9645  -8.9594  -8.9386  -8.9211  -8.8834  -8.8571
    -8.8316  -8.8145  -8.7925  -8.7879  -8.7785  -8.7505  -8.7021  -8.6961
    -8.6848  -8.6691  -8.6424  -8.6308  -8.6116  -8.5919  -8.5831  -8.5696
    -8.5549  -8.5413  -8.5223  -8.4963  -8.4876  -8.4367  -8.4096  -8.3937
    -8.3854  -8.3669  -8.3383  -8.2666  -8.2256  -6.8469  -5.8313  -5.1235
    -4.7864  -4.2139  -3.3724  -2.8128  -2.3536  -2.0252  -1.6654  -1.3170
    -0.9542  -0.0242   0.1532   0.3448   0.9081   1.6997   1.9378   2.3019
     2.5714   2.9564   3.2329   3.6376   3.8164

          k = 0.0266-0.0769 0.0000 ( 21571 PWs)   bands (ev):

   -16.6796  -9.5729  -9.5176  -9.5138  -9.4852  -9.4412  -9.4110  -9.3941
    -9.3796  -9.3573  -9.3504  -9.3478  -9.3061  -9.2685  -9.2194  -9.2001
    -9.1407  -9.1121  -9.0913  -9.0493  -9.0358  -9.0276  -9.0228  -9.0139
    -9.0080  -8.9879  -8.9644  -8.9594  -8.9386  -8.9211  -8.8834  -8.8570
    -8.8316  -8.8146  -8.7924  -8.7880  -8.7785  -8.7505  -8.7021  -8.6961
    -8.6848  -8.6691  -8.6425  -8.6308  -8.6116  -8.5919  -8.5831  -8.5696
    -8.5549  -8.5413  -8.5223  -8.4963  -8.4876  -8.4367  -8.4096  -8.3937
    -8.3854  -8.3669  -8.3383  -8.2666  -8.2256  -6.8469  -5.8313  -5.1235
    -4.7864  -4.2139  -3.3724  -2.8128  -2.3536  -2.0252  -1.6654  -1.3170
    -0.9543  -0.0242   0.1532   0.3447   0.9081   1.6997   1.9378   2.3020
     2.5714   2.9564   3.2328   3.6376   3.8165

          k = 0.0266-0.0462 0.0000 ( 21609 PWs)   bands (ev):

   -16.6810  -9.6631  -9.6612  -9.6043  -9.5359  -9.5302  -9.5265  -9.5144
    -9.4266  -9.4183  -9.3894  -9.3371  -9.3012  -9.2860  -9.2789  -9.1954
    -9.1753  -9.1522  -9.1449  -9.1254  -9.1166  -9.0937  -9.0858  -9.0579
    -9.0136  -8.9934  -8.9857  -8.9829  -8.9727  -8.9389  -8.8528  -8.8257
    -8.7744  -8.7631  -8.7552  -8.7339  -8.7086  -8.6786  -8.6658  -8.6481
    -8.6240  -8.6079  -8.5787  -8.5682  -8.5533  -8.5388  -8.5092  -8.4888
    -8.4724  -8.4677  -8.4481  -8.4312  -8.4150  -8.3986  -8.3724  -8.3679
    -8.3601  -8.3073  -8.2643  -8.2154  -8.2041  -7.5198  -5.7284  -4.4899
    -4.4741  -3.2933  -3.1015  -2.9679  -2.1588  -1.9185  -1.6064  -1.2773
    -1.1230  -0.4032  -0.0754   0.1876   0.5030   0.9735   1.5169   1.6669
     2.4508   2.7124   2.8976   3.0214   3.4580

          k = 0.0533-0.0308 0.0000 ( 21582 PWs)   bands (ev):

   -16.6805  -9.6671  -9.5824  -9.5780  -9.5175  -9.5121  -9.5068  -9.4853
    -9.4078  -9.3966  -9.3780  -9.3286  -9.2934  -9.2577  -9.2571  -9.2264
    -9.1695  -9.1437  -9.1407  -9.1197  -9.0811  -9.0571  -9.0536  -9.0445
    -9.0060  -8.9933  -8.9720  -8.9652  -8.9539  -8.9329  -8.8432  -8.8269
    -8.8113  -8.8079  -8.7501  -8.7171  -8.7096  -8.7048  -8.6977  -8.6743
    -8.6316  -8.6244  -8.6045  -8.5861  -8.5629  -8.5513  -8.5461  -8.5410
    -8.5141  -8.5039  -8.4836  -8.4548  -8.4287  -8.3915  -8.3816  -8.3671
    -8.3670  -8.3537  -8.2903  -8.2363  -8.1882  -7.3558  -5.5854  -5.3242
    -3.8152  -3.3765  -3.2764  -3.0150  -2.5142  -2.1629  -1.8925  -1.1888
    -1.0598  -0.3547   0.1845   0.7099   0.7299   1.0714   1.3002   2.2920
     2.3694   2.6862   2.9135   3.2573   3.9237

          k = 0.0533 0.0000 0.0000 ( 21609 PWs)   bands (ev):

   -16.6810  -9.6631  -9.6612  -9.6043  -9.5359  -9.5302  -9.5265  -9.5144
    -9.4266  -9.4182  -9.3894  -9.3371  -9.3012  -9.2860  -9.2789  -9.1954
    -9.1753  -9.1522  -9.1449  -9.1254  -9.1166  -9.0937  -9.0858  -9.0579
    -9.0136  -8.9934  -8.9857  -8.9829  -8.9727  -8.9389  -8.8528  -8.8257
    -8.7744  -8.7631  -8.7552  -8.7339  -8.7087  -8.6786  -8.6658  -8.6481
    -8.6240  -8.6079  -8.5787  -8.5682  -8.5533  -8.5388  -8.5092  -8.4888
    -8.4724  -8.4677  -8.4481  -8.4311  -8.4150  -8.3987  -8.3724  -8.3679
    -8.3601  -8.3073  -8.2643  -8.2154  -8.2041  -7.5198  -5.7284  -4.4899
    -4.4741  -3.2933  -3.1015  -2.9679  -2.1588  -1.9185  -1.6064  -1.2773
    -1.1230  -0.4032  -0.0754   0.1876   0.5030   0.9735   1.5169   1.6669
     2.4508   2.7124   2.8976   3.0214   3.4580

          k = 0.0533 0.0308 0.0000 ( 21582 PWs)   bands (ev):

   -16.6805  -9.6671  -9.5824  -9.5780  -9.5175  -9.5120  -9.5068  -9.4853
    -9.4079  -9.3965  -9.3781  -9.3286  -9.2934  -9.2577  -9.2571  -9.2264
    -9.1695  -9.1437  -9.1407  -9.1196  -9.0811  -9.0570  -9.0536  -9.0445
    -9.0061  -8.9933  -8.9720  -8.9651  -8.9539  -8.9330  -8.8432  -8.8270
    -8.8113  -8.8079  -8.7501  -8.7172  -8.7097  -8.7048  -8.6975  -8.6743
    -8.6316  -8.6245  -8.6044  -8.5860  -8.5630  -8.5512  -8.5462  -8.5410
    -8.5141  -8.5039  -8.4837  -8.4548  -8.4286  -8.3915  -8.3815  -8.3671
    -8.3670  -8.3538  -8.2903  -8.2363  -8.1883  -7.3558  -5.5854  -5.3242
    -3.8152  -3.3765  -3.2764  -3.0150  -2.5142  -2.1629  -1.8925  -1.1888
    -1.0598  -0.3547   0.1845   0.7099   0.7298   1.0714   1.3002   2.2920
     2.3694   2.6862   2.9135   3.2573   3.9237

          k = 0.0533-0.1231 0.0000 ( 21571 PWs)   bands (ev):

   -16.6796  -9.5729  -9.5176  -9.5138  -9.4852  -9.4412  -9.4110  -9.3941
    -9.3796  -9.3572  -9.3504  -9.3478  -9.3061  -9.2685  -9.2194  -9.2001
    -9.1407  -9.1121  -9.0913  -9.0493  -9.0358  -9.0276  -9.0228  -9.0139
    -9.0080  -8.9879  -8.9645  -8.9594  -8.9386  -8.9210  -8.8834  -8.8571
    -8.8315  -8.8146  -8.7925  -8.7879  -8.7785  -8.7506  -8.7021  -8.6961
    -8.6848  -8.6691  -8.6424  -8.6308  -8.6116  -8.5919  -8.5831  -8.5696
    -8.5549  -8.5413  -8.5224  -8.4963  -8.4876  -8.4366  -8.4096  -8.3937
    -8.3854  -8.3669  -8.3383  -8.2666  -8.2257  -6.8469  -5.8313  -5.1236
    -4.7864  -4.2139  -3.3724  -2.8128  -2.3536  -2.0252  -1.6654  -1.3170
    -0.9542  -0.0242   0.1532   0.3448   0.9081   1.6998   1.9378   2.3019
     2.5714   2.9564   3.2328   3.6376   3.8165

          k = 0.0533-0.0923 0.0000 ( 21606 PWs)   bands (ev):

   -16.6792  -9.4505  -9.4494  -9.4447  -9.4413  -9.4261  -9.4049  -9.4037
    -9.3973  -9.3544  -9.3484  -9.3460  -9.3452  -9.1500  -9.1487  -9.1324
    -9.1250  -9.1226  -9.0928  -9.0912  -9.0878  -9.0300  -9.0270  -9.0256
    -8.9734  -8.9556  -8.9407  -8.9337  -8.9312  -8.9288  -8.9273  -8.8502
    -8.8499  -8.8394  -8.8269  -8.8258  -8.8022  -8.7850  -8.7598  -8.7420
    -8.7039  -8.6580  -8.6446  -8.6363  -8.6236  -8.6230  -8.6051  -8.5884
    -8.5635  -8.5567  -8.5402  -8.5227  -8.4600  -8.4510  -8.4272  -8.4112
    -8.3861  -8.3833  -8.3667  -8.2981  -8.2617  -6.0185  -6.0008  -5.9332
    -4.4547  -4.4132  -4.2025  -2.5980  -2.4547  -2.0687  -1.2532  -1.1419
    -0.4951   0.0191   0.1618   0.2544   1.3790   1.4400   1.6724   1.9495
     2.1471   2.5395   3.9586   4.0092   4.1265

          k = 0.0533-0.0615 0.0000 ( 21571 PWs)   bands (ev):

   -16.6796  -9.5729  -9.5175  -9.5138  -9.4852  -9.4412  -9.4110  -9.3941
    -9.3796  -9.3573  -9.3504  -9.3478  -9.3061  -9.2685  -9.2194  -9.2001
    -9.1407  -9.1121  -9.0913  -9.0493  -9.0358  -9.0276  -9.0228  -9.0140
    -9.0079  -8.9879  -8.9644  -8.9594  -8.9386  -8.9211  -8.8834  -8.8571
    -8.8316  -8.8146  -8.7924  -8.7880  -8.7785  -8.7505  -8.7021  -8.6961
    -8.6849  -8.6691  -8.6424  -8.6308  -8.6116  -8.5920  -8.5831  -8.5696
    -8.5549  -8.5413  -8.5223  -8.4963  -8.4876  -8.4367  -8.4096  -8.3937
    -8.3854  -8.3669  -8.3383  -8.2666  -8.2256  -6.8469  -5.8313  -5.1235
    -4.7864  -4.2139  -3.3724  -2.8128  -2.3536  -2.0252  -1.6654  -1.3170
    -0.9543  -0.0242   0.1532   0.3447   0.9081   1.6997   1.9378   2.3020
     2.5714   2.9564   3.2329   3.6376   3.8165

          k =-0.0799 0.0462 0.0000 ( 21576 PWs)   bands (ev):

   -16.6796  -9.5733  -9.5654  -9.5067  -9.5036  -9.4148  -9.4025  -9.3840
    -9.3735  -9.3607  -9.3596  -9.3119  -9.3032  -9.2586  -9.2574  -9.2153
    -9.2060  -9.0966  -9.0590  -9.0467  -9.0423  -9.0358  -9.0250  -9.0235
    -9.0193  -8.9349  -8.9263  -8.9249  -8.8942  -8.8904  -8.8770  -8.8652
    -8.8633  -8.8135  -8.7906  -8.7780  -8.7711  -8.7291  -8.7155  -8.7052
    -8.6849  -8.6626  -8.6536  -8.6246  -8.6176  -8.5985  -8.5922  -8.5856
    -8.5737  -8.5732  -8.5437  -8.5234  -8.4989  -8.4674  -8.3925  -8.3818
    -8.3786  -8.3659  -8.3535  -8.2370  -8.1973  -6.5521  -6.4869  -4.9235
    -4.7095  -3.5208  -3.4205  -2.8124  -2.5972  -2.3472  -2.0031  -1.2953
    -1.1245  -0.6078   0.6781   1.0220   1.1063   1.6506   2.2235   2.3040
     2.5445   2.7723   3.5993   3.6498   3.8472

          k =-0.0799 0.0769 0.0000 ( 21571 PWs)   bands (ev):

   -16.6796  -9.5729  -9.5175  -9.5138  -9.4852  -9.4412  -9.4110  -9.3941
    -9.3795  -9.3572  -9.3504  -9.3478  -9.3061  -9.2684  -9.2194  -9.2001
    -9.1407  -9.1121  -9.0913  -9.0493  -9.0358  -9.0276  -9.0228  -9.0140
    -9.0079  -8.9879  -8.9645  -8.9594  -8.9386  -8.9211  -8.8834  -8.8571
    -8.8316  -8.8145  -8.7925  -8.7880  -8.7785  -8.7505  -8.7021  -8.6961
    -8.6848  -8.6691  -8.6424  -8.6308  -8.6116  -8.5920  -8.5831  -8.5696
    -8.5549  -8.5413  -8.5223  -8.4963  -8.4876  -8.4367  -8.4096  -8.3936
    -8.3853  -8.3669  -8.3383  -8.2666  -8.2256  -6.8469  -5.8313  -5.1235
    -4.7864  -4.2139  -3.3724  -2.8128  -2.3536  -2.0252  -1.6654  -1.3170
    -0.9542  -0.0242   0.1532   0.3447   0.9081   1.6997   1.9378   2.3019
     2.5714   2.9564   3.2329   3.6376   3.8164

          k =-0.0799 0.1077 0.0000 ( 21571 PWs)   bands (ev):

   -16.6796  -9.5729  -9.5176  -9.5138  -9.4852  -9.4412  -9.4110  -9.3941
    -9.3796  -9.3572  -9.3504  -9.3478  -9.3061  -9.2685  -9.2194  -9.2001
    -9.1407  -9.1121  -9.0913  -9.0493  -9.0358  -9.0276  -9.0228  -9.0139
    -9.0080  -8.9879  -8.9644  -8.9594  -8.9386  -8.9211  -8.8834  -8.8570
    -8.8315  -8.8146  -8.7924  -8.7880  -8.7785  -8.7505  -8.7021  -8.6961
    -8.6848  -8.6691  -8.6425  -8.6308  -8.6116  -8.5919  -8.5832  -8.5696
    -8.5549  -8.5413  -8.5224  -8.4963  -8.4876  -8.4366  -8.4096  -8.3937
    -8.3854  -8.3669  -8.3383  -8.2666  -8.2257  -6.8469  -5.8313  -5.1236
    -4.7864  -4.2139  -3.3724  -2.8128  -2.3536  -2.0252  -1.6654  -1.3170
    -0.9543  -0.0242   0.1532   0.3447   0.9081   1.6997   1.9378   2.3019
     2.5714   2.9564   3.2329   3.6376   3.8164

          k =-0.0799-0.0462 0.0000 ( 21576 PWs)   bands (ev):

   -16.6796  -9.5733  -9.5654  -9.5067  -9.5036  -9.4147  -9.4026  -9.3839
    -9.3735  -9.3608  -9.3596  -9.3119  -9.3032  -9.2586  -9.2574  -9.2151
    -9.2062  -9.0966  -9.0588  -9.0468  -9.0423  -9.0357  -9.0250  -9.0234
    -9.0194  -8.9349  -8.9264  -8.9248  -8.8943  -8.8904  -8.8770  -8.8652
    -8.8633  -8.8136  -8.7905  -8.7778  -8.7714  -8.7289  -8.7157  -8.7052
    -8.6849  -8.6624  -8.6539  -8.6245  -8.6177  -8.5983  -8.5921  -8.5858
    -8.5739  -8.5731  -8.5436  -8.5235  -8.4989  -8.4674  -8.3924  -8.3818
    -8.3784  -8.3661  -8.3536  -8.2370  -8.1973  -6.5522  -6.4869  -4.9235
    -4.7094  -3.5208  -3.4205  -2.8125  -2.5972  -2.3472  -2.0031  -1.2953
    -1.1245  -0.6078   0.6781   1.0220   1.1063   1.6506   2.2235   2.3040
     2.5445   2.7722   3.5992   3.6498   3.8472

     the Fermi energy is     0.1527 ev

!    total energy              =   -1425.51997470 Ry
     Harris-Foulkes estimate   =   -1425.51996117 Ry
     estimated scf accuracy    <       0.00000550 Ry

     The total energy is the sum of the following terms:

     one-electron contribution =   -9132.59191386 Ry
     hartree contribution      =    4660.21511699 Ry
     xc contribution           =    -497.27431225 Ry
     ewald contribution        =    3544.16223191 Ry
     electric field correction =       0.00055257 Ry
     smearing contrib. (-TS)   =      -0.03165005 Ry

     convergence has been achieved in  14 iterations
 
 BEEF-vdW xc energy contributions
           1 :   -435.596284165382     
           2 :    398.243340001225     
           3 :   -335.287029654692     
           4 :    264.664414173273     
           5 :   -202.846548804911     
           6 :    158.996633298017     
           7 :   -133.295973998571     
           8 :    119.510117490828     
           9 :   -109.802641796552     
          10 :    98.9918594651396     
          11 :   -86.2353539358900     
          12 :    73.8713615032402     
          13 :   -64.7603716661751     
          14 :    60.0370209138885     
          15 :   -58.5275395710221     
          16 :    57.8039904936166     
          17 :   -55.8562623157870     
          18 :    52.2029226587161     
          19 :   -47.8479455948784     
          20 :    44.3190769921401     
          21 :   -42.5571694569149     
          22 :    42.3794927866325     
          23 :   -42.7490494992982     
          24 :    42.5359639286905     
          25 :   -41.2106832257645     
          26 :    39.0541361604468     
          27 :   -36.8455910709004     
          28 :    35.3094522286490     
          29 :   -34.6931716927447     
          30 :    34.7046339353714     
          31 :   -39.3474716157163     
          32 :   -28.6838416723090     

     Forces acting on atoms (Ry/au):


     negative rho (up, down):  2.665E-01 0.000E+00
     atom    1 type  1   force =     0.00004755    0.00007147   -0.01772534
     atom    2 type  1   force =     0.00000937   -0.00045206   -0.02087331
     atom    3 type  1   force =    -0.00050905    0.00010572   -0.02083257
     atom    4 type  1   force =     0.00059139    0.00025762   -0.02083136
     atom    5 type  1   force =     0.00184444   -0.00105079   -0.00018321
     atom    6 type  1   force =    -0.00184874   -0.00108221   -0.00027347
     atom    7 type  1   force =     0.00000792    0.00001640    0.00436618
     atom    8 type  1   force =     0.00000439    0.00214167   -0.00014702
     atom    9 type  1   force =    -0.00638843   -0.00366396    0.03376795
     atom   10 type  1   force =     0.00629980   -0.00364859    0.03373679
     atom   11 type  1   force =    -0.00000325    0.00732489    0.03370327
     atom   12 type  1   force =    -0.00004549   -0.00002119    0.01406344
     atom   13 type  2   force =    -0.00000989    0.00000103   -0.03877134

     Total force =     0.072638     Total SCF correction =     0.002813


     entering subroutine stress ...


     negative rho (up, down):  2.665E-01 0.000E+00
          total   stress  (Ry/bohr**3)                   (kbar)     P=    3.58
   0.00000387  -0.00000001  -0.00000000          0.57     -0.00     -0.00
  -0.00000001   0.00000388   0.00000000         -0.00      0.57      0.00
  -0.00000000   0.00000000   0.00006516         -0.00      0.00      9.59


     BFGS Geometry Optimization

     number of scf cycles    =   1
     number of bfgs steps    =   0

     energy   new            =   -1425.5199747014 Ry

     new trust radius        =       0.0387713462 bohr
     new conv_thr            =       0.0000099958 Ry


ATOMIC_POSITIONS (crystal)
Cd1      0.166666667   0.166666667   0.398302599    0   0   0
Cd1      0.666666667   0.166666667   0.398302599    0   0   0
Cd1      0.166666667   0.666666667   0.398302599    0   0   0
Cd1      0.666666667   0.666666667   0.398302599    0   0   0
Cd1      0.833333333   0.333333333   0.500000000    0   0   0
Cd1      0.333333333   0.333333333   0.500000000    0   0   0
Cd1      0.833333333   0.833333333   0.500000000    0   0   0
Cd1      0.333333333   0.833333333   0.500000000    0   0   0
Cd1     -0.000361548  -0.000357971   0.602409137
Cd1      0.500711270  -0.000356471   0.602408480
Cd1     -0.000358099   0.500715647   0.602407774
Cd1      0.499997186   0.499997930   0.601993820
O1       0.166665779   0.166666767   0.655248512



     Writing output data file calc.save
     Check: negative starting charge=   -0.258035
     NEW-OLD atomic charge density approx. for the potential
     Check: negative starting charge=   -0.259595

     negative rho (up, down):  2.681E-01 0.000E+00
 
     Adding external electric field

     Computed dipole along edir(3) : 
        Dipole               -0.4447 Ry au,         -1.1304 Debye
        Dipole field         -0.0010 Ry au
 
        Potential amp.        0.0901 Ry
        Total length         46.2584 bohr
 

     total cpu time spent up to now is      293.7 secs

     Self-consistent Calculation

     iteration #  1     ecut=    36.75 Ry     beta=0.30
     Davidson diagonalization with overlap
     ethr =  1.00E-06,  avg # of iterations =  5.0

     negative rho (up, down):  2.681E-01 0.000E+00
 
     Adding external electric field

     Computed dipole along edir(3) : 
        Dipole               -0.6949 Ry au,         -1.7663 Debye
        Dipole field         -0.0015 Ry au
 
        Potential amp.        0.1408 Ry
        Total length         46.2584 bohr
 

     total cpu time spent up to now is      323.9 secs

     total energy              =   -1425.52135370 Ry
     Harris-Foulkes estimate   =   -1425.52465961 Ry
     estimated scf accuracy    <       0.00801308 Ry

     iteration #  2     ecut=    36.75 Ry     beta=0.30
     Davidson diagonalization with overlap
     ethr =  5.34E-06,  avg # of iterations =  4.3

     negative rho (up, down):  2.681E-01 0.000E+00
 
     Adding external electric field

     Computed dipole along edir(3) : 
        Dipole               -0.4553 Ry au,         -1.1573 Debye
        Dipole field         -0.0010 Ry au
 
        Potential amp.        0.0922 Ry
        Total length         46.2584 bohr
 

     total cpu time spent up to now is      341.9 secs

     total energy              =   -1425.51318170 Ry
     Harris-Foulkes estimate   =   -1425.53592257 Ry
     estimated scf accuracy    <       0.27858495 Ry

     iteration #  3     ecut=    36.75 Ry     beta=0.30
     Davidson diagonalization with overlap
     ethr =  5.34E-06,  avg # of iterations =  4.2

     negative rho (up, down):  2.681E-01 0.000E+00
 
     Adding external electric field

     Computed dipole along edir(3) : 
        Dipole               -0.4751 Ry au,         -1.2075 Debye
        Dipole field         -0.0010 Ry au
 
        Potential amp.        0.0962 Ry
        Total length         46.2584 bohr
 

     total cpu time spent up to now is      358.5 secs

     total energy              =   -1425.52453883 Ry
     Harris-Foulkes estimate   =   -1425.52486765 Ry
     estimated scf accuracy    <       0.00229169 Ry

     iteration #  4     ecut=    36.75 Ry     beta=0.30
     Davidson diagonalization with overlap
     ethr =  1.53E-06,  avg # of iterations =  2.6

     negative rho (up, down):  2.681E-01 0.000E+00
 
     Adding external electric field

     Computed dipole along edir(3) : 
        Dipole               -0.4695 Ry au,         -1.1934 Debye
        Dipole field         -0.0010 Ry au
 
        Potential amp.        0.0951 Ry
        Total length         46.2584 bohr
 

     total cpu time spent up to now is      373.4 secs

     total energy              =   -1425.52472488 Ry
     Harris-Foulkes estimate   =   -1425.52475715 Ry
     estimated scf accuracy    <       0.00009901 Ry

     iteration #  5     ecut=    36.75 Ry     beta=0.30
     Davidson diagonalization with overlap
     ethr =  6.60E-08,  avg # of iterations =  2.4

     negative rho (up, down):  2.681E-01 0.000E+00
 
     Adding external electric field

     Computed dipole along edir(3) : 
        Dipole               -0.4682 Ry au,         -1.1900 Debye
        Dipole field         -0.0010 Ry au
 
        Potential amp.        0.0948 Ry
        Total length         46.2584 bohr
 

     total cpu time spent up to now is      387.9 secs

     total energy              =   -1425.52473510 Ry
     Harris-Foulkes estimate   =   -1425.52474080 Ry
     estimated scf accuracy    <       0.00002067 Ry

     iteration #  6     ecut=    36.75 Ry     beta=0.30
     Davidson diagonalization with overlap
     ethr =  1.38E-08,  avg # of iterations =  2.6

     negative rho (up, down):  2.681E-01 0.000E+00

     negative rho (up, down):  2.681E-01 0.000E+00

     negative rho (up, down):  2.681E-01 0.000E+00

     negative rho (up, down):  2.681E-01 0.000E+00

     negative rho (up, down):  2.681E-01 0.000E+00

     negative rho (up, down):  2.681E-01 0.000E+00

     negative rho (up, down):  2.681E-01 0.000E+00

     negative rho (up, down):  2.681E-01 0.000E+00

     negative rho (up, down):  2.681E-01 0.000E+00

     negative rho (up, down):  2.681E-01 0.000E+00

     negative rho (up, down):  2.681E-01 0.000E+00

     negative rho (up, down):  2.681E-01 0.000E+00

     negative rho (up, down):  2.681E-01 0.000E+00

     negative rho (up, down):  2.681E-01 0.000E+00

     negative rho (up, down):  2.681E-01 0.000E+00

     negative rho (up, down):  2.681E-01 0.000E+00

     negative rho (up, down):  2.681E-01 0.000E+00

     negative rho (up, down):  2.681E-01 0.000E+00

     negative rho (up, down):  2.681E-01 0.000E+00

     negative rho (up, down):  2.681E-01 0.000E+00

     negative rho (up, down):  2.681E-01 0.000E+00

     negative rho (up, down):  2.681E-01 0.000E+00

     negative rho (up, down):  2.681E-01 0.000E+00

     negative rho (up, down):  2.681E-01 0.000E+00

     negative rho (up, down):  2.681E-01 0.000E+00

     negative rho (up, down):  2.681E-01 0.000E+00

     negative rho (up, down):  2.681E-01 0.000E+00

     negative rho (up, down):  2.681E-01 0.000E+00

     negative rho (up, down):  2.681E-01 0.000E+00

     negative rho (up, down):  2.681E-01 0.000E+00

     negative rho (up, down):  2.681E-01 0.000E+00

     negative rho (up, down):  2.681E-01 0.000E+00

     negative rho (up, down):  2.681E-01 0.000E+00

     negative rho (up, down):  2.681E-01 0.000E+00

     negative rho (up, down):  2.681E-01 0.000E+00
 
     Adding external electric field

     Computed dipole along edir(3) : 
        Dipole               -0.4597 Ry au,         -1.1683 Debye
        Dipole field         -0.0010 Ry au
 
        Potential amp.        0.0931 Ry
        Total length         46.2584 bohr
 

     total cpu time spent up to now is      423.9 secs

     End of self-consistent calculation

          k = 0.0000 0.0000 0.0000 ( 21643 PWs)   bands (ev):

   -16.7649  -9.7377  -9.7377  -9.7337  -9.5947  -9.5947  -9.5909  -9.5863
    -9.4915  -9.4915  -9.4785  -9.3658  -9.3658  -9.2983  -9.2703  -9.2085
    -9.2085  -9.1620  -9.1614  -9.1614  -9.0761  -9.0658  -9.0658  -9.0557
    -9.0519  -9.0519  -9.0425  -9.0425  -8.9160  -8.9025  -8.9025  -8.7187
    -8.7187  -8.6322  -8.6322  -8.6110  -8.5785  -8.5680  -8.5680  -8.5181
    -8.5181  -8.5107  -8.5107  -8.4521  -8.4521  -8.4419  -8.4372  -8.3894
    -8.3894  -8.3499  -8.3262  -8.3262  -8.2718  -8.2613  -8.2612  -8.2593
    -8.2592  -8.2516  -8.0833  -8.0833  -8.0434  -8.0097  -6.1686  -3.3742
    -2.6213  -2.6213  -2.3843  -2.0266  -2.0266  -1.9205  -1.5805  -1.5805
    -1.4248  -0.7056  -0.4624  -0.4624  -0.3972   0.2464   0.2464   0.8750
     1.7650   1.7650   2.0375   2.6049   2.9400

          k = 0.0000 0.0308 0.0000 ( 21640 PWs)   bands (ev):

   -16.7639  -9.7085  -9.6809  -9.6779  -9.5664  -9.5622  -9.5528  -9.5469
    -9.4589  -9.4447  -9.4324  -9.3326  -9.3175  -9.2780  -9.2639  -9.1977
    -9.1644  -9.1461  -9.1412  -9.1259  -9.0979  -9.0940  -9.0788  -9.0508
    -9.0271  -9.0198  -9.0070  -8.9947  -8.9309  -8.9012  -8.8679  -8.7577
    -8.7121  -8.6482  -8.6459  -8.6306  -8.6255  -8.6169  -8.6036  -8.5818
    -8.5348  -8.5291  -8.5176  -8.4959  -8.4883  -8.4724  -8.4458  -8.4074
    -8.4013  -8.3890  -8.3648  -8.3308  -8.3229  -8.3152  -8.3047  -8.3029
    -8.2784  -8.2621  -8.1447  -8.1259  -8.0986  -7.8187  -6.0042  -3.8127
    -3.3020  -2.9567  -2.8560  -2.6351  -2.3213  -1.9820  -1.6111  -0.9374
    -0.8247  -0.5879  -0.5125  -0.2956   0.2459   0.5845   0.7863   1.1823
     1.6767   1.8939   2.3463   2.7930   3.2907

          k = 0.0000 0.0615 0.0000 ( 21582 PWs)   bands (ev):

   -16.7620  -9.6326  -9.5462  -9.5425  -9.4836  -9.4782  -9.4719  -9.4511
    -9.3753  -9.3626  -9.3462  -9.2943  -9.2611  -9.2242  -9.2240  -9.1967
    -9.1367  -9.1136  -9.1104  -9.0898  -9.0468  -9.0270  -9.0199  -9.0151
    -8.9754  -8.9608  -8.9422  -8.9337  -8.9254  -8.9006  -8.8144  -8.7951
    -8.7795  -8.7794  -8.7211  -8.6870  -8.6791  -8.6757  -8.6706  -8.6467
    -8.6024  -8.5963  -8.5759  -8.5569  -8.5365  -8.5236  -8.5177  -8.5120
    -8.4859  -8.4763  -8.4581  -8.4253  -8.3996  -8.3668  -8.3492  -8.3405
    -8.3382  -8.3283  -8.2583  -8.2020  -8.1560  -7.3133  -5.5521  -5.2829
    -3.8010  -3.3602  -3.2407  -3.0013  -2.5383  -2.1684  -1.8969  -1.1781
    -1.0318  -0.3327   0.1986   0.7480   0.7641   1.0928   1.3269   2.3150
     2.4022   2.7223   2.9505   3.2696   3.9423

          k = 0.0000-0.0923 0.0000 ( 21576 PWs)   bands (ev):

   -16.7610  -9.5394  -9.5309  -9.4705  -9.4673  -9.3815  -9.3702  -9.3488
    -9.3386  -9.3291  -9.3280  -9.2760  -9.2659  -9.2221  -9.2211  -9.1856
    -9.1772  -9.0679  -9.0294  -9.0179  -9.0130  -9.0040  -8.9906  -8.9891
    -8.9885  -8.9041  -8.8984  -8.8965  -8.8661  -8.8587  -8.8437  -8.8336
    -8.8320  -8.7851  -8.7601  -8.7498  -8.7440  -8.7009  -8.6877  -8.6754
    -8.6540  -8.6366  -8.6283  -8.5950  -8.5886  -8.5685  -8.5622  -8.5602
    -8.5457  -8.5440  -8.5185  -8.4948  -8.4685  -8.4384  -8.3598  -8.3544
    -8.3488  -8.3409  -8.3284  -8.2015  -8.1657  -6.5149  -6.4426  -4.9042
    -4.6678  -3.5020  -3.3834  -2.8306  -2.6215  -2.3291  -1.9883  -1.3076
    -1.0982  -0.5864   0.7014   1.0449   1.1159   1.6703   2.2619   2.3404
     2.5826   2.8134   3.6205   3.6699   3.8546

          k = 0.0266-0.0154 0.0000 ( 21640 PWs)   bands (ev):

   -16.7639  -9.7085  -9.6809  -9.6779  -9.5664  -9.5622  -9.5528  -9.5469
    -9.4589  -9.4447  -9.4324  -9.3326  -9.3175  -9.2780  -9.2639  -9.1977
    -9.1644  -9.1461  -9.1412  -9.1259  -9.0979  -9.0940  -9.0788  -9.0508
    -9.0271  -9.0198  -9.0070  -8.9947  -8.9309  -8.9012  -8.8679  -8.7577
    -8.7121  -8.6482  -8.6460  -8.6306  -8.6255  -8.6169  -8.6036  -8.5818
    -8.5348  -8.5291  -8.5176  -8.4959  -8.4883  -8.4724  -8.4458  -8.4074
    -8.4013  -8.3890  -8.3648  -8.3308  -8.3229  -8.3152  -8.3047  -8.3029
    -8.2784  -8.2621  -8.1447  -8.1259  -8.0986  -7.8187  -6.0042  -3.8127
    -3.3020  -2.9566  -2.8560  -2.6351  -2.3213  -1.9820  -1.6111  -0.9374
    -0.8247  -0.5879  -0.5125  -0.2956   0.2459   0.5845   0.7863   1.1823
     1.6767   1.8939   2.3463   2.7930   3.2907

          k = 0.0266 0.0154 0.0000 ( 21640 PWs)   bands (ev):

   -16.7639  -9.7085  -9.6809  -9.6779  -9.5664  -9.5622  -9.5528  -9.5469
    -9.4589  -9.4447  -9.4324  -9.3326  -9.3175  -9.2781  -9.2639  -9.1977
    -9.1644  -9.1461  -9.1412  -9.1259  -9.0979  -9.0940  -9.0788  -9.0508
    -9.0271  -9.0198  -9.0070  -8.9947  -8.9309  -8.9012  -8.8679  -8.7577
    -8.7121  -8.6482  -8.6460  -8.6306  -8.6255  -8.6170  -8.6036  -8.5817
    -8.5348  -8.5291  -8.5176  -8.4959  -8.4883  -8.4724  -8.4458  -8.4074
    -8.4013  -8.3890  -8.3648  -8.3308  -8.3229  -8.3152  -8.3047  -8.3029
    -8.2784  -8.2621  -8.1447  -8.1259  -8.0986  -7.8187  -6.0042  -3.8127
    -3.3020  -2.9566  -2.8561  -2.6351  -2.3213  -1.9820  -1.6111  -0.9374
    -0.8247  -0.5879  -0.5125  -0.2956   0.2459   0.5846   0.7863   1.1823
     1.6767   1.8939   2.3463   2.7930   3.2907

          k = 0.0266 0.0462 0.0000 ( 21609 PWs)   bands (ev):

   -16.7625  -9.6280  -9.6266  -9.5683  -9.5019  -9.4953  -9.4909  -9.4802
    -9.3945  -9.3867  -9.3577  -9.3030  -9.2689  -9.2539  -9.2448  -9.1655
    -9.1433  -9.1226  -9.1155  -9.0947  -9.0822  -9.0612  -9.0540  -9.0275
    -8.9820  -8.9619  -8.9544  -8.9539  -8.9422  -8.9044  -8.8240  -8.7984
    -8.7438  -8.7315  -8.7241  -8.7055  -8.6787  -8.6500  -8.6364  -8.6211
    -8.5946  -8.5798  -8.5518  -8.5386  -8.5237  -8.5102  -8.4784  -8.4603
    -8.4466  -8.4415  -8.4215  -8.4044  -8.3881  -8.3683  -8.3471  -8.3407
    -8.3332  -8.2784  -8.2291  -8.1819  -8.1720  -7.4770  -5.6921  -4.4553
    -4.4353  -3.3010  -3.1072  -2.9414  -2.1770  -1.9362  -1.5850  -1.2464
    -1.0994  -0.3893  -0.0549   0.2140   0.5374   1.0103   1.5519   1.7024
     2.4712   2.7330   2.9192   3.0362   3.4869

          k = 0.0266-0.1077 0.0000 ( 21571 PWs)   bands (ev):

   -16.7610  -9.5385  -9.4822  -9.4780  -9.4513  -9.4065  -9.3775  -9.3606
    -9.3454  -9.3225  -9.3157  -9.3135  -9.2685  -9.2348  -9.1899  -9.1673
    -9.1126  -9.0810  -9.0605  -9.0167  -9.0043  -8.9983  -8.9906  -8.9832
    -8.9761  -8.9580  -8.9335  -8.9292  -8.9075  -8.8905  -8.8547  -8.8277
    -8.8017  -8.7835  -8.7635  -8.7585  -8.7498  -8.7215  -8.6744  -8.6693
    -8.6565  -8.6407  -8.6121  -8.6037  -8.5817  -8.5634  -8.5543  -8.5418
    -8.5271  -8.5135  -8.4948  -8.4681  -8.4578  -8.4087  -8.3828  -8.3669
    -8.3572  -8.3392  -8.3081  -8.2309  -8.1932  -6.8058  -5.7923  -5.0932
    -4.7485  -4.1888  -3.3691  -2.8174  -2.3673  -2.0249  -1.6418  -1.3208
    -0.9487  -0.0026   0.1945   0.3810   0.9222   1.7222   1.9686   2.3344
     2.5963   2.9819   3.2679   3.6475   3.8490

          k = 0.0266-0.0769 0.0000 ( 21571 PWs)   bands (ev):

   -16.7610  -9.5385  -9.4822  -9.4781  -9.4513  -9.4065  -9.3775  -9.3606
    -9.3454  -9.3225  -9.3156  -9.3135  -9.2685  -9.2348  -9.1899  -9.1673
    -9.1126  -9.0810  -9.0605  -9.0167  -9.0043  -8.9983  -8.9906  -8.9832
    -8.9761  -8.9580  -8.9335  -8.9292  -8.9075  -8.8905  -8.8547  -8.8277
    -8.8017  -8.7835  -8.7635  -8.7585  -8.7498  -8.7215  -8.6744  -8.6693
    -8.6566  -8.6407  -8.6121  -8.6037  -8.5817  -8.5634  -8.5543  -8.5418
    -8.5271  -8.5135  -8.4948  -8.4681  -8.4578  -8.4087  -8.3828  -8.3669
    -8.3572  -8.3392  -8.3081  -8.2309  -8.1932  -6.8058  -5.7923  -5.0932
    -4.7485  -4.1888  -3.3691  -2.8174  -2.3673  -2.0249  -1.6418  -1.3208
    -0.9487  -0.0026   0.1945   0.3810   0.9222   1.7222   1.9686   2.3344
     2.5963   2.9819   3.2679   3.6475   3.8490

          k = 0.0266-0.0462 0.0000 ( 21609 PWs)   bands (ev):

   -16.7625  -9.6280  -9.6266  -9.5683  -9.5019  -9.4953  -9.4909  -9.4802
    -9.3945  -9.3867  -9.3577  -9.3030  -9.2689  -9.2539  -9.2448  -9.1655
    -9.1433  -9.1226  -9.1155  -9.0947  -9.0822  -9.0612  -9.0540  -9.0275
    -8.9820  -8.9619  -8.9544  -8.9539  -8.9422  -8.9044  -8.8240  -8.7984
    -8.7438  -8.7315  -8.7241  -8.7055  -8.6787  -8.6500  -8.6364  -8.6211
    -8.5946  -8.5798  -8.5518  -8.5386  -8.5237  -8.5102  -8.4784  -8.4603
    -8.4466  -8.4415  -8.4215  -8.4044  -8.3881  -8.3682  -8.3471  -8.3407
    -8.3332  -8.2784  -8.2291  -8.1819  -8.1720  -7.4770  -5.6921  -4.4553
    -4.4353  -3.3010  -3.1072  -2.9414  -2.1770  -1.9362  -1.5850  -1.2464
    -1.0994  -0.3893  -0.0549   0.2140   0.5375   1.0103   1.5519   1.7024
     2.4712   2.7330   2.9192   3.0362   3.4869

          k = 0.0533-0.0308 0.0000 ( 21582 PWs)   bands (ev):

   -16.7620  -9.6326  -9.5462  -9.5425  -9.4836  -9.4782  -9.4719  -9.4511
    -9.3753  -9.3626  -9.3462  -9.2943  -9.2611  -9.2242  -9.2240  -9.1967
    -9.1367  -9.1136  -9.1104  -9.0898  -9.0468  -9.0270  -9.0199  -9.0151
    -8.9754  -8.9608  -8.9422  -8.9337  -8.9254  -8.9006  -8.8144  -8.7951
    -8.7795  -8.7794  -8.7211  -8.6870  -8.6791  -8.6757  -8.6706  -8.6467
    -8.6024  -8.5963  -8.5759  -8.5569  -8.5365  -8.5236  -8.5177  -8.5120
    -8.4859  -8.4763  -8.4581  -8.4253  -8.3996  -8.3668  -8.3492  -8.3405
    -8.3382  -8.3283  -8.2583  -8.2020  -8.1560  -7.3133  -5.5521  -5.2829
    -3.8010  -3.3602  -3.2407  -3.0013  -2.5383  -2.1684  -1.8969  -1.1781
    -1.0318  -0.3327   0.1986   0.7480   0.7641   1.0928   1.3269   2.3150
     2.4022   2.7223   2.9505   3.2696   3.9423

          k = 0.0533 0.0000 0.0000 ( 21609 PWs)   bands (ev):

   -16.7625  -9.6280  -9.6266  -9.5683  -9.5019  -9.4953  -9.4909  -9.4802
    -9.3945  -9.3867  -9.3577  -9.3030  -9.2689  -9.2539  -9.2448  -9.1655
    -9.1433  -9.1226  -9.1155  -9.0947  -9.0822  -9.0612  -9.0540  -9.0275
    -8.9820  -8.9619  -8.9544  -8.9539  -8.9422  -8.9044  -8.8240  -8.7984
    -8.7438  -8.7315  -8.7241  -8.7055  -8.6787  -8.6500  -8.6364  -8.6211
    -8.5946  -8.5798  -8.5518  -8.5386  -8.5237  -8.5102  -8.4784  -8.4603
    -8.4466  -8.4415  -8.4215  -8.4044  -8.3881  -8.3682  -8.3471  -8.3407
    -8.3332  -8.2784  -8.2291  -8.1819  -8.1720  -7.4770  -5.6921  -4.4553
    -4.4353  -3.3010  -3.1072  -2.9414  -2.1770  -1.9362  -1.5850  -1.2464
    -1.0994  -0.3893  -0.0549   0.2140   0.5375   1.0103   1.5519   1.7024
     2.4712   2.7330   2.9192   3.0362   3.4869

          k = 0.0533 0.0308 0.0000 ( 21582 PWs)   bands (ev):

   -16.7620  -9.6326  -9.5462  -9.5425  -9.4836  -9.4782  -9.4719  -9.4511
    -9.3753  -9.3626  -9.3462  -9.2943  -9.2611  -9.2242  -9.2240  -9.1967
    -9.1367  -9.1136  -9.1104  -9.0898  -9.0468  -9.0270  -9.0199  -9.0151
    -8.9754  -8.9608  -8.9422  -8.9337  -8.9254  -8.9006  -8.8144  -8.7951
    -8.7795  -8.7794  -8.7211  -8.6870  -8.6791  -8.6757  -8.6706  -8.6467
    -8.6024  -8.5963  -8.5759  -8.5569  -8.5365  -8.5236  -8.5177  -8.5120
    -8.4859  -8.4763  -8.4581  -8.4253  -8.3996  -8.3668  -8.3492  -8.3405
    -8.3382  -8.3283  -8.2583  -8.2020  -8.1560  -7.3133  -5.5521  -5.2829
    -3.8010  -3.3602  -3.2407  -3.0013  -2.5383  -2.1684  -1.8969  -1.1781
    -1.0318  -0.3327   0.1986   0.7480   0.7641   1.0928   1.3269   2.3150
     2.4022   2.7223   2.9505   3.2696   3.9423

          k = 0.0533-0.1231 0.0000 ( 21571 PWs)   bands (ev):

   -16.7610  -9.5385  -9.4822  -9.4780  -9.4513  -9.4065  -9.3775  -9.3606
    -9.3454  -9.3225  -9.3156  -9.3135  -9.2685  -9.2348  -9.1899  -9.1673
    -9.1126  -9.0810  -9.0605  -9.0167  -9.0043  -8.9983  -8.9906  -8.9832
    -8.9761  -8.9580  -8.9335  -8.9292  -8.9075  -8.8905  -8.8547  -8.8277
    -8.8017  -8.7835  -8.7635  -8.7585  -8.7498  -8.7215  -8.6744  -8.6693
    -8.6565  -8.6407  -8.6121  -8.6037  -8.5817  -8.5634  -8.5543  -8.5418
    -8.5271  -8.5135  -8.4948  -8.4681  -8.4578  -8.4087  -8.3828  -8.3669
    -8.3572  -8.3392  -8.3081  -8.2309  -8.1932  -6.8058  -5.7923  -5.0932
    -4.7485  -4.1888  -3.3691  -2.8174  -2.3673  -2.0249  -1.6418  -1.3208
    -0.9487  -0.0026   0.1945   0.3810   0.9222   1.7222   1.9686   2.3344
     2.5963   2.9819   3.2679   3.6475   3.8490

          k = 0.0533-0.0923 0.0000 ( 21606 PWs)   bands (ev):

   -16.7605  -9.4176  -9.4157  -9.4109  -9.4080  -9.3884  -9.3698  -9.3673
    -9.3617  -9.3202  -9.3128  -9.3115  -9.3103  -9.1140  -9.1140  -9.1001
    -9.0915  -9.0910  -9.0645  -9.0625  -9.0584  -8.9981  -8.9980  -8.9945
    -8.9452  -8.9262  -8.9088  -8.9042  -8.9023  -8.8999  -8.8949  -8.8248
    -8.8238  -8.8094  -8.7975  -8.7970  -8.7727  -8.7553  -8.7311  -8.7138
    -8.6721  -8.6238  -8.6158  -8.6086  -8.5962  -8.5942  -8.5762  -8.5606
    -8.5363  -8.5306  -8.5127  -8.4923  -8.4306  -8.4256  -8.3999  -8.3827
    -8.3633  -8.3527  -8.3352  -8.2684  -8.2229  -5.9837  -5.9629  -5.8873
    -4.4385  -4.3971  -4.1578  -2.6247  -2.4775  -2.0532  -1.2540  -1.1510
    -0.4813   0.0551   0.1942   0.3035   1.3986   1.4558   1.6976   1.9822
     2.1802   2.5727   3.9807   4.0437   4.1292

          k = 0.0533-0.0615 0.0000 ( 21571 PWs)   bands (ev):

   -16.7610  -9.5385  -9.4822  -9.4780  -9.4513  -9.4065  -9.3775  -9.3606
    -9.3454  -9.3225  -9.3156  -9.3135  -9.2685  -9.2348  -9.1899  -9.1673
    -9.1126  -9.0810  -9.0605  -9.0167  -9.0043  -8.9983  -8.9906  -8.9832
    -8.9761  -8.9580  -8.9335  -8.9292  -8.9075  -8.8905  -8.8547  -8.8277
    -8.8017  -8.7835  -8.7635  -8.7585  -8.7498  -8.7215  -8.6744  -8.6693
    -8.6566  -8.6407  -8.6121  -8.6037  -8.5817  -8.5634  -8.5543  -8.5418
    -8.5271  -8.5135  -8.4948  -8.4681  -8.4578  -8.4087  -8.3828  -8.3669
    -8.3572  -8.3392  -8.3081  -8.2309  -8.1932  -6.8058  -5.7923  -5.0932
    -4.7485  -4.1888  -3.3691  -2.8174  -2.3673  -2.0249  -1.6418  -1.3208
    -0.9487  -0.0026   0.1945   0.3810   0.9222   1.7222   1.9686   2.3344
     2.5963   2.9819   3.2679   3.6475   3.8490

          k =-0.0799 0.0462 0.0000 ( 21576 PWs)   bands (ev):

   -16.7610  -9.5394  -9.5309  -9.4705  -9.4673  -9.3815  -9.3702  -9.3488
    -9.3386  -9.3291  -9.3280  -9.2760  -9.2659  -9.2221  -9.2211  -9.1856
    -9.1772  -9.0679  -9.0294  -9.0179  -9.0131  -9.0040  -8.9906  -8.9891
    -8.9885  -8.9041  -8.8984  -8.8965  -8.8661  -8.8587  -8.8437  -8.8336
    -8.8320  -8.7851  -8.7601  -8.7498  -8.7440  -8.7009  -8.6877  -8.6754
    -8.6540  -8.6366  -8.6283  -8.5950  -8.5886  -8.5685  -8.5622  -8.5602
    -8.5457  -8.5440  -8.5185  -8.4948  -8.4685  -8.4384  -8.3598  -8.3544
    -8.3488  -8.3409  -8.3284  -8.2015  -8.1657  -6.5149  -6.4426  -4.9042
    -4.6678  -3.5020  -3.3834  -2.8306  -2.6215  -2.3291  -1.9883  -1.3076
    -1.0982  -0.5864   0.7014   1.0449   1.1159   1.6703   2.2619   2.3404
     2.5826   2.8134   3.6205   3.6699   3.8546

          k =-0.0799 0.0769 0.0000 ( 21571 PWs)   bands (ev):

   -16.7610  -9.5385  -9.4822  -9.4780  -9.4513  -9.4065  -9.3775  -9.3606
    -9.3454  -9.3225  -9.3156  -9.3135  -9.2685  -9.2348  -9.1899  -9.1673
    -9.1126  -9.0810  -9.0605  -9.0167  -9.0043  -8.9983  -8.9906  -8.9832
    -8.9761  -8.9580  -8.9335  -8.9292  -8.9075  -8.8905  -8.8547  -8.8277
    -8.8017  -8.7835  -8.7635  -8.7585  -8.7498  -8.7215  -8.6744  -8.6693
    -8.6565  -8.6407  -8.6121  -8.6037  -8.5817  -8.5634  -8.5543  -8.5418
    -8.5271  -8.5135  -8.4948  -8.4681  -8.4578  -8.4087  -8.3828  -8.3669
    -8.3572  -8.3392  -8.3081  -8.2309  -8.1932  -6.8058  -5.7923  -5.0932
    -4.7485  -4.1888  -3.3691  -2.8174  -2.3673  -2.0249  -1.6418  -1.3208
    -0.9487  -0.0026   0.1945   0.3810   0.9222   1.7222   1.9686   2.3344
     2.5963   2.9819   3.2679   3.6475   3.8490

          k =-0.0799 0.1077 0.0000 ( 21571 PWs)   bands (ev):

   -16.7610  -9.5385  -9.4822  -9.4780  -9.4513  -9.4065  -9.3775  -9.3606
    -9.3454  -9.3225  -9.3156  -9.3135  -9.2685  -9.2348  -9.1899  -9.1673
    -9.1126  -9.0810  -9.0605  -9.0167  -9.0043  -8.9983  -8.9906  -8.9832
    -8.9761  -8.9580  -8.9335  -8.9292  -8.9075  -8.8905  -8.8547  -8.8277
    -8.8017  -8.7835  -8.7635  -8.7585  -8.7498  -8.7215  -8.6744  -8.6693
    -8.6565  -8.6407  -8.6121  -8.6037  -8.5817  -8.5634  -8.5543  -8.5418
    -8.5271  -8.5134  -8.4948  -8.4681  -8.4578  -8.4087  -8.3828  -8.3669
    -8.3572  -8.3392  -8.3081  -8.2309  -8.1932  -6.8058  -5.7923  -5.0932
    -4.7485  -4.1888  -3.3691  -2.8174  -2.3673  -2.0249  -1.6418  -1.3208
    -0.9487  -0.0026   0.1945   0.3810   0.9222   1.7222   1.9686   2.3344
     2.5963   2.9819   3.2679   3.6475   3.8490

          k =-0.0799-0.0462 0.0000 ( 21576 PWs)   bands (ev):

   -16.7610  -9.5394  -9.5309  -9.4705  -9.4673  -9.3815  -9.3702  -9.3488
    -9.3386  -9.3291  -9.3280  -9.2760  -9.2659  -9.2221  -9.2211  -9.1856
    -9.1772  -9.0679  -9.0294  -9.0179  -9.0131  -9.0040  -8.9906  -8.9891
    -8.9885  -8.9041  -8.8984  -8.8965  -8.8661  -8.8587  -8.8437  -8.8336
    -8.8320  -8.7851  -8.7601  -8.7498  -8.7440  -8.7009  -8.6877  -8.6754
    -8.6540  -8.6366  -8.6283  -8.5950  -8.5885  -8.5685  -8.5622  -8.5602
    -8.5457  -8.5440  -8.5185  -8.4948  -8.4685  -8.4384  -8.3598  -8.3544
    -8.3488  -8.3409  -8.3284  -8.2015  -8.1657  -6.5149  -6.4426  -4.9043
    -4.6678  -3.5020  -3.3834  -2.8306  -2.6215  -2.3291  -1.9883  -1.3076
    -1.0982  -0.5864   0.7014   1.0449   1.1159   1.6703   2.2619   2.3405
     2.5826   2.8134   3.6205   3.6699   3.8546

     the Fermi energy is     0.1827 ev

!    total energy              =   -1425.52473908 Ry
     Harris-Foulkes estimate   =   -1425.52475555 Ry
     estimated scf accuracy    <       0.00000315 Ry

     The total energy is the sum of the following terms:

     one-electron contribution =   -9119.54799086 Ry
     hartree contribution      =    4653.82633628 Ry
     xc contribution           =    -497.28322184 Ry
     ewald contribution        =    3537.51104774 Ry
     electric field correction =       0.00046262 Ry
     smearing contrib. (-TS)   =      -0.03137303 Ry

     convergence has been achieved in   6 iterations
 
 BEEF-vdW xc energy contributions
           1 :   -435.604662760850     
           2 :    398.249491116905     
           3 :   -335.288234460293     
           4 :    264.659994029873     
           5 :   -202.839229415869     
           6 :    158.990305884714     
           7 :   -133.292521293555     
           8 :    119.508287551095     
           9 :   -109.799872280225     
          10 :    98.9873681530315     
          11 :   -86.2316095157925     
          12 :    73.8724682946453     
          13 :   -64.7686308804784     
          14 :    60.0503333238026     
          15 :   -58.5398572604571     
          16 :    57.8091560994915     
          17 :   -55.8524871597394     
          18 :    52.1941927220511     
          19 :   -47.8411764465114     
          20 :    44.3191263187841     
          21 :   -42.5635014081489     
          22 :    42.3870329207218     
          23 :   -42.7524790678697     
          24 :    42.5340178345263     
          25 :   -41.2071791960929     
          26 :    39.0548656014096     
          27 :   -36.8534326620599     
          28 :    35.3220400465260     
          29 :   -34.7051284619542     
          30 :    34.7119875271760     
          31 :   -39.3476487923027     
          32 :   -28.6831314496790     

     Forces acting on atoms (Ry/au):


     negative rho (up, down):  2.681E-01 0.000E+00
     atom    1 type  1   force =     0.00000343   -0.00000395   -0.01557124
     atom    2 type  1   force =    -0.00000383   -0.00052740   -0.01855397
     atom    3 type  1   force =    -0.00044793    0.00026974   -0.01854787
     atom    4 type  1   force =     0.00043399    0.00025659   -0.01855983
     atom    5 type  1   force =     0.00210919   -0.00121950    0.00337331
     atom    6 type  1   force =    -0.00211075   -0.00121703    0.00337502
     atom    7 type  1   force =     0.00000554    0.00000046    0.00715089
     atom    8 type  1   force =    -0.00000162    0.00243260    0.00336896
     atom    9 type  1   force =    -0.01014985   -0.00585668    0.02500889
     atom   10 type  1   force =     0.01015687   -0.00586052    0.02501859
     atom   11 type  1   force =    -0.00000078    0.01172288    0.02502706
     atom   12 type  1   force =     0.00000594    0.00000181    0.01159605
     atom   13 type  2   force =    -0.00000020    0.00000100   -0.03268587

     Total force =     0.059100     Total SCF correction =     0.002803


     entering subroutine stress ...


     negative rho (up, down):  2.681E-01 0.000E+00
          total   stress  (Ry/bohr**3)                   (kbar)     P=    4.62
   0.00001027  -0.00000000   0.00000000          1.51     -0.00      0.00
  -0.00000000   0.00001027   0.00000000         -0.00      1.51      0.00
   0.00000000   0.00000000   0.00007367          0.00      0.00     10.84


     number of scf cycles    =   2
     number of bfgs steps    =   1

     energy   old            =   -1425.5199747014 Ry
     energy   new            =   -1425.5247390821 Ry

     CASE: energy  _new < energy  _old

     new trust radius        =       0.0426484808 bohr
     new conv_thr            =       0.0000001000 Ry


ATOMIC_POSITIONS (crystal)
Cd1      0.166666667   0.166666667   0.398302599    0   0   0
Cd1      0.666666667   0.166666667   0.398302599    0   0   0
Cd1      0.166666667   0.666666667   0.398302599    0   0   0
Cd1      0.666666667   0.666666667   0.398302599    0   0   0
Cd1      0.833333333   0.333333333   0.500000000    0   0   0
Cd1      0.333333333   0.333333333   0.500000000    0   0   0
Cd1      0.833333333   0.833333333   0.500000000    0   0   0
Cd1      0.333333333   0.833333333   0.500000000    0   0   0
Cd1     -0.001067982  -0.001063383   0.603108028
Cd1      0.502122958  -0.001062122   0.603107523
Cd1     -0.001064139   0.502127504   0.603106931
Cd1      0.499997302   0.499997868   0.602313565
O1       0.166665590   0.166666892   0.654349599



     Writing output data file calc.save
     Check: negative starting charge=   -0.259595
     NEW-OLD atomic charge density approx. for the potential
     Check: negative starting charge=   -0.261199

     negative rho (up, down):  2.701E-01 0.000E+00
 
     Adding external electric field

     Computed dipole along edir(3) : 
        Dipole               -0.4023 Ry au,         -1.0226 Debye
        Dipole field         -0.0009 Ry au
 
        Potential amp.        0.0815 Ry
        Total length         46.2584 bohr
 

     total cpu time spent up to now is      448.7 secs

     Self-consistent Calculation

     iteration #  1     ecut=    36.75 Ry     beta=0.30
     Davidson diagonalization with overlap
     ethr =  1.00E-06,  avg # of iterations =  5.0

     negative rho (up, down):  2.700E-01 0.000E+00
 
     Adding external electric field

     Computed dipole along edir(3) : 
        Dipole               -0.7770 Ry au,         -1.9748 Debye
        Dipole field         -0.0017 Ry au
 
        Potential amp.        0.1574 Ry
        Total length         46.2584 bohr
 

     total cpu time spent up to now is      479.0 secs

     total energy              =   -1425.52271146 Ry
     Harris-Foulkes estimate   =   -1425.52905368 Ry
     estimated scf accuracy    <       0.01474123 Ry

     iteration #  2     ecut=    36.75 Ry     beta=0.30
     Davidson diagonalization with overlap
     ethr =  9.83E-06,  avg # of iterations =  4.7

     negative rho (up, down):  2.700E-01 0.000E+00
 
     Adding external electric field

     Computed dipole along edir(3) : 
        Dipole               -0.4359 Ry au,         -1.1080 Debye
        Dipole field         -0.0010 Ry au
 
        Potential amp.        0.0883 Ry
        Total length         46.2584 bohr
 

     total cpu time spent up to now is      497.2 secs

     total energy              =   -1425.50552859 Ry
     Harris-Foulkes estimate   =   -1425.55219762 Ry
     estimated scf accuracy    <       0.59893810 Ry

     iteration #  3     ecut=    36.75 Ry     beta=0.30
     Davidson diagonalization with overlap
     ethr =  9.83E-06,  avg # of iterations =  4.3

     negative rho (up, down):  2.700E-01 0.000E+00
 
     Adding external electric field

     Computed dipole along edir(3) : 
        Dipole               -0.4493 Ry au,         -1.1419 Debye
        Dipole field         -0.0010 Ry au
 
        Potential amp.        0.0910 Ry
        Total length         46.2584 bohr
 

     total cpu time spent up to now is      513.9 secs

     total energy              =   -1425.52904582 Ry
     Harris-Foulkes estimate   =   -1425.52927825 Ry
     estimated scf accuracy    <       0.00142913 Ry

     iteration #  4     ecut=    36.75 Ry     beta=0.30
     Davidson diagonalization with overlap
     ethr =  9.53E-07,  avg # of iterations =  2.2

     negative rho (up, down):  2.700E-01 0.000E+00
 
     Adding external electric field

     Computed dipole along edir(3) : 
        Dipole               -0.4442 Ry au,         -1.1290 Debye
        Dipole field         -0.0010 Ry au
 
        Potential amp.        0.0900 Ry
        Total length         46.2584 bohr
 

     total cpu time spent up to now is      528.5 secs

     total energy              =   -1425.52917905 Ry
     Harris-Foulkes estimate   =   -1425.52921452 Ry
     estimated scf accuracy    <       0.00012311 Ry

     iteration #  5     ecut=    36.75 Ry     beta=0.30
     Davidson diagonalization with overlap
     ethr =  8.21E-08,  avg # of iterations =  2.2

     negative rho (up, down):  2.700E-01 0.000E+00
 
     Adding external electric field

     Computed dipole along edir(3) : 
        Dipole               -0.4435 Ry au,         -1.1272 Debye
        Dipole field         -0.0010 Ry au
 
        Potential amp.        0.0898 Ry
        Total length         46.2584 bohr
 

     total cpu time spent up to now is      543.1 secs

     total energy              =   -1425.52919278 Ry
     Harris-Foulkes estimate   =   -1425.52919727 Ry
     estimated scf accuracy    <       0.00002537 Ry

     iteration #  6     ecut=    36.75 Ry     beta=0.30
     Davidson diagonalization with overlap
     ethr =  1.69E-08,  avg # of iterations =  2.7

     negative rho (up, down):  2.700E-01 0.000E+00
 
     Adding external electric field

     Computed dipole along edir(3) : 
        Dipole               -0.4426 Ry au,         -1.1249 Debye
        Dipole field         -0.0010 Ry au
 
        Potential amp.        0.0897 Ry
        Total length         46.2584 bohr
 

     total cpu time spent up to now is      558.7 secs

     total energy              =   -1425.52919761 Ry
     Harris-Foulkes estimate   =   -1425.52919833 Ry
     estimated scf accuracy    <       0.00000442 Ry

     iteration #  7     ecut=    36.75 Ry     beta=0.30
     Davidson diagonalization with overlap
     ethr =  2.95E-09,  avg # of iterations =  3.0

     negative rho (up, down):  2.700E-01 0.000E+00
 
     Adding external electric field

     Computed dipole along edir(3) : 
        Dipole               -0.4425 Ry au,         -1.1248 Debye
        Dipole field         -0.0010 Ry au
 
        Potential amp.        0.0896 Ry
        Total length         46.2584 bohr
 

     total cpu time spent up to now is      575.9 secs

     total energy              =   -1425.52919885 Ry
     Harris-Foulkes estimate   =   -1425.52919854 Ry
     estimated scf accuracy    <       0.00000088 Ry

     iteration #  8     ecut=    36.75 Ry     beta=0.30
     Davidson diagonalization with overlap
     ethr =  5.89E-10,  avg # of iterations =  2.6

     negative rho (up, down):  2.700E-01 0.000E+00
 
     Adding external electric field

     Computed dipole along edir(3) : 
        Dipole               -0.4427 Ry au,         -1.1252 Debye
        Dipole field         -0.0010 Ry au
 
        Potential amp.        0.0897 Ry
        Total length         46.2584 bohr
 

     total cpu time spent up to now is      592.1 secs

     total energy              =   -1425.52919911 Ry
     Harris-Foulkes estimate   =   -1425.52919870 Ry
     estimated scf accuracy    <       0.00000017 Ry

     iteration #  9     ecut=    36.75 Ry     beta=0.30
     Davidson diagonalization with overlap
     ethr =  1.11E-10,  avg # of iterations =  3.7

     negative rho (up, down):  2.700E-01 0.000E+00

     negative rho (up, down):  2.700E-01 0.000E+00

     negative rho (up, down):  2.700E-01 0.000E+00

     negative rho (up, down):  2.700E-01 0.000E+00

     negative rho (up, down):  2.700E-01 0.000E+00

     negative rho (up, down):  2.700E-01 0.000E+00

     negative rho (up, down):  2.700E-01 0.000E+00

     negative rho (up, down):  2.700E-01 0.000E+00

     negative rho (up, down):  2.700E-01 0.000E+00

     negative rho (up, down):  2.700E-01 0.000E+00

     negative rho (up, down):  2.700E-01 0.000E+00

     negative rho (up, down):  2.700E-01 0.000E+00

     negative rho (up, down):  2.700E-01 0.000E+00

     negative rho (up, down):  2.700E-01 0.000E+00

     negative rho (up, down):  2.700E-01 0.000E+00

     negative rho (up, down):  2.700E-01 0.000E+00

     negative rho (up, down):  2.700E-01 0.000E+00

     negative rho (up, down):  2.700E-01 0.000E+00

     negative rho (up, down):  2.700E-01 0.000E+00

     negative rho (up, down):  2.700E-01 0.000E+00

     negative rho (up, down):  2.700E-01 0.000E+00

     negative rho (up, down):  2.700E-01 0.000E+00

     negative rho (up, down):  2.700E-01 0.000E+00

     negative rho (up, down):  2.700E-01 0.000E+00

     negative rho (up, down):  2.700E-01 0.000E+00

     negative rho (up, down):  2.700E-01 0.000E+00

[...]

   -17.1479  -9.3298  -9.3006  -9.2967  -9.1791  -9.1683  -9.1599  -9.1576
    -9.1263  -9.1133  -9.1131  -8.9696  -8.9435  -8.9362  -8.9164  -8.8753
    -8.8599  -8.8598  -8.8424  -8.7866  -8.7796  -8.7655  -8.7207  -8.7076
    -8.7075  -8.6690  -8.6540  -8.6285  -8.5768  -8.5340  -8.4853  -8.4533
    -8.4311  -8.3433  -8.3388  -8.3140  -8.2949  -8.2878  -8.2711  -8.2696
    -8.2596  -8.2419  -8.2321  -8.2055  -8.1797  -8.1740  -8.1386  -8.1254
    -8.1101  -8.1093  -8.1074  -8.0884  -8.0476  -8.0412  -8.0360  -8.0229
    -8.0135  -7.9990  -7.8450  -7.8280  -7.6871  -7.2614  -5.4569  -3.5392
    -3.2103  -2.9790  -2.7981  -2.2776  -2.0904  -1.9973  -1.3701  -0.4682
    -0.4570  -0.2707  -0.0693   0.0606   0.5306   0.8678   0.9702   1.4727
     1.9883   2.2088   2.5261   2.7302   3.4506

          k = 0.0266 0.0462 0.0000 ( 21609 PWs)   bands (ev):

   -17.1445  -9.2516  -9.2472  -9.1720  -9.1228  -9.1151  -9.1095  -9.1015
    -9.0511  -9.0413  -9.0089  -8.9395  -8.9228  -8.9079  -8.8630  -8.8483
    -8.8390  -8.8367  -8.8067  -8.7907  -8.7618  -8.7183  -8.7020  -8.6838
    -8.6732  -8.6509  -8.6422  -8.6062  -8.5539  -8.5345  -8.4971  -8.4836
    -8.4440  -8.4193  -8.4049  -8.3658  -8.3507  -8.3361  -8.3292  -8.3120
    -8.3006  -8.2888  -8.2710  -8.2610  -8.2207  -8.2028  -8.1886  -8.1763
    -8.1605  -8.1581  -8.1443  -8.1372  -8.1232  -8.0980  -8.0799  -8.0743
    -8.0382  -8.0109  -7.9043  -7.8287  -7.7598  -6.9244  -5.2110  -3.9732
    -3.8647  -3.4350  -3.1877  -2.7178  -2.1442  -1.8812  -1.2536  -0.8169
    -0.7536  -0.4599   0.0604   0.3745   1.0824   1.5062   2.0217   2.1178
     2.5515   2.6572   2.9081   3.0432   3.5996

          k = 0.0266-0.1077 0.0000 ( 21571 PWs)   bands (ev):

   -17.1410  -9.1664  -9.1014  -9.0891  -9.0770  -9.0290  -9.0155  -9.0083
    -8.9770  -8.9537  -8.9410  -8.9358  -8.9122  -8.8585  -8.8283  -8.8159
    -8.8039  -8.7892  -8.7687  -8.7049  -8.6980  -8.6756  -8.6624  -8.6500
    -8.6392  -8.6280  -8.6141  -8.6023  -8.5915  -8.5681  -8.5561  -8.5183
    -8.4900  -8.4675  -8.4556  -8.4434  -8.4316  -8.4156  -8.3983  -8.3716
    -8.3566  -8.3434  -8.3266  -8.3199  -8.2886  -8.2768  -8.2515  -8.2303
    -8.2153  -8.2088  -8.2005  -8.1938  -8.1561  -8.1302  -8.1210  -8.0953
    -8.0647  -8.0365  -7.9706  -7.8492  -7.7837  -6.2631  -5.2744  -4.7494
    -4.2512  -3.8045  -3.3004  -2.7507  -2.2544  -2.0535  -1.5084  -1.2065
    -0.9555   0.1058   0.6843   0.8084   1.0687   1.7536   2.4461   2.6318
     2.7515   3.1334   3.3993   3.7195   4.1210

          k = 0.0266-0.0769 0.0000 ( 21571 PWs)   bands (ev):

   -17.1410  -9.1664  -9.1014  -9.0891  -9.0770  -9.0290  -9.0155  -9.0083
    -8.9770  -8.9537  -8.9409  -8.9358  -8.9122  -8.8585  -8.8283  -8.8159
    -8.8039  -8.7892  -8.7688  -8.7049  -8.6980  -8.6755  -8.6623  -8.6500
    -8.6392  -8.6279  -8.6141  -8.6024  -8.5915  -8.5682  -8.5561  -8.5184
    -8.4900  -8.4675  -8.4556  -8.4434  -8.4315  -8.4156  -8.3983  -8.3716
    -8.3566  -8.3434  -8.3266  -8.3199  -8.2886  -8.2768  -8.2515  -8.2303
    -8.2153  -8.2088  -8.2005  -8.1938  -8.1561  -8.1302  -8.1210  -8.0954
    -8.0647  -8.0365  -7.9706  -7.8492  -7.7837  -6.2631  -5.2744  -4.7493
    -4.2513  -3.8046  -3.3002  -2.7508  -2.2545  -2.0534  -1.5085  -1.2064
    -0.9555   0.1059   0.6843   0.8084   1.0687   1.7537   2.4462   2.6319
     2.7515   3.1334   3.3993   3.7195   4.1210

          k = 0.0266-0.0462 0.0000 ( 21609 PWs)   bands (ev):

   -17.1445  -9.2516  -9.2472  -9.1720  -9.1228  -9.1151  -9.1095  -9.1015
    -9.0511  -9.0413  -9.0089  -8.9394  -8.9228  -8.9080  -8.8630  -8.8483
    -8.8390  -8.8367  -8.8067  -8.7907  -8.7618  -8.7182  -8.7020  -8.6838
    -8.6732  -8.6509  -8.6422  -8.6062  -8.5539  -8.5345  -8.4971  -8.4836
    -8.4440  -8.4193  -8.4049  -8.3658  -8.3508  -8.3361  -8.3292  -8.3120
    -8.3006  -8.2888  -8.2710  -8.2610  -8.2207  -8.2028  -8.1886  -8.1763
    -8.1605  -8.1580  -8.1443  -8.1372  -8.1232  -8.0980  -8.0799  -8.0743
    -8.0383  -8.0109  -7.9044  -7.8287  -7.7597  -6.9244  -5.2109  -3.9733
    -3.8647  -3.4349  -3.1879  -2.7178  -2.1442  -1.8812  -1.2536  -0.8169
    -0.7536  -0.4600   0.0603   0.3747   1.0826   1.5062   2.0216   2.1178
     2.5517   2.6572   2.9080   3.0430   3.5997

          k = 0.0533-0.0308 0.0000 ( 21582 PWs)   bands (ev):

   -17.1433  -9.2573  -9.1557  -9.1487  -9.1184  -9.0976  -9.0961  -9.0869
    -9.0120  -8.9984  -8.9931  -8.9602  -8.9101  -8.8769  -8.8571  -8.8496
    -8.8354  -8.8032  -8.7805  -8.7629  -8.7405  -8.7235  -8.6971  -8.6720
    -8.6408  -8.6406  -8.6209  -8.5872  -8.5737  -8.5727  -8.4775  -8.4704
    -8.4498  -8.4475  -8.4219  -8.4008  -8.3774  -8.3539  -8.3533  -8.3263
    -8.3230  -8.2963  -8.2851  -8.2743  -8.2654  -8.2458  -8.2184  -8.2075
    -8.1947  -8.1875  -8.1679  -8.1588  -8.1160  -8.1025  -8.0796  -8.0737
    -8.0440  -8.0244  -7.9310  -7.8118  -7.7800  -6.7617  -5.1309  -4.7037
    -3.6486  -3.1867  -2.9580  -2.6478  -2.4968  -2.1777  -1.9020  -1.1507
    -0.5085  -0.0879   0.2361   1.0434   1.1703   1.3330   1.5286   2.3879
     2.8949   2.9033   3.2086   3.4491   3.9911

          k = 0.0533 0.0000 0.0000 ( 21609 PWs)   bands (ev):

   -17.1445  -9.2516  -9.2472  -9.1720  -9.1228  -9.1151  -9.1095  -9.1015
    -9.0511  -9.0413  -9.0089  -8.9395  -8.9228  -8.9079  -8.8630  -8.8483
    -8.8390  -8.8367  -8.8067  -8.7907  -8.7618  -8.7183  -8.7020  -8.6838
    -8.6732  -8.6509  -8.6422  -8.6062  -8.5539  -8.5345  -8.4971  -8.4836
    -8.4440  -8.4193  -8.4049  -8.3658  -8.3508  -8.3361  -8.3292  -8.3120
    -8.3006  -8.2888  -8.2710  -8.2610  -8.2207  -8.2028  -8.1886  -8.1763
    -8.1605  -8.1580  -8.1443  -8.1372  -8.1232  -8.0980  -8.0799  -8.0743
    -8.0382  -8.0109  -7.9043  -7.8286  -7.7598  -6.9244  -5.2110  -3.9731
    -3.8647  -3.4350  -3.1877  -2.7178  -2.1442  -1.8812  -1.2536  -0.8169
    -0.7536  -0.4599   0.0604   0.3744   1.0824   1.5061   2.0217   2.1178
     2.5515   2.6572   2.9081   3.0432   3.5996

          k = 0.0533 0.0308 0.0000 ( 21582 PWs)   bands (ev):

   -17.1433  -9.2573  -9.1557  -9.1487  -9.1184  -9.0976  -9.0961  -9.0869
    -9.0120  -8.9984  -8.9931  -8.9603  -8.9101  -8.8769  -8.8571  -8.8496
    -8.8354  -8.8032  -8.7806  -8.7629  -8.7406  -8.7235  -8.6971  -8.6720
    -8.6408  -8.6406  -8.6209  -8.5871  -8.5737  -8.5727  -8.4775  -8.4704
    -8.4498  -8.4475  -8.4219  -8.4008  -8.3774  -8.3539  -8.3533  -8.3263
    -8.3230  -8.2963  -8.2851  -8.2743  -8.2654  -8.2459  -8.2184  -8.2075
    -8.1947  -8.1874  -8.1679  -8.1588  -8.1160  -8.1025  -8.0796  -8.0737
    -8.0440  -8.0244  -7.9310  -7.8117  -7.7801  -6.7617  -5.1311  -4.7036
    -3.6487  -3.1864  -2.9577  -2.6478  -2.4968  -2.1779  -1.9019  -1.1508
    -0.5085  -0.0878   0.2361   1.0432   1.1701   1.3330   1.5285   2.3880
     2.8949   2.9033   3.2087   3.4491   3.9911

          k = 0.0533-0.1231 0.0000 ( 21571 PWs)   bands (ev):

   -17.1410  -9.1664  -9.1014  -9.0891  -9.0770  -9.0290  -9.0155  -9.0083
    -8.9770  -8.9537  -8.9410  -8.9358  -8.9122  -8.8585  -8.8283  -8.8159
    -8.8039  -8.7892  -8.7687  -8.7049  -8.6980  -8.6756  -8.6624  -8.6500
    -8.6392  -8.6280  -8.6141  -8.6024  -8.5915  -8.5681  -8.5561  -8.5183
    -8.4900  -8.4675  -8.4556  -8.4434  -8.4315  -8.4156  -8.3983  -8.3716
    -8.3566  -8.3434  -8.3266  -8.3199  -8.2886  -8.2768  -8.2514  -8.2303
    -8.2152  -8.2088  -8.2005  -8.1938  -8.1561  -8.1302  -8.1210  -8.0953
    -8.0647  -8.0365  -7.9706  -7.8492  -7.7836  -6.2631  -5.2745  -4.7495
    -4.2512  -3.8044  -3.3002  -2.7508  -2.2545  -2.0534  -1.5085  -1.2064
    -0.9555   0.1056   0.6843   0.8084   1.0686   1.7537   2.4462   2.6318
     2.7514   3.1334   3.3993   3.7196   4.1210

          k = 0.0533-0.0923 0.0000 ( 21606 PWs)   bands (ev):

   -17.1398  -9.0606  -9.0541  -9.0469  -9.0436  -8.9926  -8.9848  -8.9844
    -8.9670  -8.9653  -8.9398  -8.9068  -8.9058  -8.8594  -8.7714  -8.7705
    -8.7648  -8.7188  -8.7163  -8.7110  -8.7028  -8.6869  -8.6848  -8.6846
    -8.6424  -8.6368  -8.6348  -8.6056  -8.5818  -8.5766  -8.5757  -8.5719
    -8.5588  -8.5468  -8.5237  -8.5021  -8.4202  -8.3963  -8.3901  -8.3787
    -8.3640  -8.3606  -8.3125  -8.3018  -8.2959  -8.2870  -8.2487  -8.2457
    -8.2311  -8.2221  -8.2103  -8.2089  -8.1983  -8.1813  -8.1388  -8.0975
    -8.0589  -8.0511  -7.9867  -7.9066  -7.7719  -5.4911  -5.4436  -5.3117
    -4.3544  -4.2232  -3.3100  -2.6198  -2.6046  -1.9297  -1.5717  -1.2653
    -0.3676   0.4820   0.5558   1.0346   1.3377   1.5487   1.9130   2.4546
     2.6122   2.9534   3.6509   4.0528   4.2362

          k = 0.0533-0.0615 0.0000 ( 21571 PWs)   bands (ev):

   -17.1410  -9.1664  -9.1014  -9.0891  -9.0770  -9.0290  -9.0155  -9.0083
    -8.9770  -8.9537  -8.9409  -8.9358  -8.9122  -8.8585  -8.8283  -8.8159
    -8.8039  -8.7892  -8.7688  -8.7049  -8.6980  -8.6755  -8.6623  -8.6500
    -8.6392  -8.6279  -8.6141  -8.6024  -8.5915  -8.5682  -8.5561  -8.5184
    -8.4900  -8.4675  -8.4556  -8.4434  -8.4315  -8.4156  -8.3983  -8.3716
    -8.3566  -8.3434  -8.3266  -8.3199  -8.2886  -8.2768  -8.2515  -8.2303
    -8.2153  -8.2088  -8.2005  -8.1938  -8.1561  -8.1302  -8.1210  -8.0953
    -8.0647  -8.0365  -7.9707  -7.8492  -7.7837  -6.2631  -5.2744  -4.7493
    -4.2514  -3.8046  -3.3002  -2.7508  -2.2545  -2.0534  -1.5085  -1.2064
    -0.9556   0.1058   0.6843   0.8084   1.0686   1.7536   2.4462   2.6319
     2.7515   3.1334   3.3992   3.7195   4.1210

          k =-0.0799 0.0462 0.0000 ( 21576 PWs)   bands (ev):

   -17.1410  -9.1680  -9.1641  -9.0680  -9.0555  -9.0297  -9.0278  -8.9902
    -8.9878  -8.9750  -8.9596  -8.9562  -8.8633  -8.8519  -8.8304  -8.8214
    -8.7943  -8.7829  -8.7454  -8.7118  -8.7057  -8.6781  -8.6593  -8.6374
    -8.6146  -8.6110  -8.5957  -8.5937  -8.5744  -8.5656  -8.5111  -8.5096
    -8.4670  -8.4655  -8.4512  -8.4499  -8.4436  -8.4199  -8.4019  -8.3811
    -8.3797  -8.3652  -8.3503  -8.3474  -8.3381  -8.2816  -8.2713  -8.2406
    -8.2145  -8.2124  -8.2041  -8.1958  -8.1795  -8.0985  -8.0842  -8.0828
    -8.0723  -8.0371  -7.9872  -7.8214  -7.7819  -5.9983  -5.8772  -4.7329
    -4.0095  -3.2782  -2.9279  -2.8204  -2.6233  -2.2339  -1.9747  -1.4858
    -0.5800  -0.2783   0.8164   1.0681   1.0907   1.7228   2.7628   2.7677
     3.1859   3.2217   3.4597   3.7756   3.8093

          k =-0.0799 0.0769 0.0000 ( 21571 PWs)   bands (ev):

   -17.1410  -9.1664  -9.1014  -9.0891  -9.0770  -9.0290  -9.0155  -9.0083
    -8.9770  -8.9537  -8.9410  -8.9358  -8.9122  -8.8585  -8.8283  -8.8159
    -8.8039  -8.7892  -8.7687  -8.7049  -8.6980  -8.6756  -8.6624  -8.6500
    -8.6392  -8.6280  -8.6141  -8.6023  -8.5915  -8.5681  -8.5561  -8.5184
    -8.4900  -8.4675  -8.4556  -8.4434  -8.4316  -8.4156  -8.3984  -8.3716
    -8.3566  -8.3434  -8.3266  -8.3199  -8.2886  -8.2767  -8.2515  -8.2303
    -8.2152  -8.2088  -8.2005  -8.1938  -8.1561  -8.1302  -8.1210  -8.0953
    -8.0647  -8.0365  -7.9706  -7.8491  -7.7837  -6.2631  -5.2744  -4.7495
    -4.2512  -3.8045  -3.3004  -2.7507  -2.2544  -2.0535  -1.5084  -1.2065
    -0.9556   0.1057   0.6844   0.8084   1.0686   1.7536   2.4461   2.6318
     2.7515   3.1334   3.3993   3.7195   4.1210

          k =-0.0799 0.1077 0.0000 ( 21571 PWs)   bands (ev):

   -17.1410  -9.1664  -9.1014  -9.0891  -9.0770  -9.0290  -9.0155  -9.0083
    -8.9770  -8.9537  -8.9410  -8.9358  -8.9122  -8.8585  -8.8283  -8.8159
    -8.8039  -8.7892  -8.7687  -8.7049  -8.6980  -8.6756  -8.6624  -8.6500
    -8.6392  -8.6280  -8.6141  -8.6024  -8.5915  -8.5681  -8.5561  -8.5183
    -8.4900  -8.4675  -8.4556  -8.4434  -8.4315  -8.4156  -8.3983  -8.3716
    -8.3566  -8.3434  -8.3266  -8.3199  -8.2886  -8.2768  -8.2514  -8.2303
    -8.2152  -8.2088  -8.2005  -8.1938  -8.1561  -8.1302  -8.1210  -8.0953
    -8.0647  -8.0365  -7.9706  -7.8492  -7.7836  -6.2631  -5.2745  -4.7495
    -4.2512  -3.8043  -3.3002  -2.7508  -2.2545  -2.0533  -1.5085  -1.2064
    -0.9555   0.1055   0.6843   0.8084   1.0686   1.7537   2.4462   2.6318
     2.7514   3.1333   3.3993   3.7196   4.1210

          k =-0.0799-0.0462 0.0000 ( 21576 PWs)   bands (ev):

   -17.1410  -9.1680  -9.1641  -9.0679  -9.0555  -9.0297  -9.0278  -8.9902
    -8.9878  -8.9750  -8.9596  -8.9562  -8.8633  -8.8519  -8.8303  -8.8214
    -8.7943  -8.7829  -8.7452  -8.7118  -8.7057  -8.6782  -8.6594  -8.6374
    -8.6146  -8.6110  -8.5958  -8.5937  -8.5744  -8.5656  -8.5111  -8.5096
    -8.4670  -8.4655  -8.4511  -8.4499  -8.4436  -8.4199  -8.4019  -8.3810
    -8.3796  -8.3652  -8.3503  -8.3474  -8.3381  -8.2816  -8.2713  -8.2406
    -8.2145  -8.2124  -8.2041  -8.1959  -8.1795  -8.0985  -8.0842  -8.0828
    -8.0723  -8.0371  -7.9871  -7.8215  -7.7818  -5.9983  -5.8771  -4.7332
    -4.0090  -3.2780  -2.9280  -2.8204  -2.6233  -2.2337  -1.9747  -1.4859
    -0.5801  -0.2782   0.8163   1.0679   1.0907   1.7228   2.7628   2.7678
     3.1858   3.2216   3.4597   3.7757   3.8092

     the Fermi energy is     0.4838 ev

!    total energy              =   -1425.56376507 Ry
     Harris-Foulkes estimate   =   -1425.56376512 Ry
     estimated scf accuracy    <          9.7E-09 Ry

     The total energy is the sum of the following terms:

     one-electron contribution =   -8581.65219891 Ry
     hartree contribution      =    4386.29878970 Ry
     xc contribution           =    -497.19636675 Ry
     ewald contribution        =    3267.01024144 Ry
     electric field correction =       0.00010762 Ry
     smearing contrib. (-TS)   =      -0.02433817 Ry

     convergence has been achieved in   8 iterations
 
 BEEF-vdW xc energy contributions
           1 :   -435.502982413533     
           2 :    398.006465261107     
           3 :   -334.865253876510     
           4 :    264.162856360831     
           5 :   -202.444734877847     
           6 :    158.806428410387     
           7 :   -133.274861946929     
           8 :    119.502644598688     
           9 :   -109.671280134329     
          10 :    98.7272884443122     
          11 :   -85.9569682116360     
          12 :    73.7230145741456     
          13 :   -64.7919370691775     
          14 :    60.1671336252820     
          15 :   -58.6121714722244     
          16 :    57.7545071652902     
          17 :   -55.7107845466319     
          18 :    52.0889361659310     
          19 :   -47.8684043831887     
          20 :    44.4619874527769     
          21 :   -42.7049249385882     
          22 :    42.4073544897363     
          23 :   -42.6299641334156     
          24 :    42.3652648649879     
          25 :   -41.1302012683431     
          26 :    39.1369037322995     
          27 :   -37.0324342110727     
          28 :    35.4503317337588     
          29 :   -34.6655348121526     
          30 :    34.5138145460022     
          31 :   -39.3340668599266     
          32 :   -28.6295958254043     

     Forces acting on atoms (Ry/au):


     negative rho (up, down):  2.682E-01 0.000E+00
     atom    1 type  1   force =     0.00000133    0.00000035   -0.01888479
     atom    2 type  1   force =     0.00000073    0.00022707   -0.01918122
     atom    3 type  1   force =     0.00019734   -0.00011273   -0.01918150
     atom    4 type  1   force =    -0.00019512   -0.00011224   -0.01918209
     atom    5 type  1   force =     0.00358346   -0.00206637    0.01984177
     atom    6 type  1   force =    -0.00358463   -0.00206930    0.01983601
     atom    7 type  1   force =     0.00000110    0.00000027    0.01612960
     atom    8 type  1   force =     0.00000189    0.00413588    0.01984363
     atom    9 type  1   force =    -0.00018601   -0.00011206    0.00049607
     atom   10 type  1   force =     0.00016198   -0.00012843    0.00049849
     atom   11 type  1   force =    -0.00002611    0.00021286    0.00049895
     atom   12 type  1   force =     0.00002852    0.00002168   -0.00106620
     atom   13 type  2   force =     0.00001553    0.00000302    0.00035129

     Total force =     0.001463     Total SCF correction =     0.000275
     SCF correction compared to forces is large: reduce conv_thr to get better values


     entering subroutine stress ...


     negative rho (up, down):  2.682E-01 0.000E+00
          total   stress  (Ry/bohr**3)                   (kbar)     P=    0.92
  -0.00000908   0.00000001   0.00000000         -1.34      0.00      0.00
   0.00000001  -0.00000909  -0.00000000          0.00     -1.34     -0.00
   0.00000000  -0.00000000   0.00003698          0.00     -0.00      5.44


     bfgs converged in  24 scf cycles and  23 bfgs steps
     (criteria: energy <  1.0E+00, force <  1.9E-03)

     End of BFGS Geometry Optimization

     Final energy   =   -1425.5637650712 Ry
Begin final coordinates

ATOMIC_POSITIONS (crystal)
Cd1      0.166666667   0.166666667   0.398302599    0   0   0
Cd1      0.666666667   0.166666667   0.398302599    0   0   0
Cd1      0.166666667   0.666666667   0.398302599    0   0   0
Cd1      0.666666667   0.666666667   0.398302599    0   0   0
Cd1      0.833333333   0.333333333   0.500000000    0   0   0
Cd1      0.333333333   0.333333333   0.500000000    0   0   0
Cd1      0.833333333   0.833333333   0.500000000    0   0   0
Cd1      0.333333333   0.833333333   0.500000000    0   0   0
Cd1     -0.013704757  -0.013702062   0.624022920
Cd1      0.527352824  -0.013670963   0.624018939
Cd1     -0.013679154   0.527354917   0.624025253
Cd1      0.499971336   0.499963027   0.608643046
O1       0.166644672   0.166640138   0.659515067
End final coordinates



     Writing output data file calc.save
 
     init_run     :      6.64s CPU      8.11s WALL (       1 calls)
     electrons    :   3588.23s CPU   4363.24s WALL (      24 calls)
     update_pot   :     34.79s CPU     39.39s WALL (      23 calls)
     forces       :    130.27s CPU    138.34s WALL (      24 calls)
     stress       :    358.31s CPU    378.96s WALL (      24 calls)

     Called by init_run:
     wfcinit      :      4.24s CPU      5.31s WALL (       1 calls)
     potinit      :      0.78s CPU      0.90s WALL (       1 calls)

     Called by electrons:
     c_bands      :   2455.55s CPU   2968.14s WALL (     214 calls)
     sum_band     :    464.17s CPU    556.81s WALL (     214 calls)
     v_of_rho     :    123.02s CPU    156.06s WALL (     237 calls)
     newd         :    184.92s CPU    213.48s WALL (     237 calls)
     mix_rho      :      3.38s CPU      4.52s WALL (     214 calls)
     vdW_energy   :    138.97s CPU    164.30s WALL (    1101 calls)
     vdW_ffts     :    167.70s CPU    222.25s WALL (    2250 calls)
     vdW_v        :     72.85s CPU     84.42s WALL (    1101 calls)

     Called by c_bands:
     init_us_2    :     19.02s CPU     22.13s WALL (    9540 calls)
     cegterg      :   2334.86s CPU   2842.05s WALL (    4280 calls)

     Called by *egterg:
     h_psi        :   1365.70s CPU   1768.71s WALL (   19427 calls)
     s_psi        :    147.80s CPU    154.15s WALL (   19427 calls)
     g_psi        :     10.06s CPU     10.40s WALL (   15127 calls)
     cdiaghg      :    353.62s CPU    362.42s WALL (   18927 calls)

     Called by h_psi:
     add_vuspsi   :    151.61s CPU    157.99s WALL (   19427 calls)

     General routines
     calbec       :    233.16s CPU    239.90s WALL (   24667 calls)
     fft          :    277.72s CPU    359.64s WALL (   66141 calls)
     ffts         :      0.29s CPU      0.42s WALL (     451 calls)
     fftw         :    978.41s CPU   1436.25s WALL ( 2321606 calls)
     interpolate  :      1.97s CPU      3.28s WALL (     451 calls)
     davcio       :      0.01s CPU      0.15s WALL (      20 calls)
 
     Parallel routines
     fft_scatter  :    631.85s CPU    948.75s WALL ( 2388198 calls)
 
     PWSCF        :     1h 9m CPU        1h22m WALL

 
   This run was terminated on:  15:20:41   4Feb2018            

=------------------------------------------------------------------------------=
   JOB DONE.
=------------------------------------------------------------------------------=
