  python dir          : /home/mamunm/src/espresso
  espresso dir        : /home/vossj/suncat/esdld/espresso-dynpy-beef/bin
  pseudo dir          : /home/mamunm/src/pseudo/gbrv1.5pbe
  ase-espresso py git : GITVERSION



     Program PWSCF v.5.1rc2 (svn rev. ) starts on 16Apr2018 at 10:13:12 

     This program is part of the open-source Quantum ESPRESSO suite
     for quantum simulation of materials; please cite
         "P. Giannozzi et al., J. Phys.:Condens. Matter 21 395502 (2009);
          URL http://www.quantum-espresso.org", 
     in publications or presentations arising from this work. More details at
     http://www.quantum-espresso.org/quote

     Parallel version (MPI), running on    16 processors
     R & G space division:  proc/nbgrp/npool/nimage =      16
     Reading input from pw.inp
     Message from routine read_cards :
     DEPRECATED: no units specified in CELL_PARAMETERS card

     Current dimensions of program PWSCF are:
     Max number of different atomic species (ntypx) = 10
     Max number of k-points (npk) =  40000
     Max angular momentum in pseudopotentials (lmaxx) =  3
     Presently stress not available with electric field


     **************************************************************************
     Initializing libbeef V0.1.1 with the BEEF-vdW functional.
     Citation: Wellendorff et al., PRB 85, 235149 (2012).
     **************************************************************************


     IMPORTANT: XC functional enforced from input :
     Exchange-correlation      = BEEF-VDW ( 1  4 27 13 2)
     Any further DFT definition will be discarded
     Please, verify this is what you really want


     Subspace diagonalization in iterative solution of the eigenvalue problem:
     a serial algorithm will be used

 
     Parallelization info
     --------------------
     sticks:   dense  smooth     PW     G-vecs:    dense   smooth      PW
     Min         201      80     22                38477     9720    1504
     Max         202      81     23                38498     9765    1521
     Sum        3217    1285    367               615719   155893   24283
 


     bravais-lattice index     =            0
     lattice parameter (alat)  =       1.8897  a.u.
     unit-cell volume          =    5174.6160 (a.u.)^3
     number of atoms/cell      =           16
     number of atomic types    =            3
     number of electrons       =       235.00
     number of Kohn-Sham states=          127
     kinetic-energy cutoff     =      36.7493  Ry
     charge density cutoff     =     367.4932  Ry
     convergence threshold     =      1.0E-05
     mixing beta               =       0.3000
     number of iterations used =           10  plain     mixing
     Exchange-correlation      = BEEF-VDW ( 1  4 27 13 2)
     nstep                     =           50


     celldm(1)=   1.889726  celldm(2)=   0.000000  celldm(3)=   0.000000
     celldm(4)=   0.000000  celldm(5)=   0.000000  celldm(6)=   0.000000

     crystal axes: (cart. coord. in units of alat)
               a(1) = (   5.966546   0.000000   0.000000 )  
               a(2) = (   2.983273   5.167181   0.000000 )  
               a(3) = (   0.000000   0.000000  24.871665 )  

     reciprocal axes: (cart. coord. in units 2 pi/alat)
               b(1) = (  0.167601 -0.096765  0.000000 )  
               b(2) = (  0.000000  0.193529  0.000000 )  
               b(3) = (  0.000000  0.000000  0.040206 )  


     PseudoPot. # 1 for Ag read from file:
     /home/mamunm/src/pseudo/gbrv1.5pbe/Ag.UPF
     MD5 check sum: d66d668201baa78d5eb5b04ef7011058
     Pseudo is Ultrasoft + core correction, Zval = 19.0
     Generated by new atomic code, or converted to UPF format
     Using radial grid of  887 points,  6 beta functions with: 
                l(1) =   0
                l(2) =   0
                l(3) =   1
                l(4) =   1
                l(5) =   2
                l(6) =   2
     Q(r) pseudized with  6 coefficients,  rinner =    1.300   1.300   1.300
                                                       1.300   1.300

     PseudoPot. # 2 for C  read from file:
     /home/mamunm/src/pseudo/gbrv1.5pbe/C.UPF
     MD5 check sum: d1aef80898a10debaa0f26306b886e00
     Pseudo is Ultrasoft + core correction, Zval =  4.0
     Generated by new atomic code, or converted to UPF format
     Using radial grid of  721 points,  4 beta functions with: 
                l(1) =   0
                l(2) =   0
                l(3) =   1
                l(4) =   1
     Q(r) pseudized with  8 coefficients,  rinner =    1.100   1.100   1.100


     PseudoPot. # 3 for H  read from file:
     /home/mamunm/src/pseudo/gbrv1.5pbe/H.UPF
     MD5 check sum: 761ae9a214b05c3daf00ab9f6b793d6f
     Pseudo is Ultrasoft, Zval =  1.0
     Generated by new atomic code, or converted to UPF format
     Using radial grid of  615 points,  2 beta functions with: 
                l(1) =   0
                l(2) =   0
     Q(r) pseudized with  8 coefficients,  rinner =    0.700

     vdW kernel table read from file vdW_kernel_table
     MD5 check sum: 095c7af220d748ca6e76c0b4c6cfb241

     atomic species   valence    mass     pseudopotential
        Ag1           19.00   107.86820     Ag( 1.00)
        C1             4.00    12.01100     C ( 1.00)
        H1             1.00     1.00800     H ( 1.00)

     No symmetry found



   Cartesian axes

     site n.     atom                  positions (alat units)
         1           Ag1 tau(   1) = (   1.4916366   0.8611968  10.0000000  )
         2           Ag1 tau(   2) = (   4.4749098   0.8611968  10.0000000  )
         3           Ag1 tau(   3) = (   2.9832732   3.4447871  10.0000000  )
         4           Ag1 tau(   4) = (   5.9665464   3.4447871  10.0000000  )
         5           Ag1 tau(   5) = (   5.9665464   1.7223936  12.4358324  )
         6           Ag1 tau(   6) = (   2.9832732   1.7223936  12.4358324  )
         7           Ag1 tau(   7) = (   7.4581830   4.3059839  12.4358324  )
         8           Ag1 tau(   8) = (   4.4749098   4.3059839  12.4358324  )
         9           Ag1 tau(   9) = (   0.0000000   0.0000000  14.8716647  )
        10           Ag1 tau(  10) = (   2.9832732   0.0000000  14.8716647  )
        11           Ag1 tau(  11) = (   1.4916366   2.5835904  14.8716647  )
        12           Ag1 tau(  12) = (   4.4749098   2.5835904  14.8716647  )
        13           C1  tau(  13) = (   0.0000000   0.0000000  16.7501647  )
        14           H1  tau(  14) = (   1.0900000   0.0000000  17.3801647  )
        15           H1  tau(  15) = (   5.5165464   0.8895000  17.3801647  )
        16           H1  tau(  16) = (   2.5332732   4.2776807  17.3801647  )

     number of k points=    20  Fermi-Dirac smearing, width (Ry)=  0.0110
                       cart. coord. in units 2pi/alat
        k(    1) = (   0.0000000   0.0000000   0.0000000), wk =   0.0555556
        k(    2) = (   0.0000000   0.0322549   0.0000000), wk =   0.1111111
        k(    3) = (   0.0000000   0.0645097   0.0000000), wk =   0.1111111
        k(    4) = (   0.0000000  -0.0967646   0.0000000), wk =   0.0555556
        k(    5) = (   0.0279335  -0.0161274   0.0000000), wk =   0.1111111
        k(    6) = (   0.0279335   0.0161274   0.0000000), wk =   0.1111111
        k(    7) = (   0.0279335   0.0483823   0.0000000), wk =   0.1111111
        k(    8) = (   0.0279335  -0.1128920   0.0000000), wk =   0.1111111
        k(    9) = (   0.0279335  -0.0806371   0.0000000), wk =   0.1111111
        k(   10) = (   0.0279335  -0.0483823   0.0000000), wk =   0.1111111
        k(   11) = (   0.0558670  -0.0322549   0.0000000), wk =   0.1111111
        k(   12) = (   0.0558670   0.0000000   0.0000000), wk =   0.1111111
        k(   13) = (   0.0558670   0.0322549   0.0000000), wk =   0.1111111
        k(   14) = (   0.0558670  -0.1290194   0.0000000), wk =   0.1111111
        k(   15) = (   0.0558670  -0.0967646   0.0000000), wk =   0.1111111
        k(   16) = (   0.0558670  -0.0645097   0.0000000), wk =   0.1111111
        k(   17) = (  -0.0838006   0.0483823   0.0000000), wk =   0.0555556
        k(   18) = (  -0.0838006   0.0806371   0.0000000), wk =   0.1111111
        k(   19) = (  -0.0838006   0.1128920   0.0000000), wk =   0.1111111
        k(   20) = (  -0.0838006  -0.0483823   0.0000000), wk =   0.0555556

     Dense  grid:   615719 G-vectors     FFT dimensions: (  72,  72, 288)

     Smooth grid:   155893 G-vectors     FFT dimensions: (  45,  45, 192)

     Largest allocated arrays     est. size (Mb)     dimensions
        Kohn-Sham Wavefunctions         2.41 Mb     (    1246,  127)
        NL pseudopotentials             4.37 Mb     (    1246,  230)
        Each V/rho on FFT grid          1.42 Mb     (   93312)
        Each G-vector array             0.29 Mb     (   38479)
        G-vector shells                 0.11 Mb     (   14983)
     Largest temporary arrays     est. size (Mb)     dimensions
        Auxiliary wavefunctions         9.66 Mb     (    1246,  508)
        Each subspace H/S matrix        3.94 Mb     (     508,  508)
        Each <psi_i|beta_j> matrix      0.45 Mb     (     230,  127)
        Arrays for rho mixing          14.24 Mb     (   93312,   10)

     Initial potential from superposition of free atoms
     Check: negative starting charge=   -0.001906

     starting charge  228.99936, renormalised to  235.00000

     negative rho (up, down):  1.956E-03 0.000E+00


     ************************************************************************
     *
     * You are using vdW-DF for exchange-correlation in this calculation.
     * Please cite the following three references that made this development
     * possible:
     *
     *   M. Dion, H. Rydberg, E. Schroder, D. C. Langreth, and
     *   B. I. Lundqvist, Phys. Rev. Lett. 92, 246401 (2004).
     *
     *   T. Thonhauser, V. R. Cooper, S. Li, A. Puzder, P. Hyldgaard, and
     *   D. C. Langreth, Phys. Rev. B 76, 125112 (2007).
     *
     *   G. Roman-Perez and J. M. Soler, Phys. Rev. Lett. 103, 096102 (2009).
     *
     *
     * If you are using vdW-DF2, please also cite:
     *
     *   K. Lee, E. D. Murray, L. Kong, B. I. Lundqvist, and
     *   D. C. Langreth, Phys. Rev. B 82, 081101(R) (2010).
     *
     *
     * If you are calculating the stress with vdW-DF, please also cite:
     *
     *   R. Sabatini, E. Kucukbenli, B. Kolb, T. Thonhauser, and
     *   S. de Gironcoli, J. Phys.: Condens. Matter 24, 424209 (2012).
     *
     ************************************************************************

     Carrying out vdW-DF run using the following parameters:

     Nqs =      20    Nr_points =    1024   r_max =   100.000
     q_mesh =
               0.00001000     0.04494208     0.09755937     0.15916263
               0.23128650     0.31572767     0.41458969     0.53033537
               0.66584808     0.82450364     1.01025438     1.22772762
               1.48234092     1.78043706     2.12944203     2.53805004
               3.01644009     3.57652955     4.23227104     5.00000000

     Gradients computed in reciprocal space

     ************************************************************************


 
     Adding external electric field

     Computed dipole along edir(3) : 
        Dipole               -1.5885 Ry au,         -4.0374 Debye
        Dipole field         -0.0039 Ry au
 
        Potential amp.        0.3535 Ry
        Total length         45.8256 bohr
 
     Starting wfc are  163 randomized atomic wfcs

     total cpu time spent up to now is       10.4 secs

     Self-consistent Calculation

     iteration #  1     ecut=    36.75 Ry     beta=0.30
     Davidson diagonalization with overlap
     ethr =  1.00E-02,  avg # of iterations =  5.3

     negative rho (up, down):  9.477E-04 0.000E+00
 
     Adding external electric field

     Computed dipole along edir(3) : 
        Dipole               14.2333 Ry au,         36.1775 Debye
        Dipole field          0.0346 Ry au
 
        Potential amp.       -3.1679 Ry
        Total length         45.8256 bohr
 

     total cpu time spent up to now is       37.9 secs

     total energy              =   -3560.57837130 Ry
     Harris-Foulkes estimate   =   -3578.10722156 Ry
     estimated scf accuracy    <      37.67026280 Ry

     iteration #  2     ecut=    36.75 Ry     beta=0.30
     Davidson diagonalization with overlap
     ethr =  1.00E-02,  avg # of iterations =  9.5

     negative rho (up, down):  1.114E-05 0.000E+00
 
     Adding external electric field

     Computed dipole along edir(3) : 
        Dipole               -0.0891 Ry au,         -0.2264 Debye
        Dipole field         -0.0002 Ry au
 
        Potential amp.        0.0198 Ry
        Total length         45.8256 bohr
 

     total cpu time spent up to now is       85.9 secs

     total energy              =   -3518.97933992 Ry
     Harris-Foulkes estimate   =   -3656.37438216 Ry
     estimated scf accuracy    <    4474.16841899 Ry

     iteration #  3     ecut=    36.75 Ry     beta=0.30
     Davidson diagonalization with overlap
     ethr =  1.00E-02,  avg # of iterations =  9.6

     negative rho (up, down):  9.059E-05 0.000E+00
 
     Adding external electric field

     Computed dipole along edir(3) : 
        Dipole                1.1175 Ry au,          2.8404 Debye
        Dipole field          0.0027 Ry au
 
        Potential amp.       -0.2487 Ry
        Total length         45.8256 bohr
 

     total cpu time spent up to now is      134.0 secs

     total energy              =   -3567.73991002 Ry
     Harris-Foulkes estimate   =   -3579.53877408 Ry
     estimated scf accuracy    <     118.52221894 Ry

     iteration #  4     ecut=    36.75 Ry     beta=0.30
     Davidson diagonalization with overlap
     ethr =  1.00E-02,  avg # of iterations =  3.0

     negative rho (up, down):  1.519E-02 0.000E+00
 
     Adding external electric field

     Computed dipole along edir(3) : 
        Dipole                1.0215 Ry au,          2.5963 Debye
        Dipole field          0.0025 Ry au
 
        Potential amp.       -0.2273 Ry
        Total length         45.8256 bohr
 

     total cpu time spent up to now is      156.6 secs

     total energy              =   -3574.27893659 Ry
     Harris-Foulkes estimate   =   -3574.73950308 Ry
     estimated scf accuracy    <       1.31498071 Ry

     iteration #  5     ecut=    36.75 Ry     beta=0.30
     Davidson diagonalization with overlap
     ethr =  5.60E-04,  avg # of iterations =  4.7

     negative rho (up, down):  7.028E-05 0.000E+00
 
     Adding external electric field

     Computed dipole along edir(3) : 
        Dipole                0.2399 Ry au,          0.6098 Debye
        Dipole field          0.0006 Ry au
 
        Potential amp.       -0.0534 Ry
        Total length         45.8256 bohr
 

     total cpu time spent up to now is      184.9 secs

     total energy              =   -3574.93057090 Ry
     Harris-Foulkes estimate   =   -3575.04903633 Ry
     estimated scf accuracy    <       0.76559937 Ry

     iteration #  6     ecut=    36.75 Ry     beta=0.30
     Davidson diagonalization with overlap
     ethr =  3.26E-04,  avg # of iterations =  2.2

     negative rho (up, down):  9.131E-05 0.000E+00
 
     Adding external electric field

     Computed dipole along edir(3) : 
        Dipole               -0.3294 Ry au,         -0.8371 Debye
        Dipole field         -0.0008 Ry au
 
        Potential amp.        0.0733 Ry
        Total length         45.8256 bohr
 

     total cpu time spent up to now is      204.1 secs

     total energy              =   -3574.90998615 Ry
     Harris-Foulkes estimate   =   -3574.96111966 Ry
     estimated scf accuracy    <       0.13781455 Ry

     iteration #  7     ecut=    36.75 Ry     beta=0.30
     Davidson diagonalization with overlap
     ethr =  5.86E-05,  avg # of iterations =  5.7

     negative rho (up, down):  1.456E-04 0.000E+00
 
     Adding external electric field

     Computed dipole along edir(3) : 
        Dipole               -0.4884 Ry au,         -1.2415 Debye
        Dipole field         -0.0012 Ry au
 
        Potential amp.        0.1087 Ry
        Total length         45.8256 bohr
 

     total cpu time spent up to now is      231.9 secs

     total energy              =   -3574.92146690 Ry
     Harris-Foulkes estimate   =   -3574.92976599 Ry
     estimated scf accuracy    <       0.03168566 Ry

     iteration #  8     ecut=    36.75 Ry     beta=0.30
     Davidson diagonalization with overlap
     ethr =  1.35E-05,  avg # of iterations =  7.1

     negative rho (up, down):  2.381E-04 0.000E+00
 
     Adding external electric field

     Computed dipole along edir(3) : 
        Dipole               -0.4018 Ry au,         -1.0212 Debye
        Dipole field         -0.0010 Ry au
 
        Potential amp.        0.0894 Ry
        Total length         45.8256 bohr
 

     total cpu time spent up to now is      258.2 secs

     total energy              =   -3574.91969798 Ry
     Harris-Foulkes estimate   =   -3574.92323476 Ry
     estimated scf accuracy    <       0.01356524 Ry

     iteration #  9     ecut=    36.75 Ry     beta=0.30
     Davidson diagonalization with overlap
     ethr =  5.77E-06,  avg # of iterations =  5.9

     negative rho (up, down):  3.844E-04 0.000E+00
 
     Adding external electric field

     Computed dipole along edir(3) : 
        Dipole               -0.4499 Ry au,         -1.1436 Debye
        Dipole field         -0.0011 Ry au
 
        Potential amp.        0.1001 Ry
        Total length         45.8256 bohr
 

     total cpu time spent up to now is      285.4 secs

     total energy              =   -3574.92012609 Ry
     Harris-Foulkes estimate   =   -3574.92087679 Ry
     estimated scf accuracy    <       0.01120378 Ry

     iteration # 10     ecut=    36.75 Ry     beta=0.30
     Davidson diagonalization with overlap
     ethr =  4.77E-06,  avg # of iterations =  2.7

     negative rho (up, down):  5.312E-04 0.000E+00
 
     Adding external electric field

     Computed dipole along edir(3) : 
        Dipole               -0.3700 Ry au,         -0.9403 Debye
        Dipole field         -0.0009 Ry au
 
        Potential amp.        0.0823 Ry
        Total length         45.8256 bohr
 

     total cpu time spent up to now is      305.5 secs

     total energy              =   -3574.92006176 Ry
     Harris-Foulkes estimate   =   -3574.92066675 Ry
     estimated scf accuracy    <       0.00589348 Ry

     iteration # 11     ecut=    36.75 Ry     beta=0.30
     Davidson diagonalization with overlap
     ethr =  2.51E-06,  avg # of iterations =  6.7

     negative rho (up, down):  6.873E-04 0.000E+00
 
     Adding external electric field

     Computed dipole along edir(3) : 
        Dipole               -0.3088 Ry au,         -0.7849 Debye
        Dipole field         -0.0007 Ry au
 
        Potential amp.        0.0687 Ry
        Total length         45.8256 bohr
 

     total cpu time spent up to now is      330.0 secs

     total energy              =   -3574.91980827 Ry
     Harris-Foulkes estimate   =   -3574.92021624 Ry
     estimated scf accuracy    <       0.00366082 Ry

     iteration # 12     ecut=    36.75 Ry     beta=0.30
     Davidson diagonalization with overlap
     ethr =  1.56E-06,  avg # of iterations =  5.2

     negative rho (up, down):  7.257E-04 0.000E+00
 
     Adding external electric field

     Computed dipole along edir(3) : 
        Dipole               -0.2830 Ry au,         -0.7193 Debye
        Dipole field         -0.0007 Ry au
 
        Potential amp.        0.0630 Ry
        Total length         45.8256 bohr
 

     total cpu time spent up to now is      352.7 secs

     total energy              =   -3574.91974005 Ry
     Harris-Foulkes estimate   =   -3574.91986696 Ry
     estimated scf accuracy    <       0.00274349 Ry

     iteration # 13     ecut=    36.75 Ry     beta=0.30
     Davidson diagonalization with overlap
     ethr =  1.17E-06,  avg # of iterations =  1.0

     negative rho (up, down):  1.894E-03 0.000E+00
 
     Adding external electric field

     Computed dipole along edir(3) : 
        Dipole               -0.0288 Ry au,         -0.0733 Debye
        Dipole field         -0.0001 Ry au
 
        Potential amp.        0.0064 Ry
        Total length         45.8256 bohr
 

     total cpu time spent up to now is      370.5 secs

     total energy              =   -3574.91935000 Ry
     Harris-Foulkes estimate   =   -3574.91993583 Ry
     estimated scf accuracy    <       0.00232672 Ry

     iteration # 14     ecut=    36.75 Ry     beta=0.30
     Davidson diagonalization with overlap
     ethr =  9.90E-07,  avg # of iterations =  6.0

     negative rho (up, down):  2.041E-03 0.000E+00
 
     Adding external electric field

     Computed dipole along edir(3) : 
        Dipole               -0.0045 Ry au,         -0.0114 Debye
        Dipole field         -0.0000 Ry au
 
        Potential amp.        0.0010 Ry
        Total length         45.8256 bohr
 

     total cpu time spent up to now is      395.6 secs

     total energy              =   -3574.91954634 Ry
     Harris-Foulkes estimate   =   -3574.91954356 Ry
     estimated scf accuracy    <       0.00002492 Ry

     iteration # 15     ecut=    36.75 Ry     beta=0.30
     Davidson diagonalization with overlap
     ethr =  1.06E-08,  avg # of iterations =  3.0

     negative rho (up, down):  1.968E-03 0.000E+00

     negative rho (up, down):  1.968E-03 0.000E+00

     negative rho (up, down):  1.968E-03 0.000E+00

     negative rho (up, down):  1.968E-03 0.000E+00

     negative rho (up, down):  1.968E-03 0.000E+00

     negative rho (up, down):  1.968E-03 0.000E+00

     negative rho (up, down):  1.968E-03 0.000E+00

     negative rho (up, down):  1.968E-03 0.000E+00

     negative rho (up, down):  1.968E-03 0.000E+00

     negative rho (up, down):  1.968E-03 0.000E+00

     negative rho (up, down):  1.968E-03 0.000E+00

     negative rho (up, down):  1.968E-03 0.000E+00

     negative rho (up, down):  1.968E-03 0.000E+00

     negative rho (up, down):  1.968E-03 0.000E+00

     negative rho (up, down):  1.968E-03 0.000E+00

     negative rho (up, down):  1.968E-03 0.000E+00

     negative rho (up, down):  1.968E-03 0.000E+00

     negative rho (up, down):  1.968E-03 0.000E+00

     negative rho (up, down):  1.968E-03 0.000E+00

     negative rho (up, down):  1.968E-03 0.000E+00

     negative rho (up, down):  1.968E-03 0.000E+00

     negative rho (up, down):  1.968E-03 0.000E+00

     negative rho (up, down):  1.968E-03 0.000E+00

     negative rho (up, down):  1.968E-03 0.000E+00

     negative rho (up, down):  1.968E-03 0.000E+00

     negative rho (up, down):  1.968E-03 0.000E+00

     negative rho (up, down):  1.968E-03 0.000E+00

     negative rho (up, down):  1.968E-03 0.000E+00

     negative rho (up, down):  1.968E-03 0.000E+00

     negative rho (up, down):  1.968E-03 0.000E+00

     negative rho (up, down):  1.968E-03 0.000E+00

     negative rho (up, down):  1.968E-03 0.000E+00

     negative rho (up, down):  1.968E-03 0.000E+00

     negative rho (up, down):  1.968E-03 0.000E+00

     negative rho (up, down):  1.968E-03 0.000E+00
 
     Adding external electric field

     Computed dipole along edir(3) : 
        Dipole               -0.0086 Ry au,         -0.0218 Debye
        Dipole field         -0.0000 Ry au
 
        Potential amp.        0.0019 Ry
        Total length         45.8256 bohr
 

     total cpu time spent up to now is      434.5 secs

     End of self-consistent calculation

          k = 0.0000 0.0000 0.0000 ( 19435 PWs)   bands (ev):

   -91.1092 -90.6296 -90.6058 -90.6013 -90.6002 -90.4478 -90.4192 -90.4142
   -90.4135 -90.3807 -90.3758 -90.3753 -54.7759 -54.5117 -54.5111 -54.1559
   -54.1556 -54.1414 -54.1282 -54.1034 -54.0992 -54.0981 -54.0892 -54.0891
   -54.0824 -54.0624 -54.0620 -53.9724 -53.9639 -53.9637 -53.9341 -53.9340
   -53.9334 -53.9199 -53.9028 -53.8976 -53.8971 -53.8961 -53.8950 -53.8947
   -53.8850 -53.8848 -53.8668 -53.8586 -53.8535 -53.8529 -53.8469 -53.8467
   -10.6105  -5.1073  -4.9083  -4.5477  -4.4816  -4.3487  -4.3400  -4.3267
    -4.2863  -4.2465  -4.2463  -4.1944  -4.1265  -4.0111  -4.0070  -4.0008
    -3.9089  -3.8811  -3.8529  -3.3579  -3.2942  -3.2937  -3.2343  -3.1775
    -3.1774  -3.1002  -3.0979  -3.0951  -3.0384  -3.0322  -2.9638  -2.9255
    -2.9254  -2.8171  -2.7149  -2.4332  -2.4326  -2.4215  -2.3613  -2.3521
    -2.3420  -2.3097  -2.2954  -2.1405  -2.1105  -2.1070  -1.9635  -1.9620
    -1.9212  -1.8801  -1.8482  -1.8239  -1.8108  -1.8039  -1.7693  -1.7424
    -1.7146  -1.7053  -1.6860  -1.6497  -1.6494  -1.5293  -1.4983  -1.4980
    -1.4749  -0.2882   1.2570   1.8989   1.9540   1.9577   2.3971   2.6472
     2.7330   2.7394   3.0715   3.1708   3.1770   4.8099   4.9950

          k = 0.0000 0.0323 0.0000 ( 19455 PWs)   bands (ev):

   -91.1092 -90.6295 -90.6056 -90.6016 -90.6003 -90.4478 -90.4188 -90.4145
   -90.4135 -90.3804 -90.3761 -90.3753 -54.7759 -54.5115 -54.5107 -54.1534
   -54.1510 -54.1377 -54.1279 -54.1029 -54.1001 -54.0983 -54.0921 -54.0894
   -54.0837 -54.0674 -54.0633 -53.9688 -53.9623 -53.9603 -53.9341 -53.9333
   -53.9317 -53.9163 -53.9024 -53.8993 -53.8987 -53.8977 -53.8970 -53.8950
   -53.8874 -53.8841 -53.8684 -53.8583 -53.8540 -53.8530 -53.8516 -53.8477
   -10.6079  -5.0091  -4.8144  -4.5064  -4.4340  -4.2860  -4.2489  -4.2411
    -4.2026  -4.1851  -4.1636  -4.0908  -4.0478  -3.9536  -3.9179  -3.9116
    -3.8724  -3.8183  -3.7953  -3.3487  -3.2652  -3.2641  -3.2203  -3.2134
    -3.1823  -3.1035  -3.0972  -3.0649  -3.0249  -3.0170  -2.9660  -2.9560
    -2.8674  -2.8489  -2.7244  -2.6193  -2.5075  -2.5000  -2.3945  -2.3863
    -2.3496  -2.3117  -2.3000  -2.2311  -2.1611  -2.1158  -2.0555  -2.0025
    -1.9782  -1.9258  -1.9042  -1.8825  -1.8670  -1.8454  -1.8251  -1.8002
    -1.7824  -1.7717  -1.7485  -1.7353  -1.7096  -1.6386  -1.6188  -1.5872
    -1.5795  -0.1752   0.4026   1.2476   1.5167   1.5764   1.8622   2.5173
     2.7683   2.8730   3.7021   3.7943   3.9895   5.0041   5.3305

          k = 0.0000 0.0645 0.0000 ( 19481 PWs)   bands (ev):

   -91.1092 -90.6294 -90.6049 -90.6022 -90.6004 -90.4478 -90.4179 -90.4154
   -90.4135 -90.3796 -90.3770 -90.3753 -54.7759 -54.5112 -54.5098 -54.1476
   -54.1392 -54.1285 -54.1271 -54.1047 -54.1016 -54.0988 -54.0978 -54.0927
   -54.0833 -54.0806 -54.0661 -53.9601 -53.9590 -53.9521 -53.9336 -53.9332
   -53.9251 -53.9099 -53.9085 -53.9056 -53.9015 -53.8987 -53.8970 -53.8953
   -53.8911 -53.8820 -53.8720 -53.8646 -53.8574 -53.8546 -53.8530 -53.8498
   -10.6028  -4.9235  -4.4240  -4.4116  -4.3471  -4.1492  -4.0731  -4.0106
    -4.0028  -3.9688  -3.9625  -3.8973  -3.8733  -3.8166  -3.7736  -3.7535
    -3.6705  -3.6162  -3.5497  -3.3774  -3.3530  -3.3129  -3.2457  -3.1933
    -3.1364  -3.0919  -3.0864  -2.9924  -2.9652  -2.9534  -2.9224  -2.8894
    -2.8646  -2.8296  -2.8220  -2.7417  -2.6487  -2.6288  -2.5548  -2.4609
    -2.4518  -2.4237  -2.3944  -2.3534  -2.3382  -2.2912  -2.2782  -2.2121
    -2.1768  -2.1478  -2.1331  -2.1064  -2.0846  -2.0612  -2.0442  -1.9849
    -1.9232  -1.8943  -1.8274  -1.7998  -1.7571  -1.7010  -1.6816  -1.6228
    -1.4954  -1.1934  -0.1643   0.5448   1.1924   1.2849   1.6362   2.5209
     2.6413   3.0318   3.5648   4.6631   4.7663   5.3689   5.6421

          k = 0.0000-0.0968 0.0000 ( 19500 PWs)   bands (ev):

   -91.1092 -90.6293 -90.6044 -90.6028 -90.6005 -90.4477 -90.4170 -90.4163
   -90.4135 -90.3788 -90.3778 -90.3753 -54.7759 -54.5111 -54.5093 -54.1442
   -54.1273 -54.1271 -54.1255 -54.1059 -54.1042 -54.0999 -54.0979 -54.0946
   -54.0918 -54.0821 -54.0677 -53.9572 -53.9546 -53.9470 -53.9332 -53.9312
   -53.9182 -53.9179 -53.9130 -53.9070 -53.9005 -53.8995 -53.8970 -53.8954
   -53.8843 -53.8806 -53.8781 -53.8743 -53.8565 -53.8554 -53.8531 -53.8509
   -10.6002  -4.8992  -4.3593  -4.3036  -4.1092  -4.0518  -3.9830  -3.9447
    -3.9113  -3.8463  -3.7973  -3.7485  -3.6954  -3.6674  -3.6504  -3.6113
    -3.5605  -3.5499  -3.4793  -3.4697  -3.2551  -3.2485  -3.2459  -3.2215
    -3.1776  -3.1746  -3.1041  -2.9998  -2.9527  -2.8817  -2.8690  -2.8590
    -2.8277  -2.8021  -2.7311  -2.7112  -2.6396  -2.6176  -2.5939  -2.5828
    -2.5742  -2.5472  -2.5441  -2.4642  -2.4362  -2.4176  -2.3832  -2.3735
    -2.3407  -2.3044  -2.2999  -2.2687  -2.2193  -2.1917  -2.1612  -2.1168
    -2.0855  -2.0226  -1.9360  -1.8419  -1.8045  -1.7734  -1.6957  -1.6783
    -1.6272  -1.1611  -0.6909   0.4878   1.1371   1.2091   1.7416   2.1673
     2.5845   3.0871   4.2731   4.2856   4.7741   5.4405   5.7151

          k = 0.0279-0.0161 0.0000 ( 19455 PWs)   bands (ev):

   -91.1092 -90.6295 -90.6056 -90.6016 -90.6003 -90.4478 -90.4189 -90.4142
   -90.4137 -90.3804 -90.3758 -90.3755 -54.7759 -54.5113 -54.5108 -54.1533
   -54.1511 -54.1377 -54.1279 -54.1029 -54.1002 -54.0982 -54.0923 -54.0893
   -54.0838 -54.0675 -54.0633 -53.9688 -53.9621 -53.9604 -53.9341 -53.9333
   -53.9316 -53.9163 -53.9025 -53.8992 -53.8983 -53.8975 -53.8972 -53.8956
   -53.8876 -53.8839 -53.8684 -53.8583 -53.8536 -53.8533 -53.8513 -53.8480
   -10.6079  -5.0091  -4.8141  -4.5115  -4.4308  -4.2786  -4.2492  -4.2454
    -4.2020  -4.1848  -4.1638  -4.0904  -4.0478  -3.9497  -3.9261  -3.9125
    -3.8596  -3.8274  -3.7917  -3.3486  -3.2669  -3.2636  -3.2203  -3.2129
    -3.1815  -3.1044  -3.0966  -3.0720  -3.0217  -3.0171  -2.9668  -2.9560
    -2.8502  -2.8334  -2.7624  -2.6188  -2.5053  -2.5025  -2.3985  -2.3723
    -2.3537  -2.3209  -2.2941  -2.2302  -2.1610  -2.1168  -2.0532  -2.0157
    -1.9604  -1.9150  -1.9066  -1.8831  -1.8677  -1.8498  -1.8254  -1.8081
    -1.7859  -1.7763  -1.7580  -1.7185  -1.7077  -1.6446  -1.6156  -1.5890
    -1.5805  -0.1760   0.4087   1.2538   1.5173   1.5729   1.8664   2.5244
     2.7572   2.8752   3.7054   3.7923   3.9896   4.9999   5.3363

          k = 0.0279 0.0161 0.0000 ( 19455 PWs)   bands (ev):

   -91.1092 -90.6295 -90.6056 -90.6013 -90.6005 -90.4478 -90.4189 -90.4143
   -90.4137 -90.3804 -90.3760 -90.3754 -54.7759 -54.5113 -54.5108 -54.1530
   -54.1514 -54.1377 -54.1279 -54.1030 -54.0993 -54.0992 -54.0920 -54.0897
   -54.0834 -54.0671 -54.0636 -53.9688 -53.9622 -53.9603 -53.9341 -53.9333
   -53.9316 -53.9163 -53.9025 -53.8992 -53.8982 -53.8977 -53.8973 -53.8954
   -53.8875 -53.8840 -53.8684 -53.8583 -53.8538 -53.8531 -53.8514 -53.8478
   -10.6079  -5.0090  -4.8141  -4.5115  -4.4312  -4.2793  -4.2483  -4.2454
    -4.2028  -4.1848  -4.1635  -4.0905  -4.0478  -3.9497  -3.9222  -3.9147
    -3.8629  -3.8218  -3.7950  -3.3486  -3.2667  -3.2635  -3.2204  -3.2129
    -3.1809  -3.1046  -3.0970  -3.0722  -3.0210  -3.0178  -2.9665  -2.9560
    -2.8499  -2.8375  -2.7597  -2.6176  -2.5053  -2.5025  -2.4009  -2.3670
    -2.3526  -2.3190  -2.3017  -2.2303  -2.1602  -2.1166  -2.0525  -2.0170
    -1.9619  -1.9210  -1.8952  -1.8842  -1.8664  -1.8604  -1.8215  -1.8077
    -1.7865  -1.7766  -1.7549  -1.7223  -1.7017  -1.6451  -1.6145  -1.5900
    -1.5814  -0.1753   0.4072   1.2546   1.5169   1.5730   1.8665   2.5258
     2.7575   2.8740   3.7029   3.7945   3.9887   5.0059   5.3168

          k = 0.0279 0.0484 0.0000 ( 19453 PWs)   bands (ev):

   -91.1091 -90.6294 -90.6052 -90.6017 -90.6007 -90.4478 -90.4182 -90.4150
   -90.4136 -90.3798 -90.3766 -90.3753 -54.7759 -54.5111 -54.5101 -54.1486
   -54.1430 -54.1312 -54.1274 -54.1039 -54.1020 -54.0987 -54.0968 -54.0884
   -54.0860 -54.0755 -54.0660 -53.9624 -53.9594 -53.9549 -53.9345 -53.9332
   -53.9268 -53.9099 -53.9080 -53.9018 -53.8992 -53.8983 -53.8981 -53.8969
   -53.8917 -53.8818 -53.8718 -53.8595 -53.8576 -53.8542 -53.8530 -53.8499
   -10.6041  -4.9378  -4.5424  -4.4466  -4.3602  -4.1511  -4.1280  -4.0761
    -4.0652  -4.0477  -4.0118  -3.9439  -3.9111  -3.8499  -3.8093  -3.7797
    -3.7447  -3.7147  -3.6111  -3.3620  -3.3133  -3.2928  -3.2282  -3.2190
    -3.1702  -3.1386  -3.0798  -3.0103  -3.0050  -2.9604  -2.9405  -2.9338
    -2.8732  -2.8079  -2.7892  -2.6878  -2.6641  -2.6265  -2.5028  -2.4279
    -2.4115  -2.3886  -2.3699  -2.3358  -2.2515  -2.2102  -2.1671  -2.1626
    -2.1304  -2.0975  -2.0694  -2.0368  -2.0209  -1.9958  -1.9726  -1.9266
    -1.8654  -1.8322  -1.8191  -1.8005  -1.7531  -1.7237  -1.7005  -1.6773
    -1.5455  -0.2079  -0.1798   0.0011   1.0691   1.1670   1.9196   2.8667
     3.0490   3.3319   3.5080   4.0012   4.1450   5.2607   5.4913

          k = 0.0279-0.1129 0.0000 ( 19479 PWs)   bands (ev):

   -91.1091 -90.6293 -90.6045 -90.6026 -90.6006 -90.4477 -90.4172 -90.4160
   -90.4136 -90.3789 -90.3776 -90.3753 -54.7759 -54.5108 -54.5095 -54.1424
   -54.1312 -54.1272 -54.1226 -54.1110 -54.1022 -54.0999 -54.0982 -54.0939
   -54.0869 -54.0830 -54.0694 -53.9558 -53.9532 -53.9490 -53.9354 -53.9331
   -53.9184 -53.9178 -53.9069 -53.9034 -53.9007 -53.8993 -53.8985 -53.8970
   -53.8921 -53.8811 -53.8762 -53.8691 -53.8566 -53.8553 -53.8536 -53.8522
   -10.6002  -4.8984  -4.3718  -4.2915  -4.1028  -3.9807  -3.9454  -3.8950
    -3.8781  -3.8425  -3.8099  -3.7848  -3.7502  -3.6954  -3.6414  -3.6127
    -3.5423  -3.5216  -3.4926  -3.4500  -3.3831  -3.2686  -3.2450  -3.1933
    -3.1682  -3.1432  -3.1105  -3.0462  -2.9958  -2.9829  -2.9487  -2.9322
    -2.8980  -2.8495  -2.8061  -2.7436  -2.7052  -2.6519  -2.6174  -2.5893
    -2.5515  -2.5287  -2.5137  -2.4780  -2.4414  -2.3989  -2.3724  -2.3510
    -2.3260  -2.2456  -2.2312  -2.1896  -2.1425  -2.1159  -2.0921  -2.0327
    -1.9817  -1.9380  -1.8565  -1.8344  -1.8099  -1.7579  -1.7418  -1.7032
    -1.4631  -1.1796  -0.3680  -0.2822   0.4591   1.1391   1.8738   2.7053
     2.9678   3.6366   4.0737   4.3943   4.9909   5.2021   5.6962

          k = 0.0279-0.0806 0.0000 ( 19479 PWs)   bands (ev):

   -91.1091 -90.6293 -90.6043 -90.6030 -90.6004 -90.4477 -90.4172 -90.4160
   -90.4136 -90.3790 -90.3775 -90.3754 -54.7759 -54.5108 -54.5095 -54.1424
   -54.1314 -54.1272 -54.1225 -54.1104 -54.1028 -54.0997 -54.0977 -54.0948
   -54.0870 -54.0828 -54.0693 -53.9557 -53.9533 -53.9490 -53.9354 -53.9331
   -53.9185 -53.9177 -53.9070 -53.9034 -53.9007 -53.8993 -53.8985 -53.8970
   -53.8924 -53.8807 -53.8761 -53.8692 -53.8567 -53.8552 -53.8536 -53.8523
   -10.6002  -4.8986  -4.3714  -4.2914  -4.1032  -3.9806  -3.9447  -3.8937
    -3.8782  -3.8446  -3.8082  -3.7844  -3.7520  -3.6966  -3.6450  -3.6103
    -3.5417  -3.5198  -3.4908  -3.4518  -3.3842  -3.2662  -3.2415  -3.1955
    -3.1687  -3.1424  -3.1119  -3.0455  -3.0020  -2.9817  -2.9491  -2.9296
    -2.8976  -2.8498  -2.8056  -2.7426  -2.7051  -2.6510  -2.6179  -2.5893
    -2.5509  -2.5334  -2.5148  -2.4786  -2.4390  -2.3966  -2.3737  -2.3501
    -2.3256  -2.2460  -2.2332  -2.1893  -2.1407  -2.1192  -2.0922  -2.0305
    -1.9793  -1.9382  -1.8559  -1.8351  -1.8091  -1.7549  -1.7413  -1.7047
    -1.4661  -1.1814  -0.3675  -0.2812   0.4591   1.1390   1.8736   2.7051
     2.9680   3.6373   4.0715   4.3956   4.9740   5.2297   5.6997

          k = 0.0279-0.0484 0.0000 ( 19453 PWs)   bands (ev):

   -91.1091 -90.6294 -90.6050 -90.6022 -90.6003 -90.4478 -90.4183 -90.4149
   -90.4136 -90.3799 -90.3765 -90.3754 -54.7759 -54.5111 -54.5101 -54.1488
   -54.1429 -54.1310 -54.1274 -54.1041 -54.1018 -54.0979 -54.0972 -54.0885
   -54.0865 -54.0757 -54.0657 -53.9624 -53.9593 -53.9550 -53.9345 -53.9332
   -53.9267 -53.9100 -53.9080 -53.9018 -53.8991 -53.8983 -53.8981 -53.8971
   -53.8919 -53.8816 -53.8716 -53.8595 -53.8577 -53.8541 -53.8531 -53.8500
   -10.6041  -4.9380  -4.5424  -4.4463  -4.3593  -4.1507  -4.1287  -4.0760
    -4.0653  -4.0472  -4.0118  -3.9437  -3.9119  -3.8523  -3.8114  -3.7730
    -3.7427  -3.7213  -3.6092  -3.3620  -3.3133  -3.2929  -3.2298  -3.2183
    -3.1701  -3.1384  -3.0786  -3.0098  -3.0054  -2.9615  -2.9403  -2.9341
    -2.8718  -2.8072  -2.7902  -2.6881  -2.6633  -2.6280  -2.5053  -2.4271
    -2.4093  -2.3898  -2.3679  -2.3360  -2.2530  -2.2101  -2.1674  -2.1611
    -2.1314  -2.0904  -2.0752  -2.0396  -2.0189  -1.9958  -1.9712  -1.9266
    -1.8656  -1.8286  -1.8148  -1.8112  -1.7486  -1.7220  -1.7018  -1.6788
    -1.5479  -0.2108  -0.1786   0.0034   1.0689   1.1672   1.9195   2.8708
     3.0428   3.3337   3.5081   3.9806   4.1709   5.2498   5.5009

          k = 0.0559-0.0323 0.0000 ( 19481 PWs)   bands (ev):

   -91.1092 -90.6294 -90.6049 -90.6024 -90.6004 -90.4477 -90.4181 -90.4147
   -90.4140 -90.3798 -90.3764 -90.3757 -54.7759 -54.5108 -54.5101 -54.1475
   -54.1393 -54.1285 -54.1271 -54.1049 -54.1014 -54.0987 -54.0980 -54.0925
   -54.0834 -54.0807 -54.0660 -53.9604 -53.9588 -53.9523 -53.9333 -53.9330
   -53.9251 -53.9099 -53.9087 -53.9051 -53.9016 -53.8982 -53.8973 -53.8959
   -53.8912 -53.8821 -53.8716 -53.8643 -53.8576 -53.8539 -53.8534 -53.8502
   -10.6028  -4.9238  -4.4431  -4.4204  -4.3153  -4.1437  -4.0707  -4.0102
    -4.0048  -3.9666  -3.9633  -3.8946  -3.8709  -3.8086  -3.7799  -3.7526
    -3.6702  -3.6206  -3.5494  -3.3767  -3.3521  -3.3128  -3.2618  -3.1896
    -3.1366  -3.0917  -3.0873  -2.9892  -2.9716  -2.9380  -2.9146  -2.8895
    -2.8709  -2.8374  -2.8213  -2.7352  -2.6697  -2.6429  -2.5523  -2.4645
    -2.4496  -2.4106  -2.3951  -2.3560  -2.3374  -2.2899  -2.2793  -2.2103
    -2.1871  -2.1460  -2.1352  -2.1073  -2.0730  -2.0625  -2.0027  -1.9850
    -1.9222  -1.8944  -1.8599  -1.8105  -1.7581  -1.7374  -1.6799  -1.6252
    -1.4903  -1.1675  -0.1581   0.5570   1.1942   1.2810   1.6400   2.5282
     2.6321   3.0434   3.5684   4.6583   4.7678   5.3837   5.6542

          k = 0.0559 0.0000 0.0000 ( 19453 PWs)   bands (ev):

   -91.1091 -90.6294 -90.6052 -90.6018 -90.6006 -90.4478 -90.4184 -90.4144
   -90.4141 -90.3799 -90.3762 -90.3757 -54.7759 -54.5106 -54.5106 -54.1486
   -54.1431 -54.1311 -54.1274 -54.1040 -54.1019 -54.0986 -54.0969 -54.0884
   -54.0860 -54.0756 -54.0660 -53.9625 -53.9592 -53.9550 -53.9345 -53.9332
   -53.9265 -53.9100 -53.9076 -53.9018 -53.8993 -53.8985 -53.8978 -53.8973
   -53.8921 -53.8814 -53.8715 -53.8594 -53.8577 -53.8538 -53.8534 -53.8502
   -10.6041  -4.9380  -4.5414  -4.4628  -4.3419  -4.1468  -4.1290  -4.0757
    -4.0651  -4.0486  -4.0119  -3.9461  -3.9126  -3.8332  -3.8155  -3.7760
    -3.7451  -3.7204  -3.6114  -3.3639  -3.3133  -3.2936  -3.2286  -3.2200
    -3.1698  -3.1388  -3.0826  -3.0098  -3.0063  -2.9614  -2.9352  -2.9143
    -2.8641  -2.8310  -2.8043  -2.6878  -2.6693  -2.6304  -2.4950  -2.4283
    -2.4124  -2.3972  -2.3673  -2.3294  -2.2513  -2.2100  -2.1697  -2.1642
    -2.1252  -2.1028  -2.0593  -2.0453  -2.0149  -1.9965  -1.9559  -1.9134
    -1.8887  -1.8347  -1.8203  -1.8037  -1.7753  -1.7300  -1.7025  -1.6775
    -1.5223  -0.2028  -0.1826   0.0022   1.0865   1.1607   1.9194   2.8687
     3.0567   3.3372   3.5012   3.9908   4.1583   5.2533   5.4987

          k = 0.0559 0.0323 0.0000 ( 19481 PWs)   bands (ev):

   -91.1092 -90.6294 -90.6052 -90.6013 -90.6011 -90.4477 -90.4181 -90.4148
   -90.4139 -90.3797 -90.3766 -90.3755 -54.7759 -54.5109 -54.5101 -54.1472
   -54.1396 -54.1286 -54.1272 -54.1042 -54.1020 -54.0996 -54.0971 -54.0933
   -54.0826 -54.0801 -54.0666 -53.9604 -53.9589 -53.9522 -53.9333 -53.9331
   -53.9251 -53.9099 -53.9086 -53.9051 -53.9016 -53.8983 -53.8974 -53.8957
   -53.8911 -53.8821 -53.8718 -53.8644 -53.8575 -53.8543 -53.8532 -53.8500
   -10.6029  -4.9235  -4.4421  -4.4213  -4.3176  -4.1427  -4.0715  -4.0107
    -4.0045  -3.9667  -3.9626  -3.8940  -3.8691  -3.8026  -3.7819  -3.7593
    -3.6689  -3.6195  -3.5501  -3.3765  -3.3512  -3.3126  -3.2615  -3.1895
    -3.1363  -3.0917  -3.0875  -2.9884  -2.9745  -2.9372  -2.9146  -2.8892
    -2.8714  -2.8382  -2.8200  -2.7372  -2.6707  -2.6429  -2.5497  -2.4631
    -2.4512  -2.4096  -2.3980  -2.3558  -2.3375  -2.2889  -2.2794  -2.2106
    -2.1869  -2.1446  -2.1365  -2.1076  -2.0763  -2.0651  -1.9964  -1.9826
    -1.9216  -1.8946  -1.8647  -1.8109  -1.7574  -1.7357  -1.6779  -1.6263
    -1.4890  -1.1684  -0.1586   0.5569   1.1944   1.2809   1.6402   2.5279
     2.6323   3.0434   3.5682   4.6611   4.7626   5.3840   5.6637

          k = 0.0559-0.1290 0.0000 ( 19479 PWs)   bands (ev):

   -91.1091 -90.6293 -90.6047 -90.6021 -90.6009 -90.4477 -90.4175 -90.4155
   -90.4138 -90.3791 -90.3774 -90.3755 -54.7759 -54.5106 -54.5097 -54.1421
   -54.1315 -54.1272 -54.1230 -54.1105 -54.1027 -54.0996 -54.0984 -54.0945
   -54.0865 -54.0823 -54.0698 -53.9557 -53.9536 -53.9490 -53.9348 -53.9331
   -53.9189 -53.9176 -53.9064 -53.9036 -53.9009 -53.8992 -53.8989 -53.8971
   -53.8920 -53.8814 -53.8759 -53.8689 -53.8568 -53.8551 -53.8537 -53.8524
   -10.6003  -4.8985  -4.3959  -4.2646  -4.1013  -3.9758  -3.9433  -3.8928
    -3.8776  -3.8403  -3.8095  -3.7768  -3.7433  -3.7088  -3.6490  -3.6104
    -3.5449  -3.5200  -3.4920  -3.4503  -3.3839  -3.2772  -3.2436  -3.1936
    -3.1687  -3.1441  -3.1071  -3.0444  -3.0020  -2.9814  -2.9494  -2.9292
    -2.8985  -2.8502  -2.8055  -2.7483  -2.7104  -2.6486  -2.6182  -2.5875
    -2.5522  -2.5259  -2.5153  -2.4791  -2.4392  -2.4033  -2.3720  -2.3471
    -2.3300  -2.2475  -2.2379  -2.1841  -2.1417  -2.1288  -2.0967  -1.9989
    -1.9601  -1.9380  -1.8848  -1.8362  -1.8098  -1.7827  -1.7464  -1.7057
    -1.4502  -1.1737  -0.3607  -0.2771   0.4619   1.1298   1.8847   2.7081
     2.9673   3.6343   4.0870   4.3890   4.9791   5.2423   5.6917

          k = 0.0559-0.0968 0.0000 ( 19479 PWs)   bands (ev):

   -91.1091 -90.6293 -90.6040 -90.6032 -90.6005 -90.4477 -90.4169 -90.4161
   -90.4138 -90.3785 -90.3779 -90.3755 -54.7758 -54.5103 -54.5097 -54.1339
   -54.1337 -54.1270 -54.1148 -54.1130 -54.1098 -54.0993 -54.0985 -54.0972
   -54.0840 -54.0836 -54.0732 -53.9511 -53.9507 -53.9439 -53.9430 -53.9331
   -53.9222 -53.9090 -53.9066 -53.9060 -53.9002 -53.8997 -53.8973 -53.8936
   -53.8933 -53.8927 -53.8710 -53.8707 -53.8565 -53.8562 -53.8556 -53.8529
   -10.5990  -4.8871  -4.3691  -4.2400  -3.8490  -3.8368  -3.7961  -3.7564
    -3.7393  -3.7160  -3.6861  -3.6790  -3.6609  -3.6387  -3.6340  -3.6197
    -3.6112  -3.5782  -3.4917  -3.3791  -3.3428  -3.3247  -3.3079  -3.1920
    -3.1811  -3.1748  -3.1216  -3.0375  -3.0321  -3.0129  -3.0080  -3.0010
    -2.9835  -2.8999  -2.8738  -2.7978  -2.7832  -2.7792  -2.7668  -2.7662
    -2.7517  -2.6324  -2.5627  -2.5118  -2.4323  -2.3784  -2.3540  -2.3160
    -2.3082  -2.2750  -2.2215  -2.1717  -2.0975  -2.0189  -2.0019  -1.9843
    -1.9448  -1.9419  -1.8959  -1.8522  -1.8440  -1.8288  -1.8083  -1.4854
    -1.4371  -1.4037  -0.8408  -0.1904  -0.1614   0.8929   2.2046   2.2252
     3.4899   4.6834   4.7156   4.7941   4.9422   4.9982   5.4958

          k = 0.0559-0.0645 0.0000 ( 19479 PWs)   bands (ev):

   -91.1091 -90.6293 -90.6042 -90.6031 -90.6004 -90.4477 -90.4175 -90.4155
   -90.4138 -90.3792 -90.3771 -90.3756 -54.7759 -54.5106 -54.5097 -54.1424
   -54.1314 -54.1272 -54.1224 -54.1105 -54.1027 -54.0998 -54.0976 -54.0948
   -54.0871 -54.0829 -54.0692 -53.9556 -53.9537 -53.9491 -53.9348 -53.9331
   -53.9189 -53.9175 -53.9064 -53.9038 -53.9009 -53.8991 -53.8988 -53.8972
   -53.8921 -53.8813 -53.8755 -53.8689 -53.8570 -53.8548 -53.8538 -53.8525
   -10.6003  -4.8988  -4.3957  -4.2630  -4.1008  -3.9764  -3.9429  -3.8949
    -3.8771  -3.8389  -3.8110  -3.7801  -3.7430  -3.7070  -3.6458  -3.6121
    -3.5436  -3.5230  -3.4947  -3.4478  -3.3833  -3.2793  -3.2460  -3.1904
    -3.1677  -3.1437  -3.1087  -3.0467  -2.9948  -2.9819  -2.9493  -2.9317
    -2.8983  -2.8479  -2.8045  -2.7510  -2.7101  -2.6515  -2.6171  -2.5908
    -2.5518  -2.5221  -2.5117  -2.4789  -2.4442  -2.4025  -2.3713  -2.3471
    -2.3282  -2.2466  -2.2382  -2.1833  -2.1468  -2.1247  -2.0968  -1.9968
    -1.9693  -1.9393  -1.8802  -1.8298  -1.8116  -1.7889  -1.7441  -1.7056
    -1.4500  -1.1732  -0.3610  -0.2774   0.4622   1.1298   1.8849   2.7081
     2.9677   3.6338   4.0828   4.3924   4.9932   5.2276   5.6852

          k =-0.0838 0.0484 0.0000 ( 19500 PWs)   bands (ev):

   -91.1092 -90.6293 -90.6042 -90.6031 -90.6004 -90.4477 -90.4176 -90.4152
   -90.4140 -90.3793 -90.3768 -90.3758 -54.7759 -54.5107 -54.5097 -54.1441
   -54.1273 -54.1270 -54.1256 -54.1059 -54.1043 -54.0997 -54.0977 -54.0944
   -54.0921 -54.0822 -54.0677 -53.9570 -53.9553 -53.9471 -53.9332 -53.9298
   -53.9192 -53.9182 -53.9119 -53.9075 -53.9010 -53.8987 -53.8974 -53.8960
   -53.8847 -53.8810 -53.8773 -53.8735 -53.8570 -53.8544 -53.8536 -53.8513
   -10.6003  -4.8997  -4.4071  -4.2499  -4.1087  -4.0323  -3.9823  -3.9434
    -3.9122  -3.8382  -3.7955  -3.7525  -3.6947  -3.6668  -3.6488  -3.6214
    -3.5576  -3.5482  -3.4896  -3.4718  -3.2597  -3.2509  -3.2447  -3.2220
    -3.1905  -3.1733  -3.1009  -2.9934  -2.9543  -2.8818  -2.8634  -2.8582
    -2.8279  -2.8022  -2.7568  -2.6971  -2.6384  -2.6173  -2.5941  -2.5828
    -2.5744  -2.5470  -2.5413  -2.4784  -2.4312  -2.4173  -2.3830  -2.3729
    -2.3489  -2.3039  -2.3010  -2.2689  -2.2214  -2.2126  -2.1615  -2.1262
    -2.0871  -1.9671  -1.9304  -1.8467  -1.8134  -1.7734  -1.7380  -1.6735
    -1.6270  -1.1662  -0.6520   0.4872   1.1381   1.2050   1.7598   2.1687
     2.5781   3.0874   4.2926   4.3063   4.7672   5.4514   5.6933

          k =-0.0838 0.0806 0.0000 ( 19479 PWs)   bands (ev):

   -91.1091 -90.6293 -90.6044 -90.6028 -90.6005 -90.4477 -90.4176 -90.4152
   -90.4140 -90.3792 -90.3770 -90.3757 -54.7759 -54.5104 -54.5099 -54.1423
   -54.1313 -54.1272 -54.1225 -54.1111 -54.1023 -54.0999 -54.0982 -54.0937
   -54.0871 -54.0830 -54.0693 -53.9556 -53.9538 -53.9491 -53.9348 -53.9331
   -53.9183 -53.9176 -53.9067 -53.9038 -53.9010 -53.8991 -53.8987 -53.8973
   -53.8924 -53.8809 -53.8755 -53.8690 -53.8570 -53.8546 -53.8539 -53.8526
   -10.6003  -4.8988  -4.4057  -4.2501  -4.0983  -3.9761  -3.9426  -3.8941
    -3.8781  -3.8437  -3.8065  -3.7796  -3.7490  -3.6959  -3.6493  -3.6100
    -3.5446  -3.5266  -3.4929  -3.4494  -3.3841  -3.2715  -3.2433  -3.1953
    -3.1687  -3.1418  -3.1196  -3.0459  -3.0003  -2.9811  -2.9495  -2.9275
    -2.8986  -2.8501  -2.8062  -2.7569  -2.6998  -2.6512  -2.6178  -2.5891
    -2.5527  -2.5242  -2.5162  -2.4825  -2.4423  -2.3980  -2.3668  -2.3538
    -2.3249  -2.2481  -2.2385  -2.1965  -2.1420  -2.1154  -2.0961  -1.9993
    -1.9744  -1.9337  -1.8760  -1.8349  -1.8096  -1.7861  -1.7455  -1.7037
    -1.4633  -1.1643  -0.3478  -0.2870   0.4561   1.1393   1.8848   2.7061
     2.9649   3.6454   4.0781   4.4019   4.9830   5.2413   5.6840

          k =-0.0838 0.1129 0.0000 ( 19479 PWs)   bands (ev):

   -91.1091 -90.6293 -90.6047 -90.6022 -90.6008 -90.4477 -90.4176 -90.4153
   -90.4139 -90.3792 -90.3771 -90.3756 -54.7759 -54.5104 -54.5099 -54.1421
   -54.1315 -54.1272 -54.1229 -54.1105 -54.1027 -54.0994 -54.0984 -54.0947
   -54.0863 -54.0825 -54.0698 -53.9557 -53.9538 -53.9490 -53.9348 -53.9331
   -53.9183 -53.9176 -53.9068 -53.9036 -53.9010 -53.8991 -53.8988 -53.8972
   -53.8925 -53.8807 -53.8757 -53.8692 -53.8569 -53.8548 -53.8538 -53.8525
   -10.6003  -4.8986  -4.4055  -4.2521  -4.0977  -3.9756  -3.9440  -3.8953
    -3.8779  -3.8415  -3.8053  -3.7787  -3.7467  -3.6998  -3.6458  -3.6115
    -3.5441  -3.5289  -3.4941  -3.4474  -3.3831  -3.2727  -3.2462  -3.1931
    -3.1681  -3.1413  -3.1197  -3.0472  -2.9940  -2.9830  -2.9495  -2.9310
    -2.8982  -2.8505  -2.8052  -2.7590  -2.7037  -2.6489  -2.6176  -2.5909
    -2.5524  -2.5191  -2.5139  -2.4817  -2.4471  -2.3979  -2.3658  -2.3545
    -2.3258  -2.2474  -2.2386  -2.1962  -2.1448  -2.1150  -2.0914  -1.9920
    -1.9812  -1.9329  -1.8858  -1.8336  -1.8085  -1.7837  -1.7447  -1.7043
    -1.4620  -1.1637  -0.3481  -0.2875   0.4563   1.1393   1.8848   2.7062
     2.9650   3.6451   4.0779   4.4016   4.9952   5.2187   5.6877

          k =-0.0838-0.0484 0.0000 ( 19500 PWs)   bands (ev):

   -91.1092 -90.6293 -90.6049 -90.6015 -90.6013 -90.4477 -90.4176 -90.4153
   -90.4139 -90.3791 -90.3772 -90.3755 -54.7759 -54.5107 -54.5097 -54.1437
   -54.1279 -54.1271 -54.1256 -54.1061 -54.1030 -54.1006 -54.0984 -54.0954
   -54.0905 -54.0812 -54.0684 -53.9571 -53.9552 -53.9470 -53.9332 -53.9300
   -53.9191 -53.9181 -53.9120 -53.9072 -53.9009 -53.8988 -53.8974 -53.8958
   -53.8846 -53.8808 -53.8776 -53.8738 -53.8569 -53.8549 -53.8533 -53.8511
   -10.6003  -4.8993  -4.4067  -4.2533  -4.1084  -4.0325  -3.9830  -3.9430
    -3.9115  -3.8345  -3.7945  -3.7537  -3.6945  -3.6663  -3.6458  -3.6249
    -3.5581  -3.5495  -3.4918  -3.4663  -3.2587  -3.2518  -3.2460  -3.2216
    -3.1910  -3.1737  -3.1007  -2.9939  -2.9536  -2.8814  -2.8643  -2.8595
    -2.8275  -2.8024  -2.7554  -2.7064  -2.6342  -2.6165  -2.5940  -2.5830
    -2.5742  -2.5474  -2.5392  -2.4792  -2.4297  -2.4175  -2.3832  -2.3695
    -2.3529  -2.3033  -2.3014  -2.2689  -2.2218  -2.2129  -2.1612  -2.1267
    -2.0867  -1.9610  -1.9289  -1.8542  -1.8154  -1.7735  -1.7343  -1.6731
    -1.6277  -1.1657  -0.6523   0.4872   1.1383   1.2048   1.7598   2.1686
     2.5783   3.0872   4.2943   4.3044   4.7675   5.4402   5.7037

     the Fermi energy is     1.4125 ev

!    total energy              =   -3574.91954974 Ry
     Harris-Foulkes estimate   =   -3574.91954867 Ry
     estimated scf accuracy    <       0.00000338 Ry

     The total energy is the sum of the following terms:

     one-electron contribution =  -26108.78239666 Ry
     hartree contribution      =   13048.74560136 Ry
     xc contribution           =    -366.90197515 Ry
     ewald contribution        =    9852.04317537 Ry
     electric field correction =       0.00000018 Ry
     smearing contrib. (-TS)   =      -0.02395484 Ry

     convergence has been achieved in  15 iterations
 
 BEEF-vdW xc energy contributions
           1 :   -317.732592395450     
           2 :    287.465074292185     
           3 :   -237.097224676909     
           4 :    181.913086631863     
           5 :   -135.650905392073     
           6 :    105.627439467330     
           7 :   -91.4602473843092     
           8 :    87.2938761096315     
           9 :   -85.8714145634723     
          10 :    82.1696893113374     
          11 :   -74.9573089227447     
          12 :    65.9899939677821     
          13 :   -57.8806227056976     
          14 :    52.1774204062908     
          15 :   -48.7003069899174     
          16 :    46.1756042129059     
          17 :   -43.4155222917473     
          18 :    40.1148469552608     
          19 :   -36.8105809678015     
          20 :    34.2211865039667     
          21 :   -32.5760152107541     
          22 :    31.4325988253381     
          23 :   -30.0513175126144     
          24 :    27.9834774177561     
          25 :   -25.4185897842277     
          26 :    23.0472289996833     
          27 :   -21.5625195443479     
          28 :    21.1714009419121     
          29 :   -21.4619900325191     
          30 :    21.6999393110417     
          31 :   -31.8809505296598     
          32 :   -23.1632710325953     

     Forces acting on atoms (Ry/au):


     negative rho (up, down):  1.968E-03 0.000E+00
     atom    1 type  1   force =    -0.00160342   -0.00092087    0.00066784
     atom    2 type  1   force =     0.00159656   -0.00094128    0.00065736
     atom    3 type  1   force =    -0.00000352    0.00185811    0.00069974
     atom    4 type  1   force =     0.00001785    0.00001038    0.00204711
     atom    5 type  1   force =     0.00010846   -0.00255596   -0.00059973
     atom    6 type  1   force =    -0.00001892   -0.00005923    0.00227482
     atom    7 type  1   force =     0.00211702    0.00136147   -0.00060241
     atom    8 type  1   force =    -0.00220522    0.00123623   -0.00059485
     atom    9 type  1   force =    -0.00055196    0.00001951   -0.15521269
     atom   10 type  1   force =    -0.00014827    0.00055852   -0.00755857
     atom   11 type  1   force =     0.00060753    0.00004574   -0.00809756
     atom   12 type  1   force =    -0.00035036   -0.00060144   -0.00809323
     atom   13 type  2   force =     0.05007156   -0.00000982    0.37043543
     atom   14 type  3   force =    -0.08286512    0.00000369   -0.07696744
     atom   15 type  3   force =     0.01661352   -0.04629581   -0.05952620
     atom   16 type  3   force =     0.01661430    0.04629074   -0.05952963

     Total force =     0.434426     Total SCF correction =     0.003969


     entering subroutine stress ...


     negative rho (up, down):  1.968E-03 0.000E+00
          total   stress  (Ry/bohr**3)                   (kbar)     P=   -5.11
  -0.00008321   0.00000001  -0.00001110        -12.24      0.00     -1.63
   0.00000001  -0.00007414  -0.00000000          0.00    -10.91     -0.00
  -0.00001110  -0.00000000   0.00005316         -1.63     -0.00      7.82


     BFGS Geometry Optimization

     number of scf cycles    =   1
     number of bfgs steps    =   0

     energy   new            =   -3574.9195497425 Ry

     new trust radius        =       0.3738041860 bohr
     new conv_thr            =       0.0000099958 Ry


ATOMIC_POSITIONS (crystal)
Ag1      0.166666667   0.166666667   0.402063960    0   0   0
Ag1      0.666666667   0.166666667   0.402063960    0   0   0
Ag1      0.166666667   0.666666667   0.402063960    0   0   0
Ag1      0.666666667   0.666666667   0.402063960    0   0   0
Ag1      0.833333333   0.333333333   0.500000000    0   0   0
Ag1      0.333333333   0.333333333   0.500000000    0   0   0
Ag1      0.833333333   0.833333333   0.500000000    0   0   0
Ag1      0.333333333   0.833333333   0.500000000    0   0   0
Ag1     -0.000049953   0.000001998   0.594633687
Ag1      0.499958250   0.000057198   0.597775222
Ag1      0.000051540   0.500004685   0.597763754
Ag1      0.499999723   0.499938406   0.597763846
C1       0.004441385  -0.000001005   0.681345253
H1       0.175335693   0.000000378   0.697156202
H1       0.842351473   0.167402953   0.697527287
H1       0.009754754   0.832596528   0.697527214



     Writing output data file calc.save
     Check: negative starting charge=   -0.001906
     NEW-OLD atomic charge density approx. for the potential
     Check: negative starting charge=   -0.001915

     negative rho (up, down):  1.942E-03 0.000E+00
 
     Adding external electric field

     Computed dipole along edir(3) : 
        Dipole               -0.0980 Ry au,         -0.2492 Debye
        Dipole field         -0.0002 Ry au
 
        Potential amp.        0.0218 Ry
        Total length         45.8256 bohr
 

     total cpu time spent up to now is      459.2 secs

     Self-consistent Calculation

     iteration #  1     ecut=    36.75 Ry     beta=0.30
     Davidson diagonalization with overlap
     c_bands:  1 eigenvalues not converged
     c_bands:  1 eigenvalues not converged
     c_bands:  1 eigenvalues not converged
     ethr =  1.00E-06,  avg # of iterations = 12.1

     negative rho (up, down):  1.956E-03 0.000E+00
 
     Adding external electric field

     Computed dipole along edir(3) : 
        Dipole                0.1535 Ry au,          0.3902 Debye
        Dipole field          0.0004 Ry au
 
        Potential amp.       -0.0342 Ry
        Total length         45.8256 bohr
 

     total cpu time spent up to now is      506.5 secs

     total energy              =   -3575.00548434 Ry
     Harris-Foulkes estimate   =   -3575.02186392 Ry
     estimated scf accuracy    <       0.04500229 Ry

     iteration #  2     ecut=    36.75 Ry     beta=0.30
     Davidson diagonalization with overlap
     ethr =  1.91E-05,  avg # of iterations =  4.5

     negative rho (up, down):  1.979E-03 0.000E+00
 
     Adding external electric field

     Computed dipole along edir(3) : 
        Dipole               -0.1712 Ry au,         -0.4353 Debye
        Dipole field         -0.0004 Ry au
 
        Potential amp.        0.0381 Ry
        Total length         45.8256 bohr
 

     total cpu time spent up to now is      530.0 secs

     total energy              =   -3574.99589297 Ry
     Harris-Foulkes estimate   =   -3575.01843439 Ry
     estimated scf accuracy    <       0.15821394 Ry

     iteration #  3     ecut=    36.75 Ry     beta=0.30
     Davidson diagonalization with overlap
     ethr =  1.91E-05,  avg # of iterations =  6.0

     negative rho (up, down):  1.976E-03 0.000E+00
 
     Adding external electric field

     Computed dipole along edir(3) : 
        Dipole               -0.0145 Ry au,         -0.0369 Debye
        Dipole field         -0.0000 Ry au
 
        Potential amp.        0.0032 Ry
        Total length         45.8256 bohr
 

     total cpu time spent up to now is      554.8 secs

     total energy              =   -3575.00589493 Ry
     Harris-Foulkes estimate   =   -3575.01505886 Ry
     estimated scf accuracy    <       0.09322250 Ry

     iteration #  4     ecut=    36.75 Ry     beta=0.30
     Davidson diagonalization with overlap
     ethr =  1.91E-05,  avg # of iterations =  5.2

     negative rho (up, down):  1.977E-03 0.000E+00
 
     Adding external electric field

     Computed dipole along edir(3) : 
        Dipole               -0.0123 Ry au,         -0.0313 Debye
        Dipole field         -0.0000 Ry au
 
        Potential amp.        0.0027 Ry
        Total length         45.8256 bohr
 

     total cpu time spent up to now is      577.9 secs

     total energy              =   -3575.00954738 Ry
     Harris-Foulkes estimate   =   -3575.01005084 Ry
     estimated scf accuracy    <       0.00207256 Ry

     iteration #  5     ecut=    36.75 Ry     beta=0.30
     Davidson diagonalization with overlap
     ethr =  8.82E-07,  avg # of iterations =  3.2

     negative rho (up, down):  1.981E-03 0.000E+00
 
     Adding external electric field

     Computed dipole along edir(3) : 
        Dipole               -0.0096 Ry au,         -0.0243 Debye
        Dipole field         -0.0000 Ry au
 
        Potential amp.        0.0021 Ry
        Total length         45.8256 bohr
 

     total cpu time spent up to now is      599.5 secs

     total energy              =   -3575.00978017 Ry
     Harris-Foulkes estimate   =   -3575.00978060 Ry
     estimated scf accuracy    <       0.00024115 Ry

     iteration #  6     ecut=    36.75 Ry     beta=0.30
     Davidson diagonalization with overlap
     ethr =  1.03E-07,  avg # of iterations =  2.0

     negative rho (up, down):  1.982E-03 0.000E+00
 
     Adding external electric field

     Computed dipole along edir(3) : 
        Dipole               -0.0077 Ry au,         -0.0196 Debye
        Dipole field         -0.0000 Ry au
 
        Potential amp.        0.0017 Ry
        Total length         45.8256 bohr
 

     total cpu time spent up to now is      618.8 secs

     total energy              =   -3575.00980525 Ry
     Harris-Foulkes estimate   =   -3575.00981432 Ry
     estimated scf accuracy    <       0.00013669 Ry

     iteration #  7     ecut=    36.75 Ry     beta=0.30
     Davidson diagonalization with overlap
     ethr =  5.82E-08,  avg # of iterations =  2.0

     negative rho (up, down):  1.983E-03 0.000E+00
 
     Adding external electric field

     Computed dipole along edir(3) : 
        Dipole               -0.0072 Ry au,         -0.0182 Debye
        Dipole field         -0.0000 Ry au
 
        Potential amp.        0.0016 Ry
        Total length         45.8256 bohr
 

     total cpu time spent up to now is      637.8 secs

     total energy              =   -3575.00982685 Ry
     Harris-Foulkes estimate   =   -3575.00981949 Ry
     estimated scf accuracy    <       0.00001974 Ry

     iteration #  8     ecut=    36.75 Ry     beta=0.30
     Davidson diagonalization with overlap
     ethr =  8.40E-09,  avg # of iterations =  2.0

     negative rho (up, down):  1.983E-03 0.000E+00

     negative rho (up, down):  1.983E-03 0.000E+00

     negative rho (up, down):  1.983E-03 0.000E+00

     negative rho (up, down):  1.983E-03 0.000E+00

     negative rho (up, down):  1.983E-03 0.000E+00

     negative rho (up, down):  1.983E-03 0.000E+00

     negative rho (up, down):  1.983E-03 0.000E+00

     negative rho (up, down):  1.983E-03 0.000E+00

     negative rho (up, down):  1.983E-03 0.000E+00

     negative rho (up, down):  1.983E-03 0.000E+00

     negative rho (up, down):  1.983E-03 0.000E+00

     negative rho (up, down):  1.983E-03 0.000E+00

     negative rho (up, down):  1.983E-03 0.000E+00

     negative rho (up, down):  1.983E-03 0.000E+00

     negative rho (up, down):  1.983E-03 0.000E+00

     negative rho (up, down):  1.983E-03 0.000E+00

     negative rho (up, down):  1.983E-03 0.000E+00

     negative rho (up, down):  1.983E-03 0.000E+00

     negative rho (up, down):  1.983E-03 0.000E+00

     negative rho (up, down):  1.983E-03 0.000E+00

     negative rho (up, down):  1.983E-03 0.000E+00

     negative rho (up, down):  1.983E-03 0.000E+00

     negative rho (up, down):  1.983E-03 0.000E+00

     negative rho (up, down):  1.983E-03 0.000E+00

     negative rho (up, down):  1.983E-03 0.000E+00

     negative rho (up, down):  1.983E-03 0.000E+00

     negative rho (up, down):  1.983E-03 0.000E+00

     negative rho (up, down):  1.983E-03 0.000E+00

     negative rho (up, down):  1.983E-03 0.000E+00

     negative rho (up, down):  1.983E-03 0.000E+00

     negative rho (up, down):  1.983E-03 0.000E+00

     negative rho (up, down):  1.983E-03 0.000E+00

     negative rho (up, down):  1.983E-03 0.000E+00

     negative rho (up, down):  1.983E-03 0.000E+00

     negative rho (up, down):  1.983E-03 0.000E+00
 
     Adding external electric field

     Computed dipole along edir(3) : 
        Dipole               -0.0115 Ry au,         -0.0291 Debye
        Dipole field         -0.0000 Ry au
 
        Potential amp.        0.0025 Ry
        Total length         45.8256 bohr
 

     total cpu time spent up to now is      675.2 secs

     End of self-consistent calculation

          k = 0.0000 0.0000 0.0000 ( 19435 PWs)   bands (ev):

   -90.7258 -90.6456 -90.6206 -90.6160 -90.6153 -90.4598 -90.4100 -90.4049
   -90.4047 -90.3927 -90.3878 -90.3874 -54.2662 -54.1861 -54.1857 -54.1709
   -54.1707 -54.1540 -54.1439 -54.1168 -54.1119 -54.1113 -54.1045 -54.1045
   -54.0972 -54.0776 -54.0774 -53.9757 -53.9756 -53.9635 -53.9457 -53.9320
   -53.9216 -53.9216 -53.8969 -53.8968 -53.8959 -53.8903 -53.8901 -53.8843
   -53.8842 -53.8841 -53.8788 -53.8709 -53.8657 -53.8654 -53.8589 -53.8587
   -11.0289  -5.0784  -4.4701  -4.4386  -4.4194  -4.3550  -4.3300  -4.2894
    -4.2618  -4.2292  -4.2232  -4.1684  -4.1215  -4.0141  -3.9753  -3.9668
    -3.9480  -3.9094  -3.4342  -3.3608  -3.3010  -3.2953  -3.2307  -3.1966
    -3.1946  -3.1795  -3.1278  -3.0510  -3.0492  -3.0107  -3.0049  -2.9770
    -2.9730  -2.9174  -2.9172  -2.4327  -2.4322  -2.4298  -2.3753  -2.3721
    -2.3489  -2.3482  -2.3104  -2.1351  -2.0982  -2.0982  -2.0502  -2.0402
    -1.9414  -1.8709  -1.8692  -1.8546  -1.8066  -1.8065  -1.7615  -1.7599
    -1.7167  -1.7164  -1.6994  -1.5810  -1.5808  -1.5185  -1.5090  -1.5089
    -1.4858  -0.2154   1.2750   1.8973   1.9378   1.9391   2.3781   2.6423
     2.7127   2.7155   3.0726   3.1683   3.1714   4.8900   5.0189

          k = 0.0000 0.0323 0.0000 ( 19455 PWs)   bands (ev):

   -90.7258 -90.6455 -90.6204 -90.6162 -90.6154 -90.4598 -90.4097 -90.4052
   -90.4048 -90.3924 -90.3880 -90.3875 -54.2661 -54.1851 -54.1851 -54.1685
   -54.1663 -54.1503 -54.1437 -54.1164 -54.1130 -54.1115 -54.1073 -54.1047
   -54.0985 -54.0826 -54.0786 -53.9741 -53.9722 -53.9599 -53.9456 -53.9284
   -53.9222 -53.9194 -53.8994 -53.8960 -53.8955 -53.8905 -53.8902 -53.8883
   -53.8866 -53.8843 -53.8803 -53.8706 -53.8662 -53.8655 -53.8635 -53.8598
   -11.0268  -4.9098  -4.4427  -4.3590  -4.3484  -4.2776  -4.2493  -4.2255
    -4.1936  -4.1683  -4.1451  -4.0627  -4.0360  -3.9822  -3.9186  -3.8901
    -3.8547  -3.8443  -3.4184  -3.3533  -3.2798  -3.2767  -3.2404  -3.2167
    -3.1696  -3.1395  -3.1308  -3.1164  -3.0599  -3.0030  -2.9849  -2.9669
    -2.9535  -2.9221  -2.8372  -2.6182  -2.5122  -2.5099  -2.4125  -2.3955
    -2.3713  -2.3276  -2.3055  -2.2118  -2.1616  -2.1057  -2.1040  -2.0904
    -2.0211  -1.9245  -1.9152  -1.8960  -1.8482  -1.8410  -1.8305  -1.8048
    -1.7981  -1.7813  -1.7658  -1.7076  -1.6749  -1.6431  -1.6213  -1.5986
    -1.5908  -0.0844   0.3852   1.2502   1.5176   1.5534   1.8429   2.5025
     2.7393   2.8689   3.7016   3.7907   3.9959   5.0528   5.3583

          k = 0.0000 0.0645 0.0000 ( 19481 PWs)   bands (ev):

   -90.7258 -90.6454 -90.6197 -90.6169 -90.6155 -90.4597 -90.4089 -90.4060
   -90.4048 -90.3917 -90.3888 -90.3875 -54.2657 -54.1841 -54.1830 -54.1630
   -54.1545 -54.1432 -54.1414 -54.1187 -54.1151 -54.1121 -54.1117 -54.1076
   -54.0983 -54.0956 -54.0814 -53.9707 -53.9640 -53.9512 -53.9455 -53.9229
   -53.9206 -53.9135 -53.9032 -53.8990 -53.8945 -53.8941 -53.8932 -53.8912
   -53.8900 -53.8847 -53.8838 -53.8765 -53.8697 -53.8667 -53.8655 -53.8620
   -11.0226  -4.4839  -4.3773  -4.2435  -4.2162  -4.0999  -4.0480  -4.0180
    -3.9938  -3.9873  -3.9721  -3.9240  -3.8806  -3.8185  -3.7697  -3.7268
    -3.5851  -3.5770  -3.4362  -3.3866  -3.3300  -3.3168  -3.3030  -3.2114
    -3.1376  -3.0961  -3.0806  -3.0718  -3.0140  -2.9423  -2.9342  -2.9029
    -2.8883  -2.8398  -2.8215  -2.7573  -2.7477  -2.6113  -2.5314  -2.4612
    -2.4440  -2.4097  -2.4007  -2.3547  -2.3137  -2.2893  -2.2783  -2.2365
    -2.2335  -2.1941  -2.1461  -2.1384  -2.1128  -2.0671  -2.0339  -1.9558
    -1.9514  -1.8966  -1.8872  -1.7947  -1.7642  -1.7485  -1.6732  -1.6334
    -1.5003  -1.2344  -0.0876   0.5375   1.1956   1.2590   1.6303   2.5275
     2.6056   2.9960   3.5540   4.6629   4.7911   5.4294   5.6194

          k = 0.0000-0.0968 0.0000 ( 19500 PWs)   bands (ev):

   -90.7258 -90.6453 -90.6192 -90.6175 -90.6155 -90.4597 -90.4083 -90.4066
   -90.4048 -90.3910 -90.3895 -90.3875 -54.2656 -54.1837 -54.1819 -54.1598
   -54.1429 -54.1418 -54.1406 -54.1198 -54.1164 -54.1135 -54.1125 -54.1091
   -54.1066 -54.0972 -54.0831 -53.9690 -53.9589 -53.9459 -53.9453 -53.9215
   -53.9192 -53.9081 -53.9069 -53.8990 -53.8969 -53.8934 -53.8929 -53.8922
   -53.8899 -53.8896 -53.8859 -53.8849 -53.8691 -53.8674 -53.8657 -53.8631
   -11.0205  -4.3579  -4.1987  -4.1835  -4.1169  -4.0065  -3.9532  -3.9498
    -3.9238  -3.8189  -3.7940  -3.7690  -3.6850  -3.6723  -3.6691  -3.6316
    -3.5682  -3.4952  -3.4853  -3.4301  -3.2603  -3.2565  -3.2394  -3.2227
    -3.2165  -3.1562  -3.1304  -2.9585  -2.9127  -2.8974  -2.8721  -2.8608
    -2.8450  -2.8319  -2.8002  -2.6922  -2.6292  -2.6027  -2.5898  -2.5814
    -2.5780  -2.5591  -2.5562  -2.5086  -2.4139  -2.4039  -2.3891  -2.3595
    -2.3276  -2.2979  -2.2973  -2.2651  -2.2493  -2.2258  -2.2178  -2.1261
    -2.1154  -2.0920  -1.9865  -1.9074  -1.7891  -1.7776  -1.7669  -1.6704
    -1.6334  -1.0961  -0.7767   0.5789   1.1415   1.1825   1.7157   2.1646
     2.5514   3.0389   4.2500   4.2904   4.7598   5.4737   5.8795

          k = 0.0279-0.0161 0.0000 ( 19455 PWs)   bands (ev):

   -90.7258 -90.6455 -90.6204 -90.6160 -90.6156 -90.4598 -90.4097 -90.4050
   -90.4049 -90.3924 -90.3880 -90.3875 -54.2661 -54.1855 -54.1847 -54.1683
   -54.1664 -54.1504 -54.1437 -54.1165 -54.1126 -54.1119 -54.1072 -54.1048
   -54.0984 -54.0824 -54.0788 -53.9741 -53.9722 -53.9599 -53.9456 -53.9284
   -53.9222 -53.9195 -53.8994 -53.8960 -53.8955 -53.8905 -53.8903 -53.8883
   -53.8866 -53.8844 -53.8803 -53.8706 -53.8662 -53.8655 -53.8635 -53.8598
   -11.0268  -4.9095  -4.4351  -4.3762  -4.3453  -4.2628  -4.2479  -4.2320
    -4.1933  -4.1650  -4.1519  -4.0616  -4.0347  -3.9816  -3.9215  -3.8877
    -3.8566  -3.8424  -3.4182  -3.3528  -3.2932  -3.2695  -3.2381  -3.2163
    -3.1703  -3.1520  -3.1177  -3.1166  -3.0517  -3.0106  -2.9865  -2.9691
    -2.9528  -2.9223  -2.8372  -2.6178  -2.5122  -2.5104  -2.4103  -2.3967
    -2.3719  -2.3276  -2.3053  -2.2114  -2.1618  -2.1061  -2.0998  -2.0931
    -2.0201  -1.9243  -1.9169  -1.8960  -1.8483  -1.8411  -1.8305  -1.8049
    -1.7982  -1.7814  -1.7648  -1.7074  -1.6753  -1.6432  -1.6210  -1.5986
    -1.5908  -0.0844   0.3871   1.2512   1.5181   1.5525   1.8443   2.5040
     2.7350   2.8705   3.7026   3.7892   3.9971   5.0528   5.3619

          k = 0.0279 0.0161 0.0000 ( 19455 PWs)   bands (ev):

   -90.7258 -90.6455 -90.6203 -90.6163 -90.6154 -90.4598 -90.4097 -90.4052
   -90.4047 -90.3925 -90.3878 -90.3877 -54.2661 -54.1855 -54.1847 -54.1685
   -54.1663 -54.1503 -54.1437 -54.1164 -54.1130 -54.1114 -54.1073 -54.1046
   -54.0986 -54.0827 -54.0786 -53.9740 -53.9722 -53.9599 -53.9456 -53.9284
   -53.9222 -53.9195 -53.8995 -53.8959 -53.8955 -53.8906 -53.8901 -53.8884
   -53.8867 -53.8842 -53.8803 -53.8706 -53.8659 -53.8658 -53.8633 -53.8600
   -11.0268  -4.9094  -4.4351  -4.3771  -4.3426  -4.2675  -4.2482  -4.2290
    -4.1933  -4.1676  -4.1486  -4.0618  -4.0349  -3.9787  -3.9216  -3.8932
    -3.8537  -3.8428  -3.4183  -3.3527  -3.2930  -3.2698  -3.2387  -3.2163
    -3.1681  -3.1566  -3.1187  -3.1128  -3.0549  -3.0082  -2.9857  -2.9677
    -2.9538  -2.9223  -2.8371  -2.6177  -2.5117  -2.5108  -2.4094  -2.3968
    -2.3727  -2.3279  -2.3050  -2.2121  -2.1614  -2.1066  -2.1000  -2.0926
    -2.0211  -1.9235  -1.9162  -1.8963  -1.8478  -1.8411  -1.8305  -1.8053
    -1.7986  -1.7814  -1.7643  -1.7076  -1.6750  -1.6433  -1.6212  -1.5988
    -1.5909  -0.0846   0.3864   1.2533   1.5170   1.5526   1.8444   2.5047
     2.7352   2.8695   3.7013   3.7905   3.9958   5.0533   5.3560

          k = 0.0279 0.0484 0.0000 ( 19453 PWs)   bands (ev):

   -90.7258 -90.6454 -90.6198 -90.6169 -90.6154 -90.4597 -90.4092 -90.4058
   -90.4047 -90.3919 -90.3884 -90.3876 -54.2658 -54.1844 -54.1834 -54.1641
   -54.1584 -54.1439 -54.1432 -54.1179 -54.1155 -54.1112 -54.1111 -54.1038
   -54.1012 -54.0908 -54.0810 -53.9711 -53.9668 -53.9534 -53.9455 -53.9237
   -53.9219 -53.9149 -53.9040 -53.8968 -53.8948 -53.8936 -53.8910 -53.8901
   -53.8874 -53.8873 -53.8835 -53.8715 -53.8699 -53.8662 -53.8657 -53.8621
   -11.0237  -4.6026  -4.3925  -4.2785  -4.2199  -4.1528  -4.1103  -4.0687
    -4.0544  -4.0382  -4.0245  -3.9605  -3.9226  -3.8603  -3.8045  -3.7505
    -3.7420  -3.6263  -3.4158  -3.3792  -3.3152  -3.2772  -3.2725  -3.2469
    -3.1590  -3.1367  -3.1056  -3.0685  -3.0013  -2.9928  -2.9850  -2.9464
    -2.9309  -2.8656  -2.7942  -2.6912  -2.6784  -2.6461  -2.5101  -2.4298
    -2.3940  -2.3831  -2.3795  -2.3290  -2.2609  -2.2188  -2.1982  -2.1636
    -2.1413  -2.1264  -2.1083  -2.0314  -2.0170  -1.9985  -1.9719  -1.9401
    -1.9375  -1.8493  -1.8192  -1.7973  -1.7679  -1.7194  -1.7036  -1.6863
    -1.5767  -0.2080  -0.1940   0.0955   1.0283   1.1456   1.9018   2.8628
     3.0263   3.3389   3.4828   3.9975   4.1603   5.3038   5.4793

          k = 0.0279-0.1129 0.0000 ( 19479 PWs)   bands (ev):

   -90.7258 -90.6453 -90.6191 -90.6176 -90.6155 -90.4597 -90.4083 -90.4066
   -90.4048 -90.3911 -90.3894 -90.3876 -54.2656 -54.1833 -54.1822 -54.1580
   -54.1471 -54.1429 -54.1360 -54.1244 -54.1161 -54.1134 -54.1112 -54.1094
   -54.1020 -54.0979 -54.0846 -53.9675 -53.9608 -53.9455 -53.9443 -53.9255
   -53.9155 -53.9071 -53.9065 -53.9045 -53.8948 -53.8940 -53.8927 -53.8919
   -53.8899 -53.8878 -53.8877 -53.8811 -53.8691 -53.8673 -53.8660 -53.8645
   -11.0205  -4.3587  -4.1967  -4.1724  -4.0630  -3.9642  -3.9294  -3.9054
    -3.8858  -3.8595  -3.8306  -3.8038  -3.7520  -3.7097  -3.6271  -3.5730
    -3.5653  -3.5397  -3.4570  -3.3809  -3.3625  -3.2947  -3.2218  -3.2036
    -3.1736  -3.1557  -3.1408  -3.0113  -2.9788  -2.9677  -2.9484  -2.9355
    -2.9004  -2.8610  -2.8239  -2.8195  -2.7186  -2.6502  -2.6089  -2.5787
    -2.5695  -2.5463  -2.5021  -2.4920  -2.4519  -2.3950  -2.3693  -2.3385
    -2.3210  -2.2797  -2.2508  -2.2241  -2.1863  -2.1215  -2.1045  -2.0797
    -1.9936  -1.9666  -1.9148  -1.8286  -1.8138  -1.7954  -1.7415  -1.7123
    -1.4831  -1.1700  -0.3626  -0.2988   0.5051   1.1088   1.8543   2.6874
     2.9520   3.5944   4.0686   4.3889   4.9969   5.2150   5.7895

          k = 0.0279-0.0806 0.0000 ( 19479 PWs)   bands (ev):

   -90.7258 -90.6453 -90.6192 -90.6174 -90.6156 -90.4597 -90.4083 -90.4065
   -90.4048 -90.3910 -90.3895 -90.3875 -54.2656 -54.1833 -54.1822 -54.1580
   -54.1470 -54.1429 -54.1361 -54.1248 -54.1158 -54.1137 -54.1114 -54.1088
   -54.1021 -54.0979 -54.0847 -53.9675 -53.9608 -53.9455 -53.9443 -53.9255
   -53.9155 -53.9070 -53.9066 -53.9043 -53.8949 -53.8940 -53.8930 -53.8918
   -53.8900 -53.8879 -53.8877 -53.8810 -53.8691 -53.8675 -53.8660 -53.8644
   -11.0205  -4.3584  -4.2008  -4.1678  -4.0647  -3.9661  -3.9286  -3.9013
    -3.8864  -3.8609  -3.8286  -3.8083  -3.7522  -3.7066  -3.6269  -3.5758
    -3.5628  -3.5390  -3.4559  -3.3813  -3.3630  -3.2945  -3.2218  -3.2061
    -3.1708  -3.1580  -3.1407  -3.0102  -2.9793  -2.9669  -2.9503  -2.9345
    -2.9002  -2.8611  -2.8269  -2.8182  -2.7165  -2.6501  -2.6087  -2.5781
    -2.5689  -2.5476  -2.5079  -2.4897  -2.4504  -2.3956  -2.3688  -2.3394
    -2.3205  -2.2800  -2.2503  -2.2245  -2.1866  -2.1199  -2.1046  -2.0805
    -1.9935  -1.9645  -1.9151  -1.8286  -1.8132  -1.7964  -1.7414  -1.7123
    -1.4835  -1.1699  -0.3631  -0.2986   0.5052   1.1089   1.8540   2.6873
     2.9520   3.5949   4.0676   4.3889   4.9864   5.2332   5.7909

          k = 0.0279-0.0484 0.0000 ( 19453 PWs)   bands (ev):

   -90.7258 -90.6454 -90.6200 -90.6164 -90.6157 -90.4597 -90.4092 -90.4056
   -90.4049 -90.3919 -90.3886 -90.3875 -54.2658 -54.1844 -54.1834 -54.1640
   -54.1585 -54.1440 -54.1432 -54.1179 -54.1156 -54.1116 -54.1109 -54.1037
   -54.1010 -54.0906 -54.0813 -53.9711 -53.9667 -53.9534 -53.9455 -53.9237
   -53.9219 -53.9148 -53.9039 -53.8967 -53.8948 -53.8937 -53.8908 -53.8902
   -53.8875 -53.8874 -53.8837 -53.8716 -53.8699 -53.8665 -53.8655 -53.8620
   -11.0237  -4.6028  -4.3930  -4.2744  -4.2253  -4.1508  -4.1098  -4.0687
    -4.0559  -4.0383  -4.0242  -3.9581  -3.9311  -3.8516  -3.8058  -3.7488
    -3.7437  -3.6271  -3.4147  -3.3789  -3.3159  -3.2805  -3.2661  -3.2495
    -3.1586  -3.1368  -3.1056  -3.0681  -3.0047  -2.9925  -2.9829  -2.9465
    -2.9318  -2.8656  -2.7946  -2.6919  -2.6782  -2.6460  -2.5094  -2.4295
    -2.3949  -2.3833  -2.3797  -2.3291  -2.2596  -2.2187  -2.1979  -2.1651
    -2.1403  -2.1270  -2.1096  -2.0307  -2.0161  -1.9989  -1.9718  -1.9420
    -1.9358  -1.8491  -1.8191  -1.7974  -1.7675  -1.7187  -1.7038  -1.6865
    -1.5767  -0.2076  -0.1932   0.0943   1.0281   1.1457   1.9013   2.8652
     3.0229   3.3399   3.4828   3.9841   4.1775   5.3022   5.4787

          k = 0.0559-0.0323 0.0000 ( 19481 PWs)   bands (ev):

   -90.7258 -90.6454 -90.6199 -90.6163 -90.6160 -90.4597 -90.4090 -90.4058
   -90.4049 -90.3917 -90.3888 -90.3875 -54.2657 -54.1845 -54.1826 -54.1628
   -54.1547 -54.1432 -54.1415 -54.1185 -54.1153 -54.1125 -54.1113 -54.1079
   -54.0979 -54.0953 -54.0817 -53.9708 -53.9640 -53.9513 -53.9455 -53.9227
   -53.9205 -53.9136 -53.9032 -53.8990 -53.8946 -53.8941 -53.8932 -53.8910
   -53.8900 -53.8848 -53.8838 -53.8766 -53.8697 -53.8667 -53.8655 -53.8619
   -11.0226  -4.4792  -4.3768  -4.2604  -4.1919  -4.0969  -4.0478  -4.0166
    -4.0036  -3.9828  -3.9757  -3.9131  -3.8768  -3.8359  -3.7721  -3.7237
    -3.5872  -3.5765  -3.4344  -3.3856  -3.3384  -3.3257  -3.3036  -3.2065
    -3.1372  -3.0938  -3.0812  -3.0583  -3.0287  -2.9431  -2.9357  -2.9027
    -2.8878  -2.8401  -2.8215  -2.7572  -2.7531  -2.6114  -2.5297  -2.4604
    -2.4420  -2.4092  -2.4021  -2.3548  -2.3137  -2.2908  -2.2778  -2.2426
    -2.2214  -2.1941  -2.1462  -2.1386  -2.1131  -2.0671  -2.0333  -1.9585
    -1.9529  -1.8966  -1.8880  -1.7950  -1.7645  -1.7489  -1.6723  -1.6335
    -1.4984  -1.2305  -0.0861   0.5409   1.1961   1.2577   1.6308   2.5292
     2.6024   3.0010   3.5539   4.6604   4.7933   5.4328   5.6244

          k = 0.0559 0.0000 0.0000 ( 19453 PWs)   bands (ev):

   -90.7258 -90.6454 -90.6199 -90.6166 -90.6156 -90.4597 -90.4092 -90.4057
   -90.4048 -90.3919 -90.3884 -90.3876 -54.2658 -54.1847 -54.1831 -54.1640
   -54.1585 -54.1440 -54.1432 -54.1180 -54.1156 -54.1116 -54.1108 -54.1037
   -54.1010 -54.0907 -54.0812 -53.9711 -53.9668 -53.9534 -53.9455 -53.9236
   -53.9219 -53.9149 -53.9040 -53.8967 -53.8948 -53.8936 -53.8909 -53.8901
   -53.8875 -53.8873 -53.8835 -53.8715 -53.8699 -53.8663 -53.8656 -53.8621
   -11.0237  -4.6006  -4.3916  -4.2785  -4.2251  -4.1395  -4.1081  -4.0687
    -4.0560  -4.0448  -4.0248  -3.9640  -3.8981  -3.8813  -3.8023  -3.7529
    -3.7426  -3.6271  -3.4148  -3.3839  -3.3156  -3.2831  -3.2703  -3.2448
    -3.1573  -3.1368  -3.1066  -3.0614  -3.0105  -2.9934  -2.9864  -2.9464
    -2.9315  -2.8655  -2.7945  -2.6915  -2.6785  -2.6459  -2.5085  -2.4308
    -2.3950  -2.3837  -2.3779  -2.3278  -2.2588  -2.2235  -2.1942  -2.1634
    -2.1422  -2.1270  -2.1080  -2.0312  -2.0152  -1.9991  -1.9717  -1.9418
    -1.9378  -1.8493  -1.8191  -1.7971  -1.7684  -1.7192  -1.7038  -1.6863
    -1.5740  -0.2063  -0.1943   0.0949   1.0337   1.1438   1.9015   2.8639
     3.0286   3.3401   3.4797   3.9904   4.1687   5.3050   5.4790

          k = 0.0559 0.0323 0.0000 ( 19481 PWs)   bands (ev):

   -90.7258 -90.6454 -90.6196 -90.6171 -90.6154 -90.4597 -90.4089 -90.4060
   -90.4047 -90.3918 -90.3885 -90.3878 -54.2657 -54.1845 -54.1826 -54.1631
   -54.1545 -54.1432 -54.1413 -54.1188 -54.1150 -54.1121 -54.1117 -54.1074
   -54.0985 -54.0957 -54.0813 -53.9707 -53.9640 -53.9512 -53.9455 -53.9229
   -53.9207 -53.9135 -53.9033 -53.8990 -53.8945 -53.8941 -53.8933 -53.8913
   -53.8899 -53.8846 -53.8836 -53.8764 -53.8698 -53.8663 -53.8658 -53.8622
   -11.0226  -4.4787  -4.3771  -4.2613  -4.1908  -4.0978  -4.0474  -4.0175
    -4.0028  -3.9821  -3.9733  -3.9102  -3.8727  -3.8471  -3.7725  -3.7235
    -3.5850  -3.5774  -3.4352  -3.3844  -3.3407  -3.3256  -3.3026  -3.2067
    -3.1373  -3.0939  -3.0813  -3.0652  -3.0208  -2.9422  -2.9354  -2.9029
    -2.8879  -2.8403  -2.8210  -2.7582  -2.7519  -2.6113  -2.5289  -2.4589
    -2.4460  -2.4083  -2.4015  -2.3548  -2.3133  -2.2905  -2.2781  -2.2427
    -2.2238  -2.1925  -2.1456  -2.1384  -2.1131  -2.0671  -2.0334  -1.9599
    -1.9527  -1.8966  -1.8867  -1.7950  -1.7643  -1.7489  -1.6733  -1.6336
    -1.4986  -1.2313  -0.0860   0.5412   1.1962   1.2578   1.6318   2.5289
     2.6026   3.0009   3.5536   4.6616   4.7908   5.4328   5.6254

          k = 0.0559-0.1290 0.0000 ( 19479 PWs)   bands (ev):

   -90.7258 -90.6453 -90.6190 -90.6178 -90.6154 -90.4597 -90.4083 -90.4067
   -90.4048 -90.3912 -90.3892 -90.3877 -54.2656 -54.1836 -54.1819 -54.1580
   -54.1471 -54.1429 -54.1359 -54.1245 -54.1160 -54.1135 -54.1111 -54.1092
   -54.1022 -54.0979 -54.0845 -53.9675 -53.9609 -53.9455 -53.9443 -53.9255
   -53.9157 -53.9071 -53.9066 -53.9044 -53.8949 -53.8939 -53.8929 -53.8920
   -53.8899 -53.8877 -53.8875 -53.8809 -53.8693 -53.8671 -53.8661 -53.8646
   -11.0205  -4.3572  -4.1988  -4.1614  -4.0592  -3.9665  -3.9272  -3.8992
    -3.8866  -3.8595  -3.8374  -3.8024  -3.7612  -3.7144  -3.6274  -3.5751
    -3.5650  -3.5378  -3.4573  -3.3812  -3.3632  -3.2997  -3.2212  -3.2053
    -3.1691  -3.1587  -3.1390  -3.0085  -2.9795  -2.9673  -2.9508  -2.9342
    -2.8994  -2.8617  -2.8323  -2.8150  -2.7170  -2.6495  -2.6085  -2.5788
    -2.5683  -2.5469  -2.5090  -2.4911  -2.4505  -2.3966  -2.3693  -2.3382
    -2.3202  -2.2807  -2.2496  -2.2195  -2.1866  -2.1201  -2.1048  -2.0788
    -1.9954  -1.9666  -1.9150  -1.8285  -1.8136  -1.7967  -1.7414  -1.7123
    -1.4818  -1.1695  -0.3616  -0.2967   0.5061   1.1056   1.8584   2.6880
     2.9515   3.5928   4.0729   4.3883   4.9868   5.2344   5.7937

          k = 0.0559-0.0968 0.0000 ( 19479 PWs)   bands (ev):

   -90.7258 -90.6453 -90.6187 -90.6181 -90.6155 -90.4597 -90.4075 -90.4073
   -90.4048 -90.3904 -90.3901 -90.3876 -54.2655 -54.1827 -54.1820 -54.1498
   -54.1496 -54.1428 -54.1282 -54.1259 -54.1245 -54.1133 -54.1123 -54.1107
   -54.0990 -54.0987 -54.0884 -53.9628 -53.9626 -53.9454 -53.9345 -53.9341
   -53.9103 -53.9057 -53.9054 -53.9049 -53.9000 -53.8943 -53.8940 -53.8928
   -53.8925 -53.8899 -53.8829 -53.8827 -53.8687 -53.8684 -53.8680 -53.8652
   -11.0195  -4.3459  -4.1627  -4.0103  -3.8582  -3.8495  -3.8352  -3.7595
    -3.7519  -3.7381  -3.7179  -3.7115  -3.6720  -3.6690  -3.6642  -3.6410
    -3.6262  -3.6221  -3.4424  -3.3861  -3.2658  -3.2408  -3.2398  -3.1920
    -3.1884  -3.1790  -3.0530  -3.0416  -3.0323  -3.0158  -3.0105  -3.0067
[...]

   -90.7042 -90.6549 -90.6510 -90.6507 -90.6287 -90.4912 -90.4631 -90.4597
   -90.4591 -90.4365 -90.4340 -90.4321 -54.2156 -54.2077 -54.2042 -54.1799
   -54.1605 -54.1577 -54.1493 -54.1489 -54.1471 -54.1379 -54.1373 -54.1309
   -54.1184 -54.0955 -54.0925 -54.0050 -54.0014 -53.9974 -53.9760 -53.9736
   -53.9650 -53.9642 -53.9511 -53.9490 -53.9467 -53.9457 -53.9450 -53.9449
   -53.9373 -53.9367 -53.9273 -53.9213 -53.9151 -53.9125 -53.9105 -53.9064
   -10.8504  -4.4953  -4.2880  -4.2666  -4.2227  -4.0857  -4.0683  -4.0612
    -4.0541  -4.0230  -4.0126  -3.9692  -3.9246  -3.8722  -3.7929  -3.7581
    -3.6109  -3.6013  -3.4508  -3.4233  -3.3848  -3.3723  -3.3187  -3.2314
    -3.1693  -3.1422  -3.1373  -3.1012  -3.0606  -2.9748  -2.9702  -2.9294
    -2.9119  -2.8691  -2.8537  -2.7921  -2.7863  -2.6432  -2.5387  -2.5122
    -2.4830  -2.4325  -2.4304  -2.4009  -2.3561  -2.3316  -2.3256  -2.2739
    -2.2661  -2.2307  -2.1692  -2.1669  -2.1350  -2.1063  -2.0729  -2.0303
    -1.9798  -1.9342  -1.8988  -1.8392  -1.7966  -1.7763  -1.7190  -1.6615
    -1.5348  -1.2729  -0.0658   0.4786   1.1704   1.2180   1.5845   2.5278
     2.5582   2.8790   3.5313   4.5554   4.7652   5.3566   5.5977

          k = 0.0559 0.0000 0.0000 ( 19453 PWs)   bands (ev):

   -90.7042 -90.6549 -90.6515 -90.6501 -90.6287 -90.4913 -90.4633 -90.4596
   -90.4590 -90.4368 -90.4334 -90.4323 -54.2164 -54.2112 -54.2043 -54.1815
   -54.1600 -54.1583 -54.1494 -54.1471 -54.1467 -54.1391 -54.1366 -54.1269
   -54.1180 -54.0956 -54.0936 -54.0054 -54.0035 -54.0006 -53.9760 -53.9744
   -53.9667 -53.9650 -53.9495 -53.9482 -53.9468 -53.9454 -53.9450 -53.9412
   -53.9386 -53.9357 -53.9273 -53.9161 -53.9153 -53.9119 -53.9107 -53.9066
   -10.8514  -4.6208  -4.2993  -4.2829  -4.2081  -4.2033  -4.1215  -4.1036
    -4.0908  -4.0791  -4.0647  -4.0184  -3.9738  -3.9090  -3.8299  -3.7789
    -3.7759  -3.6527  -3.4457  -3.3901  -3.3775  -3.3210  -3.2943  -3.2770
    -3.1865  -3.1683  -3.1642  -3.0890  -3.0414  -3.0340  -3.0202  -2.9711
    -2.9399  -2.8951  -2.8238  -2.7365  -2.7104  -2.6817  -2.5377  -2.4602
    -2.4417  -2.4247  -2.3973  -2.3583  -2.2873  -2.2759  -2.2439  -2.2023
    -2.1894  -2.1513  -2.1388  -2.0667  -2.0512  -2.0454  -2.0007  -1.9750
    -1.9700  -1.8914  -1.8591  -1.8169  -1.8097  -1.7647  -1.7405  -1.7115
    -1.6172  -0.2508  -0.2292   0.1045   1.0095   1.1094   1.7934   2.8361
     3.0128   3.3333   3.4311   3.9579   4.0523   5.2606   5.3935

          k = 0.0559 0.0323 0.0000 ( 19481 PWs)   bands (ev):

   -90.7042 -90.6545 -90.6521 -90.6499 -90.6287 -90.4912 -90.4631 -90.4600
   -90.4588 -90.4367 -90.4331 -90.4327 -54.2159 -54.2076 -54.2042 -54.1796
   -54.1603 -54.1576 -54.1502 -54.1483 -54.1463 -54.1388 -54.1376 -54.1314
   -54.1177 -54.0956 -54.0924 -54.0048 -54.0013 -53.9976 -53.9760 -53.9738
   -53.9653 -53.9642 -53.9511 -53.9490 -53.9469 -53.9457 -53.9453 -53.9448
   -53.9371 -53.9369 -53.9267 -53.9208 -53.9154 -53.9115 -53.9112 -53.9069
   -10.8504  -4.4953  -4.2902  -4.2654  -4.2216  -4.0860  -4.0666  -4.0610
    -4.0539  -4.0227  -4.0111  -3.9717  -3.9249  -3.8747  -3.7926  -3.7582
    -3.6117  -3.6004  -3.4498  -3.4243  -3.3869  -3.3718  -3.3178  -3.2309
    -3.1698  -3.1409  -3.1383  -3.0991  -3.0625  -2.9753  -2.9681  -2.9292
    -2.9123  -2.8693  -2.8538  -2.7904  -2.7867  -2.6435  -2.5400  -2.5132
    -2.4829  -2.4315  -2.4269  -2.4008  -2.3553  -2.3315  -2.3269  -2.2735
    -2.2687  -2.2292  -2.1689  -2.1668  -2.1352  -2.1065  -2.0749  -2.0305
    -1.9798  -1.9341  -1.8974  -1.8386  -1.7966  -1.7762  -1.7202  -1.6619
    -1.5351  -1.2735  -0.0650   0.4783   1.1704   1.2181   1.5851   2.5276
     2.5582   2.8787   3.5311   4.5556   4.7631   5.3566   5.5964

          k = 0.0559-0.1290 0.0000 ( 19479 PWs)   bands (ev):

   -90.7042 -90.6538 -90.6528 -90.6500 -90.6287 -90.4912 -90.4624 -90.4608
   -90.4588 -90.4362 -90.4337 -90.4326 -54.2117 -54.2040 -54.2030 -54.1740
   -54.1623 -54.1578 -54.1514 -54.1494 -54.1462 -54.1430 -54.1381 -54.1335
   -54.1209 -54.0942 -54.0912 -54.0011 -53.9946 -53.9936 -53.9764 -53.9758
   -53.9605 -53.9599 -53.9578 -53.9492 -53.9480 -53.9470 -53.9463 -53.9447
   -53.9403 -53.9367 -53.9303 -53.9250 -53.9149 -53.9122 -53.9112 -53.9098
   -10.8483  -4.2689  -4.2412  -4.1607  -4.0657  -3.9756  -3.9582  -3.9439
    -3.9179  -3.8885  -3.8793  -3.8445  -3.7880  -3.7427  -3.6342  -3.6187
    -3.5964  -3.5736  -3.4845  -3.4228  -3.3786  -3.3152  -3.2732  -3.2511
    -3.2251  -3.2166  -3.1637  -3.0452  -3.0233  -3.0110  -2.9945  -2.9775
    -2.9447  -2.8949  -2.8712  -2.8324  -2.7299  -2.6938  -2.6562  -2.6166
    -2.5950  -2.5797  -2.5329  -2.5258  -2.4911  -2.4143  -2.3991  -2.3724
    -2.3449  -2.3259  -2.2785  -2.2679  -2.2077  -2.1530  -2.1316  -2.1095
    -2.0529  -2.0047  -1.9462  -1.8733  -1.8439  -1.8316  -1.7879  -1.7389
    -1.5187  -1.1866  -0.3805  -0.3243   0.4979   1.0689   1.7853   2.6241
     2.9053   3.4640   4.0677   4.3234   4.9543   5.1830   5.7460

          k = 0.0559-0.0968 0.0000 ( 19479 PWs)   bands (ev):

   -90.7042 -90.6537 -90.6527 -90.6502 -90.6287 -90.4912 -90.4618 -90.4613
   -90.4589 -90.4355 -90.4348 -90.4323 -54.2054 -54.2052 -54.2039 -54.1660
   -54.1631 -54.1617 -54.1564 -54.1516 -54.1463 -54.1393 -54.1379 -54.1333
   -54.1250 -54.0923 -54.0918 -53.9958 -53.9955 -53.9849 -53.9844 -53.9759
   -53.9641 -53.9504 -53.9504 -53.9499 -53.9493 -53.9477 -53.9472 -53.9466
   -53.9462 -53.9446 -53.9266 -53.9261 -53.9142 -53.9134 -53.9132 -53.9106
   -10.8473  -4.2581  -4.2304  -3.9022  -3.8806  -3.8760  -3.8191  -3.8149
    -3.7911  -3.7736  -3.7632  -3.7405  -3.7269  -3.7201  -3.7019  -3.6691
    -3.6663  -3.6608  -3.4646  -3.4203  -3.2937  -3.2800  -3.2527  -3.2352
    -3.2245  -3.2214  -3.1503  -3.0863  -3.0815  -3.0627  -3.0480  -3.0382
    -2.9852  -2.9071  -2.8930  -2.8415  -2.8316  -2.8244  -2.8181  -2.8083
    -2.7885  -2.7205  -2.6649  -2.5560  -2.4299  -2.4231  -2.4046  -2.3953
    -2.3506  -2.3184  -2.2851  -2.1870  -2.1459  -2.1414  -2.1110  -2.0087
    -1.9876  -1.9773  -1.9595  -1.9298  -1.8728  -1.8635  -1.8406  -1.5083
    -1.5070  -1.4957  -0.6735  -0.2796  -0.2796   0.9127   2.1345   2.1394
     3.1734   4.7453   4.7682   4.7886   4.8251   4.8855   5.5283

          k = 0.0559-0.0645 0.0000 ( 19479 PWs)   bands (ev):

   -90.7042 -90.6544 -90.6516 -90.6505 -90.6287 -90.4912 -90.4626 -90.4604
   -90.4590 -90.4358 -90.4347 -90.4321 -54.2115 -54.2040 -54.2030 -54.1746
   -54.1627 -54.1581 -54.1509 -54.1490 -54.1468 -54.1421 -54.1378 -54.1333
   -54.1216 -54.0941 -54.0913 -54.0013 -53.9948 -53.9934 -53.9762 -53.9758
   -53.9602 -53.9596 -53.9579 -53.9491 -53.9479 -53.9468 -53.9461 -53.9448
   -53.9405 -53.9371 -53.9312 -53.9251 -53.9144 -53.9133 -53.9108 -53.9092
   -10.8483  -4.2682  -4.2417  -4.1599  -4.0675  -3.9753  -3.9618  -3.9444
    -3.9177  -3.8878  -3.8760  -3.8448  -3.7867  -3.7417  -3.6324  -3.6191
    -3.5967  -3.5727  -3.4863  -3.4231  -3.3761  -3.3167  -3.2725  -3.2510
    -3.2255  -3.2189  -3.1634  -3.0473  -3.0219  -3.0113  -2.9933  -2.9778
    -2.9454  -2.8943  -2.8717  -2.8339  -2.7304  -2.6936  -2.6561  -2.6170
    -2.5925  -2.5801  -2.5333  -2.5231  -2.4951  -2.4152  -2.3981  -2.3721
    -2.3471  -2.3244  -2.2780  -2.2688  -2.2078  -2.1517  -2.1283  -2.1095
    -2.0542  -2.0062  -1.9470  -1.8742  -1.8437  -1.8313  -1.7872  -1.7386
    -1.5179  -1.1857  -0.3810  -0.3246   0.4974   1.0693   1.7851   2.6242
     2.9053   3.4638   4.0657   4.3256   4.9622   5.1754   5.7448

          k =-0.0838 0.0484 0.0000 ( 19500 PWs)   bands (ev):

   -90.7042 -90.6545 -90.6513 -90.6508 -90.6287 -90.4912 -90.4626 -90.4602
   -90.4591 -90.4356 -90.4348 -90.4321 -54.2132 -54.2040 -54.2001 -54.1784
   -54.1604 -54.1534 -54.1506 -54.1497 -54.1470 -54.1463 -54.1383 -54.1342
   -54.1198 -54.0948 -54.0905 -54.0029 -53.9964 -53.9910 -53.9759 -53.9712
   -53.9634 -53.9607 -53.9601 -53.9501 -53.9485 -53.9461 -53.9452 -53.9404
   -53.9378 -53.9365 -53.9351 -53.9285 -53.9142 -53.9135 -53.9106 -53.9076
   -10.8483  -4.2680  -4.2401  -4.1700  -4.1478  -4.0161  -3.9772  -3.9722
    -3.9660  -3.8725  -3.7960  -3.7604  -3.7459  -3.7240  -3.7134  -3.6438
    -3.6149  -3.5467  -3.4950  -3.3846  -3.3240  -3.3191  -3.3006  -3.2680
    -3.2648  -3.2171  -3.1465  -3.0123  -2.9737  -2.9220  -2.9187  -2.9146
    -2.8846  -2.8500  -2.8087  -2.7196  -2.6675  -2.6463  -2.6455  -2.6293
    -2.6086  -2.6070  -2.5669  -2.5066  -2.4694  -2.4451  -2.4209  -2.3932
    -2.3582  -2.3464  -2.3168  -2.3134  -2.2742  -2.2507  -2.2235  -2.1561
    -2.1444  -2.1214  -2.0659  -1.9168  -1.8418  -1.8064  -1.7935  -1.7175
    -1.6610  -1.0886  -0.8201   0.5632   1.1273   1.1428   1.6460   2.1835
     2.5023   2.8546   4.2249   4.3101   4.6428   5.3479   5.8727

          k =-0.0838 0.0806 0.0000 ( 19479 PWs)   bands (ev):

   -90.7042 -90.6543 -90.6518 -90.6504 -90.6287 -90.4912 -90.4626 -90.4603
   -90.4590 -90.4359 -90.4345 -90.4322 -54.2115 -54.2040 -54.2030 -54.1746
   -54.1624 -54.1580 -54.1510 -54.1496 -54.1467 -54.1422 -54.1377 -54.1333
   -54.1215 -54.0941 -54.0913 -54.0013 -53.9948 -53.9934 -53.9762 -53.9758
   -53.9600 -53.9595 -53.9579 -53.9493 -53.9480 -53.9470 -53.9459 -53.9449
   -53.9405 -53.9366 -53.9311 -53.9253 -53.9145 -53.9131 -53.9108 -53.9093
   -10.8483  -4.2696  -4.2406  -4.1611  -4.0665  -3.9755  -3.9585  -3.9450
    -3.9176  -3.8889  -3.8783  -3.8438  -3.7870  -3.7420  -3.6326  -3.6191
    -3.5959  -3.5733  -3.4853  -3.4235  -3.3787  -3.3136  -3.2740  -3.2509
    -3.2251  -3.2171  -3.1634  -3.0470  -3.0235  -3.0105  -2.9945  -2.9781
    -2.9445  -2.8959  -2.8713  -2.8331  -2.7295  -2.6935  -2.6564  -2.6158
    -2.5940  -2.5802  -2.5335  -2.5243  -2.4923  -2.4148  -2.4003  -2.3723
    -2.3452  -2.3258  -2.2785  -2.2676  -2.2079  -2.1524  -2.1290  -2.1095
    -2.0534  -2.0050  -1.9472  -1.8739  -1.8439  -1.8318  -1.7872  -1.7386
    -1.5183  -1.1864  -0.3804  -0.3243   0.4973   1.0692   1.7854   2.6239
     2.9052   3.4640   4.0675   4.3243   4.9547   5.1847   5.7463

          k =-0.0838 0.1129 0.0000 ( 19479 PWs)   bands (ev):

   -90.7042 -90.6539 -90.6526 -90.6500 -90.6287 -90.4912 -90.4625 -90.4605
   -90.4589 -90.4362 -90.4339 -90.4325 -54.2117 -54.2040 -54.2029 -54.1740
   -54.1626 -54.1580 -54.1513 -54.1488 -54.1463 -54.1429 -54.1383 -54.1335
   -54.1210 -54.0941 -54.0913 -54.0011 -53.9947 -53.9936 -53.9764 -53.9758
   -53.9603 -53.9596 -53.9579 -53.9490 -53.9480 -53.9470 -53.9461 -53.9449
   -53.9403 -53.9373 -53.9304 -53.9248 -53.9149 -53.9124 -53.9111 -53.9098
   -10.8483  -4.2705  -4.2402  -4.1601  -4.0665  -3.9747  -3.9608  -3.9435
    -3.9179  -3.8877  -3.8763  -3.8469  -3.7874  -3.7421  -3.6339  -3.6184
    -3.5971  -3.5730  -3.4858  -3.4224  -3.3766  -3.3187  -3.2714  -3.2509
    -3.2256  -3.2178  -3.1636  -3.0459  -3.0215  -3.0117  -2.9934  -2.9769
    -2.9456  -2.8938  -2.8721  -2.8320  -2.7310  -2.6940  -2.6557  -2.6176
    -2.5932  -2.5796  -2.5326  -2.5254  -2.4934  -2.4154  -2.3968  -2.3717
    -2.3469  -2.3244  -2.2788  -2.2685  -2.2089  -2.1518  -2.1305  -2.1096
    -2.0536  -2.0062  -1.9460  -1.8736  -1.8437  -1.8312  -1.7879  -1.7390
    -1.5181  -1.1860  -0.3812  -0.3242   0.4978   1.0692   1.7854   2.6238
     2.9054   3.4640   4.0672   4.3244   4.9614   5.1737   5.7451

          k =-0.0838-0.0484 0.0000 ( 19500 PWs)   bands (ev):

   -90.7042 -90.6536 -90.6530 -90.6499 -90.6287 -90.4912 -90.4625 -90.4606
   -90.4589 -90.4363 -90.4335 -90.4328 -54.2135 -54.2040 -54.2001 -54.1776
   -54.1600 -54.1526 -54.1515 -54.1488 -54.1480 -54.1462 -54.1397 -54.1344
   -54.1190 -54.0949 -54.0905 -54.0027 -53.9962 -53.9911 -53.9759 -53.9716
   -53.9641 -53.9606 -53.9598 -53.9504 -53.9484 -53.9465 -53.9450 -53.9409
   -53.9375 -53.9370 -53.9339 -53.9275 -53.9150 -53.9119 -53.9114 -53.9083
   -10.8483  -4.2702  -4.2386  -4.1701  -4.1461  -4.0166  -3.9774  -3.9723
    -3.9640  -3.8728  -3.7973  -3.7603  -3.7465  -3.7250  -3.7149  -3.6437
    -3.6151  -3.5474  -3.4933  -3.3854  -3.3242  -3.3193  -3.3006  -3.2676
    -3.2664  -3.2161  -3.1468  -3.0101  -2.9727  -2.9216  -2.9186  -2.9153
    -2.8814  -2.8505  -2.8044  -2.7220  -2.6675  -2.6479  -2.6455  -2.6291
    -2.6078  -2.6063  -2.5670  -2.5117  -2.4654  -2.4462  -2.4212  -2.3917
    -2.3587  -2.3464  -2.3174  -2.3123  -2.2743  -2.2508  -2.2248  -2.1562
    -2.1467  -2.1218  -2.0658  -1.9146  -1.8410  -1.8066  -1.7933  -1.7187
    -1.6613  -1.0886  -0.8201   0.5632   1.1274   1.1429   1.6461   2.1842
     2.5023   2.8537   4.2249   4.3099   4.6429   5.3458   5.8727

     the Fermi energy is     1.3578 ev

!    total energy              =   -3575.01999401 Ry
     Harris-Foulkes estimate   =   -3575.01999407 Ry
     estimated scf accuracy    <       0.00000004 Ry

     The total energy is the sum of the following terms:

     one-electron contribution =  -25999.83440995 Ry
     hartree contribution      =   12994.18659689 Ry
     xc contribution           =    -367.00167895 Ry
     ewald contribution        =    9797.65446513 Ry
     electric field correction =       0.00000402 Ry
     smearing contrib. (-TS)   =      -0.02497114 Ry

     convergence has been achieved in   6 iterations
 
 BEEF-vdW xc energy contributions
           1 :   -317.797459926685     
           2 :    287.435801053748     
           3 :   -236.964830071956     
           4 :    181.739546371951     
           5 :   -135.514296438244     
           6 :    105.586274139149     
           7 :   -91.5307352495233     
           8 :    87.4402369717069     
           9 :   -86.0217064171832     
          10 :    82.2545963506519     
          11 :   -74.9504475967887     
          12 :    65.9227817180862     
          13 :   -57.8221126773548     
          14 :    52.1900932781047     
          15 :   -48.8006247959921     
          16 :    46.3264873474541     
          17 :   -43.5514658566347     
          18 :    40.1810740537435     
          19 :   -36.7929607805253     
          20 :    34.1487509899745     
          21 :   -32.4964942094704     
          22 :    31.3808755980696     
          23 :   -30.0332360005990     
          24 :    27.9822938280205     
          25 :   -25.4139067289188     
          26 :    23.0297686026555     
          27 :   -21.5350506718897     
          28 :    21.1377392441775     
          29 :   -21.4140312798304     
          30 :    21.6152840228763     
          31 :   -31.8832917990001     
          32 :   -23.1454869791743     

     Forces acting on atoms (Ry/au):


     negative rho (up, down):  1.941E-03 0.000E+00
     atom    1 type  1   force =    -0.00148668   -0.00087365    0.00063526
     atom    2 type  1   force =     0.00148613   -0.00084194    0.00057469
     atom    3 type  1   force =     0.00003742    0.00171619    0.00060420
     atom    4 type  1   force =    -0.00002834    0.00000110    0.00137327
     atom    5 type  1   force =     0.00001594   -0.00536814   -0.00002121
     atom    6 type  1   force =    -0.00002931    0.00000183   -0.00280910
     atom    7 type  1   force =     0.00470964    0.00270259    0.00012375
     atom    8 type  1   force =    -0.00459080    0.00266318   -0.00016113
     atom    9 type  1   force =    -0.00011900   -0.00000331    0.00041287
     atom   10 type  1   force =     0.00011806    0.00008336   -0.00008916
     atom   11 type  1   force =     0.00013582    0.00000863   -0.00004532
     atom   12 type  1   force =    -0.00001585   -0.00009015   -0.00004767
     atom   13 type  2   force =    -0.00085079   -0.00004058   -0.00140132
     atom   14 type  3   force =    -0.00024750    0.00000547    0.00050864
     atom   15 type  3   force =     0.00041724    0.00146426    0.00017908
     atom   16 type  3   force =     0.00044800   -0.00142883    0.00016315

     Total force =     0.002806     Total SCF correction =     0.000454
     SCF correction compared to forces is large: reduce conv_thr to get better values


     entering subroutine stress ...


     negative rho (up, down):  1.941E-03 0.000E+00
          total   stress  (Ry/bohr**3)                   (kbar)     P=   -6.20
  -0.00005181  -0.00000004  -0.00000021         -7.62     -0.01     -0.03
  -0.00000004  -0.00005060   0.00000001         -0.01     -7.44      0.00
  -0.00000021   0.00000001  -0.00002408         -0.03      0.00     -3.54


     bfgs converged in  20 scf cycles and  19 bfgs steps
     (criteria: energy <  1.0E+00, force <  1.9E-03)

     End of BFGS Geometry Optimization

     Final energy   =   -3575.0199940051 Ry
Begin final coordinates

ATOMIC_POSITIONS (crystal)
Ag1      0.166666667   0.166666667   0.402063960    0   0   0
Ag1      0.666666667   0.166666667   0.402063960    0   0   0
Ag1      0.166666667   0.666666667   0.402063960    0   0   0
Ag1      0.666666667   0.666666667   0.402063960    0   0   0
Ag1      0.833333333   0.333333333   0.500000000    0   0   0
Ag1      0.333333333   0.333333333   0.500000000    0   0   0
Ag1      0.833333333   0.833333333   0.500000000    0   0   0
Ag1      0.333333333   0.833333333   0.500000000    0   0   0
Ag1      0.000728625   0.000003803   0.602797230
Ag1      0.500351382   0.000257152   0.595736007
Ag1      0.000159272   0.499891692   0.595742081
Ag1      0.499797191   0.499856077   0.595736807
C1       0.007375262   0.000004690   0.692185833
H1       0.181851901   0.000067290   0.704883030
H1       0.833797027   0.173345628   0.705625077
H1       0.007263034   0.826595367   0.705625618
End final coordinates



     Writing output data file calc.save
 
     init_run     :      7.93s CPU      9.91s WALL (       1 calls)
     electrons    :   3460.59s CPU   4214.25s WALL (      20 calls)
     update_pot   :     28.18s CPU     31.40s WALL (      19 calls)
     forces       :    102.54s CPU    108.15s WALL (      20 calls)
     stress       :    306.75s CPU    321.98s WALL (      20 calls)

     Called by init_run:
     wfcinit      :      5.70s CPU      7.37s WALL (       1 calls)
     potinit      :      0.73s CPU      0.85s WALL (       1 calls)

     Called by electrons:
     c_bands      :   2606.68s CPU   3148.12s WALL (     161 calls)
     sum_band     :    403.03s CPU    498.31s WALL (     161 calls)
     v_of_rho     :     79.52s CPU    102.06s WALL (     181 calls)
     newd         :    118.20s CPU    133.52s WALL (     181 calls)
     mix_rho      :      2.16s CPU      2.93s WALL (     161 calls)
     vdW_energy   :     99.31s CPU    117.50s WALL (     901 calls)
     vdW_ffts     :    108.82s CPU    147.90s WALL (    1842 calls)
     vdW_v        :     49.41s CPU     57.46s WALL (     901 calls)

     Called by c_bands:
     init_us_2    :     13.43s CPU     15.13s WALL (    7260 calls)
     cegterg      :   2520.54s CPU   3058.20s WALL (    3220 calls)

     Called by *egterg:
     h_psi        :   1212.41s CPU   1627.19s WALL (   14256 calls)
     s_psi        :    124.39s CPU    129.56s WALL (   14256 calls)
     g_psi        :      8.41s CPU      8.61s WALL (   11016 calls)
     cdiaghg      :    642.95s CPU    657.89s WALL (   13856 calls)

     Called by h_psi:
     add_vuspsi   :    127.56s CPU    132.70s WALL (   14256 calls)

     General routines
     calbec       :    216.81s CPU    222.17s WALL (   18276 calls)
     fft          :    167.75s CPU    226.49s WALL (   54025 calls)
     ffts         :      0.24s CPU      0.32s WALL (     342 calls)
     fftw         :    943.94s CPU   1432.82s WALL ( 2366282 calls)
     interpolate  :      1.20s CPU      2.11s WALL (     342 calls)
     davcio       :      0.02s CPU      0.26s WALL (      20 calls)
 
     Parallel routines
     fft_scatter  :    547.66s CPU    871.17s WALL ( 2420649 calls)
 
     PWSCF        :     1h 5m CPU        1h18m WALL

 
   This run was terminated on:  11:31:44  16Apr2018            

=------------------------------------------------------------------------------=
   JOB DONE.
=------------------------------------------------------------------------------=
