  python dir          : /u/if/mamunm/src/espresso
  espresso dir        : /nfs/slac/g/suncatfs/sw/espv18/espresso-dynpy-beef/bin
  pseudo dir          : /u/if/mamunm/psp/gbrv1.5pbe
  ase-espresso py git : GITVERSION



     Program PWSCF v.5.1rc2 (svn rev. 11289) starts on  4May2018 at 10:33: 4 

     This program is part of the open-source Quantum ESPRESSO suite
     for quantum simulation of materials; please cite
         "P. Giannozzi et al., J. Phys.:Condens. Matter 21 395502 (2009);
          URL http://www.quantum-espresso.org", 
     in publications or presentations arising from this work. More details at
     http://www.quantum-espresso.org/quote

     Parallel version (MPI), running on    32 processors
     K-points division:     npool     =       4
     R & G space division:  proc/nbgrp/npool/nimage =       8
     Reading input from pw.inp
     Message from routine read_cards :
     DEPRECATED: no units specified in CELL_PARAMETERS card

     Current dimensions of program PWSCF are:
     Max number of different atomic species (ntypx) = 10
     Max number of k-points (npk) =  40000
     Max angular momentum in pseudopotentials (lmaxx) =  3
     Presently stress not available with electric field


     **************************************************************************
     Initializing libbeef V0.1.1 with the BEEF-vdW functional.
     Citation: Wellendorff et al., PRB 85, 235149 (2012).
     **************************************************************************


     IMPORTANT: XC functional enforced from input :
     Exchange-correlation      = BEEF-VDW ( 1  4 27 13 2)
     Any further DFT definition will be discarded
     Please, verify this is what you really want


     Subspace diagonalization in iterative solution of the eigenvalue problem:
     a serial algorithm will be used

 
     Parallelization info
     --------------------
     sticks:   dense  smooth     PW     G-vecs:    dense   smooth      PW
     Min         402     160     45                76958    19469    3023
     Max         403     161     46                76979    19511    3040
     Sum        3217    1285    367               615719   155893   24283
 


     bravais-lattice index     =            0
     lattice parameter (alat)  =       1.8897  a.u.
     unit-cell volume          =    5174.6160 (a.u.)^3
     number of atoms/cell      =           13
     number of atomic types    =            2
     number of electrons       =       229.00
     number of Kohn-Sham states=          124
     kinetic-energy cutoff     =      36.7493  Ry
     charge density cutoff     =     367.4932  Ry
     convergence threshold     =      1.0E-05
     mixing beta               =       0.3000
     number of iterations used =           10  plain     mixing
     Exchange-correlation      = BEEF-VDW ( 1  4 27 13 2)
     nstep                     =           50


     celldm(1)=   1.889726  celldm(2)=   0.000000  celldm(3)=   0.000000
     celldm(4)=   0.000000  celldm(5)=   0.000000  celldm(6)=   0.000000

     crystal axes: (cart. coord. in units of alat)
               a(1) = (   5.966546   0.000000   0.000000 )  
               a(2) = (   2.983273   5.167181   0.000000 )  
               a(3) = (   0.000000   0.000000  24.871665 )  

     reciprocal axes: (cart. coord. in units 2 pi/alat)
               b(1) = (  0.167601 -0.096765  0.000000 )  
               b(2) = (  0.000000  0.193529  0.000000 )  
               b(3) = (  0.000000  0.000000  0.040206 )  


     PseudoPot. # 1 for Ag read from file:
     /u/if/mamunm/psp/gbrv1.5pbe/Ag.UPF
     MD5 check sum: d66d668201baa78d5eb5b04ef7011058
     Pseudo is Ultrasoft + core correction, Zval = 19.0
     Generated by new atomic code, or converted to UPF format
     Using radial grid of  887 points,  6 beta functions with: 
                l(1) =   0
                l(2) =   0
                l(3) =   1
                l(4) =   1
                l(5) =   2
                l(6) =   2
     Q(r) pseudized with  6 coefficients,  rinner =    1.300   1.300   1.300
                                                       1.300   1.300

     PseudoPot. # 2 for H  read from file:
     /u/if/mamunm/psp/gbrv1.5pbe/H.UPF
     MD5 check sum: 761ae9a214b05c3daf00ab9f6b793d6f
     Pseudo is Ultrasoft, Zval =  1.0
     Generated by new atomic code, or converted to UPF format
     Using radial grid of  615 points,  2 beta functions with: 
                l(1) =   0
                l(2) =   0
     Q(r) pseudized with  8 coefficients,  rinner =    0.700

     vdW kernel table read from file vdW_kernel_table
     MD5 check sum: 095c7af220d748ca6e76c0b4c6cfb241

     atomic species   valence    mass     pseudopotential
        Ag1           19.00   107.86820     Ag( 1.00)
        H1             1.00     1.00800     H ( 1.00)

     No symmetry found



   Cartesian axes

     site n.     atom                  positions (alat units)
         1           Ag1 tau(   1) = (   1.4916366   0.8611968  10.0000000  )
         2           Ag1 tau(   2) = (   4.4749098   0.8611968  10.0000000  )
         3           Ag1 tau(   3) = (   2.9832732   3.4447871  10.0000000  )
         4           Ag1 tau(   4) = (   5.9665464   3.4447871  10.0000000  )
         5           Ag1 tau(   5) = (   5.9665464   1.7223936  12.4358324  )
         6           Ag1 tau(   6) = (   2.9832732   1.7223936  12.4358324  )
         7           Ag1 tau(   7) = (   7.4581830   4.3059839  12.4358324  )
         8           Ag1 tau(   8) = (   4.4749098   4.3059839  12.4358324  )
         9           Ag1 tau(   9) = (   0.0000000   0.0000000  14.8716647  )
        10           Ag1 tau(  10) = (   2.9832732   0.0000000  14.8716647  )
        11           Ag1 tau(  11) = (   1.4916366   2.5835904  14.8716647  )
        12           Ag1 tau(  12) = (   4.4749098   2.5835904  14.8716647  )
        13           H1  tau(  13) = (   1.4916366   0.8611968  16.0156647  )

     number of k points=    20  Fermi-Dirac smearing, width (Ry)=  0.0110
                       cart. coord. in units 2pi/alat
        k(    1) = (   0.0000000   0.0000000   0.0000000), wk =   0.0555556
        k(    2) = (   0.0000000   0.0322549   0.0000000), wk =   0.1111111
        k(    3) = (   0.0000000   0.0645097   0.0000000), wk =   0.1111111
        k(    4) = (   0.0000000  -0.0967646   0.0000000), wk =   0.0555556
        k(    5) = (   0.0279335  -0.0161274   0.0000000), wk =   0.1111111
        k(    6) = (   0.0279335   0.0161274   0.0000000), wk =   0.1111111
        k(    7) = (   0.0279335   0.0483823   0.0000000), wk =   0.1111111
        k(    8) = (   0.0279335  -0.1128920   0.0000000), wk =   0.1111111
        k(    9) = (   0.0279335  -0.0806371   0.0000000), wk =   0.1111111
        k(   10) = (   0.0279335  -0.0483823   0.0000000), wk =   0.1111111
        k(   11) = (   0.0558670  -0.0322549   0.0000000), wk =   0.1111111
        k(   12) = (   0.0558670   0.0000000   0.0000000), wk =   0.1111111
        k(   13) = (   0.0558670   0.0322549   0.0000000), wk =   0.1111111
        k(   14) = (   0.0558670  -0.1290194   0.0000000), wk =   0.1111111
        k(   15) = (   0.0558670  -0.0967646   0.0000000), wk =   0.1111111
        k(   16) = (   0.0558670  -0.0645097   0.0000000), wk =   0.1111111
        k(   17) = (  -0.0838006   0.0483823   0.0000000), wk =   0.0555556
        k(   18) = (  -0.0838006   0.0806371   0.0000000), wk =   0.1111111
        k(   19) = (  -0.0838006   0.1128920   0.0000000), wk =   0.1111111
        k(   20) = (  -0.0838006  -0.0483823   0.0000000), wk =   0.0555556

     Dense  grid:   615719 G-vectors     FFT dimensions: (  72,  72, 288)

     Smooth grid:   155893 G-vectors     FFT dimensions: (  45,  45, 192)

     Largest allocated arrays     est. size (Mb)     dimensions
        Kohn-Sham Wavefunctions         4.68 Mb     (    2474,  124)
        NL pseudopotentials             8.23 Mb     (    2474,  218)
        Each V/rho on FFT grid          2.85 Mb     (  186624)
        Each G-vector array             0.59 Mb     (   76979)
        G-vector shells                 0.16 Mb     (   20444)
     Largest temporary arrays     est. size (Mb)     dimensions
        Auxiliary wavefunctions        18.72 Mb     (    2474,  496)
        Each subspace H/S matrix        3.75 Mb     (     496,  496)
        Each <psi_i|beta_j> matrix      0.41 Mb     (     218,  124)
        Arrays for rho mixing          28.48 Mb     (  186624,   10)

     Initial potential from superposition of free atoms
     Check: negative starting charge=   -0.002304

     starting charge  222.99942, renormalised to  229.00000

     negative rho (up, down):  2.366E-03 0.000E+00


     ************************************************************************
     *
     * You are using vdW-DF for exchange-correlation in this calculation.
     * Please cite the following three references that made this development
     * possible:
     *
     *   M. Dion, H. Rydberg, E. Schroder, D. C. Langreth, and
     *   B. I. Lundqvist, Phys. Rev. Lett. 92, 246401 (2004).
     *
     *   T. Thonhauser, V. R. Cooper, S. Li, A. Puzder, P. Hyldgaard, and
     *   D. C. Langreth, Phys. Rev. B 76, 125112 (2007).
     *
     *   G. Roman-Perez and J. M. Soler, Phys. Rev. Lett. 103, 096102 (2009).
     *
     *
     * If you are using vdW-DF2, please also cite:
     *
     *   K. Lee, E. D. Murray, L. Kong, B. I. Lundqvist, and
     *   D. C. Langreth, Phys. Rev. B 82, 081101(R) (2010).
     *
     *
     * If you are calculating the stress with vdW-DF, please also cite:
     *
     *   R. Sabatini, E. Kucukbenli, B. Kolb, T. Thonhauser, and
     *   S. de Gironcoli, J. Phys.: Condens. Matter 24, 424209 (2012).
     *
     ************************************************************************

     Carrying out vdW-DF run using the following parameters:

     Nqs =      20    Nr_points =    1024   r_max =   100.000
     q_mesh =
               0.00001000     0.04494208     0.09755937     0.15916263
               0.23128650     0.31572767     0.41458969     0.53033537
               0.66584808     0.82450364     1.01025438     1.22772762
               1.48234092     1.78043706     2.12944203     2.53805004
               3.01644009     3.57652955     4.23227104     5.00000000

     Gradients computed in reciprocal space

     ************************************************************************


 
     Adding external electric field

     Computed dipole along edir(3) : 
        Dipole               -0.1820 Ry au,         -0.4625 Debye
        Dipole field         -0.0004 Ry au
 
        Potential amp.        0.0405 Ry
        Total length         45.8256 bohr
 
     Starting wfc are  157 randomized atomic wfcs

     total cpu time spent up to now is       13.2 secs

     per-process dynamical memory:    94.1 Mb

     Self-consistent Calculation

     iteration #  1     ecut=    36.75 Ry     beta=0.30
     Davidson diagonalization with overlap
     ethr =  1.00E-02,  avg # of iterations =  5.8

     negative rho (up, down):  1.217E-03 0.000E+00
 
     Adding external electric field

     Computed dipole along edir(3) : 
        Dipole                1.5901 Ry au,          4.0416 Debye
        Dipole field          0.0039 Ry au
 
        Potential amp.       -0.3539 Ry
        Total length         45.8256 bohr
 

     total cpu time spent up to now is       40.1 secs

     total energy              =   -3557.77510634 Ry
     Harris-Foulkes estimate   =   -3564.28371779 Ry
     estimated scf accuracy    <      14.67911834 Ry

     iteration #  2     ecut=    36.75 Ry     beta=0.30
     Davidson diagonalization with overlap
     ethr =  6.41E-03,  avg # of iterations =  3.5

     negative rho (up, down):  1.328E-03 0.000E+00
 
     Adding external electric field

     Computed dipole along edir(3) : 
        Dipole               -3.4345 Ry au,         -8.7296 Debye
        Dipole field         -0.0083 Ry au
 
        Potential amp.        0.7644 Ry
        Total length         45.8256 bohr
 

     total cpu time spent up to now is       65.6 secs

     total energy              =   -3558.72683760 Ry
     Harris-Foulkes estimate   =   -3561.75365374 Ry
     estimated scf accuracy    <       9.79621284 Ry

     iteration #  3     ecut=    36.75 Ry     beta=0.30
     Davidson diagonalization with overlap
     ethr =  4.28E-03,  avg # of iterations =  5.9

     negative rho (up, down):  1.077E-03 0.000E+00
 
     Adding external electric field

     Computed dipole along edir(3) : 
        Dipole                1.2123 Ry au,          3.0814 Debye
        Dipole field          0.0029 Ry au
 
        Potential amp.       -0.2698 Ry
        Total length         45.8256 bohr
 

     total cpu time spent up to now is       93.9 secs

     total energy              =   -3554.75848634 Ry
     Harris-Foulkes estimate   =   -3563.71120762 Ry
     estimated scf accuracy    <     127.51029940 Ry

     iteration #  4     ecut=    36.75 Ry     beta=0.30
     Davidson diagonalization with overlap
     ethr =  4.28E-03,  avg # of iterations =  4.5

     negative rho (up, down):  1.100E-03 0.000E+00
 
     Adding external electric field

     Computed dipole along edir(3) : 
        Dipole                0.8442 Ry au,          2.1457 Debye
        Dipole field          0.0021 Ry au
 
        Potential amp.       -0.1879 Ry
        Total length         45.8256 bohr
 

     total cpu time spent up to now is      118.8 secs

     total energy              =   -3560.96226359 Ry
     Harris-Foulkes estimate   =   -3561.20278614 Ry
     estimated scf accuracy    <       2.30469925 Ry

     iteration #  5     ecut=    36.75 Ry     beta=0.30
     Davidson diagonalization with overlap
     ethr =  1.01E-03,  avg # of iterations =  2.7

     negative rho (up, down):  1.174E-03 0.000E+00
 
     Adding external electric field

     Computed dipole along edir(3) : 
        Dipole                0.5089 Ry au,          1.2934 Debye
        Dipole field          0.0012 Ry au
 
        Potential amp.       -0.1133 Ry
        Total length         45.8256 bohr
 

     total cpu time spent up to now is      140.4 secs

     total energy              =   -3560.98772592 Ry
     Harris-Foulkes estimate   =   -3561.05203326 Ry
     estimated scf accuracy    <       0.61665993 Ry

     iteration #  6     ecut=    36.75 Ry     beta=0.30
     Davidson diagonalization with overlap
     ethr =  2.69E-04,  avg # of iterations =  2.1

     negative rho (up, down):  1.296E-03 0.000E+00
 
     Adding external electric field

     Computed dipole along edir(3) : 
        Dipole                0.2759 Ry au,          0.7012 Debye
        Dipole field          0.0007 Ry au
 
        Potential amp.       -0.0614 Ry
        Total length         45.8256 bohr
 

     total cpu time spent up to now is      161.7 secs

     total energy              =   -3560.98633030 Ry
     Harris-Foulkes estimate   =   -3561.00325861 Ry
     estimated scf accuracy    <       0.12676065 Ry

     iteration #  7     ecut=    36.75 Ry     beta=0.30
     Davidson diagonalization with overlap
     ethr =  5.54E-05,  avg # of iterations =  5.2

     negative rho (up, down):  1.481E-03 0.000E+00
 
     Adding external electric field

     Computed dipole along edir(3) : 
        Dipole                0.0456 Ry au,          0.1160 Debye
        Dipole field          0.0001 Ry au
 
        Potential amp.       -0.0102 Ry
        Total length         45.8256 bohr
 

     total cpu time spent up to now is      186.0 secs

     total energy              =   -3560.98400375 Ry
     Harris-Foulkes estimate   =   -3560.98978473 Ry
     estimated scf accuracy    <       0.02573827 Ry

     iteration #  8     ecut=    36.75 Ry     beta=0.30
     Davidson diagonalization with overlap
     ethr =  1.12E-05,  avg # of iterations =  7.8

     negative rho (up, down):  1.655E-03 0.000E+00
 
     Adding external electric field

     Computed dipole along edir(3) : 
        Dipole               -0.0370 Ry au,         -0.0941 Debye
        Dipole field         -0.0001 Ry au
 
        Potential amp.        0.0082 Ry
        Total length         45.8256 bohr
 

     total cpu time spent up to now is      211.7 secs

     total energy              =   -3560.98510175 Ry
     Harris-Foulkes estimate   =   -3560.98526372 Ry
     estimated scf accuracy    <       0.00161496 Ry

     iteration #  9     ecut=    36.75 Ry     beta=0.30
     Davidson diagonalization with overlap
     ethr =  7.05E-07,  avg # of iterations =  4.0

     negative rho (up, down):  1.892E-03 0.000E+00
 
     Adding external electric field

     Computed dipole along edir(3) : 
        Dipole               -0.0623 Ry au,         -0.1584 Debye
        Dipole field         -0.0002 Ry au
 
        Potential amp.        0.0139 Ry
        Total length         45.8256 bohr
 

     total cpu time spent up to now is      235.0 secs

     total energy              =   -3560.98532213 Ry
     Harris-Foulkes estimate   =   -3560.98524206 Ry
     estimated scf accuracy    <       0.00010578 Ry

     iteration # 10     ecut=    36.75 Ry     beta=0.30
     Davidson diagonalization with overlap
     ethr =  4.62E-08,  avg # of iterations =  6.2

     negative rho (up, down):  2.051E-03 0.000E+00
 
     Adding external electric field

     Computed dipole along edir(3) : 
        Dipole               -0.0680 Ry au,         -0.1729 Debye
        Dipole field         -0.0002 Ry au
 
        Potential amp.        0.0151 Ry
        Total length         45.8256 bohr
 

     total cpu time spent up to now is      260.7 secs

     total energy              =   -3560.98534339 Ry
     Harris-Foulkes estimate   =   -3560.98533201 Ry
     estimated scf accuracy    <       0.00001401 Ry

     iteration # 11     ecut=    36.75 Ry     beta=0.30
     Davidson diagonalization with overlap
     ethr =  6.12E-09,  avg # of iterations =  4.3

     negative rho (up, down):  2.204E-03 0.000E+00

     negative rho (up, down):  2.204E-03 0.000E+00

     negative rho (up, down):  2.204E-03 0.000E+00

     negative rho (up, down):  2.204E-03 0.000E+00

     negative rho (up, down):  2.204E-03 0.000E+00

     negative rho (up, down):  2.204E-03 0.000E+00

     negative rho (up, down):  2.204E-03 0.000E+00

     negative rho (up, down):  2.204E-03 0.000E+00

     negative rho (up, down):  2.204E-03 0.000E+00

     negative rho (up, down):  2.204E-03 0.000E+00

     negative rho (up, down):  2.204E-03 0.000E+00

     negative rho (up, down):  2.204E-03 0.000E+00

     negative rho (up, down):  2.204E-03 0.000E+00

     negative rho (up, down):  2.204E-03 0.000E+00

     negative rho (up, down):  2.204E-03 0.000E+00

     negative rho (up, down):  2.204E-03 0.000E+00

     negative rho (up, down):  2.204E-03 0.000E+00

     negative rho (up, down):  2.204E-03 0.000E+00

     negative rho (up, down):  2.204E-03 0.000E+00

     negative rho (up, down):  2.204E-03 0.000E+00

     negative rho (up, down):  2.204E-03 0.000E+00

     negative rho (up, down):  2.204E-03 0.000E+00

     negative rho (up, down):  2.204E-03 0.000E+00

     negative rho (up, down):  2.204E-03 0.000E+00

     negative rho (up, down):  2.204E-03 0.000E+00

     negative rho (up, down):  2.204E-03 0.000E+00

     negative rho (up, down):  2.204E-03 0.000E+00

     negative rho (up, down):  2.204E-03 0.000E+00

     negative rho (up, down):  2.204E-03 0.000E+00

     negative rho (up, down):  2.204E-03 0.000E+00

     negative rho (up, down):  2.204E-03 0.000E+00

     negative rho (up, down):  2.204E-03 0.000E+00

     negative rho (up, down):  2.204E-03 0.000E+00

     negative rho (up, down):  2.204E-03 0.000E+00

     negative rho (up, down):  2.204E-03 0.000E+00
 
     Adding external electric field

     Computed dipole along edir(3) : 
        Dipole               -0.0900 Ry au,         -0.2287 Debye
        Dipole field         -0.0002 Ry au
 
        Potential amp.        0.0200 Ry
        Total length         45.8256 bohr
 

     total cpu time spent up to now is      336.3 secs

     End of self-consistent calculation

          k = 0.0000 0.0000 0.0000 ( 19435 PWs)   bands (ev):

   -90.9228 -90.8675 -90.8623 -90.8623 -90.7795 -90.7742 -90.7742 -90.6916
   -90.6862 -90.6862 -90.6315 -90.6272 -54.4393 -54.4393 -54.4144 -54.4082
   -54.3687 -54.3642 -54.3642 -54.3598 -54.3598 -54.3437 -54.3296 -54.3296
   -54.3138 -54.3028 -54.3028 -54.2649 -54.2497 -54.2497 -54.2497 -54.2394
   -54.2394 -54.2360 -54.2174 -54.2174 -54.1723 -54.1692 -54.1676 -54.1675
   -54.1648 -54.1648 -54.1296 -54.1296 -54.1188 -54.1188 -54.1171 -54.0968
    -5.5189  -5.0335  -4.6305  -4.6305  -4.6263  -4.5805  -4.4880  -4.4880
    -4.4770  -4.4252  -4.3887  -4.3887  -4.2697  -4.2243  -4.2243  -3.8085
    -3.6391  -3.6391  -3.5496  -3.5416  -3.5416  -3.4689  -3.4481  -3.4481
    -3.3135  -3.3135  -3.2508  -3.2489  -3.2489  -3.1885  -3.1885  -2.9320
    -2.7335  -2.7335  -2.6598  -2.6249  -2.6220  -2.6220  -2.6079  -2.6079
    -2.4817  -2.3647  -2.3647  -2.3620  -2.3620  -2.1418  -2.1418  -2.1387
    -2.0738  -2.0738  -2.0552  -2.0507  -2.0507  -1.9723  -1.9723  -1.9639
    -1.8559  -1.8189  -1.8189  -1.7821  -1.7628  -1.7628  -1.0371   0.6421
     1.6506   1.6506   1.6596   2.0707   2.3921   2.3921   2.6908   2.8219
     2.8219   4.0649   4.7537   4.7674

          k = 0.0000 0.0323 0.0000 ( 19455 PWs)   bands (ev):

   -90.9228 -90.8672 -90.8626 -90.8623 -90.7792 -90.7746 -90.7742 -90.6913
   -90.6865 -90.6862 -90.6315 -90.6272 -54.4375 -54.4354 -54.4141 -54.4045
   -54.3681 -54.3668 -54.3636 -54.3605 -54.3595 -54.3453 -54.3347 -54.3307
   -54.3105 -54.3007 -54.3002 -54.2666 -54.2521 -54.2501 -54.2493 -54.2415
   -54.2398 -54.2324 -54.2142 -54.2141 -54.1720 -54.1715 -54.1697 -54.1675
   -54.1666 -54.1650 -54.1314 -54.1301 -54.1223 -54.1197 -54.1170 -54.0968
    -5.3715  -4.9182  -4.5778  -4.5273  -4.5255  -4.4824  -4.4232  -4.4224
    -4.4122  -4.3397  -4.3214  -4.3152  -4.1929  -4.1421  -4.1161  -3.7930
    -3.6348  -3.6146  -3.5069  -3.5054  -3.4989  -3.4972  -3.4677  -3.3930
    -3.3698  -3.2848  -3.2832  -3.2506  -3.2236  -3.2134  -3.1086  -3.0016
    -2.8163  -2.8026  -2.7973  -2.7291  -2.6724  -2.6487  -2.6065  -2.5850
    -2.5279  -2.4381  -2.4236  -2.4135  -2.3648  -2.2172  -2.1926  -2.1674
    -2.1579  -2.1340  -2.1206  -2.0901  -2.0863  -2.0672  -2.0519  -2.0432
    -1.9675  -1.9464  -1.9232  -1.8839  -1.8714  -1.8639  -0.8642   0.1039
     0.7476   1.2601   1.3207   1.6544   2.2164   2.3842   3.1469   3.4556
     3.4706   4.3859   4.8977   5.0875

          k = 0.0000 0.0645 0.0000 ( 19481 PWs)   bands (ev):

   -90.9227 -90.8665 -90.8634 -90.8623 -90.7784 -90.7754 -90.7742 -90.6904
   -90.6873 -90.6862 -90.6315 -90.6272 -54.4335 -54.4262 -54.4136 -54.3958
   -54.3718 -54.3665 -54.3623 -54.3619 -54.3587 -54.3486 -54.3480 -54.3333
   -54.3045 -54.2932 -54.2928 -54.2721 -54.2614 -54.2506 -54.2483 -54.2444
   -54.2403 -54.2244 -54.2059 -54.2053 -54.1793 -54.1790 -54.1710 -54.1678
   -54.1672 -54.1642 -54.1350 -54.1311 -54.1301 -54.1215 -54.1169 -54.0969
    -5.0316  -4.6074  -4.4470  -4.2872  -4.2841  -4.2815  -4.2453  -4.2420
    -4.2293  -4.1939  -4.1447  -4.0999  -4.0046  -3.8969  -3.8335  -3.7944
    -3.6540  -3.6367  -3.5867  -3.5343  -3.4447  -3.4114  -3.3652  -3.3652
    -3.3521  -3.3399  -3.2126  -3.1804  -3.1569  -3.1326  -3.0948  -3.0948
    -3.0491  -3.0174  -2.9336  -2.8852  -2.7628  -2.7296  -2.6651  -2.6510
    -2.6254  -2.6095  -2.5822  -2.5522  -2.5455  -2.5381  -2.4177  -2.4058
    -2.3983  -2.3820  -2.3356  -2.3072  -2.2635  -2.2225  -2.1669  -2.0795
    -2.0630  -2.0439  -2.0179  -1.9404  -1.9172  -1.8694  -1.5634  -0.5896
     0.2252   0.8845   0.9624   1.5633   2.2344   2.3447   2.6622   3.8231
     4.2536   4.8937   5.3126   5.3940

          k = 0.0000-0.0968 0.0000 ( 19500 PWs)   bands (ev):

   -90.9227 -90.8659 -90.8640 -90.8623 -90.7777 -90.7760 -90.7743 -90.6897
   -90.6880 -90.6862 -90.6315 -90.6273 -54.4315 -54.4200 -54.4133 -54.3926
   -54.3666 -54.3663 -54.3643 -54.3618 -54.3604 -54.3584 -54.3502 -54.3347
   -54.3023 -54.2865 -54.2812 -54.2782 -54.2732 -54.2508 -54.2475 -54.2455
   -54.2405 -54.2199 -54.1984 -54.1941 -54.1904 -54.1868 -54.1703 -54.1686
   -54.1671 -54.1637 -54.1369 -54.1345 -54.1317 -54.1225 -54.1169 -54.0969
    -4.8344  -4.3698  -4.3468  -4.2058  -4.1820  -4.1782  -4.1698  -4.0621
    -4.0396  -3.9769  -3.9671  -3.9291  -3.9131  -3.8457  -3.7768  -3.7619
    -3.7430  -3.5394  -3.5307  -3.5026  -3.4957  -3.4899  -3.4462  -3.3926
    -3.3496  -3.2019  -3.2000  -3.1697  -3.1204  -3.1170  -3.0902  -3.0874
    -3.0170  -2.9312  -2.8821  -2.8805  -2.8684  -2.8453  -2.8290  -2.8202
    -2.7795  -2.7186  -2.6766  -2.6550  -2.6284  -2.6047  -2.5934  -2.5889
    -2.5520  -2.5434  -2.5164  -2.4967  -2.3805  -2.3627  -2.3508  -2.3098
    -2.0859  -2.0652  -2.0417  -2.0376  -1.9157  -1.9149  -1.5232  -1.1138
     0.2560   0.8846   0.9869   1.3549   1.9669   2.1789   3.1701   3.9111
     4.1978   4.3218   5.8557   6.0490

          k = 0.0279-0.0161 0.0000 ( 19455 PWs)   bands (ev):

   -90.9228 -90.8672 -90.8626 -90.8623 -90.7792 -90.7745 -90.7742 -90.6913
   -90.6865 -90.6862 -90.6315 -90.6272 -54.4375 -54.4354 -54.4141 -54.4045
   -54.3681 -54.3668 -54.3636 -54.3605 -54.3595 -54.3453 -54.3347 -54.3308
   -54.3105 -54.3007 -54.3002 -54.2666 -54.2521 -54.2501 -54.2493 -54.2415
   -54.2398 -54.2324 -54.2142 -54.2141 -54.1720 -54.1715 -54.1697 -54.1675
   -54.1666 -54.1650 -54.1314 -54.1301 -54.1223 -54.1197 -54.1170 -54.0968
    -5.3715  -4.9182  -4.5778  -4.5273  -4.5255  -4.4824  -4.4232  -4.4224
    -4.4122  -4.3397  -4.3214  -4.3152  -4.1929  -4.1421  -4.1161  -3.7930
    -3.6348  -3.6146  -3.5069  -3.5054  -3.4989  -3.4972  -3.4677  -3.3930
    -3.3698  -3.2848  -3.2832  -3.2506  -3.2236  -3.2134  -3.1086  -3.0016
    -2.8163  -2.8026  -2.7973  -2.7291  -2.6724  -2.6487  -2.6065  -2.5850
    -2.5279  -2.4381  -2.4236  -2.4135  -2.3648  -2.2172  -2.1926  -2.1674
    -2.1579  -2.1340  -2.1206  -2.0901  -2.0863  -2.0672  -2.0519  -2.0432
    -1.9675  -1.9464  -1.9232  -1.8839  -1.8714  -1.8639  -0.8642   0.1039
     0.7476   1.2601   1.3207   1.6544   2.2164   2.3842   3.1469   3.4556
     3.4706   4.3859   4.8977   5.0875

          k = 0.0279 0.0161 0.0000 ( 19455 PWs)   bands (ev):

   -90.9228 -90.8672 -90.8626 -90.8623 -90.7792 -90.7745 -90.7742 -90.6913
   -90.6865 -90.6862 -90.6315 -90.6272 -54.4375 -54.4354 -54.4141 -54.4045
   -54.3681 -54.3668 -54.3636 -54.3605 -54.3595 -54.3453 -54.3347 -54.3307
   -54.3105 -54.3007 -54.3002 -54.2666 -54.2521 -54.2501 -54.2493 -54.2415
   -54.2398 -54.2324 -54.2143 -54.2141 -54.1720 -54.1715 -54.1697 -54.1675
   -54.1666 -54.1649 -54.1314 -54.1301 -54.1223 -54.1197 -54.1170 -54.0968
    -5.3715  -4.9182  -4.5778  -4.5273  -4.5255  -4.4824  -4.4232  -4.4224
    -4.4122  -4.3397  -4.3214  -4.3152  -4.1929  -4.1421  -4.1161  -3.7930
    -3.6348  -3.6146  -3.5069  -3.5054  -3.4989  -3.4972  -3.4677  -3.3930
    -3.3698  -3.2848  -3.2832  -3.2506  -3.2236  -3.2134  -3.1086  -3.0016
    -2.8163  -2.8026  -2.7973  -2.7291  -2.6724  -2.6487  -2.6065  -2.5850
    -2.5279  -2.4381  -2.4236  -2.4135  -2.3648  -2.2172  -2.1926  -2.1674
    -2.1579  -2.1340  -2.1206  -2.0901  -2.0863  -2.0672  -2.0519  -2.0432
    -1.9675  -1.9464  -1.9232  -1.8839  -1.8714  -1.8639  -0.8642   0.1039
     0.7476   1.2601   1.3207   1.6544   2.2164   2.3842   3.1469   3.4556
     3.4706   4.3859   4.8977   5.0875

          k = 0.0279 0.0484 0.0000 ( 19453 PWs)   bands (ev):

   -90.9227 -90.8667 -90.8632 -90.8623 -90.7786 -90.7751 -90.7743 -90.6906
   -90.6871 -90.6862 -90.6315 -90.6272 -54.4341 -54.4293 -54.4137 -54.3978
   -54.3719 -54.3670 -54.3618 -54.3615 -54.3585 -54.3492 -54.3422 -54.3333
   -54.3052 -54.2978 -54.2938 -54.2707 -54.2570 -54.2510 -54.2486 -54.2437
   -54.2405 -54.2263 -54.2092 -54.2075 -54.1796 -54.1713 -54.1705 -54.1686
   -54.1674 -54.1660 -54.1337 -54.1312 -54.1273 -54.1216 -54.1170 -54.0969
    -5.1225  -4.6971  -4.4283  -4.4247  -4.3342  -4.3189  -4.3056  -4.2929
    -4.2785  -4.2500  -4.2032  -4.1369  -4.0277  -4.0159  -3.9039  -3.8006
    -3.6358  -3.5873  -3.5868  -3.5262  -3.4877  -3.4302  -3.4163  -3.4072
    -3.3487  -3.2571  -3.2561  -3.2415  -3.2034  -3.1393  -3.1095  -3.0571
    -2.9671  -2.9460  -2.9334  -2.9001  -2.7332  -2.6626  -2.6523  -2.6505
    -2.6014  -2.5484  -2.5228  -2.4899  -2.4422  -2.4060  -2.3987  -2.3817
    -2.3026  -2.2835  -2.2674  -2.2360  -2.2174  -2.1565  -2.1200  -2.0933
    -2.0529  -2.0437  -1.9908  -1.9767  -1.9628  -1.9128  -0.8523  -0.4689
    -0.1639   0.6561   0.8555   1.8738   2.5971   2.8443   3.1013   3.1645
     3.6728   4.6444   5.1620   5.4200

          k = 0.0279-0.1129 0.0000 ( 19479 PWs)   bands (ev):

   -90.9227 -90.8659 -90.8641 -90.8623 -90.7777 -90.7760 -90.7743 -90.6897
   -90.6880 -90.6862 -90.6315 -90.6273 -54.4299 -54.4223 -54.4133 -54.3896
   -54.3746 -54.3654 -54.3639 -54.3609 -54.3598 -54.3548 -54.3486 -54.3368
   -54.2998 -54.2912 -54.2826 -54.2793 -54.2666 -54.2522 -54.2475 -54.2454
   -54.2411 -54.2182 -54.2023 -54.1963 -54.1904 -54.1791 -54.1703 -54.1687
   -54.1683 -54.1662 -54.1359 -54.1325 -54.1320 -54.1241 -54.1169 -54.0969
    -4.8301  -4.3421  -4.2760  -4.1845  -4.1592  -4.1447  -4.1297  -4.1075
    -4.0810  -4.0515  -4.0061  -3.9487  -3.8493  -3.8246  -3.8063  -3.7581
    -3.7105  -3.6371  -3.5608  -3.5025  -3.4563  -3.4483  -3.4371  -3.4242
    -3.3398  -3.2567  -3.2430  -3.2221  -3.2041  -3.1921  -3.1542  -3.1394
    -3.0823  -3.0253  -2.9486  -2.9052  -2.8646  -2.8584  -2.8221  -2.7994
    -2.7360  -2.7157  -2.6878  -2.6357  -2.6161  -2.5885  -2.5677  -2.5471
    -2.5088  -2.4646  -2.3932  -2.3678  -2.3237  -2.2575  -2.2387  -2.1467
    -2.1164  -2.0765  -2.0663  -1.9987  -1.9912  -1.8262  -1.5311  -0.8099
    -0.5567   0.2524   0.8542   1.6593   2.4971   2.7343   3.2730   3.8354
     4.4209   4.7171   5.3265   5.7473

          k = 0.0279-0.0806 0.0000 ( 19479 PWs)   bands (ev):

   -90.9227 -90.8659 -90.8641 -90.8623 -90.7777 -90.7760 -90.7743 -90.6897
   -90.6880 -90.6862 -90.6315 -90.6273 -54.4299 -54.4223 -54.4133 -54.3896
   -54.3746 -54.3654 -54.3639 -54.3609 -54.3598 -54.3548 -54.3486 -54.3368
   -54.2998 -54.2912 -54.2826 -54.2793 -54.2666 -54.2522 -54.2475 -54.2454
   -54.2411 -54.2182 -54.2023 -54.1963 -54.1904 -54.1791 -54.1703 -54.1687
   -54.1683 -54.1662 -54.1359 -54.1325 -54.1320 -54.1241 -54.1169 -54.0969
    -4.8301  -4.3421  -4.2760  -4.1845  -4.1592  -4.1447  -4.1297  -4.1075
    -4.0810  -4.0515  -4.0061  -3.9487  -3.8493  -3.8246  -3.8063  -3.7581
    -3.7105  -3.6371  -3.5608  -3.5025  -3.4563  -3.4483  -3.4371  -3.4242
    -3.3398  -3.2567  -3.2430  -3.2221  -3.2041  -3.1921  -3.1542  -3.1394
    -3.0823  -3.0253  -2.9486  -2.9052  -2.8646  -2.8584  -2.8221  -2.7994
    -2.7360  -2.7157  -2.6878  -2.6357  -2.6161  -2.5885  -2.5677  -2.5471
    -2.5088  -2.4646  -2.3932  -2.3678  -2.3237  -2.2575  -2.2387  -2.1467
    -2.1164  -2.0765  -2.0663  -1.9987  -1.9912  -1.8262  -1.5311  -0.8099
    -0.5567   0.2524   0.8542   1.6593   2.4971   2.7343   3.2730   3.8354
     4.4209   4.7171   5.3265   5.7473

          k = 0.0279-0.0484 0.0000 ( 19453 PWs)   bands (ev):

   -90.9227 -90.8667 -90.8632 -90.8623 -90.7786 -90.7751 -90.7743 -90.6906
   -90.6871 -90.6862 -90.6315 -90.6272 -54.4341 -54.4293 -54.4137 -54.3978
   -54.3719 -54.3670 -54.3618 -54.3615 -54.3585 -54.3492 -54.3422 -54.3333
   -54.3052 -54.2978 -54.2938 -54.2707 -54.2570 -54.2511 -54.2486 -54.2437
   -54.2405 -54.2263 -54.2092 -54.2075 -54.1796 -54.1713 -54.1705 -54.1686
   -54.1674 -54.1660 -54.1337 -54.1312 -54.1273 -54.1216 -54.1170 -54.0969
    -5.1225  -4.6971  -4.4283  -4.4247  -4.3342  -4.3189  -4.3056  -4.2929
    -4.2785  -4.2500  -4.2032  -4.1369  -4.0277  -4.0159  -3.9039  -3.8006
    -3.6358  -3.5873  -3.5868  -3.5262  -3.4877  -3.4302  -3.4163  -3.4072
    -3.3487  -3.2571  -3.2561  -3.2415  -3.2034  -3.1393  -3.1095  -3.0571
    -2.9671  -2.9460  -2.9334  -2.9001  -2.7332  -2.6626  -2.6523  -2.6505
    -2.6014  -2.5484  -2.5228  -2.4899  -2.4422  -2.4060  -2.3987  -2.3817
    -2.3026  -2.2835  -2.2674  -2.2360  -2.2174  -2.1565  -2.1200  -2.0933
    -2.0529  -2.0437  -1.9908  -1.9767  -1.9628  -1.9128  -0.8523  -0.4689
    -0.1639   0.6561   0.8555   1.8738   2.5971   2.8443   3.1013   3.1645
     3.6728   4.6444   5.1620   5.4200

          k = 0.0559-0.0323 0.0000 ( 19481 PWs)   bands (ev):

   -90.9227 -90.8665 -90.8634 -90.8623 -90.7784 -90.7754 -90.7743 -90.6904
   -90.6873 -90.6862 -90.6315 -90.6272 -54.4335 -54.4262 -54.4136 -54.3958
   -54.3718 -54.3665 -54.3623 -54.3619 -54.3587 -54.3486 -54.3480 -54.3333
   -54.3045 -54.2931 -54.2928 -54.2721 -54.2614 -54.2506 -54.2483 -54.2444
   -54.2403 -54.2244 -54.2059 -54.2053 -54.1793 -54.1790 -54.1710 -54.1678
   -54.1672 -54.1642 -54.1350 -54.1311 -54.1301 -54.1215 -54.1169 -54.0969
    -5.0316  -4.6074  -4.4470  -4.2872  -4.2841  -4.2815  -4.2453  -4.2420
    -4.2293  -4.1939  -4.1447  -4.0999  -4.0046  -3.8970  -3.8335  -3.7944
    -3.6540  -3.6367  -3.5867  -3.5343  -3.4447  -3.4114  -3.3652  -3.3652
    -3.3521  -3.3399  -3.2126  -3.1804  -3.1569  -3.1326  -3.0948  -3.0948
    -3.0491  -3.0174  -2.9336  -2.8852  -2.7628  -2.7296  -2.6651  -2.6510
    -2.6254  -2.6095  -2.5822  -2.5522  -2.5455  -2.5381  -2.4177  -2.4058
    -2.3983  -2.3820  -2.3356  -2.3072  -2.2635  -2.2225  -2.1669  -2.0795
    -2.0630  -2.0439  -2.0179  -1.9404  -1.9172  -1.8694  -1.5634  -0.5896
     0.2252   0.8845   0.9624   1.5633   2.2344   2.3447   2.6622   3.8231
     4.2536   4.8937   5.3126   5.3940

          k = 0.0559 0.0000 0.0000 ( 19453 PWs)   bands (ev):

   -90.9227 -90.8667 -90.8632 -90.8623 -90.7786 -90.7751 -90.7743 -90.6906
   -90.6871 -90.6862 -90.6315 -90.6272 -54.4341 -54.4293 -54.4137 -54.3978
   -54.3719 -54.3670 -54.3618 -54.3615 -54.3585 -54.3492 -54.3422 -54.3333
   -54.3052 -54.2978 -54.2938 -54.2707 -54.2570 -54.2511 -54.2486 -54.2437
   -54.2405 -54.2263 -54.2092 -54.2075 -54.1796 -54.1713 -54.1705 -54.1686
   -54.1674 -54.1660 -54.1337 -54.1312 -54.1273 -54.1216 -54.1170 -54.0969
    -5.1225  -4.6971  -4.4283  -4.4247  -4.3342  -4.3189  -4.3056  -4.2929
    -4.2785  -4.2500  -4.2032  -4.1369  -4.0277  -4.0159  -3.9039  -3.8006
    -3.6358  -3.5873  -3.5868  -3.5262  -3.4877  -3.4302  -3.4163  -3.4072
    -3.3487  -3.2571  -3.2561  -3.2415  -3.2034  -3.1393  -3.1095  -3.0571
    -2.9671  -2.9460  -2.9334  -2.9001  -2.7332  -2.6626  -2.6523  -2.6505
    -2.6014  -2.5484  -2.5228  -2.4899  -2.4422  -2.4060  -2.3987  -2.3817
    -2.3026  -2.2835  -2.2674  -2.2360  -2.2174  -2.1565  -2.1200  -2.0933
    -2.0529  -2.0437  -1.9908  -1.9767  -1.9628  -1.9128  -0.8523  -0.4689
    -0.1639   0.6561   0.8555   1.8738   2.5971   2.8443   3.1013   3.1645
     3.6728   4.6444   5.1620   5.4200

          k = 0.0559 0.0323 0.0000 ( 19481 PWs)   bands (ev):

   -90.9227 -90.8665 -90.8634 -90.8623 -90.7784 -90.7754 -90.7742 -90.6904
   -90.6873 -90.6862 -90.6315 -90.6272 -54.4335 -54.4262 -54.4136 -54.3958
   -54.3718 -54.3665 -54.3623 -54.3619 -54.3587 -54.3486 -54.3480 -54.3333
   -54.3045 -54.2931 -54.2928 -54.2721 -54.2614 -54.2506 -54.2483 -54.2444
   -54.2403 -54.2244 -54.2060 -54.2053 -54.1793 -54.1790 -54.1710 -54.1678
   -54.1672 -54.1642 -54.1350 -54.1311 -54.1301 -54.1215 -54.1169 -54.0969
    -5.0316  -4.6074  -4.4470  -4.2872  -4.2841  -4.2815  -4.2453  -4.2420
    -4.2293  -4.1939  -4.1447  -4.0999  -4.0046  -3.8970  -3.8335  -3.7944
    -3.6540  -3.6367  -3.5867  -3.5343  -3.4447  -3.4114  -3.3652  -3.3652
    -3.3521  -3.3399  -3.2126  -3.1804  -3.1569  -3.1326  -3.0948  -3.0948
    -3.0491  -3.0174  -2.9336  -2.8852  -2.7628  -2.7296  -2.6651  -2.6510
    -2.6254  -2.6095  -2.5822  -2.5522  -2.5455  -2.5381  -2.4177  -2.4058
    -2.3983  -2.3820  -2.3356  -2.3072  -2.2635  -2.2225  -2.1669  -2.0795
    -2.0630  -2.0439  -2.0179  -1.9404  -1.9172  -1.8694  -1.5634  -0.5896
     0.2252   0.8845   0.9624   1.5633   2.2344   2.3447   2.6622   3.8231
     4.2536   4.8937   5.3126   5.3940

          k = 0.0559-0.1290 0.0000 ( 19479 PWs)   bands (ev):

   -90.9227 -90.8659 -90.8641 -90.8623 -90.7777 -90.7760 -90.7743 -90.6897
   -90.6880 -90.6862 -90.6315 -90.6273 -54.4299 -54.4223 -54.4133 -54.3896
   -54.3746 -54.3654 -54.3639 -54.3609 -54.3598 -54.3548 -54.3486 -54.3368
   -54.2998 -54.2912 -54.2826 -54.2793 -54.2666 -54.2522 -54.2475 -54.2454
   -54.2411 -54.2182 -54.2023 -54.1963 -54.1904 -54.1791 -54.1703 -54.1687
   -54.1683 -54.1662 -54.1359 -54.1325 -54.1320 -54.1241 -54.1169 -54.0969
    -4.8301  -4.3421  -4.2760  -4.1845  -4.1592  -4.1447  -4.1297  -4.1075
    -4.0810  -4.0515  -4.0061  -3.9487  -3.8493  -3.8246  -3.8063  -3.7581
    -3.7105  -3.6371  -3.5608  -3.5025  -3.4563  -3.4483  -3.4371  -3.4242
    -3.3398  -3.2567  -3.2430  -3.2221  -3.2041  -3.1921  -3.1542  -3.1394
    -3.0823  -3.0253  -2.9486  -2.9052  -2.8646  -2.8584  -2.8221  -2.7994
    -2.7360  -2.7157  -2.6878  -2.6357  -2.6161  -2.5885  -2.5677  -2.5471
    -2.5088  -2.4646  -2.3932  -2.3678  -2.3237  -2.2575  -2.2387  -2.1467
    -2.1164  -2.0765  -2.0663  -1.9987  -1.9912  -1.8262  -1.5311  -0.8099
    -0.5567   0.2524   0.8542   1.6593   2.4971   2.7343   3.2730   3.8354
     4.4209   4.7171   5.3265   5.7473

          k = 0.0559-0.0968 0.0000 ( 19479 PWs)   bands (ev):

   -90.9227 -90.8650 -90.8650 -90.8623 -90.7769 -90.7768 -90.7743 -90.6888
   -90.6888 -90.6862 -90.6315 -90.6273 -54.4244 -54.4244 -54.4132 -54.3796
   -54.3795 -54.3713 -54.3637 -54.3636 -54.3598 -54.3493 -54.3492 -54.3417
   -54.2917 -54.2900 -54.2896 -54.2730 -54.2717 -54.2542 -54.2469 -54.2461
   -54.2417 -54.2086 -54.2081 -54.1951 -54.1843 -54.1840 -54.1729 -54.1694
   -54.1694 -54.1666 -54.1348 -54.1348 -54.1289 -54.1289 -54.1169 -54.0969
    -4.7079  -4.1058  -4.1024  -4.0988  -4.0222  -4.0218  -3.9780  -3.9742
    -3.9699  -3.9571  -3.9394  -3.9217  -3.9152  -3.8822  -3.8787  -3.8635
    -3.6412  -3.6409  -3.5151  -3.4950  -3.4822  -3.4596  -3.4556  -3.4385
    -3.3201  -3.3076  -3.2765  -3.2760  -3.2706  -3.2592  -3.1913  -3.1149
    -3.0782  -3.0770  -3.0634  -3.0575  -3.0424  -3.0292  -3.0290  -3.0239
    -2.7248  -2.6846  -2.6733  -2.6464  -2.6297  -2.6032  -2.5604  -2.5325
    -2.4457  -2.3936  -2.3927  -2.2433  -2.2400  -2.2243  -2.2092  -2.1852
    -2.1400  -2.1274  -2.1107  -2.0906  -1.8739  -1.7503  -1.7323  -1.1211
    -0.5666  -0.5500   0.9244   1.8515   1.8531   3.5082   4.5046   4.5240
     4.5538   4.5546   4.6252   5.5716

          k = 0.0559-0.0645 0.0000 ( 19479 PWs)   bands (ev):

   -90.9227 -90.8659 -90.8641 -90.8623 -90.7777 -90.7760 -90.7743 -90.6897
   -90.6880 -90.6862 -90.6315 -90.6273 -54.4299 -54.4223 -54.4133 -54.3896
   -54.3746 -54.3654 -54.3639 -54.3609 -54.3598 -54.3548 -54.3486 -54.3368
   -54.2998 -54.2912 -54.2826 -54.2793 -54.2666 -54.2522 -54.2475 -54.2454
   -54.2411 -54.2182 -54.2023 -54.1963 -54.1904 -54.1791 -54.1703 -54.1687
   -54.1683 -54.1662 -54.1359 -54.1325 -54.1320 -54.1241 -54.1169 -54.0969
    -4.8301  -4.3421  -4.2760  -4.1845  -4.1592  -4.1447  -4.1297  -4.1075
    -4.0810  -4.0515  -4.0061  -3.9487  -3.8493  -3.8246  -3.8063  -3.7581
    -3.7105  -3.6371  -3.5608  -3.5025  -3.4563  -3.4483  -3.4371  -3.4242
    -3.3398  -3.2567  -3.2430  -3.2221  -3.2041  -3.1921  -3.1542  -3.1394
    -3.0823  -3.0253  -2.9486  -2.9052  -2.8646  -2.8584  -2.8221  -2.7994
    -2.7360  -2.7157  -2.6878  -2.6357  -2.6161  -2.5885  -2.5677  -2.5471
    -2.5088  -2.4646  -2.3932  -2.3678  -2.3237  -2.2575  -2.2387  -2.1467
    -2.1164  -2.0765  -2.0663  -1.9987  -1.9912  -1.8262  -1.5311  -0.8099
    -0.5567   0.2524   0.8542   1.6593   2.4971   2.7343   3.2730   3.8354
     4.4209   4.7171   5.3265   5.7473

          k =-0.0838 0.0484 0.0000 ( 19500 PWs)   bands (ev):

   -90.9227 -90.8659 -90.8640 -90.8623 -90.7777 -90.7760 -90.7743 -90.6897
   -90.6880 -90.6862 -90.6315 -90.6273 -54.4315 -54.4200 -54.4133 -54.3926
   -54.3666 -54.3663 -54.3643 -54.3618 -54.3604 -54.3584 -54.3502 -54.3347
   -54.3024 -54.2865 -54.2812 -54.2782 -54.2732 -54.2508 -54.2475 -54.2455
   -54.2405 -54.2199 -54.1984 -54.1941 -54.1904 -54.1868 -54.1703 -54.1686
   -54.1671 -54.1637 -54.1369 -54.1345 -54.1317 -54.1225 -54.1169 -54.0969
    -4.8344  -4.3698  -4.3468  -4.2058  -4.1820  -4.1782  -4.1698  -4.0621
    -4.0396  -3.9769  -3.9671  -3.9291  -3.9131  -3.8457  -3.7768  -3.7619
    -3.7430  -3.5394  -3.5307  -3.5026  -3.4957  -3.4899  -3.4462  -3.3926
    -3.3496  -3.2019  -3.2000  -3.1697  -3.1204  -3.1170  -3.0902  -3.0874
    -3.0170  -2.9312  -2.8821  -2.8805  -2.8684  -2.8453  -2.8290  -2.8202
    -2.7795  -2.7186  -2.6766  -2.6550  -2.6284  -2.6047  -2.5934  -2.5889
    -2.5520  -2.5434  -2.5164  -2.4967  -2.3805  -2.3627  -2.3508  -2.3098
    -2.0859  -2.0652  -2.0417  -2.0376  -1.9157  -1.9149  -1.5232  -1.1138
     0.2560   0.8846   0.9869   1.3549   1.9669   2.1789   3.1701   3.9111
     4.1978   4.3218   5.8557   6.0491

          k =-0.0838 0.0806 0.0000 ( 19479 PWs)   bands (ev):

   -90.9227 -90.8659 -90.8641 -90.8623 -90.7777 -90.7760 -90.7743 -90.6897
   -90.6880 -90.6862 -90.6315 -90.6273 -54.4299 -54.4223 -54.4133 -54.3896
   -54.3746 -54.3654 -54.3639 -54.3609 -54.3598 -54.3548 -54.3486 -54.3368
   -54.2998 -54.2912 -54.2826 -54.2793 -54.2666 -54.2522 -54.2475 -54.2454
   -54.2411 -54.2182 -54.2023 -54.1963 -54.1904 -54.1791 -54.1703 -54.1687
   -54.1683 -54.1662 -54.1359 -54.1325 -54.1320 -54.1241 -54.1169 -54.0969
    -4.8301  -4.3421  -4.2760  -4.1845  -4.1592  -4.1447  -4.1297  -4.1075
    -4.0810  -4.0515  -4.0061  -3.9487  -3.8493  -3.8246  -3.8063  -3.7581
    -3.7105  -3.6371  -3.5608  -3.5025  -3.4563  -3.4483  -3.4371  -3.4242
    -3.3398  -3.2567  -3.2430  -3.2221  -3.2041  -3.1921  -3.1542  -3.1394
    -3.0823  -3.0253  -2.9486  -2.9052  -2.8646  -2.8584  -2.8221  -2.7994
    -2.7360  -2.7157  -2.6878  -2.6357  -2.6161  -2.5885  -2.5677  -2.5471
    -2.5088  -2.4646  -2.3932  -2.3678  -2.3237  -2.2575  -2.2387  -2.1467
    -2.1164  -2.0765  -2.0663  -1.9987  -1.9912  -1.8262  -1.5311  -0.8099
    -0.5567   0.2524   0.8542   1.6593   2.4971   2.7343   3.2730   3.8354
     4.4209   4.7171   5.3265   5.7473

          k =-0.0838 0.1129 0.0000 ( 19479 PWs)   bands (ev):

   -90.9227 -90.8659 -90.8641 -90.8623 -90.7777 -90.7760 -90.7743 -90.6897
   -90.6880 -90.6862 -90.6315 -90.6273 -54.4299 -54.4223 -54.4133 -54.3896
   -54.3746 -54.3654 -54.3639 -54.3609 -54.3598 -54.3548 -54.3486 -54.3368
   -54.2998 -54.2912 -54.2826 -54.2793 -54.2666 -54.2522 -54.2475 -54.2454
   -54.2411 -54.2182 -54.2023 -54.1963 -54.1904 -54.1791 -54.1703 -54.1687
   -54.1683 -54.1662 -54.1359 -54.1325 -54.1320 -54.1241 -54.1169 -54.0969
    -4.8301  -4.3421  -4.2760  -4.1845  -4.1592  -4.1447  -4.1297  -4.1075
    -4.0810  -4.0515  -4.0061  -3.9487  -3.8493  -3.8246  -3.8063  -3.7581
    -3.7105  -3.6371  -3.5608  -3.5025  -3.4563  -3.4483  -3.4371  -3.4242
    -3.3398  -3.2567  -3.2430  -3.2221  -3.2041  -3.1921  -3.1542  -3.1394
    -3.0823  -3.0253  -2.9486  -2.9052  -2.8646  -2.8584  -2.8221  -2.7994
    -2.7360  -2.7157  -2.6878  -2.6357  -2.6161  -2.5885  -2.5677  -2.5471
    -2.5088  -2.4646  -2.3932  -2.3678  -2.3237  -2.2575  -2.2387  -2.1467
    -2.1164  -2.0765  -2.0663  -1.9987  -1.9912  -1.8262  -1.5311  -0.8099
    -0.5567   0.2524   0.8542   1.6593   2.4971   2.7343   3.2730   3.8354
     4.4209   4.7171   5.3265   5.7473

          k =-0.0838-0.0484 0.0000 ( 19500 PWs)   bands (ev):

   -90.9227 -90.8659 -90.8641 -90.8623 -90.7777 -90.7760 -90.7743 -90.6897
   -90.6880 -90.6862 -90.6315 -90.6273 -54.4315 -54.4200 -54.4133 -54.3926
   -54.3666 -54.3663 -54.3643 -54.3618 -54.3604 -54.3584 -54.3502 -54.3347
   -54.3024 -54.2865 -54.2812 -54.2782 -54.2732 -54.2508 -54.2475 -54.2455
   -54.2405 -54.2199 -54.1984 -54.1942 -54.1904 -54.1868 -54.1703 -54.1686
   -54.1671 -54.1637 -54.1369 -54.1345 -54.1317 -54.1225 -54.1169 -54.0969
    -4.8344  -4.3698  -4.3468  -4.2058  -4.1820  -4.1782  -4.1698  -4.0621
    -4.0396  -3.9769  -3.9671  -3.9291  -3.9131  -3.8457  -3.7768  -3.7619
    -3.7430  -3.5394  -3.5307  -3.5026  -3.4957  -3.4899  -3.4462  -3.3926
    -3.3496  -3.2019  -3.2000  -3.1697  -3.1204  -3.1170  -3.0902  -3.0874
    -3.0170  -2.9312  -2.8821  -2.8805  -2.8684  -2.8453  -2.8290  -2.8202
    -2.7795  -2.7186  -2.6766  -2.6550  -2.6284  -2.6047  -2.5934  -2.5889
    -2.5520  -2.5434  -2.5164  -2.4967  -2.3805  -2.3627  -2.3508  -2.3098
    -2.0859  -2.0652  -2.0417  -2.0376  -1.9157  -1.9149  -1.5232  -1.1138
     0.2560   0.8846   0.9869   1.3549   1.9669   2.1789   3.1701   3.9111
     4.1978   4.3218   5.8557   6.0490

     the Fermi energy is     1.1266 ev

!    total energy              =   -3560.98534441 Ry
     Harris-Foulkes estimate   =   -3560.98533754 Ry
     estimated scf accuracy    <       0.00000477 Ry

     The total energy is the sum of the following terms:

     one-electron contribution =  -25775.85545518 Ry
     hartree contribution      =   12878.28921805 Ry
     xc contribution           =    -361.69336662 Ry
     ewald contribution        =    9698.29476953 Ry
     electric field correction =       0.00001965 Ry
     smearing contrib. (-TS)   =      -0.02052983 Ry

     convergence has been achieved in  11 iterations
 
 BEEF-vdW xc energy contributions
           1 :   -313.441863988492     
           2 :    283.791856355278     
           3 :   -234.327013344172     
           4 :    180.012657102119     
           5 :   -134.462117522045     
           6 :    104.979656710716     
           7 :   -91.1836640530579     
           8 :    87.2129445226791     
           9 :   -85.8288792579374     
          10 :    82.0722951901655     
          11 :   -74.7998545896393     
          12 :    65.8350210795728     
          13 :   -57.8053157825042     
          14 :    52.2156894582319     
          15 :   -48.8149125394420     
          16 :    46.2796855608042     
          17 :   -43.4275465712940     
          18 :    40.0088742103690     
          19 :   -36.6292160557164     
          20 :    34.0433645650556     
          21 :   -32.4639251118289     
          22 :    31.3964588535181     
          23 :   -30.0544321241402     
          24 :    27.9786408525495     
          25 :   -25.3846348960101     
          26 :    22.9986314414821     
          27 :   -21.5296551910664     
          28 :    21.1710622907825     
          29 :   -21.4819653706461     
          30 :    21.7090653227000     
          31 :   -31.2355522736502     
          32 :   -22.7130462848648     

     Forces acting on atoms (Ry/au):


     negative rho (up, down):  2.204E-03 0.000E+00
     atom    1 type  1   force =    -0.00000042   -0.00000029    0.00067793
     atom    2 type  1   force =     0.00000006    0.00029917   -0.00058344
     atom    3 type  1   force =     0.00025878   -0.00014924   -0.00058349
     atom    4 type  1   force =    -0.00025863   -0.00014939   -0.00058273
     atom    5 type  1   force =    -0.00020521    0.00011788   -0.00323026
     atom    6 type  1   force =     0.00020492    0.00011775   -0.00322983
     atom    7 type  1   force =    -0.00000003    0.00000110    0.00875247
     atom    8 type  1   force =     0.00000029   -0.00023602   -0.00323010
     atom    9 type  1   force =     0.00283594    0.00163660    0.00900240
     atom   10 type  1   force =    -0.00283611    0.00163698    0.00900234
     atom   11 type  1   force =     0.00000017   -0.00327465    0.00900173
     atom   12 type  1   force =     0.00000024    0.00000022   -0.00285946
     atom   13 type  2   force =     0.00000001   -0.00000009   -0.02213757

     Total force =     0.027812     Total SCF correction =     0.002988
     SCF correction compared to forces is large: reduce conv_thr to get better values


     entering subroutine stress ...


     negative rho (up, down):  2.204E-03 0.000E+00
          total   stress  (Ry/bohr**3)                   (kbar)     P=   -6.53
  -0.00005390   0.00000000   0.00000000         -7.93      0.00      0.00
   0.00000000  -0.00005390   0.00000000          0.00     -7.93      0.00
   0.00000000   0.00000000  -0.00002540          0.00      0.00     -3.74


     BFGS Geometry Optimization

     number of scf cycles    =   1
     number of bfgs steps    =   0

     energy   new            =   -3560.9853444058 Ry

     new trust radius        =       0.0221375671 bohr
     new conv_thr            =       0.0000099958 Ry


ATOMIC_POSITIONS (crystal)
Ag1      0.166666667   0.166666667   0.402063960    0   0   0
Ag1      0.666666667   0.166666667   0.402063960    0   0   0
Ag1      0.166666667   0.666666667   0.402063960    0   0   0
Ag1      0.666666667   0.666666667   0.402063960    0   0   0
Ag1      0.833333333   0.333333333   0.500000000    0   0   0
Ag1      0.333333333   0.333333333   0.500000000    0   0   0
Ag1      0.833333333   0.833333333   0.500000000    0   0   0
Ag1      0.333333333   0.833333333   0.500000000    0   0   0
Ag1      0.000167718   0.000167606   0.598127578
Ag1      0.499664641   0.000167645   0.598127577
Ag1      0.000167695   0.499664639   0.598127564
Ag1      0.500000010   0.500000023   0.597875201
H1       0.166666672   0.166666658   0.643461151



     Writing output data file calc.save
     Check: negative starting charge=   -0.002304
     NEW-OLD atomic charge density approx. for the potential
     Check: negative starting charge=   -0.002304

     negative rho (up, down):  2.208E-03 0.000E+00
 
     Adding external electric field

     Computed dipole along edir(3) : 
        Dipole               -0.0779 Ry au,         -0.1980 Debye
        Dipole field         -0.0002 Ry au
 
        Potential amp.        0.0173 Ry
        Total length         45.8256 bohr
 

     total cpu time spent up to now is      401.0 secs

     per-process dynamical memory:   123.3 Mb

     Self-consistent Calculation

     iteration #  1     ecut=    36.75 Ry     beta=0.30
     Davidson diagonalization with overlap
     ethr =  1.00E-06,  avg # of iterations =  3.5

     negative rho (up, down):  2.206E-03 0.000E+00
 
     Adding external electric field

     Computed dipole along edir(3) : 
        Dipole               -0.0204 Ry au,         -0.0518 Debye
        Dipole field         -0.0000 Ry au
 
        Potential amp.        0.0045 Ry
        Total length         45.8256 bohr
 

     total cpu time spent up to now is      432.1 secs

     total energy              =   -3560.98591370 Ry
     Harris-Foulkes estimate   =   -3560.98612801 Ry
     estimated scf accuracy    <       0.00041018 Ry

     iteration #  2     ecut=    36.75 Ry     beta=0.30
     Davidson diagonalization with overlap
     ethr =  1.79E-07,  avg # of iterations =  4.0

     negative rho (up, down):  2.206E-03 0.000E+00
 
     Adding external electric field

     Computed dipole along edir(3) : 
        Dipole               -0.0723 Ry au,         -0.1837 Debye
        Dipole field         -0.0002 Ry au
 
        Potential amp.        0.0161 Ry
        Total length         45.8256 bohr
 

     total cpu time spent up to now is      458.5 secs

     total energy              =   -3560.98563112 Ry
     Harris-Foulkes estimate   =   -3560.98653214 Ry
     estimated scf accuracy    <       0.00961399 Ry

     iteration #  3     ecut=    36.75 Ry     beta=0.30
     Davidson diagonalization with overlap
     ethr =  1.79E-07,  avg # of iterations =  4.5

     negative rho (up, down):  2.206E-03 0.000E+00
 
     Adding external electric field

     Computed dipole along edir(3) : 
        Dipole               -0.0702 Ry au,         -0.1783 Debye
        Dipole field         -0.0002 Ry au
 
        Potential amp.        0.0156 Ry
        Total length         45.8256 bohr
 

     total cpu time spent up to now is      484.4 secs

     total energy              =   -3560.98608374 Ry
     Harris-Foulkes estimate   =   -3560.98609290 Ry
     estimated scf accuracy    <       0.00004196 Ry

     iteration #  4     ecut=    36.75 Ry     beta=0.30
     Davidson diagonalization with overlap
     ethr =  1.83E-08,  avg # of iterations =  2.0

     negative rho (up, down):  2.206E-03 0.000E+00

     negative rho (up, down):  2.206E-03 0.000E+00

     negative rho (up, down):  2.206E-03 0.000E+00

     negative rho (up, down):  2.206E-03 0.000E+00

     negative rho (up, down):  2.206E-03 0.000E+00

     negative rho (up, down):  2.206E-03 0.000E+00

     negative rho (up, down):  2.206E-03 0.000E+00

     negative rho (up, down):  2.206E-03 0.000E+00

     negative rho (up, down):  2.206E-03 0.000E+00

     negative rho (up, down):  2.206E-03 0.000E+00

     negative rho (up, down):  2.206E-03 0.000E+00

     negative rho (up, down):  2.206E-03 0.000E+00

     negative rho (up, down):  2.206E-03 0.000E+00

     negative rho (up, down):  2.206E-03 0.000E+00

     negative rho (up, down):  2.206E-03 0.000E+00

     negative rho (up, down):  2.206E-03 0.000E+00

     negative rho (up, down):  2.206E-03 0.000E+00

     negative rho (up, down):  2.206E-03 0.000E+00

     negative rho (up, down):  2.206E-03 0.000E+00

     negative rho (up, down):  2.206E-03 0.000E+00

     negative rho (up, down):  2.206E-03 0.000E+00

     negative rho (up, down):  2.206E-03 0.000E+00

     negative rho (up, down):  2.206E-03 0.000E+00

     negative rho (up, down):  2.206E-03 0.000E+00

     negative rho (up, down):  2.206E-03 0.000E+00

     negative rho (up, down):  2.206E-03 0.000E+00

     negative rho (up, down):  2.206E-03 0.000E+00

     negative rho (up, down):  2.206E-03 0.000E+00

     negative rho (up, down):  2.206E-03 0.000E+00

     negative rho (up, down):  2.206E-03 0.000E+00

     negative rho (up, down):  2.206E-03 0.000E+00

     negative rho (up, down):  2.206E-03 0.000E+00

     negative rho (up, down):  2.206E-03 0.000E+00

     negative rho (up, down):  2.206E-03 0.000E+00

     negative rho (up, down):  2.206E-03 0.000E+00
 
     Adding external electric field

     Computed dipole along edir(3) : 
        Dipole               -0.0705 Ry au,         -0.1791 Debye
        Dipole field         -0.0002 Ry au
 
        Potential amp.        0.0157 Ry
        Total length         45.8256 bohr
 

     total cpu time spent up to now is      558.2 secs

     End of self-consistent calculation

          k = 0.0000 0.0000 0.0000 ( 19435 PWs)   bands (ev):

   -90.9128 -90.8588 -90.8536 -90.8536 -90.7745 -90.7692 -90.7692 -90.6840
   -90.6786 -90.6786 -90.6220 -90.6206 -54.4299 -54.4299 -54.4041 -54.3997
   -54.3598 -54.3554 -54.3554 -54.3510 -54.3510 -54.3351 -54.3211 -54.3211
   -54.3094 -54.2974 -54.2974 -54.2596 -54.2452 -54.2452 -54.2443 -54.2340
   -54.2340 -54.2283 -54.2098 -54.2098 -54.1649 -54.1616 -54.1600 -54.1600
   -54.1572 -54.1572 -54.1205 -54.1205 -54.1119 -54.1119 -54.1081 -54.0903
    -5.5288  -5.0425  -4.6210  -4.6210  -4.6176  -4.5726  -4.4780  -4.4780
    -4.4685  -4.4173  -4.3801  -4.3801  -4.2632  -4.2177  -4.2177  -3.8027
    -3.6324  -3.6324  -3.5429  -3.5349  -3.5349  -3.4622  -3.4391  -3.4391
    -3.3059  -3.3059  -3.2403  -3.2396  -3.2396  -3.1819  -3.1819  -2.9244
    -2.7263  -2.7263  -2.6524  -2.6183  -2.6140  -2.6140  -2.6018  -2.6018
    -2.4751  -2.3584  -2.3584  -2.3551  -2.3551  -2.1356  -2.1356  -2.1328
    -2.0668  -2.0668  -2.0477  -2.0445  -2.0445  -1.9639  -1.9639  -1.9558
    -1.8510  -1.8127  -1.8127  -1.7746  -1.7555  -1.7555  -1.0290   0.6454
     1.6589   1.6589   1.6673   2.0725   2.3987   2.3987   2.6964   2.8280
     2.8280   4.0827   4.7723   4.7737

          k = 0.0000 0.0323 0.0000 ( 19455 PWs)   bands (ev):

   -90.9128 -90.8585 -90.8539 -90.8536 -90.7742 -90.7695 -90.7692 -90.6837
   -90.6789 -90.6786 -90.6220 -90.6206 -54.4280 -54.4260 -54.4037 -54.3960
   -54.3592 -54.3580 -54.3547 -54.3516 -54.3507 -54.3367 -54.3262 -54.3223
   -54.3061 -54.2954 -54.2948 -54.2613 -54.2477 -54.2456 -54.2438 -54.2360
   -54.2343 -54.2248 -54.2067 -54.2066 -54.1645 -54.1639 -54.1621 -54.1600
   -54.1591 -54.1574 -54.1223 -54.1210 -54.1154 -54.1127 -54.1080 -54.0904
    -5.3850  -4.9245  -4.5685  -4.5178  -4.5165  -4.4742  -4.4135  -4.4120
    -4.4036  -4.3311  -4.3131  -4.3074  -4.1863  -4.1357  -4.1095  -3.7867
    -3.6276  -3.6076  -3.4997  -3.4989  -3.4904  -3.4903  -3.4608  -3.3853
    -3.3607  -3.2752  -3.2741  -3.2423  -3.2144  -3.2071  -3.1021  -2.9942
    -2.8095  -2.7952  -2.7903  -2.7226  -2.6657  -2.6409  -2.6001  -2.5777
    -2.5212  -2.4311  -2.4169  -2.4067  -2.3584  -2.2102  -2.1861  -2.1605
    -2.1517  -2.1269  -2.1143  -2.0831  -2.0787  -2.0605  -2.0451  -2.0355
    -1.9620  -1.9396  -1.9171  -1.8769  -1.8641  -1.8566  -0.8566   0.1111
     0.7517   1.2679   1.3279   1.6634   2.2198   2.3897   3.1535   3.4624
     3.4761   4.4005   4.9166   5.0928

          k = 0.0000 0.0645 0.0000 ( 19481 PWs)   bands (ev):

   -90.9128 -90.8578 -90.8547 -90.8536 -90.7734 -90.7703 -90.7692 -90.6828
   -90.6797 -90.6786 -90.6220 -90.6207 -54.4240 -54.4166 -54.4032 -54.3873
   -54.3632 -54.3576 -54.3535 -54.3529 -54.3499 -54.3400 -54.3395 -54.3248
   -54.2999 -54.2878 -54.2878 -54.2669 -54.2570 -54.2461 -54.2428 -54.2388
   -54.2348 -54.2168 -54.1984 -54.1977 -54.1717 -54.1713 -54.1636 -54.1604
   -54.1597 -54.1566 -54.1258 -54.1232 -54.1220 -54.1146 -54.1079 -54.0904
    -5.0570  -4.6046  -4.4378  -4.2781  -4.2736  -4.2729  -4.2373  -4.2322
    -4.2205  -4.1847  -4.1363  -4.0924  -3.9976  -3.8911  -3.8267  -3.7860
    -3.6458  -3.6275  -3.5786  -3.5273  -3.4375  -3.4047  -3.3576  -3.3574
    -3.3456  -3.3318  -3.2068  -3.1699  -3.1480  -3.1250  -3.0877  -3.0864
    -3.0417  -3.0097  -2.9273  -2.8792  -2.7560  -2.7229  -2.6582  -2.6440
    -2.6183  -2.6023  -2.5751  -2.5461  -2.5396  -2.5307  -2.4110  -2.3991
    -2.3908  -2.3758  -2.3283  -2.3006  -2.2568  -2.2161  -2.1599  -2.0738
    -2.0574  -2.0372  -2.0111  -1.9329  -1.9106  -1.8621  -1.5563  -0.5826
     0.2329   0.8914   0.9699   1.5716   2.2394   2.3511   2.6689   3.8307
     4.2584   4.9066   5.3312   5.3989

          k = 0.0000-0.0968 0.0000 ( 19500 PWs)   bands (ev):

   -90.9127 -90.8572 -90.8554 -90.8536 -90.7727 -90.7710 -90.7692 -90.6821
   -90.6804 -90.6786 -90.6221 -90.6207 -54.4219 -54.4103 -54.4029 -54.3841
   -54.3579 -54.3576 -54.3557 -54.3531 -54.3518 -54.3497 -54.3414 -54.3262
   -54.2976 -54.2810 -54.2765 -54.2731 -54.2688 -54.2463 -54.2420 -54.2400
   -54.2350 -54.2122 -54.1909 -54.1865 -54.1828 -54.1792 -54.1628 -54.1611
   -54.1597 -54.1560 -54.1278 -54.1275 -54.1226 -54.1156 -54.1079 -54.0905
    -4.8680  -4.3601  -4.3388  -4.1978  -4.1710  -4.1698  -4.1611  -4.0535
    -4.0305  -3.9669  -3.9584  -3.9200  -3.9043  -3.8386  -3.7718  -3.7536
    -3.7348  -3.5303  -3.5212  -3.4944  -3.4874  -3.4819  -3.4398  -3.3850
    -3.3434  -3.1942  -3.1937  -3.1630  -3.1103  -3.1094  -3.0823  -3.0815
    -3.0094  -2.9265  -2.8755  -2.8734  -2.8603  -2.8377  -2.8199  -2.8119
    -2.7742  -2.7128  -2.6710  -2.6474  -2.6205  -2.6003  -2.5856  -2.5836
    -2.5446  -2.5359  -2.5089  -2.4897  -2.3745  -2.3557  -2.3445  -2.3029
    -2.0805  -2.0598  -2.0350  -2.0306  -1.9084  -1.9083  -1.5166  -1.1073
     0.2663   0.8920   0.9959   1.3583   1.9727   2.1837   3.1861   3.9172
     4.2006   4.3259   5.8823   6.0678

          k = 0.0279-0.0161 0.0000 ( 19455 PWs)   bands (ev):

   -90.9128 -90.8585 -90.8539 -90.8536 -90.7742 -90.7695 -90.7692 -90.6837
   -90.6789 -90.6786 -90.6220 -90.6206 -54.4280 -54.4260 -54.4037 -54.3960
   -54.3592 -54.3580 -54.3547 -54.3516 -54.3507 -54.3367 -54.3262 -54.3223
   -54.3061 -54.2954 -54.2948 -54.2613 -54.2477 -54.2456 -54.2438 -54.2360
   -54.2343 -54.2248 -54.2067 -54.2066 -54.1645 -54.1639 -54.1621 -54.1600
   -54.1591 -54.1574 -54.1223 -54.1210 -54.1154 -54.1127 -54.1080 -54.0904
    -5.3850  -4.9245  -4.5685  -4.5178  -4.5165  -4.4742  -4.4135  -4.4120
    -4.4036  -4.3311  -4.3131  -4.3074  -4.1863  -4.1357  -4.1095  -3.7867
    -3.6276  -3.6076  -3.4997  -3.4989  -3.4904  -3.4903  -3.4608  -3.3853
    -3.3607  -3.2752  -3.2741  -3.2423  -3.2144  -3.2071  -3.1021  -2.9942
    -2.8095  -2.7952  -2.7903  -2.7226  -2.6657  -2.6409  -2.6001  -2.5777
    -2.5212  -2.4311  -2.4169  -2.4067  -2.3584  -2.2102  -2.1861  -2.1605
    -2.1517  -2.1269  -2.1143  -2.0831  -2.0787  -2.0605  -2.0451  -2.0355
    -1.9620  -1.9396  -1.9171  -1.8769  -1.8641  -1.8566  -0.8566   0.1111
     0.7517   1.2679   1.3279   1.6634   2.2198   2.3897   3.1535   3.4624
     3.4761   4.4005   4.9166   5.0928

          k = 0.0279 0.0161 0.0000 ( 19455 PWs)   bands (ev):

   -90.9128 -90.8585 -90.8539 -90.8536 -90.7742 -90.7695 -90.7692 -90.6837
   -90.6789 -90.6786 -90.6220 -90.6206 -54.4280 -54.4260 -54.4037 -54.3960
   -54.3592 -54.3580 -54.3547 -54.3516 -54.3507 -54.3367 -54.3262 -54.3223
   -54.3061 -54.2954 -54.2948 -54.2613 -54.2477 -54.2456 -54.2438 -54.2360
   -54.2343 -54.2248 -54.2067 -54.2066 -54.1645 -54.1639 -54.1621 -54.1600
   -54.1591 -54.1574 -54.1223 -54.1210 -54.1154 -54.1127 -54.1080 -54.0904
    -5.3850  -4.9245  -4.5685  -4.5178  -4.5165  -4.4742  -4.4135  -4.4120
    -4.4036  -4.3311  -4.3131  -4.3074  -4.1863  -4.1357  -4.1095  -3.7867
    -3.6276  -3.6076  -3.4997  -3.4989  -3.4904  -3.4903  -3.4608  -3.3853
    -3.3607  -3.2752  -3.2741  -3.2423  -3.2144  -3.2071  -3.1021  -2.9942
    -2.8095  -2.7952  -2.7903  -2.7226  -2.6657  -2.6409  -2.6001  -2.5777
    -2.5212  -2.4311  -2.4169  -2.4067  -2.3584  -2.2102  -2.1861  -2.1605
    -2.1517  -2.1269  -2.1143  -2.0831  -2.0787  -2.0605  -2.0451  -2.0355
    -1.9620  -1.9396  -1.9171  -1.8769  -1.8641  -1.8566  -0.8566   0.1111
     0.7517   1.2679   1.3279   1.6634   2.2198   2.3897   3.1535   3.4624
     3.4761   4.4005   4.9166   5.0928

          k = 0.0279 0.0484 0.0000 ( 19453 PWs)   bands (ev):

   -90.9128 -90.8580 -90.8545 -90.8536 -90.7736 -90.7701 -90.7692 -90.6831
   -90.6795 -90.6786 -90.6220 -90.6207 -54.4246 -54.4197 -54.4033 -54.3893
   -54.3631 -54.3580 -54.3530 -54.3526 -54.3497 -54.3406 -54.3337 -54.3249
   -54.3007 -54.2925 -54.2886 -54.2655 -54.2526 -54.2466 -54.2431 -54.2381
   -54.2350 -54.2187 -54.2016 -54.2000 -54.1720 -54.1639 -54.1629 -54.1610
   -54.1600 -54.1585 -54.1246 -54.1221 -54.1204 -54.1147 -54.1080 -54.0904
    -5.1442  -4.6972  -4.4188  -4.4156  -4.3245  -4.3099  -4.2960  -4.2832
    -4.2699  -4.2411  -4.1954  -4.1292  -4.0208  -4.0095  -3.8976  -3.7927
    -3.6280  -3.5796  -3.5781  -3.5179  -3.4809  -3.4236  -3.4095  -3.4012
    -3.3402  -3.2503  -3.2465  -3.2320  -3.1948  -3.1312  -3.1023  -3.0507
    -2.9595  -2.9382  -2.9268  -2.8938  -2.7263  -2.6556  -2.6455  -2.6442
    -2.5940  -2.5415  -2.5161  -2.4831  -2.4365  -2.3984  -2.3926  -2.3747
    -2.2954  -2.2762  -2.2604  -2.2295  -2.2108  -2.1506  -2.1127  -2.0867
    -2.0464  -2.0377  -1.9839  -1.9704  -1.9553  -1.9055  -0.8458  -0.4613
    -0.1547   0.6599   0.8618   1.8859   2.6049   2.8475   3.1078   3.1687
     3.6783   4.6572   5.1807   5.4304

          k = 0.0279-0.1129 0.0000 ( 19479 PWs)   bands (ev):

   -90.9127 -90.8572 -90.8554 -90.8536 -90.7727 -90.7710 -90.7692 -90.6821
   -90.6804 -90.6786 -90.6221 -90.6207 -54.4203 -54.4127 -54.4029 -54.3811
   -54.3660 -54.3565 -54.3550 -54.3522 -54.3510 -54.3462 -54.3400 -54.3283
   -54.2951 -54.2860 -54.2776 -54.2743 -54.2620 -54.2478 -54.2420 -54.2398
   -54.2355 -54.2106 -54.1947 -54.1887 -54.1828 -54.1715 -54.1629 -54.1612
   -54.1608 -54.1587 -54.1267 -54.1252 -54.1234 -54.1172 -54.1079 -54.0905
    -4.8639  -4.3343  -4.2667  -4.1746  -4.1506  -4.1354  -4.1208  -4.0983
    -4.0715  -4.0428  -3.9976  -3.9395  -3.8401  -3.8170  -3.7976  -3.7508
    -3.7030  -3.6298  -3.5537  -3.4950  -3.4480  -3.4394  -3.4288  -3.4169
    -3.3333  -3.2504  -3.2344  -3.2146  -3.1970  -3.1842  -3.1474  -3.1314
    -3.0752  -3.0179  -2.9424  -2.8973  -2.8581  -2.8518  -2.8149  -2.7926
    -2.7290  -2.7097  -2.6812  -2.6295  -2.6095  -2.5814  -2.5606  -2.5400
    -2.5016  -2.4578  -2.3863  -2.3606  -2.3169  -2.2511  -2.2321  -2.1407
    -2.1103  -2.0697  -2.0598  -1.9919  -1.9841  -1.8193  -1.5244  -0.8035
    -0.5495   0.2610   0.8612   1.6659   2.5050   2.7415   3.2805   3.8402
     4.4321   4.7243   5.3382   5.7640

          k = 0.0279-0.0806 0.0000 ( 19479 PWs)   bands (ev):

   -90.9127 -90.8572 -90.8554 -90.8536 -90.7727 -90.7710 -90.7692 -90.6821
   -90.6804 -90.6786 -90.6221 -90.6207 -54.4203 -54.4127 -54.4029 -54.3811
   -54.3660 -54.3565 -54.3550 -54.3522 -54.3510 -54.3462 -54.3400 -54.3283
   -54.2951 -54.2860 -54.2776 -54.2743 -54.2620 -54.2478 -54.2420 -54.2398
   -54.2355 -54.2106 -54.1947 -54.1887 -54.1828 -54.1715 -54.1629 -54.1612
   -54.1608 -54.1587 -54.1267 -54.1252 -54.1234 -54.1172 -54.1079 -54.0905
    -4.8639  -4.3343  -4.2667  -4.1746  -4.1506  -4.1354  -4.1208  -4.0983
    -4.0715  -4.0428  -3.9976  -3.9395  -3.8401  -3.8170  -3.7976  -3.7508
    -3.7030  -3.6298  -3.5537  -3.4950  -3.4480  -3.4394  -3.4288  -3.4169
    -3.3333  -3.2504  -3.2344  -3.2146  -3.1970  -3.1842  -3.1474  -3.1314
    -3.0752  -3.0179  -2.9424  -2.8973  -2.8581  -2.8518  -2.8149  -2.7926
    -2.7290  -2.7097  -2.6812  -2.6295  -2.6095  -2.5814  -2.5606  -2.5400
    -2.5016  -2.4578  -2.3863  -2.3606  -2.3169  -2.2511  -2.2321  -2.1407
    -2.1103  -2.0697  -2.0598  -1.9919  -1.9841  -1.8193  -1.5244  -0.8035
    -0.5495   0.2610   0.8612   1.6659   2.5050   2.7415   3.2805   3.8402
     4.4321   4.7243   5.3382   5.7640

          k = 0.0279-0.0484 0.0000 ( 19453 PWs)   bands (ev):

   -90.9128 -90.8580 -90.8545 -90.8536 -90.7736 -90.7701 -90.7692 -90.6831
   -90.6795 -90.6786 -90.6220 -90.6207 -54.4246 -54.4197 -54.4033 -54.3893
   -54.3631 -54.3580 -54.3530 -54.3526 -54.3497 -54.3406 -54.3337 -54.3249
   -54.3007 -54.2925 -54.2886 -54.2655 -54.2526 -54.2466 -54.2431 -54.2381
   -54.2350 -54.2187 -54.2016 -54.2000 -54.1720 -54.1639 -54.1629 -54.1610
   -54.1600 -54.1585 -54.1246 -54.1221 -54.1204 -54.1147 -54.1080 -54.0904
    -5.1442  -4.6972  -4.4188  -4.4156  -4.3245  -4.3099  -4.2960  -4.2832
    -4.2699  -4.2411  -4.1954  -4.1292  -4.0208  -4.0095  -3.8976  -3.7927
    -3.6280  -3.5796  -3.5781  -3.5179  -3.4809  -3.4236  -3.4095  -3.4012
    -3.3402  -3.2503  -3.2465  -3.2320  -3.1948  -3.1312  -3.1023  -3.0507
    -2.9595  -2.9382  -2.9268  -2.8938  -2.7263  -2.6556  -2.6455  -2.6442
    -2.5940  -2.5415  -2.5161  -2.4831  -2.4365  -2.3984  -2.3926  -2.3747
    -2.2954  -2.2762  -2.2604  -2.2295  -2.2108  -2.1506  -2.1127  -2.0867
    -2.0464  -2.0377  -1.9839  -1.9704  -1.9553  -1.9055  -0.8458  -0.4613
    -0.1547   0.6599   0.8618   1.8859   2.6049   2.8475   3.1078   3.1687
     3.6783   4.6572   5.1807   5.4304

          k = 0.0559-0.0323 0.0000 ( 19481 PWs)   bands (ev):

   -90.9128 -90.8578 -90.8547 -90.8536 -90.7734 -90.7703 -90.7692 -90.6828
   -90.6797 -90.6786 -90.6220 -90.6207 -54.4240 -54.4166 -54.4032 -54.3873
   -54.3632 -54.3576 -54.3535 -54.3529 -54.3499 -54.3400 -54.3395 -54.3248
   -54.2999 -54.2878 -54.2878 -54.2669 -54.2570 -54.2461 -54.2428 -54.2388
   -54.2348 -54.2168 -54.1984 -54.1977 -54.1717 -54.1713 -54.1636 -54.1604
   -54.1597 -54.1566 -54.1258 -54.1232 -54.1220 -54.1146 -54.1079 -54.0904
    -5.0570  -4.6046  -4.4378  -4.2781  -4.2736  -4.2729  -4.2373  -4.2322
    -4.2205  -4.1847  -4.1363  -4.0924  -3.9976  -3.8911  -3.8267  -3.7860
    -3.6458  -3.6275  -3.5786  -3.5273  -3.4375  -3.4047  -3.3576  -3.3574
    -3.3456  -3.3318  -3.2068  -3.1699  -3.1480  -3.1250  -3.0877  -3.0864
    -3.0417  -3.0097  -2.9273  -2.8792  -2.7560  -2.7229  -2.6582  -2.6440
    -2.6183  -2.6023  -2.5751  -2.5461  -2.5396  -2.5307  -2.4110  -2.3991
    -2.3908  -2.3758  -2.3283  -2.3006  -2.2568  -2.2161  -2.1599  -2.0738
    -2.0574  -2.0372  -2.0111  -1.9329  -1.9106  -1.8621  -1.5563  -0.5826
     0.2329   0.8914   0.9699   1.5716   2.2394   2.3511   2.6689   3.8307
     4.2584   4.9066   5.3312   5.3989

          k = 0.0559 0.0000 0.0000 ( 19453 PWs)   bands (ev):

   -90.9128 -90.8580 -90.8545 -90.8536 -90.7736 -90.7701 -90.7692 -90.6831
   -90.6795 -90.6786 -90.6220 -90.6207 -54.4246 -54.4197 -54.4033 -54.3893
   -54.3631 -54.3580 -54.3530 -54.3526 -54.3497 -54.3406 -54.3337 -54.3249
   -54.3007 -54.2925 -54.2886 -54.2655 -54.2526 -54.2466 -54.2431 -54.2381
   -54.2350 -54.2187 -54.2016 -54.2000 -54.1720 -54.1639 -54.1629 -54.1610
   -54.1600 -54.1585 -54.1246 -54.1221 -54.1204 -54.1147 -54.1080 -54.0904
    -5.1442  -4.6972  -4.4188  -4.4156  -4.3245  -4.3099  -4.2960  -4.2832
    -4.2699  -4.2411  -4.1954  -4.1292  -4.0208  -4.0095  -3.8976  -3.7927
    -3.6280  -3.5796  -3.5781  -3.5179  -3.4809  -3.4236  -3.4095  -3.4012
    -3.3402  -3.2503  -3.2465  -3.2320  -3.1948  -3.1312  -3.1023  -3.0507
    -2.9595  -2.9382  -2.9268  -2.8938  -2.7263  -2.6556  -2.6455  -2.6442
    -2.5940  -2.5415  -2.5161  -2.4831  -2.4365  -2.3984  -2.3926  -2.3747
    -2.2954  -2.2762  -2.2604  -2.2295  -2.2108  -2.1506  -2.1127  -2.0867
    -2.0464  -2.0377  -1.9839  -1.9704  -1.9553  -1.9055  -0.8458  -0.4613
    -0.1547   0.6599   0.8618   1.8859   2.6049   2.8475   3.1078   3.1687
     3.6783   4.6572   5.1807   5.4304

          k = 0.0559 0.0323 0.0000 ( 19481 PWs)   bands (ev):

   -90.9128 -90.8578 -90.8547 -90.8536 -90.7734 -90.7703 -90.7692 -90.6828
   -90.6797 -90.6786 -90.6220 -90.6207 -54.4240 -54.4166 -54.4032 -54.3873
   -54.3632 -54.3576 -54.3535 -54.3529 -54.3499 -54.3400 -54.3395 -54.3248
   -54.2999 -54.2878 -54.2878 -54.2669 -54.2570 -54.2461 -54.2428 -54.2388
   -54.2348 -54.2168 -54.1984 -54.1977 -54.1717 -54.1713 -54.1636 -54.1604
   -54.1597 -54.1566 -54.1258 -54.1232 -54.1220 -54.1146 -54.1079 -54.0904
    -5.0570  -4.6046  -4.4378  -4.2781  -4.2736  -4.2729  -4.2373  -4.2322
    -4.2205  -4.1847  -4.1363  -4.0924  -3.9976  -3.8911  -3.8267  -3.7860
    -3.6458  -3.6275  -3.5786  -3.5273  -3.4375  -3.4047  -3.3576  -3.3574
    -3.3456  -3.3318  -3.2068  -3.1699  -3.1480  -3.1250  -3.0877  -3.0864
    -3.0417  -3.0097  -2.9273  -2.8792  -2.7560  -2.7229  -2.6582  -2.6440
    -2.6183  -2.6023  -2.5751  -2.5461  -2.5396  -2.5307  -2.4110  -2.3991
    -2.3908  -2.3758  -2.3283  -2.3006  -2.2568  -2.2161  -2.1599  -2.0738
    -2.0574  -2.0372  -2.0111  -1.9329  -1.9106  -1.8621  -1.5563  -0.5826
     0.2329   0.8914   0.9699   1.5716   2.2394   2.3511   2.6689   3.8307
     4.2584   4.9066   5.3312   5.3989

          k = 0.0559-0.1290 0.0000 ( 19479 PWs)   bands (ev):

   -90.9127 -90.8572 -90.8554 -90.8536 -90.7727 -90.7710 -90.7692 -90.6821
   -90.6804 -90.6786 -90.6221 -90.6207 -54.4203 -54.4127 -54.4029 -54.3811
   -54.3660 -54.3565 -54.3550 -54.3522 -54.3510 -54.3462 -54.3400 -54.3283
   -54.2951 -54.2860 -54.2776 -54.2743 -54.2620 -54.2478 -54.2420 -54.2398
   -54.2355 -54.2106 -54.1947 -54.1887 -54.1828 -54.1715 -54.1629 -54.1612
   -54.1608 -54.1587 -54.1267 -54.1252 -54.1234 -54.1172 -54.1079 -54.0905
    -4.8639  -4.3343  -4.2667  -4.1746  -4.1506  -4.1354  -4.1208  -4.0983
    -4.0715  -4.0428  -3.9976  -3.9395  -3.8401  -3.8170  -3.7976  -3.7508
    -3.7030  -3.6298  -3.5537  -3.4950  -3.4480  -3.4394  -3.4288  -3.4169
    -3.3333  -3.2504  -3.2344  -3.2146  -3.1970  -3.1842  -3.1474  -3.1314
    -3.0752  -3.0179  -2.9424  -2.8973  -2.8581  -2.8518  -2.8149  -2.7926
    -2.7290  -2.7097  -2.6812  -2.6295  -2.6095  -2.5814  -2.5606  -2.5400
    -2.5016  -2.4578  -2.3863  -2.3606  -2.3169  -2.2511  -2.2321  -2.1407
    -2.1103  -2.0697  -2.0598  -1.9919  -1.9841  -1.8193  -1.5244  -0.8035
    -0.5495   0.2610   0.8612   1.6659   2.5050   2.7415   3.2805   3.8402
     4.4321   4.7243   5.3382   5.7640

          k = 0.0559-0.0968 0.0000 ( 19479 PWs)   bands (ev):

   -90.9127 -90.8563 -90.8563 -90.8536 -90.7719 -90.7718 -90.7692 -90.6812
   -90.6812 -90.6787 -90.6221 -90.6207 -54.4147 -54.4147 -54.4028 -54.3710
   -54.3709 -54.3627 -54.3549 -54.3547 -54.3508 -54.3407 -54.3406 -54.3333
   -54.2872 -54.2847 -54.2847 -54.2682 -54.2666 -54.2500 -54.2413 -54.2406
   -54.2361 -54.2009 -54.2004 -54.1875 -54.1767 -54.1764 -54.1652 -54.1619
   -54.1619 -54.1591 -54.1256 -54.1256 -54.1220 -54.1220 -54.1079 -54.0905
    -4.7478  -4.0942  -4.0935  -4.0900  -4.0123  -4.0122  -3.9684  -3.9651
    -3.9597  -3.9479  -3.9300  -3.9130  -3.9062  -3.8721  -3.8707  -3.8555
    -3.6328  -3.6311  -3.5098  -3.4862  -3.4747  -3.4522  -3.4487  -3.4322
    -3.3096  -3.3021  -3.2690  -3.2690  -3.2632  -3.2533  -3.1834  -3.1084
    -3.0716  -3.0696  -3.0560  -3.0503  -3.0352  -3.0244  -3.0234  -3.0161
    -2.7185  -2.6780  -2.6665  -2.6403  -2.6221  -2.5960  -2.5547  -2.5248
    -2.4371  -2.3866  -2.3854  -2.2382  -2.2324  -2.2188  -2.2027  -2.1778
    -2.1329  -2.1221  -2.1047  -2.0823  -1.8668  -1.7435  -1.7249  -1.1149
    -0.5606  -0.5434   0.9379   1.8554   1.8563   3.5254   4.5105   4.5303
     4.5619   4.5620   4.6323   5.5772

          k = 0.0559-0.0645 0.0000 ( 19479 PWs)   bands (ev):

   -90.9127 -90.8572 -90.8554 -90.8536 -90.7727 -90.7710 -90.7692 -90.6821
   -90.6804 -90.6786 -90.6221 -90.6207 -54.4203 -54.4127 -54.4029 -54.3811
   -54.3660 -54.3565 -54.3550 -54.3522 -54.3510 -54.3462 -54.3400 -54.3283
   -54.2951 -54.2860 -54.2776 -54.2743 -54.2620 -54.2478 -54.2420 -54.2398
   -54.2355 -54.2106 -54.1947 -54.1887 -54.1828 -54.1715 -54.1629 -54.1612
   -54.1608 -54.1587 -54.1267 -54.1252 -54.1234 -54.1172 -54.1079 -54.0905
    -4.8639  -4.3343  -4.2667  -4.1746  -4.1506  -4.1354  -4.1208  -4.0983
    -4.0715  -4.0428  -3.9976  -3.9395  -3.8401  -3.8170  -3.7976  -3.7508
    -3.7030  -3.6298  -3.5537  -3.4950  -3.4480  -3.4394  -3.4288  -3.4169
    -3.3333  -3.2504  -3.2344  -3.2146  -3.1970  -3.1842  -3.1474  -3.1314
    -3.0752  -3.0179  -2.9424  -2.8973  -2.8581  -2.8518  -2.8149  -2.7926
    -2.7290  -2.7097  -2.6812  -2.6295  -2.6095  -2.5814  -2.5606  -2.5400
    -2.5016  -2.4578  -2.3863  -2.3606  -2.3169  -2.2511  -2.2321  -2.1407
    -2.1103  -2.0697  -2.0598  -1.9919  -1.9841  -1.8193  -1.5244  -0.8035
    -0.5495   0.2610   0.8612   1.6659   2.5050   2.7415   3.2805   3.8402
     4.4321   4.7243   5.3382   5.7640

          k =-0.0838 0.0484 0.0000 ( 19500 PWs)   bands (ev):

   -90.9127 -90.8572 -90.8554 -90.8536 -90.7727 -90.7710 -90.7692 -90.6821
   -90.6804 -90.6786 -90.6221 -90.6207 -54.4219 -54.4103 -54.4029 -54.3841
   -54.3579 -54.3576 -54.3557 -54.3531 -54.3518 -54.3497 -54.3414 -54.3262
   -54.2976 -54.2810 -54.2765 -54.2731 -54.2688 -54.2463 -54.2420 -54.2400
   -54.2350 -54.2122 -54.1909 -54.1865 -54.1828 -54.1792 -54.1628 -54.1611
   -54.1597 -54.1560 -54.1278 -54.1275 -54.1226 -54.1156 -54.1079 -54.0905
    -4.8680  -4.3601  -4.3388  -4.1978  -4.1710  -4.1698  -4.1611  -4.0535
    -4.0305  -3.9669  -3.9584  -3.9200  -3.9043  -3.8386  -3.7718  -3.7536
    -3.7348  -3.5303  -3.5212  -3.4944  -3.4874  -3.4819  -3.4398  -3.3850
    -3.3434  -3.1942  -3.1937  -3.1630  -3.1103  -3.1094  -3.0823  -3.0815
    -3.0094  -2.9265  -2.8755  -2.8734  -2.8603  -2.8377  -2.8199  -2.8119
    -2.7742  -2.7128  -2.6710  -2.6474  -2.6205  -2.6003  -2.5856  -2.5836
    -2.5446  -2.5359  -2.5089  -2.4897  -2.3745  -2.3557  -2.3445  -2.3029
    -2.0805  -2.0598  -2.0350  -2.0306  -1.9084  -1.9083  -1.5166  -1.1073
     0.2663   0.8920   0.9959   1.3583   1.9727   2.1837   3.1861   3.9172
     4.2006   4.3259   5.8823   6.0678

          k =-0.0838 0.0806 0.0000 ( 19479 PWs)   bands (ev):

   -90.9127 -90.8572 -90.8554 -90.8536 -90.7727 -90.7710 -90.7692 -90.6821
   -90.6804 -90.6786 -90.6221 -90.6207 -54.4203 -54.4127 -54.4029 -54.3811
   -54.3660 -54.3565 -54.3550 -54.3522 -54.3510 -54.3462 -54.3400 -54.3283
   -54.2951 -54.2860 -54.2776 -54.2743 -54.2620 -54.2478 -54.2420 -54.2398
   -54.2355 -54.2106 -54.1947 -54.1887 -54.1828 -54.1715 -54.1629 -54.1612
   -54.1608 -54.1587 -54.1267 -54.1252 -54.1234 -54.1172 -54.1079 -54.0905
    -4.8639  -4.3343  -4.2667  -4.1746  -4.1506  -4.1354  -4.1208  -4.0983
    -4.0715  -4.0428  -3.9976  -3.9395  -3.8401  -3.8170  -3.7976  -3.7508
    -3.7030  -3.6298  -3.5537  -3.4950  -3.4480  -3.4394  -3.4288  -3.4169
    -3.3333  -3.2504  -3.2344  -3.2146  -3.1970  -3.1842  -3.1474  -3.1314
    -3.0752  -3.0179  -2.9424  -2.8973  -2.8581  -2.8518  -2.8149  -2.7926
    -2.7290  -2.7097  -2.6812  -2.6295  -2.6095  -2.5814  -2.5606  -2.5400
    -2.5016  -2.4578  -2.3863  -2.3606  -2.3169  -2.2511  -2.2321  -2.1407
    -2.1103  -2.0697  -2.0598  -1.9919  -1.9841  -1.8193  -1.5244  -0.8035
    -0.5495   0.2610   0.8612   1.6659   2.5050   2.7415   3.2805   3.8402
     4.4321   4.7243   5.3382   5.7640

          k =-0.0838 0.1129 0.0000 ( 19479 PWs)   bands (ev):

   -90.9127 -90.8572 -90.8554 -90.8536 -90.7727 -90.7710 -90.7692 -90.6821
   -90.6804 -90.6786 -90.6221 -90.6207 -54.4203 -54.4127 -54.4029 -54.3811
   -54.3660 -54.3565 -54.3550 -54.3522 -54.3510 -54.3462 -54.3400 -54.3283
   -54.2951 -54.2860 -54.2776 -54.2743 -54.2620 -54.2478 -54.2420 -54.2398
   -54.2355 -54.2106 -54.1947 -54.1887 -54.1828 -54.1715 -54.1629 -54.1612
   -54.1608 -54.1587 -54.1267 -54.1252 -54.1234 -54.1172 -54.1079 -54.0905
    -4.8639  -4.3343  -4.2667  -4.1746  -4.1506  -4.1354  -4.1208  -4.0983
    -4.0715  -4.0428  -3.9976  -3.9395  -3.8401  -3.8170  -3.7976  -3.7508
    -3.7030  -3.6298  -3.5537  -3.4950  -3.4480  -3.4394  -3.4288  -3.4169
    -3.3333  -3.2504  -3.2344  -3.2146  -3.1970  -3.1842  -3.1474  -3.1314
    -3.0752  -3.0179  -2.9424  -2.8973  -2.8581  -2.8518  -2.8149  -2.7926
    -2.7290  -2.7097  -2.6812  -2.6295  -2.6095  -2.5814  -2.5606  -2.5400
    -2.5016  -2.4578  -2.3863  -2.3606  -2.3169  -2.2511  -2.2321  -2.1407
    -2.1103  -2.0697  -2.0598  -1.9919  -1.9841  -1.8193  -1.5244  -0.8035
    -0.5495   0.2610   0.8612   1.6659   2.5050   2.7415   3.2805   3.8402
     4.4321   4.7243   5.3382   5.7640

          k =-0.0838-0.0484 0.0000 ( 19500 PWs)   bands (ev):

   -90.9127 -90.8572 -90.8554 -90.8536 -90.7727 -90.7710 -90.7692 -90.6821
   -90.6804 -90.6786 -90.6221 -90.6207 -54.4219 -54.4103 -54.4029 -54.3841
   -54.3579 -54.3576 -54.3557 -54.3531 -54.3518 -54.3497 -54.3414 -54.3262
   -54.2976 -54.2810 -54.2765 -54.2731 -54.2688 -54.2463 -54.2420 -54.2400
   -54.2350 -54.2122 -54.1909 -54.1865 -54.1828 -54.1792 -54.1628 -54.1611
   -54.1597 -54.1560 -54.1278 -54.1275 -54.1226 -54.1156 -54.1079 -54.0905
    -4.8680  -4.3601  -4.3388  -4.1978  -4.1710  -4.1698  -4.1611  -4.0535
    -4.0305  -3.9669  -3.9584  -3.9200  -3.9043  -3.8386  -3.7718  -3.7536
    -3.7348  -3.5303  -3.5212  -3.4944  -3.4874  -3.4819  -3.4398  -3.3850
    -3.3434  -3.1942  -3.1937  -3.1630  -3.1103  -3.1094  -3.0823  -3.0815
    -3.0094  -2.9265  -2.8755  -2.8734  -2.8603  -2.8377  -2.8199  -2.8119
    -2.7742  -2.7128  -2.6710  -2.6474  -2.6205  -2.6003  -2.5856  -2.5836
    -2.5446  -2.5359  -2.5089  -2.4897  -2.3745  -2.3557  -2.3445  -2.3029
    -2.0805  -2.0598  -2.0350  -2.0306  -1.9084  -1.9083  -1.5166  -1.1073
     0.2663   0.8920   0.9959   1.3583   1.9727   2.1837   3.1861   3.9172
     4.2006   4.3259   5.8823   6.0678

     the Fermi energy is     1.1338 ev

!    total energy              =   -3560.98608808 Ry
     Harris-Foulkes estimate   =   -3560.98608809 Ry
     estimated scf accuracy    <       0.00000261 Ry

     The total energy is the sum of the following terms:

     one-electron contribution =  -25765.49743096 Ry
     hartree contribution      =   12873.07244090 Ry
     xc contribution           =    -361.69009816 Ry
     ewald contribution        =    9693.14950482 Ry
     electric field correction =       0.00001206 Ry
     smearing contrib. (-TS)   =      -0.02051675 Ry

     convergence has been achieved in   4 iterations
 
 BEEF-vdW xc energy contributions
           1 :   -313.439009477589     
           2 :    283.789042015303     
           3 :   -234.324022166411     
           4 :    180.009340785411     
           5 :   -134.458776249991     
           6 :    104.976879259751     
           7 :   -91.1816730764303     
           8 :    87.2111297527629     
           9 :   -85.8261341375788     
[...]
    -2.0355  -2.0165  -1.9515  -1.9407  -1.9202  -1.8695  -0.8369  -0.4451
    -0.0499   0.6430   0.8740   2.0412   2.6306   2.8236   3.1374   3.1878
     3.6939   4.7422   5.2147   5.5532

          k = 0.0559 0.0323 0.0000 ( 19481 PWs)   bands (ev):

   -90.8752 -90.8194 -90.8164 -90.8153 -90.7953 -90.7920 -90.7909 -90.6371
   -90.6340 -90.6328 -90.6070 -90.5986 -54.3869 -54.3796 -54.3711 -54.3497
   -54.3371 -54.3251 -54.3218 -54.3182 -54.3181 -54.3147 -54.3072 -54.3033
   -54.3020 -54.3014 -54.2875 -54.2870 -54.2826 -54.2737 -54.2528 -54.2475
   -54.2453 -54.1713 -54.1582 -54.1547 -54.1281 -54.1267 -54.1163 -54.1131
   -54.1130 -54.1114 -54.1084 -54.1053 -54.0991 -54.0960 -54.0876 -54.0690
    -5.5403  -4.6054  -4.4032  -4.2496  -4.2474  -4.2391  -4.2119  -4.1939
    -4.1824  -4.1566  -4.1047  -4.0802  -3.9788  -3.8753  -3.8134  -3.7431
    -3.6264  -3.6135  -3.5512  -3.5046  -3.4337  -3.3776  -3.3653  -3.3229
    -3.3175  -3.2972  -3.2169  -3.1377  -3.1217  -3.1065  -3.0712  -3.0672
    -3.0150  -2.9803  -2.8974  -2.8689  -2.7469  -2.7212  -2.6385  -2.6277
    -2.6043  -2.5830  -2.5569  -2.5299  -2.5243  -2.4974  -2.3891  -2.3772
    -2.3612  -2.3552  -2.3060  -2.2709  -2.2359  -2.2009  -2.1280  -2.0537
    -2.0416  -2.0160  -1.9804  -1.8934  -1.8853  -1.8216  -1.5499  -0.5176
     0.2990   0.8865   0.9898   1.6467   2.2542   2.3805   2.7371   3.8823
     4.2948   5.0412   5.3464   5.3845

          k = 0.0559-0.1290 0.0000 ( 19479 PWs)   bands (ev):

   -90.8751 -90.8188 -90.8170 -90.8152 -90.7948 -90.7925 -90.7909 -90.6364
   -90.6346 -90.6329 -90.6070 -90.5987 -54.3832 -54.3758 -54.3700 -54.3433
   -54.3322 -54.3276 -54.3209 -54.3183 -54.3157 -54.3141 -54.3112 -54.3091
   -54.3033 -54.2981 -54.2921 -54.2897 -54.2842 -54.2763 -54.2523 -54.2481
   -54.2456 -54.1653 -54.1514 -54.1471 -54.1392 -54.1276 -54.1160 -54.1155
   -54.1138 -54.1118 -54.1092 -54.1064 -54.1011 -54.0961 -54.0906 -54.0690
    -5.3834  -4.3080  -4.2328  -4.1455  -4.1249  -4.1048  -4.0886  -4.0692
    -4.0510  -4.0149  -3.9803  -3.9082  -3.8142  -3.8015  -3.7690  -3.7385
    -3.6726  -3.6105  -3.5351  -3.4752  -3.4498  -3.4151  -3.4027  -3.3957
    -3.3192  -3.2438  -3.2161  -3.2033  -3.1782  -3.1608  -3.1182  -3.1127
    -3.0539  -3.0052  -2.9251  -2.8795  -2.8486  -2.8265  -2.7847  -2.7650
    -2.7074  -2.6933  -2.6444  -2.6240  -2.5885  -2.5628  -2.5387  -2.5180
    -2.4747  -2.4389  -2.3665  -2.3323  -2.2874  -2.2331  -2.2094  -2.1178
    -2.0864  -2.0477  -2.0318  -1.9649  -1.9496  -1.8016  -1.4793  -0.7811
    -0.5307   0.3412   0.9196   1.7328   2.5451   2.7986   3.3666   3.8322
     4.5536   4.7410   5.4272   5.7715

          k = 0.0559-0.0968 0.0000 ( 19479 PWs)   bands (ev):

   -90.8751 -90.8180 -90.8179 -90.8152 -90.7944 -90.7929 -90.7910 -90.6355
   -90.6355 -90.6329 -90.6070 -90.5987 -54.3778 -54.3777 -54.3695 -54.3332
   -54.3330 -54.3252 -54.3247 -54.3203 -54.3201 -54.3166 -54.3123 -54.3044
   -54.3036 -54.2959 -54.2959 -54.2879 -54.2854 -54.2805 -54.2521 -54.2483
   -54.2458 -54.1558 -54.1552 -54.1439 -54.1358 -54.1355 -54.1193 -54.1147
   -54.1146 -54.1119 -54.1083 -54.1082 -54.0972 -54.0965 -54.0954 -54.0690
    -5.2897  -4.1122  -4.0600  -4.0452  -3.9942  -3.9753  -3.9458  -3.9375
    -3.9291  -3.9181  -3.9065  -3.8843  -3.8635  -3.8462  -3.8447  -3.8158
    -3.6001  -3.5971  -3.5257  -3.5241  -3.4353  -3.4290  -3.4270  -3.3789
    -3.3276  -3.2837  -3.2525  -3.2332  -3.2301  -3.2265  -3.2198  -3.1311
    -3.0426  -3.0327  -3.0219  -3.0104  -3.0065  -3.0013  -2.9964  -2.9945
    -2.6816  -2.6613  -2.6530  -2.6244  -2.5904  -2.5611  -2.5566  -2.4912
    -2.4051  -2.3655  -2.3591  -2.2362  -2.2168  -2.1939  -2.1825  -2.1417
    -2.1107  -2.0970  -2.0816  -2.0362  -1.8614  -1.7265  -1.7014  -1.0518
    -0.5447  -0.5330   1.1415   1.8570   1.8799   3.7975   4.5030   4.5537
     4.5921   4.5977   4.6489   5.5856

          k = 0.0559-0.0645 0.0000 ( 19479 PWs)   bands (ev):

   -90.8751 -90.8188 -90.8170 -90.8152 -90.7948 -90.7925 -90.7909 -90.6364
   -90.6346 -90.6329 -90.6070 -90.5987 -54.3832 -54.3758 -54.3700 -54.3433
   -54.3322 -54.3276 -54.3209 -54.3183 -54.3157 -54.3141 -54.3112 -54.3091
   -54.3033 -54.2981 -54.2921 -54.2897 -54.2842 -54.2763 -54.2523 -54.2481
   -54.2456 -54.1653 -54.1514 -54.1471 -54.1392 -54.1276 -54.1160 -54.1155
   -54.1138 -54.1118 -54.1092 -54.1064 -54.1011 -54.0961 -54.0906 -54.0690
    -5.3834  -4.3080  -4.2328  -4.1455  -4.1249  -4.1048  -4.0886  -4.0692
    -4.0510  -4.0149  -3.9803  -3.9082  -3.8142  -3.8015  -3.7690  -3.7385
    -3.6726  -3.6105  -3.5351  -3.4752  -3.4498  -3.4151  -3.4027  -3.3957
    -3.3192  -3.2438  -3.2161  -3.2033  -3.1782  -3.1608  -3.1182  -3.1127
    -3.0539  -3.0052  -2.9251  -2.8795  -2.8486  -2.8265  -2.7847  -2.7650
    -2.7074  -2.6933  -2.6444  -2.6240  -2.5885  -2.5628  -2.5387  -2.5180
    -2.4747  -2.4389  -2.3665  -2.3323  -2.2874  -2.2331  -2.2094  -2.1178
    -2.0864  -2.0477  -2.0318  -1.9649  -1.9496  -1.8016  -1.4793  -0.7811
    -0.5307   0.3412   0.9196   1.7328   2.5451   2.7986   3.3666   3.8322
     4.5536   4.7410   5.4272   5.7715

          k =-0.0838 0.0484 0.0000 ( 19500 PWs)   bands (ev):

   -90.8752 -90.8188 -90.8170 -90.8153 -90.7948 -90.7925 -90.7909 -90.6363
   -90.6347 -90.6329 -90.6070 -90.5987 -54.3848 -54.3735 -54.3700 -54.3462
   -54.3337 -54.3202 -54.3191 -54.3178 -54.3153 -54.3153 -54.3148 -54.3093
   -54.3037 -54.2994 -54.2920 -54.2905 -54.2861 -54.2738 -54.2523 -54.2482
   -54.2453 -54.1668 -54.1516 -54.1407 -54.1388 -54.1348 -54.1155 -54.1138
   -54.1124 -54.1109 -54.1099 -54.1057 -54.1054 -54.0961 -54.0889 -54.0690
    -5.3862  -4.3286  -4.3081  -4.1690  -4.1427  -4.1345  -4.1237  -4.0395
    -4.0182  -3.9357  -3.9256  -3.8967  -3.8696  -3.8211  -3.7757  -3.7163
    -3.7145  -3.5089  -3.4881  -3.4729  -3.4714  -3.4462  -3.4456  -3.3575
    -3.3428  -3.2098  -3.1752  -3.1354  -3.1086  -3.0842  -3.0690  -3.0523
    -2.9858  -2.9297  -2.8808  -2.8353  -2.8289  -2.8002  -2.7927  -2.7771
    -2.7204  -2.7117  -2.6682  -2.6288  -2.6121  -2.5853  -2.5648  -2.5591
    -2.5195  -2.5139  -2.4872  -2.4606  -2.3552  -2.3336  -2.3146  -2.2700
    -2.0591  -2.0491  -2.0116  -1.9969  -1.8829  -1.8762  -1.4521  -1.0912
     0.3735   0.9110   1.0640   1.3680   1.9689   2.1969   3.4500   3.9310
     4.1724   4.3591   6.0305   6.0851

          k =-0.0838 0.0806 0.0000 ( 19479 PWs)   bands (ev):

   -90.8751 -90.8188 -90.8170 -90.8152 -90.7948 -90.7925 -90.7909 -90.6364
   -90.6346 -90.6329 -90.6070 -90.5987 -54.3832 -54.3758 -54.3700 -54.3433
   -54.3322 -54.3276 -54.3209 -54.3183 -54.3157 -54.3141 -54.3112 -54.3091
   -54.3033 -54.2981 -54.2921 -54.2897 -54.2842 -54.2763 -54.2523 -54.2481
   -54.2456 -54.1653 -54.1514 -54.1471 -54.1392 -54.1276 -54.1160 -54.1155
   -54.1138 -54.1118 -54.1092 -54.1064 -54.1011 -54.0961 -54.0906 -54.0690
    -5.3834  -4.3080  -4.2328  -4.1455  -4.1249  -4.1048  -4.0886  -4.0692
    -4.0510  -4.0149  -3.9803  -3.9082  -3.8142  -3.8015  -3.7690  -3.7385
    -3.6726  -3.6105  -3.5351  -3.4752  -3.4498  -3.4151  -3.4027  -3.3957
    -3.3192  -3.2438  -3.2161  -3.2033  -3.1782  -3.1608  -3.1182  -3.1127
    -3.0538  -3.0052  -2.9251  -2.8795  -2.8486  -2.8265  -2.7847  -2.7650
    -2.7074  -2.6933  -2.6444  -2.6240  -2.5885  -2.5628  -2.5387  -2.5180
    -2.4747  -2.4389  -2.3665  -2.3323  -2.2874  -2.2331  -2.2094  -2.1178
    -2.0864  -2.0477  -2.0318  -1.9649  -1.9496  -1.8016  -1.4793  -0.7811
    -0.5307   0.3412   0.9196   1.7328   2.5451   2.7986   3.3666   3.8322
     4.5536   4.7410   5.4272   5.7715

          k =-0.0838 0.1129 0.0000 ( 19479 PWs)   bands (ev):

   -90.8751 -90.8188 -90.8170 -90.8152 -90.7948 -90.7925 -90.7909 -90.6364
   -90.6346 -90.6329 -90.6070 -90.5987 -54.3832 -54.3758 -54.3700 -54.3433
   -54.3322 -54.3276 -54.3209 -54.3183 -54.3157 -54.3141 -54.3112 -54.3091
   -54.3033 -54.2981 -54.2921 -54.2897 -54.2842 -54.2763 -54.2523 -54.2481
   -54.2456 -54.1653 -54.1514 -54.1471 -54.1392 -54.1276 -54.1160 -54.1155
   -54.1138 -54.1118 -54.1092 -54.1064 -54.1011 -54.0961 -54.0906 -54.0690
    -5.3834  -4.3080  -4.2328  -4.1455  -4.1249  -4.1048  -4.0886  -4.0692
    -4.0510  -4.0149  -3.9803  -3.9082  -3.8142  -3.8015  -3.7690  -3.7385
    -3.6726  -3.6105  -3.5351  -3.4752  -3.4498  -3.4151  -3.4027  -3.3957
    -3.3192  -3.2438  -3.2161  -3.2033  -3.1782  -3.1608  -3.1182  -3.1127
    -3.0538  -3.0052  -2.9251  -2.8795  -2.8486  -2.8265  -2.7847  -2.7650
    -2.7074  -2.6933  -2.6444  -2.6240  -2.5885  -2.5628  -2.5387  -2.5180
    -2.4747  -2.4389  -2.3665  -2.3323  -2.2874  -2.2331  -2.2094  -2.1178
    -2.0864  -2.0477  -2.0318  -1.9649  -1.9496  -1.8016  -1.4793  -0.7811
    -0.5307   0.3412   0.9196   1.7328   2.5451   2.7986   3.3666   3.8322
     4.5536   4.7410   5.4272   5.7715

          k =-0.0838-0.0484 0.0000 ( 19500 PWs)   bands (ev):

   -90.8752 -90.8188 -90.8170 -90.8153 -90.7948 -90.7925 -90.7909 -90.6363
   -90.6347 -90.6329 -90.6070 -90.5987 -54.3848 -54.3735 -54.3700 -54.3462
   -54.3337 -54.3202 -54.3191 -54.3178 -54.3153 -54.3153 -54.3148 -54.3093
   -54.3037 -54.2994 -54.2920 -54.2905 -54.2861 -54.2738 -54.2523 -54.2482
   -54.2453 -54.1668 -54.1516 -54.1407 -54.1388 -54.1348 -54.1155 -54.1138
   -54.1124 -54.1109 -54.1099 -54.1057 -54.1054 -54.0961 -54.0889 -54.0690
    -5.3862  -4.3286  -4.3081  -4.1690  -4.1427  -4.1345  -4.1237  -4.0395
    -4.0182  -3.9357  -3.9256  -3.8967  -3.8696  -3.8211  -3.7757  -3.7163
    -3.7145  -3.5089  -3.4881  -3.4729  -3.4714  -3.4462  -3.4456  -3.3575
    -3.3428  -3.2098  -3.1752  -3.1354  -3.1086  -3.0842  -3.0690  -3.0523
    -2.9858  -2.9297  -2.8808  -2.8353  -2.8289  -2.8002  -2.7927  -2.7771
    -2.7204  -2.7117  -2.6682  -2.6288  -2.6121  -2.5853  -2.5648  -2.5591
    -2.5195  -2.5139  -2.4872  -2.4606  -2.3552  -2.3336  -2.3146  -2.2700
    -2.0591  -2.0491  -2.0116  -1.9969  -1.8829  -1.8762  -1.4521  -1.0912
     0.3735   0.9110   1.0640   1.3680   1.9689   2.1969   3.4500   3.9310
     4.1724   4.3591   6.0305   6.0851

     the Fermi energy is     1.1704 ev

!    total energy              =   -3560.99234716 Ry
     Harris-Foulkes estimate   =   -3560.99234713 Ry
     estimated scf accuracy    <       0.00000005 Ry

     The total energy is the sum of the following terms:

     one-electron contribution =  -25762.46473370 Ry
     hartree contribution      =   12871.71855740 Ry
     xc contribution           =    -361.71990285 Ry
     ewald contribution        =    9691.49369097 Ry
     electric field correction =       0.00000275 Ry
     smearing contrib. (-TS)   =      -0.01996172 Ry

     convergence has been achieved in   6 iterations
 
 BEEF-vdW xc energy contributions
           1 :   -313.473814544915     
           2 :    283.841532812623     
           3 :   -234.389180639485     
           4 :    180.059292661436     
           5 :   -134.462020794313     
           6 :    104.920380179808     
           7 :   -91.0822954271733     
           8 :    87.1081481371032     
           9 :   -85.7588595910746     
          10 :    82.0536958739598     
          11 :   -74.8210703214215     
          12 :    65.8672540375212     
          13 :   -57.8233256768600     
          14 :    52.2136159905687     
          15 :   -48.8067210389329     
          16 :    46.2854975271096     
          17 :   -43.4568198797864     
          18 :    40.0524692931635     
          19 :   -36.6651517767360     
          20 :    34.0514679498201     
          21 :   -32.4392699418803     
          22 :    31.3534982974555     
          23 :   -30.0196147244632     
          24 :    27.9758025489253     
          25 :   -25.4218684303435     
          26 :    23.0641109269432     
          27 :   -21.5980707357676     
          28 :    21.2158506135236     
          29 :   -21.4854567411460     
          30 :    21.6646085975157     
          31 :   -31.2383913834328     
          32 :   -22.7183113585404     

     Forces acting on atoms (Ry/au):


     negative rho (up, down):  2.224E-03 0.000E+00
     atom    1 type  1   force =    -0.00000000    0.00000000    0.00198058
     atom    2 type  1   force =     0.00000000    0.00014414   -0.00015279
     atom    3 type  1   force =     0.00012483   -0.00007207   -0.00015279
     atom    4 type  1   force =    -0.00012483   -0.00007207   -0.00015280
     atom    5 type  1   force =     0.00040018   -0.00023106   -0.00329951
     atom    6 type  1   force =    -0.00040017   -0.00023106   -0.00329950
     atom    7 type  1   force =     0.00000002   -0.00000002    0.00760332
     atom    8 type  1   force =     0.00000000    0.00046206   -0.00329942
     atom    9 type  1   force =     0.00016084    0.00009269    0.00020668
     atom   10 type  1   force =    -0.00016095    0.00009278    0.00020672
     atom   11 type  1   force =     0.00000003   -0.00018555    0.00020674
     atom   12 type  1   force =    -0.00000001    0.00000020    0.00035575
     atom   13 type  2   force =     0.00000007   -0.00000004   -0.00020297

     Total force =     0.000632     Total SCF correction =     0.000968
     SCF correction compared to forces is large: reduce conv_thr to get better values


     entering subroutine stress ...


     negative rho (up, down):  2.224E-03 0.000E+00
          total   stress  (Ry/bohr**3)                   (kbar)     P=   -6.33
  -0.00005374  -0.00000000  -0.00000000         -7.90     -0.00     -0.00
  -0.00000000  -0.00005374   0.00000000         -0.00     -7.90      0.00
  -0.00000000   0.00000000  -0.00002158         -0.00      0.00     -3.18


     bfgs converged in  17 scf cycles and  16 bfgs steps
     (criteria: energy <  1.0E+00, force <  1.9E-03)

     End of BFGS Geometry Optimization

     Final energy   =   -3560.9923471627 Ry
Begin final coordinates

ATOMIC_POSITIONS (crystal)
Ag1      0.166666667   0.166666667   0.402063960    0   0   0
Ag1      0.666666667   0.166666667   0.402063960    0   0   0
Ag1      0.166666667   0.666666667   0.402063960    0   0   0
Ag1      0.666666667   0.666666667   0.402063960    0   0   0
Ag1      0.833333333   0.333333333   0.500000000    0   0   0
Ag1      0.333333333   0.333333333   0.500000000    0   0   0
Ag1      0.833333333   0.833333333   0.500000000    0   0   0
Ag1      0.333333333   0.833333333   0.500000000    0   0   0
Ag1     -0.003114893  -0.003115051   0.599028543
Ag1      0.506230163  -0.003115134   0.599028537
Ag1     -0.003114785   0.506229644   0.599028509
Ag1      0.500000223   0.499999636   0.596169449
H1       0.166666709   0.166666516   0.631691784
End final coordinates



     Writing output data file calc.save
 
     init_run     :     12.28s CPU     12.74s WALL (       1 calls)
     electrons    :   3904.88s CPU   4187.89s WALL (      17 calls)
     update_pot   :     47.10s CPU     49.53s WALL (      16 calls)
     forces       :    286.00s CPU    308.36s WALL (      17 calls)
     stress       :    834.92s CPU    885.80s WALL (      17 calls)

     Called by init_run:
     wfcinit      :      5.13s CPU      5.22s WALL (       1 calls)
     potinit      :      1.98s CPU      2.16s WALL (       1 calls)

     Called by electrons:
     c_bands      :   1556.58s CPU   1614.35s WALL (     115 calls)
     sum_band     :    659.72s CPU    709.83s WALL (     115 calls)
     v_of_rho     :    230.11s CPU    266.63s WALL (     128 calls)
     newd         :    559.51s CPU    568.73s WALL (     128 calls)
     mix_rho      :      6.28s CPU      6.42s WALL (     115 calls)
     vdW_energy   :    165.69s CPU    182.97s WALL (     740 calls)
     vdW_ffts     :    479.03s CPU    520.69s WALL (    1514 calls)
     vdW_v        :    172.18s CPU    184.39s WALL (     740 calls)

     Called by c_bands:
     init_us_2    :      7.15s CPU      7.22s WALL (    1325 calls)
     cegterg      :   1469.53s CPU   1497.77s WALL (     575 calls)

     Called by *egterg:
     h_psi        :    902.08s CPU    923.44s WALL (    2504 calls)
     s_psi        :     75.49s CPU     75.65s WALL (    2504 calls)
     g_psi        :      5.14s CPU      5.16s WALL (    1924 calls)
     cdiaghg      :    168.53s CPU    169.76s WALL (    2399 calls)

     Called by h_psi:
     add_vuspsi   :     77.29s CPU     77.48s WALL (    2504 calls)

     General routines
     calbec       :    126.12s CPU    129.43s WALL (    3249 calls)
     fft          :    712.72s CPU    784.62s WALL (   44231 calls)
     ffts         :      0.48s CPU      0.51s WALL (     243 calls)
     fftw         :    580.09s CPU    604.03s WALL (  417288 calls)
     interpolate  :      4.81s CPU      4.92s WALL (     243 calls)
     davcio       :      0.00s CPU      0.03s WALL (       5 calls)
 
     Parallel routines
     fft_scatter  :    785.87s CPU    877.50s WALL (  461762 calls)
 
     PWSCF        :     1h26m CPU        1h32m WALL

 
   This run was terminated on:  12: 5:14   4May2018            

=------------------------------------------------------------------------------=
   JOB DONE.
=------------------------------------------------------------------------------=
Job  /afs/slac/g/suncat/bin/suncat-tsmpirun -x LD_LIBRARY_PATH -wdir /scratch/qe936951_vYqEO pw.x -npool 4 -in pw.inp

TID   HOST_NAME   COMMAND_LINE            STATUS            TERMINATION_TIME
===== ========== ================  =======================  ===================
00000 suncat0065 pw.x -npool 4 -i  Done                     05/04/2018 12:05:14
00001 suncat0065 pw.x -npool 4 -i  Done                     05/04/2018 12:05:14
00002 suncat0065 pw.x -npool 4 -i  Done                     05/04/2018 12:05:14
00003 suncat0065 pw.x -npool 4 -i  Done                     05/04/2018 12:05:14
00004 suncat0065 pw.x -npool 4 -i  Done                     05/04/2018 12:05:14
00005 suncat0065 pw.x -npool 4 -i  Done                     05/04/2018 12:05:14
00006 suncat0065 pw.x -npool 4 -i  Done                     05/04/2018 12:05:14
00007 suncat0065 pw.x -npool 4 -i  Done                     05/04/2018 12:05:14
00008 suncat0198 pw.x -npool 4 -i  Done                     05/04/2018 12:05:14
00009 suncat0198 pw.x -npool 4 -i  Done                     05/04/2018 12:05:14
00010 suncat0198 pw.x -npool 4 -i  Done                     05/04/2018 12:05:14
00011 suncat0198 pw.x -npool 4 -i  Done                     05/04/2018 12:05:14
00012 suncat0198 pw.x -npool 4 -i  Done                     05/04/2018 12:05:14
00013 suncat0198 pw.x -npool 4 -i  Done                     05/04/2018 12:05:14
00014 suncat0198 pw.x -npool 4 -i  Done                     05/04/2018 12:05:14
00015 suncat0198 pw.x -npool 4 -i  Done                     05/04/2018 12:05:14
00016 suncat0178 pw.x -npool 4 -i  Done                     05/04/2018 12:05:14
00017 suncat0178 pw.x -npool 4 -i  Done                     05/04/2018 12:05:14
00018 suncat0178 pw.x -npool 4 -i  Done                     05/04/2018 12:05:14
00019 suncat0178 pw.x -npool 4 -i  Done                     05/04/2018 12:05:14
00020 suncat0178 pw.x -npool 4 -i  Done                     05/04/2018 12:05:14
00021 suncat0178 pw.x -npool 4 -i  Done                     05/04/2018 12:05:14
00022 suncat0178 pw.x -npool 4 -i  Done                     05/04/2018 12:05:14
00023 suncat0178 pw.x -npool 4 -i  Done                     05/04/2018 12:05:14
00024 suncat0105 pw.x -npool 4 -i  Done                     05/04/2018 12:05:14
00025 suncat0105 pw.x -npool 4 -i  Done                     05/04/2018 12:05:14
00026 suncat0105 pw.x -npool 4 -i  Done                     05/04/2018 12:05:14
00027 suncat0105 pw.x -npool 4 -i  Done                     05/04/2018 12:05:14
00028 suncat0105 pw.x -npool 4 -i  Done                     05/04/2018 12:05:14
00029 suncat0105 pw.x -npool 4 -i  Done                     05/04/2018 12:05:14
00030 suncat0105 pw.x -npool 4 -i  Done                     05/04/2018 12:05:14
00031 suncat0105 pw.x -npool 4 -i  Done                     05/04/2018 12:05:14
