  python dir          : /home/mamunm/src/espresso
  espresso dir        : /home/vossj/suncat/esdld/espresso-dynpy-beef/bin
  pseudo dir          : /home/mamunm/src/pseudo/gbrv1.5pbe
  ase-espresso py git : GITVERSION



     Program PWSCF v.5.1rc2 (svn rev. ) starts on 17Apr2018 at  8:41:10 

     This program is part of the open-source Quantum ESPRESSO suite
     for quantum simulation of materials; please cite
         "P. Giannozzi et al., J. Phys.:Condens. Matter 21 395502 (2009);
          URL http://www.quantum-espresso.org", 
     in publications or presentations arising from this work. More details at
     http://www.quantum-espresso.org/quote

     Parallel version (MPI), running on    16 processors
     R & G space division:  proc/nbgrp/npool/nimage =      16
     Reading input from pw.inp
     Message from routine read_cards :
     DEPRECATED: no units specified in CELL_PARAMETERS card

     Current dimensions of program PWSCF are:
     Max number of different atomic species (ntypx) = 10
     Max number of k-points (npk) =  40000
     Max angular momentum in pseudopotentials (lmaxx) =  3
     Presently stress not available with electric field


     **************************************************************************
     Initializing libbeef V0.1.1 with the BEEF-vdW functional.
     Citation: Wellendorff et al., PRB 85, 235149 (2012).
     **************************************************************************


     IMPORTANT: XC functional enforced from input :
     Exchange-correlation      = BEEF-VDW ( 1  4 27 13 2)
     Any further DFT definition will be discarded
     Please, verify this is what you really want


     Subspace diagonalization in iterative solution of the eigenvalue problem:
     a serial algorithm will be used

 
     Parallelization info
     --------------------
     sticks:   dense  smooth     PW     G-vecs:    dense   smooth      PW
     Min         151      60     18                28279     7123    1152
     Max         152      61     19                28301     7170    1159
     Sum        2419     967    295               452661   114411   18499
 


     bravais-lattice index     =            0
     lattice parameter (alat)  =       1.8897  a.u.
     unit-cell volume          =    3807.2308 (a.u.)^3
     number of atoms/cell      =           14
     number of atomic types    =            3
     number of electrons       =       235.00
     number of Kohn-Sham states=          127
     kinetic-energy cutoff     =      36.7493  Ry
     charge density cutoff     =     367.4932  Ry
     convergence threshold     =      1.0E-05
     mixing beta               =       0.3000
     number of iterations used =           10  plain     mixing
     Exchange-correlation      = BEEF-VDW ( 1  4 27 13 2)
     nstep                     =           50


     celldm(1)=   1.889726  celldm(2)=   0.000000  celldm(3)=   0.000000
     celldm(4)=   0.000000  celldm(5)=   0.000000  celldm(6)=   0.000000

     crystal axes: (cart. coord. in units of alat)
               a(1) = (   5.184823   0.000000   0.000000 )  
               a(2) = (   2.592411   4.490188   0.000000 )  
               a(3) = (   0.000000   0.000000  24.233390 )  

     reciprocal axes: (cart. coord. in units 2 pi/alat)
               b(1) = (  0.192871 -0.111354  0.000000 )  
               b(2) = (  0.000000  0.222708  0.000000 )  
               b(3) = (  0.000000  0.000000  0.041265 )  


     PseudoPot. # 1 for Cu read from file:
     /home/mamunm/src/pseudo/gbrv1.5pbe/Cu.UPF
     MD5 check sum: 6e991ff952a84172a2a52a1c1e996048
     Pseudo is Ultrasoft + core correction, Zval = 19.0
     Generated by new atomic code, or converted to UPF format
     Using radial grid of  867 points,  6 beta functions with: 
                l(1) =   0
                l(2) =   0
                l(3) =   1
                l(4) =   1
                l(5) =   2
                l(6) =   2
     Q(r) pseudized with  8 coefficients,  rinner =    1.150   1.150   1.150
                                                       1.150   1.150

     PseudoPot. # 2 for S  read from file:
     /home/mamunm/src/pseudo/gbrv1.5pbe/S.UPF
     MD5 check sum: 88d86576ff6df21479756cfb9bdac1df
     Pseudo is Ultrasoft + core correction, Zval =  6.0
     Generated by new atomic code, or converted to UPF format
     Using radial grid of  907 points,  6 beta functions with: 
                l(1) =   0
                l(2) =   0
                l(3) =   1
                l(4) =   1
                l(5) =   2
                l(6) =   2
     Q(r) pseudized with  8 coefficients,  rinner =    1.300   1.300   1.300
                                                       1.300   1.300

     PseudoPot. # 3 for H  read from file:
     /home/mamunm/src/pseudo/gbrv1.5pbe/H.UPF
     MD5 check sum: 761ae9a214b05c3daf00ab9f6b793d6f
     Pseudo is Ultrasoft, Zval =  1.0
     Generated by new atomic code, or converted to UPF format
     Using radial grid of  615 points,  2 beta functions with: 
                l(1) =   0
                l(2) =   0
     Q(r) pseudized with  8 coefficients,  rinner =    0.700

     vdW kernel table read from file vdW_kernel_table
     MD5 check sum: 095c7af220d748ca6e76c0b4c6cfb241

     atomic species   valence    mass     pseudopotential
        Cu1           19.00    63.54600     Cu( 1.00)
        S1             6.00    32.06000     S ( 1.00)
        H1             1.00     1.00800     H ( 1.00)

     No symmetry found



   Cartesian axes

     site n.     atom                  positions (alat units)
         1           Cu1 tau(   1) = (   1.2962057   0.7483647  10.0000000  )
         2           Cu1 tau(   2) = (   3.8886170   0.7483647  10.0000000  )
         3           Cu1 tau(   3) = (   2.5924113   2.9934587  10.0000000  )
         4           Cu1 tau(   4) = (   5.1848226   2.9934587  10.0000000  )
         5           Cu1 tau(   5) = (   5.1848226   1.4967294  12.1166950  )
         6           Cu1 tau(   6) = (   2.5924113   1.4967294  12.1166950  )
         7           Cu1 tau(   7) = (   6.4810283   3.7418234  12.1166950  )
         8           Cu1 tau(   8) = (   3.8886170   3.7418234  12.1166950  )
         9           Cu1 tau(   9) = (   0.0000000   0.0000000  14.2333899  )
        10           Cu1 tau(  10) = (   2.5924113   0.0000000  14.2333899  )
        11           Cu1 tau(  11) = (   1.2962057   2.2450940  14.2333899  )
        12           Cu1 tau(  12) = (   3.8886170   2.2450940  14.2333899  )
        13           S1  tau(  13) = (   2.5924113   1.4967294  15.7738899  )
        14           H1  tau(  14) = (   2.5924113   1.4967294  17.0238899  )

     number of k points=    20  Fermi-Dirac smearing, width (Ry)=  0.0110
                       cart. coord. in units 2pi/alat
        k(    1) = (   0.0000000   0.0000000   0.0000000), wk =   0.0555556
        k(    2) = (   0.0000000   0.0371180   0.0000000), wk =   0.1111111
        k(    3) = (   0.0000000   0.0742359   0.0000000), wk =   0.1111111
        k(    4) = (   0.0000000  -0.1113539   0.0000000), wk =   0.0555556
        k(    5) = (   0.0321451  -0.0185590   0.0000000), wk =   0.1111111
        k(    6) = (   0.0321451   0.0185590   0.0000000), wk =   0.1111111
        k(    7) = (   0.0321451   0.0556770   0.0000000), wk =   0.1111111
        k(    8) = (   0.0321451  -0.1299129   0.0000000), wk =   0.1111111
        k(    9) = (   0.0321451  -0.0927949   0.0000000), wk =   0.1111111
        k(   10) = (   0.0321451  -0.0556770   0.0000000), wk =   0.1111111
        k(   11) = (   0.0642902  -0.0371180   0.0000000), wk =   0.1111111
        k(   12) = (   0.0642902  -0.0000000   0.0000000), wk =   0.1111111
        k(   13) = (   0.0642902   0.0371180   0.0000000), wk =   0.1111111
        k(   14) = (   0.0642902  -0.1484719   0.0000000), wk =   0.1111111
        k(   15) = (   0.0642902  -0.1113539   0.0000000), wk =   0.1111111
        k(   16) = (   0.0642902  -0.0742359   0.0000000), wk =   0.1111111
        k(   17) = (  -0.0964353   0.0556770   0.0000000), wk =   0.0555556
        k(   18) = (  -0.0964353   0.0927949   0.0000000), wk =   0.1111111
        k(   19) = (  -0.0964353   0.1299129   0.0000000), wk =   0.1111111
        k(   20) = (  -0.0964353  -0.0556770   0.0000000), wk =   0.0555556

     Dense  grid:   452661 G-vectors     FFT dimensions: (  60,  60, 288)

     Smooth grid:   114411 G-vectors     FFT dimensions: (  40,  40, 180)

     Largest allocated arrays     est. size (Mb)     dimensions
        Kohn-Sham Wavefunctions         1.78 Mb     (     920,  127)
        NL pseudopotentials             3.31 Mb     (     920,  236)
        Each V/rho on FFT grid          0.99 Mb     (   64800)
        Each G-vector array             0.22 Mb     (   28299)
        G-vector shells                 0.09 Mb     (   11246)
     Largest temporary arrays     est. size (Mb)     dimensions
        Auxiliary wavefunctions         7.13 Mb     (     920,  508)
        Each subspace H/S matrix        3.94 Mb     (     508,  508)
        Each <psi_i|beta_j> matrix      0.46 Mb     (     236,  127)
        Arrays for rho mixing           9.89 Mb     (   64800,   10)

     Initial potential from superposition of free atoms

     starting charge  222.99993, renormalised to  235.00000

     negative rho (up, down):  1.038E-04 0.000E+00


     ************************************************************************
     *
     * You are using vdW-DF for exchange-correlation in this calculation.
     * Please cite the following three references that made this development
     * possible:
     *
     *   M. Dion, H. Rydberg, E. Schroder, D. C. Langreth, and
     *   B. I. Lundqvist, Phys. Rev. Lett. 92, 246401 (2004).
     *
     *   T. Thonhauser, V. R. Cooper, S. Li, A. Puzder, P. Hyldgaard, and
     *   D. C. Langreth, Phys. Rev. B 76, 125112 (2007).
     *
     *   G. Roman-Perez and J. M. Soler, Phys. Rev. Lett. 103, 096102 (2009).
     *
     *
     * If you are using vdW-DF2, please also cite:
     *
     *   K. Lee, E. D. Murray, L. Kong, B. I. Lundqvist, and
     *   D. C. Langreth, Phys. Rev. B 82, 081101(R) (2010).
     *
     *
     * If you are calculating the stress with vdW-DF, please also cite:
     *
     *   R. Sabatini, E. Kucukbenli, B. Kolb, T. Thonhauser, and
     *   S. de Gironcoli, J. Phys.: Condens. Matter 24, 424209 (2012).
     *
     ************************************************************************

     Carrying out vdW-DF run using the following parameters:

     Nqs =      20    Nr_points =    1024   r_max =   100.000
     q_mesh =
               0.00001000     0.04494208     0.09755937     0.15916263
               0.23128650     0.31572767     0.41458969     0.53033537
               0.66584808     0.82450364     1.01025438     1.22772762
               1.48234092     1.78043706     2.12944203     2.53805004
               3.01644009     3.57652955     4.23227104     5.00000000

     Gradients computed in reciprocal space

     ************************************************************************


 
     Adding external electric field

     Computed dipole along edir(3) : 
        Dipole               -2.7301 Ry au,         -6.9391 Debye
        Dipole field         -0.0090 Ry au
 
        Potential amp.        0.8047 Ry
        Total length         44.6496 bohr
 
     Starting wfc are  161 randomized atomic wfcs

     total cpu time spent up to now is        7.6 secs

     Self-consistent Calculation

     iteration #  1     ecut=    36.75 Ry     beta=0.30
     Davidson diagonalization with overlap
     ethr =  1.00E-02,  avg # of iterations =  8.2

     negative rho (up, down):  4.234E-05 0.000E+00
 
     Adding external electric field

     Computed dipole along edir(3) : 
        Dipole               77.4198 Ry au,        196.7816 Debye
        Dipole field          0.2555 Ry au
 
        Potential amp.      -22.8192 Ry
        Total length         44.6496 bohr
 

     total cpu time spent up to now is       44.4 secs

     total energy              =   -4509.56416154 Ry
     Harris-Foulkes estimate   =   -4881.23187832 Ry
     estimated scf accuracy    <     781.92665697 Ry

     iteration #  2     ecut=    36.75 Ry     beta=0.30
     Davidson diagonalization with overlap
     ethr =  1.00E-02,  avg # of iterations = 23.8
 
     Adding external electric field

     Computed dipole along edir(3) : 
        Dipole               16.5669 Ry au,         42.1089 Debye
        Dipole field          0.0547 Ry au
 
        Potential amp.       -4.8830 Ry
        Total length         44.6496 bohr
 

     total cpu time spent up to now is      118.0 secs

     total energy              =   -4238.55330110 Ry
     Harris-Foulkes estimate   =   -6084.51934622 Ry
     estimated scf accuracy    <   33637.36684916 Ry

     iteration #  3     ecut=    36.75 Ry     beta=0.30
     Davidson diagonalization with overlap
     ethr =  1.00E-02,  avg # of iterations =  8.8
 
     Adding external electric field

     Computed dipole along edir(3) : 
        Dipole               18.5706 Ry au,         47.2017 Debye
        Dipole field          0.0613 Ry au
 
        Potential amp.       -5.4736 Ry
        Total length         44.6496 bohr
 

     total cpu time spent up to now is      154.6 secs

     total energy              =   -4850.54938891 Ry
     Harris-Foulkes estimate   =   -5144.48541318 Ry
     estimated scf accuracy    <    2450.95315838 Ry

     iteration #  4     ecut=    36.75 Ry     beta=0.30
     Davidson diagonalization with overlap
     ethr =  1.00E-02,  avg # of iterations =  9.7
 
     Adding external electric field

     Computed dipole along edir(3) : 
        Dipole               15.0941 Ry au,         38.3653 Debye
        Dipole field          0.0498 Ry au
 
        Potential amp.       -4.4489 Ry
        Total length         44.6496 bohr
 

     total cpu time spent up to now is      183.7 secs

     total energy              =   -4896.03806164 Ry
     Harris-Foulkes estimate   =   -4915.69978315 Ry
     estimated scf accuracy    <      80.75304476 Ry

     iteration #  5     ecut=    36.75 Ry     beta=0.30
     Davidson diagonalization with overlap
     ethr =  1.00E-02,  avg # of iterations =  3.0
 
     Adding external electric field

     Computed dipole along edir(3) : 
        Dipole               12.7590 Ry au,         32.4301 Debye
        Dipole field          0.0421 Ry au
 
        Potential amp.       -3.7607 Ry
        Total length         44.6496 bohr
 

     total cpu time spent up to now is      196.3 secs

     total energy              =   -4891.86650970 Ry
     Harris-Foulkes estimate   =   -4900.43464852 Ry
     estimated scf accuracy    <     116.36680876 Ry

     iteration #  6     ecut=    36.75 Ry     beta=0.30
     Davidson diagonalization with overlap
     ethr =  1.00E-02,  avg # of iterations =  1.1
 
     Adding external electric field

     Computed dipole along edir(3) : 
        Dipole               10.6581 Ry au,         27.0903 Debye
        Dipole field          0.0352 Ry au
 
        Potential amp.       -3.1414 Ry
        Total length         44.6496 bohr
 

     total cpu time spent up to now is      206.0 secs

     total energy              =   -4890.15382202 Ry
     Harris-Foulkes estimate   =   -4893.68130926 Ry
     estimated scf accuracy    <      29.13616796 Ry

     iteration #  7     ecut=    36.75 Ry     beta=0.30
     Davidson diagonalization with overlap
     ethr =  1.00E-02,  avg # of iterations =  1.0
 
     Adding external electric field

     Computed dipole along edir(3) : 
        Dipole                8.4186 Ry au,         21.3979 Debye
        Dipole field          0.0278 Ry au
 
        Potential amp.       -2.4813 Ry
        Total length         44.6496 bohr
 

     total cpu time spent up to now is      215.4 secs

     total energy              =   -4888.12986317 Ry
     Harris-Foulkes estimate   =   -4890.58573525 Ry
     estimated scf accuracy    <      26.61054630 Ry

     iteration #  8     ecut=    36.75 Ry     beta=0.30
     Davidson diagonalization with overlap
     ethr =  1.00E-02,  avg # of iterations =  1.0
 
     Adding external electric field

     Computed dipole along edir(3) : 
        Dipole                5.0834 Ry au,         12.9207 Debye
        Dipole field          0.0168 Ry au
 
        Potential amp.       -1.4983 Ry
        Total length         44.6496 bohr
 

     total cpu time spent up to now is      224.9 secs

     total energy              =   -4885.41491278 Ry
     Harris-Foulkes estimate   =   -4888.50021144 Ry
     estimated scf accuracy    <      18.24966416 Ry

     iteration #  9     ecut=    36.75 Ry     beta=0.30
     Davidson diagonalization with overlap
     ethr =  7.77E-03,  avg # of iterations =  2.9
 
     Adding external electric field

     Computed dipole along edir(3) : 
        Dipole                5.0194 Ry au,         12.7579 Debye
        Dipole field          0.0166 Ry au
 
        Potential amp.       -1.4794 Ry
        Total length         44.6496 bohr
 

     total cpu time spent up to now is      236.2 secs

     total energy              =   -4885.85170533 Ry
     Harris-Foulkes estimate   =   -4885.90876843 Ry
     estimated scf accuracy    <       4.60037258 Ry

     iteration # 10     ecut=    36.75 Ry     beta=0.30
     Davidson diagonalization with overlap
     ethr =  1.96E-03,  avg # of iterations =  3.1
 
     Adding external electric field

     Computed dipole along edir(3) : 
        Dipole                5.5543 Ry au,         14.1177 Debye
        Dipole field          0.0183 Ry au
 
        Potential amp.       -1.6371 Ry
        Total length         44.6496 bohr
 

     total cpu time spent up to now is      247.7 secs

     total energy              =   -4886.18968412 Ry
     Harris-Foulkes estimate   =   -4885.89728313 Ry
     estimated scf accuracy    <       4.15967705 Ry

     iteration # 11     ecut=    36.75 Ry     beta=0.30
     Davidson diagonalization with overlap
     ethr =  1.77E-03,  avg # of iterations =  1.0
 
     Adding external electric field

     Computed dipole along edir(3) : 
        Dipole                5.0415 Ry au,         12.8142 Debye
        Dipole field          0.0166 Ry au
 
        Potential amp.       -1.4860 Ry
        Total length         44.6496 bohr
 

     total cpu time spent up to now is      257.1 secs

     total energy              =   -4885.97901393 Ry
     Harris-Foulkes estimate   =   -4886.24082726 Ry
     estimated scf accuracy    <       5.60694243 Ry

     iteration # 12     ecut=    36.75 Ry     beta=0.30
     Davidson diagonalization with overlap
     ethr =  1.77E-03,  avg # of iterations =  1.0

     negative rho (up, down):  1.109E-07 0.000E+00
 
     Adding external electric field

     Computed dipole along edir(3) : 
        Dipole               -1.2954 Ry au,         -3.2925 Debye
        Dipole field         -0.0043 Ry au
 
        Potential amp.        0.3818 Ry
        Total length         44.6496 bohr
 

     total cpu time spent up to now is      266.6 secs

     total energy              =   -4884.19521149 Ry
     Harris-Foulkes estimate   =   -4886.06549220 Ry
     estimated scf accuracy    <       4.65305197 Ry

     iteration # 13     ecut=    36.75 Ry     beta=0.30
     Davidson diagonalization with overlap
     ethr =  1.77E-03,  avg # of iterations =  8.3
 
     Adding external electric field

     Computed dipole along edir(3) : 
        Dipole                1.0421 Ry au,          2.6489 Debye
        Dipole field          0.0034 Ry au
 
        Potential amp.       -0.3072 Ry
        Total length         44.6496 bohr
 

     total cpu time spent up to now is      291.7 secs

     total energy              =   -4883.44722989 Ry
     Harris-Foulkes estimate   =   -4885.87555204 Ry
     estimated scf accuracy    <      26.15262552 Ry

     iteration # 14     ecut=    36.75 Ry     beta=0.30
     Davidson diagonalization with overlap
     ethr =  1.77E-03,  avg # of iterations =  8.2
 
     Adding external electric field

     Computed dipole along edir(3) : 
        Dipole                0.6594 Ry au,          1.6761 Debye
        Dipole field          0.0022 Ry au
 
        Potential amp.       -0.1944 Ry
        Total length         44.6496 bohr
 

     total cpu time spent up to now is      309.3 secs

     total energy              =   -4884.99710773 Ry
     Harris-Foulkes estimate   =   -4884.96560470 Ry
     estimated scf accuracy    <       0.94094351 Ry

     iteration # 15     ecut=    36.75 Ry     beta=0.30
     Davidson diagonalization with overlap
     ethr =  4.00E-04,  avg # of iterations =  3.1
 
     Adding external electric field

     Computed dipole along edir(3) : 
        Dipole                1.7576 Ry au,          4.4673 Debye
        Dipole field          0.0058 Ry au
 
        Potential amp.       -0.5180 Ry
        Total length         44.6496 bohr
 

     total cpu time spent up to now is      320.9 secs

     total energy              =   -4884.79656763 Ry
     Harris-Foulkes estimate   =   -4885.00072702 Ry
     estimated scf accuracy    <       1.22416917 Ry

     iteration # 16     ecut=    36.75 Ry     beta=0.30
     Davidson diagonalization with overlap
     ethr =  4.00E-04,  avg # of iterations =  3.7
 
     Adding external electric field

     Computed dipole along edir(3) : 
        Dipole                1.4829 Ry au,          3.7691 Debye
        Dipole field          0.0049 Ry au
 
        Potential amp.       -0.4371 Ry
        Total length         44.6496 bohr
 

     total cpu time spent up to now is      333.5 secs

     total energy              =   -4884.89254306 Ry
     Harris-Foulkes estimate   =   -4884.92159443 Ry
     estimated scf accuracy    <       0.22645677 Ry

     iteration # 17     ecut=    36.75 Ry     beta=0.30
     Davidson diagonalization with overlap
     ethr =  9.64E-05,  avg # of iterations =  3.6
 
     Adding external electric field

     Computed dipole along edir(3) : 
        Dipole                1.8249 Ry au,          4.6383 Debye
        Dipole field          0.0060 Ry au
 
        Potential amp.       -0.5379 Ry
        Total length         44.6496 bohr
 

     total cpu time spent up to now is      345.8 secs

     total energy              =   -4884.93480293 Ry
     Harris-Foulkes estimate   =   -4884.90849410 Ry
     estimated scf accuracy    <       0.26630661 Ry

     iteration # 18     ecut=    36.75 Ry     beta=0.30
     Davidson diagonalization with overlap
     ethr =  9.64E-05,  avg # of iterations =  1.1
 
     Adding external electric field

     Computed dipole along edir(3) : 
        Dipole                2.7504 Ry au,          6.9909 Debye
        Dipole field          0.0091 Ry au
 
        Potential amp.       -0.8107 Ry
        Total length         44.6496 bohr
 

     total cpu time spent up to now is      355.4 secs

     total energy              =   -4884.97682113 Ry
     Harris-Foulkes estimate   =   -4884.92388360 Ry
     estimated scf accuracy    <       0.32159972 Ry

     iteration # 19     ecut=    36.75 Ry     beta=0.30
     Davidson diagonalization with overlap
     ethr =  9.64E-05,  avg # of iterations =  3.2
 
     Adding external electric field

     Computed dipole along edir(3) : 
        Dipole                2.8072 Ry au,          7.1351 Debye
        Dipole field          0.0093 Ry au
 
        Potential amp.       -0.8274 Ry
        Total length         44.6496 bohr
 

     total cpu time spent up to now is      367.3 secs

     total energy              =   -4884.97562954 Ry
     Harris-Foulkes estimate   =   -4884.98456803 Ry
     estimated scf accuracy    <       0.27533739 Ry

     iteration # 20     ecut=    36.75 Ry     beta=0.30
     Davidson diagonalization with overlap
     ethr =  9.64E-05,  avg # of iterations =  1.0

     negative rho (up, down):  2.060E-07 0.000E+00
 
     Adding external electric field

     Computed dipole along edir(3) : 
        Dipole                2.9364 Ry au,          7.4636 Debye
        Dipole field          0.0097 Ry au
 
        Potential amp.       -0.8655 Ry
        Total length         44.6496 bohr
 

     total cpu time spent up to now is      376.7 secs

     total energy              =   -4884.96133983 Ry
     Harris-Foulkes estimate   =   -4884.97507619 Ry
     estimated scf accuracy    <       0.21259659 Ry

     iteration # 21     ecut=    36.75 Ry     beta=0.30
     Davidson diagonalization with overlap
     ethr =  9.05E-05,  avg # of iterations =  2.1

     negative rho (up, down):  6.392E-05 0.000E+00
 
     Adding external electric field

     Computed dipole along edir(3) : 
        Dipole                3.0755 Ry au,          7.8171 Debye
        Dipole field          0.0102 Ry au
 
        Potential amp.       -0.9065 Ry
        Total length         44.6496 bohr
 

     total cpu time spent up to now is      387.4 secs

     total energy              =   -4884.97546621 Ry
     Harris-Foulkes estimate   =   -4884.96711800 Ry
     estimated scf accuracy    <       0.17044560 Ry

     iteration # 22     ecut=    36.75 Ry     beta=0.30
     Davidson diagonalization with overlap
     ethr =  7.25E-05,  avg # of iterations =  1.3

     negative rho (up, down):  1.591E-03 0.000E+00
 
     Adding external electric field

     Computed dipole along edir(3) : 
        Dipole                3.5266 Ry au,          8.9638 Debye
        Dipole field          0.0116 Ry au
 
        Potential amp.       -1.0395 Ry
        Total length         44.6496 bohr
 

     total cpu time spent up to now is      397.2 secs

     total energy              =   -4885.01726530 Ry
     Harris-Foulkes estimate   =   -4884.96756447 Ry
     estimated scf accuracy    <       0.20010780 Ry

     iteration # 23     ecut=    36.75 Ry     beta=0.30
     Davidson diagonalization with overlap
     ethr =  7.25E-05,  avg # of iterations =  2.2

     negative rho (up, down):  9.809E-05 0.000E+00
 
     Adding external electric field

     Computed dipole along edir(3) : 
        Dipole                3.4471 Ry au,          8.7617 Debye
        Dipole field          0.0114 Ry au
 
        Potential amp.       -1.0160 Ry
        Total length         44.6496 bohr
 

     total cpu time spent up to now is      407.9 secs

     total energy              =   -4885.02481594 Ry
     Harris-Foulkes estimate   =   -4885.02641919 Ry
     estimated scf accuracy    <       0.38709225 Ry

     iteration # 24     ecut=    36.75 Ry     beta=0.30
     Davidson diagonalization with overlap
     ethr =  7.25E-05,  avg # of iterations =  1.0

     negative rho (up, down):  4.313E-08 0.000E+00
 
     Adding external electric field

     Computed dipole along edir(3) : 
        Dipole                1.2365 Ry au,          3.1430 Debye
        Dipole field          0.0041 Ry au
 
        Potential amp.       -0.3645 Ry
        Total length         44.6496 bohr
 

     total cpu time spent up to now is      417.5 secs

     total energy              =   -4884.85634354 Ry
     Harris-Foulkes estimate   =   -4885.05962913 Ry
     estimated scf accuracy    <       0.41560131 Ry

     iteration # 25     ecut=    36.75 Ry     beta=0.30
     Davidson diagonalization with overlap
     ethr =  7.25E-05,  avg # of iterations =  3.7

     negative rho (up, down):  7.936E-03 0.000E+00
 
     Adding external electric field

     Computed dipole along edir(3) : 
        Dipole                0.7852 Ry au,          1.9959 Debye
        Dipole field          0.0026 Ry au
 
        Potential amp.       -0.2314 Ry
        Total length         44.6496 bohr
 

     total cpu time spent up to now is      430.3 secs

     total energy              =   -4884.84904433 Ry
     Harris-Foulkes estimate   =   -4884.87921311 Ry
     estimated scf accuracy    <       0.11479445 Ry

     iteration # 26     ecut=    36.75 Ry     beta=0.30
     Davidson diagonalization with overlap
     ethr =  4.88E-05,  avg # of iterations =  3.5

     negative rho (up, down):  2.051E-02 0.000E+00
 
     Adding external electric field

     Computed dipole along edir(3) : 
        Dipole                0.4523 Ry au,          1.1495 Debye
        Dipole field          0.0015 Ry au
 
        Potential amp.       -0.1333 Ry
        Total length         44.6496 bohr
 

     total cpu time spent up to now is      442.4 secs

     total energy              =   -4884.84572105 Ry
     Harris-Foulkes estimate   =   -4884.85606664 Ry
     estimated scf accuracy    <       0.03431507 Ry

     iteration # 27     ecut=    36.75 Ry     beta=0.30
     Davidson diagonalization with overlap
     ethr =  1.46E-05,  avg # of iterations =  8.0

     negative rho (up, down):  1.474E-02 0.000E+00
 
     Adding external electric field

     Computed dipole along edir(3) : 
        Dipole                0.4331 Ry au,          1.1008 Debye
        Dipole field          0.0014 Ry au
 
        Potential amp.       -0.1276 Ry
        Total length         44.6496 bohr
 

     total cpu time spent up to now is      460.0 secs

     total energy              =   -4884.84765346 Ry
     Harris-Foulkes estimate   =   -4884.84906876 Ry
     estimated scf accuracy    <       0.00484565 Ry

     iteration # 28     ecut=    36.75 Ry     beta=0.30
     Davidson diagonalization with overlap
     ethr =  2.06E-06,  avg # of iterations =  8.2

     negative rho (up, down):  1.123E-02 0.000E+00
 
     Adding external electric field

     Computed dipole along edir(3) : 
        Dipole                0.3891 Ry au,          0.9891 Debye
        Dipole field          0.0013 Ry au
 
        Potential amp.       -0.1147 Ry
        Total length         44.6496 bohr
 

     total cpu time spent up to now is      477.6 secs

     total energy              =   -4884.84734892 Ry
     Harris-Foulkes estimate   =   -4884.84841853 Ry
     estimated scf accuracy    <       0.00373198 Ry

     iteration # 29     ecut=    36.75 Ry     beta=0.30
     Davidson diagonalization with overlap
     ethr =  1.59E-06,  avg # of iterations =  6.7

     negative rho (up, down):  7.227E-03 0.000E+00
 
     Adding external electric field

     Computed dipole along edir(3) : 
        Dipole                0.3646 Ry au,          0.9267 Debye
        Dipole field          0.0012 Ry au
 
        Potential amp.       -0.1075 Ry
        Total length         44.6496 bohr
 

     total cpu time spent up to now is      493.4 secs

     total energy              =   -4884.84751027 Ry
     Harris-Foulkes estimate   =   -4884.84804037 Ry
     estimated scf accuracy    <       0.00426194 Ry

     iteration # 30     ecut=    36.75 Ry     beta=0.30
     Davidson diagonalization with overlap
     ethr =  1.59E-06,  avg # of iterations =  6.3

     negative rho (up, down):  2.531E-03 0.000E+00
 
     Adding external electric field

     Computed dipole along edir(3) : 
        Dipole                0.3123 Ry au,          0.7938 Debye
        Dipole field          0.0010 Ry au
 
        Potential amp.       -0.0921 Ry
        Total length         44.6496 bohr
 

     total cpu time spent up to now is      508.3 secs

     total energy              =   -4884.84765738 Ry
     Harris-Foulkes estimate   =   -4884.84787731 Ry
     estimated scf accuracy    <       0.00044033 Ry

     iteration # 31     ecut=    36.75 Ry     beta=0.30
     Davidson diagonalization with overlap
     ethr =  1.87E-07,  avg # of iterations =  7.2

     negative rho (up, down):  2.029E-03 0.000E+00
 
     Adding external electric field

     Computed dipole along edir(3) : 
        Dipole                0.3138 Ry au,          0.7977 Debye
        Dipole field          0.0010 Ry au
 
        Potential amp.       -0.0925 Ry
        Total length         44.6496 bohr
 

     total cpu time spent up to now is      524.6 secs

     total energy              =   -4884.84768792 Ry
     Harris-Foulkes estimate   =   -4884.84770279 Ry
     estimated scf accuracy    <       0.00008838 Ry

     iteration # 32     ecut=    36.75 Ry     beta=0.30
     Davidson diagonalization with overlap
     ethr =  3.76E-08,  avg # of iterations =  2.8

     negative rho (up, down):  1.443E-03 0.000E+00
 
     Adding external electric field

     Computed dipole along edir(3) : 
        Dipole                0.3080 Ry au,          0.7828 Debye
        Dipole field          0.0010 Ry au
 
        Potential amp.       -0.0908 Ry
        Total length         44.6496 bohr
 

     total cpu time spent up to now is      536.8 secs

     total energy              =   -4884.84769745 Ry
     Harris-Foulkes estimate   =   -4884.84771298 Ry
     estimated scf accuracy    <       0.00002435 Ry

     iteration # 33     ecut=    36.75 Ry     beta=0.30
     Davidson diagonalization with overlap
     ethr =  1.04E-08,  avg # of iterations =  3.8

     negative rho (up, down):  9.417E-04 0.000E+00

     negative rho (up, down):  9.417E-04 0.000E+00

     negative rho (up, down):  9.417E-04 0.000E+00

     negative rho (up, down):  9.417E-04 0.000E+00

     negative rho (up, down):  9.417E-04 0.000E+00

     negative rho (up, down):  9.417E-04 0.000E+00

     negative rho (up, down):  9.417E-04 0.000E+00

     negative rho (up, down):  9.417E-04 0.000E+00

     negative rho (up, down):  9.417E-04 0.000E+00

     negative rho (up, down):  9.417E-04 0.000E+00

     negative rho (up, down):  9.417E-04 0.000E+00

     negative rho (up, down):  9.417E-04 0.000E+00

     negative rho (up, down):  9.417E-04 0.000E+00

     negative rho (up, down):  9.417E-04 0.000E+00

     negative rho (up, down):  9.417E-04 0.000E+00

     negative rho (up, down):  9.417E-04 0.000E+00

     negative rho (up, down):  9.417E-04 0.000E+00

     negative rho (up, down):  9.417E-04 0.000E+00

     negative rho (up, down):  9.417E-04 0.000E+00

     negative rho (up, down):  9.417E-04 0.000E+00

     negative rho (up, down):  9.417E-04 0.000E+00

     negative rho (up, down):  9.417E-04 0.000E+00

     negative rho (up, down):  9.417E-04 0.000E+00

     negative rho (up, down):  9.417E-04 0.000E+00

     negative rho (up, down):  9.417E-04 0.000E+00

     negative rho (up, down):  9.417E-04 0.000E+00

     negative rho (up, down):  9.417E-04 0.000E+00

     negative rho (up, down):  9.417E-04 0.000E+00

     negative rho (up, down):  9.417E-04 0.000E+00

     negative rho (up, down):  9.417E-04 0.000E+00

     negative rho (up, down):  9.417E-04 0.000E+00

     negative rho (up, down):  9.417E-04 0.000E+00

     negative rho (up, down):  9.417E-04 0.000E+00

     negative rho (up, down):  9.417E-04 0.000E+00

     negative rho (up, down):  9.417E-04 0.000E+00
 
     Adding external electric field

     Computed dipole along edir(3) : 
        Dipole                0.3078 Ry au,          0.7823 Debye
        Dipole field          0.0010 Ry au
 
        Potential amp.       -0.0907 Ry
        Total length         44.6496 bohr
 

     total cpu time spent up to now is      561.8 secs

     End of self-consistent calculation

          k = 0.0000 0.0000 0.0000 ( 14321 PWs)   bands (ev):

  -111.6537-111.6481-111.6477-111.3798-111.3748-111.3725-111.3066-111.1118
  -111.1055-111.1036-111.1021-111.0716 -69.1627 -69.1214 -69.1210 -69.0325
   -69.0321 -69.0081 -69.0043 -68.9822 -68.9818 -68.8035 -68.7962 -68.7949
   -68.7786 -68.7726 -68.7705 -68.7582 -68.7434 -68.7418 -68.7055 -68.6925
   -68.6923 -68.5622 -68.5616 -68.5578 -68.5102 -68.5098 -68.5094 -68.5004
   -68.5004 -68.4919 -68.4917 -68.4672 -68.4610 -68.4603 -68.4588 -68.4346
   -14.0321  -7.8998  -6.7140  -4.7914  -4.1852  -4.1852  -3.7119  -3.4079
    -3.2826  -3.2822  -3.1310  -3.0435  -3.0431  -2.9773  -2.8211  -2.8210
    -2.7275  -2.7274  -2.7029  -2.1915  -2.1914  -2.1408  -1.9818  -1.8902
    -1.8901  -1.7770  -1.7480  -1.7479  -1.6716  -1.6715  -1.6536  -1.5997
    -1.5534  -1.5532  -1.4271  -1.4270  -1.2937  -1.2587  -1.2583  -1.1130
    -1.0801  -1.0796  -0.9088  -0.9086  -0.8446  -0.8162  -0.8161  -0.7428
    -0.7426  -0.6990  -0.5549  -0.5534  -0.5530  -0.4791  -0.4789  -0.4741
    -0.4624  -0.4623  -0.3948  -0.3621  -0.3614  -0.1698  -0.1693  -0.1670
    -0.1447  -0.1446   0.1528   1.0585   1.2864   1.2865   1.8022   2.3469
     2.3471   2.6600   2.7525   2.7525   3.1210   4.4753   5.0016

          k = 0.0000 0.0371 0.0000 ( 14383 PWs)   bands (ev):

  -111.6533-111.6485-111.6477-111.3795-111.3748-111.3728-111.3066-111.1113
  -111.1057-111.1036-111.1024-111.0716 -69.1600 -69.1234 -69.1206 -69.0318
   -69.0311 -69.0095 -69.0033 -68.9839 -68.9821 -68.8007 -68.7934 -68.7922
   -68.7783 -68.7726 -68.7708 -68.7596 -68.7453 -68.7440 -68.7054 -68.6948
   -68.6929 -68.5592 -68.5585 -68.5544 -68.5126 -68.5123 -68.5085 -68.5008
   -68.5005 -68.4963 -68.4931 -68.4668 -68.4613 -68.4603 -68.4590 -68.4346
   -14.0241  -7.8206  -6.5560  -4.7286  -4.1787  -4.1569  -3.5813  -3.4618
    -3.2783  -3.2230  -3.0844  -3.0317  -2.9897  -2.9189  -2.8117  -2.8041
    -2.6730  -2.6282  -2.6272  -2.1803  -2.1785  -2.1476  -2.0061  -1.9264
    -1.8555  -1.7978  -1.7583  -1.7539  -1.7261  -1.6550  -1.6140  -1.6018
    -1.5949  -1.5338  -1.4813  -1.4009  -1.3762  -1.3506  -1.3072  -1.1937
    -1.1836  -1.0944  -1.0227  -0.9587  -0.9529  -0.8624  -0.8421  -0.8086
    -0.7505  -0.7442  -0.7154  -0.6279  -0.6251  -0.5925  -0.5628  -0.5417
    -0.5198  -0.4793  -0.4630  -0.4542  -0.4274  -0.3676  -0.3581  -0.2978
    -0.2520  -0.1435   0.1589   0.5908   1.2035   1.2060   1.4408   1.9379
     2.3696   2.9056   3.4837   3.5174   3.6341   4.7048   5.1619

          k = 0.0000 0.0742 0.0000 ( 14316 PWs)   bands (ev):

  -111.6524-111.6494-111.6477-111.3789-111.3748-111.3734-111.3067-111.1101
  -111.1065-111.1036-111.1028-111.0716 -69.1531 -69.1288 -69.1198 -69.0311
   -69.0276 -69.0130 -69.0003 -68.9882 -68.9825 -68.7957 -68.7852 -68.7843
   -68.7774 -68.7725 -68.7716 -68.7648 -68.7547 -68.7447 -68.7054 -68.6997
   -68.6942 -68.5533 -68.5511 -68.5433 -68.5188 -68.5185 -68.5085 -68.5054
   -68.5016 -68.5008 -68.4962 -68.4655 -68.4623 -68.4604 -68.4592 -68.4346
   -14.0080  -7.6618  -6.0756  -4.7235  -4.1591  -4.0951  -3.7606  -3.2560
    -3.1967  -3.0984  -3.0051  -2.9045  -2.8741  -2.8017  -2.6942  -2.6896
    -2.5347  -2.4632  -2.4068  -2.1776  -2.1725  -2.1533  -2.0952  -2.0470
    -1.8966  -1.8868  -1.8580  -1.7953  -1.7770  -1.6997  -1.6576  -1.6532
    -1.6018  -1.5533  -1.5172  -1.5034  -1.4711  -1.4242  -1.3890  -1.3540
    -1.2705  -1.2432  -1.1805  -1.1769  -1.1207  -1.0979  -1.0701  -1.0112
    -0.9666  -0.9606  -0.9106  -0.8499  -0.7886  -0.7549  -0.7355  -0.7124
    -0.6919  -0.6359  -0.6033  -0.5213  -0.4900  -0.4639  -0.4369  -0.3923
    -0.3459  -0.2885  -0.1883   0.5012   1.0474   1.1803   1.4905   2.1876
     2.5178   3.0786   3.5599   4.2961   4.7322   5.0155   5.4831

          k = 0.0000-0.1114 0.0000 ( 14294 PWs)   bands (ev):

  -111.6515-111.6503-111.6477-111.3785-111.3748-111.3738-111.3067-111.1091
  -111.1074-111.1036-111.1029-111.0716 -69.1480 -69.1333 -69.1195 -69.0308
   -69.0249 -69.0159 -68.9974 -68.9918 -68.9827 -68.7934 -68.7785 -68.7771
   -68.7741 -68.7726 -68.7721 -68.7706 -68.7646 -68.7449 -68.7054 -68.7022
   -68.6948 -68.5494 -68.5465 -68.5287 -68.5264 -68.5224 -68.5203 -68.5021
   -68.5020 -68.5009 -68.4995 -68.4639 -68.4637 -68.4604 -68.4592 -68.4346
   -13.9999  -7.5829  -5.4652  -5.1242  -4.3707  -4.0616  -3.5395  -3.3234
    -3.0493  -3.0082  -2.8649  -2.8441  -2.7845  -2.7259  -2.5404  -2.5002
    -2.4914  -2.3910  -2.3664  -2.2985  -2.1582  -2.1346  -2.0985  -2.0676
    -2.0206  -2.0067  -1.9188  -1.8766  -1.8620  -1.8098  -1.7139  -1.6985
    -1.6291  -1.5981  -1.5139  -1.4961  -1.4650  -1.4426  -1.4424  -1.4363
    -1.3956  -1.3819  -1.3497  -1.3033  -1.2422  -1.1671  -1.1319  -1.1279
    -1.0703  -1.0130  -0.9840  -0.9276  -0.8734  -0.8445  -0.8251  -0.8210
    -0.7460  -0.7185  -0.6971  -0.6092  -0.5056  -0.4725  -0.4548  -0.3786
    -0.3438  -0.2065  -0.0430   0.1110   1.1155   1.1929   1.8631   2.1777
     2.5719   2.7429   4.1417   4.7947   4.8293   5.1335   5.1823

          k = 0.0321-0.0186 0.0000 ( 14383 PWs)   bands (ev):

  -111.6533-111.6482-111.6479-111.3795-111.3750-111.3726-111.3066-111.1114
  -111.1057-111.1038-111.1023-111.0716 -69.1600 -69.1230 -69.1209 -69.0321
   -69.0308 -69.0095 -69.0033 -68.9836 -68.9824 -68.8004 -68.7937 -68.7923
   -68.7782 -68.7729 -68.7706 -68.7596 -68.7465 -68.7427 -68.7054 -68.6947
   -68.6931 -68.5596 -68.5582 -68.5544 -68.5126 -68.5121 -68.5087 -68.5008
   -68.5005 -68.4964 -68.4930 -68.4668 -68.4613 -68.4604 -68.4589 -68.4346
   -14.0241  -7.8206  -6.5560  -4.7286  -4.1787  -4.1569  -3.5813  -3.4619
    -3.2781  -3.2232  -3.0843  -3.0315  -2.9900  -2.9188  -2.8117  -2.8041
    -2.6730  -2.6282  -2.6272  -2.1803  -2.1786  -2.1476  -2.0061  -1.9263
    -1.8556  -1.7976  -1.7585  -1.7538  -1.7263  -1.6552  -1.6142  -1.6017
    -1.5949  -1.5336  -1.4813  -1.4007  -1.3762  -1.3506  -1.3075  -1.1937
    -1.1836  -1.0943  -1.0228  -0.9587  -0.9530  -0.8623  -0.8421  -0.8085
    -0.7504  -0.7440  -0.7155  -0.6279  -0.6252  -0.5923  -0.5629  -0.5416
    -0.5201  -0.4792  -0.4630  -0.4546  -0.4272  -0.3674  -0.3580  -0.2982
    -0.2520  -0.1433   0.1589   0.5907   1.2037   1.2060   1.4407   1.9379
     2.3697   2.9056   3.4836   3.5174   3.6341   4.7048   5.1619

          k = 0.0321 0.0186 0.0000 ( 14383 PWs)   bands (ev):

  -111.6533-111.6483-111.6479-111.3794-111.3750-111.3726-111.3066-111.1114
  -111.1055-111.1040-111.1022-111.0716 -69.1600 -69.1231 -69.1209 -69.0321
   -69.0308 -69.0095 -69.0033 -68.9837 -68.9823 -68.8004 -68.7937 -68.7923
   -68.7782 -68.7729 -68.7706 -68.7596 -68.7466 -68.7426 -68.7054 -68.6947
   -68.6931 -68.5598 -68.5579 -68.5545 -68.5127 -68.5119 -68.5088 -68.5008
   -68.5005 -68.4965 -68.4929 -68.4668 -68.4610 -68.4607 -68.4589 -68.4346
   -14.0241  -7.8206  -6.5560  -4.7286  -4.1787  -4.1569  -3.5813  -3.4619
    -3.2781  -3.2232  -3.0843  -3.0315  -2.9901  -2.9188  -2.8117  -2.8040
    -2.6730  -2.6281  -2.6273  -2.1802  -2.1786  -2.1476  -2.0061  -1.9263
    -1.8556  -1.7976  -1.7585  -1.7538  -1.7263  -1.6551  -1.6142  -1.6016
    -1.5949  -1.5336  -1.4813  -1.4007  -1.3762  -1.3506  -1.3076  -1.1936
    -1.1835  -1.0942  -1.0228  -0.9588  -0.9530  -0.8622  -0.8422  -0.8084
    -0.7504  -0.7440  -0.7156  -0.6279  -0.6252  -0.5922  -0.5630  -0.5415
    -0.5201  -0.4791  -0.4630  -0.4546  -0.4271  -0.3672  -0.3581  -0.2984
    -0.2520  -0.1433   0.1589   0.5907   1.2038   1.2059   1.4407   1.9378
     2.3697   2.9056   3.4836   3.5174   3.6341   4.7048   5.1619

          k = 0.0321 0.0557 0.0000 ( 14335 PWs)   bands (ev):

  -111.6527-111.6490-111.6478-111.3789-111.3751-111.3730-111.3066-111.1105
  -111.1060-111.1042-111.1024-111.0716 -69.1551 -69.1272 -69.1201 -69.0314
   -69.0285 -69.0120 -69.0012 -68.9867 -68.9826 -68.7959 -68.7894 -68.7862
   -68.7775 -68.7730 -68.7710 -68.7632 -68.7514 -68.7447 -68.7054 -68.6979
   -68.6944 -68.5557 -68.5511 -68.5482 -68.5205 -68.5103 -68.5096 -68.5045
   -68.5013 -68.5008 -68.4954 -68.4659 -68.4616 -68.4609 -68.4590 -68.4346
   -14.0120  -7.7023  -6.2340  -4.6612  -4.2028  -4.0398  -3.6164  -3.4811
    -3.2906  -3.1035  -3.0334  -2.9300  -2.8782  -2.8173  -2.7603  -2.7129
    -2.5629  -2.5108  -2.4759  -2.1774  -2.1678  -2.1414  -2.0747  -2.0150
    -1.8700  -1.8473  -1.8281  -1.8001  -1.7429  -1.6662  -1.6378  -1.6092
    -1.5956  -1.5748  -1.5313  -1.4992  -1.4693  -1.3982  -1.3715  -1.3011
    -1.2357  -1.2282  -1.1259  -1.1198  -1.0405  -1.0322  -1.0021  -0.9767
    -0.9441  -0.8987  -0.8583  -0.7737  -0.7271  -0.7094  -0.6875  -0.6599
    -0.6194  -0.5590  -0.5317  -0.5148  -0.4807  -0.4530  -0.4018  -0.3711
    -0.3373  -0.2888   0.0593   0.0716   0.9427   1.1278   1.4702   2.4271
     2.8431   3.3373   3.5797   3.8014   3.8981   4.9663   5.4872

          k = 0.0321-0.1299 0.0000 ( 14299 PWs)   bands (ev):

  -111.6516-111.6501-111.6478-111.3784-111.3753-111.3734-111.3067-111.1093
  -111.1069-111.1044-111.1025-111.0716 -69.1478 -69.1336 -69.1193 -69.0309
   -69.0246 -69.0160 -68.9977 -68.9910 -68.9832 -68.7912 -68.7820 -68.7770
   -68.7754 -68.7733 -68.7716 -68.7712 -68.7598 -68.7465 -68.7054 -68.7009
   -68.6959 -68.5491 -68.5435 -68.5361 -68.5294 -68.5195 -68.5127 -68.5054
   -68.5018 -68.5011 -68.4996 -68.4645 -68.4628 -68.4610 -68.4590 -68.4346
   -13.9999  -7.5866  -5.6079  -4.7874  -4.3363  -4.1315  -3.6746  -3.4815
    -3.1250  -2.9416  -2.9025  -2.7665  -2.7383  -2.6813  -2.5896  -2.5467
    -2.4352  -2.3916  -2.3311  -2.2348  -2.2012  -2.1529  -2.1448  -2.0977
    -2.0241  -1.9999  -1.9452  -1.9010  -1.8680  -1.7976  -1.7404  -1.6811
    -1.6363  -1.5991  -1.5917  -1.5418  -1.5052  -1.4772  -1.4452  -1.3954
    -1.3622  -1.3449  -1.3147  -1.2812  -1.2454  -1.1466  -1.1162  -1.1083
    -1.0478  -0.9655  -0.9242  -0.8919  -0.8513  -0.8207  -0.7819  -0.7479
    -0.6919  -0.6588  -0.6066  -0.5342  -0.5197  -0.4901  -0.4618  -0.4461
    -0.4115  -0.3485  -0.0817   0.1465   0.3838   1.1299   1.9471   2.5937
     2.9114   3.5381   3.9472   4.4239   4.9365   5.1358   5.3549

          k = 0.0321-0.0928 0.0000 ( 14299 PWs)   bands (ev):

  -111.6516-111.6501-111.6478-111.3784-111.3752-111.3734-111.3067-111.1093
  -111.1070-111.1042-111.1026-111.0716 -69.1478 -69.1335 -69.1194 -69.0310
   -69.0246 -69.0160 -68.9977 -68.9910 -68.9832 -68.7912 -68.7822 -68.7769
   -68.7753 -68.7733 -68.7716 -68.7711 -68.7599 -68.7465 -68.7054 -68.7009
   -68.6959 -68.5491 -68.5435 -68.5360 -68.5297 -68.5192 -68.5128 -68.5054
   -68.5018 -68.5011 -68.4997 -68.4644 -68.4630 -68.4609 -68.4590 -68.4346
   -13.9999  -7.5866  -5.6079  -4.7874  -4.3363  -4.1315  -3.6745  -3.4815
    -3.1250  -2.9416  -2.9025  -2.7664  -2.7383  -2.6813  -2.5896  -2.5467
    -2.4352  -2.3916  -2.3311  -2.2347  -2.2012  -2.1529  -2.1447  -2.0977
    -2.0241  -1.9999  -1.9452  -1.9010  -1.8680  -1.7976  -1.7404  -1.6811
    -1.6363  -1.5991  -1.5917  -1.5418  -1.5052  -1.4772  -1.4452  -1.3954
    -1.3622  -1.3448  -1.3147  -1.2812  -1.2453  -1.1467  -1.1162  -1.1083
    -1.0478  -0.9655  -0.9241  -0.8919  -0.8513  -0.8208  -0.7819  -0.7477
    -0.6919  -0.6588  -0.6066  -0.5342  -0.5197  -0.4901  -0.4618  -0.4461
    -0.4115  -0.3485  -0.0817   0.1465   0.3838   1.1299   1.9471   2.5937
     2.9114   3.5381   3.9472   4.4239   4.9365   5.1358   5.3549

          k = 0.0321-0.0557 0.0000 ( 14335 PWs)   bands (ev):

  -111.6527-111.6490-111.6478-111.3790-111.3751-111.3730-111.3066-111.1105
  -111.1062-111.1038-111.1026-111.0716 -69.1551 -69.1271 -69.1201 -69.0315
   -69.0284 -69.0120 -69.0012 -68.9866 -68.9827 -68.7959 -68.7895 -68.7861
   -68.7776 -68.7729 -68.7710 -68.7632 -68.7513 -68.7449 -68.7054 -68.6979
   -68.6943 -68.5555 -68.5512 -68.5482 -68.5206 -68.5100 -68.5097 -68.5045
   -68.5013 -68.5008 -68.4954 -68.4659 -68.4619 -68.4605 -68.4591 -68.4346
   -14.0120  -7.7023  -6.2340  -4.6612  -4.2028  -4.0398  -3.6164  -3.4811
    -3.2906  -3.1035  -3.0334  -2.9300  -2.8782  -2.8173  -2.7603  -2.7129
    -2.5629  -2.5108  -2.4759  -2.1774  -2.1678  -2.1415  -2.0747  -2.0150
    -1.8700  -1.8473  -1.8281  -1.8001  -1.7429  -1.6661  -1.6378  -1.6092
    -1.5956  -1.5748  -1.5313  -1.4992  -1.4692  -1.3982  -1.3714  -1.3012
    -1.2358  -1.2281  -1.1260  -1.1198  -1.0404  -1.0322  -1.0022  -0.9766
    -0.9441  -0.8988  -0.8583  -0.7737  -0.7271  -0.7093  -0.6875  -0.6599
    -0.6195  -0.5589  -0.5317  -0.5149  -0.4808  -0.4530  -0.4017  -0.3711
    -0.3373  -0.2888   0.0593   0.0716   0.9427   1.1279   1.4702   2.4271
     2.8431   3.3373   3.5796   3.8014   3.8981   4.9663   5.4871

          k = 0.0643-0.0371 0.0000 ( 14316 PWs)   bands (ev):

  -111.6525-111.6489-111.6481-111.3785-111.3757-111.3728-111.3067-111.1102
  -111.1063-111.1041-111.1025-111.0716 -69.1533 -69.1283 -69.1202 -69.0315
   -69.0272 -69.0132 -69.0004 -68.9878 -68.9828 -68.7946 -68.7867 -68.7841
   -68.7771 -68.7737 -68.7707 -68.7645 -68.7560 -68.7434 -68.7054 -68.6996
   -68.6944 -68.5537 -68.5507 -68.5433 -68.5191 -68.5180 -68.5087 -68.5056
   -68.5016 -68.5008 -68.4960 -68.4655 -68.4622 -68.4604 -68.4591 -68.4346
   -14.0080  -7.6618  -6.0756  -4.7236  -4.1591  -4.0952  -3.7606  -3.2560
    -3.1967  -3.0984  -3.0050  -2.9043  -2.8745  -2.8016  -2.6944  -2.6894
    -2.5346  -2.4631  -2.4068  -2.1776  -2.1725  -2.1534  -2.0952  -2.0469
    -1.8966  -1.8867  -1.8581  -1.7951  -1.7773  -1.6998  -1.6577  -1.6532
    -1.6017  -1.5536  -1.5174  -1.5032  -1.4711  -1.4238  -1.3890  -1.3541
    -1.2706  -1.2431  -1.1805  -1.1770  -1.1205  -1.0979  -1.0701  -1.0112
    -0.9666  -0.9605  -0.9107  -0.8498  -0.7884  -0.7550  -0.7352  -0.7126
    -0.6919  -0.6362  -0.6032  -0.5213  -0.4900  -0.4639  -0.4368  -0.3918
    -0.3466  -0.2886  -0.1883   0.5013   1.0471   1.1806   1.4904   2.1877
     2.5179   3.0786   3.5598   4.2961   4.7322   5.0155   5.4831

          k = 0.0643-0.0000 0.0000 ( 14335 PWs)   bands (ev):

  -111.6528-111.6487-111.6481-111.3787-111.3757-111.3726-111.3066-111.1106
  -111.1057-111.1045-111.1023-111.0716 -69.1552 -69.1268 -69.1203 -69.0317
   -69.0282 -69.0121 -69.0013 -68.9864 -68.9829 -68.7954 -68.7887 -68.7875
   -68.7773 -68.7737 -68.7706 -68.7636 -68.7517 -68.7439 -68.7054 -68.6979
   -68.6945 -68.5558 -68.5509 -68.5482 -68.5203 -68.5105 -68.5096 -68.5045
   -68.5013 -68.5008 -68.4953 -68.4659 -68.4615 -68.4610 -68.4590 -68.4346
   -14.0120  -7.7023  -6.2340  -4.6612  -4.2028  -4.0398  -3.6165  -3.4811
    -3.2906  -3.1036  -3.0333  -2.9299  -2.8784  -2.8172  -2.7602  -2.7130
    -2.5629  -2.5108  -2.4760  -2.1773  -2.1679  -2.1415  -2.0747  -2.0149
    -1.8697  -1.8475  -1.8282  -1.8003  -1.7430  -1.6663  -1.6380  -1.6091
    -1.5955  -1.5747  -1.5312  -1.4992  -1.4692  -1.3983  -1.3717  -1.3011
    -1.2358  -1.2283  -1.1256  -1.1198  -1.0406  -1.0321  -1.0022  -0.9768
    -0.9439  -0.8986  -0.8583  -0.7737  -0.7272  -0.7094  -0.6876  -0.6598
    -0.6194  -0.5592  -0.5317  -0.5148  -0.4806  -0.4529  -0.4021  -0.3711
    -0.3375  -0.2887   0.0594   0.0716   0.9426   1.1278   1.4702   2.4271
     2.8431   3.3373   3.5796   3.8015   3.8980   4.9663   5.4871

          k = 0.0643 0.0371 0.0000 ( 14316 PWs)   bands (ev):

  -111.6525-111.6491-111.6480-111.3785-111.3759-111.3727-111.3067-111.1103
  -111.1058-111.1047-111.1023-111.0716 -69.1533 -69.1284 -69.1201 -69.0314
   -69.0273 -69.0131 -69.0004 -68.9879 -68.9828 -68.7945 -68.7868 -68.7841
   -68.7770 -68.7739 -68.7707 -68.7645 -68.7562 -68.7432 -68.7054 -68.6996
   -68.6944 -68.5540 -68.5503 -68.5433 -68.5193 -68.5177 -68.5089 -68.5059
   -68.5016 -68.5008 -68.4959 -68.4656 -68.4618 -68.4610 -68.4590 -68.4346
   -14.0080  -7.6618  -6.0756  -4.7236  -4.1591  -4.0952  -3.7606  -3.2559
    -3.1967  -3.0984  -3.0050  -2.9043  -2.8745  -2.8016  -2.6944  -2.6894
    -2.5346  -2.4630  -2.4069  -2.1776  -2.1725  -2.1535  -2.0952  -2.0469
    -1.8966  -1.8866  -1.8581  -1.7951  -1.7774  -1.6998  -1.6577  -1.6533
    -1.6018  -1.5536  -1.5175  -1.5031  -1.4711  -1.4238  -1.3890  -1.3541
    -1.2706  -1.2431  -1.1806  -1.1770  -1.1204  -1.0979  -1.0701  -1.0112
    -0.9667  -0.9604  -0.9107  -0.8498  -0.7884  -0.7551  -0.7350  -0.7127
    -0.6919  -0.6363  -0.6031  -0.5212  -0.4901  -0.4639  -0.4368  -0.3916
    -0.3468  -0.2887  -0.1882   0.5013   1.0470   1.1807   1.4904   2.1876
     2.5179   3.0786   3.5598   4.2961   4.7322   5.0155   5.4831

          k = 0.0643-0.1485 0.0000 ( 14299 PWs)   bands (ev):

  -111.6518-111.6498-111.6479-111.3779-111.3762-111.3729-111.3067-111.1095
  -111.1062-111.1051-111.1023-111.0716 -69.1479 -69.1333 -69.1195 -69.0311
   -69.0244 -69.0161 -68.9978 -68.9908 -68.9833 -68.7900 -68.7835 -68.7768
   -68.7757 -68.7742 -68.7710 -68.7700 -68.7611 -68.7455 -68.7054 -68.7008
   -68.6961 -68.5495 -68.5430 -68.5359 -68.5297 -68.5191 -68.5130 -68.5059
   -68.5018 -68.5011 -68.4992 -68.4646 -68.4623 -68.4614 -68.4589 -68.4346
   -13.9999  -7.5866  -5.6078  -4.7875  -4.3363  -4.1315  -3.6746  -3.4814
    -3.1249  -2.9416  -2.9026  -2.7663  -2.7385  -2.6813  -2.5895  -2.5468
    -2.4349  -2.3916  -2.3310  -2.2348  -2.2012  -2.1530  -2.1448  -2.0978
    -2.0241  -1.9998  -1.9453  -1.9009  -1.8679  -1.7977  -1.7405  -1.6811
    -1.6363  -1.5992  -1.5915  -1.5419  -1.5052  -1.4771  -1.4453  -1.3955
    -1.3624  -1.3447  -1.3147  -1.2813  -1.2452  -1.1464  -1.1162  -1.1084
    -1.0478  -0.9657  -0.9240  -0.8919  -0.8513  -0.8208  -0.7819  -0.7475
    -0.6921  -0.6591  -0.6066  -0.5341  -0.5196  -0.4902  -0.4618  -0.4454
    -0.4123  -0.3484  -0.0818   0.1465   0.3838   1.1299   1.9471   2.5937
     2.9114   3.5381   3.9472   4.4239   4.9365   5.1358   5.3549

          k = 0.0643-0.1114 0.0000 ( 14310 PWs)   bands (ev):

  -111.6510-111.6505-111.6479-111.3776-111.3763-111.3731-111.3067-111.1089
  -111.1066-111.1053-111.1023-111.0716 -69.1417 -69.1394 -69.1191 -69.0310
   -69.0205 -69.0200 -68.9948 -68.9936 -68.9838 -68.7827 -68.7820 -68.7804
   -68.7759 -68.7745 -68.7710 -68.7664 -68.7659 -68.7480 -68.7054 -68.6992
   -68.6990 -68.5414 -68.5409 -68.5319 -68.5317 -68.5308 -68.5077 -68.5071
   -68.5038 -68.5016 -68.5016 -68.4636 -68.4630 -68.4618 -68.4588 -68.4346
   -13.9959  -7.5524  -5.0295  -4.8973  -4.6080  -4.1264  -4.0217  -3.1963
    -3.1945  -2.9696  -2.7202  -2.6386  -2.5977  -2.5560  -2.5497  -2.4719
    -2.4153  -2.3494  -2.3066  -2.2924  -2.2802  -2.1981  -2.1948  -2.1728
    -2.1529  -2.0228  -1.9929  -1.8982  -1.8948  -1.8637  -1.7843  -1.7648
    -1.7614  -1.7564  -1.6537  -1.6028  -1.5088  -1.4848  -1.4736  -1.4435
    -1.4297  -1.3660  -1.3128  -1.2668  -1.2260  -1.1924  -1.0826  -1.0692
    -1.0127  -0.9406  -0.9354  -0.8974  -0.8186  -0.8154  -0.7309  -0.7184
    -0.6343  -0.6267  -0.5608  -0.5593  -0.5434  -0.5249  -0.5094  -0.5001
    -0.4596  -0.4483  -0.4033   0.2286   0.3460   0.5366   2.4573   2.5723
     3.0789   4.5663   4.6765   4.7065   5.0378   5.3274   5.4003

          k = 0.0643-0.0742 0.0000 ( 14299 PWs)   bands (ev):

  -111.6518-111.6497-111.6480-111.3780-111.3760-111.3730-111.3067-111.1094
  -111.1068-111.1045-111.1025-111.0716 -69.1480 -69.1332 -69.1195 -69.0311
   -69.0242 -69.0162 -68.9978 -68.9906 -68.9834 -68.7901 -68.7835 -68.7768
   -68.7757 -68.7741 -68.7711 -68.7700 -68.7610 -68.7456 -68.7054 -68.7008
   -68.6961 -68.5493 -68.5432 -68.5359 -68.5299 -68.5190 -68.5129 -68.5057
   -68.5018 -68.5011 -68.4995 -68.4645 -68.4629 -68.4609 -68.4590 -68.4346
   -13.9999  -7.5866  -5.6078  -4.7875  -4.3363  -4.1315  -3.6746  -3.4814
    -3.1249  -2.9416  -2.9026  -2.7663  -2.7385  -2.6813  -2.5895  -2.5468
    -2.4349  -2.3916  -2.3310  -2.2348  -2.2012  -2.1530  -2.1447  -2.0977
    -2.0241  -1.9999  -1.9453  -1.9009  -1.8679  -1.7977  -1.7405  -1.6811
    -1.6363  -1.5992  -1.5915  -1.5419  -1.5052  -1.4771  -1.4453  -1.3955
    -1.3623  -1.3447  -1.3146  -1.2813  -1.2453  -1.1465  -1.1162  -1.1083
    -1.0478  -0.9656  -0.9240  -0.8919  -0.8513  -0.8208  -0.7819  -0.7475
    -0.6921  -0.6590  -0.6066  -0.5340  -0.5197  -0.4901  -0.4618  -0.4456
    -0.4121  -0.3485  -0.0817   0.1465   0.3838   1.1299   1.9471   2.5937
     2.9114   3.5381   3.9472   4.4239   4.9365   5.1358   5.3549

          k =-0.0964 0.0557 0.0000 ( 14294 PWs)   bands (ev):

  -111.6519-111.6495-111.6481-111.3777-111.3765-111.3728-111.3067-111.1093
  -111.1070-111.1042-111.1026-111.0716 -69.1483 -69.1326 -69.1198 -69.0312
   -69.0241 -69.0162 -68.9977 -68.9911 -68.9831 -68.7921 -68.7810 -68.7763
   -68.7747 -68.7732 -68.7708 -68.7687 -68.7673 -68.7435 -68.7054 -68.7022
   -68.6951 -68.5499 -68.5460 -68.5288 -68.5260 -68.5216 -68.5214 -68.5028
   -68.5020 -68.5009 -68.4989 -68.4642 -68.4635 -68.4605 -68.4592 -68.4346
   -13.9999  -7.5829  -5.4651  -5.1245  -4.3706  -4.0616  -3.5394  -3.3235
    -3.0490  -3.0083  -2.8648  -2.8443  -2.7850  -2.7256  -2.5405  -2.5007
    -2.4908  -2.3908  -2.3662  -2.2986  -2.1582  -2.1343  -2.0982  -2.0681
    -2.0208  -2.0068  -1.9187  -1.8765  -1.8619  -1.8101  -1.7140  -1.6985
    -1.6290  -1.5981  -1.5141  -1.4961  -1.4650  -1.4428  -1.4425  -1.4361
    -1.3954  -1.3819  -1.3498  -1.3033  -1.2419  -1.1673  -1.1315  -1.1278
    -1.0704  -1.0129  -0.9843  -0.9273  -0.8735  -0.8444  -0.8252  -0.8208
    -0.7458  -0.7186  -0.6975  -0.6091  -0.5056  -0.4726  -0.4546  -0.3779
    -0.3445  -0.2066  -0.0434   0.1112   1.1151   1.1933   1.8630   2.1779
     2.5719   2.7429   4.1416   4.7947   4.8293   5.1335   5.1823

          k =-0.0964 0.0928 0.0000 ( 14299 PWs)   bands (ev):

  -111.6519-111.6496-111.6480-111.3777-111.3765-111.3728-111.3067-111.1094
  -111.1065-111.1048-111.1023-111.0716 -69.1481 -69.1330 -69.1196 -69.0312
   -69.0241 -69.0162 -68.9979 -68.9905 -68.9835 -68.7901 -68.7825 -68.7768
   -68.7756 -68.7746 -68.7720 -68.7707 -68.7602 -68.7453 -68.7054 -68.7008
   -68.6961 -68.5494 -68.5432 -68.5360 -68.5292 -68.5197 -68.5128 -68.5057
   -68.5018 -68.5011 -68.4994 -68.4645 -68.4627 -68.4611 -68.4590 -68.4346
   -13.9999  -7.5866  -5.6078  -4.7875  -4.3363  -4.1314  -3.6746  -3.4814
    -3.1249  -2.9416  -2.9025  -2.7665  -2.7384  -2.6812  -2.5894  -2.5468
    -2.4350  -2.3916  -2.3311  -2.2348  -2.2012  -2.1528  -2.1448  -2.0981
    -2.0241  -1.9998  -1.9452  -1.9009  -1.8680  -1.7976  -1.7407  -1.6812
    -1.6362  -1.5991  -1.5917  -1.5419  -1.5052  -1.4770  -1.4452  -1.3955
    -1.3623  -1.3450  -1.3148  -1.2813  -1.2451  -1.1464  -1.1162  -1.1079
    -1.0479  -0.9657  -0.9242  -0.8920  -0.8513  -0.8206  -0.7818  -0.7478
    -0.6919  -0.6590  -0.6067  -0.5343  -0.5196  -0.4899  -0.4618  -0.4456
    -0.4121  -0.3485  -0.0818   0.1466   0.3838   1.1299   1.9471   2.5937
     2.9114   3.5382   3.9472   4.4239   4.9365   5.1358   5.3549

          k =-0.0964 0.1299 0.0000 ( 14299 PWs)   bands (ev):

  -111.6519-111.6496-111.6480-111.3775-111.3767-111.3728-111.3067-111.1095
  -111.1059-111.1054-111.1022-111.0716 -69.1480 -69.1331 -69.1196 -69.0312
   -69.0242 -69.0162 -68.9979 -68.9906 -68.9834 -68.7900 -68.7827 -68.7768
   -68.7755 -68.7748 -68.7719 -68.7707 -68.7603 -68.7452 -68.7054 -68.7008
   -68.6962 -68.5496 -68.5430 -68.5359 -68.5293 -68.5195 -68.5129 -68.5059
   -68.5018 -68.5011 -68.4992 -68.4646 -68.4623 -68.4615 -68.4589 -68.4346
   -13.9999  -7.5866  -5.6078  -4.7875  -4.3363  -4.1314  -3.6746  -3.4814
    -3.1249  -2.9416  -2.9025  -2.7665  -2.7384  -2.6811  -2.5894  -2.5468
    -2.4350  -2.3916  -2.3311  -2.2347  -2.2012  -2.1528  -2.1448  -2.0981
    -2.0242  -1.9998  -1.9452  -1.9009  -1.8680  -1.7976  -1.7407  -1.6812
    -1.6362  -1.5992  -1.5917  -1.5418  -1.5052  -1.4770  -1.4452  -1.3955
    -1.3623  -1.3449  -1.3148  -1.2814  -1.2451  -1.1463  -1.1162  -1.1080
    -1.0478  -0.9657  -0.9241  -0.8920  -0.8513  -0.8207  -0.7818  -0.7477
    -0.6920  -0.6591  -0.6066  -0.5343  -0.5195  -0.4900  -0.4618  -0.4454
    -0.4123  -0.3485  -0.0818   0.1466   0.3838   1.1299   1.9471   2.5937
     2.9114   3.5382   3.9472   4.4239   4.9365   5.1358   5.3549

          k =-0.0964-0.0557 0.0000 ( 14294 PWs)   bands (ev):

  -111.6518-111.6497-111.6480-111.3774-111.3769-111.3728-111.3067-111.1095
  -111.1063-111.1050-111.1023-111.0716 -69.1482 -69.1327 -69.1197 -69.0311
   -69.0243 -69.0162 -68.9977 -68.9913 -68.9830 -68.7919 -68.7813 -68.7761
   -68.7750 -68.7729 -68.7708 -68.7687 -68.7676 -68.7434 -68.7054 -68.7022
   -68.6951 -68.5503 -68.5455 -68.5289 -68.5254 -68.5222 -68.5213 -68.5033
   -68.5020 -68.5009 -68.4985 -68.4645 -68.4628 -68.4610 -68.4590 -68.4346
   -13.9999  -7.5829  -5.4651  -5.1245  -4.3706  -4.0616  -3.5394  -3.3235
    -3.0490  -3.0083  -2.8648  -2.8443  -2.7851  -2.7255  -2.5404  -2.5007
    -2.4907  -2.3907  -2.3662  -2.2987  -2.1583  -2.1343  -2.0982  -2.0681
    -2.0208  -2.0069  -1.9188  -1.8765  -1.8619  -1.8101  -1.7140  -1.6985
    -1.6290  -1.5981  -1.5142  -1.4960  -1.4650  -1.4427  -1.4425  -1.4360
    -1.3954  -1.3820  -1.3499  -1.3032  -1.2419  -1.1673  -1.1314  -1.1279
    -1.0704  -1.0129  -0.9844  -0.9272  -0.8735  -0.8444  -0.8254  -0.8207
    -0.7458  -0.7186  -0.6976  -0.6090  -0.5057  -0.4725  -0.4547  -0.3777
    -0.3447  -0.2066  -0.0434   0.1113   1.1150   1.1934   1.8629   2.1779
     2.5720   2.7429   4.1416   4.7947   4.8293   5.1335   5.1823

     the Fermi energy is     1.2185 ev

!    total energy              =   -4884.84770192 Ry
     Harris-Foulkes estimate   =   -4884.84770101 Ry
     estimated scf accuracy    <       0.00000442 Ry

     The total energy is the sum of the following terms:

     one-electron contribution =  -37935.55196071 Ry
     hartree contribution      =   18989.18564796 Ry
     xc contribution           =    -489.85948899 Ry
     ewald contribution        =   14551.40628757 Ry
     electric field correction =       0.00031265 Ry
     smearing contrib. (-TS)   =      -0.02850041 Ry

     convergence has been achieved in  33 iterations
 
 BEEF-vdW xc energy contributions
           1 :   -433.852845744411     
           2 :    393.209119544585     
           3 :   -324.316691974606     
           4 :    246.063532621638     
           5 :   -175.701335584069     
           6 :    122.710671585650     
           7 :   -87.2683071410059     
           8 :    63.3142824384434     
           9 :   -43.8358495333176     
          10 :    25.1212771088191     
          11 :   -7.84714650417936     
          12 :   -4.94226047309428     
          13 :    11.0345614280610     
          14 :   -11.1001479059781     
          15 :    8.38716507909527     
          16 :   -6.59529908238051     
          17 :    7.60495717406599     
          18 :   -10.6312595098460     
          19 :    13.2297643879101     
          20 :   -13.2902369021193     
          21 :    10.5690053133375     
          22 :   -6.75951050535980     
          23 :    4.18604947814777     
          24 :   -4.14632297026947     
          25 :    6.08279717328321     
          26 :   -8.10091993680714     
          27 :    8.38381495300848     
          28 :   -6.46520813048772     
          29 :    3.48320710515685     
          30 :   -1.29607223224684     
          31 :   -34.8693692479364     
          32 :   -23.8433620950800     

     Forces acting on atoms (Ry/au):


     negative rho (up, down):  9.417E-04 0.000E+00
     atom    1 type  1   force =     0.00097929    0.00075074    0.00096068
     atom    2 type  1   force =    -0.00098192    0.00076235    0.00087533
     atom    3 type  1   force =    -0.00000031   -0.00127148    0.00042275
     atom    4 type  1   force =    -0.00000054   -0.00015206    0.00186195
     atom    5 type  1   force =    -0.00005571    0.00133691    0.00602449
     atom    6 type  1   force =     0.00006587    0.00001886   -0.00702624
     atom    7 type  1   force =    -0.00125365   -0.00070225    0.00683599
     atom    8 type  1   force =     0.00125113   -0.00076828    0.00690436
     atom    9 type  1   force =     0.00000435    0.00014348   -0.01703059
     atom   10 type  1   force =    -0.00000966   -0.04943562   -0.02962526
     atom   11 type  1   force =    -0.04298311    0.02466130   -0.02970547
     atom   12 type  1   force =     0.04298856    0.02467836   -0.02970260
     atom   13 type  2   force =    -0.00000216   -0.00001148   -0.04550736
     atom   14 type  3   force =    -0.00000215   -0.00001082    0.13471196

     Total force =     0.174663     Total SCF correction =     0.004116


     entering subroutine stress ...


     negative rho (up, down):  9.417E-04 0.000E+00
          total   stress  (Ry/bohr**3)                   (kbar)     P=   -6.62
  -0.00008659   0.00000000   0.00000000        -12.74      0.00      0.00
   0.00000000  -0.00008664   0.00000000          0.00    -12.74      0.00
   0.00000000   0.00000000   0.00003826          0.00      0.00      5.63


     BFGS Geometry Optimization

     number of scf cycles    =   1
     number of bfgs steps    =   0

     energy   new            =   -4884.8477019243 Ry

     new trust radius        =       0.1347119597 bohr
     new conv_thr            =       0.0000099958 Ry


ATOMIC_POSITIONS (crystal)
Cu1      0.166666667   0.166666667   0.412653782    0   0   0
Cu1      0.666666667   0.166666667   0.412653782    0   0   0
Cu1      0.166666667   0.666666667   0.412653782    0   0   0
Cu1      0.666666667   0.666666667   0.412653782    0   0   0
Cu1      0.833333333   0.333333333   0.500000000    0   0   0
Cu1      0.333333333   0.333333333   0.500000000    0   0   0
Cu1      0.833333333   0.833333333   0.500000000    0   0   0
Cu1      0.333333333   0.833333333   0.500000000    0   0   0
Cu1     -0.000008011   0.000016910   0.586974326
Cu1      0.502912055  -0.005826082   0.586699300
Cu1     -0.005840165   0.502906382   0.586697549
Cu1      0.502933334   0.502908391   0.586697611
S1       0.333333789   0.333331980   0.649921803
H1       0.333333752   0.333332058   0.705438920



     Writing output data file calc.save
     NEW-OLD atomic charge density approx. for the potential

     negative rho (up, down):  9.308E-04 0.000E+00
 
     Adding external electric field

     Computed dipole along edir(3) : 
        Dipole                0.2017 Ry au,          0.5127 Debye
        Dipole field          0.0007 Ry au
 
        Potential amp.       -0.0595 Ry
        Total length         44.6496 bohr
 

     total cpu time spent up to now is      578.2 secs

     Self-consistent Calculation

     iteration #  1     ecut=    36.75 Ry     beta=0.30
     Davidson diagonalization with overlap
     c_bands:  1 eigenvalues not converged
     c_bands:  1 eigenvalues not converged
     c_bands:  1 eigenvalues not converged
     c_bands:  1 eigenvalues not converged
     c_bands:  1 eigenvalues not converged
     c_bands:  1 eigenvalues not converged
     c_bands:  1 eigenvalues not converged
     ethr =  1.00E-06,  avg # of iterations = 11.1

     negative rho (up, down):  9.228E-04 0.000E+00
 
     Adding external electric field

     Computed dipole along edir(3) : 
        Dipole                0.9167 Ry au,          2.3301 Debye
        Dipole field          0.0030 Ry au
 
        Potential amp.       -0.2702 Ry
        Total length         44.6496 bohr
 

     total cpu time spent up to now is      612.0 secs

     total energy              =   -4884.82929112 Ry
     Harris-Foulkes estimate   =   -4884.87086077 Ry
     estimated scf accuracy    <       0.08989067 Ry

     iteration #  2     ecut=    36.75 Ry     beta=0.30
     Davidson diagonalization with overlap
     ethr =  3.83E-05,  avg # of iterations =  6.9

     negative rho (up, down):  9.076E-04 0.000E+00
 
     Adding external electric field

     Computed dipole along edir(3) : 
        Dipole                0.2794 Ry au,          0.7102 Debye
        Dipole field          0.0009 Ry au
 
        Potential amp.       -0.0824 Ry
        Total length         44.6496 bohr
 

     total cpu time spent up to now is      631.9 secs

     total energy              =   -4884.72329842 Ry
     Harris-Foulkes estimate   =   -4884.99234986 Ry
     estimated scf accuracy    <       3.69700321 Ry

     iteration #  3     ecut=    36.75 Ry     beta=0.30
     Davidson diagonalization with overlap
     ethr =  3.83E-05,  avg # of iterations =  5.2

     negative rho (up, down):  9.080E-04 0.000E+00
 
     Adding external electric field

     Computed dipole along edir(3) : 
        Dipole                0.2871 Ry au,          0.7298 Debye
        Dipole field          0.0009 Ry au
 
        Potential amp.       -0.0846 Ry
        Total length         44.6496 bohr
 

     total cpu time spent up to now is      647.9 secs

     total energy              =   -4884.86231713 Ry
     Harris-Foulkes estimate   =   -4884.86851961 Ry
     estimated scf accuracy    <       0.03673633 Ry

     iteration #  4     ecut=    36.75 Ry     beta=0.30
     Davidson diagonalization with overlap
     ethr =  1.56E-05,  avg # of iterations =  2.9

     negative rho (up, down):  9.051E-04 0.000E+00
 
     Adding external electric field

     Computed dipole along edir(3) : 
        Dipole                0.2790 Ry au,          0.7092 Debye
        Dipole field          0.0009 Ry au
 
        Potential amp.       -0.0822 Ry
        Total length         44.6496 bohr
 

     total cpu time spent up to now is      659.3 secs

     total energy              =   -4884.86534254 Ry
     Harris-Foulkes estimate   =   -4884.86592496 Ry
     estimated scf accuracy    <       0.00255800 Ry

     iteration #  5     ecut=    36.75 Ry     beta=0.30
     Davidson diagonalization with overlap
     ethr =  1.09E-06,  avg # of iterations =  4.1

     negative rho (up, down):  9.079E-04 0.000E+00
 
     Adding external electric field

     Computed dipole along edir(3) : 
        Dipole                0.2863 Ry au,          0.7277 Debye
        Dipole field          0.0009 Ry au
 
        Potential amp.       -0.0844 Ry
        Total length         44.6496 bohr
 

     total cpu time spent up to now is      674.0 secs

     total energy              =   -4884.86565088 Ry
     Harris-Foulkes estimate   =   -4884.86575149 Ry
     estimated scf accuracy    <       0.00047655 Ry

     iteration #  6     ecut=    36.75 Ry     beta=0.30
     Davidson diagonalization with overlap
     ethr =  2.03E-07,  avg # of iterations =  2.1

     negative rho (up, down):  9.133E-04 0.000E+00
 
     Adding external electric field

     Computed dipole along edir(3) : 
        Dipole                0.2856 Ry au,          0.7259 Debye
        Dipole field          0.0009 Ry au
 
        Potential amp.       -0.0842 Ry
        Total length         44.6496 bohr
 

     total cpu time spent up to now is      685.1 secs

     total energy              =   -4884.86567933 Ry
     Harris-Foulkes estimate   =   -4884.86570974 Ry
     estimated scf accuracy    <       0.00015472 Ry

     iteration #  7     ecut=    36.75 Ry     beta=0.30
     Davidson diagonalization with overlap
     ethr =  6.58E-08,  avg # of iterations =  2.7

     negative rho (up, down):  9.187E-04 0.000E+00
 
     Adding external electric field

     Computed dipole along edir(3) : 
        Dipole                0.2829 Ry au,          0.7191 Debye
        Dipole field          0.0009 Ry au
 
        Potential amp.       -0.0834 Ry
        Total length         44.6496 bohr
 

     total cpu time spent up to now is      697.9 secs

     total energy              =   -4884.86569823 Ry
     Harris-Foulkes estimate   =   -4884.86570876 Ry
     estimated scf accuracy    <       0.00005086 Ry

     iteration #  8     ecut=    36.75 Ry     beta=0.30
     Davidson diagonalization with overlap
     ethr =  2.16E-08,  avg # of iterations =  2.0

     negative rho (up, down):  9.226E-04 0.000E+00
 
     Adding external electric field

     Computed dipole along edir(3) : 
        Dipole                0.2830 Ry au,          0.7192 Debye
        Dipole field          0.0009 Ry au
 
        Potential amp.       -0.0834 Ry
        Total length         44.6496 bohr
 

     total cpu time spent up to now is      708.5 secs

     total energy              =   -4884.86570245 Ry
     Harris-Foulkes estimate   =   -4884.86570291 Ry
     estimated scf accuracy    <       0.00001191 Ry

     iteration #  9     ecut=    36.75 Ry     beta=0.30
     Davidson diagonalization with overlap
     ethr =  5.07E-09,  avg # of iterations =  2.0

     negative rho (up, down):  9.286E-04 0.000E+00

     negative rho (up, down):  9.286E-04 0.000E+00

     negative rho (up, down):  9.286E-04 0.000E+00

     negative rho (up, down):  9.286E-04 0.000E+00

     negative rho (up, down):  9.286E-04 0.000E+00

     negative rho (up, down):  9.286E-04 0.000E+00

     negative rho (up, down):  9.286E-04 0.000E+00

     negative rho (up, down):  9.286E-04 0.000E+00

     negative rho (up, down):  9.286E-04 0.000E+00

     negative rho (up, down):  9.286E-04 0.000E+00

     negative rho (up, down):  9.286E-04 0.000E+00

     negative rho (up, down):  9.286E-04 0.000E+00

     negative rho (up, down):  9.286E-04 0.000E+00

     negative rho (up, down):  9.286E-04 0.000E+00

     negative rho (up, down):  9.286E-04 0.000E+00

     negative rho (up, down):  9.286E-04 0.000E+00

     negative rho (up, down):  9.286E-04 0.000E+00

     negative rho (up, down):  9.286E-04 0.000E+00

     negative rho (up, down):  9.286E-04 0.000E+00

     negative rho (up, down):  9.286E-04 0.000E+00

     negative rho (up, down):  9.286E-04 0.000E+00

     negative rho (up, down):  9.286E-04 0.000E+00

     negative rho (up, down):  9.286E-04 0.000E+00

     negative rho (up, down):  9.286E-04 0.000E+00

     negative rho (up, down):  9.286E-04 0.000E+00

     negative rho (up, down):  9.286E-04 0.000E+00

     negative rho (up, down):  9.286E-04 0.000E+00

     negative rho (up, down):  9.286E-04 0.000E+00

     negative rho (up, down):  9.286E-04 0.000E+00

     negative rho (up, down):  9.286E-04 0.000E+00

     negative rho (up, down):  9.286E-04 0.000E+00

     negative rho (up, down):  9.286E-04 0.000E+00

     negative rho (up, down):  9.286E-04 0.000E+00

     negative rho (up, down):  9.286E-04 0.000E+00

     negative rho (up, down):  9.286E-04 0.000E+00
 
     Adding external electric field

     Computed dipole along edir(3) : 
        Dipole                0.2841 Ry au,          0.7221 Debye
        Dipole field          0.0009 Ry au
 
        Potential amp.       -0.0837 Ry
        Total length         44.6496 bohr
 

     total cpu time spent up to now is      732.2 secs

     End of self-consistent calculation

          k = 0.0000 0.0000 0.0000 ( 14321 PWs)   bands (ev):

  -111.6780-111.6722-111.6720-111.4266-111.4209-111.4207-111.3458-111.1500
  -111.1435-111.1407-111.1406-111.1152 -69.1851 -69.1423 -69.1422 -69.0573
   -69.0572 -69.0329 -69.0294 -69.0077 -69.0076 -68.8499 -68.8416 -68.8415
   -68.8262 -68.8197 -68.8195 -68.8050 -68.7890 -68.7888 -68.7452 -68.7324
   -68.7324 -68.6000 -68.6000 -68.5960 -68.5482 -68.5482 -68.5472 -68.5437
   -68.5437 -68.5299 -68.5299 -68.5052 -68.4988 -68.4977 -68.4976 -68.4790
   -13.7116  -7.6382  -6.6568  -4.8086  -4.1712  -4.1712  -3.7514  -3.4465
    -3.3307  -3.3306  -3.1644  -3.0860  -3.0859  -3.0234  -2.8615  -2.8615
    -2.7583  -2.7583  -2.7480  -2.2244  -2.2244  -2.1685  -2.0225  -1.9305
    -1.9304  -1.8129  -1.7860  -1.7859  -1.7160  -1.7160  -1.7020  -1.6445
    -1.5896  -1.5895  -1.4666  -1.4666  -1.3388  -1.3111  -1.3111  -1.1389
    -1.1047  -1.1046  -0.9549  -0.9548  -0.8867  -0.8490  -0.8489  -0.7682
    -0.7681  -0.7240  -0.5970  -0.5969  -0.5921  -0.5140  -0.5140  -0.5105
    -0.5003  -0.5003  -0.4401  -0.4031  -0.4031  -0.2074  -0.2074  -0.2052
    -0.1629  -0.1629   0.0964   1.0214   1.2529   1.2529   1.7620   2.3010
     2.3010   2.6076   2.7034   2.7035   2.9237   4.4804   5.0660

          k = 0.0000 0.0371 0.0000 ( 14383 PWs)   bands (ev):

  -111.6777-111.6725-111.6720-111.4262-111.4213-111.4207-111.3458-111.1495
  -111.1436-111.1409-111.1407-111.1152 -69.1823 -69.1443 -69.1418 -69.0570
   -69.0561 -69.0342 -69.0284 -69.0094 -69.0079 -68.8469 -68.8391 -68.8390
   -68.8258 -68.8201 -68.8195 -68.8064 -68.7925 -68.7894 -68.7452 -68.7346
   -68.7330 -68.5976 -68.5963 -68.5926 -68.5508 -68.5501 -68.5467 -68.5442
   -68.5439 -68.5344 -68.5310 -68.5047 -68.4990 -68.4978 -68.4977 -68.4790
   -13.7021  -7.5299  -6.5215  -4.7489  -4.1748  -4.1391  -3.6246  -3.4995
    -3.3199  -3.2710  -3.1237  -3.0650  -3.0320  -2.9643  -2.8533  -2.8461
    -2.7116  -2.6711  -2.6623  -2.2152  -2.2128  -2.1847  -2.0399  -1.9647
    -1.8967  -1.8399  -1.7976  -1.7970  -1.7661  -1.6996  -1.6549  -1.6466
    -1.6351  -1.5719  -1.5208  -1.4478  -1.4181  -1.3885  -1.3559  -1.2281
    -1.2161  -1.1219  -1.0646  -0.9972  -0.9930  -0.8909  -0.8736  -0.8408
    -0.7855  -0.7743  -0.7543  -0.6644  -0.6613  -0.6302  -0.6005  -0.5817
    -0.5577  -0.5207  -0.5012  -0.4926  -0.4674  -0.4032  -0.3866  -0.3372
    -0.2904  -0.1655   0.1235   0.5413   1.1598   1.1689   1.4058   1.9050
     2.3323   2.8061   3.3867   3.4692   3.5514   4.6892   5.2170

          k = 0.0000 0.0742 0.0000 ( 14316 PWs)   bands (ev):

  -111.6768-111.6733-111.6721-111.4253-111.4221-111.4207-111.3458-111.1485
  -111.1440-111.1415-111.1407-111.1152 -69.1755 -69.1496 -69.1410 -69.0564
   -69.0527 -69.0377 -69.0257 -69.0134 -69.0083 -68.8413 -68.8323 -68.8307
   -68.8246 -68.8211 -68.8195 -68.8113 -68.8022 -68.7902 -68.7452 -68.7390
   -68.7342 -68.5918 -68.5888 -68.5815 -68.5574 -68.5558 -68.5468 -68.5450
   -68.5442 -68.5436 -68.5341 -68.5035 -68.4999 -68.4981 -68.4977 -68.4790
   -13.6830  -7.3080  -6.0937  -4.7537  -4.1911  -4.0677  -3.7731  -3.3046
    -3.2251  -3.1490  -3.0465  -2.9461  -2.9158  -2.8446  -2.7422  -2.7325
    -2.5775  -2.5092  -2.4467  -2.2239  -2.2064  -2.1905  -2.1294  -2.0871
    -1.9420  -1.9354  -1.9032  -1.8431  -1.8245  -1.7351  -1.6957  -1.6951
    -1.6360  -1.5923  -1.5492  -1.5439  -1.5143  -1.4713  -1.4286  -1.3849
    -1.3118  -1.2730  -1.2119  -1.2118  -1.1548  -1.1331  -1.1069  -1.0357
    -0.9988  -0.9980  -0.9412  -0.8889  -0.8230  -0.7949  -0.7715  -0.7536
    -0.7289  -0.6716  -0.6396  -0.5603  -0.5265  -0.5024  -0.4753  -0.4296
    -0.3856  -0.3267  -0.2071   0.4583   1.0070   1.1464   1.4457   2.1437
     2.4895   3.0338   3.4752   4.1643   4.6970   4.9705   5.4093

          k = 0.0000-0.1114 0.0000 ( 14294 PWs)   bands (ev):

  -111.6762-111.6740-111.6721-111.4245-111.4229-111.4207-111.3459-111.1478
  -111.1444-111.1418-111.1407-111.1152 -69.1706 -69.1539 -69.1406 -69.0561
   -69.0502 -69.0404 -69.0232 -69.0166 -69.0085 -68.8389 -68.8266 -68.8240
   -68.8221 -68.8195 -68.8195 -68.8163 -68.8130 -68.7903 -68.7451 -68.7414
   -68.7348 -68.5880 -68.5840 -68.5675 -68.5635 -68.5596 -68.5594 -68.5454
   -68.5443 -68.5408 -68.5370 -68.5022 -68.5011 -68.4982 -68.4976 -68.4790
   -13.6734  -7.1977  -5.5303  -5.1559  -4.3815  -4.0279  -3.5700  -3.3431
    -3.1071  -3.0476  -2.9215  -2.8786  -2.8229  -2.7884  -2.5649  -2.5415
    -2.5365  -2.4288  -2.4268  -2.3514  -2.1985  -2.1786  -2.1311  -2.1117
    -2.0615  -2.0564  -1.9750  -1.9260  -1.8927  -1.8496  -1.7494  -1.7325
    -1.6649  -1.6286  -1.5531  -1.5341  -1.5100  -1.4801  -1.4780  -1.4711
    -1.4370  -1.4164  -1.3902  -1.3223  -1.2578  -1.1996  -1.1711  -1.1700
    -1.1041  -1.0565  -1.0193  -0.9635  -0.9147  -0.8787  -0.8578  -0.8554
    -0.7844  -0.7534  -0.7364  -0.6442  -0.5426  -0.5117  -0.4921  -0.4178
    -0.3830  -0.2224  -0.0849   0.0721   1.0701   1.1595   1.8225   2.1631
     2.5463   2.6456   4.1187   4.5579   4.7713   5.0987   5.1678

          k = 0.0321-0.0186 0.0000 ( 14383 PWs)   bands (ev):

  -111.6777-111.6724-111.6721-111.4262-111.4212-111.4208-111.3458-111.1495
  -111.1436-111.1410-111.1407-111.1152 -69.1823 -69.1442 -69.1419 -69.0571
   -69.0560 -69.0342 -69.0284 -69.0093 -69.0079 -68.8469 -68.8391 -68.8389
   -68.8258 -68.8200 -68.8196 -68.8064 -68.7924 -68.7895 -68.7452 -68.7346
   -68.7330 -68.5976 -68.5963 -68.5926 -68.5508 -68.5500 -68.5467 -68.5442
   -68.5439 -68.5344 -68.5310 -68.5047 -68.4990 -68.4979 -68.4976 -68.4790
   -13.7021  -7.5299  -6.5215  -4.7489  -4.1748  -4.1391  -3.6246  -3.4995
    -3.3199  -3.2710  -3.1237  -3.0650  -3.0320  -2.9643  -2.8533  -2.8460
    -2.7116  -2.6711  -2.6623  -2.2152  -2.2128  -2.1847  -2.0398  -1.9647
    -1.8967  -1.8399  -1.7976  -1.7970  -1.7661  -1.6996  -1.6548  -1.6466
    -1.6351  -1.5719  -1.5208  -1.4479  -1.4181  -1.3885  -1.3558  -1.2281
    -1.2161  -1.1219  -1.0646  -0.9972  -0.9930  -0.8909  -0.8736  -0.8408
    -0.7855  -0.7744  -0.7543  -0.6644  -0.6614  -0.6302  -0.6005  -0.5817
    -0.5577  -0.5207  -0.5012  -0.4926  -0.4674  -0.4031  -0.3866  -0.3372
    -0.2904  -0.1655   0.1236   0.5413   1.1598   1.1689   1.4058   1.9050
     2.3323   2.8061   3.3867   3.4692   3.5514   4.6892   5.2170

          k = 0.0321 0.0186 0.0000 ( 14383 PWs)   bands (ev):

  -111.6777-111.6724-111.6721-111.4262-111.4211-111.4209-111.3458-111.1495
[...]
    -0.7941  -0.7395  -0.7023  -0.6923  -0.6577  -0.6222  -0.5899  -0.5436
    -0.4945  -0.3962  -0.1447  -0.1263   0.7512   0.9199   1.1400   2.2869
     2.7625   3.1797   3.3705   3.5444   3.6708   4.8174   5.5566

          k = 0.0643-0.0371 0.0000 ( 14316 PWs)   bands (ev):

  -111.6053-111.6017-111.6001-111.5996-111.5964-111.5954-111.5233-111.3223
  -111.3168-111.3155-111.3142-111.3133 -69.0667 -69.0382 -69.0310 -69.0225
   -69.0142 -69.0137 -69.0092 -69.0045 -69.0035 -68.9949 -68.9926 -68.9910
   -68.9819 -68.9812 -68.9699 -68.9612 -68.9543 -68.9496 -68.9168 -68.9162
   -68.9118 -68.7640 -68.7610 -68.7538 -68.7386 -68.7370 -68.7298 -68.7277
   -68.7190 -68.7158 -68.7063 -68.6834 -68.6787 -68.6740 -68.6717 -68.6708
   -12.9980  -6.8742  -6.0974  -4.6370  -4.3204  -3.6410  -3.5469  -3.4203
    -3.3410  -3.2365  -3.1548  -2.9841  -2.9480  -2.9212  -2.8542  -2.8270
    -2.6631  -2.6058  -2.5431  -2.3451  -2.3019  -2.2972  -2.2339  -2.1465
    -2.1061  -2.0159  -2.0090  -1.9431  -1.9015  -1.8850  -1.8125  -1.7385
    -1.7356  -1.6962  -1.6803  -1.6630  -1.6368  -1.6277  -1.5386  -1.4576
    -1.4020  -1.3776  -1.3421  -1.3390  -1.2868  -1.2469  -1.2363  -1.1734
    -1.1451  -1.1220  -1.0744  -0.9758  -0.9467  -0.9432  -0.9093  -0.9073
    -0.8578  -0.8167  -0.7627  -0.7221  -0.6608  -0.6548  -0.6231  -0.5792
    -0.5372  -0.4839  -0.2654   0.2523   0.8806   0.9789   1.2218   2.0472
     2.2928   2.8362   3.3636   4.0960   4.5617   4.8786   5.4832

          k = 0.0643-0.0000 0.0000 ( 14335 PWs)   bands (ev):

  -111.6056-111.6014-111.6002-111.5998-111.5962-111.5954-111.5233-111.3225
  -111.3167-111.3155-111.3142-111.3132 -69.0685 -69.0378 -69.0320 -69.0234
   -69.0174 -69.0149 -69.0099 -69.0043 -69.0026 -68.9946 -68.9922 -68.9912
   -68.9808 -68.9768 -68.9711 -68.9615 -68.9530 -68.9497 -68.9167 -68.9149
   -68.9119 -68.7660 -68.7613 -68.7588 -68.7381 -68.7370 -68.7307 -68.7203
   -68.7199 -68.7147 -68.7056 -68.6835 -68.6789 -68.6739 -68.6716 -68.6707
   -13.0024  -7.0003  -6.1905  -4.6013  -4.0311  -3.9325  -3.5560  -3.4927
    -3.3769  -3.2674  -3.1860  -3.0048  -2.9682  -2.9556  -2.9105  -2.8266
    -2.6996  -2.6373  -2.5949  -2.3462  -2.3048  -2.2721  -2.1815  -2.1036
    -2.0612  -1.9948  -1.9701  -1.9611  -1.9131  -1.8217  -1.7944  -1.7670
    -1.7349  -1.7052  -1.6810  -1.6791  -1.6454  -1.5768  -1.4990  -1.4395
    -1.3700  -1.3162  -1.2623  -1.2402  -1.2087  -1.2074  -1.1846  -1.1518
    -1.1201  -1.0518  -1.0350  -0.9338  -0.8952  -0.8823  -0.8636  -0.8414
    -0.7941  -0.7395  -0.7023  -0.6923  -0.6577  -0.6222  -0.5899  -0.5436
    -0.4945  -0.3962  -0.1447  -0.1263   0.7512   0.9199   1.1400   2.2869
     2.7625   3.1797   3.3705   3.5444   3.6708   4.8174   5.5565

          k = 0.0643 0.0371 0.0000 ( 14316 PWs)   bands (ev):

  -111.6053-111.6017-111.6001-111.5996-111.5964-111.5954-111.5233-111.3223
  -111.3168-111.3155-111.3142-111.3133 -69.0667 -69.0382 -69.0310 -69.0225
   -69.0142 -69.0137 -69.0092 -69.0045 -69.0035 -68.9949 -68.9926 -68.9910
   -68.9819 -68.9812 -68.9699 -68.9612 -68.9543 -68.9496 -68.9168 -68.9162
   -68.9118 -68.7640 -68.7610 -68.7538 -68.7386 -68.7370 -68.7298 -68.7277
   -68.7190 -68.7158 -68.7063 -68.6834 -68.6787 -68.6740 -68.6717 -68.6708
   -12.9980  -6.8742  -6.0974  -4.6370  -4.3204  -3.6410  -3.5469  -3.4203
    -3.3410  -3.2365  -3.1548  -2.9841  -2.9480  -2.9212  -2.8542  -2.8270
    -2.6631  -2.6058  -2.5431  -2.3451  -2.3019  -2.2972  -2.2339  -2.1465
    -2.1061  -2.0159  -2.0090  -1.9431  -1.9015  -1.8850  -1.8125  -1.7385
    -1.7356  -1.6962  -1.6803  -1.6630  -1.6368  -1.6277  -1.5386  -1.4576
    -1.4020  -1.3776  -1.3421  -1.3390  -1.2868  -1.2469  -1.2363  -1.1734
    -1.1451  -1.1220  -1.0744  -0.9758  -0.9467  -0.9432  -0.9093  -0.9073
    -0.8578  -0.8167  -0.7627  -0.7221  -0.6608  -0.6548  -0.6231  -0.5792
    -0.5372  -0.4839  -0.2654   0.2523   0.8806   0.9789   1.2218   2.0472
     2.2928   2.8362   3.3636   4.0960   4.5617   4.8786   5.4832

          k = 0.0643-0.1485 0.0000 ( 14299 PWs)   bands (ev):

  -111.6045-111.6023-111.6003-111.5991-111.5968-111.5954-111.5233-111.3218
  -111.3167-111.3155-111.3150-111.3131 -69.0621 -69.0407 -69.0290 -69.0182
   -69.0121 -69.0088 -69.0069 -69.0051 -69.0027 -68.9975 -68.9950 -68.9906
   -68.9870 -68.9829 -68.9724 -68.9598 -68.9560 -68.9501 -68.9175 -68.9163
   -68.9133 -68.7597 -68.7535 -68.7466 -68.7398 -68.7390 -68.7376 -68.7295
   -68.7230 -68.7158 -68.7098 -68.6833 -68.6783 -68.6739 -68.6723 -68.6706
   -12.9892  -6.6371  -5.7425  -4.8562  -4.2103  -4.0071  -3.5923  -3.3521
    -3.1570  -3.0750  -3.0062  -2.8875  -2.8614  -2.8085  -2.7410  -2.7193
    -2.5815  -2.5369  -2.4988  -2.3827  -2.3609  -2.3359  -2.2853  -2.2665
    -2.1811  -2.1242  -2.0931  -2.0070  -1.9523  -1.9063  -1.8777  -1.8433
    -1.8006  -1.7650  -1.7299  -1.7037  -1.6848  -1.6404  -1.6011  -1.5473
    -1.5341  -1.5190  -1.4914  -1.4366  -1.3785  -1.2867  -1.2504  -1.2407
    -1.2134  -1.1358  -1.0902  -1.0547  -1.0221  -0.9822  -0.9667  -0.9242
    -0.8530  -0.8360  -0.7761  -0.7239  -0.7007  -0.6748  -0.6455  -0.6333
    -0.5959  -0.4312  -0.2855  -0.0597   0.1341   0.8986   1.6657   2.4113
     2.6559   3.3303   3.8186   4.1399   4.7541   5.0195   5.3901

          k = 0.0643-0.1114 0.0000 ( 14310 PWs)   bands (ev):

  -111.6039-111.6029-111.6004-111.5988-111.5971-111.5955-111.5234-111.3216
  -111.3160-111.3160-111.3155-111.3130 -69.0588 -69.0432 -69.0280 -69.0134
   -69.0102 -69.0094 -69.0052 -69.0049 -69.0045 -68.9979 -68.9959 -68.9890
   -68.9888 -68.9846 -68.9754 -68.9585 -68.9571 -68.9505 -68.9161 -68.9160
   -68.9159 -68.7518 -68.7514 -68.7422 -68.7420 -68.7411 -68.7385 -68.7385
   -68.7174 -68.7174 -68.7144 -68.6832 -68.6781 -68.6734 -68.6733 -68.6704
   -12.9849  -6.5450  -5.0957  -5.0481  -4.7751  -3.8259  -3.7541  -3.3558
    -3.1126  -2.8862  -2.8222  -2.7671  -2.7622  -2.7205  -2.6824  -2.6675
    -2.5700  -2.5111  -2.5103  -2.4923  -2.4919  -2.3510  -2.3229  -2.3085
    -2.2618  -2.1443  -2.0824  -2.0479  -2.0406  -1.9924  -1.9627  -1.9558
    -1.9402  -1.8757  -1.7501  -1.7218  -1.6872  -1.6537  -1.6452  -1.6078
    -1.6029  -1.5104  -1.5099  -1.4476  -1.3400  -1.3228  -1.2483  -1.1888
    -1.1607  -1.1265  -1.0977  -1.0361  -0.9872  -0.9470  -0.9013  -0.9002
    -0.8216  -0.7603  -0.7581  -0.7379  -0.7157  -0.6919  -0.6831  -0.6644
    -0.6615  -0.6603  -0.5522   0.0236   0.1421   0.2055   2.2601   2.3305
     2.6480   4.4733   4.5494   4.6159   4.9892   5.0434   5.1344

          k = 0.0643-0.0742 0.0000 ( 14299 PWs)   bands (ev):

  -111.6045-111.6023-111.6003-111.5991-111.5968-111.5954-111.5233-111.3218
  -111.3167-111.3155-111.3150-111.3131 -69.0621 -69.0407 -69.0290 -69.0182
   -69.0121 -69.0088 -69.0069 -69.0051 -69.0027 -68.9975 -68.9950 -68.9906
   -68.9870 -68.9829 -68.9724 -68.9598 -68.9560 -68.9501 -68.9175 -68.9163
   -68.9133 -68.7597 -68.7535 -68.7466 -68.7398 -68.7390 -68.7376 -68.7295
   -68.7230 -68.7158 -68.7098 -68.6833 -68.6783 -68.6739 -68.6723 -68.6706
   -12.9892  -6.6371  -5.7425  -4.8562  -4.2103  -4.0071  -3.5923  -3.3521
    -3.1570  -3.0750  -3.0062  -2.8875  -2.8614  -2.8085  -2.7410  -2.7193
    -2.5815  -2.5369  -2.4988  -2.3827  -2.3609  -2.3359  -2.2853  -2.2665
    -2.1811  -2.1242  -2.0931  -2.0070  -1.9523  -1.9063  -1.8777  -1.8433
    -1.8006  -1.7650  -1.7299  -1.7037  -1.6848  -1.6404  -1.6011  -1.5473
    -1.5341  -1.5190  -1.4914  -1.4366  -1.3785  -1.2867  -1.2504  -1.2407
    -1.2134  -1.1358  -1.0902  -1.0547  -1.0221  -0.9822  -0.9667  -0.9242
    -0.8530  -0.8360  -0.7761  -0.7239  -0.7007  -0.6748  -0.6455  -0.6333
    -0.5959  -0.4312  -0.2855  -0.0597   0.1341   0.8986   1.6657   2.4113
     2.6559   3.3304   3.8186   4.1399   4.7541   5.0195   5.3901

          k =-0.0964 0.0557 0.0000 ( 14294 PWs)   bands (ev):

  -111.6045-111.6025-111.6001-111.5991-111.5970-111.5954-111.5233-111.3218
  -111.3170-111.3155-111.3146-111.3133 -69.0625 -69.0400 -69.0288 -69.0199
   -69.0105 -69.0088 -69.0064 -69.0055 -69.0023 -68.9951 -68.9950 -68.9914
   -68.9904 -68.9840 -68.9699 -68.9596 -68.9569 -68.9497 -68.9186 -68.9162
   -68.9124 -68.7603 -68.7562 -68.7402 -68.7394 -68.7372 -68.7354 -68.7320
   -68.7314 -68.7129 -68.7093 -68.6833 -68.6783 -68.6742 -68.6719 -68.6708
   -12.9892  -6.6116  -5.6081  -5.2904  -4.1740  -3.6938  -3.4385  -3.3545
    -3.1615  -3.0949  -3.0489  -2.9633  -2.9358  -2.8325  -2.7211  -2.6653
    -2.5932  -2.5531  -2.4979  -2.4535  -2.3124  -2.2967  -2.2538  -2.2418
    -2.2076  -2.1638  -2.0354  -1.9658  -1.9141  -1.9035  -1.8856  -1.8047
    -1.7750  -1.7583  -1.6713  -1.6619  -1.6574  -1.6551  -1.6342  -1.5984
    -1.5745  -1.5529  -1.5187  -1.3894  -1.3495  -1.3444  -1.3016  -1.2560
    -1.2048  -1.1648  -1.1394  -1.0796  -1.0789  -1.0237  -1.0041  -0.9995
    -0.9426  -0.8922  -0.8906  -0.7684  -0.6769  -0.6622  -0.6334  -0.5767
    -0.5343  -0.2679  -0.2542  -0.1456   0.9408   0.9886   1.7183   1.9212
     2.3353   2.3766   4.0907   4.4426   4.5483   4.9653   5.3454

          k =-0.0964 0.0928 0.0000 ( 14299 PWs)   bands (ev):

  -111.6045-111.6023-111.6003-111.5991-111.5968-111.5955-111.5233-111.3218
  -111.3167-111.3155-111.3150-111.3131 -69.0621 -69.0407 -69.0290 -69.0182
   -69.0122 -69.0088 -69.0069 -69.0051 -69.0027 -68.9975 -68.9950 -68.9906
   -68.9870 -68.9829 -68.9724 -68.9598 -68.9560 -68.9501 -68.9175 -68.9163
   -68.9133 -68.7597 -68.7535 -68.7466 -68.7398 -68.7390 -68.7376 -68.7295
   -68.7230 -68.7158 -68.7098 -68.6833 -68.6783 -68.6739 -68.6723 -68.6706
   -12.9892  -6.6371  -5.7425  -4.8562  -4.2103  -4.0071  -3.5923  -3.3521
    -3.1570  -3.0750  -3.0063  -2.8875  -2.8614  -2.8085  -2.7410  -2.7193
    -2.5815  -2.5369  -2.4988  -2.3827  -2.3609  -2.3359  -2.2853  -2.2665
    -2.1811  -2.1242  -2.0931  -2.0070  -1.9523  -1.9063  -1.8777  -1.8433
    -1.8006  -1.7650  -1.7299  -1.7037  -1.6848  -1.6404  -1.6011  -1.5473
    -1.5341  -1.5190  -1.4914  -1.4366  -1.3785  -1.2867  -1.2503  -1.2407
    -1.2134  -1.1358  -1.0902  -1.0546  -1.0221  -0.9822  -0.9667  -0.9242
    -0.8530  -0.8360  -0.7761  -0.7239  -0.7007  -0.6748  -0.6455  -0.6333
    -0.5959  -0.4311  -0.2855  -0.0597   0.1341   0.8986   1.6657   2.4113
     2.6559   3.3303   3.8186   4.1399   4.7541   5.0195   5.3901

          k =-0.0964 0.1299 0.0000 ( 14299 PWs)   bands (ev):

  -111.6045-111.6023-111.6003-111.5991-111.5968-111.5955-111.5233-111.3218
  -111.3167-111.3155-111.3150-111.3131 -69.0621 -69.0407 -69.0290 -69.0182
   -69.0122 -69.0088 -69.0069 -69.0051 -69.0027 -68.9975 -68.9950 -68.9906
   -68.9870 -68.9829 -68.9724 -68.9598 -68.9560 -68.9501 -68.9175 -68.9163
   -68.9133 -68.7597 -68.7535 -68.7466 -68.7398 -68.7390 -68.7376 -68.7295
   -68.7230 -68.7158 -68.7098 -68.6833 -68.6783 -68.6739 -68.6723 -68.6706
   -12.9892  -6.6371  -5.7425  -4.8562  -4.2103  -4.0071  -3.5923  -3.3521
    -3.1570  -3.0750  -3.0063  -2.8875  -2.8614  -2.8085  -2.7410  -2.7193
    -2.5815  -2.5369  -2.4988  -2.3827  -2.3609  -2.3359  -2.2853  -2.2665
    -2.1811  -2.1242  -2.0931  -2.0070  -1.9523  -1.9063  -1.8777  -1.8433
    -1.8006  -1.7650  -1.7299  -1.7037  -1.6848  -1.6404  -1.6011  -1.5473
    -1.5341  -1.5190  -1.4914  -1.4366  -1.3785  -1.2867  -1.2503  -1.2407
    -1.2134  -1.1358  -1.0902  -1.0546  -1.0221  -0.9822  -0.9667  -0.9242
    -0.8530  -0.8360  -0.7761  -0.7239  -0.7007  -0.6748  -0.6455  -0.6333
    -0.5959  -0.4311  -0.2855  -0.0597   0.1341   0.8986   1.6657   2.4113
     2.6559   3.3303   3.8186   4.1399   4.7541   5.0195   5.3901

          k =-0.0964-0.0557 0.0000 ( 14294 PWs)   bands (ev):

  -111.6045-111.6025-111.6001-111.5991-111.5970-111.5954-111.5233-111.3218
  -111.3170-111.3155-111.3146-111.3133 -69.0625 -69.0400 -69.0288 -69.0199
   -69.0105 -69.0088 -69.0064 -69.0055 -69.0023 -68.9951 -68.9950 -68.9914
   -68.9904 -68.9840 -68.9699 -68.9596 -68.9569 -68.9497 -68.9186 -68.9162
   -68.9124 -68.7603 -68.7562 -68.7402 -68.7394 -68.7372 -68.7354 -68.7320
   -68.7314 -68.7129 -68.7093 -68.6833 -68.6783 -68.6742 -68.6719 -68.6708
   -12.9892  -6.6116  -5.6081  -5.2904  -4.1740  -3.6938  -3.4385  -3.3545
    -3.1615  -3.0949  -3.0489  -2.9633  -2.9358  -2.8325  -2.7211  -2.6653
    -2.5932  -2.5531  -2.4979  -2.4535  -2.3124  -2.2967  -2.2538  -2.2418
    -2.2076  -2.1638  -2.0354  -1.9658  -1.9141  -1.9035  -1.8856  -1.8047
    -1.7750  -1.7583  -1.6713  -1.6619  -1.6574  -1.6551  -1.6342  -1.5984
    -1.5745  -1.5529  -1.5187  -1.3894  -1.3495  -1.3444  -1.3016  -1.2560
    -1.2048  -1.1648  -1.1394  -1.0796  -1.0789  -1.0237  -1.0041  -0.9995
    -0.9426  -0.8922  -0.8906  -0.7684  -0.6769  -0.6622  -0.6334  -0.5767
    -0.5343  -0.2679  -0.2542  -0.1456   0.9408   0.9886   1.7183   1.9212
     2.3353   2.3766   4.0907   4.4426   4.5483   4.9653   5.3454

     the Fermi energy is     1.0056 ev

!    total energy              =   -4884.88336535 Ry
     Harris-Foulkes estimate   =   -4884.88336511 Ry
     estimated scf accuracy    <       0.00000002 Ry

     The total energy is the sum of the following terms:

     one-electron contribution =  -37989.41301233 Ry
     hartree contribution      =   19015.18461612 Ry
     xc contribution           =    -489.71078245 Ry
     ewald contribution        =   14579.08534856 Ry
     electric field correction =       0.00013300 Ry
     smearing contrib. (-TS)   =      -0.02966823 Ry

     convergence has been achieved in   7 iterations
 
 BEEF-vdW xc energy contributions
           1 :   -433.701461432111     
           2 :    393.002375953847     
           3 :   -324.047519104429     
           4 :    245.776395652081     
           5 :   -175.457714858663     
           6 :    122.549507635501     
           7 :   -87.1873763831959     
           8 :    63.2809869182448     
           9 :   -43.8161898049203     
          10 :    25.1049426551696     
          11 :   -7.85121837748454     
          12 :   -4.89155090495984     
          13 :    10.9262386640065     
          14 :   -10.9507273785409     
          15 :    8.23281826711764     
          16 :   -6.47128023632843     
          17 :    7.52834348795898     
          18 :   -10.5982067837958     
          19 :    13.2256302160901     
          20 :   -13.3019782215570     
          21 :    10.5901299119095     
          22 :   -6.78666822484820     
          23 :    4.21392581776297     
          24 :   -4.16710276536827     
          25 :    6.09099394603504     
          26 :   -8.09861049828123     
          27 :    8.38001293064696     
          28 :   -6.46883068125265     
          29 :    3.49563861756383     
          30 :   -1.31070829057813     
          31 :   -34.8586629115204     
          32 :   -23.8189581696986     

     Forces acting on atoms (Ry/au):


     negative rho (up, down):  9.431E-04 0.000E+00
     atom    1 type  1   force =     0.00080533    0.00046498    0.00299091
     atom    2 type  1   force =    -0.00080535    0.00046493    0.00299105
     atom    3 type  1   force =    -0.00000005   -0.00093009    0.00299049
     atom    4 type  1   force =    -0.00000000   -0.00000021    0.00101461
     atom    5 type  1   force =    -0.00000004    0.00465180   -0.00270716
     atom    6 type  1   force =    -0.00000005   -0.00000001   -0.00312392
     atom    7 type  1   force =    -0.00403045   -0.00232509   -0.00269833
     atom    8 type  1   force =     0.00403058   -0.00232507   -0.00269817
     atom    9 type  1   force =    -0.00000008   -0.00001312    0.00175138
     atom   10 type  1   force =    -0.00000021    0.00006589   -0.00045074
     atom   11 type  1   force =     0.00007921   -0.00002902   -0.00044522
     atom   12 type  1   force =    -0.00007896   -0.00002879   -0.00044491
     atom   13 type  2   force =     0.00000007    0.00000623    0.00050223
     atom   14 type  3   force =     0.00000000   -0.00000244    0.00032778

     Total force =     0.002011     Total SCF correction =     0.000550
     SCF correction compared to forces is large: reduce conv_thr to get better values


     entering subroutine stress ...


     negative rho (up, down):  9.431E-04 0.000E+00
          total   stress  (Ry/bohr**3)                   (kbar)     P=  -16.01
  -0.00011569  -0.00000000   0.00000000        -17.02     -0.00      0.00
  -0.00000000  -0.00011569  -0.00000000         -0.00    -17.02     -0.00
   0.00000000  -0.00000000  -0.00009515          0.00     -0.00    -14.00


     bfgs converged in  15 scf cycles and  14 bfgs steps
     (criteria: energy <  1.0E+00, force <  1.9E-03)

     End of BFGS Geometry Optimization

     Final energy   =   -4884.8833653463 Ry
Begin final coordinates

ATOMIC_POSITIONS (crystal)
Cu1      0.166666667   0.166666667   0.412653782    0   0   0
Cu1      0.666666667   0.166666667   0.412653782    0   0   0
Cu1      0.166666667   0.666666667   0.412653782    0   0   0
Cu1      0.666666667   0.666666667   0.412653782    0   0   0
Cu1      0.833333333   0.333333333   0.500000000    0   0   0
Cu1      0.333333333   0.333333333   0.500000000    0   0   0
Cu1      0.833333333   0.833333333   0.500000000    0   0   0
Cu1      0.333333333   0.833333333   0.500000000    0   0   0
Cu1     -0.000002173   0.000004837   0.583016705
Cu1      0.505058184  -0.010116274   0.586667441
Cu1     -0.010131504   0.505062072   0.586666217
Cu1      0.505069187   0.505061586   0.586666156
S1       0.333330229   0.333338479   0.658485301
H1       0.333337569   0.333324484   0.714770992
End final coordinates



     Writing output data file calc.save
 
     init_run     :      4.66s CPU      7.13s WALL (       1 calls)
     electrons    :   2516.30s CPU   2806.03s WALL (      15 calls)
     update_pot   :     14.70s CPU     16.41s WALL (      14 calls)
     forces       :     42.40s CPU     44.87s WALL (      15 calls)
     stress       :    154.42s CPU    162.27s WALL (      15 calls)

     Called by init_run:
     wfcinit      :      3.03s CPU      5.15s WALL (       1 calls)
     potinit      :      0.51s CPU      0.63s WALL (       1 calls)

     Called by electrons:
     c_bands      :   1975.65s CPU   2180.89s WALL (     173 calls)
     sum_band     :    263.42s CPU    279.14s WALL (     173 calls)
     v_of_rho     :     53.91s CPU     71.95s WALL (     187 calls)
     newd         :     98.67s CPU    103.43s WALL (     187 calls)
     mix_rho      :      1.80s CPU      1.87s WALL (     173 calls)
     vdW_energy   :     45.41s CPU     58.13s WALL (     727 calls)
     vdW_ffts     :     61.18s CPU     86.45s WALL (    1484 calls)
     vdW_v        :     26.66s CPU     31.88s WALL (     727 calls)

     Called by c_bands:
     init_us_2    :      9.30s CPU      9.71s WALL (    7540 calls)
     cegterg      :   1905.75s CPU   2109.42s WALL (    3480 calls)

     Called by *egterg:
     h_psi        :    784.80s CPU    872.43s WALL (   17151 calls)
     s_psi        :     67.44s CPU     69.25s WALL (   17151 calls)
     g_psi        :      8.26s CPU      8.29s WALL (   13651 calls)
     cdiaghg      :    697.85s CPU    709.77s WALL (   16831 calls)

     Called by h_psi:
     add_vuspsi   :     66.58s CPU     68.52s WALL (   17151 calls)

     General routines
     calbec       :    114.05s CPU    116.43s WALL (   21211 calls)
     fft          :     98.56s CPU    136.05s WALL (   43905 calls)
     ffts         :      0.26s CPU      0.28s WALL (     360 calls)
     fftw         :    639.51s CPU    729.71s WALL ( 2682374 calls)
     interpolate  :      1.28s CPU      1.37s WALL (     360 calls)
     davcio       :      0.02s CPU      0.30s WALL (      20 calls)
 
     Parallel routines
     fft_scatter  :    383.03s CPU    449.51s WALL ( 2726639 calls)
 
     PWSCF        : 45m43.23s CPU    50m56.34s WALL

 
   This run was terminated on:   9:32: 6  17Apr2018            

=------------------------------------------------------------------------------=
   JOB DONE.
=------------------------------------------------------------------------------=
