  python dir    : /nfs/slac/g/suncatfs/mamunm/src/decaf-espresso/decaf
espresso dir  : /nfs/slac/g/suncatfs/sw/espv18/espresso-dynpy-beef/bin/pw.x
executable    : pam -g /afs/slac/g/suncat/bin/suncat-tsmpirun -x LD_LIBRARY_PATH -wdir /tmp/qe_379027gt490hid_scratch pw.x -npool 3 -in pw.pwi

     Program PWSCF v.5.1rc2 (svn rev. 11289) starts on 17Jan2019 at  0:51: 8 

     This program is part of the open-source Quantum ESPRESSO suite
     for quantum simulation of materials; please cite
         "P. Giannozzi et al., J. Phys.:Condens. Matter 21 395502 (2009);
          URL http://www.quantum-espresso.org", 
     in publications or presentations arising from this work. More details at
     http://www.quantum-espresso.org/quote

     Parallel version (MPI), running on    36 processors
     K-points division:     npool     =       3
     R & G space division:  proc/nbgrp/npool/nimage =      12
     Reading input from pw.pwi
Warning: card &CELL ignored
Warning: card / ignored

     Current dimensions of program PWSCF are:
     Max number of different atomic species (ntypx) = 10
     Max number of k-points (npk) =  40000
     Max angular momentum in pseudopotentials (lmaxx) =  3

     **************************************************************************
     Initializing libbeef V0.1.1 with the BEEF-vdW functional.
     Citation: Wellendorff et al., PRB 85, 235149 (2012).
     **************************************************************************


     IMPORTANT: XC functional enforced from input :
     Exchange-correlation      = BEEF-VDW ( 1  4 27 13 2)
     Any further DFT definition will be discarded
     Please, verify this is what you really want


     Subspace diagonalization in iterative solution of the eigenvalue problem:
     a serial algorithm will be used

 
     Parallelization info
     --------------------
     sticks:   dense  smooth     PW     G-vecs:    dense   smooth      PW
     Min         340     136     38                66826    16906    2568
     Max         341     137     39                66845    16933    2579
     Sum        4081    1639    463               801953   203051   30885
 


     bravais-lattice index     =            0
     lattice parameter (alat)  =      12.7122  a.u.
     unit-cell volume          =    6741.9071 (a.u.)^3
     number of atoms/cell      =           13
     number of atomic types    =            2
     number of electrons       =       169.00
     number of Kohn-Sham states=           94
     kinetic-energy cutoff     =      36.7493  Ry
     charge density cutoff     =     367.4933  Ry
     convergence threshold     =      1.0E-04
     mixing beta               =       0.2000
     number of iterations used =            8  plain     mixing
     Exchange-correlation      = BEEF-VDW ( 1  4 27 13 2)
     nstep                     =           50


     celldm(1)=  12.712175  celldm(2)=   0.000000  celldm(3)=   0.000000
     celldm(4)=   0.000000  celldm(5)=   0.000000  celldm(6)=   0.000000

     crystal axes: (cart. coord. in units of alat)
               a(1) = (   1.000000   0.000000   0.000000 )  
               a(2) = (   0.500000   0.866025   0.000000 )  
               a(3) = (   0.000000   0.000000   3.789593 )  

     reciprocal axes: (cart. coord. in units 2 pi/alat)
               b(1) = (  1.000000 -0.577350  0.000000 )  
               b(2) = (  0.000000  1.154701  0.000000 )  
               b(3) = (  0.000000  0.000000  0.263881 )  


     PseudoPot. # 1 for Sn read from file:
     /nfs/slac/g/suncatfs/mamunm/src/decaf-espresso/gbrv15pbe/Sn.UPF
     MD5 check sum: 469debedee59599fedebd795477fea03
     Pseudo is Ultrasoft + core correction, Zval = 14.0
     Generated by new atomic code, or converted to UPF format
     Using radial grid of  891 points,  6 beta functions with: 
                l(1) =   0
                l(2) =   0
                l(3) =   1
                l(4) =   1
                l(5) =   2
                l(6) =   2
     Q(r) pseudized with  8 coefficients,  rinner =    1.350   1.350   1.350
                                                       1.350   1.350

     PseudoPot. # 2 for H  read from file:
     /nfs/slac/g/suncatfs/mamunm/src/decaf-espresso/gbrv15pbe/H.UPF
     MD5 check sum: 761ae9a214b05c3daf00ab9f6b793d6f
     Pseudo is Ultrasoft, Zval =  1.0
     Generated by new atomic code, or converted to UPF format
     Using radial grid of  615 points,  2 beta functions with: 
                l(1) =   0
                l(2) =   0
     Q(r) pseudized with  8 coefficients,  rinner =    0.700

     vdW kernel table read from file vdW_kernel_table
     MD5 check sum: 095c7af220d748ca6e76c0b4c6cfb241

     atomic species   valence    mass     pseudopotential
        Sn            14.00   118.71000     Sn( 1.00)
        H              1.00     1.00800     H ( 1.00)

     No symmetry found



   Cartesian axes

     site n.     atom                  positions (alat units)
         1           Sn  tau(   1) = (   0.2500000   0.1443376   1.4865483  )
         2           Sn  tau(   2) = (   0.7500000   0.1443376   1.4865483  )
         3           Sn  tau(   3) = (   0.5000000   0.5773503   1.4865483  )
         4           Sn  tau(   4) = (   1.0000000   0.5773503   1.4865483  )
         5           Sn  tau(   5) = (   1.0000000   0.2886751   1.8947966  )
         6           Sn  tau(   6) = (   0.5000000   0.2886751   1.8947966  )
         7           Sn  tau(   7) = (   1.2500000   0.7216878   1.8947966  )
         8           Sn  tau(   8) = (   0.7500000   0.7216878   1.8947966  )
         9           Sn  tau(   9) = (   0.0192136  -0.0027378   2.3488895  )
        10           Sn  tau(  10) = (   0.4807699  -0.0027360   2.3489302  )
        11           Sn  tau(  11) = (   0.2500083   0.4521306   2.2951868  )
        12           Sn  tau(  12) = (   0.7500069   0.4144721   2.2917949  )
        13           H   tau(  13) = (   0.2499920  -0.0059352   2.5480185  )

     number of k points=    20  Fermi-Dirac smearing, width (Ry)=  0.0110
                       cart. coord. in units 2pi/alat
        k(    1) = (   0.0000000   0.0000000   0.0000000), wk =   0.0555556
        k(    2) = (   0.0000000   0.1924501   0.0000000), wk =   0.1111111
        k(    3) = (   0.0000000   0.3849002   0.0000000), wk =   0.1111111
        k(    4) = (   0.0000000  -0.5773503   0.0000000), wk =   0.0555556
        k(    5) = (   0.1666667  -0.0962250   0.0000000), wk =   0.1111111
        k(    6) = (   0.1666667   0.0962250   0.0000000), wk =   0.1111111
        k(    7) = (   0.1666667   0.2886751   0.0000000), wk =   0.1111111
        k(    8) = (   0.1666667  -0.6735753   0.0000000), wk =   0.1111111
        k(    9) = (   0.1666667  -0.4811252   0.0000000), wk =   0.1111111
        k(   10) = (   0.1666667  -0.2886751   0.0000000), wk =   0.1111111
        k(   11) = (   0.3333333  -0.1924501   0.0000000), wk =   0.1111111
        k(   12) = (   0.3333333   0.0000000   0.0000000), wk =   0.1111111
        k(   13) = (   0.3333333   0.1924501   0.0000000), wk =   0.1111111
        k(   14) = (   0.3333333  -0.7698004   0.0000000), wk =   0.1111111
        k(   15) = (   0.3333333  -0.5773503   0.0000000), wk =   0.1111111
        k(   16) = (   0.3333333  -0.3849002   0.0000000), wk =   0.1111111
        k(   17) = (  -0.5000000   0.2886751   0.0000000), wk =   0.0555556
        k(   18) = (  -0.5000000   0.4811252   0.0000000), wk =   0.1111111
        k(   19) = (  -0.5000000   0.6735753   0.0000000), wk =   0.1111111
        k(   20) = (  -0.5000000  -0.2886751   0.0000000), wk =   0.0555556

     Dense  grid:   801953 G-vectors     FFT dimensions: (  80,  80, 300)

     Smooth grid:   203051 G-vectors     FFT dimensions: (  50,  50, 192)

     Largest allocated arrays     est. size (Mb)     dimensions
        Kohn-Sham Wavefunctions         3.10 Mb     (    2161,   94)
        NL pseudopotentials             7.19 Mb     (    2161,  218)
        Each V/rho on FFT grid          2.44 Mb     (  160000)
        Each G-vector array             0.51 Mb     (   66828)
        G-vector shells                 0.18 Mb     (   23357)
     Largest temporary arrays     est. size (Mb)     dimensions
        Auxiliary wavefunctions        12.40 Mb     (    2161,  376)
        Each subspace H/S matrix        2.16 Mb     (     376,  376)
        Each <psi_i|beta_j> matrix      0.31 Mb     (     218,   94)
        Arrays for rho mixing          19.53 Mb     (  160000,    8)

     Initial potential from superposition of free atoms
     Check: negative starting charge=   -0.001478

     starting charge  156.99945, renormalised to  169.00000

     negative rho (up, down):  1.591E-03 0.000E+00


     ************************************************************************
     *
     * You are using vdW-DF for exchange-correlation in this calculation.
     * Please cite the following three references that made this development
     * possible:
     *
     *   M. Dion, H. Rydberg, E. Schroder, D. C. Langreth, and
     *   B. I. Lundqvist, Phys. Rev. Lett. 92, 246401 (2004).
     *
     *   T. Thonhauser, V. R. Cooper, S. Li, A. Puzder, P. Hyldgaard, and
     *   D. C. Langreth, Phys. Rev. B 76, 125112 (2007).
     *
     *   G. Roman-Perez and J. M. Soler, Phys. Rev. Lett. 103, 096102 (2009).
     *
     *
     * If you are using vdW-DF2, please also cite:
     *
     *   K. Lee, E. D. Murray, L. Kong, B. I. Lundqvist, and
     *   D. C. Langreth, Phys. Rev. B 82, 081101(R) (2010).
     *
     *
     * If you are calculating the stress with vdW-DF, please also cite:
     *
     *   R. Sabatini, E. Kucukbenli, B. Kolb, T. Thonhauser, and
     *   S. de Gironcoli, J. Phys.: Condens. Matter 24, 424209 (2012).
     *
     ************************************************************************

     Carrying out vdW-DF run using the following parameters:

     Nqs =      20    Nr_points =    1024   r_max =   100.000
     q_mesh =
               0.00001000     0.04494208     0.09755937     0.15916263
               0.23128650     0.31572767     0.41458969     0.53033537
               0.66584808     0.82450364     1.01025438     1.22772762
               1.48234092     1.78043706     2.12944203     2.53805004
               3.01644009     3.57652955     4.23227104     5.00000000

     Gradients computed in reciprocal space

     ************************************************************************


 
     Adding external electric field

     Computed dipole along edir(3) : 
        Dipole               -0.6288 Ry au,         -1.5982 Debye
        Dipole field         -0.0012 Ry au
 
        Potential amp.        0.1016 Ry
        Total length         43.3566 bohr
 
     Starting wfc are  109 randomized atomic wfcs

     total cpu time spent up to now is       14.1 secs

     per-process dynamical memory:    88.3 Mb

     Self-consistent Calculation

     iteration #  1     ecut=    36.75 Ry     beta=0.20
     Davidson diagonalization with overlap
     ethr =  1.00E-02,  avg # of iterations =  4.5

     negative rho (up, down):  5.321E-04 0.000E+00
 
     Adding external electric field

     Computed dipole along edir(3) : 
        Dipole                3.4802 Ry au,          8.8458 Debye
        Dipole field          0.0065 Ry au
 
        Potential amp.       -0.5625 Ry
        Total length         43.3566 bohr
 

     total cpu time spent up to now is       47.7 secs

     total energy              =   -1929.79363044 Ry
     Harris-Foulkes estimate   =   -1935.18095794 Ry
     estimated scf accuracy    <      16.30584333 Ry

     iteration #  2     ecut=    36.75 Ry     beta=0.20
     Davidson diagonalization with overlap
     ethr =  9.65E-03,  avg # of iterations =  4.2

     negative rho (up, down):  2.150E-04 0.000E+00
 
     Adding external electric field

     Computed dipole along edir(3) : 
        Dipole               -1.0516 Ry au,         -2.6730 Debye
        Dipole field         -0.0020 Ry au
 
        Potential amp.        0.1700 Ry
        Total length         43.3566 bohr
 

     total cpu time spent up to now is       74.4 secs

     total energy              =   -1927.89275423 Ry
     Harris-Foulkes estimate   =   -1933.30641048 Ry
     estimated scf accuracy    <      62.08558806 Ry

     iteration #  3     ecut=    36.75 Ry     beta=0.20
     Davidson diagonalization with overlap
     ethr =  9.65E-03,  avg # of iterations =  5.0

     negative rho (up, down):  1.205E-04 0.000E+00
 
     Adding external electric field

     Computed dipole along edir(3) : 
        Dipole               -0.5674 Ry au,         -1.4421 Debye
        Dipole field         -0.0011 Ry au
 
        Potential amp.        0.0917 Ry
        Total length         43.3566 bohr
 

     total cpu time spent up to now is      102.8 secs

     total energy              =   -1929.24308101 Ry
     Harris-Foulkes estimate   =   -1931.30893686 Ry
     estimated scf accuracy    <      10.60002759 Ry

     iteration #  4     ecut=    36.75 Ry     beta=0.20
     Davidson diagonalization with overlap
     ethr =  6.27E-03,  avg # of iterations =  2.5

     negative rho (up, down):  1.065E-04 0.000E+00
 
     Adding external electric field

     Computed dipole along edir(3) : 
        Dipole               -0.4974 Ry au,         -1.2642 Debye
        Dipole field         -0.0009 Ry au
 
        Potential amp.        0.0804 Ry
        Total length         43.3566 bohr
 

     total cpu time spent up to now is      127.4 secs

     total energy              =   -1929.19988604 Ry
     Harris-Foulkes estimate   =   -1929.91017353 Ry
     estimated scf accuracy    <       2.19831873 Ry

     iteration #  5     ecut=    36.75 Ry     beta=0.20
     Davidson diagonalization with overlap
     ethr =  1.30E-03,  avg # of iterations =  2.1

     negative rho (up, down):  1.416E-04 0.000E+00
 
     Adding external electric field

     Computed dipole along edir(3) : 
        Dipole               -0.2389 Ry au,         -0.6073 Debye
        Dipole field         -0.0004 Ry au
 
        Potential amp.        0.0386 Ry
        Total length         43.3566 bohr
 

     total cpu time spent up to now is      151.6 secs

     total energy              =   -1929.34750989 Ry
     Harris-Foulkes estimate   =   -1929.41660876 Ry
     estimated scf accuracy    <       0.24203578 Ry

     iteration #  6     ecut=    36.75 Ry     beta=0.20
     Davidson diagonalization with overlap
     ethr =  1.43E-04,  avg # of iterations =  6.0

     negative rho (up, down):  2.268E-04 0.000E+00
 
     Adding external electric field

     Computed dipole along edir(3) : 
        Dipole               -0.0687 Ry au,         -0.1747 Debye
        Dipole field         -0.0001 Ry au
 
        Potential amp.        0.0111 Ry
        Total length         43.3566 bohr
 

     total cpu time spent up to now is      187.9 secs

     total energy              =   -1929.43771564 Ry
     Harris-Foulkes estimate   =   -1929.46788915 Ry
     estimated scf accuracy    <       0.08151112 Ry

     iteration #  7     ecut=    36.75 Ry     beta=0.20
     Davidson diagonalization with overlap
     ethr =  4.82E-05,  avg # of iterations =  4.7

     negative rho (up, down):  2.407E-04 0.000E+00
 
     Adding external electric field

     Computed dipole along edir(3) : 
        Dipole               -0.0971 Ry au,         -0.2467 Debye
        Dipole field         -0.0002 Ry au
 
        Potential amp.        0.0157 Ry
        Total length         43.3566 bohr
 

     total cpu time spent up to now is      215.5 secs

     total energy              =   -1929.45053252 Ry
     Harris-Foulkes estimate   =   -1929.45653196 Ry
     estimated scf accuracy    <       0.04005983 Ry

     iteration #  8     ecut=    36.75 Ry     beta=0.20
     Davidson diagonalization with overlap
     ethr =  2.37E-05,  avg # of iterations =  2.1

     negative rho (up, down):  4.059E-04 0.000E+00
 
     Adding external electric field

     Computed dipole along edir(3) : 
        Dipole               -0.0772 Ry au,         -0.1963 Debye
        Dipole field         -0.0001 Ry au
 
        Potential amp.        0.0125 Ry
        Total length         43.3566 bohr
 

     total cpu time spent up to now is      239.5 secs

     total energy              =   -1929.45022866 Ry
     Harris-Foulkes estimate   =   -1929.45208113 Ry
     estimated scf accuracy    <       0.00851693 Ry

     iteration #  9     ecut=    36.75 Ry     beta=0.20
     Davidson diagonalization with overlap
     ethr =  5.04E-06,  avg # of iterations =  3.8

     negative rho (up, down):  4.386E-04 0.000E+00
 
     Adding external electric field

     Computed dipole along edir(3) : 
        Dipole               -0.0884 Ry au,         -0.2247 Debye
        Dipole field         -0.0002 Ry au
 
        Potential amp.        0.0143 Ry
        Total length         43.3566 bohr
 

     total cpu time spent up to now is      265.8 secs

     total energy              =   -1929.45087142 Ry
     Harris-Foulkes estimate   =   -1929.45100382 Ry
     estimated scf accuracy    <       0.00122455 Ry

     iteration # 10     ecut=    36.75 Ry     beta=0.20
     Davidson diagonalization with overlap
     ethr =  7.25E-07,  avg # of iterations =  3.2

     negative rho (up, down):  4.323E-04 0.000E+00
 
     Adding external electric field

     Computed dipole along edir(3) : 
        Dipole               -0.0801 Ry au,         -0.2037 Debye
        Dipole field         -0.0001 Ry au
 
        Potential amp.        0.0130 Ry
        Total length         43.3566 bohr
 

     total cpu time spent up to now is      290.8 secs

     total energy              =   -1929.45096931 Ry
     Harris-Foulkes estimate   =   -1929.45101969 Ry
     estimated scf accuracy    <       0.00053538 Ry

     iteration # 11     ecut=    36.75 Ry     beta=0.20
     Davidson diagonalization with overlap
     ethr =  3.17E-07,  avg # of iterations =  3.0

     negative rho (up, down):  4.564E-04 0.000E+00
 
     Adding external electric field

     Computed dipole along edir(3) : 
        Dipole               -0.0831 Ry au,         -0.2113 Debye
        Dipole field         -0.0002 Ry au
 
        Potential amp.        0.0134 Ry
        Total length         43.3566 bohr
 

     total cpu time spent up to now is      315.7 secs

     total energy              =   -1929.45100759 Ry
     Harris-Foulkes estimate   =   -1929.45103167 Ry
     estimated scf accuracy    <       0.00017325 Ry

     iteration # 12     ecut=    36.75 Ry     beta=0.20
     Davidson diagonalization with overlap
     ethr =  1.03E-07,  avg # of iterations =  3.2

     negative rho (up, down):  4.510E-04 0.000E+00
 
     Adding external electric field

     Computed dipole along edir(3) : 
        Dipole               -0.0835 Ry au,         -0.2122 Debye
        Dipole field         -0.0002 Ry au
 
        Potential amp.        0.0135 Ry
        Total length         43.3566 bohr
 

     total cpu time spent up to now is      347.8 secs

     total energy              =   -1929.45106011 Ry
     Harris-Foulkes estimate   =   -1929.45107631 Ry
     estimated scf accuracy    <       0.00013945 Ry

     iteration # 13     ecut=    36.75 Ry     beta=0.20
     Davidson diagonalization with overlap
     ethr =  8.25E-08,  avg # of iterations =  2.0

     negative rho (up, down):  4.070E-04 0.000E+00
 
     Adding external electric field

     Computed dipole along edir(3) : 
        Dipole               -0.0836 Ry au,         -0.2125 Debye
        Dipole field         -0.0002 Ry au
 
        Potential amp.        0.0135 Ry
        Total length         43.3566 bohr
 

     total cpu time spent up to now is      371.7 secs

     End of self-consistent calculation

          k = 0.0000 0.0000 0.0000 ( 25377 PWs)   bands (ev):

   -21.4108 -21.3912 -21.3862 -21.3853 -21.3748 -21.3656 -21.3553 -21.3536
   -21.3440 -21.3410 -21.3385 -21.3347 -21.3316 -21.3286 -21.3253 -21.3219
   -21.3197 -21.3180 -21.3162 -21.3153 -21.3132 -21.3054 -21.3029 -21.3003
   -21.2993 -21.2965 -21.2957 -21.2933 -21.2902 -21.2853 -21.2756 -21.2703
   -21.2650 -21.2582 -21.2556 -21.2445 -21.2408 -21.2272 -21.2251 -21.2209
   -21.2105 -21.2033 -21.2002 -21.1942 -21.1933 -21.1923 -21.1892 -21.1891
   -21.1815 -21.1779 -21.1768 -21.1755 -21.1667 -21.1645 -21.1616 -21.1569
   -21.1552 -21.1514 -21.1447 -21.1407  -9.9989  -8.9132  -7.4126  -6.0977
    -5.9803  -5.9189  -5.7162  -5.5304  -5.3196  -4.8869  -4.7078  -4.5491
    -3.4640  -3.2579  -3.1749  -2.9177  -2.4598  -2.0596  -2.0386  -1.9216
    -1.8734  -1.8527  -0.7738   0.6792   1.5238   1.5762   1.6653   1.7081
     1.7714   2.5728   3.0301   3.3143   3.3540   3.4605

          k = 0.0000 0.1925 0.0000 ( 25365 PWs)   bands (ev):

   -21.4093 -21.3832 -21.3817 -21.3768 -21.3667 -21.3582 -21.3540 -21.3509
   -21.3413 -21.3373 -21.3344 -21.3338 -21.3268 -21.3235 -21.3203 -21.3191
   -21.3161 -21.3149 -21.3119 -21.3116 -21.3083 -21.3069 -21.3040 -21.2991
   -21.2959 -21.2940 -21.2932 -21.2927 -21.2875 -21.2848 -21.2745 -21.2700
   -21.2654 -21.2602 -21.2548 -21.2477 -21.2456 -21.2286 -21.2260 -21.2241
   -21.2125 -21.2071 -21.2055 -21.2031 -21.1981 -21.1968 -21.1917 -21.1917
   -21.1833 -21.1812 -21.1792 -21.1789 -21.1745 -21.1704 -21.1640 -21.1637
   -21.1616 -21.1572 -21.1538 -21.1420  -9.8730  -8.7942  -7.3648  -6.8498
    -6.2895  -6.1656  -6.0368  -5.4579  -5.2891  -4.8639  -4.6240  -4.4732
    -3.3818  -2.9811  -2.8193  -2.6480  -2.3751  -2.0901  -1.8402  -1.5703
    -1.3007  -0.8553  -0.3885   0.4580   0.8640   1.1903   1.6437   2.0000
     2.1525   2.4580   2.4716   2.8609   3.0407   3.3424

          k = 0.0000 0.3849 0.0000 ( 25367 PWs)   bands (ev):

   -21.4059 -21.3759 -21.3634 -21.3549 -21.3529 -21.3463 -21.3416 -21.3382
   -21.3367 -21.3353 -21.3304 -21.3233 -21.3232 -21.3167 -21.3155 -21.3146
   -21.3106 -21.3080 -21.3077 -21.3049 -21.3016 -21.2985 -21.2951 -21.2937
   -21.2929 -21.2890 -21.2870 -21.2829 -21.2819 -21.2764 -21.2719 -21.2686
   -21.2670 -21.2607 -21.2568 -21.2520 -21.2466 -21.2364 -21.2300 -21.2289
   -21.2274 -21.2216 -21.2163 -21.2149 -21.2061 -21.2051 -21.2017 -21.2015
   -21.1977 -21.1942 -21.1912 -21.1873 -21.1858 -21.1818 -21.1790 -21.1786
   -21.1708 -21.1706 -21.1592 -21.1426  -9.4964  -8.4447  -8.0059  -7.2173
    -6.6393  -6.5477  -6.4550  -5.6348  -5.4377  -5.3835  -4.4664  -4.3549
    -3.2196  -2.2935  -2.2773  -1.9220  -1.5084  -1.2871  -1.0982  -0.6167
    -0.5416  -0.1518   0.0957   0.3780   0.6212   1.1432   1.2937   1.3260
     1.5978   1.8473   1.8950   2.4410   2.5153   2.8861

          k = 0.0000-0.5774 0.0000 ( 25386 PWs)   bands (ev):

   -21.4039 -21.3712 -21.3536 -21.3524 -21.3426 -21.3380 -21.3363 -21.3340
   -21.3295 -21.3277 -21.3224 -21.3202 -21.3188 -21.3166 -21.3155 -21.3106
   -21.3098 -21.3056 -21.3038 -21.3000 -21.2973 -21.2958 -21.2939 -21.2893
   -21.2885 -21.2877 -21.2858 -21.2804 -21.2760 -21.2735 -21.2719 -21.2658
   -21.2641 -21.2546 -21.2535 -21.2482 -21.2446 -21.2413 -21.2379 -21.2305
   -21.2272 -21.2268 -21.2243 -21.2188 -21.2169 -21.2145 -21.2121 -21.2109
   -21.2099 -21.2062 -21.2045 -21.1962 -21.1947 -21.1920 -21.1854 -21.1817
   -21.1722 -21.1716 -21.1594 -21.1426  -8.9473  -8.7826  -8.0023  -7.7051
    -6.6961  -6.5619  -6.4103  -6.0018  -5.6062  -5.5164  -4.4369  -4.3414
    -3.0617  -1.6432  -1.5487  -1.4226  -1.2774  -1.2365  -0.7578  -0.4037
    -0.1098   0.0642   0.1167   0.6494   0.9743   1.0405   1.1341   1.3403
     1.5839   1.6319   1.7452   2.0287   2.0485   2.0984

          k = 0.1667-0.0962 0.0000 ( 25365 PWs)   bands (ev):

   -21.4025 -21.3862 -21.3786 -21.3760 -21.3701 -21.3605 -21.3516 -21.3472
   -21.3424 -21.3380 -21.3358 -21.3316 -21.3282 -21.3258 -21.3210 -21.3203
   -21.3169 -21.3150 -21.3137 -21.3092 -21.3078 -21.3040 -21.3015 -21.3003
   -21.2988 -21.2959 -21.2950 -21.2901 -21.2882 -21.2818 -21.2745 -21.2706
   -21.2655 -21.2602 -21.2554 -21.2486 -21.2438 -21.2282 -21.2267 -21.2234
   -21.2136 -21.2069 -21.2046 -21.2018 -21.2006 -21.1976 -21.1933 -21.1907
   -21.1844 -21.1821 -21.1798 -21.1776 -21.1741 -21.1715 -21.1688 -21.1622
   -21.1594 -21.1536 -21.1496 -21.1482  -9.8722  -8.7932  -7.3314  -6.8763
    -6.3406  -6.1629  -5.9469  -5.6232  -5.2909  -4.7809  -4.6260  -4.4951
    -3.2908  -2.9331  -2.7713  -2.6346  -2.3326  -2.1493  -1.9987  -1.4700
    -1.2080  -0.8586  -0.5610   0.4260   0.8332   1.2035   1.6570   2.0456
     2.2270   2.3763   2.5206   2.7609   3.0707   3.3580

          k = 0.1667 0.0962 0.0000 ( 25365 PWs)   bands (ev):

   -21.4025 -21.3862 -21.3786 -21.3760 -21.3701 -21.3605 -21.3516 -21.3472
   -21.3424 -21.3380 -21.3358 -21.3316 -21.3282 -21.3258 -21.3210 -21.3203
   -21.3169 -21.3150 -21.3137 -21.3092 -21.3078 -21.3040 -21.3015 -21.3003
   -21.2988 -21.2959 -21.2950 -21.2901 -21.2882 -21.2818 -21.2745 -21.2706
   -21.2655 -21.2602 -21.2554 -21.2486 -21.2438 -21.2282 -21.2267 -21.2234
   -21.2136 -21.2069 -21.2046 -21.2018 -21.2006 -21.1976 -21.1933 -21.1907
   -21.1844 -21.1821 -21.1798 -21.1776 -21.1741 -21.1715 -21.1688 -21.1622
   -21.1594 -21.1536 -21.1496 -21.1482  -9.8722  -8.7932  -7.3314  -6.8763
    -6.3406  -6.1629  -5.9469  -5.6232  -5.2909  -4.7809  -4.6260  -4.4951
    -3.2908  -2.9331  -2.7713  -2.6346  -2.3326  -2.1493  -1.9987  -1.4700
    -1.2080  -0.8586  -0.5610   0.4260   0.8332   1.2035   1.6570   2.0457
     2.2270   2.3762   2.5206   2.7609   3.0707   3.3580

          k = 0.1667 0.2887 0.0000 ( 25362 PWs)   bands (ev):

   -21.4004 -21.3742 -21.3709 -21.3628 -21.3578 -21.3486 -21.3447 -21.3403
   -21.3384 -21.3326 -21.3304 -21.3266 -21.3243 -21.3221 -21.3200 -21.3145
   -21.3115 -21.3091 -21.3072 -21.3059 -21.3041 -21.3015 -21.2991 -21.2970
   -21.2940 -21.2930 -21.2889 -21.2836 -21.2819 -21.2799 -21.2721 -21.2689
   -21.2655 -21.2624 -21.2571 -21.2520 -21.2478 -21.2323 -21.2304 -21.2263
   -21.2203 -21.2176 -21.2138 -21.2110 -21.2070 -21.2041 -21.2018 -21.1975
   -21.1922 -21.1893 -21.1860 -21.1853 -21.1813 -21.1797 -21.1780 -21.1734
   -21.1693 -21.1602 -21.1589 -21.1491  -9.6206  -8.5592  -7.4944  -7.3331
    -7.0323  -6.3858  -6.2057  -5.5822  -5.1764  -5.0319  -4.8314  -4.3965
    -3.2233  -2.6897  -2.1197  -1.9299  -1.8380  -1.6604  -1.2372  -1.0489
    -0.7919  -0.1485   0.0920   0.4212   0.5603   0.6663   1.2457   1.6134
     1.9780   2.2145   2.3056   2.6770   2.7103   2.9591

          k = 0.1667-0.6736 0.0000 ( 25368 PWs)   bands (ev):

   -21.3976 -21.3645 -21.3553 -21.3470 -21.3458 -21.3398 -21.3366 -21.3342
   -21.3308 -21.3285 -21.3215 -21.3209 -21.3185 -21.3174 -21.3160 -21.3137
   -21.3131 -21.3069 -21.3034 -21.3007 -21.3000 -21.2963 -21.2926 -21.2904
   -21.2887 -21.2864 -21.2839 -21.2800 -21.2757 -21.2744 -21.2693 -21.2686
   -21.2645 -21.2575 -21.2548 -21.2476 -21.2442 -21.2411 -21.2375 -21.2350
   -21.2300 -21.2277 -21.2245 -21.2203 -21.2171 -21.2136 -21.2110 -21.2090
   -21.2065 -21.2037 -21.1983 -21.1942 -21.1898 -21.1869 -21.1830 -21.1811
   -21.1759 -21.1743 -21.1632 -21.1491  -9.1231  -8.3648  -8.1192  -7.5990
    -7.3767  -6.5775  -6.3522  -5.7170  -5.5254  -5.0799  -4.7641  -4.2405
    -3.0931  -2.1287  -1.6859  -1.3733  -1.1719  -0.9174  -0.6962  -0.5044
    -0.2333  -0.1003   0.2296   0.3754   0.7307   0.8577   1.1497   1.4283
     1.8589   2.0276   2.1670   2.2694   2.2897   2.5728

          k = 0.1667-0.4811 0.0000 ( 25368 PWs)   bands (ev):

   -21.3976 -21.3645 -21.3553 -21.3470 -21.3458 -21.3398 -21.3366 -21.3342
   -21.3308 -21.3285 -21.3215 -21.3209 -21.3185 -21.3174 -21.3160 -21.3137
   -21.3131 -21.3069 -21.3034 -21.3007 -21.3000 -21.2963 -21.2926 -21.2903
   -21.2887 -21.2864 -21.2839 -21.2800 -21.2757 -21.2744 -21.2693 -21.2686
   -21.2645 -21.2575 -21.2548 -21.2476 -21.2442 -21.2411 -21.2375 -21.2350
   -21.2300 -21.2277 -21.2245 -21.2203 -21.2171 -21.2136 -21.2110 -21.2090
   -21.2065 -21.2037 -21.1983 -21.1942 -21.1898 -21.1869 -21.1830 -21.1811
   -21.1759 -21.1743 -21.1632 -21.1491  -9.1231  -8.3648  -8.1192  -7.5990
    -7.3767  -6.5775  -6.3522  -5.7169  -5.5254  -5.0799  -4.7641  -4.2405
    -3.0931  -2.1287  -1.6859  -1.3732  -1.1719  -0.9174  -0.6962  -0.5044
    -0.2333  -0.1002   0.2296   0.3754   0.7307   0.8577   1.1497   1.4284
     1.8589   2.0275   2.1671   2.2694   2.2897   2.5728

          k = 0.1667-0.2887 0.0000 ( 25362 PWs)   bands (ev):

   -21.4004 -21.3742 -21.3709 -21.3629 -21.3578 -21.3486 -21.3447 -21.3403
   -21.3384 -21.3326 -21.3304 -21.3266 -21.3242 -21.3221 -21.3200 -21.3145
   -21.3115 -21.3091 -21.3073 -21.3059 -21.3041 -21.3015 -21.2991 -21.2970
   -21.2940 -21.2930 -21.2889 -21.2836 -21.2819 -21.2799 -21.2721 -21.2689
   -21.2655 -21.2624 -21.2571 -21.2520 -21.2478 -21.2323 -21.2304 -21.2263
   -21.2203 -21.2176 -21.2137 -21.2110 -21.2070 -21.2041 -21.2018 -21.1975
   -21.1922 -21.1893 -21.1860 -21.1853 -21.1813 -21.1797 -21.1780 -21.1734
   -21.1693 -21.1602 -21.1589 -21.1491  -9.6206  -8.5592  -7.4944  -7.3331
    -7.0323  -6.3858  -6.2057  -5.5821  -5.1764  -5.0319  -4.8314  -4.3964
    -3.2233  -2.6897  -2.1197  -1.9298  -1.8380  -1.6604  -1.2372  -1.0490
    -0.7919  -0.1484   0.0920   0.4211   0.5603   0.6663   1.2457   1.6133
     1.9781   2.2145   2.3056   2.6770   2.7103   2.9591

          k = 0.3333-0.1925 0.0000 ( 25367 PWs)   bands (ev):

   -21.3840 -21.3760 -21.3647 -21.3569 -21.3540 -21.3476 -21.3427 -21.3404
   -21.3346 -21.3340 -21.3286 -21.3259 -21.3211 -21.3188 -21.3166 -21.3133
   -21.3123 -21.3107 -21.3063 -21.3059 -21.3037 -21.3005 -21.2978 -21.2948
   -21.2911 -21.2889 -21.2849 -21.2829 -21.2794 -21.2774 -21.2721 -21.2679
   -21.2661 -21.2601 -21.2566 -21.2532 -21.2467 -21.2374 -21.2298 -21.2285
   -21.2256 -21.2205 -21.2184 -21.2155 -21.2123 -21.2049 -21.2031 -21.1999
   -21.1980 -21.1947 -21.1916 -21.1890 -21.1873 -21.1856 -21.1814 -21.1765
   -21.1715 -21.1629 -21.1538 -21.1511  -9.4925  -8.4481  -7.9679  -7.1837
    -6.7658  -6.5440  -6.4254  -5.8576  -5.3676  -5.2925  -4.5301  -4.3641
    -2.8378  -2.3103  -2.2489  -1.7676  -1.5457  -1.3614  -1.0518  -0.7833
    -0.4350  -0.4049   0.1164   0.4806   0.5422   0.9363   1.2555   1.2880
     1.6150   1.8170   2.0186   2.3068   2.5531   2.9607

          k = 0.3333 0.0000 0.0000 ( 25362 PWs)   bands (ev):

   -21.3843 -21.3754 -21.3709 -21.3613 -21.3572 -21.3557 -21.3464 -21.3387
   -21.3354 -21.3335 -21.3307 -21.3295 -21.3232 -21.3218 -21.3194 -21.3161
   -21.3147 -21.3100 -21.3089 -21.3065 -21.3039 -21.3001 -21.2989 -21.2983
   -21.2931 -21.2913 -21.2877 -21.2864 -21.2819 -21.2774 -21.2734 -21.2682
   -21.2651 -21.2623 -21.2554 -21.2519 -21.2475 -21.2335 -21.2308 -21.2260
   -21.2238 -21.2169 -21.2142 -21.2113 -21.2091 -21.2031 -21.2005 -21.1994
   -21.1937 -21.1903 -21.1881 -21.1861 -21.1841 -21.1801 -21.1769 -21.1671
   -21.1638 -21.1634 -21.1567 -21.1554  -9.6182  -8.5568  -7.4446  -7.3475
    -7.0493  -6.3822  -6.2727  -5.5999  -5.3048  -4.9613  -4.7469  -4.5113
    -2.9075  -2.6391  -2.0623  -1.9931  -1.7577  -1.5855  -1.3577  -1.1904
    -0.8145  -0.2388   0.0611   0.4389   0.5813   0.6413   1.2988   1.4529
     1.9553   2.1682   2.3232   2.6764   2.7977   2.9089

          k = 0.3333 0.1925 0.0000 ( 25367 PWs)   bands (ev):

   -21.3840 -21.3760 -21.3647 -21.3569 -21.3540 -21.3476 -21.3427 -21.3404
   -21.3346 -21.3340 -21.3286 -21.3259 -21.3212 -21.3188 -21.3166 -21.3133
   -21.3123 -21.3106 -21.3063 -21.3059 -21.3037 -21.3005 -21.2977 -21.2948
   -21.2911 -21.2889 -21.2849 -21.2829 -21.2794 -21.2774 -21.2721 -21.2679
   -21.2661 -21.2601 -21.2566 -21.2532 -21.2467 -21.2374 -21.2298 -21.2285
   -21.2256 -21.2205 -21.2184 -21.2155 -21.2123 -21.2049 -21.2031 -21.1999
   -21.1980 -21.1947 -21.1916 -21.1890 -21.1873 -21.1856 -21.1814 -21.1765
   -21.1715 -21.1629 -21.1538 -21.1511  -9.4925  -8.4481  -7.9679  -7.1837
    -6.7658  -6.5440  -6.4254  -5.8576  -5.3676  -5.2925  -4.5301  -4.3641
    -2.8378  -2.3103  -2.2489  -1.7677  -1.5457  -1.3613  -1.0518  -0.7833
    -0.4349  -0.4049   0.1164   0.4806   0.5422   0.9364   1.2555   1.2879
     1.6149   1.8170   2.0186   2.3067   2.5531   2.9607

          k = 0.3333-0.7698 0.0000 ( 25368 PWs)   bands (ev):

   -21.3827 -21.3637 -21.3559 -21.3499 -21.3462 -21.3423 -21.3358 -21.3356
   -21.3306 -21.3252 -21.3231 -21.3205 -21.3192 -21.3175 -21.3153 -21.3123
   -21.3109 -21.3086 -21.3048 -21.3042 -21.3004 -21.2974 -21.2955 -21.2916
   -21.2877 -21.2845 -21.2832 -21.2792 -21.2763 -21.2738 -21.2698 -21.2672
   -21.2649 -21.2599 -21.2531 -21.2481 -21.2451 -21.2384 -21.2359 -21.2353
   -21.2314 -21.2275 -21.2235 -21.2209 -21.2195 -21.2163 -21.2115 -21.2091
   -21.2055 -21.2028 -21.1992 -21.1951 -21.1927 -21.1898 -21.1861 -21.1799
   -21.1740 -21.1676 -21.1598 -21.1562  -9.1177  -8.3776  -8.0775  -7.6607
    -7.2694  -6.7670  -6.2798  -5.7516  -5.5044  -5.1065  -4.7611  -4.2636
    -2.8363  -2.1375  -1.6526  -1.3526  -1.1340  -0.9343  -0.7992  -0.4687
    -0.3286  -0.0677   0.1386   0.3556   0.7601   0.9436   1.0794   1.4484
     1.6913   2.0134   2.0928   2.2225   2.3172   2.5838

          k = 0.3333-0.5774 0.0000 ( 25314 PWs)   bands (ev):

   -21.3819 -21.3517 -21.3472 -21.3428 -21.3407 -21.3384 -21.3348 -21.3314
   -21.3278 -21.3269 -21.3241 -21.3227 -21.3206 -21.3203 -21.3168 -21.3143
   -21.3121 -21.3078 -21.3038 -21.2991 -21.2979 -21.2948 -21.2921 -21.2893
   -21.2866 -21.2846 -21.2796 -21.2738 -21.2732 -21.2701 -21.2684 -21.2612
   -21.2595 -21.2586 -21.2554 -21.2530 -21.2487 -21.2460 -21.2426 -21.2371
   -21.2316 -21.2312 -21.2291 -21.2249 -21.2204 -21.2194 -21.2175 -21.2139
   -21.2077 -21.2033 -21.1982 -21.1963 -21.1905 -21.1877 -21.1843 -21.1835
   -21.1779 -21.1745 -21.1716 -21.1589  -8.5701  -8.5078  -8.3918  -7.7540
    -7.3364  -7.2205  -6.1146  -5.7536  -5.6541  -4.7614  -4.5488  -4.4964
    -2.8302  -1.7589  -1.6014  -1.5045  -1.2604  -1.1837  -0.6132  -0.2083
    -0.1622   0.1735   0.6159   0.6840   0.9144   1.2663   1.2696   1.3724
     1.5331   1.8402   1.9822   2.2196   2.2761   2.7036

          k = 0.3333-0.3849 0.0000 ( 25368 PWs)   bands (ev):

   -21.3827 -21.3637 -21.3559 -21.3499 -21.3462 -21.3423 -21.3358 -21.3356
   -21.3306 -21.3252 -21.3231 -21.3206 -21.3192 -21.3175 -21.3153 -21.3123
   -21.3110 -21.3086 -21.3048 -21.3042 -21.3005 -21.2974 -21.2955 -21.2916
   -21.2877 -21.2845 -21.2832 -21.2792 -21.2763 -21.2738 -21.2698 -21.2672
   -21.2649 -21.2600 -21.2531 -21.2481 -21.2451 -21.2384 -21.2359 -21.2353
   -21.2314 -21.2275 -21.2234 -21.2209 -21.2195 -21.2163 -21.2115 -21.2091
   -21.2055 -21.2028 -21.1992 -21.1951 -21.1927 -21.1898 -21.1861 -21.1799
   -21.1740 -21.1676 -21.1598 -21.1562  -9.1177  -8.3776  -8.0775  -7.6607
    -7.2694  -6.7670  -6.2798  -5.7516  -5.5044  -5.1065  -4.7611  -4.2636
    -2.8363  -2.1375  -1.6526  -1.3525  -1.1340  -0.9343  -0.7992  -0.4687
    -0.3286  -0.0677   0.1386   0.3556   0.7601   0.9436   1.0794   1.4485
     1.6913   2.0134   2.0929   2.2225   2.3173   2.5838

          k =-0.5000 0.2887 0.0000 ( 25386 PWs)   bands (ev):

   -21.3733 -21.3672 -21.3603 -21.3550 -21.3437 -21.3409 -21.3392 -21.3332
   -21.3291 -21.3263 -21.3216 -21.3201 -21.3170 -21.3156 -21.3129 -21.3119
   -21.3088 -21.3069 -21.3056 -21.3027 -21.3001 -21.2990 -21.2963 -21.2939
   -21.2906 -21.2861 -21.2842 -21.2811 -21.2788 -21.2726 -21.2690 -21.2614
   -21.2606 -21.2589 -21.2549 -21.2481 -21.2417 -21.2374 -21.2360 -21.2325
   -21.2309 -21.2278 -21.2239 -21.2227 -21.2184 -21.2166 -21.2145 -21.2117
   -21.2088 -21.2081 -21.2035 -21.1989 -21.1958 -21.1904 -21.1889 -21.1813
   -21.1726 -21.1671 -21.1538 -21.1511  -8.8934  -8.8325  -7.9900  -7.6254
    -6.8930  -6.5389  -6.3789  -6.0788  -5.7114  -5.4013  -4.5137  -4.3158
    -2.5516  -1.6809  -1.4865  -1.4444  -1.2177  -1.1859  -0.8362  -0.3955
    -0.2309  -0.1284   0.0473   0.7248   0.8485   1.0041   1.1669   1.3228
     1.4011   1.7926   1.8033   1.9274   1.9881   2.0808

          k =-0.5000 0.4811 0.0000 ( 25368 PWs)   bands (ev):

   -21.3731 -21.3633 -21.3558 -21.3500 -21.3472 -21.3413 -21.3375 -21.3356
   -21.3318 -21.3269 -21.3245 -21.3223 -21.3207 -21.3163 -21.3146 -21.3131
   -21.3100 -21.3072 -21.3051 -21.3021 -21.3012 -21.2999 -21.2939 -21.2908
   -21.2888 -21.2863 -21.2846 -21.2802 -21.2763 -21.2731 -21.2708 -21.2656
   -21.2613 -21.2566 -21.2549 -21.2499 -21.2446 -21.2393 -21.2356 -21.2344
   -21.2305 -21.2288 -21.2264 -21.2226 -21.2190 -21.2163 -21.2154 -21.2089
   -21.2047 -21.2023 -21.2008 -21.1949 -21.1917 -21.1869 -21.1847 -21.1798
   -21.1746 -21.1695 -21.1596 -21.1567  -9.1130  -8.3824  -8.0899  -7.5923
    -7.3299  -6.7457  -6.3255  -5.7369  -5.5199  -5.0867  -4.7969  -4.2980
    -2.5936  -2.1435  -1.6006  -1.3682  -1.2001  -1.0263  -0.7763  -0.5336
    -0.3571  -0.1349   0.2361   0.4523   0.7659   0.9010   1.1414   1.1997
     1.7222   2.0509   2.1078   2.1960   2.3295   2.5676

          k =-0.5000 0.6736 0.0000 ( 25368 PWs)   bands (ev):

   -21.3731 -21.3633 -21.3558 -21.3500 -21.3472 -21.3413 -21.3375 -21.3356
   -21.3318 -21.3269 -21.3245 -21.3223 -21.3207 -21.3163 -21.3146 -21.3131
   -21.3100 -21.3072 -21.3051 -21.3021 -21.3012 -21.2999 -21.2939 -21.2908
   -21.2888 -21.2863 -21.2846 -21.2802 -21.2763 -21.2731 -21.2708 -21.2656
   -21.2613 -21.2566 -21.2549 -21.2499 -21.2446 -21.2393 -21.2356 -21.2344
   -21.2305 -21.2288 -21.2264 -21.2226 -21.2190 -21.2163 -21.2154 -21.2089
   -21.2047 -21.2023 -21.2007 -21.1949 -21.1917 -21.1869 -21.1847 -21.1798
   -21.1746 -21.1695 -21.1596 -21.1567  -9.1130  -8.3824  -8.0899  -7.5923
    -7.3299  -6.7457  -6.3255  -5.7369  -5.5199  -5.0867  -4.7969  -4.2980
    -2.5936  -2.1435  -1.6006  -1.3682  -1.2001  -1.0263  -0.7764  -0.5336
    -0.3570  -0.1349   0.2361   0.4524   0.7659   0.9010   1.1414   1.1998
     1.7222   2.0509   2.1078   2.1960   2.3295   2.5676

          k =-0.5000-0.2887 0.0000 ( 25386 PWs)   bands (ev):

   -21.3733 -21.3672 -21.3603 -21.3550 -21.3437 -21.3409 -21.3392 -21.3332
   -21.3291 -21.3263 -21.3216 -21.3201 -21.3170 -21.3156 -21.3129 -21.3119
   -21.3088 -21.3069 -21.3056 -21.3027 -21.3001 -21.2990 -21.2963 -21.2939
   -21.2906 -21.2861 -21.2842 -21.2811 -21.2788 -21.2726 -21.2690 -21.2614
   -21.2606 -21.2589 -21.2549 -21.2481 -21.2417 -21.2374 -21.2360 -21.2325
   -21.2309 -21.2278 -21.2239 -21.2227 -21.2184 -21.2166 -21.2145 -21.2117
   -21.2088 -21.2081 -21.2035 -21.1989 -21.1958 -21.1904 -21.1889 -21.1813
   -21.1726 -21.1671 -21.1538 -21.1511  -8.8934  -8.8325  -7.9900  -7.6254
    -6.8930  -6.5389  -6.3789  -6.0788  -5.7114  -5.4012  -4.5137  -4.3158
    -2.5516  -1.6809  -1.4865  -1.4444  -1.2177  -1.1859  -0.8362  -0.3954
    -0.2310  -0.1284   0.0473   0.7247   0.8486   1.0042   1.1669   1.3229
     1.4010   1.7926   1.8033   1.9275   1.9881   2.0809

     the Fermi energy is     0.7116 ev

!    total energy              =   -1929.45103857 Ry
     Harris-Foulkes estimate   =   -1929.45106523 Ry
     estimated scf accuracy    <       0.00003195 Ry

     The total energy is the sum of the following terms:

     one-electron contribution =  -10207.05266223 Ry
     hartree contribution      =    5166.75715756 Ry
     xc contribution           =    -534.53174380 Ry
     ewald contribution        =    3645.41615612 Ry
     electric field correction =       0.00001303 Ry
     smearing contrib. (-TS)   =      -0.03995926 Ry

     convergence has been achieved in  13 iterations

     Forces acting on atoms (Ry/au):


     negative rho (up, down):  4.070E-04 0.000E+00
     atom    1 type  1   force =    -0.00000487   -0.00544203   -0.01413965
     atom    2 type  1   force =     0.00000928   -0.00100684   -0.00772433
     atom    3 type  1   force =     0.00072700    0.00168465   -0.00729775
     atom    4 type  1   force =    -0.00070928    0.00170204   -0.00731106
     atom    5 type  1   force =     0.00046902   -0.00455443   -0.00274835
     atom    6 type  1   force =    -0.00046863   -0.00455349   -0.00273991
     atom    7 type  1   force =    -0.00001479    0.00298806   -0.00272034
     atom    8 type  1   force =    -0.00000113    0.00868750    0.00023421
     atom    9 type  1   force =    -0.00190943    0.00020652    0.01051369
     atom   10 type  1   force =     0.00191275    0.00020470    0.01051068
     atom   11 type  1   force =    -0.00000373   -0.00050499    0.01097651
     atom   12 type  1   force =    -0.00000446    0.00093392    0.01112151
     atom   13 type  2   force =    -0.00000172   -0.00034562    0.00132478

     Total force =     0.021808     Total SCF correction =     0.033562
     SCF correction compared to forces is large: reduce conv_thr to get better values

     BFGS Geometry Optimization

     number of scf cycles    =   1
     number of bfgs steps    =   0

     energy   new            =   -1929.4510385747 Ry

     new trust radius        =       0.0111606569 bohr
     new conv_thr            =       0.0001000000 Ry


ATOMIC_POSITIONS (angstrom)
Sn       1.681748263   0.970957812  10.000000000    0   0   0
Sn       5.045244789   0.970957812  10.000000000    0   0   0
Sn       3.363496526   3.883831250  10.000000000    0   0   0
Sn       6.726993052   3.883831250  10.000000000    0   0   0
Sn       6.726993052   1.941915625  12.746283414    0   0   0
Sn       3.363496526   1.941915625  12.746283414    0   0   0
Sn       8.408741315   4.854789062  12.746283414    0   0   0
Sn       5.045244789   4.854789062  12.746283414    0   0   0
Sn       0.128239500  -0.018307602  15.806527234
Sn       3.235148151  -0.018296690  15.806799099
Sn       1.681802163   3.041212502  15.445514130
Sn       5.045288723   2.788645232  15.422773407
H        1.681693409  -0.040109069  17.141203820



     Writing output data file calc.save
     Check: negative starting charge=   -0.001478
     NEW-OLD atomic charge density approx. for the potential
     Check: negative starting charge=   -0.001477

     negative rho (up, down):  4.086E-04 0.000E+00
 
     Adding external electric field

     Computed dipole along edir(3) : 
        Dipole               -0.0405 Ry au,         -0.1029 Debye
        Dipole field         -0.0001 Ry au
 
        Potential amp.        0.0065 Ry
        Total length         43.3566 bohr
 

     total cpu time spent up to now is      398.6 secs

     per-process dynamical memory:    87.2 Mb

     Self-consistent Calculation

     iteration #  1     ecut=    36.75 Ry     beta=0.20
     Davidson diagonalization with overlap
     ethr =  1.00E-06,  avg # of iterations =  4.0

     negative rho (up, down):  4.068E-04 0.000E+00
 
     Adding external electric field

     Computed dipole along edir(3) : 
        Dipole               -0.2314 Ry au,         -0.5881 Debye
        Dipole field         -0.0004 Ry au
 
        Potential amp.        0.0374 Ry
        Total length         43.3566 bohr
 

     total cpu time spent up to now is      436.6 secs

     total energy              =   -1929.44827321 Ry
     Harris-Foulkes estimate   =   -1929.45167250 Ry
     estimated scf accuracy    <       0.00998635 Ry

     iteration #  2     ecut=    36.75 Ry     beta=0.20
     Davidson diagonalization with overlap
     ethr =  5.91E-06,  avg # of iterations =  6.7

     negative rho (up, down):  4.065E-04 0.000E+00
 
     Adding external electric field

     Computed dipole along edir(3) : 
        Dipole               -0.0524 Ry au,         -0.1331 Debye
        Dipole field         -0.0001 Ry au
 
        Potential amp.        0.0085 Ry
        Total length         43.3566 bohr
 

     total cpu time spent up to now is      466.7 secs

     total energy              =   -1929.44489227 Ry
     Harris-Foulkes estimate   =   -1929.45633940 Ry
     estimated scf accuracy    <       0.16536153 Ry

     iteration #  3     ecut=    36.75 Ry     beta=0.20
     Davidson diagonalization with overlap
     ethr =  5.91E-06,  avg # of iterations =  5.8

     negative rho (up, down):  4.067E-04 0.000E+00
 
     Adding external electric field

     Computed dipole along edir(3) : 
        Dipole               -0.0788 Ry au,         -0.2002 Debye
        Dipole field         -0.0001 Ry au
 
        Potential amp.        0.0127 Ry
        Total length         43.3566 bohr
 

     total cpu time spent up to now is      495.3 secs

     total energy              =   -1929.45082060 Ry
     Harris-Foulkes estimate   =   -1929.45133177 Ry
     estimated scf accuracy    <       0.00551786 Ry

     iteration #  4     ecut=    36.75 Ry     beta=0.20
     Davidson diagonalization with overlap
     ethr =  3.27E-06,  avg # of iterations =  2.2

     negative rho (up, down):  4.072E-04 0.000E+00
 
     Adding external electric field

     Computed dipole along edir(3) : 
        Dipole               -0.1101 Ry au,         -0.2799 Debye
        Dipole field         -0.0002 Ry au
 
        Potential amp.        0.0178 Ry
        Total length         43.3566 bohr
 

     total cpu time spent up to now is      519.4 secs

     End of self-consistent calculation

          k = 0.0000 0.0000 0.0000 ( 25377 PWs)   bands (ev):

   -21.4029 -21.3832 -21.3784 -21.3781 -21.3678 -21.3581 -21.3474 -21.3454
   -21.3366 -21.3342 -21.3304 -21.3269 -21.3232 -21.3197 -21.3167 -21.3137
   -21.3117 -21.3101 -21.3091 -21.3078 -21.3058 -21.2961 -21.2937 -21.2917
   -21.2909 -21.2867 -21.2858 -21.2848 -21.2819 -21.2760 -21.2680 -21.2629
   -21.2574 -21.2497 -21.2470 -21.2369 -21.2333 -21.2198 -21.2178 -21.2132
   -21.2020 -21.1948 -21.1918 -21.1873 -21.1859 -21.1841 -21.1805 -21.1793
   -21.1727 -21.1691 -21.1674 -21.1669 -21.1599 -21.1577 -21.1517 -21.1476
   -21.1461 -21.1419 -21.1348 -21.1314  -9.9860  -8.9065  -7.4089  -6.0875
    -5.9665  -5.9077  -5.7096  -5.5197  -5.3095  -4.8801  -4.7014  -4.5428
    -3.4565  -3.2475  -3.1657  -2.9089  -2.4560  -2.0530  -2.0339  -1.9180
    -1.8702  -1.8502  -0.7672   0.6824   1.5286   1.5805   1.6706   1.7126
     1.7759   2.5791   3.0344   3.3270   3.3654   3.4688

          k = 0.0000 0.1925 0.0000 ( 25365 PWs)   bands (ev):

   -21.4015 -21.3758 -21.3738 -21.3688 -21.3597 -21.3508 -21.3460 -21.3429
   -21.3339 -21.3304 -21.3266 -21.3257 -21.3189 -21.3154 -21.3113 -21.3109
   -21.3081 -21.3072 -21.3041 -21.3034 -21.3007 -21.2976 -21.2947 -21.2910
   -21.2876 -21.2851 -21.2847 -21.2833 -21.2789 -21.2754 -21.2668 -21.2625
   -21.2573 -21.2517 -21.2460 -21.2401 -21.2382 -21.2211 -21.2185 -21.2163
   -21.2039 -21.1985 -21.1978 -21.1960 -21.1906 -21.1884 -21.1830 -21.1821
   -21.1746 -21.1723 -21.1707 -21.1694 -21.1676 -21.1631 -21.1546 -21.1536
   -21.1526 -21.1481 -21.1440 -21.1329  -9.8600  -8.7877  -7.3596  -6.8392
    -6.2773  -6.1542  -6.0312  -5.4486  -5.2806  -4.8572  -4.6168  -4.4667
    -3.3775  -2.9713  -2.8106  -2.6390  -2.3710  -2.0834  -1.8312  -1.5648
    -1.2969  -0.8504  -0.3842   0.4610   0.8695   1.1954   1.6487   2.0060
     2.1585   2.4671   2.4801   2.8647   3.0421   3.3515

          k = 0.0000 0.3849 0.0000 ( 25367 PWs)   bands (ev):

   -21.3982 -21.3687 -21.3552 -21.3466 -21.3447 -21.3389 -21.3340 -21.3308
   -21.3292 -21.3281 -21.3225 -21.3156 -21.3151 -21.3095 -21.3071 -21.3067
   -21.3023 -21.3001 -21.2989 -21.2963 -21.2934 -21.2891 -21.2875 -21.2852
   -21.2848 -21.2815 -21.2786 -21.2739 -21.2735 -21.2690 -21.2643 -21.2602
   -21.2587 -21.2529 -21.2490 -21.2431 -21.2373 -21.2284 -21.2224 -21.2209
   -21.2198 -21.2139 -21.2083 -21.2063 -21.1974 -21.1971 -21.1942 -21.1922
   -21.1894 -21.1854 -21.1815 -21.1781 -21.1775 -21.1728 -21.1700 -21.1696
   -21.1629 -21.1612 -21.1497 -21.1336  -9.4834  -8.4388  -7.9933  -7.2123
    -6.6335  -6.5352  -6.4435  -5.6286  -5.4298  -5.3781  -4.4603  -4.3498
    -3.2155  -2.2837  -2.2684  -1.9179  -1.4998  -1.2764  -1.0877  -0.6113
    -0.5364  -0.1454   0.1022   0.3865   0.6301   1.1466   1.2998   1.3309
     1.6028   1.8533   1.9022   2.4436   2.5190   2.8916

          k = 0.0000-0.5774 0.0000 ( 25386 PWs)   bands (ev):

   -21.3962 -21.3641 -21.3454 -21.3441 -21.3345 -21.3292 -21.3283 -21.3267
   -21.3212 -21.3193 -21.3145 -21.3125 -21.3108 -21.3096 -21.3077 -21.3031
   -21.3023 -21.2983 -21.2962 -21.2916 -21.2891 -21.2871 -21.2854 -21.2821
   -21.2808 -21.2794 -21.2778 -21.2719 -21.2678 -21.2659 -21.2636 -21.2595
   -21.2551 -21.2462 -21.2451 -21.2402 -21.2364 -21.2334 -21.2297 -21.2230
   -21.2185 -21.2178 -21.2150 -21.2092 -21.2088 -21.2057 -21.2029 -21.2019
   -21.2011 -21.1980 -21.1956 -21.1883 -21.1855 -21.1833 -21.1768 -21.1726
   -21.1639 -21.1628 -21.1498 -21.1337  -8.9328  -8.7715  -7.9987  -7.6965
    -6.6830  -6.5504  -6.4048  -5.9997  -5.5988  -5.5086  -4.4315  -4.3372
    -3.0579  -1.6366  -1.5388  -1.4142  -1.2705  -1.2236  -0.7507  -0.3984
    -0.1006   0.0745   0.1249   0.6583   0.9851   1.0466   1.1406   1.3441
     1.5869   1.6364   1.7492   2.0320   2.0576   2.1057

          k = 0.1667-0.0962 0.0000 ( 25365 PWs)   bands (ev):

   -21.3947 -21.3781 -21.3708 -21.3687 -21.3630 -21.3532 -21.3438 -21.3392
   -21.3349 -21.3310 -21.3278 -21.3238 -21.3202 -21.3171 -21.3132 -21.3126
   -21.3090 -21.3069 -21.3052 -21.3009 -21.2997 -21.2951 -21.2926 -21.2924
   -21.2901 -21.2869 -21.2861 -21.2813 -21.2796 -21.2726 -21.2668 -21.2628
   -21.2576 -21.2517 -21.2468 -21.2411 -21.2363 -21.2208 -21.2192 -21.2157
   -21.2051 -21.1988 -21.1968 -21.1943 -21.1930 -21.1893 -21.1841 -21.1813
   -21.1754 -21.1731 -21.1709 -21.1690 -21.1670 -21.1639 -21.1594 -21.1528
   -21.1502 -21.1443 -21.1399 -21.1391  -9.8593  -8.7867  -7.3270  -6.8639
    -6.3296  -6.1519  -5.9407  -5.6162  -5.2815  -4.7734  -4.6194  -4.4889
    -3.2829  -2.9230  -2.7629  -2.6259  -2.3279  -2.1430  -1.9923  -1.4635
    -1.2050  -0.8534  -0.5558   0.4287   0.8376   1.2088   1.6630   2.0510
     2.2323   2.3868   2.5266   2.7677   3.0724   3.3661

          k = 0.1667 0.0962 0.0000 ( 25365 PWs)   bands (ev):

   -21.3947 -21.3781 -21.3708 -21.3687 -21.3630 -21.3531 -21.3438 -21.3392
   -21.3349 -21.3310 -21.3278 -21.3238 -21.3202 -21.3171 -21.3132 -21.3126
   -21.3090 -21.3069 -21.3051 -21.3009 -21.2997 -21.2951 -21.2926 -21.2924
   -21.2900 -21.2869 -21.2861 -21.2813 -21.2796 -21.2726 -21.2668 -21.2628
   -21.2576 -21.2517 -21.2468 -21.2411 -21.2363 -21.2208 -21.2192 -21.2157
   -21.2051 -21.1988 -21.1968 -21.1943 -21.1930 -21.1893 -21.1841 -21.1813
   -21.1754 -21.1731 -21.1709 -21.1691 -21.1670 -21.1639 -21.1594 -21.1528
   -21.1502 -21.1443 -21.1399 -21.1391  -9.8593  -8.7867  -7.3270  -6.8639
    -6.3296  -6.1518  -5.9407  -5.6162  -5.2815  -4.7733  -4.6194  -4.4889
    -3.2829  -2.9230  -2.7629  -2.6260  -2.3279  -2.1430  -1.9923  -1.4635
    -1.2050  -0.8534  -0.5558   0.4287   0.8376   1.2088   1.6630   2.0511
     2.2323   2.3867   2.5267   2.7677   3.0725   3.3661

          k = 0.1667 0.2887 0.0000 ( 25362 PWs)   bands (ev):

   -21.3926 -21.3663 -21.3635 -21.3554 -21.3499 -21.3408 -21.3369 -21.3328
   -21.3308 -21.3255 -21.3227 -21.3186 -21.3166 -21.3146 -21.3116 -21.3067
   -21.3033 -21.3003 -21.2983 -21.2975 -21.2957 -21.2930 -21.2905 -21.2886
   -21.2862 -21.2847 -21.2807 -21.2756 -21.2733 -21.2712 -21.2642 -21.2608
   -21.2570 -21.2538 -21.2493 -21.2442 -21.2389 -21.2246 -21.2227 -21.2184
   -21.2128 -21.2100 -21.2056 -21.2030 -21.1991 -21.1957 -21.1925 -21.1890
   -21.1831 -21.1803 -21.1772 -21.1763 -21.1730 -21.1715 -21.1694 -21.1639
   -21.1601 -21.1508 -21.1495 -21.1402  -9.6077  -8.5530  -7.4830  -7.3206
    -7.0276  -6.3811  -6.1971  -5.5707  -5.1682  -5.0246  -4.8274  -4.3899
    -3.2196  -2.6799  -2.1125  -1.9190  -1.8310  -1.6537  -1.2310  -1.0404
    -0.7834  -0.1435   0.0962   0.4264   0.5652   0.6739   1.2507   1.6196
     1.9824   2.2187   2.3075   2.6881   2.7204   2.9642

          k = 0.1667-0.6736 0.0000 ( 25368 PWs)   bands (ev):

   -21.3899 -21.3573 -21.3472 -21.3390 -21.3377 -21.3321 -21.3286 -21.3261
   -21.3228 -21.3206 -21.3135 -21.3133 -21.3105 -21.3097 -21.3088 -21.3060
   -21.3053 -21.2992 -21.2953 -21.2930 -21.2914 -21.2879 -21.2838 -21.2825
   -21.2809 -21.2781 -21.2758 -21.2720 -21.2674 -21.2666 -21.2613 -21.2601
   -21.2570 -21.2488 -21.2465 -21.2386 -21.2362 -21.2334 -21.2292 -21.2270
   -21.2223 -21.2196 -21.2152 -21.2115 -21.2091 -21.2045 -21.2028 -21.2006
   -21.1981 -21.1943 -21.1892 -21.1858 -21.1809 -21.1781 -21.1741 -21.1720
   -21.1673 -21.1652 -21.1539 -21.1403  -9.1100  -8.3527  -8.1136  -7.5869
    -7.3700  -6.5705  -6.3467  -5.7137  -5.5136  -5.0763  -4.7557  -4.2325
    -3.0904  -2.1191  -1.6807  -1.3643  -1.1646  -0.9065  -0.6875  -0.4979
    -0.2249  -0.0900   0.2369   0.3816   0.7365   0.8645   1.1540   1.4321
     1.8647   2.0325   2.1762   2.2745   2.2946   2.5786

          k = 0.1667-0.4811 0.0000 ( 25368 PWs)   bands (ev):

   -21.3899 -21.3573 -21.3472 -21.3390 -21.3377 -21.3321 -21.3286 -21.3261
   -21.3229 -21.3206 -21.3135 -21.3133 -21.3105 -21.3097 -21.3088 -21.3060
   -21.3053 -21.2992 -21.2953 -21.2930 -21.2914 -21.2879 -21.2838 -21.2825
   -21.2809 -21.2781 -21.2758 -21.2720 -21.2674 -21.2666 -21.2613 -21.2601
   -21.2570 -21.2488 -21.2465 -21.2386 -21.2362 -21.2334 -21.2292 -21.2270
   -21.2223 -21.2196 -21.2152 -21.2115 -21.2091 -21.2045 -21.2028 -21.2006
   -21.1981 -21.1943 -21.1892 -21.1858 -21.1809 -21.1781 -21.1741 -21.1720
   -21.1673 -21.1652 -21.1539 -21.1403  -9.1100  -8.3527  -8.1136  -7.5869
    -7.3700  -6.5705  -6.3467  -5.7137  -5.5136  -5.0763  -4.7557  -4.2325
    -3.0904  -2.1191  -1.6807  -1.3642  -1.1647  -0.9065  -0.6875  -0.4979
    -0.2249  -0.0900   0.2370   0.3816   0.7365   0.8645   1.1540   1.4321
     1.8646   2.0325   2.1763   2.2745   2.2946   2.5786

          k = 0.1667-0.2887 0.0000 ( 25362 PWs)   bands (ev):

   -21.3926 -21.3662 -21.3635 -21.3554 -21.3499 -21.3408 -21.3369 -21.3328
   -21.3308 -21.3255 -21.3227 -21.3186 -21.3166 -21.3146 -21.3116 -21.3067
   -21.3033 -21.3003 -21.2983 -21.2975 -21.2957 -21.2930 -21.2905 -21.2886
   -21.2862 -21.2847 -21.2807 -21.2756 -21.2733 -21.2712 -21.2642 -21.2608
   -21.2570 -21.2538 -21.2493 -21.2442 -21.2389 -21.2246 -21.2227 -21.2184
   -21.2128 -21.2100 -21.2056 -21.2030 -21.1991 -21.1957 -21.1925 -21.1890
   -21.1831 -21.1803 -21.1772 -21.1763 -21.1730 -21.1715 -21.1694 -21.1639
   -21.1601 -21.1508 -21.1495 -21.1402  -9.6077  -8.5530  -7.4830  -7.3206
    -7.0276  -6.3811  -6.1971  -5.5707  -5.1682  -5.0247  -4.8274  -4.3898
    -3.2195  -2.6800  -2.1126  -1.9189  -1.8310  -1.6537  -1.2309  -1.0405
    -0.7834  -0.1434   0.0962   0.4263   0.5652   0.6739   1.2507   1.6195
     1.9824   2.2186   2.3076   2.6881   2.7205   2.9642

          k = 0.3333-0.1925 0.0000 ( 25367 PWs)   bands (ev):

   -21.3762 -21.3682 -21.3574 -21.3488 -21.3460 -21.3396 -21.3352 -21.3331
   -21.3272 -21.3267 -21.3210 -21.3178 -21.3135 -21.3104 -21.3086 -21.3052
   -21.3040 -21.3027 -21.2981 -21.2975 -21.2950 -21.2921 -21.2892 -21.2863
   -21.2828 -21.2807 -21.2768 -21.2751 -21.2710 -21.2692 -21.2636 -21.2600
   -21.2581 -21.2521 -21.2487 -21.2447 -21.2376 -21.2295 -21.2219 -21.2208
   -21.2180 -21.2130 -21.2107 -21.2071 -21.2043 -21.1956 -21.1954 -21.1918
   -21.1886 -21.1853 -21.1825 -21.1805 -21.1781 -21.1768 -21.1720 -21.1681
   -21.1629 -21.1541 -21.1445 -21.1418  -9.4796  -8.4419  -7.9552  -7.1781
    -6.7570  -6.5349  -6.4146  -5.8531  -5.3606  -5.2866  -4.5240  -4.3584
    -2.8308  -2.3000  -2.2398  -1.7629  -1.5363  -1.3520  -1.0419  -0.7767
    -0.4298  -0.4003   0.1237   0.4881   0.5490   0.9412   1.2596   1.2943
     1.6189   1.8240   2.0250   2.3108   2.5555   2.9669

          k = 0.3333 0.0000 0.0000 ( 25362 PWs)   bands (ev):

   -21.3765 -21.3673 -21.3631 -21.3543 -21.3495 -21.3479 -21.3384 -21.3312
   -21.3279 -21.3258 -21.3235 -21.3219 -21.3159 -21.3147 -21.3110 -21.3071
   -21.3065 -21.3015 -21.3004 -21.2981 -21.2949 -21.2917 -21.2903 -21.2899
   -21.2845 -21.2826 -21.2793 -21.2787 -21.2737 -21.2690 -21.2653 -21.2598
   -21.2570 -21.2539 -21.2477 -21.2432 -21.2395 -21.2257 -21.2231 -21.2181
   -21.2159 -21.2091 -21.2068 -21.2033 -21.2012 -21.1946 -21.1917 -21.1899
   -21.1842 -21.1818 -21.1793 -21.1771 -21.1751 -21.1723 -21.1685 -21.1579
   -21.1549 -21.1537 -21.1474 -21.1462  -9.6054  -8.5505  -7.4305  -7.3376
    -7.0444  -6.3780  -6.2642  -5.5884  -5.2972  -4.9546  -4.7436  -4.5053
    -2.8966  -2.6312  -2.0516  -1.9838  -1.7503  -1.5827  -1.3535  -1.1814
    -0.8055  -0.2337   0.0662   0.4429   0.5851   0.6493   1.3035   1.4604
     1.9596   2.1716   2.3259   2.6859   2.8067   2.9146

          k = 0.3333 0.1925 0.0000 ( 25367 PWs)   bands (ev):

   -21.3762 -21.3682 -21.3574 -21.3487 -21.3460 -21.3396 -21.3352 -21.3331
   -21.3272 -21.3267 -21.3210 -21.3178 -21.3135 -21.3104 -21.3086 -21.3052
   -21.3040 -21.3027 -21.2981 -21.2975 -21.2950 -21.2921 -21.2892 -21.2863
   -21.2828 -21.2807 -21.2768 -21.2751 -21.2710 -21.2692 -21.2636 -21.2600
   -21.2581 -21.2521 -21.2487 -21.2447 -21.2376 -21.2295 -21.2219 -21.2208
   -21.2180 -21.2130 -21.2107 -21.2071 -21.2043 -21.1956 -21.1954 -21.1918
   -21.1886 -21.1853 -21.1825 -21.1805 -21.1781 -21.1768 -21.1720 -21.1681
   -21.1629 -21.1541 -21.1445 -21.1418  -9.4796  -8.4419  -7.9552  -7.1781
    -6.7570  -6.5349  -6.4146  -5.8531  -5.3606  -5.2866  -4.5240  -4.3584
    -2.8308  -2.2999  -2.2398  -1.7630  -1.5363  -1.3520  -1.0419  -0.7767
    -0.4297  -0.4003   0.1236   0.4881   0.5490   0.9412   1.2596   1.2943
     1.6189   1.8241   2.0250   2.3108   2.5555   2.9670

          k = 0.3333-0.7698 0.0000 ( 25368 PWs)   bands (ev):

   -21.3750 -21.3558 -21.3487 -21.3419 -21.3381 -21.3342 -21.3284 -21.3277
   -21.3228 -21.3171 -21.3153 -21.3126 -21.3112 -21.3097 -21.3074 -21.3045
   -21.3031 -21.3003 -21.2971 -21.2966 -21.2922 -21.2897 -21.2868 -21.2836
   -21.2796 -21.2763 -21.2754 -21.2711 -21.2679 -21.2654 -21.2615 -21.2592
   -21.2574 -21.2515 -21.2447 -21.2392 -21.2366 -21.2304 -21.2282 -21.2273
   -21.2236 -21.2192 -21.2149 -21.2125 -21.2110 -21.2077 -21.2031 -21.2003
   -21.1971 -21.1938 -21.1896 -21.1866 -21.1840 -21.1804 -21.1772 -21.1715
   -21.1649 -21.1588 -21.1503 -21.1472  -9.1048  -8.3656  -8.0716  -7.6484
    -7.2622  -6.7607  -6.2747  -5.7475  -5.4937  -5.1028  -4.7530  -4.2558
    -2.8311  -2.1279  -1.6467  -1.3444  -1.1265  -0.9257  -0.7895  -0.4601
    -0.3212  -0.0574   0.1455   0.3622   0.7667   0.9503   1.0834   1.4507
     1.6949   2.0228   2.0998   2.2269   2.3225   2.5890

          k = 0.3333-0.5774 0.0000 ( 25314 PWs)   bands (ev):

   -21.3741 -21.3437 -21.3391 -21.3349 -21.3327 -21.3311 -21.3271 -21.3229
   -21.3197 -21.3192 -21.3166 -21.3146 -21.3133 -21.3124 -21.3092 -21.3067
   -21.3042 -21.3002 -21.2960 -21.2916 -21.2897 -21.2869 -21.2842 -21.2810
   -21.2781 -21.2762 -21.2706 -21.2650 -21.2648 -21.2620 -21.2605 -21.2544
   -21.2522 -21.2502 -21.2476 -21.2451 -21.2398 -21.2366 -21.2341 -21.2284
   -21.2238 -21.2229 -21.2213 -21.2173 -21.2113 -21.2104 -21.2091 -21.2049
   -21.2000 -21.1940 -21.1902 -21.1873 -21.1811 -21.1785 -21.1752 -21.1741
   -21.1687 -21.1656 -21.1629 -21.1501  -8.5558  -8.4954  -8.3806  -7.7509
    -7.3279  -7.2122  -6.1087  -5.7511  -5.6519  -4.7486  -4.5420  -4.4871
    -2.8257  -1.7525  -1.5885  -1.4936  -1.2544  -1.1770  -0.6099  -0.2059
    -0.1547   0.1800   0.6262   0.6940   0.9236   1.2748   1.2783   1.3838
     1.5351   1.8439   1.9870   2.2257   2.2823   2.7108

          k = 0.3333-0.3849 0.0000 ( 25368 PWs)   bands (ev):

   -21.3750 -21.3558 -21.3487 -21.3419 -21.3381 -21.3342 -21.3284 -21.3277
   -21.3228 -21.3171 -21.3153 -21.3126 -21.3112 -21.3097 -21.3074 -21.3045
   -21.3031 -21.3003 -21.2971 -21.2966 -21.2922 -21.2897 -21.2868 -21.2836
   -21.2797 -21.2763 -21.2754 -21.2711 -21.2679 -21.2654 -21.2615 -21.2592
   -21.2574 -21.2515 -21.2447 -21.2392 -21.2366 -21.2304 -21.2282 -21.2273
   -21.2236 -21.2192 -21.2149 -21.2125 -21.2110 -21.2077 -21.2031 -21.2003
   -21.1971 -21.1938 -21.1896 -21.1866 -21.1840 -21.1804 -21.1772 -21.1715
   -21.1649 -21.1588 -21.1503 -21.1472  -9.1048  -8.3656  -8.0716  -7.6484
    -7.2622  -6.7607  -6.2747  -5.7475  -5.4937  -5.1028  -4.7530  -4.2558
    -2.8311  -2.1279  -1.6467  -1.3443  -1.1265  -0.9257  -0.7894  -0.4601
    -0.3213  -0.0574   0.1455   0.3622   0.7667   0.9503   1.0834   1.4507
     1.6949   2.0227   2.0998   2.2268   2.3225   2.5890

          k =-0.5000 0.2887 0.0000 ( 25386 PWs)   bands (ev):

   -21.3656 -21.3598 -21.3527 -21.3468 -21.3365 -21.3327 -21.3310 -21.3243
   -21.3212 -21.3183 -21.3137 -21.3121 -21.3092 -21.3078 -21.3049 -21.3042
   -21.3014 -21.2991 -21.2981 -21.2950 -21.2919 -21.2909 -21.2887 -21.2859
   -21.2825 -21.2781 -21.2758 -21.2731 -21.2705 -21.2644 -21.2609 -21.2544
   -21.2518 -21.2504 -21.2465 -21.2400 -21.2338 -21.2290 -21.2276 -21.2241
   -21.2230 -21.2196 -21.2160 -21.2137 -21.2092 -21.2081 -21.2058 -21.2023
   -21.1996 -21.1992 -21.1946 -21.1904 -21.1877 -21.1813 -21.1800 -21.1723
   -21.1644 -21.1585 -21.1445 -21.1418  -8.8804  -8.8198  -7.9858  -7.6167
    -6.8811  -6.5279  -6.3728  -6.0766  -5.7064  -5.3928  -4.5081  -4.3111
    -2.5449  -1.6728  -1.4771  -1.4347  -1.2073  -1.1765  -0.8297  -0.3899
    -0.2253  -0.1178   0.0566   0.7335   0.8567   1.0110   1.1729   1.3265
     1.4051   1.7970   1.8075   1.9314   1.9939   2.0875

          k =-0.5000 0.4811 0.0000 ( 25368 PWs)   bands (ev):

   -21.3653 -21.3555 -21.3485 -21.3419 -21.3391 -21.3331 -21.3298 -21.3281
   -21.3242 -21.3189 -21.3165 -21.3146 -21.3129 -21.3088 -21.3064 -21.3053
   -21.3019 -21.2994 -21.2971 -21.2944 -21.2930 -21.2917 -21.2857 -21.2825
   -21.2805 -21.2784 -21.2762 -21.2716 -21.2686 -21.2650 -21.2625 -21.2579
   -21.2534 -21.2484 -21.2458 -21.2414 -21.2362 -21.2310 -21.2278 -21.2264
   -21.2226 -21.2210 -21.2180 -21.2139 -21.2104 -21.2083 -21.2070 -21.1998
   -21.1960 -21.1930 -21.1917 -21.1867 -21.1825 -21.1783 -21.1754 -21.1706
   -21.1661 -21.1609 -21.1502 -21.1477  -9.1002  -8.3701  -8.0836  -7.5800
    -7.3233  -6.7391  -6.3212  -5.7322  -5.5090  -5.0831  -4.7902  -4.2902
    -2.5855  -2.1339  -1.5947  -1.3606  -1.1920  -1.0181  -0.7679  -0.5259
    -0.3498  -0.1241   0.2439   0.4592   0.7722   0.9054   1.1460   1.2036
     1.7257   2.0594   2.1155   2.2006   2.3340   2.5733

          k =-0.5000 0.6736 0.0000 ( 25368 PWs)   bands (ev):

   -21.3653 -21.3555 -21.3485 -21.3419 -21.3391 -21.3331 -21.3298 -21.3281
   -21.3242 -21.3190 -21.3165 -21.3146 -21.3129 -21.3088 -21.3064 -21.3053
   -21.3019 -21.2994 -21.2971 -21.2944 -21.2930 -21.2917 -21.2857 -21.2825
   -21.2805 -21.2784 -21.2762 -21.2716 -21.2686 -21.2650 -21.2625 -21.2579
   -21.2534 -21.2484 -21.2458 -21.2414 -21.2362 -21.2310 -21.2278 -21.2264
   -21.2226 -21.2210 -21.2180 -21.2139 -21.2104 -21.2083 -21.2070 -21.1998
   -21.1960 -21.1930 -21.1917 -21.1867 -21.1825 -21.1783 -21.1754 -21.1706
   -21.1661 -21.1609 -21.1502 -21.1477  -9.1002  -8.3701  -8.0836  -7.5800
    -7.3233  -6.7391  -6.3212  -5.7322  -5.5090  -5.0831  -4.7902  -4.2902
    -2.5855  -2.1339  -1.5947  -1.3606  -1.1919  -1.0181  -0.7680  -0.5259
    -0.3497  -0.1241   0.2438   0.4593   0.7723   0.9054   1.1460   1.2036
     1.7257   2.0594   2.1155   2.2006   2.3340   2.5732

          k =-0.5000-0.2887 0.0000 ( 25386 PWs)   bands (ev):

   -21.3656 -21.3599 -21.3527 -21.3468 -21.3365 -21.3327 -21.3310 -21.3243
   -21.3212 -21.3183 -21.3137 -21.3121 -21.3092 -21.3078 -21.3049 -21.3042
   -21.3014 -21.2991 -21.2981 -21.2950 -21.2919 -21.2909 -21.2886 -21.2859
   -21.2825 -21.2781 -21.2758 -21.2731 -21.2706 -21.2644 -21.2609 -21.2544
   -21.2518 -21.2504 -21.2465 -21.2400 -21.2338 -21.2290 -21.2276 -21.2241
   -21.2230 -21.2196 -21.2160 -21.2137 -21.2092 -21.2081 -21.2058 -21.2023
   -21.1996 -21.1992 -21.1946 -21.1904 -21.1877 -21.1813 -21.1800 -21.1723
   -21.1644 -21.1585 -21.1445 -21.1418  -8.8804  -8.8198  -7.9858  -7.6168
    -6.8811  -6.5279  -6.3728  -6.0766  -5.7064  -5.3928  -4.5081  -4.3111
    -2.5449  -1.6728  -1.4770  -1.4347  -1.2073  -1.1765  -0.8298  -0.3899
    -0.2253  -0.1178   0.0566   0.7334   0.8568   1.0110   1.1728   1.3266
     1.4049   1.7970   1.8075   1.9314   1.9939   2.0875

     the Fermi energy is     0.7179 ev

!    total energy              =   -1929.45104517 Ry
     Harris-Foulkes estimate   =   -1929.45104991 Ry
     estimated scf accuracy    <       0.00001805 Ry

     The total energy is the sum of the following terms:

     one-electron contribution =  -10198.95020957 Ry
     hartree contribution      =    5162.65419003 Ry
     xc contribution           =    -534.52797548 Ry
     ewald contribution        =    3641.41293083 Ry
     electric field correction =       0.00002260 Ry
     smearing contrib. (-TS)   =      -0.04000359 Ry

     convergence has been achieved in   4 iterations

     Forces acting on atoms (Ry/au):


     negative rho (up, down):  4.072E-04 0.000E+00
     atom    1 type  1   force =    -0.00000725   -0.00566124   -0.00760232
     atom    2 type  1   force =     0.00000212   -0.00108734   -0.00068461
     atom    3 type  1   force =     0.00062407    0.00187125   -0.00031917
     atom    4 type  1   force =    -0.00061899    0.00185522   -0.00032599
     atom    5 type  1   force =     0.00045461   -0.00382550   -0.00261377
     atom    6 type  1   force =    -0.00045066   -0.00381029   -0.00259300
     atom    7 type  1   force =     0.00000523    0.00257856   -0.00302840
     atom    8 type  1   force =     0.00000292    0.00777053    0.00036375
     atom    9 type  1   force =     0.00013433    0.00010712    0.00270282
     atom   10 type  1   force =    -0.00013780    0.00009949    0.00270164
     atom   11 type  1   force =    -0.00000641   -0.00125217    0.00357108
     atom   12 type  1   force =    -0.00000403    0.00165903    0.00363033
     atom   13 type  2   force =     0.00000186   -0.00030467    0.00419765

     Total force =     0.007914     Total SCF correction =     0.007229
     SCF correction compared to forces is large: reduce conv_thr to get better values

     number of scf cycles    =   2
     number of bfgs steps    =   1

     energy   old            =   -1929.4510385747 Ry
     energy   new            =   -1929.4510451737 Ry

     CASE: energy  _new < energy  _old

     new trust radius        =       0.0065979615 bohr
     new conv_thr            =       0.0000010000 Ry


ATOMIC_POSITIONS (angstrom)
Sn       1.681748263   0.970957812  10.000000000    0   0   0
Sn       5.045244789   0.970957812  10.000000000    0   0   0
Sn       3.363496526   3.883831250  10.000000000    0   0   0
Sn       6.726993052   3.883831250  10.000000000    0   0   0
Sn       6.726993052   1.941915625  12.746283413    0   0   0
Sn       3.363496526   1.941915625  12.746283413    0   0   0
Sn       8.408741315   4.854789062  12.746283413    0   0   0
Sn       5.045244789   4.854789062  12.746283413    0   0   0
Sn       0.128257702  -0.018217306  15.809037912
Sn       3.235127466  -0.018212260  15.809308745
Sn       1.681797141   3.040240683  15.448703605
Sn       5.045285470   2.789944427  15.426014177
H        1.681694741  -0.040355285  17.144445523



     Writing output data file calc.save
     Check: negative starting charge=   -0.001477
     NEW-OLD atomic charge density approx. for the potential
     Check: negative starting charge=   -0.001476

     negative rho (up, down):  4.066E-04 0.000E+00
 
     Adding external electric field

     Computed dipole along edir(3) : 
        Dipole               -0.0885 Ry au,         -0.2249 Debye
        Dipole field         -0.0002 Ry au
 
        Potential amp.        0.0143 Ry
        Total length         43.3566 bohr
 

     total cpu time spent up to now is      546.7 secs

     per-process dynamical memory:   136.9 Mb

     Self-consistent Calculation

     iteration #  1     ecut=    36.75 Ry     beta=0.20
     Davidson diagonalization with overlap
     ethr =  1.00E-06,  avg # of iterations =  4.8

     negative rho (up, down):  4.059E-04 0.000E+00
 
     Adding external electric field

     Computed dipole along edir(3) : 
        Dipole               -0.0195 Ry au,         -0.0496 Debye
        Dipole field         -0.0000 Ry au
 
        Potential amp.        0.0032 Ry
        Total length         43.3566 bohr
 

     total cpu time spent up to now is      583.6 secs

     total energy              =   -1929.45039301 Ry
     Harris-Foulkes estimate   =   -1929.45133449 Ry
     estimated scf accuracy    <       0.00266969 Ry

     iteration #  2     ecut=    36.75 Ry     beta=0.20
     Davidson diagonalization with overlap
     ethr =  1.58E-06,  avg # of iterations =  5.5

     negative rho (up, down):  4.061E-04 0.000E+00
 
     Adding external electric field

     Computed dipole along edir(3) : 
        Dipole               -0.1036 Ry au,         -0.2634 Debye
        Dipole field         -0.0002 Ry au
 
        Potential amp.        0.0168 Ry
        Total length         43.3566 bohr
 

     total cpu time spent up to now is      612.4 secs

     total energy              =   -1929.44983766 Ry
     Harris-Foulkes estimate   =   -1929.45193438 Ry
     estimated scf accuracy    <       0.02592517 Ry

     iteration #  3     ecut=    36.75 Ry     beta=0.20
     Davidson diagonalization with overlap
     ethr =  1.58E-06,  avg # of iterations =  5.3

     negative rho (up, down):  4.062E-04 0.000E+00
 
     Adding external electric field

     Computed dipole along edir(3) : 
        Dipole               -0.0807 Ry au,         -0.2051 Debye
        Dipole field         -0.0002 Ry au
 
        Potential amp.        0.0130 Ry
        Total length         43.3566 bohr
 

     total cpu time spent up to now is      640.3 secs

     total energy              =   -1929.45094276 Ry
     Harris-Foulkes estimate   =   -1929.45125661 Ry
     estimated scf accuracy    <       0.00409085 Ry

     iteration #  4     ecut=    36.75 Ry     beta=0.20
     Davidson diagonalization with overlap
     ethr =  1.58E-06,  avg # of iterations =  2.5

     negative rho (up, down):  4.063E-04 0.000E+00
 
     Adding external electric field

     Computed dipole along edir(3) : 
        Dipole               -0.0802 Ry au,         -0.2039 Debye
        Dipole field         -0.0001 Ry au
 
        Potential amp.        0.0130 Ry
        Total length         43.3566 bohr
 

     total cpu time spent up to now is      664.7 secs

     total energy              =   -1929.45108519 Ry
     Harris-Foulkes estimate   =   -1929.45108671 Ry
     estimated scf accuracy    <       0.00000751 Ry

     iteration #  5     ecut=    36.75 Ry     beta=0.20
     Davidson diagonalization with overlap
     ethr =  4.44E-09,  avg # of iterations =  5.8

     negative rho (up, down):  4.062E-04 0.000E+00
 
     Adding external electric field

     Computed dipole along edir(3) : 
        Dipole               -0.0809 Ry au,         -0.2057 Debye
        Dipole field         -0.0002 Ry au
 
        Potential amp.        0.0131 Ry
        Total length         43.3566 bohr
 

     total cpu time spent up to now is      695.0 secs

     total energy              =   -1929.45109309 Ry
     Harris-Foulkes estimate   =   -1929.45109413 Ry
     estimated scf accuracy    <       0.00001035 Ry

     iteration #  6     ecut=    36.75 Ry     beta=0.20
     Davidson diagonalization with overlap
     ethr =  4.44E-09,  avg # of iterations =  2.5

     negative rho (up, down):  4.062E-04 0.000E+00
 
     Adding external electric field

     Computed dipole along edir(3) : 
        Dipole               -0.0854 Ry au,         -0.2171 Debye
        Dipole field         -0.0002 Ry au
 
        Potential amp.        0.0138 Ry
        Total length         43.3566 bohr
 

     total cpu time spent up to now is      719.6 secs

     End of self-consistent calculation

          k = 0.0000 0.0000 0.0000 ( 25377 PWs)   bands (ev):

   -21.4055 -21.3847 -21.3796 -21.3793 -21.3698 -21.3604 -21.3498 -21.3473
   -21.3384 -21.3355 -21.3320 -21.3286 -21.3250 -21.3202 -21.3182 -21.3153
   -21.3136 -21.3116 -21.3105 -21.3093 -21.3070 -21.2970 -21.2944 -21.2930
   -21.2915 -21.2874 -21.2862 -21.2860 -21.2828 -21.2767 -21.2702 -21.2649
   -21.2593 -21.2513 -21.2485 -21.2394 -21.2354 -21.2210 -21.2192 -21.2152
   -21.2030 -21.1963 -21.1933 -21.1890 -21.1884 -21.1864 -21.1815 -21.1798
   -21.1729 -21.1701 -21.1682 -21.1673 -21.1611 -21.1588 -21.1519 -21.1483
   -21.1463 -21.1423 -21.1345 -21.1314  -9.9845  -8.9073  -7.4105  -6.0865
    -5.9645  -5.9073  -5.7105  -5.5192  -5.3092  -4.8809  -4.7025  -4.5442
    -3.4559  -3.2467  -3.1653  -2.9098  -2.4570  -2.0541  -2.0350  -1.9207
    -1.8732  -1.8532  -0.7713   0.6803   1.5277   1.5787   1.6689   1.7101
     1.7729   2.5760   3.0333   3.3283   3.3659   3.4675

          k = 0.0000 0.1925 0.0000 ( 25365 PWs)   bands (ev):

   -21.4042 -21.3770 -21.3753 -21.3700 -21.3617 -21.3530 -21.3481 -21.3451
   -21.3356 -21.3317 -21.3284 -21.3272 -21.3208 -21.3168 -21.3124 -21.3121
   -21.3097 -21.3085 -21.3059 -21.3047 -21.3016 -21.2984 -21.2955 -21.2926
   -21.2887 -21.2861 -21.2856 -21.2840 -21.2800 -21.2761 -21.2688 -21.2645
   -21.2590 -21.2531 -21.2473 -21.2425 -21.2402 -21.2224 -21.2200 -21.2182
   -21.2050 -21.2001 -21.1995 -21.1979 -21.1929 -21.1903 -21.1839 -21.1827
   -21.1749 -21.1733 -21.1711 -21.1700 -21.1687 -21.1641 -21.1551 -21.1535
   -21.1530 -21.1488 -21.1436 -21.1331  -9.8585  -8.7884  -7.3604  -6.8389
    -6.2760  -6.1536  -6.0322  -5.4482  -5.2808  -4.8580  -4.6177  -4.4681
    -3.3782  -2.9709  -2.8108  -2.6391  -2.3719  -2.0844  -1.8314  -1.5665
    -1.2992  -0.8530  -0.3880   0.4584   0.8692   1.1937   1.6450   2.0048
     2.1566   2.4669   2.4796   2.8614   3.0394   3.3512

          k = 0.0000 0.3849 0.0000 ( 25367 PWs)   bands (ev):

   -21.4009 -21.3699 -21.3572 -21.3480 -21.3466 -21.3406 -21.3361 -21.3328
   -21.3305 -21.3296 -21.3246 -21.3170 -21.3166 -21.3109 -21.3082 -21.3081
   -21.3041 -21.3022 -21.2999 -21.2974 -21.2947 -21.2897 -21.2893 -21.2869
   -21.2859 -21.2828 -21.2798 -21.2749 -21.2746 -21.2705 -21.2666 -21.2614
   -21.2601 -21.2549 -21.2515 -21.2440 -21.2378 -21.2301 -21.2237 -21.2222
   -21.2213 -21.2162 -21.2099 -21.2079 -21.1991 -21.1984 -21.1952 -21.1930
   -21.1901 -21.1862 -21.1819 -21.1790 -21.1778 -21.1729 -21.1705 -21.1694
   -21.1639 -21.1617 -21.1502 -21.1340  -9.4819  -8.4397  -7.9918  -7.2133
    -6.6353  -6.5337  -6.4428  -5.6294  -5.4303  -5.3796  -4.4618  -4.3516
    -3.2162  -2.2833  -2.2683  -1.9189  -1.5001  -1.2763  -1.0873  -0.6127
    -0.5380  -0.1480   0.1006   0.3867   0.6297   1.1438   1.2988   1.3291
     1.6002   1.8514   1.9016   2.4409   2.5168   2.8882

          k = 0.0000-0.5774 0.0000 ( 25386 PWs)   bands (ev):

   -21.3989 -21.3653 -21.3478 -21.3463 -21.3354 -21.3307 -21.3305 -21.3282
   -21.3230 -21.3204 -21.3162 -21.3144 -21.3122 -21.3110 -21.3092 -21.3048
   -21.3039 -21.2999 -21.2975 -21.2926 -21.2908 -21.2881 -21.2861 -21.2835
   -21.2823 -21.2806 -21.2797 -21.2736 -21.2699 -21.2683 -21.2658 -21.2611
   -21.2557 -21.2487 -21.2457 -21.2417 -21.2388 -21.2346 -21.2306 -21.2244
   -21.2196 -21.2187 -21.2158 -21.2102 -21.2096 -21.2063 -21.2041 -21.2022
   -21.2022 -21.1995 -21.1955 -21.1890 -21.1862 -21.1845 -21.1774 -21.1728
   -21.1650 -21.1634 -21.1502 -21.1340  -8.9307  -8.7707  -8.0000  -7.6968
    -6.6811  -6.5496  -6.4059  -6.0033  -5.5990  -5.5090  -4.4332  -4.3391
    -3.0588  -1.6373  -1.5380  -1.4145  -1.2708  -1.2222  -0.7515  -0.3998
    -0.1006   0.0748   0.1223   0.6579   0.9855   1.0453   1.1400   1.3416
     1.5851   1.6345   1.7469   2.0288   2.0571   2.1049

          k = 0.1667-0.0962 0.0000 ( 25365 PWs)   bands (ev):

   -21.3973 -21.3796 -21.3721 -21.3699 -21.3649 -21.3554 -21.3462 -21.3411
   -21.3366 -21.3324 -21.3295 -21.3254 -21.3220 -21.3182 -21.3150 -21.3138
   -21.3106 -21.3082 -21.3062 -21.3024 -21.3006 -21.2959 -21.2939 -21.2932
   -21.2910 -21.2881 -21.2869 -21.2822 -21.2806 -21.2734 -21.2688 -21.2645
   -21.2594 -21.2532 -21.2481 -21.2435 -21.2384 -21.2221 -21.2207 -21.2176
   -21.2062 -21.2006 -21.1985 -21.1961 -21.1954 -21.1912 -21.1849 -21.1818
   -21.1756 -21.1740 -21.1717 -21.1696 -21.1679 -21.1650 -21.1596 -21.1534
   -21.1504 -21.1448 -21.1396 -21.1392  -9.8578  -8.7875  -7.3283  -6.8625
    -6.3283  -6.1515  -5.9412  -5.6168  -5.2816  -4.7740  -4.6206  -4.4906
    -3.2826  -2.9225  -2.7630  -2.6264  -2.3286  -2.1441  -1.9932  -1.4647
    -1.2080  -0.8563  -0.5586   0.4269   0.8356   1.2068   1.6608   2.0492
     2.2306   2.3868   2.5250   2.7659   3.0699   3.3650

          k = 0.1667 0.0962 0.0000 ( 25365 PWs)   bands (ev):

   -21.3973 -21.3796 -21.3721 -21.3699 -21.3649 -21.3554 -21.3462 -21.3411
   -21.3366 -21.3324 -21.3295 -21.3254 -21.3220 -21.3182 -21.3150 -21.3138
   -21.3106 -21.3082 -21.3062 -21.3024 -21.3006 -21.2959 -21.2939 -21.2932
   -21.2910 -21.2881 -21.2869 -21.2822 -21.2806 -21.2734 -21.2688 -21.2645
   -21.2594 -21.2532 -21.2481 -21.2435 -21.2384 -21.2221 -21.2207 -21.2176
   -21.2062 -21.2006 -21.1985 -21.1961 -21.1954 -21.1912 -21.1849 -21.1818
   -21.1756 -21.1740 -21.1717 -21.1696 -21.1679 -21.1650 -21.1596 -21.1534
   -21.1504 -21.1448 -21.1396 -21.1392  -9.8578  -8.7875  -7.3283  -6.8625
    -6.3283  -6.1515  -5.9412  -5.6168  -5.2816  -4.7740  -4.6206  -4.4906
    -3.2826  -2.9225  -2.7630  -2.6265  -2.3287  -2.1441  -1.9932  -1.4647
    -1.2080  -0.8563  -0.5586   0.4269   0.8356   1.2068   1.6608   2.0493
     2.2307   2.3868   2.5250   2.7659   3.0699   3.3649

          k = 0.1667 0.2887 0.0000 ( 25362 PWs)   bands (ev):

   -21.3953 -21.3678 -21.3648 -21.3572 -21.3516 -21.3430 -21.3388 -21.3350
   -21.3324 -21.3268 -21.3246 -21.3202 -21.3182 -21.3160 -21.3131 -21.3085
   -21.3046 -21.3018 -21.2994 -21.2984 -21.2970 -21.2942 -21.2914 -21.2899
   -21.2878 -21.2858 -21.2818 -21.2769 -21.2745 -21.2724 -21.2659 -21.2626
   -21.2583 -21.2550 -21.2514 -21.2464 -21.2397 -21.2263 -21.2241 -21.2197
   -21.2144 -21.2119 -21.2070 -21.2051 -21.2011 -21.1971 -21.1932 -21.1898
   -21.1838 -21.1811 -21.1777 -21.1766 -21.1737 -21.1720 -21.1699 -21.1643
   -21.1605 -21.1512 -21.1497 -21.1405  -9.6062  -8.5539  -7.4817  -7.3191
    -7.0291  -6.3831  -6.1966  -5.5701  -5.1685  -5.0255  -4.8297  -4.3913
    -3.2203  -2.6799  -2.1123  -1.9182  -1.8318  -1.6546  -1.2326  -1.0405
    -0.7854  -0.1445   0.0933   0.4251   0.5635   0.6730   1.2489   1.6174
     1.9803   2.2163   2.3045   2.6884   2.7204   2.9612

          k = 0.1667-0.6736 0.0000 ( 25368 PWs)   bands (ev):

   -21.3927 -21.3585 -21.3494 -21.3411 -21.3394 -21.3339 -21.3300 -21.3273
   -21.3246 -21.3224 -21.3150 -21.3148 -21.3120 -21.3117 -21.3102 -21.3077
   -21.3071 -21.3009 -21.2966 -21.2945 -21.2928 -21.2889 -21.2850 -21.2839
   -21.2824 -21.2795 -21.2772 -21.2734 -21.2694 -21.2683 -21.2634 -21.2614
   -21.2584 -21.2503 -21.2482 -21.2393 -21.2376 -21.2347 -21.2307 -21.2281
   -21.2242 -21.2214 -21.2161 -21.2124 -21.2103 -21.2052 -21.2041 -21.2018
   -21.1986 -21.1947 -21.1900 -21.1867 -21.1815 -21.1785 -21.1743 -21.1722
   -21.1681 -21.1657 -21.1546 -21.1406  -9.1084  -8.3514  -8.1146  -7.5856
    -7.3704  -6.5709  -6.3480  -5.7164  -5.5128  -5.0783  -4.7562  -4.2335
    -3.0912  -2.1190  -1.6815  -1.3643  -1.1652  -0.9057  -0.6875  -0.4990
    -0.2261  -0.0897   0.2358   0.3801   0.7353   0.8629   1.1524   1.4293
     1.8635   2.0307   2.1757   2.2723   2.2926   2.5771

          k = 0.1667-0.4811 0.0000 ( 25368 PWs)   bands (ev):

   -21.3927 -21.3585 -21.3494 -21.3411 -21.3394 -21.3339 -21.3299 -21.3273
   -21.3246 -21.3224 -21.3150 -21.3148 -21.3120 -21.3116 -21.3102 -21.3077
   -21.3071 -21.3009 -21.2966 -21.2945 -21.2928 -21.2889 -21.2850 -21.2839
   -21.2824 -21.2795 -21.2772 -21.2734 -21.2694 -21.2683 -21.2634 -21.2614
   -21.2584 -21.2503 -21.2482 -21.2393 -21.2376 -21.2347 -21.2307 -21.2281
   -21.2242 -21.2214 -21.2161 -21.2124 -21.2103 -21.2052 -21.2041 -21.2018
   -21.1986 -21.1947 -21.1900 -21.1867 -21.1815 -21.1785 -21.1743 -21.1722
   -21.1681 -21.1657 -21.1546 -21.1406  -9.1084  -8.3514  -8.1146  -7.5856
    -7.3704  -6.5709  -6.3480  -5.7164  -5.5128  -5.0783  -4.7562  -4.2335
    -3.0912  -2.1190  -1.6815  -1.3643  -1.1652  -0.9057  -0.6875  -0.4990
    -0.2261  -0.0897   0.2358   0.3801   0.7353   0.8629   1.1524   1.4293
[...]
    -0.2274  -0.0912   0.2347   0.3787   0.7339   0.8619   1.1510   1.4275
     1.8619   2.0294   2.1742   2.2707   2.2910   2.5757

          k = 0.1667-0.4811 0.0000 ( 25368 PWs)   bands (ev):

   -21.3931 -21.3600 -21.3504 -21.3422 -21.3406 -21.3351 -21.3313 -21.3287
   -21.3258 -21.3237 -21.3163 -21.3162 -21.3133 -21.3129 -21.3116 -21.3090
   -21.3084 -21.3022 -21.2979 -21.2958 -21.2942 -21.2904 -21.2864 -21.2853
   -21.2837 -21.2808 -21.2786 -21.2748 -21.2706 -21.2696 -21.2646 -21.2628
   -21.2598 -21.2516 -21.2496 -21.2409 -21.2390 -21.2361 -21.2321 -21.2296
   -21.2255 -21.2227 -21.2176 -21.2139 -21.2118 -21.2068 -21.2056 -21.2033
   -21.2002 -21.1964 -21.1916 -21.1883 -21.1832 -21.1802 -21.1760 -21.1739
   -21.1697 -21.1674 -21.1563 -21.1423  -9.1095  -8.3518  -8.1136  -7.5867
    -7.3705  -6.5716  -6.3497  -5.7176  -5.5143  -5.0797  -4.7576  -4.2350
    -3.0889  -2.1203  -1.6827  -1.3655  -1.1667  -0.9072  -0.6888  -0.5004
    -0.2274  -0.0912   0.2347   0.3787   0.7339   0.8619   1.1510   1.4275
     1.8619   2.0294   2.1742   2.2707   2.2910   2.5757

          k = 0.1667-0.2887 0.0000 ( 25362 PWs)   bands (ev):

   -21.3958 -21.3691 -21.3662 -21.3584 -21.3528 -21.3441 -21.3400 -21.3361
   -21.3337 -21.3283 -21.3258 -21.3215 -21.3196 -21.3174 -21.3144 -21.3098
   -21.3059 -21.3031 -21.3008 -21.2999 -21.2984 -21.2956 -21.2929 -21.2913
   -21.2891 -21.2872 -21.2832 -21.2783 -21.2759 -21.2739 -21.2672 -21.2639
   -21.2598 -21.2565 -21.2527 -21.2477 -21.2412 -21.2276 -21.2256 -21.2212
   -21.2158 -21.2132 -21.2084 -21.2063 -21.2024 -21.1985 -21.1948 -21.1915
   -21.1854 -21.1827 -21.1793 -21.1783 -21.1753 -21.1737 -21.1715 -21.1660
   -21.1622 -21.1529 -21.1514 -21.1422  -9.6073  -8.5534  -7.4808  -7.3205
    -7.0295  -6.3837  -6.1981  -5.5716  -5.1694  -5.0263  -4.8314  -4.3928
    -3.2197  -2.6810  -2.1134  -1.9196  -1.8331  -1.6559  -1.2340  -1.0422
    -0.7861  -0.1459   0.0919   0.4240   0.5620   0.6713   1.2475   1.6159
     1.9791   2.2148   2.3028   2.6869   2.7189   2.9593

          k = 0.3333-0.1925 0.0000 ( 25367 PWs)   bands (ev):

   -21.3793 -21.3709 -21.3606 -21.3516 -21.3486 -21.3429 -21.3383 -21.3361
   -21.3304 -21.3295 -21.3240 -21.3205 -21.3164 -21.3132 -21.3115 -21.3079
   -21.3068 -21.3053 -21.3010 -21.3001 -21.2977 -21.2948 -21.2919 -21.2888
   -21.2856 -21.2833 -21.2795 -21.2780 -21.2736 -21.2718 -21.2663 -21.2630
   -21.2611 -21.2553 -21.2521 -21.2474 -21.2398 -21.2325 -21.2247 -21.2237
   -21.2208 -21.2162 -21.2141 -21.2098 -21.2075 -21.1982 -21.1978 -21.1944
   -21.1908 -21.1874 -21.1846 -21.1827 -21.1802 -21.1789 -21.1737 -21.1705
   -21.1655 -21.1561 -21.1468 -21.1436  -9.4792  -8.4421  -7.9549  -7.1763
    -6.7580  -6.5360  -6.4160  -5.8544  -5.3636  -5.2901  -4.5265  -4.3620
    -2.8303  -2.3006  -2.2414  -1.7646  -1.5369  -1.3536  -1.0430  -0.7790
    -0.4330  -0.4039   0.1214   0.4863   0.5464   0.9389   1.2559   1.2920
     1.6148   1.8217   2.0211   2.3060   2.5509   2.9637

          k = 0.3333 0.0000 0.0000 ( 25362 PWs)   bands (ev):

   -21.3796 -21.3702 -21.3658 -21.3574 -21.3527 -21.3507 -21.3419 -21.3339
   -21.3310 -21.3289 -21.3266 -21.3246 -21.3188 -21.3174 -21.3140 -21.3100
   -21.3091 -21.3042 -21.3029 -21.3007 -21.2972 -21.2944 -21.2933 -21.2924
   -21.2869 -21.2853 -21.2822 -21.2814 -21.2761 -21.2722 -21.2679 -21.2627
   -21.2599 -21.2568 -21.2513 -21.2459 -21.2423 -21.2288 -21.2260 -21.2210
   -21.2185 -21.2124 -21.2099 -21.2066 -21.2043 -21.1974 -21.1941 -21.1921
   -21.1864 -21.1839 -21.1816 -21.1794 -21.1772 -21.1746 -21.1710 -21.1601
   -21.1570 -21.1553 -21.1495 -21.1482  -9.6050  -8.5509  -7.4296  -7.3360
    -7.0459  -6.3795  -6.2656  -5.5893  -5.2986  -4.9571  -4.7485  -4.5081
    -2.8962  -2.6322  -2.0517  -1.9844  -1.7526  -1.5863  -1.3564  -1.1828
    -0.8076  -0.2362   0.0628   0.4401   0.5809   0.6471   1.3001   1.4573
     1.9571   2.1678   2.3213   2.6836   2.8044   2.9106

          k = 0.3333 0.1925 0.0000 ( 25367 PWs)   bands (ev):

   -21.3793 -21.3709 -21.3607 -21.3516 -21.3486 -21.3429 -21.3383 -21.3361
   -21.3304 -21.3295 -21.3240 -21.3205 -21.3164 -21.3132 -21.3115 -21.3079
   -21.3068 -21.3053 -21.3010 -21.3002 -21.2977 -21.2948 -21.2919 -21.2888
   -21.2856 -21.2833 -21.2795 -21.2780 -21.2736 -21.2718 -21.2663 -21.2630
   -21.2611 -21.2553 -21.2521 -21.2474 -21.2398 -21.2325 -21.2247 -21.2237
   -21.2208 -21.2162 -21.2141 -21.2098 -21.2075 -21.1982 -21.1978 -21.1944
   -21.1908 -21.1874 -21.1846 -21.1827 -21.1802 -21.1789 -21.1737 -21.1705
   -21.1655 -21.1561 -21.1468 -21.1436  -9.4792  -8.4421  -7.9549  -7.1763
    -6.7580  -6.5360  -6.4160  -5.8544  -5.3636  -5.2901  -4.5265  -4.3620
    -2.8303  -2.3006  -2.2414  -1.7647  -1.5369  -1.3536  -1.0430  -0.7790
    -0.4330  -0.4039   0.1214   0.4863   0.5465   0.9390   1.2559   1.2920
     1.6148   1.8217   2.0212   2.3059   2.5509   2.9637

          k = 0.3333-0.7698 0.0000 ( 25368 PWs)   bands (ev):

   -21.3781 -21.3587 -21.3518 -21.3449 -21.3411 -21.3370 -21.3314 -21.3306
   -21.3257 -21.3200 -21.3181 -21.3154 -21.3141 -21.3125 -21.3104 -21.3075
   -21.3060 -21.3033 -21.3000 -21.2996 -21.2949 -21.2923 -21.2894 -21.2866
   -21.2823 -21.2792 -21.2784 -21.2739 -21.2706 -21.2683 -21.2645 -21.2626
   -21.2602 -21.2541 -21.2478 -21.2416 -21.2391 -21.2333 -21.2310 -21.2298
   -21.2268 -21.2223 -21.2177 -21.2153 -21.2136 -21.2101 -21.2055 -21.2027
   -21.1994 -21.1962 -21.1914 -21.1890 -21.1863 -21.1825 -21.1793 -21.1739
   -21.1674 -21.1609 -21.1524 -21.1493  -9.1043  -8.3649  -8.0718  -7.6473
    -7.2630  -6.7608  -6.2785  -5.7504  -5.4951  -5.1064  -4.7558  -4.2583
    -2.8294  -2.1291  -1.6484  -1.3459  -1.1286  -0.9272  -0.7910  -0.4616
    -0.3231  -0.0587   0.1432   0.3597   0.7645   0.9473   1.0800   1.4465
     1.6907   2.0207   2.0975   2.2228   2.3187   2.5857

          k = 0.3333-0.5774 0.0000 ( 25314 PWs)   bands (ev):

   -21.3772 -21.3470 -21.3422 -21.3378 -21.3354 -21.3338 -21.3299 -21.3258
   -21.3227 -21.3220 -21.3194 -21.3176 -21.3162 -21.3152 -21.3118 -21.3101
   -21.3071 -21.3028 -21.2991 -21.2945 -21.2927 -21.2898 -21.2868 -21.2840
   -21.2812 -21.2794 -21.2732 -21.2677 -21.2672 -21.2647 -21.2632 -21.2573
   -21.2550 -21.2529 -21.2510 -21.2480 -21.2424 -21.2390 -21.2369 -21.2310
   -21.2266 -21.2260 -21.2243 -21.2206 -21.2134 -21.2128 -21.2112 -21.2071
   -21.2025 -21.1966 -21.1926 -21.1896 -21.1832 -21.1805 -21.1772 -21.1761
   -21.1709 -21.1678 -21.1653 -21.1525  -8.5549  -8.4944  -8.3807  -7.7503
    -7.3295  -7.2129  -6.1097  -5.7554  -5.6572  -4.7493  -4.5446  -4.4891
    -2.8233  -1.7551  -1.5879  -1.4942  -1.2569  -1.1793  -0.6130  -0.2100
    -0.1562   0.1759   0.6249   0.6926   0.9215   1.2735   1.2768   1.3832
     1.5309   1.8398   1.9840   2.2226   2.2797   2.7074

          k = 0.3333-0.3849 0.0000 ( 25368 PWs)   bands (ev):

   -21.3781 -21.3587 -21.3518 -21.3449 -21.3411 -21.3370 -21.3314 -21.3306
   -21.3257 -21.3199 -21.3181 -21.3154 -21.3141 -21.3125 -21.3104 -21.3075
   -21.3060 -21.3033 -21.3000 -21.2996 -21.2949 -21.2923 -21.2894 -21.2866
   -21.2823 -21.2792 -21.2784 -21.2739 -21.2706 -21.2683 -21.2645 -21.2626
   -21.2602 -21.2541 -21.2478 -21.2416 -21.2391 -21.2333 -21.2310 -21.2298
   -21.2269 -21.2223 -21.2177 -21.2153 -21.2136 -21.2101 -21.2055 -21.2027
   -21.1994 -21.1962 -21.1914 -21.1890 -21.1863 -21.1825 -21.1793 -21.1739
   -21.1674 -21.1609 -21.1524 -21.1493  -9.1043  -8.3649  -8.0718  -7.6473
    -7.2630  -6.7608  -6.2785  -5.7504  -5.4951  -5.1064  -4.7558  -4.2583
    -2.8294  -2.1291  -1.6484  -1.3459  -1.1286  -0.9273  -0.7910  -0.4616
    -0.3231  -0.0587   0.1432   0.3597   0.7645   0.9473   1.0799   1.4465
     1.6906   2.0207   2.0975   2.2227   2.3187   2.5857

          k =-0.5000 0.2887 0.0000 ( 25386 PWs)   bands (ev):

   -21.3686 -21.3626 -21.3559 -21.3499 -21.3395 -21.3355 -21.3341 -21.3268
   -21.3240 -21.3211 -21.3165 -21.3149 -21.3120 -21.3106 -21.3079 -21.3071
   -21.3042 -21.3019 -21.3009 -21.2981 -21.2947 -21.2939 -21.2914 -21.2885
   -21.2853 -21.2811 -21.2788 -21.2762 -21.2734 -21.2676 -21.2640 -21.2573
   -21.2541 -21.2528 -21.2494 -21.2433 -21.2372 -21.2315 -21.2303 -21.2268
   -21.2258 -21.2224 -21.2188 -21.2162 -21.2116 -21.2103 -21.2085 -21.2044
   -21.2017 -21.2012 -21.1966 -21.1932 -21.1902 -21.1835 -21.1820 -21.1748
   -21.1670 -21.1606 -21.1468 -21.1436  -8.8797  -8.8197  -7.9856  -7.6177
    -6.8775  -6.5293  -6.3746  -6.0811  -5.7088  -5.3961  -4.5107  -4.3154
    -2.5437  -1.6737  -1.4781  -1.4359  -1.2076  -1.1777  -0.8321  -0.3919
    -0.2290  -0.1181   0.0550   0.7315   0.8556   1.0093   1.1699   1.3225
     1.4029   1.7933   1.8033   1.9269   1.9902   2.0854

          k =-0.5000 0.4811 0.0000 ( 25368 PWs)   bands (ev):

   -21.3683 -21.3584 -21.3516 -21.3451 -21.3419 -21.3361 -21.3328 -21.3310
   -21.3273 -21.3219 -21.3192 -21.3175 -21.3156 -21.3116 -21.3092 -21.3080
   -21.3048 -21.3023 -21.3000 -21.2974 -21.2956 -21.2944 -21.2888 -21.2855
   -21.2832 -21.2814 -21.2791 -21.2741 -21.2718 -21.2677 -21.2655 -21.2607
   -21.2564 -21.2513 -21.2482 -21.2444 -21.2388 -21.2337 -21.2307 -21.2294
   -21.2258 -21.2240 -21.2207 -21.2164 -21.2130 -21.2110 -21.2092 -21.2021
   -21.1980 -21.1955 -21.1940 -21.1891 -21.1847 -21.1804 -21.1774 -21.1729
   -21.1686 -21.1630 -21.1523 -21.1498  -9.0998  -8.3694  -8.0837  -7.5797
    -7.3232  -6.7394  -6.3246  -5.7355  -5.5100  -5.0869  -4.7934  -4.2925
    -2.5842  -2.1346  -1.5967  -1.3623  -1.1933  -1.0196  -0.7696  -0.5278
    -0.3516  -0.1249   0.2417   0.4564   0.7696   0.9023   1.1434   1.1995
     1.7222   2.0574   2.1133   2.1967   2.3297   2.5695

          k =-0.5000 0.6736 0.0000 ( 25368 PWs)   bands (ev):

   -21.3683 -21.3584 -21.3516 -21.3451 -21.3419 -21.3361 -21.3328 -21.3310
   -21.3273 -21.3219 -21.3192 -21.3175 -21.3156 -21.3116 -21.3092 -21.3080
   -21.3048 -21.3023 -21.3000 -21.2974 -21.2956 -21.2944 -21.2888 -21.2855
   -21.2832 -21.2814 -21.2791 -21.2741 -21.2718 -21.2677 -21.2655 -21.2607
   -21.2564 -21.2513 -21.2482 -21.2444 -21.2388 -21.2337 -21.2307 -21.2294
   -21.2258 -21.2240 -21.2207 -21.2164 -21.2130 -21.2110 -21.2092 -21.2021
   -21.1980 -21.1955 -21.1940 -21.1891 -21.1847 -21.1804 -21.1774 -21.1729
   -21.1686 -21.1630 -21.1523 -21.1498  -9.0998  -8.3694  -8.0837  -7.5797
    -7.3232  -6.7394  -6.3246  -5.7355  -5.5100  -5.0869  -4.7934  -4.2925
    -2.5842  -2.1346  -1.5967  -1.3623  -1.1932  -1.0196  -0.7696  -0.5279
    -0.3516  -0.1249   0.2417   0.4564   0.7696   0.9022   1.1434   1.1995
     1.7222   2.0574   2.1133   2.1967   2.3297   2.5694

          k =-0.5000-0.2887 0.0000 ( 25386 PWs)   bands (ev):

   -21.3686 -21.3626 -21.3559 -21.3499 -21.3395 -21.3355 -21.3341 -21.3268
   -21.3241 -21.3211 -21.3165 -21.3149 -21.3120 -21.3106 -21.3079 -21.3071
   -21.3042 -21.3019 -21.3009 -21.2981 -21.2947 -21.2939 -21.2914 -21.2885
   -21.2853 -21.2811 -21.2788 -21.2762 -21.2734 -21.2676 -21.2640 -21.2573
   -21.2541 -21.2528 -21.2494 -21.2433 -21.2372 -21.2315 -21.2303 -21.2268
   -21.2258 -21.2224 -21.2188 -21.2162 -21.2116 -21.2103 -21.2085 -21.2044
   -21.2017 -21.2012 -21.1966 -21.1932 -21.1902 -21.1835 -21.1820 -21.1748
   -21.1670 -21.1606 -21.1468 -21.1436  -8.8797  -8.8196  -7.9855  -7.6178
    -6.8775  -6.5293  -6.3746  -6.0811  -5.7088  -5.3961  -4.5107  -4.3154
    -2.5437  -1.6737  -1.4781  -1.4359  -1.2076  -1.1777  -0.8322  -0.3918
    -0.2290  -0.1180   0.0550   0.7314   0.8556   1.0093   1.1699   1.3226
     1.4028   1.7933   1.8033   1.9270   1.9901   2.0855

     the Fermi energy is     0.7154 ev

!    total energy              =   -1929.45110810 Ry
     Harris-Foulkes estimate   =   -1929.45110823 Ry
     estimated scf accuracy    <       0.00000020 Ry

     The total energy is the sum of the following terms:

     one-electron contribution =  -10194.19563643 Ry
     hartree contribution      =    5160.15744847 Ry
     xc contribution           =    -534.52399045 Ry
     ewald contribution        =    3639.15107601 Ry
     electric field correction =       0.00001235 Ry
     smearing contrib. (-TS)   =      -0.04001805 Ry

     convergence has been achieved in   4 iterations

     Forces acting on atoms (Ry/au):


     negative rho (up, down):  4.063E-04 0.000E+00
     atom    1 type  1   force =     0.00000033   -0.00563160   -0.00459449
     atom    2 type  1   force =     0.00000130   -0.00104797    0.00208766
     atom    3 type  1   force =     0.00064647    0.00183782    0.00245846
     atom    4 type  1   force =    -0.00064565    0.00183736    0.00245738
     atom    5 type  1   force =     0.00043881   -0.00404039   -0.00127442
     atom    6 type  1   force =    -0.00043999   -0.00403791   -0.00126944
     atom    7 type  1   force =    -0.00000006    0.00275393   -0.00166499
     atom    8 type  1   force =     0.00000266    0.00799743    0.00137669
     atom    9 type  1   force =    -0.00060698    0.00015631   -0.00044116
     atom   10 type  1   force =     0.00060128    0.00015297   -0.00044145
     atom   11 type  1   force =     0.00000032   -0.00087794   -0.00020242
     atom   12 type  1   force =     0.00000080    0.00119059   -0.00011735
     atom   13 type  2   force =     0.00000072   -0.00029060    0.00162555

     Total force =     0.002477     Total SCF correction =     0.000954
     SCF correction compared to forces is large: reduce conv_thr to get better values

     bfgs converged in   4 scf cycles and   3 bfgs steps
     (criteria: energy <  1.0E+12, force <  1.9E-03)

     End of BFGS Geometry Optimization

     Final energy   =   -1929.4511080971 Ry
Begin final coordinates

ATOMIC_POSITIONS (angstrom)
Sn       1.681748263   0.970957812  10.000000000    0   0   0
Sn       5.045244789   0.970957812  10.000000000    0   0   0
Sn       3.363496526   3.883831250  10.000000000    0   0   0
Sn       6.726993052   3.883831250  10.000000000    0   0   0
Sn       6.726993052   1.941915625  12.746283413    0   0   0
Sn       3.363496526   1.941915625  12.746283413    0   0   0
Sn       8.408741315   4.854789062  12.746283413    0   0   0
Sn       5.045244789   4.854789062  12.746283413    0   0   0
Sn       0.127271569  -0.018092745  15.809039497
Sn       3.236113859  -0.018088712  15.809309882
Sn       1.681796957   3.039552868  15.449162069
Sn       5.045285380   2.790865297  15.426571917
H        1.681694845  -0.040570816  17.146218205
End final coordinates



     Writing output data file calc.save
 
     init_run     :     13.10s CPU     13.60s WALL (       1 calls)
     electrons    :    733.01s CPU    780.26s WALL (       4 calls)
     update_pot   :     10.01s CPU     11.19s WALL (       3 calls)
     forces       :     67.58s CPU     69.70s WALL (       4 calls)

     Called by init_run:
     wfcinit      :      5.04s CPU      5.24s WALL (       1 calls)
     potinit      :      2.06s CPU      2.21s WALL (       1 calls)

     Called by electrons:
     c_bands      :    400.11s CPU    425.25s WALL (      28 calls)
     sum_band     :    158.48s CPU    166.89s WALL (      28 calls)
     v_of_rho     :     51.38s CPU     57.85s WALL (      31 calls)
     newd         :    140.04s CPU    141.65s WALL (      31 calls)
     mix_rho      :      1.65s CPU      1.69s WALL (      28 calls)
     vdW_energy   :      8.30s CPU      9.26s WALL (      35 calls)
     vdW_ffts     :     21.25s CPU     22.27s WALL (      70 calls)
     vdW_v        :      7.53s CPU      7.88s WALL (      35 calls)

     Called by c_bands:
     init_us_2    :      2.63s CPU      2.63s WALL (     427 calls)
     cegterg      :    377.66s CPU    391.15s WALL (     196 calls)

     Called by *egterg:
     h_psi        :    246.01s CPU    254.40s WALL (    1016 calls)
     s_psi        :     20.88s CPU     20.96s WALL (    1016 calls)
     g_psi        :      1.31s CPU      1.32s WALL (     813 calls)
     cdiaghg      :     40.79s CPU     41.24s WALL (     981 calls)

     Called by h_psi:
     add_vuspsi   :     21.94s CPU     22.02s WALL (    1016 calls)

     General routines
     calbec       :     34.13s CPU     35.17s WALL (    1240 calls)
     fft          :     35.96s CPU     40.62s WALL (    2281 calls)
     ffts         :      0.12s CPU      0.15s WALL (      59 calls)
     fftw         :    145.20s CPU    154.71s WALL (  110994 calls)
     interpolate  :      1.23s CPU      1.27s WALL (      59 calls)
     davcio       :      0.01s CPU      0.12s WALL (       7 calls)
 
     Parallel routines
     fft_scatter  :    100.98s CPU    114.47s WALL (  113334 calls)
 
     PWSCF        : 13m59.78s CPU    14m53.12s WALL

 
   This run was terminated on:   1: 6: 1  17Jan2019            

=------------------------------------------------------------------------------=
   JOB DONE.
=------------------------------------------------------------------------------=
Job  /afs/slac/g/suncat/bin/suncat-tsmpirun -x LD_LIBRARY_PATH -wdir /tmp/qe_379027gt490hid_scratch pw.x -npool 3 -in pw.pwi

TID   HOST_NAME   COMMAND_LINE            STATUS            TERMINATION_TIME
===== ========== ================  =======================  ===================
00000 suncat1036 pw.x -npool 3 -i  Done                     01/17/2019 01:06:01
00001 suncat1036 pw.x -npool 3 -i  Done                     01/17/2019 01:06:01
00002 suncat1036 pw.x -npool 3 -i  Done                     01/17/2019 01:06:01
00003 suncat1036 pw.x -npool 3 -i  Done                     01/17/2019 01:06:01
00004 suncat1036 pw.x -npool 3 -i  Done                     01/17/2019 01:06:01
00005 suncat1036 pw.x -npool 3 -i  Done                     01/17/2019 01:06:01
00006 suncat1036 pw.x -npool 3 -i  Done                     01/17/2019 01:06:01
00007 suncat1036 pw.x -npool 3 -i  Done                     01/17/2019 01:06:01
00008 suncat1036 pw.x -npool 3 -i  Done                     01/17/2019 01:06:01
00009 suncat1036 pw.x -npool 3 -i  Done                     01/17/2019 01:06:01
00010 suncat1036 pw.x -npool 3 -i  Done                     01/17/2019 01:06:01
00011 suncat1036 pw.x -npool 3 -i  Done                     01/17/2019 01:06:01
00012 suncat1011 pw.x -npool 3 -i  Done                     01/17/2019 01:06:01
00013 suncat1011 pw.x -npool 3 -i  Done                     01/17/2019 01:06:01
00014 suncat1011 pw.x -npool 3 -i  Done                     01/17/2019 01:06:01
00015 suncat1011 pw.x -npool 3 -i  Done                     01/17/2019 01:06:01
00016 suncat1011 pw.x -npool 3 -i  Done                     01/17/2019 01:06:01
00017 suncat1011 pw.x -npool 3 -i  Done                     01/17/2019 01:06:01
00018 suncat1011 pw.x -npool 3 -i  Done                     01/17/2019 01:06:01
00019 suncat1011 pw.x -npool 3 -i  Done                     01/17/2019 01:06:01
00020 suncat1011 pw.x -npool 3 -i  Done                     01/17/2019 01:06:01
00021 suncat1011 pw.x -npool 3 -i  Done                     01/17/2019 01:06:01
00022 suncat1011 pw.x -npool 3 -i  Done                     01/17/2019 01:06:01
00023 suncat1011 pw.x -npool 3 -i  Done                     01/17/2019 01:06:01
00024 suncat1006 pw.x -npool 3 -i  Done                     01/17/2019 01:06:01
00025 suncat1006 pw.x -npool 3 -i  Done                     01/17/2019 01:06:01
00026 suncat1006 pw.x -npool 3 -i  Done                     01/17/2019 01:06:01
00027 suncat1006 pw.x -npool 3 -i  Done                     01/17/2019 01:06:01
00028 suncat1006 pw.x -npool 3 -i  Done                     01/17/2019 01:06:01
00029 suncat1006 pw.x -npool 3 -i  Done                     01/17/2019 01:06:01
00030 suncat1006 pw.x -npool 3 -i  Done                     01/17/2019 01:06:01
00031 suncat1006 pw.x -npool 3 -i  Done                     01/17/2019 01:06:01
00032 suncat1006 pw.x -npool 3 -i  Done                     01/17/2019 01:06:01
00033 suncat1006 pw.x -npool 3 -i  Done                     01/17/2019 01:06:01
00034 suncat1006 pw.x -npool 3 -i  Done                     01/17/2019 01:06:01
00035 suncat1006 pw.x -npool 3 -i  Done                     01/17/2019 01:06:01
