  python dir          : /u/if/mamunm/src/espresso
  espresso dir        : /nfs/slac/g/suncatfs/sw/espv18/espresso-dynpy-beef/bin
  pseudo dir          : /u/if/mamunm/psp/gbrv1.5pbe
  ase-espresso py git : GITVERSION



     Program PWSCF v.5.1rc2 (svn rev. 11289) starts on 25Apr2018 at  4:39:16 

     This program is part of the open-source Quantum ESPRESSO suite
     for quantum simulation of materials; please cite
         "P. Giannozzi et al., J. Phys.:Condens. Matter 21 395502 (2009);
          URL http://www.quantum-espresso.org", 
     in publications or presentations arising from this work. More details at
     http://www.quantum-espresso.org/quote

     Parallel version (MPI), running on    32 processors
     K-points division:     npool     =       4
     R & G space division:  proc/nbgrp/npool/nimage =       8
     Reading input from pw.inp
     Message from routine read_cards :
     DEPRECATED: no units specified in CELL_PARAMETERS card

     Current dimensions of program PWSCF are:
     Max number of different atomic species (ntypx) = 10
     Max number of k-points (npk) =  40000
     Max angular momentum in pseudopotentials (lmaxx) =  3
     Presently stress not available with electric field


     **************************************************************************
     Initializing libbeef V0.1.1 with the BEEF-vdW functional.
     Citation: Wellendorff et al., PRB 85, 235149 (2012).
     **************************************************************************


     IMPORTANT: XC functional enforced from input :
     Exchange-correlation      = BEEF-VDW ( 1  4 27 13 2)
     Any further DFT definition will be discarded
     Please, verify this is what you really want


     Subspace diagonalization in iterative solution of the eigenvalue problem:
     a serial algorithm will be used

 
     Parallelization info
     --------------------
     sticks:   dense  smooth     PW     G-vecs:    dense   smooth      PW
     Min         354     143     40                67132    16991    2682
     Max         355     144     43                67159    17028    2691
     Sum        2839    1147    337               537229   136073   21493
 


     bravais-lattice index     =            0
     lattice parameter (alat)  =       1.8897  a.u.
     unit-cell volume          =    4515.4205 (a.u.)^3
     number of atoms/cell      =           14
     number of atomic types    =            3
     number of electrons       =       247.00
     number of Kohn-Sham states=          133
     kinetic-energy cutoff     =      36.7493  Ry
     charge density cutoff     =     367.4932  Ry
     convergence threshold     =      1.0E-05
     mixing beta               =       0.3000
     number of iterations used =           10  plain     mixing
     Exchange-correlation      = BEEF-VDW ( 1  4 27 13 2)
     nstep                     =           50


     celldm(1)=   1.889726  celldm(2)=   0.000000  celldm(3)=   0.000000
     celldm(4)=   0.000000  celldm(5)=   0.000000  celldm(6)=   0.000000

     crystal axes: (cart. coord. in units of alat)
               a(1) = (   5.606773   0.000000   0.000000 )  
               a(2) = (   2.803387   4.855608   0.000000 )  
               a(3) = (   0.000000   0.000000  24.577911 )  

     reciprocal axes: (cart. coord. in units 2 pi/alat)
               b(1) = (  0.178356 -0.102974  0.000000 )  
               b(2) = (  0.000000  0.205947  0.000000 )  
               b(3) = (  0.000000  0.000000  0.040687 )  


     PseudoPot. # 1 for Zn read from file:
     /u/if/mamunm/psp/gbrv1.5pbe/Zn.UPF
     MD5 check sum: df62231357ef9e81f77b2b3087fa5675
     Pseudo is Ultrasoft, Zval = 20.0
     Generated by new atomic code, or converted to UPF format
     Using radial grid of  943 points,  6 beta functions with: 
                l(1) =   0
                l(2) =   0
                l(3) =   1
                l(4) =   1
                l(5) =   2
                l(6) =   2
     Q(r) pseudized with  8 coefficients,  rinner =    1.100   1.100   1.100
                                                       1.100   1.100

     PseudoPot. # 2 for S  read from file:
     /u/if/mamunm/psp/gbrv1.5pbe/S.UPF
     MD5 check sum: 88d86576ff6df21479756cfb9bdac1df
     Pseudo is Ultrasoft + core correction, Zval =  6.0
     Generated by new atomic code, or converted to UPF format
     Using radial grid of  907 points,  6 beta functions with: 
                l(1) =   0
                l(2) =   0
                l(3) =   1
                l(4) =   1
                l(5) =   2
                l(6) =   2
     Q(r) pseudized with  8 coefficients,  rinner =    1.300   1.300   1.300
                                                       1.300   1.300

     PseudoPot. # 3 for H  read from file:
     /u/if/mamunm/psp/gbrv1.5pbe/H.UPF
     MD5 check sum: 761ae9a214b05c3daf00ab9f6b793d6f
     Pseudo is Ultrasoft, Zval =  1.0
     Generated by new atomic code, or converted to UPF format
     Using radial grid of  615 points,  2 beta functions with: 
                l(1) =   0
                l(2) =   0
     Q(r) pseudized with  8 coefficients,  rinner =    0.700

     vdW kernel table read from file vdW_kernel_table
     MD5 check sum: 095c7af220d748ca6e76c0b4c6cfb241

     atomic species   valence    mass     pseudopotential
        Zn1           20.00    65.38000     Zn( 1.00)
        S1             6.00    32.06000     S ( 1.00)
        H1             1.00     1.00800     H ( 1.00)

     No symmetry found



   Cartesian axes

     site n.     atom                  positions (alat units)
         1           Zn1 tau(   1) = (   1.4016933   0.8092680  10.0000000  )
         2           Zn1 tau(   2) = (   4.2050800   0.8092680  10.0000000  )
         3           Zn1 tau(   3) = (   2.8033867   3.2370721  10.0000000  )
         4           Zn1 tau(   4) = (   5.6067733   3.2370721  10.0000000  )
         5           Zn1 tau(   5) = (   5.6067733   1.6185360  12.2889556  )
         6           Zn1 tau(   6) = (   2.8033867   1.6185360  12.2889556  )
         7           Zn1 tau(   7) = (   7.0084667   4.0463401  12.2889556  )
         8           Zn1 tau(   8) = (   4.2050800   4.0463401  12.2889556  )
         9           Zn1 tau(   9) = (   0.0000000   0.0000000  14.5779113  )
        10           Zn1 tau(  10) = (   2.8033867   0.0000000  14.5779113  )
        11           Zn1 tau(  11) = (   1.4016933   2.4278041  14.5779113  )
        12           Zn1 tau(  12) = (   4.2050800   2.4278041  14.5779113  )
        13           S1  tau(  13) = (   1.4016933   0.0000000  16.2804113  )
        14           H1  tau(  14) = (   1.4016933   0.0000000  17.5304113  )

     number of k points=    20  Fermi-Dirac smearing, width (Ry)=  0.0110
                       cart. coord. in units 2pi/alat
        k(    1) = (   0.0000000   0.0000000   0.0000000), wk =   0.0555556
        k(    2) = (   0.0000000   0.0343246   0.0000000), wk =   0.1111111
        k(    3) = (   0.0000000   0.0686491   0.0000000), wk =   0.1111111
        k(    4) = (   0.0000000  -0.1029737   0.0000000), wk =   0.0555556
        k(    5) = (   0.0297260  -0.0171623   0.0000000), wk =   0.1111111
        k(    6) = (   0.0297260   0.0171623   0.0000000), wk =   0.1111111
        k(    7) = (   0.0297260   0.0514869   0.0000000), wk =   0.1111111
        k(    8) = (   0.0297260  -0.1201360   0.0000000), wk =   0.1111111
        k(    9) = (   0.0297260  -0.0858114   0.0000000), wk =   0.1111111
        k(   10) = (   0.0297260  -0.0514869   0.0000000), wk =   0.1111111
        k(   11) = (   0.0594519  -0.0343246   0.0000000), wk =   0.1111111
        k(   12) = (   0.0594519   0.0000000   0.0000000), wk =   0.1111111
        k(   13) = (   0.0594519   0.0343246   0.0000000), wk =   0.1111111
        k(   14) = (   0.0594519  -0.1372983   0.0000000), wk =   0.1111111
        k(   15) = (   0.0594519  -0.1029737   0.0000000), wk =   0.1111111
        k(   16) = (   0.0594519  -0.0686491   0.0000000), wk =   0.1111111
        k(   17) = (  -0.0891779   0.0514869   0.0000000), wk =   0.0555556
        k(   18) = (  -0.0891779   0.0858114   0.0000000), wk =   0.1111111
        k(   19) = (  -0.0891779   0.1201360   0.0000000), wk =   0.1111111
        k(   20) = (  -0.0891779  -0.0514869   0.0000000), wk =   0.0555556

     Dense  grid:   537229 G-vectors     FFT dimensions: (  72,  72, 288)

     Smooth grid:   136073 G-vectors     FFT dimensions: (  45,  45, 180)

     Largest allocated arrays     est. size (Mb)     dimensions
        Kohn-Sham Wavefunctions         4.39 Mb     (    2163,  133)
        NL pseudopotentials             7.79 Mb     (    2163,  236)
        Each V/rho on FFT grid          2.85 Mb     (  186624)
        Each G-vector array             0.51 Mb     (   67157)
        G-vector shells                 0.14 Mb     (   17773)
     Largest temporary arrays     est. size (Mb)     dimensions
        Auxiliary wavefunctions        17.56 Mb     (    2163,  532)
        Each subspace H/S matrix        4.32 Mb     (     532,  532)
        Each <psi_i|beta_j> matrix      0.48 Mb     (     236,  133)
        Arrays for rho mixing          28.48 Mb     (  186624,   10)

     Initial potential from superposition of free atoms
     Check: negative starting charge=   -0.000720

     starting charge  246.99826, renormalised to  247.00000

     negative rho (up, down):  7.197E-04 0.000E+00


     ************************************************************************
     *
     * You are using vdW-DF for exchange-correlation in this calculation.
     * Please cite the following three references that made this development
     * possible:
     *
     *   M. Dion, H. Rydberg, E. Schroder, D. C. Langreth, and
     *   B. I. Lundqvist, Phys. Rev. Lett. 92, 246401 (2004).
     *
     *   T. Thonhauser, V. R. Cooper, S. Li, A. Puzder, P. Hyldgaard, and
     *   D. C. Langreth, Phys. Rev. B 76, 125112 (2007).
     *
     *   G. Roman-Perez and J. M. Soler, Phys. Rev. Lett. 103, 096102 (2009).
     *
     *
     * If you are using vdW-DF2, please also cite:
     *
     *   K. Lee, E. D. Murray, L. Kong, B. I. Lundqvist, and
     *   D. C. Langreth, Phys. Rev. B 82, 081101(R) (2010).
     *
     *
     * If you are calculating the stress with vdW-DF, please also cite:
     *
     *   R. Sabatini, E. Kucukbenli, B. Kolb, T. Thonhauser, and
     *   S. de Gironcoli, J. Phys.: Condens. Matter 24, 424209 (2012).
     *
     ************************************************************************

     Carrying out vdW-DF run using the following parameters:

     Nqs =      20    Nr_points =    1024   r_max =   100.000
     q_mesh =
               0.00001000     0.04494208     0.09755937     0.15916263
               0.23128650     0.31572767     0.41458969     0.53033537
               0.66584808     0.82450364     1.01025438     1.22772762
               1.48234092     1.78043706     2.12944203     2.53805004
               3.01644009     3.57652955     4.23227104     5.00000000

     Gradients computed in reciprocal space

     ************************************************************************


 
     Adding external electric field

     Computed dipole along edir(3) : 
        Dipole               -0.0000 Ry au,         -0.0001 Debye
        Dipole field         -0.0000 Ry au
 
        Potential amp.        0.0000 Ry
        Total length         45.2844 bohr
 
     Starting wfc are  161 randomized atomic wfcs

     total cpu time spent up to now is       12.8 secs

     per-process dynamical memory:    91.1 Mb

     Self-consistent Calculation

     iteration #  1     ecut=    36.75 Ry     beta=0.30
     Davidson diagonalization with overlap
     ethr =  1.00E-02,  avg # of iterations =  3.0

     Threshold (ethr) on eigenvalues was too large:
     Diagonalizing with lowered threshold

     Davidson diagonalization with overlap
     ethr =  1.32E-04,  avg # of iterations =  5.8

     negative rho (up, down):  7.772E-04 0.000E+00
 
     Adding external electric field

     Computed dipole along edir(3) : 
        Dipole               -0.6010 Ry au,         -1.5277 Debye
        Dipole field         -0.0017 Ry au
 
        Potential amp.        0.1515 Ry
        Total length         45.2844 bohr
 

     total cpu time spent up to now is       54.6 secs

     total energy              =   -5578.78134329 Ry
     Harris-Foulkes estimate   =   -5578.89765117 Ry
     estimated scf accuracy    <       0.36335311 Ry

     iteration #  2     ecut=    36.75 Ry     beta=0.30
     Davidson diagonalization with overlap
     ethr =  1.47E-04,  avg # of iterations =  5.2

     negative rho (up, down):  8.826E-04 0.000E+00
 
     Adding external electric field

     Computed dipole along edir(3) : 
        Dipole                0.3295 Ry au,          0.8376 Debye
        Dipole field          0.0009 Ry au
 
        Potential amp.       -0.0831 Ry
        Total length         45.2844 bohr
 

     total cpu time spent up to now is       79.7 secs

     total energy              =   -5578.70687384 Ry
     Harris-Foulkes estimate   =   -5578.90552379 Ry
     estimated scf accuracy    <       1.40050710 Ry

     iteration #  3     ecut=    36.75 Ry     beta=0.30
     Davidson diagonalization with overlap
     ethr =  1.47E-04,  avg # of iterations =  5.2

     negative rho (up, down):  8.943E-04 0.000E+00
 
     Adding external electric field

     Computed dipole along edir(3) : 
        Dipole                0.0641 Ry au,          0.1628 Debye
        Dipole field          0.0002 Ry au
 
        Potential amp.       -0.0161 Ry
        Total length         45.2844 bohr
 

     total cpu time spent up to now is      103.5 secs

     total energy              =   -5578.80378383 Ry
     Harris-Foulkes estimate   =   -5578.87871089 Ry
     estimated scf accuracy    <       0.80735623 Ry

     iteration #  4     ecut=    36.75 Ry     beta=0.30
     Davidson diagonalization with overlap
     ethr =  1.47E-04,  avg # of iterations =  3.1

     negative rho (up, down):  8.943E-04 0.000E+00
 
     Adding external electric field

     Computed dipole along edir(3) : 
        Dipole                0.1386 Ry au,          0.3523 Debye
        Dipole field          0.0004 Ry au
 
        Potential amp.       -0.0349 Ry
        Total length         45.2844 bohr
 

     total cpu time spent up to now is      125.6 secs

     total energy              =   -5578.83678951 Ry
     Harris-Foulkes estimate   =   -5578.84301968 Ry
     estimated scf accuracy    <       0.03315511 Ry

     iteration #  5     ecut=    36.75 Ry     beta=0.30
     Davidson diagonalization with overlap
     ethr =  1.34E-05,  avg # of iterations =  3.0

     negative rho (up, down):  9.042E-04 0.000E+00
 
     Adding external electric field

     Computed dipole along edir(3) : 
        Dipole                0.2126 Ry au,          0.5403 Debye
        Dipole field          0.0006 Ry au
 
        Potential amp.       -0.0536 Ry
        Total length         45.2844 bohr
 

     total cpu time spent up to now is      148.2 secs

     total energy              =   -5578.83958720 Ry
     Harris-Foulkes estimate   =   -5578.84046648 Ry
     estimated scf accuracy    <       0.01041196 Ry

     iteration #  6     ecut=    36.75 Ry     beta=0.30
     Davidson diagonalization with overlap
     ethr =  4.22E-06,  avg # of iterations =  5.7

     negative rho (up, down):  9.150E-04 0.000E+00
 
     Adding external electric field

     Computed dipole along edir(3) : 
        Dipole                0.2217 Ry au,          0.5635 Debye
        Dipole field          0.0006 Ry au
 
        Potential amp.       -0.0559 Ry
        Total length         45.2844 bohr
 

     total cpu time spent up to now is      173.8 secs

     total energy              =   -5578.84040098 Ry
     Harris-Foulkes estimate   =   -5578.84033218 Ry
     estimated scf accuracy    <       0.00083937 Ry

     iteration #  7     ecut=    36.75 Ry     beta=0.30
     Davidson diagonalization with overlap
     ethr =  3.40E-07,  avg # of iterations =  2.0

     negative rho (up, down):  9.180E-04 0.000E+00
 
     Adding external electric field

     Computed dipole along edir(3) : 
        Dipole                0.2185 Ry au,          0.5554 Debye
        Dipole field          0.0006 Ry au
 
        Potential amp.       -0.0551 Ry
        Total length         45.2844 bohr
 

     total cpu time spent up to now is      195.5 secs

     total energy              =   -5578.84050832 Ry
     Harris-Foulkes estimate   =   -5578.84046925 Ry
     estimated scf accuracy    <       0.00010991 Ry

     iteration #  8     ecut=    36.75 Ry     beta=0.30
     Davidson diagonalization with overlap
     ethr =  4.45E-08,  avg # of iterations =  2.2

     negative rho (up, down):  9.189E-04 0.000E+00
 
     Adding external electric field

     Computed dipole along edir(3) : 
        Dipole                0.2166 Ry au,          0.5506 Debye
        Dipole field          0.0006 Ry au
 
        Potential amp.       -0.0546 Ry
        Total length         45.2844 bohr
 

     total cpu time spent up to now is      219.2 secs

     total energy              =   -5578.84053055 Ry
     Harris-Foulkes estimate   =   -5578.84052176 Ry
     estimated scf accuracy    <       0.00001980 Ry

     iteration #  9     ecut=    36.75 Ry     beta=0.30
     Davidson diagonalization with overlap
     ethr =  8.02E-09,  avg # of iterations =  3.0

     negative rho (up, down):  9.277E-04 0.000E+00

     negative rho (up, down):  9.277E-04 0.000E+00

     negative rho (up, down):  9.277E-04 0.000E+00

     negative rho (up, down):  9.277E-04 0.000E+00

     negative rho (up, down):  9.277E-04 0.000E+00

     negative rho (up, down):  9.277E-04 0.000E+00

     negative rho (up, down):  9.277E-04 0.000E+00

     negative rho (up, down):  9.277E-04 0.000E+00

     negative rho (up, down):  9.277E-04 0.000E+00

     negative rho (up, down):  9.277E-04 0.000E+00

     negative rho (up, down):  9.277E-04 0.000E+00

     negative rho (up, down):  9.277E-04 0.000E+00

     negative rho (up, down):  9.277E-04 0.000E+00

     negative rho (up, down):  9.277E-04 0.000E+00

     negative rho (up, down):  9.277E-04 0.000E+00

     negative rho (up, down):  9.277E-04 0.000E+00

     negative rho (up, down):  9.277E-04 0.000E+00

     negative rho (up, down):  9.277E-04 0.000E+00

     negative rho (up, down):  9.277E-04 0.000E+00

     negative rho (up, down):  9.277E-04 0.000E+00

     negative rho (up, down):  9.277E-04 0.000E+00

     negative rho (up, down):  9.277E-04 0.000E+00

     negative rho (up, down):  9.277E-04 0.000E+00

     negative rho (up, down):  9.277E-04 0.000E+00

     negative rho (up, down):  9.277E-04 0.000E+00

     negative rho (up, down):  9.277E-04 0.000E+00

     negative rho (up, down):  9.277E-04 0.000E+00

     negative rho (up, down):  9.277E-04 0.000E+00

     negative rho (up, down):  9.277E-04 0.000E+00

     negative rho (up, down):  9.277E-04 0.000E+00

     negative rho (up, down):  9.277E-04 0.000E+00

     negative rho (up, down):  9.277E-04 0.000E+00

     negative rho (up, down):  9.277E-04 0.000E+00

     negative rho (up, down):  9.277E-04 0.000E+00

     negative rho (up, down):  9.277E-04 0.000E+00
 
     Adding external electric field

     Computed dipole along edir(3) : 
        Dipole                0.2165 Ry au,          0.5504 Debye
        Dipole field          0.0006 Ry au
 
        Potential amp.       -0.0546 Ry
        Total length         45.2844 bohr
 

     total cpu time spent up to now is      292.1 secs

     End of self-consistent calculation

          k = 0.0000 0.0000 0.0000 ( 16931 PWs)   bands (ev):

  -125.8333-125.8327-125.6945-125.6746-125.6740-125.6656-125.5295-125.4901
  -125.4728-125.4721-125.4708-125.4497 -80.0467 -80.0379 -80.0054 -80.0043
   -79.9973 -79.9953 -79.8787 -79.8720 -79.8692 -79.8555 -79.8552 -79.8546
   -79.8513 -79.8491 -79.8432 -79.8410 -79.8405 -79.8349 -79.7252 -79.7092
   -79.6902 -79.6868 -79.6661 -79.6636 -79.6630 -79.6607 -79.6523 -79.6514
   -79.6481 -79.6479 -79.6400 -79.6396 -79.6390 -79.6335 -79.6234 -79.6220
   -14.0581  -8.7031  -8.0818  -7.3725  -7.3407  -7.2818  -7.2485  -7.2415
    -7.2131  -7.1967  -7.1938  -7.1663  -7.1375  -7.0506  -6.9962  -6.9886
    -6.9540  -6.9070  -6.8353  -6.7919  -6.7385  -6.7337  -6.7013  -6.6966
    -6.6914  -6.6794  -6.6671  -6.6331  -6.6137  -6.5899  -6.5666  -6.5285
    -6.4974  -6.4843  -6.4543  -6.3705  -6.3515  -6.3204  -6.3156  -6.2853
    -6.2644  -6.2519  -6.1994  -6.1962  -6.1906  -6.1801  -6.1646  -6.1254
    -6.1189  -6.1185  -6.0956  -6.0860  -6.0847  -6.0756  -6.0675  -6.0654
    -6.0619  -6.0486  -6.0418  -5.9822  -5.8888  -5.8816  -5.8813  -5.1860
    -3.0205  -2.7483  -2.6559  -1.5043  -1.4663  -1.4143  -1.1295  -1.0754
    -0.9089  -0.3065  -0.1076   0.0556   0.6294   0.9006   1.1743   1.4098
     2.7440   2.9146   3.0461   3.1841   3.2407

          k = 0.0000 0.0343 0.0000 ( 16966 PWs)   bands (ev):

  -125.8333-125.8327-125.6945-125.6746-125.6740-125.6656-125.5295-125.4901
  -125.4728-125.4721-125.4708-125.4498 -80.0467 -80.0379 -80.0052 -80.0045
   -79.9974 -79.9953 -79.8788 -79.8718 -79.8687 -79.8555 -79.8547 -79.8547
   -79.8514 -79.8495 -79.8433 -79.8413 -79.8411 -79.8350 -79.7253 -79.7093
   -79.6902 -79.6869 -79.6662 -79.6637 -79.6630 -79.6608 -79.6516 -79.6514
   -79.6475 -79.6474 -79.6407 -79.6397 -79.6397 -79.6336 -79.6236 -79.6224
   -14.0541  -8.6001  -7.9902  -7.3292  -7.2907  -7.2438  -7.2211  -7.1987
    -7.1632  -7.1600  -7.1419  -7.1276  -7.0995  -7.0255  -6.9724  -6.9599
    -6.9230  -6.8825  -6.8167  -6.7782  -6.7357  -6.7133  -6.7062  -6.6938
    -6.6911  -6.6702  -6.6482  -6.6395  -6.6259  -6.6094  -6.5460  -6.5404
    -6.4999  -6.4851  -6.4455  -6.3949  -6.3847  -6.3601  -6.3242  -6.3151
    -6.3121  -6.2658  -6.2592  -6.2240  -6.1981  -6.1881  -6.1774  -6.1629
    -6.1533  -6.1417  -6.1252  -6.1173  -6.1076  -6.0993  -6.0868  -6.0753
    -6.0721  -6.0518  -6.0213  -5.9903  -5.9389  -5.9308  -5.9216  -5.1036
    -3.5982  -3.1699  -2.8330  -2.3248  -2.0940  -2.0173  -1.1655  -0.5231
    -0.4276  -0.0537   0.0155   0.5532   1.0219   1.4865   1.7052   1.9590
     2.4773   2.8392   2.8511   3.3816   3.9682

          k = 0.0000 0.0686 0.0000 ( 16996 PWs)   bands (ev):

  -125.8333-125.8327-125.6945-125.6746-125.6740-125.6656-125.5295-125.4901
  -125.4727-125.4721-125.4709-125.4498 -80.0467 -80.0380 -80.0053 -80.0045
   -79.9975 -79.9954 -79.8788 -79.8715 -79.8678 -79.8555 -79.8547 -79.8535
   -79.8513 -79.8505 -79.8435 -79.8426 -79.8417 -79.8351 -79.7254 -79.7094
   -79.6903 -79.6870 -79.6663 -79.6637 -79.6630 -79.6609 -79.6515 -79.6504
   -79.6463 -79.6461 -79.6421 -79.6416 -79.6397 -79.6337 -79.6238 -79.6232
   -14.0460  -8.4177  -7.6607  -7.2246  -7.2042  -7.1699  -7.1684  -7.0881
    -7.0594  -7.0571  -7.0506  -6.9993  -6.9894  -6.9464  -6.9137  -6.9004
    -6.8536  -6.7944  -6.7929  -6.7693  -6.7533  -6.7239  -6.7154  -6.6798
    -6.6647  -6.6475  -6.6330  -6.6272  -6.5969  -6.5662  -6.5586  -6.5472
    -6.5132  -6.4870  -6.4779  -6.4693  -6.4432  -6.4155  -6.4013  -6.3866
    -6.3669  -6.3220  -6.3168  -6.2842  -6.2706  -6.2602  -6.2433  -6.2215
    -6.2104  -6.2006  -6.1902  -6.1743  -6.1693  -6.1604  -6.1592  -6.1276
    -6.0950  -6.0598  -6.0309  -6.0196  -6.0043  -5.9905  -5.8895  -5.2199
    -4.7142  -3.5605  -3.4314  -2.7780  -2.4831  -2.2615  -1.5722  -0.9171
    -0.6442   0.1139   0.9566   1.4818   1.6795   1.9959   2.1708   3.1655
     3.3873   3.5352   3.8847   3.9694   4.6295

          k = 0.0000-0.1030 0.0000 ( 17028 PWs)   bands (ev):

  -125.8333-125.8327-125.6945-125.6746-125.6740-125.6656-125.5295-125.4901
  -125.4727-125.4721-125.4709-125.4498 -80.0468 -80.0380 -80.0053 -80.0046
   -79.9976 -79.9953 -79.8788 -79.8714 -79.8674 -79.8556 -79.8547 -79.8527
   -79.8513 -79.8510 -79.8437 -79.8435 -79.8419 -79.8351 -79.7255 -79.7095
   -79.6903 -79.6871 -79.6664 -79.6638 -79.6630 -79.6609 -79.6515 -79.6497
   -79.6445 -79.6442 -79.6441 -79.6439 -79.6396 -79.6337 -79.6239 -79.6237
   -14.0419  -8.3477  -7.2714  -7.2199  -7.1722  -7.1354  -7.1271  -7.0171
    -6.9977  -6.9768  -6.9573  -6.9433  -6.9124  -6.8989  -6.8695  -6.8610
    -6.8361  -6.7942  -6.7712  -6.7695  -6.7335  -6.7091  -6.7001  -6.6736
    -6.6451  -6.6401  -6.6357  -6.6280  -6.6000  -6.5833  -6.5743  -6.5430
    -6.5049  -6.4697  -6.4650  -6.4565  -6.4464  -6.4288  -6.4235  -6.4141
    -6.4012  -6.3677  -6.3624  -6.3335  -6.3265  -6.3234  -6.3050  -6.2966
    -6.2508  -6.2280  -6.2174  -6.2110  -6.1793  -6.1653  -6.1605  -6.1535
    -6.1353  -6.1334  -6.0877  -6.0524  -6.0266  -6.0126  -5.9975  -5.6494
    -4.7798  -3.9297  -3.5435  -2.8221  -2.6534  -2.6011  -1.4546  -0.7888
    -0.7323  -0.5402   1.2766   1.9191   2.0410   2.6922   3.3978   3.5469
     3.6178   3.6829   4.4259   4.4986   4.8608

          k = 0.0297-0.0172 0.0000 ( 16966 PWs)   bands (ev):

  -125.8333-125.8327-125.6945-125.6745-125.6740-125.6656-125.5295-125.4901
  -125.4727-125.4721-125.4708-125.4498 -80.0461 -80.0385 -80.0053 -80.0044
   -79.9973 -79.9955 -79.8788 -79.8717 -79.8689 -79.8554 -79.8547 -79.8547
   -79.8515 -79.8490 -79.8437 -79.8416 -79.8408 -79.8350 -79.7253 -79.7092
   -79.6901 -79.6869 -79.6662 -79.6637 -79.6630 -79.6608 -79.6516 -79.6516
   -79.6476 -79.6474 -79.6406 -79.6402 -79.6393 -79.6336 -79.6238 -79.6222
   -14.0535  -8.5866  -7.9871  -7.3354  -7.2927  -7.2535  -7.2038  -7.1974
    -7.1675  -7.1565  -7.1459  -7.1298  -7.1136  -7.0338  -6.9780  -6.9552
    -6.9344  -6.8932  -6.8222  -6.7912  -6.7449  -6.7269  -6.7116  -6.6901
    -6.6736  -6.6622  -6.6520  -6.6288  -6.6097  -6.5912  -6.5633  -6.5462
    -6.5043  -6.4830  -6.4614  -6.3877  -6.3695  -6.3502  -6.3454  -6.3100
    -6.2889  -6.2626  -6.2381  -6.2218  -6.2103  -6.2037  -6.1822  -6.1545
    -6.1500  -6.1436  -6.1277  -6.1172  -6.1009  -6.0975  -6.0896  -6.0717
    -6.0673  -6.0599  -6.0280  -5.9990  -5.9380  -5.9320  -5.9215  -5.0979
    -3.5785  -3.0739  -2.9199  -2.3218  -2.1100  -1.9485  -1.3512  -0.5100
    -0.2998  -0.0392   0.0840   0.4680   0.9809   1.5230   1.7284   1.9322
     2.4847   2.6682   3.0174   3.3837   3.9607

          k = 0.0297 0.0172 0.0000 ( 16966 PWs)   bands (ev):

  -125.8333-125.8327-125.6945-125.6745-125.6740-125.6656-125.5295-125.4901
  -125.4727-125.4721-125.4708-125.4498 -80.0461 -80.0385 -80.0053 -80.0044
   -79.9973 -79.9955 -79.8788 -79.8717 -79.8689 -79.8554 -79.8547 -79.8547
   -79.8515 -79.8490 -79.8437 -79.8416 -79.8408 -79.8350 -79.7253 -79.7092
   -79.6901 -79.6869 -79.6662 -79.6637 -79.6630 -79.6608 -79.6516 -79.6516
   -79.6476 -79.6474 -79.6406 -79.6402 -79.6393 -79.6336 -79.6238 -79.6222
   -14.0535  -8.5866  -7.9871  -7.3354  -7.2927  -7.2535  -7.2038  -7.1974
    -7.1675  -7.1565  -7.1459  -7.1298  -7.1136  -7.0338  -6.9780  -6.9552
    -6.9344  -6.8932  -6.8222  -6.7912  -6.7449  -6.7269  -6.7116  -6.6901
    -6.6736  -6.6622  -6.6520  -6.6288  -6.6097  -6.5912  -6.5633  -6.5462
    -6.5043  -6.4830  -6.4614  -6.3877  -6.3695  -6.3502  -6.3454  -6.3100
    -6.2889  -6.2626  -6.2381  -6.2218  -6.2103  -6.2037  -6.1822  -6.1545
    -6.1500  -6.1436  -6.1277  -6.1172  -6.1009  -6.0975  -6.0896  -6.0717
    -6.0673  -6.0599  -6.0280  -5.9990  -5.9380  -5.9320  -5.9215  -5.0979
    -3.5785  -3.0739  -2.9199  -2.3218  -2.1100  -1.9485  -1.3512  -0.5100
    -0.2998  -0.0392   0.0840   0.4680   0.9809   1.5230   1.7284   1.9322
     2.4847   2.6682   3.0174   3.3837   3.9607

          k = 0.0297 0.0515 0.0000 ( 16978 PWs)   bands (ev):

  -125.8333-125.8327-125.6945-125.6745-125.6740-125.6656-125.5295-125.4901
  -125.4727-125.4721-125.4709-125.4498 -80.0462 -80.0385 -80.0052 -80.0046
   -79.9973 -79.9955 -79.8788 -79.8715 -79.8683 -79.8554 -79.8547 -79.8540
   -79.8514 -79.8496 -79.8438 -79.8425 -79.8413 -79.8350 -79.7254 -79.7093
   -79.6901 -79.6869 -79.6663 -79.6636 -79.6631 -79.6608 -79.6516 -79.6506
   -79.6470 -79.6464 -79.6419 -79.6404 -79.6399 -79.6336 -79.6240 -79.6227
   -14.0474  -8.4398  -7.7770  -7.2574  -7.2290  -7.1899  -7.1543  -7.1231
    -7.1148  -7.0878  -7.0748  -7.0435  -7.0273  -6.9772  -6.9382  -6.9141
    -6.8848  -6.8362  -6.8009  -6.7738  -6.7483  -6.7347  -6.7166  -6.6811
    -6.6557  -6.6474  -6.6389  -6.6218  -6.6000  -6.5864  -6.5625  -6.5382
    -6.5201  -6.4992  -6.4613  -6.4447  -6.4341  -6.4114  -6.3717  -6.3499
    -6.3343  -6.3030  -6.2871  -6.2802  -6.2521  -6.2323  -6.2101  -6.2061
    -6.2005  -6.1936  -6.1674  -6.1641  -6.1499  -6.1319  -6.1259  -6.1009
    -6.0782  -6.0686  -6.0521  -6.0212  -5.9907  -5.9851  -5.9107  -5.0242
    -4.1826  -4.0141  -3.3497  -3.0690  -1.9907  -1.8026  -1.5164  -0.7856
    -0.5640   0.3757   0.4818   0.8271   1.3768   1.6937   2.5921   2.6280
     3.3407   3.5234   3.7440   3.9402   4.1831

          k = 0.0297-0.1201 0.0000 ( 16986 PWs)   bands (ev):

  -125.8333-125.8327-125.6945-125.6745-125.6740-125.6656-125.5295-125.4901
  -125.4727-125.4721-125.4709-125.4498 -80.0462 -80.0385 -80.0052 -80.0047
   -79.9973 -79.9955 -79.8788 -79.8712 -79.8676 -79.8554 -79.8547 -79.8528
   -79.8514 -79.8504 -79.8437 -79.8435 -79.8420 -79.8351 -79.7254 -79.7094
   -79.6901 -79.6870 -79.6663 -79.6636 -79.6631 -79.6609 -79.6516 -79.6493
   -79.6460 -79.6446 -79.6438 -79.6420 -79.6402 -79.6336 -79.6241 -79.6234
   -14.0414  -8.3262  -7.3466  -7.1738  -7.1459  -7.1310  -7.1094  -7.0153
    -7.0036  -6.9942  -6.9745  -6.9584  -6.9433  -6.8955  -6.8761  -6.8657
    -6.8446  -6.8184  -6.7929  -6.7620  -6.7348  -6.7130  -6.6987  -6.6966
    -6.6728  -6.6596  -6.6327  -6.6143  -6.5979  -6.5762  -6.5593  -6.5491
    -6.5315  -6.5167  -6.4868  -6.4731  -6.4636  -6.4548  -6.4196  -6.3983
    -6.3829  -6.3692  -6.3421  -6.3312  -6.3161  -6.3042  -6.2842  -6.2728
    -6.2524  -6.2372  -6.2139  -6.2003  -6.1850  -6.1741  -6.1479  -6.1291
    -6.1169  -6.0915  -6.0648  -6.0588  -6.0432  -6.0183  -5.8355  -5.4415
    -4.7469  -4.3687  -3.7345  -3.3884  -2.4655  -2.0585  -1.2385  -0.9293
    -0.3726   0.4830   0.7673   1.0966   1.8895   2.6908   2.7876   3.3336
     3.5019   3.9179   4.2716   4.3366   4.7511

          k = 0.0297-0.0858 0.0000 ( 16986 PWs)   bands (ev):

  -125.8333-125.8327-125.6945-125.6745-125.6740-125.6656-125.5295-125.4901
  -125.4727-125.4721-125.4709-125.4498 -80.0462 -80.0385 -80.0052 -80.0047
   -79.9973 -79.9955 -79.8788 -79.8712 -79.8676 -79.8554 -79.8547 -79.8528
   -79.8514 -79.8504 -79.8437 -79.8435 -79.8420 -79.8351 -79.7254 -79.7094
   -79.6901 -79.6870 -79.6663 -79.6636 -79.6631 -79.6609 -79.6516 -79.6493
   -79.6460 -79.6446 -79.6438 -79.6420 -79.6402 -79.6336 -79.6241 -79.6234
   -14.0414  -8.3262  -7.3466  -7.1738  -7.1459  -7.1310  -7.1094  -7.0153
    -7.0036  -6.9942  -6.9745  -6.9584  -6.9433  -6.8955  -6.8761  -6.8657
    -6.8446  -6.8184  -6.7929  -6.7620  -6.7348  -6.7130  -6.6987  -6.6966
    -6.6728  -6.6596  -6.6327  -6.6143  -6.5979  -6.5762  -6.5593  -6.5491
    -6.5315  -6.5167  -6.4868  -6.4731  -6.4636  -6.4548  -6.4196  -6.3983
    -6.3829  -6.3692  -6.3421  -6.3312  -6.3161  -6.3042  -6.2842  -6.2728
    -6.2524  -6.2372  -6.2139  -6.2003  -6.1850  -6.1741  -6.1479  -6.1291
    -6.1169  -6.0915  -6.0648  -6.0588  -6.0432  -6.0183  -5.8355  -5.4415
    -4.7469  -4.3687  -3.7345  -3.3884  -2.4655  -2.0585  -1.2385  -0.9293
    -0.3726   0.4830   0.7673   1.0966   1.8895   2.6908   2.7876   3.3336
     3.5019   3.9179   4.2716   4.3366   4.7511

          k = 0.0297-0.0515 0.0000 ( 16978 PWs)   bands (ev):

  -125.8333-125.8327-125.6945-125.6745-125.6740-125.6656-125.5295-125.4901
  -125.4727-125.4721-125.4709-125.4498 -80.0462 -80.0385 -80.0052 -80.0046
   -79.9973 -79.9955 -79.8788 -79.8715 -79.8683 -79.8554 -79.8547 -79.8540
   -79.8514 -79.8496 -79.8438 -79.8425 -79.8413 -79.8350 -79.7254 -79.7093
   -79.6901 -79.6869 -79.6663 -79.6636 -79.6631 -79.6608 -79.6516 -79.6506
   -79.6470 -79.6464 -79.6419 -79.6404 -79.6400 -79.6336 -79.6240 -79.6227
   -14.0474  -8.4398  -7.7770  -7.2574  -7.2290  -7.1899  -7.1543  -7.1231
    -7.1148  -7.0878  -7.0748  -7.0435  -7.0273  -6.9772  -6.9382  -6.9141
    -6.8848  -6.8362  -6.8009  -6.7738  -6.7483  -6.7347  -6.7166  -6.6811
    -6.6557  -6.6474  -6.6389  -6.6218  -6.6000  -6.5864  -6.5625  -6.5382
    -6.5201  -6.4992  -6.4613  -6.4447  -6.4341  -6.4114  -6.3717  -6.3499
    -6.3343  -6.3030  -6.2871  -6.2802  -6.2521  -6.2323  -6.2101  -6.2061
    -6.2005  -6.1936  -6.1674  -6.1641  -6.1499  -6.1319  -6.1259  -6.1009
    -6.0782  -6.0686  -6.0521  -6.0212  -5.9907  -5.9851  -5.9107  -5.0242
    -4.1826  -4.0141  -3.3497  -3.0690  -1.9907  -1.8026  -1.5164  -0.7856
    -0.5640   0.3757   0.4818   0.8271   1.3768   1.6937   2.5921   2.6280
     3.3407   3.5234   3.7440   3.9402   4.1831

          k = 0.0595-0.0343 0.0000 ( 16996 PWs)   bands (ev):

  -125.8331-125.8328-125.6945-125.6744-125.6741-125.6656-125.5295-125.4901
  -125.4726-125.4722-125.4708-125.4498 -80.0446 -80.0402 -80.0051 -80.0047
   -79.9970 -79.9959 -79.8788 -79.8712 -79.8684 -79.8553 -79.8549 -79.8539
   -79.8515 -79.8483 -79.8447 -79.8434 -79.8411 -79.8351 -79.7254 -79.7093
   -79.6898 -79.6870 -79.6663 -79.6636 -79.6632 -79.6609 -79.6520 -79.6501
   -79.6467 -79.6460 -79.6421 -79.6418 -79.6394 -79.6337 -79.6246 -79.6225
   -14.0443  -8.3473  -7.6840  -7.2616  -7.2258  -7.1627  -7.1267  -7.0937
    -7.0844  -7.0636  -7.0503  -7.0443  -7.0291  -6.9588  -6.9346  -6.8934
    -6.8735  -6.8472  -6.8102  -6.7711  -6.7557  -6.7346  -6.7104  -6.6999
    -6.6539  -6.6341  -6.6087  -6.5968  -6.5877  -6.5767  -6.5654  -6.5504
    -6.5284  -6.4946  -6.4672  -6.4466  -6.4293  -6.4088  -6.3750  -6.3405
    -6.3284  -6.3119  -6.3041  -6.2942  -6.2701  -6.2443  -6.2395  -6.2264
    -6.2202  -6.2044  -6.1982  -6.1889  -6.1649  -6.1575  -6.1507  -6.1138
    -6.1041  -6.0890  -6.0669  -6.0209  -6.0004  -5.9955  -5.8798  -5.2048
    -4.6259  -3.7225  -3.2070  -2.8327  -2.4739  -2.2687  -1.6765  -0.9173
    -0.5637   0.1043   0.9719   1.4878   1.6866   1.9895   2.1925   3.2188
     3.2788   3.4860   3.8591   4.1651   4.5343

          k = 0.0595 0.0000 0.0000 ( 16978 PWs)   bands (ev):

  -125.8331-125.8328-125.6945-125.6744-125.6741-125.6656-125.5295-125.4901
  -125.4726-125.4722-125.4708-125.4498 -80.0446 -80.0401 -80.0051 -80.0047
   -79.9970 -79.9959 -79.8788 -79.8713 -79.8687 -79.8552 -79.8549 -79.8539
   -79.8519 -79.8481 -79.8448 -79.8427 -79.8410 -79.8350 -79.7253 -79.7093
   -79.6898 -79.6869 -79.6662 -79.6635 -79.6632 -79.6608 -79.6519 -79.6505
   -79.6472 -79.6463 -79.6421 -79.6405 -79.6396 -79.6336 -79.6244 -79.6224
   -14.0463  -8.3963  -7.7887  -7.2690  -7.2438  -7.1852  -7.1425  -7.1219
    -7.1045  -7.0971  -7.0841  -7.0749  -7.0489  -6.9884  -6.9391  -6.9200
    -6.8848  -6.8607  -6.8271  -6.7762  -6.7632  -6.7452  -6.7106  -6.7044
    -6.6570  -6.6309  -6.6163  -6.5999  -6.5900  -6.5898  -6.5740  -6.5585
    -6.5367  -6.4954  -6.4495  -6.4269  -6.4159  -6.3866  -6.3541  -6.3277
    -6.3253  -6.3000  -6.2947  -6.2754  -6.2432  -6.2359  -6.2272  -6.2077
    -6.1943  -6.1814  -6.1674  -6.1577  -6.1446  -6.1402  -6.1297  -6.1092
    -6.0933  -6.0742  -6.0613  -6.0263  -5.9923  -5.9849  -5.9041  -5.0118
    -4.1375  -3.9674  -3.4778  -2.9397  -1.9290  -1.8455  -1.6725  -0.7989
    -0.4909   0.3423   0.6145   0.9014   1.2117   1.7097   2.5840   2.6228
     3.2345   3.6114   3.7620   4.0346   4.2101

          k = 0.0595 0.0343 0.0000 ( 16996 PWs)   bands (ev):

  -125.8331-125.8328-125.6945-125.6744-125.6741-125.6656-125.5295-125.4901
  -125.4726-125.4722-125.4708-125.4498 -80.0446 -80.0402 -80.0051 -80.0047
   -79.9970 -79.9959 -79.8788 -79.8712 -79.8684 -79.8553 -79.8549 -79.8539
   -79.8515 -79.8483 -79.8447 -79.8434 -79.8411 -79.8351 -79.7254 -79.7093
   -79.6898 -79.6870 -79.6663 -79.6636 -79.6632 -79.6609 -79.6520 -79.6501
   -79.6467 -79.6460 -79.6421 -79.6418 -79.6394 -79.6337 -79.6246 -79.6225
   -14.0443  -8.3473  -7.6840  -7.2616  -7.2258  -7.1627  -7.1267  -7.0937
    -7.0844  -7.0636  -7.0503  -7.0443  -7.0291  -6.9588  -6.9346  -6.8934
    -6.8735  -6.8472  -6.8102  -6.7711  -6.7557  -6.7346  -6.7104  -6.6999
    -6.6539  -6.6341  -6.6087  -6.5968  -6.5877  -6.5767  -6.5654  -6.5504
    -6.5284  -6.4946  -6.4672  -6.4466  -6.4293  -6.4088  -6.3750  -6.3405
    -6.3284  -6.3119  -6.3041  -6.2942  -6.2701  -6.2443  -6.2395  -6.2264
    -6.2202  -6.2044  -6.1982  -6.1889  -6.1649  -6.1575  -6.1507  -6.1138
    -6.1041  -6.0890  -6.0669  -6.0209  -6.0004  -5.9956  -5.8798  -5.2048
    -4.6259  -3.7225  -3.2070  -2.8327  -2.4739  -2.2687  -1.6765  -0.9173
    -0.5637   0.1043   0.9719   1.4878   1.6866   1.9895   2.1925   3.2188
     3.2788   3.4860   3.8591   4.1651   4.5343

          k = 0.0595-0.1373 0.0000 ( 16986 PWs)   bands (ev):

  -125.8331-125.8328-125.6945-125.6744-125.6741-125.6656-125.5295-125.4901
  -125.4726-125.4723-125.4709-125.4498 -80.0445 -80.0402 -80.0051 -80.0047
   -79.9970 -79.9959 -79.8788 -79.8710 -79.8680 -79.8553 -79.8549 -79.8534
   -79.8512 -79.8488 -79.8447 -79.8441 -79.8415 -79.8351 -79.7254 -79.7093
   -79.6899 -79.6870 -79.6663 -79.6636 -79.6632 -79.6609 -79.6520 -79.6491
   -79.6463 -79.6449 -79.6435 -79.6421 -79.6399 -79.6336 -79.6248 -79.6229
   -14.0403  -8.2701  -7.3859  -7.2212  -7.1499  -7.0983  -7.0765  -7.0472
    -7.0276  -7.0079  -6.9876  -6.9822  -6.9559  -6.9142  -6.8894  -6.8647
    -6.8552  -6.8341  -6.8004  -6.7740  -6.7495  -6.7299  -6.7021  -6.6964
    -6.6628  -6.6397  -6.6183  -6.6116  -6.5888  -6.5756  -6.5591  -6.5370
    -6.5113  -6.5047  -6.4938  -6.4736  -6.4514  -6.4431  -6.4225  -6.3791
    -6.3630  -6.3443  -6.3383  -6.3305  -6.3069  -6.3004  -6.2814  -6.2732
    -6.2524  -6.2371  -6.2275  -6.2035  -6.1853  -6.1760  -6.1487  -6.1238
    -6.1099  -6.1037  -6.0867  -6.0684  -6.0462  -6.0196  -5.8395  -5.3663
    -4.7446  -4.3967  -3.8047  -3.1065  -2.8011  -1.8722  -1.2982  -0.9051
    -0.4052   0.5180   0.7563   1.0992   1.9185   2.6503   2.8516   3.2925
     3.5313   3.9104   4.2225   4.3476   4.7937

          k = 0.0595-0.1030 0.0000 ( 17004 PWs)   bands (ev):

  -125.8331-125.8328-125.6945-125.6744-125.6741-125.6656-125.5295-125.4901
  -125.4725-125.4723-125.4709-125.4498 -80.0446 -80.0402 -80.0051 -80.0048
   -79.9970 -79.9960 -79.8788 -79.8710 -79.8678 -79.8552 -79.8549 -79.8524
   -79.8521 -79.8491 -79.8449 -79.8439 -79.8422 -79.8351 -79.7254 -79.7094
   -79.6900 -79.6870 -79.6663 -79.6635 -79.6632 -79.6609 -79.6521 -79.6478
   -79.6472 -79.6449 -79.6425 -79.6424 -79.6411 -79.6336 -79.6248 -79.6232
   -14.0383  -8.2409  -7.2361  -7.1048  -7.0861  -7.0450  -7.0233  -7.0066
    -6.9848  -6.9654  -6.9521  -6.9199  -6.9126  -6.9008  -6.8882  -6.8840
    -6.8656  -6.8455  -6.8054  -6.7891  -6.7702  -6.7579  -6.7203  -6.7008
    -6.6899  -6.6571  -6.6405  -6.6033  -6.5922  -6.5714  -6.5468  -6.5426
    -6.5251  -6.5140  -6.4995  -6.4967  -6.4736  -6.4663  -6.4617  -6.3980
    -6.3912  -6.3827  -6.3763  -6.3462  -6.3285  -6.3073  -6.3028  -6.2805
    -6.2614  -6.2338  -6.2274  -6.2052  -6.1889  -6.1404  -6.1305  -6.1240
    -6.1090  -6.0984  -6.0913  -6.0875  -6.0740  -5.9550  -5.6216  -5.5798
    -5.1841  -4.3947  -4.2545  -3.1695  -2.8243  -2.3742  -0.5996  -0.5866
    -0.2069   0.9209   0.9670   0.9765   2.1389   2.3959   2.4371   2.8934
     3.1437   3.3392   4.4460   4.6447   4.8419

          k = 0.0595-0.0686 0.0000 ( 16986 PWs)   bands (ev):

  -125.8331-125.8328-125.6945-125.6744-125.6741-125.6656-125.5295-125.4901
  -125.4726-125.4723-125.4709-125.4498 -80.0445 -80.0402 -80.0051 -80.0047
   -79.9970 -79.9959 -79.8788 -79.8710 -79.8680 -79.8553 -79.8549 -79.8534
   -79.8512 -79.8488 -79.8447 -79.8441 -79.8415 -79.8351 -79.7254 -79.7093
   -79.6899 -79.6870 -79.6663 -79.6636 -79.6632 -79.6609 -79.6520 -79.6491
   -79.6463 -79.6448 -79.6435 -79.6421 -79.6399 -79.6336 -79.6248 -79.6229
   -14.0403  -8.2701  -7.3859  -7.2212  -7.1499  -7.0983  -7.0765  -7.0472
    -7.0276  -7.0079  -6.9876  -6.9822  -6.9559  -6.9142  -6.8894  -6.8647
    -6.8552  -6.8341  -6.8004  -6.7740  -6.7495  -6.7299  -6.7021  -6.6964
    -6.6628  -6.6397  -6.6183  -6.6116  -6.5888  -6.5756  -6.5591  -6.5370
    -6.5113  -6.5047  -6.4938  -6.4736  -6.4514  -6.4431  -6.4225  -6.3791
    -6.3630  -6.3443  -6.3383  -6.3305  -6.3069  -6.3004  -6.2814  -6.2732
    -6.2524  -6.2371  -6.2275  -6.2035  -6.1853  -6.1760  -6.1487  -6.1238
    -6.1099  -6.1037  -6.0867  -6.0683  -6.0462  -6.0196  -5.8395  -5.3663
    -4.7446  -4.3967  -3.8047  -3.1065  -2.8011  -1.8722  -1.2982  -0.9051
    -0.4052   0.5180   0.7563   1.0992   1.9185   2.6503   2.8516   3.2925
     3.5313   3.9104   4.2225   4.3476   4.7937

          k =-0.0892 0.0515 0.0000 ( 17028 PWs)   bands (ev):

  -125.8330-125.8330-125.6945-125.6743-125.6743-125.6656-125.5295-125.4901
  -125.4725-125.4724-125.4709-125.4498 -80.0426 -80.0422 -80.0049 -80.0049
   -79.9966 -79.9965 -79.8788 -79.8710 -79.8682 -79.8551 -79.8551 -79.8538
   -79.8510 -79.8472 -79.8463 -79.8443 -79.8412 -79.8351 -79.7254 -79.7093
   -79.6898 -79.6870 -79.6663 -79.6635 -79.6634 -79.6609 -79.6522 -79.6493
   -79.6456 -79.6446 -79.6440 -79.6431 -79.6393 -79.6337 -79.6251 -79.6226
   -14.0397  -8.2333  -7.3809  -7.2710  -7.1614  -7.1167  -7.0974  -7.0354
    -7.0275  -7.0193  -6.9837  -6.9767  -6.9564  -6.9180  -6.8931  -6.8709
    -6.8457  -6.8337  -6.7981  -6.7779  -6.7665  -6.7099  -6.7044  -6.6884
    -6.6747  -6.6383  -6.6190  -6.5961  -6.5954  -6.5504  -6.5439  -6.5237
    -6.5017  -6.4849  -6.4742  -6.4284  -6.4192  -6.4139  -6.3865  -6.3596
    -6.3481  -6.3392  -6.3293  -6.3250  -6.3230  -6.3074  -6.3013  -6.2780
    -6.2722  -6.2655  -6.2510  -6.2254  -6.1930  -6.1706  -6.1658  -6.1568
    -6.1262  -6.0946  -6.0811  -6.0717  -6.0632  -6.0072  -6.0016  -5.5491
    -4.8436  -3.8457  -3.3513  -3.0555  -2.8373  -2.3946  -1.4525  -0.8522
    -0.6528  -0.5672   1.3137   1.8694   2.1513   2.6471   3.4788   3.5213
     3.6489   3.6860   4.3696   4.3993   4.6782

          k =-0.0892 0.0858 0.0000 ( 16986 PWs)   bands (ev):

  -125.8330-125.8330-125.6945-125.6743-125.6743-125.6656-125.5295-125.4901
  -125.4725-125.4724-125.4709-125.4498 -80.0426 -80.0422 -80.0049 -80.0049
   -79.9965 -79.9964 -79.8788 -79.8709 -79.8682 -79.8551 -79.8551 -79.8532
   -79.8517 -79.8470 -79.8465 -79.8438 -79.8414 -79.8351 -79.7254 -79.7093
   -79.6898 -79.6870 -79.6663 -79.6634 -79.6633 -79.6609 -79.6522 -79.6490
   -79.6465 -79.6445 -79.6440 -79.6419 -79.6399 -79.6336 -79.6250 -79.6227
   -14.0397  -8.2379  -7.4266  -7.2119  -7.1584  -7.0936  -7.0700  -7.0405
    -7.0277  -7.0159  -7.0052  -6.9870  -6.9596  -6.9292  -6.8832  -6.8663
    -6.8532  -6.8400  -6.8149  -6.7900  -6.7580  -6.7394  -6.7097  -6.6977
    -6.6566  -6.6454  -6.6268  -6.6116  -6.5898  -6.5802  -6.5570  -6.5428
    -6.5291  -6.4910  -6.4742  -6.4701  -6.4292  -6.4152  -6.4036  -6.3611
    -6.3534  -6.3387  -6.3277  -6.3170  -6.3129  -6.2982  -6.2756  -6.2731
    -6.2603  -6.2514  -6.2317  -6.2222  -6.1845  -6.1783  -6.1523  -6.1257
    -6.1173  -6.1112  -6.0857  -6.0680  -6.0477  -6.0206  -5.8017  -5.3837
    -4.7628  -4.3743  -3.6817  -3.3339  -2.6303  -1.9533  -1.2367  -0.9715
    -0.3927   0.5288   0.7676   1.1638   1.8121   2.6943   2.9281   3.2983
     3.4052   3.8685   4.1765   4.4939   4.8237

          k =-0.0892 0.1201 0.0000 ( 16986 PWs)   bands (ev):

  -125.8330-125.8330-125.6945-125.6743-125.6743-125.6656-125.5295-125.4901
  -125.4725-125.4724-125.4709-125.4498 -80.0426 -80.0422 -80.0049 -80.0049
   -79.9965 -79.9964 -79.8788 -79.8709 -79.8682 -79.8551 -79.8551 -79.8532
   -79.8517 -79.8470 -79.8465 -79.8438 -79.8414 -79.8351 -79.7254 -79.7093
   -79.6898 -79.6870 -79.6663 -79.6634 -79.6633 -79.6609 -79.6522 -79.6490
   -79.6465 -79.6445 -79.6440 -79.6419 -79.6399 -79.6336 -79.6250 -79.6227
   -14.0397  -8.2379  -7.4266  -7.2119  -7.1584  -7.0936  -7.0700  -7.0405
    -7.0277  -7.0159  -7.0052  -6.9870  -6.9596  -6.9292  -6.8832  -6.8663
    -6.8532  -6.8400  -6.8149  -6.7900  -6.7580  -6.7394  -6.7097  -6.6977
    -6.6566  -6.6454  -6.6268  -6.6116  -6.5898  -6.5802  -6.5570  -6.5428
    -6.5291  -6.4910  -6.4742  -6.4701  -6.4292  -6.4152  -6.4036  -6.3611
    -6.3534  -6.3387  -6.3277  -6.3170  -6.3129  -6.2982  -6.2756  -6.2731
    -6.2603  -6.2514  -6.2317  -6.2222  -6.1845  -6.1783  -6.1523  -6.1257
    -6.1173  -6.1112  -6.0857  -6.0680  -6.0477  -6.0206  -5.8017  -5.3837
    -4.7628  -4.3743  -3.6817  -3.3339  -2.6303  -1.9533  -1.2367  -0.9715
    -0.3927   0.5288   0.7676   1.1638   1.8121   2.6943   2.9281   3.2983
     3.4052   3.8685   4.1765   4.4939   4.8236

          k =-0.0892-0.0515 0.0000 ( 17028 PWs)   bands (ev):

  -125.8330-125.8330-125.6945-125.6743-125.6743-125.6656-125.5295-125.4901
  -125.4724-125.4724-125.4708-125.4498 -80.0426 -80.0422 -80.0049 -80.0049
   -79.9966 -79.9965 -79.8788 -79.8710 -79.8682 -79.8551 -79.8551 -79.8538
   -79.8510 -79.8472 -79.8463 -79.8443 -79.8412 -79.8351 -79.7254 -79.7093
   -79.6898 -79.6870 -79.6663 -79.6634 -79.6634 -79.6609 -79.6522 -79.6493
   -79.6456 -79.6446 -79.6440 -79.6431 -79.6393 -79.6337 -79.6251 -79.6226
   -14.0397  -8.2333  -7.3809  -7.2710  -7.1614  -7.1167  -7.0974  -7.0354
    -7.0275  -7.0193  -6.9837  -6.9767  -6.9564  -6.9180  -6.8931  -6.8709
    -6.8457  -6.8337  -6.7981  -6.7779  -6.7665  -6.7099  -6.7043  -6.6884
    -6.6747  -6.6383  -6.6190  -6.5961  -6.5954  -6.5503  -6.5439  -6.5237
    -6.5017  -6.4849  -6.4742  -6.4284  -6.4192  -6.4139  -6.3865  -6.3596
    -6.3481  -6.3392  -6.3293  -6.3250  -6.3230  -6.3074  -6.3013  -6.2780
    -6.2722  -6.2655  -6.2510  -6.2254  -6.1930  -6.1706  -6.1657  -6.1568
    -6.1262  -6.0946  -6.0811  -6.0717  -6.0632  -6.0072  -6.0016  -5.5491
    -4.8436  -3.8457  -3.3513  -3.0555  -2.8373  -2.3946  -1.4525  -0.8522
    -0.6528  -0.5672   1.3137   1.8694   2.1513   2.6471   3.4788   3.5213
     3.6489   3.6860   4.3696   4.3993   4.6782

     the Fermi energy is     1.0656 ev

!    total energy              =   -5578.84053627 Ry
     Harris-Foulkes estimate   =   -5578.84053336 Ry
     estimated scf accuracy    <       0.00000373 Ry

     The total energy is the sum of the following terms:

     one-electron contribution =  -36078.86186737 Ry
     hartree contribution      =   18024.60198181 Ry
     xc contribution           =    -530.62026463 Ry
     ewald contribution        =   13006.06428892 Ry
     electric field correction =       0.00013049 Ry
     smearing contrib. (-TS)   =      -0.02480548 Ry

     convergence has been achieved in   9 iterations
 
 BEEF-vdW xc energy contributions
           1 :   -471.083883749233     
           2 :    426.700250647879     
           3 :   -352.284030419676     
           4 :    269.404021405825     
           5 :   -197.115312516802     
           6 :    144.893718757796     
           7 :   -111.370421474182     
           8 :    88.5791786676848     
           9 :   -68.4607045397483     
          10 :    47.5554050701783     
          11 :   -27.5595673815154     
          12 :    12.3366168393216     
          13 :   -4.11244274104564     
          14 :    1.61956278198693     
          15 :   -1.15169935589881     
          16 :  -0.698263027362600     
          17 :    4.84590073462471     
          18 :   -9.59274299224217     
          19 :    12.3998385615082     
          20 :   -12.0322958204762     
          21 :    9.45745563346497     
          22 :   -6.97664678767615     
          23 :    6.42530772818702     
          24 :   -7.88407905644385     
          25 :    9.81862992344952     
          26 :   -10.4133829833282     
          27 :    8.98966703020028     
          28 :   -6.43604482134947     
          29 :    4.41295507683446     
          30 :   -4.03801965255934     
          31 :   -36.7821039930262     
          32 :   -25.0909898712116     

     Forces acting on atoms (Ry/au):


     negative rho (up, down):  9.277E-04 0.000E+00
     atom    1 type  1   force =    -0.00000129   -0.00278260   -0.00530946
     atom    2 type  1   force =     0.00000005   -0.00046457   -0.00758695
     atom    3 type  1   force =     0.00140090    0.00211394   -0.00914701
     atom    4 type  1   force =    -0.00139921    0.00210850   -0.00914598
     atom    5 type  1   force =     0.00302076   -0.00145925    0.00024620
     atom    6 type  1   force =    -0.00301919   -0.00145853    0.00024513
     atom    7 type  1   force =     0.00000065    0.00295399   -0.00163286
     atom    8 type  1   force =    -0.00000160    0.00366550    0.01237337
     atom    9 type  1   force =    -0.06771262    0.00006938   -0.04060532
     atom   10 type  1   force =     0.06771274    0.00007260   -0.04060388
     atom   11 type  1   force =     0.00000137    0.01583702   -0.00396434
     atom   12 type  1   force =    -0.00000310   -0.01665413   -0.00380680
     atom   13 type  2   force =     0.00000018   -0.00692363   -0.02871411
     atom   14 type  3   force =     0.00000037    0.00292176    0.13765201

     Total force =     0.181259     Total SCF correction =     0.003728


     entering subroutine stress ...


     negative rho (up, down):  9.277E-04 0.000E+00
          total   stress  (Ry/bohr**3)                   (kbar)     P=   -2.03
  -0.00007578   0.00000000   0.00000000        -11.15      0.00      0.00
   0.00000000  -0.00011010  -0.00000696          0.00    -16.20     -1.02
   0.00000000  -0.00000696   0.00014454          0.00     -1.02     21.26


     BFGS Geometry Optimization

     number of scf cycles    =   1
     number of bfgs steps    =   0

     energy   new            =   -5578.8405362746 Ry

     new trust radius        =       0.1376830150 bohr
     new conv_thr            =       0.0000099958 Ry


ATOMIC_POSITIONS (crystal)
Zn1      0.166666667   0.166666667   0.406869400    0   0   0
Zn1      0.666666667   0.166666667   0.406869400    0   0   0
Zn1      0.166666667   0.666666667   0.406869400    0   0   0
Zn1      0.666666667   0.666666667   0.406869400    0   0   0
Zn1      0.833333333   0.333333333   0.500000000    0   0   0
Zn1      0.333333333   0.333333333   0.500000000    0   0   0
Zn1      0.833333333   0.833333333   0.500000000    0   0   0
Zn1      0.333333333   0.833333333   0.500000000    0   0   0
Zn1     -0.006394618   0.000007562   0.592256343
Zn1      0.506386892   0.000007912   0.592256374
Zn1     -0.000862851   0.501725961   0.593045246
Zn1      0.500907214   0.498184988   0.593048637
S1       0.250377295  -0.000754556   0.661781884
H1       0.249840824   0.000318421   0.716222521



     Writing output data file calc.save
     Check: negative starting charge=   -0.000720
     NEW-OLD atomic charge density approx. for the potential
     Check: negative starting charge=   -0.000710

     negative rho (up, down):  9.050E-04 0.000E+00
 
     Adding external electric field

     Computed dipole along edir(3) : 
        Dipole                0.2165 Ry au,          0.5503 Debye
        Dipole field          0.0006 Ry au
 
        Potential amp.       -0.0546 Ry
        Total length         45.2844 bohr
 

     total cpu time spent up to now is      354.4 secs

     per-process dynamical memory:   165.2 Mb

     Self-consistent Calculation

     iteration #  1     ecut=    36.75 Ry     beta=0.30
     Davidson diagonalization with overlap
     ethr =  1.00E-06,  avg # of iterations =  7.3

     negative rho (up, down):  9.001E-04 0.000E+00
 
     Adding external electric field

     Computed dipole along edir(3) : 
        Dipole                0.1880 Ry au,          0.4778 Debye
        Dipole field          0.0005 Ry au
 
        Potential amp.       -0.0474 Ry
        Total length         45.2844 bohr
 

     total cpu time spent up to now is      400.6 secs

     total energy              =   -5578.86257166 Ry
     Harris-Foulkes estimate   =   -5578.86316570 Ry
     estimated scf accuracy    <       0.00217222 Ry

     iteration #  2     ecut=    36.75 Ry     beta=0.30
     Davidson diagonalization with overlap
     ethr =  8.79E-07,  avg # of iterations =  3.0

     negative rho (up, down):  9.014E-04 0.000E+00
 
     Adding external electric field

     Computed dipole along edir(3) : 
        Dipole                0.2417 Ry au,          0.6144 Debye
        Dipole field          0.0007 Ry au
 
        Potential amp.       -0.0609 Ry
        Total length         45.2844 bohr
 

     total cpu time spent up to now is      438.5 secs

     total energy              =   -5578.86229130 Ry
     Harris-Foulkes estimate   =   -5578.86273480 Ry
     estimated scf accuracy    <       0.00244907 Ry

     iteration #  3     ecut=    36.75 Ry     beta=0.30
     Davidson diagonalization with overlap
     ethr =  8.79E-07,  avg # of iterations =  3.8

     negative rho (up, down):  8.988E-04 0.000E+00
 
     Adding external electric field

     Computed dipole along edir(3) : 
        Dipole                0.1856 Ry au,          0.4718 Debye
        Dipole field          0.0005 Ry au
 
        Potential amp.       -0.0468 Ry
        Total length         45.2844 bohr
 

     total cpu time spent up to now is      471.1 secs

     total energy              =   -5578.86223809 Ry
     Harris-Foulkes estimate   =   -5578.86311240 Ry
     estimated scf accuracy    <       0.00892869 Ry

     iteration #  4     ecut=    36.75 Ry     beta=0.30
     Davidson diagonalization with overlap
     ethr =  8.79E-07,  avg # of iterations =  4.1

     negative rho (up, down):  9.007E-04 0.000E+00
 
     Adding external electric field

     Computed dipole along edir(3) : 
        Dipole                0.1857 Ry au,          0.4721 Debye
        Dipole field          0.0005 Ry au
 
        Potential amp.       -0.0468 Ry
        Total length         45.2844 bohr
 

     total cpu time spent up to now is      498.1 secs

     total energy              =   -5578.86262017 Ry
     Harris-Foulkes estimate   =   -5578.86263722 Ry
     estimated scf accuracy    <       0.00013958 Ry

     iteration #  5     ecut=    36.75 Ry     beta=0.30
     Davidson diagonalization with overlap
     ethr =  5.65E-08,  avg # of iterations =  3.0

     negative rho (up, down):  9.021E-04 0.000E+00
 
     Adding external electric field

     Computed dipole along edir(3) : 
        Dipole                0.1855 Ry au,          0.4714 Debye
        Dipole field          0.0005 Ry au
 
        Potential amp.       -0.0467 Ry
        Total length         45.2844 bohr
 

     total cpu time spent up to now is      523.8 secs

     total energy              =   -5578.86263351 Ry
     Harris-Foulkes estimate   =   -5578.86264025 Ry
     estimated scf accuracy    <       0.00005315 Ry

     iteration #  6     ecut=    36.75 Ry     beta=0.30
     Davidson diagonalization with overlap
     ethr =  2.15E-08,  avg # of iterations =  2.7

     negative rho (up, down):  9.063E-04 0.000E+00

     negative rho (up, down):  9.063E-04 0.000E+00

     negative rho (up, down):  9.063E-04 0.000E+00

     negative rho (up, down):  9.063E-04 0.000E+00

     negative rho (up, down):  9.063E-04 0.000E+00

     negative rho (up, down):  9.063E-04 0.000E+00

     negative rho (up, down):  9.063E-04 0.000E+00

     negative rho (up, down):  9.063E-04 0.000E+00

     negative rho (up, down):  9.063E-04 0.000E+00

     negative rho (up, down):  9.063E-04 0.000E+00

     negative rho (up, down):  9.063E-04 0.000E+00

     negative rho (up, down):  9.063E-04 0.000E+00

     negative rho (up, down):  9.063E-04 0.000E+00

     negative rho (up, down):  9.063E-04 0.000E+00

     negative rho (up, down):  9.063E-04 0.000E+00

     negative rho (up, down):  9.063E-04 0.000E+00

     negative rho (up, down):  9.063E-04 0.000E+00

     negative rho (up, down):  9.063E-04 0.000E+00

     negative rho (up, down):  9.063E-04 0.000E+00

     negative rho (up, down):  9.063E-04 0.000E+00

     negative rho (up, down):  9.063E-04 0.000E+00

     negative rho (up, down):  9.063E-04 0.000E+00

     negative rho (up, down):  9.063E-04 0.000E+00

     negative rho (up, down):  9.063E-04 0.000E+00

     negative rho (up, down):  9.063E-04 0.000E+00

     negative rho (up, down):  9.063E-04 0.000E+00

     negative rho (up, down):  9.063E-04 0.000E+00

     negative rho (up, down):  9.063E-04 0.000E+00

     negative rho (up, down):  9.063E-04 0.000E+00

     negative rho (up, down):  9.063E-04 0.000E+00

     negative rho (up, down):  9.063E-04 0.000E+00

     negative rho (up, down):  9.063E-04 0.000E+00

     negative rho (up, down):  9.063E-04 0.000E+00

     negative rho (up, down):  9.063E-04 0.000E+00

     negative rho (up, down):  9.063E-04 0.000E+00
 
     Adding external electric field

     Computed dipole along edir(3) : 
        Dipole                0.1880 Ry au,          0.4780 Debye
        Dipole field          0.0005 Ry au
 
        Potential amp.       -0.0474 Ry
        Total length         45.2844 bohr
 

     total cpu time spent up to now is      599.9 secs

     End of self-consistent calculation

          k = 0.0000 0.0000 0.0000 ( 16931 PWs)   bands (ev):

  -125.8481-125.8474-125.7545-125.7247-125.7241-125.7127-125.5769-125.5386
  -125.5205-125.5197-125.5190-125.5008 -80.0573 -80.0479 -80.0220 -80.0209
   -80.0136 -80.0116 -79.9390 -79.9311 -79.9282 -79.9054 -79.9048 -79.9046
   -79.9014 -79.8999 -79.8923 -79.8895 -79.8878 -79.8824 -79.7711 -79.7571
   -79.7390 -79.7338 -79.7153 -79.7107 -79.7101 -79.7086 -79.7010 -79.7002
   -79.6962 -79.6958 -79.6880 -79.6874 -79.6871 -79.6846 -79.6741 -79.6727
   -13.7066  -8.6213  -7.9561  -7.3962  -7.3684  -7.3275  -7.2973  -7.2882
    -7.2620  -7.2454  -7.2328  -7.2096  -7.1781  -7.0841  -7.0415  -7.0253
    -6.9842  -6.9210  -6.8678  -6.8234  -6.7714  -6.7666  -6.7448  -6.7412
    -6.7381  -6.7271  -6.7120  -6.6826  -6.6640  -6.6396  -6.5983  -6.5545
    -6.5420  -6.5246  -6.4890  -6.4061  -6.3952  -6.3662  -6.3643  -6.3310
    -6.3055  -6.2962  -6.2465  -6.2434  -6.2378  -6.2113  -6.2070  -6.1746
    -6.1694  -6.1666  -6.1439  -6.1335  -6.1333  -6.1210  -6.1133  -6.1127
    -6.1080  -6.0945  -6.0863  -6.0288  -5.9365  -5.9304  -5.9302  -5.1819
    -2.9841  -2.7260  -2.7116  -1.5800  -1.5228  -1.4638  -1.1827  -1.1273
    -0.9521  -0.3519  -0.1548  -0.0264   0.5838   0.8299   1.1331   1.3685
     2.6673   2.8463   3.0143   3.1370   3.2202

          k = 0.0000 0.0343 0.0000 ( 16966 PWs)   bands (ev):

  -125.8481-125.8474-125.7545-125.7247-125.7241-125.7127-125.5769-125.5386
  -125.5204-125.5197-125.5191-125.5008 -80.0573 -80.0480 -80.0218 -80.0211
   -80.0137 -80.0116 -79.9391 -79.9310 -79.9279 -79.9055 -79.9047 -79.9042
   -79.9015 -79.9002 -79.8923 -79.8898 -79.8884 -79.8825 -79.7712 -79.7571
   -79.7390 -79.7338 -79.7153 -79.7109 -79.7101 -79.7087 -79.7011 -79.6995
   -79.6957 -79.6953 -79.6887 -79.6878 -79.6874 -79.6847 -79.6742 -79.6731
   -13.7017  -8.4800  -7.8968  -7.3531  -7.3199  -7.2859  -7.2687  -7.2423
    -7.2097  -7.2066  -7.1901  -7.1706  -7.1414  -7.0598  -7.0150  -6.9882
    -6.9569  -6.9051  -6.8498  -6.8120  -6.7707  -6.7614  -6.7375  -6.7365
    -6.7320  -6.7183  -6.6929  -6.6896  -6.6703  -6.6575  -6.5828  -6.5804
    -6.5332  -6.5266  -6.4857  -6.4313  -6.4308  -6.4057  -6.3642  -6.3635
    -6.3586  -6.3032  -6.3024  -6.2727  -6.2470  -6.2277  -6.2233  -6.2092
    -6.2030  -6.1914  -6.1720  -6.1622  -6.1540  -6.1449  -6.1315  -6.1211
    -6.1204  -6.0997  -6.0616  -6.0287  -5.9866  -5.9798  -5.9702  -5.1080
    -3.6374  -3.1499  -2.8734  -2.3820  -2.1323  -2.0495  -1.2115  -0.5553
    -0.4675  -0.1037  -0.0432   0.4924   0.9704   1.4145   1.6599   1.8863
     2.4507   2.7722   2.8203   3.3898   3.8939

          k = 0.0000 0.0686 0.0000 ( 16996 PWs)   bands (ev):

  -125.8481-125.8474-125.7545-125.7247-125.7241-125.7127-125.5769-125.5386
  -125.5203-125.5197-125.5191-125.5008 -80.0573 -80.0480 -80.0219 -80.0211
   -80.0138 -80.0116 -79.9391 -79.9308 -79.9273 -79.9056 -79.9047 -79.9032
   -79.9013 -79.9008 -79.8923 -79.8904 -79.8896 -79.8826 -79.7713 -79.7573
   -79.7391 -79.7339 -79.7154 -79.7109 -79.7102 -79.7088 -79.7012 -79.6981
   -79.6942 -79.6942 -79.6901 -79.6897 -79.6874 -79.6848 -79.6745 -79.6741
   -13.6919  -8.1832  -7.6714  -7.2566  -7.2297  -7.2009  -7.2007  -7.1332
    -7.1083  -7.1048  -7.0999  -7.0455  -7.0371  -6.9821  -6.9428  -6.9322
    -6.8876  -6.8333  -6.8317  -6.8107  -6.7942  -6.7693  -6.7548  -6.7281
    -6.7033  -6.6815  -6.6727  -6.6608  -6.6423  -6.6119  -6.6090  -6.5833
    -6.5564  -6.5307  -6.5260  -6.5080  -6.4908  -6.4569  -6.4420  -6.4151
    -6.4100  -6.3620  -6.3614  -6.3332  -6.3188  -6.3078  -6.2897  -6.2707
    -6.2566  -6.2480  -6.2382  -6.2202  -6.2163  -6.2083  -6.2071  -6.1732
    -6.1425  -6.1085  -6.0788  -6.0680  -6.0513  -6.0396  -5.8932  -5.2623
    -4.7578  -3.5957  -3.4329  -2.8513  -2.5066  -2.2920  -1.5984  -0.9573
    -0.6727   0.0902   0.9048   1.4236   1.6236   1.9355   2.1404   3.0488
     3.3691   3.5026   3.8158   3.9395   4.5624

          k = 0.0000-0.1030 0.0000 ( 17028 PWs)   bands (ev):

  -125.8481-125.8474-125.7545-125.7247-125.7241-125.7127-125.5769-125.5386
  -125.5203-125.5197-125.5192-125.5008 -80.0573 -80.0480 -80.0219 -80.0212
   -80.0138 -80.0116 -79.9392 -79.9307 -79.9271 -79.9056 -79.9047 -79.9027
   -79.9014 -79.9012 -79.8920 -79.8908 -79.8905 -79.8826 -79.7713 -79.7574
   -79.7391 -79.7340 -79.7155 -79.7109 -79.7101 -79.7088 -79.7012 -79.6974
   -79.6926 -79.6922 -79.6922 -79.6919 -79.6873 -79.6848 -79.6747 -79.6746
   -13.6871  -8.0679  -7.3240  -7.2664  -7.1863  -7.1593  -7.1487  -7.0642
    -7.0464  -7.0204  -7.0014  -6.9910  -6.9589  -6.9464  -6.9141  -6.8958
    -6.8658  -6.8342  -6.8166  -6.8097  -6.7682  -6.7528  -6.7455  -6.7224
    -6.6853  -6.6820  -6.6810  -6.6631  -6.6357  -6.6190  -6.6094  -6.5741
    -6.5486  -6.5132  -6.5124  -6.5048  -6.4822  -6.4711  -6.4642  -6.4596
    -6.4386  -6.4167  -6.4030  -6.3803  -6.3742  -6.3714  -6.3528  -6.3451
    -6.2982  -6.2758  -6.2644  -6.2565  -6.2282  -6.2131  -6.2052  -6.2026
    -6.1852  -6.1785  -6.1355  -6.1012  -6.0760  -6.0594  -6.0476  -5.6456
    -4.8180  -4.0087  -3.5513  -2.8713  -2.6540  -2.6211  -1.5430  -0.7881
    -0.7580  -0.5638   1.2271   1.8953   2.0173   2.5669   3.2990   3.4896
     3.5603   3.6197   4.4104   4.4670   4.7252

          k = 0.0297-0.0172 0.0000 ( 16966 PWs)   bands (ev):

  -125.8480-125.8475-125.7545-125.7247-125.7242-125.7127-125.5769-125.5386
  -125.5204-125.5197-125.5190-125.5008 -80.0567 -80.0486 -80.0219 -80.0210
   -80.0136 -80.0117 -79.9391 -79.9309 -79.9280 -79.9055 -79.9047 -79.9043
   -79.9015 -79.8997 -79.8931 -79.8898 -79.8881 -79.8825 -79.7712 -79.7571
   -79.7389 -79.7338 -79.7153 -79.7109 -79.7101 -79.7087 -79.7013 -79.6995
   -79.6957 -79.6953 -79.6885 -79.6881 -79.6873 -79.6847 -79.6745 -79.6729
   -13.7009  -8.4716  -7.8817  -7.3594  -7.3237  -7.2952  -7.2517  -7.2440
    -7.2151  -7.1987  -7.1940  -7.1725  -7.1542  -7.0635  -7.0157  -6.9949
    -6.9643  -6.9217  -6.8551  -6.8248  -6.7801  -6.7590  -6.7524  -6.7329
    -6.7201  -6.7097  -6.6998  -6.6757  -6.6577  -6.6368  -6.6019  -6.5880
    -6.5464  -6.5174  -6.5004  -6.4316  -6.4128  -6.3942  -6.3907  -6.3567
    -6.3309  -6.3070  -6.2810  -6.2674  -6.2562  -6.2449  -6.2263  -6.2038
    -6.1994  -6.1923  -6.1742  -6.1624  -6.1455  -6.1433  -6.1360  -6.1181
    -6.1136  -6.1075  -6.0743  -6.0304  -5.9858  -5.9807  -5.9702  -5.1076
    -3.6120  -3.0846  -2.9155  -2.3615  -2.1656  -1.9780  -1.3969  -0.5516
    -0.3596  -0.1030   0.0381   0.4164   0.9256   1.4576   1.6810   1.8878
     2.3837   2.6468   2.9959   3.3899   3.8836

          k = 0.0297 0.0172 0.0000 ( 16966 PWs)   bands (ev):

  -125.8480-125.8475-125.7545-125.7247-125.7242-125.7127-125.5769-125.5386
  -125.5204-125.5197-125.5190-125.5008 -80.0567 -80.0486 -80.0219 -80.0210
   -80.0136 -80.0117 -79.9391 -79.9309 -79.9280 -79.9055 -79.9047 -79.9043
   -79.9015 -79.8997 -79.8931 -79.8898 -79.8881 -79.8825 -79.7712 -79.7571
   -79.7389 -79.7338 -79.7153 -79.7109 -79.7101 -79.7087 -79.7013 -79.6995
   -79.6957 -79.6953 -79.6885 -79.6881 -79.6873 -79.6847 -79.6745 -79.6729
   -13.7009  -8.4716  -7.8817  -7.3594  -7.3237  -7.2952  -7.2517  -7.2440
    -7.2151  -7.1987  -7.1940  -7.1725  -7.1542  -7.0635  -7.0157  -6.9949
    -6.9643  -6.9217  -6.8551  -6.8248  -6.7801  -6.7590  -6.7524  -6.7329
    -6.7201  -6.7097  -6.6998  -6.6757  -6.6577  -6.6368  -6.6019  -6.5880
    -6.5464  -6.5174  -6.5004  -6.4316  -6.4128  -6.3942  -6.3907  -6.3567
    -6.3309  -6.3070  -6.2810  -6.2674  -6.2562  -6.2449  -6.2263  -6.2038
    -6.1994  -6.1923  -6.1742  -6.1624  -6.1455  -6.1433  -6.1360  -6.1181
    -6.1136  -6.1075  -6.0743  -6.0304  -5.9858  -5.9807  -5.9702  -5.1076
    -3.6120  -3.0846  -2.9155  -2.3615  -2.1656  -1.9780  -1.3969  -0.5516
    -0.3596  -0.1030   0.0381   0.4164   0.9256   1.4576   1.6810   1.8878
     2.3837   2.6468   2.9959   3.3899   3.8836

          k = 0.0297 0.0515 0.0000 ( 16978 PWs)   bands (ev):

  -125.8480-125.8475-125.7545-125.7247-125.7242-125.7127-125.5769-125.5386
  -125.5203-125.5198-125.5191-125.5008 -80.0568 -80.0486 -80.0218 -80.0211
   -80.0136 -80.0118 -79.9391 -79.9308 -79.9276 -79.9054 -79.9048 -79.9036
   -79.9015 -79.9001 -79.8930 -79.8904 -79.8888 -79.8825 -79.7712 -79.7572
   -79.7389 -79.7339 -79.7154 -79.7108 -79.7102 -79.7087 -79.7013 -79.6985
   -79.6949 -79.6944 -79.6899 -79.6882 -79.6879 -79.6847 -79.6748 -79.6735
   -13.6936  -8.2380  -7.7486  -7.2818  -7.2599  -7.2244  -7.1967  -7.1679
    -7.1603  -7.1334  -7.1245  -7.0871  -7.0702  -7.0126  -6.9712  -6.9485
    -6.9186  -6.8730  -6.8390  -6.8156  -6.7876  -6.7754  -6.7508  -6.7216
    -6.6966  -6.6930  -6.6762  -6.6680  -6.6467  -6.6366  -6.6091  -6.5793
    -6.5619  -6.5366  -6.5064  -6.4911  -6.4815  -6.4508  -6.4133  -6.3900
    -6.3697  -6.3464  -6.3346  -6.3238  -6.2991  -6.2793  -6.2565  -6.2523
    -6.2464  -6.2420  -6.2132  -6.2116  -6.1970  -6.1785  -6.1732  -6.1469
    -6.1258  -6.1164  -6.0999  -6.0695  -6.0386  -6.0337  -5.9216  -5.0520
    -4.2563  -4.0445  -3.3499  -3.0758  -2.0490  -1.8356  -1.5240  -0.8391
    -0.6127   0.3174   0.4405   0.8047   1.3209   1.6338   2.5209   2.5763
     3.2928   3.4811   3.7046   3.8628   4.1354

          k = 0.0297-0.1201 0.0000 ( 16986 PWs)   bands (ev):

  -125.8480-125.8475-125.7545-125.7247-125.7242-125.7127-125.5769-125.5386
  -125.5203-125.5198-125.5191-125.5008 -80.0567 -80.0486 -80.0218 -80.0212
   -80.0136 -80.0118 -79.9391 -79.9306 -79.9272 -79.9055 -79.9048 -79.9026
   -79.9015 -79.9007 -79.8928 -79.8909 -79.8899 -79.8826 -79.7713 -79.7573
   -79.7390 -79.7339 -79.7155 -79.7108 -79.7102 -79.7088 -79.7013 -79.6971
   -79.6939 -79.6925 -79.6920 -79.6900 -79.6879 -79.6848 -79.6749 -79.6743
   -13.6863  -8.0412  -7.3900  -7.2022  -7.1711  -7.1510  -7.1456  -7.0597
    -7.0518  -7.0432  -7.0199  -7.0060  -6.9906  -6.9296  -6.9179  -6.9104
    -6.8803  -6.8590  -6.8362  -6.7984  -6.7760  -6.7531  -6.7410  -6.7369
    -6.7165  -6.6992  -6.6738  -6.6586  -6.6375  -6.6212  -6.6010  -6.5934
    -6.5764  -6.5555  -6.5284  -6.5175  -6.5084  -6.4985  -6.4668  -6.4360
    -6.4226  -6.4090  -6.3854  -6.3793  -6.3620  -6.3514  -6.3305  -6.3193
    -6.2978  -6.2849  -6.2628  -6.2472  -6.2322  -6.2228  -6.1956  -6.1764
    -6.1632  -6.1395  -6.1128  -6.1068  -6.0917  -6.0670  -5.8396  -5.4821
    -4.8062  -4.4165  -3.7713  -3.3914  -2.4739  -2.0777  -1.2975  -0.9590
    -0.4114   0.4527   0.7390   1.0419   1.8355   2.6253   2.7135   3.2818
     3.4137   3.8572   4.2636   4.2739   4.6770

          k = 0.0297-0.0858 0.0000 ( 16986 PWs)   bands (ev):

  -125.8480-125.8475-125.7545-125.7247-125.7242-125.7127-125.5769-125.5386
  -125.5203-125.5198-125.5191-125.5008 -80.0567 -80.0486 -80.0218 -80.0212
   -80.0136 -80.0118 -79.9391 -79.9306 -79.9272 -79.9055 -79.9048 -79.9026
   -79.9015 -79.9007 -79.8928 -79.8909 -79.8899 -79.8826 -79.7713 -79.7573
   -79.7390 -79.7339 -79.7155 -79.7108 -79.7102 -79.7088 -79.7013 -79.6971
   -79.6939 -79.6925 -79.6920 -79.6900 -79.6879 -79.6848 -79.6749 -79.6743
   -13.6863  -8.0412  -7.3900  -7.2022  -7.1711  -7.1510  -7.1456  -7.0597
    -7.0518  -7.0432  -7.0199  -7.0060  -6.9906  -6.9296  -6.9179  -6.9104
    -6.8803  -6.8590  -6.8362  -6.7984  -6.7760  -6.7531  -6.7410  -6.7369
    -6.7165  -6.6992  -6.6738  -6.6586  -6.6375  -6.6212  -6.6010  -6.5934
    -6.5764  -6.5555  -6.5284  -6.5175  -6.5084  -6.4985  -6.4668  -6.4360
    -6.4226  -6.4090  -6.3854  -6.3793  -6.3620  -6.3514  -6.3305  -6.3193
    -6.2978  -6.2849  -6.2628  -6.2472  -6.2322  -6.2228  -6.1956  -6.1764
    -6.1632  -6.1395  -6.1128  -6.1068  -6.0917  -6.0670  -5.8396  -5.4821
    -4.8062  -4.4165  -3.7713  -3.3914  -2.4739  -2.0777  -1.2975  -0.9590
    -0.4114   0.4527   0.7390   1.0419   1.8355   2.6253   2.7135   3.2818
     3.4137   3.8572   4.2636   4.2739   4.6770

          k = 0.0297-0.0515 0.0000 ( 16978 PWs)   bands (ev):

  -125.8480-125.8475-125.7545-125.7247-125.7242-125.7127-125.5769-125.5386
  -125.5203-125.5198-125.5191-125.5008 -80.0568 -80.0486 -80.0218 -80.0211
   -80.0136 -80.0118 -79.9391 -79.9308 -79.9276 -79.9054 -79.9048 -79.9036
   -79.9015 -79.9001 -79.8930 -79.8904 -79.8888 -79.8825 -79.7712 -79.7572
   -79.7389 -79.7339 -79.7154 -79.7108 -79.7102 -79.7087 -79.7013 -79.6985
   -79.6949 -79.6944 -79.6899 -79.6882 -79.6879 -79.6847 -79.6748 -79.6735
   -13.6936  -8.2380  -7.7486  -7.2818  -7.2599  -7.2244  -7.1967  -7.1679
    -7.1603  -7.1334  -7.1245  -7.0871  -7.0702  -7.0126  -6.9712  -6.9485
    -6.9186  -6.8730  -6.8390  -6.8156  -6.7876  -6.7754  -6.7508  -6.7216
    -6.6966  -6.6930  -6.6762  -6.6680  -6.6467  -6.6366  -6.6091  -6.5793
    -6.5619  -6.5366  -6.5064  -6.4911  -6.4815  -6.4508  -6.4133  -6.3900
    -6.3697  -6.3464  -6.3346  -6.3238  -6.2991  -6.2793  -6.2565  -6.2523
    -6.2464  -6.2420  -6.2132  -6.2116  -6.1970  -6.1785  -6.1732  -6.1469
    -6.1258  -6.1164  -6.0999  -6.0695  -6.0386  -6.0337  -5.9216  -5.0520
    -4.2563  -4.0445  -3.3499  -3.0758  -2.0490  -1.8356  -1.5240  -0.8391
    -0.6127   0.3174   0.4405   0.8047   1.3209   1.6338   2.5209   2.5763
     3.2928   3.4811   3.7046   3.8628   4.1354

          k = 0.0595-0.0343 0.0000 ( 16996 PWs)   bands (ev):

  -125.8479-125.8476-125.7545-125.7246-125.7243-125.7127-125.5769-125.5386
  -125.5203-125.5199-125.5191-125.5008 -80.0553 -80.0501 -80.0217 -80.0212
   -80.0133 -80.0122 -79.9391 -79.9306 -79.9277 -79.9053 -79.9049 -79.9035
   -79.9015 -79.8988 -79.8946 -79.8908 -79.8885 -79.8826 -79.7713 -79.7572
   -79.7387 -79.7339 -79.7154 -79.7107 -79.7103 -79.7087 -79.7016 -79.6980
   -79.6946 -79.6939 -79.6899 -79.6898 -79.6874 -79.6848 -79.6754 -79.6733
   -13.6896  -8.1058  -7.6685  -7.2962  -7.2508  -7.2013  -7.1679  -7.1337
    -7.1271  -7.1130  -7.0991  -7.0891  -7.0686  -6.9955  -6.9740  -6.9274
    -6.9116  -6.8845  -6.8484  -6.8126  -6.7934  -6.7814  -6.7441  -6.7354
    -6.6961  -6.6761  -6.6537  -6.6429  -6.6349  -6.6236  -6.6159  -6.5978
    -6.5746  -6.5363  -6.5145  -6.4932  -6.4735  -6.4530  -6.4150  -6.3824
    -6.3711  -6.3576  -6.3479  -6.3373  -6.3177  -6.2917  -6.2833  -6.2727
    -6.2653  -6.2522  -6.2447  -6.2365  -6.2118  -6.2051  -6.1977  -6.1587
    -6.1478  -6.1365  -6.1150  -6.0692  -6.0477  -6.0446  -5.8818  -5.2767
    -4.6430  -3.7357  -3.2141  -2.8961  -2.5033  -2.2836  -1.7073  -0.9691
    -0.6025   0.0762   0.9268   1.4207   1.6366   1.9193   2.1526   3.1255
     3.2263   3.4556   3.8303   4.1272   4.4661

          k = 0.0595 0.0000 0.0000 ( 16978 PWs)   bands (ev):

  -125.8480-125.8476-125.7545-125.7246-125.7243-125.7127-125.5769-125.5386
  -125.5203-125.5199-125.5190-125.5008 -80.0553 -80.0500 -80.0217 -80.0212
   -80.0133 -80.0121 -79.9391 -79.9306 -79.9279 -79.9053 -79.9049 -79.9035
   -79.9018 -79.8987 -79.8946 -79.8903 -79.8883 -79.8825 -79.7712 -79.7572
   -79.7386 -79.7339 -79.7154 -79.7107 -79.7103 -79.7087 -79.7016 -79.6984
   -79.6952 -79.6942 -79.6898 -79.6886 -79.6877 -79.6847 -79.6752 -79.6731
   -13.6920  -8.1984  -7.7349  -7.2954  -7.2736  -7.2251  -7.1902  -7.1666
    -7.1501  -7.1410  -7.1294  -7.1199  -7.0864  -7.0243  -6.9776  -6.9558
    -6.9220  -6.8980  -6.8589  -6.8164  -6.8005  -6.7896  -6.7482  -6.7329
    -6.7045  -6.6772  -6.6624  -6.6485  -6.6388  -6.6345  -6.6220  -6.6026
    -6.5832  -6.5308  -6.4973  -6.4741  -6.4641  -6.4311  -6.3958  -6.3704
    -6.3693  -6.3456  -6.3367  -6.3207  -6.2885  -6.2801  -6.2706  -6.2541
    -6.2395  -6.2307  -6.2142  -6.2043  -6.1901  -6.1858  -6.1778  -6.1570
    -6.1375  -6.1220  -6.1092  -6.0743  -6.0399  -6.0335  -5.9133  -5.0576
    -4.1836  -4.0023  -3.4853  -2.9326  -1.9574  -1.8692  -1.7162  -0.8592
    -0.5429   0.2907   0.5786   0.8501   1.1714   1.6435   2.5234   2.5683
     3.1543   3.5930   3.6937   3.9947   4.1672

          k = 0.0595 0.0343 0.0000 ( 16996 PWs)   bands (ev):

  -125.8479-125.8476-125.7545-125.7246-125.7243-125.7127-125.5769-125.5386
  -125.5203-125.5199-125.5191-125.5008 -80.0553 -80.0501 -80.0217 -80.0212
   -80.0133 -80.0122 -79.9391 -79.9306 -79.9277 -79.9053 -79.9049 -79.9035
   -79.9015 -79.8988 -79.8946 -79.8908 -79.8885 -79.8826 -79.7713 -79.7572
   -79.7387 -79.7339 -79.7154 -79.7107 -79.7103 -79.7087 -79.7016 -79.6980
   -79.6946 -79.6939 -79.6899 -79.6898 -79.6874 -79.6848 -79.6754 -79.6733
   -13.6896  -8.1058  -7.6685  -7.2962  -7.2508  -7.2013  -7.1679  -7.1337
    -7.1271  -7.1130  -7.0991  -7.0891  -7.0686  -6.9955  -6.9740  -6.9274
    -6.9116  -6.8845  -6.8484  -6.8126  -6.7934  -6.7814  -6.7441  -6.7354
    -6.6961  -6.6761  -6.6537  -6.6429  -6.6349  -6.6236  -6.6159  -6.5978
    -6.5746  -6.5363  -6.5145  -6.4932  -6.4735  -6.4530  -6.4150  -6.3824
    -6.3711  -6.3576  -6.3479  -6.3373  -6.3177  -6.2917  -6.2833  -6.2727
    -6.2653  -6.2522  -6.2447  -6.2365  -6.2118  -6.2051  -6.1977  -6.1587
    -6.1478  -6.1365  -6.1150  -6.0692  -6.0477  -6.0446  -5.8818  -5.2767
    -4.6430  -3.7357  -3.2141  -2.8961  -2.5033  -2.2836  -1.7073  -0.9691
    -0.6025   0.0762   0.9268   1.4207   1.6366   1.9193   2.1526   3.1255
     3.2263   3.4556   3.8303   4.1272   4.4661

          k = 0.0595-0.1373 0.0000 ( 16986 PWs)   bands (ev):

  -125.8479-125.8476-125.7545-125.7246-125.7243-125.7127-125.5769-125.5386
  -125.5202-125.5199-125.5191-125.5008 -80.0552 -80.0501 -80.0217 -80.0212
   -80.0133 -80.0121 -79.9391 -79.9305 -79.9274 -79.9053 -79.9049 -79.9030
   -79.9013 -79.8991 -79.8947 -79.8912 -79.8889 -79.8826 -79.7713 -79.7572
   -79.7387 -79.7339 -79.7154 -79.7107 -79.7103 -79.7087 -79.7017 -79.6970
   -79.6941 -79.6927 -79.6917 -79.6898 -79.6879 -79.6848 -79.6756 -79.6737
   -13.6847  -7.9605  -7.4248  -7.2566  -7.1706  -7.1343  -7.1169  -7.0879
    -7.0702  -7.0553  -7.0343  -7.0253  -6.9974  -6.9503  -6.9327  -6.9092
    -6.9001  -6.8712  -6.8434  -6.8181  -6.7888  -6.7659  -6.7427  -6.7363
    -6.7044  -6.6854  -6.6617  -6.6586  -6.6351  -6.6236  -6.6054  -6.5828
    -6.5565  -6.5427  -6.5374  -6.5177  -6.4983  -6.4873  -6.4699  -6.4210
    -6.4064  -6.3869  -6.3819  -6.3748  -6.3521  -6.3469  -6.3246  -6.3188
    -6.2977  -6.2839  -6.2730  -6.2519  -6.2339  -6.2215  -6.1963  -6.1702
    -6.1585  -6.1490  -6.1340  -6.1165  -6.0944  -6.0681  -5.8539  -5.4117
    -4.7778  -4.4580  -3.8247  -3.1158  -2.8064  -1.8892  -1.3552  -0.9383
    -0.4402   0.4794   0.7134   1.0492   1.8528   2.5975   2.8099   3.2208
     3.4385   3.8435   4.2101   4.2655   4.7438

          k = 0.0595-0.1030 0.0000 ( 17004 PWs)   bands (ev):

  -125.8479-125.8476-125.7545-125.7246-125.7243-125.7127-125.5769-125.5386
  -125.5202-125.5199-125.5191-125.5008 -80.0553 -80.0502 -80.0217 -80.0213
   -80.0133 -80.0122 -79.9391 -79.9305 -79.9274 -79.9053 -79.9049 -79.9023
   -79.9020 -79.8993 -79.8948 -79.8911 -79.8895 -79.8825 -79.7713 -79.7573
   -79.7388 -79.7339 -79.7155 -79.7106 -79.7103 -79.7087 -79.7018 -79.6955
   -79.6952 -79.6927 -79.6906 -79.6903 -79.6891 -79.6847 -79.6756 -79.6741
   -13.6823  -7.9137  -7.2710  -7.1439  -7.1126  -7.0729  -7.0596  -7.0353
    -7.0285  -7.0083  -6.9947  -6.9696  -6.9625  -6.9512  -6.9393  -6.9309
    -6.9150  -6.8792  -6.8530  -6.8349  -6.8126  -6.8039  -6.7565  -6.7455
    -6.7286  -6.6985  -6.6748  -6.6471  -6.6349  -6.6181  -6.5884  -6.5881
    -6.5734  -6.5602  -6.5450  -6.5344  -6.5214  -6.5132  -6.5085  -6.4440
    -6.4345  -6.4305  -6.4228  -6.3798  -6.3712  -6.3537  -6.3465  -6.3275
    -6.3072  -6.2799  -6.2756  -6.2537  -6.2343  -6.1877  -6.1779  -6.1697
    -6.1567  -6.1464  -6.1393  -6.1358  -6.1225  -5.9715  -5.6689  -5.6530
    -5.1957  -4.4468  -4.2876  -3.1944  -2.8288  -2.3667  -0.6414  -0.6047
    -0.2557   0.8682   0.9099   0.9237   2.0928   2.3380   2.3939   2.8673
     3.1135   3.1712   4.3887   4.5853   4.8065

          k = 0.0595-0.0686 0.0000 ( 16986 PWs)   bands (ev):

  -125.8479-125.8476-125.7545-125.7246-125.7243-125.7127-125.5769-125.5386
  -125.5202-125.5199-125.5191-125.5008 -80.0552 -80.0501 -80.0217 -80.0212
   -80.0133 -80.0121 -79.9391 -79.9305 -79.9274 -79.9053 -79.9049 -79.9030
   -79.9013 -79.8991 -79.8947 -79.8912 -79.8889 -79.8826 -79.7713 -79.7572
   -79.7387 -79.7339 -79.7154 -79.7107 -79.7103 -79.7087 -79.7017 -79.6970
   -79.6941 -79.6927 -79.6917 -79.6898 -79.6879 -79.6848 -79.6756 -79.6737
   -13.6847  -7.9605  -7.4248  -7.2566  -7.1706  -7.1343  -7.1169  -7.0879
    -7.0702  -7.0553  -7.0343  -7.0253  -6.9974  -6.9503  -6.9327  -6.9092
    -6.9001  -6.8712  -6.8434  -6.8181  -6.7888  -6.7659  -6.7427  -6.7363
    -6.7044  -6.6854  -6.6617  -6.6586  -6.6351  -6.6236  -6.6054  -6.5828
    -6.5565  -6.5427  -6.5374  -6.5177  -6.4983  -6.4873  -6.4699  -6.4210
    -6.4064  -6.3869  -6.3819  -6.3748  -6.3521  -6.3469  -6.3246  -6.3188
    -6.2977  -6.2839  -6.2730  -6.2519  -6.2339  -6.2215  -6.1963  -6.1702
    -6.1585  -6.1490  -6.1340  -6.1165  -6.0944  -6.0681  -5.8539  -5.4117
    -4.7778  -4.4580  -3.8247  -3.1158  -2.8064  -1.8892  -1.3552  -0.9383
    -0.4402   0.4794   0.7134   1.0492   1.8528   2.5975   2.8099   3.2208
     3.4385   3.8435   4.2101   4.2655   4.7438

          k =-0.0892 0.0515 0.0000 ( 17028 PWs)   bands (ev):

  -125.8479-125.8476-125.7545-125.7244-125.7244-125.7127-125.5769-125.5386
  -125.5201-125.5200-125.5191-125.5008 -80.0540 -80.0515 -80.0216 -80.0213
   -80.0131 -80.0125 -79.9392 -79.9304 -79.9276 -79.9051 -79.9051 -79.9033
   -79.9012 -79.8973 -79.8966 -79.8914 -79.8885 -79.8826 -79.7713 -79.7572
   -79.7386 -79.7339 -79.7154 -79.7106 -79.7105 -79.7087 -79.7019 -79.6973
   -79.6933 -79.6924 -79.6918 -79.6913 -79.6873 -79.6848 -79.6760 -79.6734
   -13.6839  -7.8949  -7.4399  -7.3086  -7.1792  -7.1635  -7.1381  -7.0790
    -7.0754  -7.0514  -7.0226  -7.0112  -7.0026  -6.9677  -6.9353  -6.9127
    -6.8814  -6.8811  -6.8426  -6.8171  -6.7973  -6.7575  -6.7431  -6.7350
    -6.7193  -6.6800  -6.6614  -6.6480  -6.6369  -6.6017  -6.5879  -6.5635
    -6.5410  -6.5303  -6.5217  -6.4826  -6.4656  -6.4559  -6.4337  -6.4084
    -6.3931  -6.3825  -6.3754  -6.3721  -6.3624  -6.3558  -6.3464  -6.3244
    -6.3189  -6.3079  -6.2924  -6.2666  -6.2400  -6.2169  -6.2134  -6.2056
    -6.1721  -6.1375  -6.1318  -6.1281  -6.1109  -6.0547  -6.0511  -5.5381
    -4.8993  -3.8748  -3.3568  -3.0772  -2.8895  -2.4030  -1.5105  -0.8902
    -0.6732  -0.5988   1.2744   1.8443   2.0909   2.5403   3.3972   3.4728
     3.5881   3.6356   4.2383   4.3837   4.6339

          k =-0.0892 0.0858 0.0000 ( 16986 PWs)   bands (ev):

  -125.8479-125.8476-125.7545-125.7244-125.7244-125.7127-125.5769-125.5386
  -125.5201-125.5200-125.5191-125.5008 -80.0540 -80.0514 -80.0216 -80.0213
   -80.0131 -80.0125 -79.9391 -79.9304 -79.9276 -79.9051 -79.9051 -79.9029
   -79.9017 -79.8971 -79.8968 -79.8910 -79.8887 -79.8825 -79.7713 -79.7572
   -79.7386 -79.7339 -79.7154 -79.7106 -79.7105 -79.7087 -79.7019 -79.6969
   -79.6944 -79.6923 -79.6918 -79.6900 -79.6879 -79.6848 -79.6758 -79.6735
   -13.6839  -7.9064  -7.4749  -7.2483  -7.1846  -7.1367  -7.1096  -7.0836
[...]
    -7.4154  -7.3926  -7.3590  -7.3145  -7.2680  -7.2532  -7.1985  -7.1731
    -7.1602  -7.1314  -7.1239  -7.0904  -7.0795  -7.0581  -7.0362  -7.0242
    -7.0062  -6.9954  -6.9682  -6.9595  -6.9329  -6.8999  -6.8952  -6.8739
    -6.8671  -6.8391  -6.8267  -6.7829  -6.7699  -6.7541  -6.7347  -6.7122
    -6.7060  -6.6883  -6.6796  -6.6641  -6.6549  -6.6446  -6.6377  -6.6326
    -6.6304  -6.6187  -6.5875  -6.5796  -6.5637  -6.5547  -6.5336  -6.5142
    -6.4925  -6.4825  -6.4637  -6.4409  -6.4392  -6.4313  -5.8748  -5.3985
    -5.0279  -3.8693  -3.4508  -3.1264  -2.9716  -2.4377  -1.9436  -1.2045
    -1.1326  -0.3897   0.4675   0.9789   1.2906   1.5030   1.6711   2.6927
     3.0698   3.1586   3.5841   3.7732   4.4534

          k = 0.0595-0.1373 0.0000 ( 16986 PWs)   bands (ev):

  -126.1241-126.1238-126.1022-126.0371-125.9406-125.9403-125.9377-125.9201
  -125.9036-125.8936-125.8930-125.8724 -80.3049 -80.3044 -80.3007 -80.3002
   -80.2999 -80.2952 -80.2871 -80.2772 -80.2754 -80.2172 -80.2165 -80.2067
   -80.1330 -80.1326 -80.1294 -80.1173 -80.1157 -80.1134 -80.1116 -80.1096
   -80.1077 -80.1058 -80.0932 -80.0906 -80.0879 -80.0855 -80.0840 -80.0833
   -80.0808 -80.0794 -80.0755 -80.0693 -80.0532 -80.0509 -80.0398 -80.0365
   -13.1543  -7.6744  -7.4905  -7.4119  -7.3979  -7.3902  -7.3763  -7.3675
    -7.3493  -7.3294  -7.3029  -7.2699  -7.2334  -7.2178  -7.1926  -7.1767
    -7.1563  -7.1154  -7.0896  -7.0764  -7.0643  -7.0507  -7.0283  -7.0100
    -6.9972  -6.9875  -6.9758  -6.9619  -6.9374  -6.9258  -6.9074  -6.8988
    -6.8862  -6.8688  -6.8412  -6.8292  -6.8101  -6.7860  -6.7696  -6.7559
    -6.7477  -6.7295  -6.7117  -6.7031  -6.6756  -6.6712  -6.6626  -6.6467
    -6.6315  -6.6134  -6.6067  -6.5839  -6.5814  -6.5643  -6.5415  -6.5334
    -6.5187  -6.5021  -6.4780  -6.4699  -6.4643  -6.4539  -5.8373  -5.5799
    -5.0067  -4.6678  -4.2490  -3.3642  -2.7668  -2.5565  -1.6401  -1.3213
    -0.9099  -0.1948   0.4440   0.8271   1.2528   2.1755   2.5063   2.8508
     3.0993   3.3535   4.0671   4.2070   4.3912

          k = 0.0595-0.1030 0.0000 ( 17004 PWs)   bands (ev):

  -126.1241-126.1238-126.1022-126.0371-125.9406-125.9403-125.9377-125.9201
  -125.9036-125.8936-125.8930-125.8724 -80.3048 -80.3044 -80.3005 -80.3003
   -80.2999 -80.2952 -80.2870 -80.2772 -80.2758 -80.2172 -80.2166 -80.2067
   -80.1329 -80.1326 -80.1294 -80.1172 -80.1144 -80.1143 -80.1116 -80.1093
   -80.1084 -80.1062 -80.0929 -80.0907 -80.0879 -80.0855 -80.0842 -80.0828
   -80.0815 -80.0795 -80.0757 -80.0694 -80.0532 -80.0510 -80.0399 -80.0365
   -13.1519  -7.4063  -7.3964  -7.3684  -7.3499  -7.3426  -7.3255  -7.3139
    -7.3043  -7.2996  -7.2879  -7.2754  -7.2597  -7.2307  -7.2266  -7.1871
    -7.1525  -7.1253  -7.1115  -7.0653  -7.0545  -7.0284  -7.0224  -7.0077
    -6.9889  -6.9834  -6.9685  -6.9621  -6.9610  -6.9434  -6.9270  -6.9078
    -6.9017  -6.8888  -6.8806  -6.8602  -6.8439  -6.8348  -6.8114  -6.7921
    -6.7652  -6.7334  -6.7318  -6.7106  -6.6859  -6.6762  -6.6665  -6.6545
    -6.6344  -6.6222  -6.6073  -6.5942  -6.5630  -6.5622  -6.5502  -6.5410
    -6.5264  -6.5186  -6.4973  -6.4867  -6.4759  -5.9902  -5.9247  -5.8583
    -5.3609  -4.6305  -4.4339  -3.9922  -2.7553  -2.5461  -1.6709  -1.2469
    -0.5076   0.6193   0.6662   0.7959   1.6991   1.7823   2.1073   2.4498
     2.5740   2.9968   4.0688   4.3479   4.8025

          k = 0.0595-0.0686 0.0000 ( 16986 PWs)   bands (ev):

  -126.1241-126.1238-126.1022-126.0371-125.9406-125.9403-125.9377-125.9201
  -125.9036-125.8936-125.8930-125.8724 -80.3049 -80.3044 -80.3007 -80.3002
   -80.2999 -80.2952 -80.2871 -80.2772 -80.2754 -80.2172 -80.2165 -80.2067
   -80.1330 -80.1326 -80.1294 -80.1173 -80.1157 -80.1134 -80.1116 -80.1096
   -80.1077 -80.1058 -80.0932 -80.0906 -80.0879 -80.0855 -80.0840 -80.0833
   -80.0808 -80.0794 -80.0755 -80.0693 -80.0532 -80.0509 -80.0398 -80.0365
   -13.1543  -7.6744  -7.4905  -7.4119  -7.3979  -7.3902  -7.3763  -7.3675
    -7.3493  -7.3294  -7.3029  -7.2699  -7.2334  -7.2177  -7.1926  -7.1767
    -7.1563  -7.1154  -7.0896  -7.0764  -7.0643  -7.0507  -7.0283  -7.0100
    -6.9972  -6.9875  -6.9758  -6.9619  -6.9374  -6.9258  -6.9074  -6.8988
    -6.8862  -6.8688  -6.8412  -6.8292  -6.8101  -6.7860  -6.7696  -6.7559
    -6.7477  -6.7295  -6.7117  -6.7031  -6.6756  -6.6712  -6.6626  -6.6467
    -6.6315  -6.6134  -6.6067  -6.5839  -6.5814  -6.5643  -6.5415  -6.5334
    -6.5187  -6.5021  -6.4780  -6.4699  -6.4643  -6.4539  -5.8373  -5.5799
    -5.0067  -4.6678  -4.2490  -3.3642  -2.7668  -2.5565  -1.6401  -1.3213
    -0.9099  -0.1948   0.4440   0.8271   1.2528   2.1755   2.5063   2.8508
     3.0993   3.3535   4.0671   4.2070   4.3912

          k =-0.0892 0.0515 0.0000 ( 17028 PWs)   bands (ev):

  -126.1240-126.1240-126.1022-126.0371-125.9405-125.9404-125.9377-125.9201
  -125.9036-125.8935-125.8930-125.8724 -80.3047 -80.3047 -80.3007 -80.3003
   -80.2978 -80.2975 -80.2871 -80.2771 -80.2752 -80.2173 -80.2164 -80.2068
   -80.1329 -80.1328 -80.1294 -80.1173 -80.1162 -80.1134 -80.1098 -80.1098
   -80.1093 -80.1055 -80.0933 -80.0901 -80.0879 -80.0857 -80.0844 -80.0834
   -80.0805 -80.0796 -80.0754 -80.0693 -80.0530 -80.0512 -80.0398 -80.0366
   -13.1541  -7.6159  -7.5641  -7.4213  -7.4135  -7.3929  -7.3763  -7.3363
    -7.3295  -7.3084  -7.2873  -7.2750  -7.2703  -7.1971  -7.1744  -7.1594
    -7.1410  -7.1132  -7.0957  -7.0681  -7.0601  -7.0521  -7.0334  -7.0153
    -6.9758  -6.9735  -6.9501  -6.9423  -6.9274  -6.9072  -6.8951  -6.8870
    -6.8607  -6.8422  -6.8277  -6.8135  -6.7910  -6.7873  -6.7759  -6.7627
    -6.7531  -6.7429  -6.7189  -6.7035  -6.6935  -6.6802  -6.6774  -6.6467
    -6.6385  -6.6296  -6.6241  -6.6174  -6.5884  -6.5727  -6.5402  -6.5228
    -6.5124  -6.4847  -6.4707  -6.4469  -6.4467  -6.4384  -6.4105  -5.4822
    -5.0891  -4.5651  -3.3378  -3.2872  -2.9732  -2.7895  -1.8136  -1.6182
    -1.2912  -0.5967   0.8742   0.9853   1.3859   2.0533   3.2593   3.2755
     3.4159   3.4718   3.9028   4.4377   4.4989

          k =-0.0892 0.0858 0.0000 ( 16986 PWs)   bands (ev):

  -126.1240-126.1240-126.1022-126.0371-125.9405-125.9404-125.9377-125.9201
  -125.9036-125.8935-125.8930-125.8724 -80.3047 -80.3046 -80.3007 -80.3003
   -80.2978 -80.2975 -80.2871 -80.2770 -80.2753 -80.2173 -80.2164 -80.2067
   -80.1328 -80.1328 -80.1294 -80.1173 -80.1158 -80.1141 -80.1100 -80.1095
   -80.1086 -80.1058 -80.0933 -80.0901 -80.0879 -80.0859 -80.0846 -80.0828
   -80.0807 -80.0795 -80.0753 -80.0693 -80.0530 -80.0512 -80.0397 -80.0366
   -13.1541  -7.6692  -7.4899  -7.4121  -7.3965  -7.3838  -7.3752  -7.3691
    -7.3396  -7.3211  -7.3075  -7.2720  -7.2499  -7.2133  -7.1800  -7.1612
    -7.1256  -7.1115  -7.0979  -7.0755  -7.0573  -7.0504  -7.0371  -7.0180
    -6.9988  -6.9882  -6.9694  -6.9615  -6.9333  -6.9265  -6.9193  -6.8963
    -6.8788  -6.8509  -6.8411  -6.8237  -6.7884  -6.7805  -6.7713  -6.7633
    -6.7561  -6.7340  -6.7205  -6.7013  -6.6918  -6.6773  -6.6629  -6.6503
    -6.6291  -6.6271  -6.6115  -6.5981  -6.5884  -6.5649  -6.5532  -6.5284
    -6.5199  -6.5080  -6.4899  -6.4706  -6.4683  -6.4618  -5.8302  -5.5367
    -5.0901  -4.6613  -4.1780  -3.3319  -3.1292  -2.2531  -1.5865  -1.3283
    -1.0061  -0.1228   0.4705   0.8684   1.2545   2.1318   2.4100   2.8673
     3.0759   3.4248   4.0065   4.1801   4.6351

          k =-0.0892 0.1201 0.0000 ( 16986 PWs)   bands (ev):

  -126.1240-126.1240-126.1022-126.0371-125.9405-125.9404-125.9377-125.9201
  -125.9036-125.8935-125.8930-125.8724 -80.3047 -80.3046 -80.3007 -80.3003
   -80.2978 -80.2975 -80.2871 -80.2770 -80.2753 -80.2173 -80.2164 -80.2067
   -80.1328 -80.1328 -80.1294 -80.1173 -80.1158 -80.1141 -80.1100 -80.1095
   -80.1086 -80.1058 -80.0933 -80.0901 -80.0879 -80.0859 -80.0846 -80.0828
   -80.0807 -80.0795 -80.0753 -80.0693 -80.0530 -80.0512 -80.0397 -80.0366
   -13.1541  -7.6692  -7.4899  -7.4121  -7.3965  -7.3838  -7.3752  -7.3691
    -7.3396  -7.3211  -7.3075  -7.2720  -7.2499  -7.2133  -7.1800  -7.1612
    -7.1256  -7.1115  -7.0979  -7.0755  -7.0573  -7.0504  -7.0371  -7.0180
    -6.9988  -6.9882  -6.9694  -6.9615  -6.9333  -6.9265  -6.9193  -6.8963
    -6.8788  -6.8509  -6.8411  -6.8237  -6.7884  -6.7805  -6.7713  -6.7633
    -6.7561  -6.7340  -6.7205  -6.7013  -6.6918  -6.6773  -6.6629  -6.6503
    -6.6291  -6.6271  -6.6115  -6.5981  -6.5884  -6.5649  -6.5532  -6.5284
    -6.5199  -6.5080  -6.4899  -6.4706  -6.4683  -6.4618  -5.8302  -5.5367
    -5.0901  -4.6613  -4.1780  -3.3319  -3.1292  -2.2531  -1.5865  -1.3283
    -1.0061  -0.1228   0.4705   0.8684   1.2545   2.1318   2.4099   2.8673
     3.0759   3.4248   4.0065   4.1801   4.6351

          k =-0.0892-0.0515 0.0000 ( 17028 PWs)   bands (ev):

  -126.1240-126.1240-126.1022-126.0371-125.9405-125.9404-125.9377-125.9201
  -125.9036-125.8935-125.8930-125.8724 -80.3047 -80.3047 -80.3007 -80.3003
   -80.2978 -80.2975 -80.2871 -80.2771 -80.2752 -80.2173 -80.2164 -80.2068
   -80.1329 -80.1328 -80.1294 -80.1173 -80.1162 -80.1134 -80.1098 -80.1098
   -80.1093 -80.1055 -80.0933 -80.0901 -80.0879 -80.0857 -80.0844 -80.0834
   -80.0805 -80.0796 -80.0754 -80.0693 -80.0530 -80.0512 -80.0398 -80.0366
   -13.1541  -7.6159  -7.5641  -7.4213  -7.4135  -7.3929  -7.3763  -7.3363
    -7.3295  -7.3084  -7.2873  -7.2750  -7.2703  -7.1971  -7.1744  -7.1594
    -7.1410  -7.1132  -7.0957  -7.0681  -7.0601  -7.0521  -7.0334  -7.0153
    -6.9758  -6.9735  -6.9501  -6.9423  -6.9274  -6.9072  -6.8951  -6.8870
    -6.8607  -6.8422  -6.8277  -6.8135  -6.7910  -6.7873  -6.7759  -6.7627
    -6.7531  -6.7429  -6.7189  -6.7035  -6.6935  -6.6802  -6.6774  -6.6467
    -6.6385  -6.6296  -6.6241  -6.6174  -6.5884  -6.5727  -6.5402  -6.5228
    -6.5124  -6.4847  -6.4707  -6.4469  -6.4467  -6.4384  -6.4105  -5.4822
    -5.0891  -4.5651  -3.3378  -3.2872  -2.9732  -2.7895  -1.8136  -1.6182
    -1.2912  -0.5967   0.8742   0.9853   1.3859   2.0533   3.2593   3.2755
     3.4159   3.4718   3.9028   4.4377   4.4989

     the Fermi energy is     0.6678 ev

!    total energy              =   -5578.93788771 Ry
     Harris-Foulkes estimate   =   -5578.93788768 Ry
     estimated scf accuracy    <       0.00000006 Ry

     The total energy is the sum of the following terms:

     one-electron contribution =  -35030.75171844 Ry
     hartree contribution      =   17498.03536571 Ry
     xc contribution           =    -530.32083874 Ry
     ewald contribution        =   12484.12332376 Ry
     electric field correction =       0.00004144 Ry
     smearing contrib. (-TS)   =      -0.02406144 Ry

     convergence has been achieved in   6 iterations
 
 BEEF-vdW xc energy contributions
           1 :   -470.769998328555     
           2 :    426.222388830563     
           3 :   -351.630224710212     
           4 :    268.724556249907     
           5 :   -196.600571436429     
           6 :    144.634170578058     
           7 :   -111.300689332268     
           8 :    88.5389839479120     
           9 :   -68.3220321429432     
          10 :    47.3172529780453     
          11 :   -27.3376284876847     
          12 :    12.2596526582811     
          13 :   -4.20984889643034     
          14 :    1.79106742201475     
          15 :   -1.24481817292622     
          16 :  -0.765696098373041     
          17 :    5.01932237301389     
          18 :   -9.72575365714465     
          19 :    12.3751829758459     
          20 :   -11.8615710187629     
          21 :    9.27735442613812     
          22 :   -6.94177154477586     
          23 :    6.58209264709109     
          24 :   -8.12753275656002     
          25 :    9.96911020008787     
          26 :   -10.3551312784715     
          27 :    8.76311064976846     
          28 :   -6.21132676480551     
          29 :    4.36529139884124     
          30 :   -4.22164405017395     
          31 :   -36.7565612215249     
          32 :   -25.0265243623961     

     Forces acting on atoms (Ry/au):


     negative rho (up, down):  8.808E-04 0.000E+00
     atom    1 type  1   force =     0.00000001   -0.00338843   -0.00685162
     atom    2 type  1   force =     0.00000000   -0.00119002   -0.00954354
     atom    3 type  1   force =     0.00146435    0.00215540   -0.00953456
     atom    4 type  1   force =    -0.00146433    0.00215542   -0.00953456
     atom    5 type  1   force =     0.00368290   -0.00626607    0.00565333
     atom    6 type  1   force =    -0.00368288   -0.00626598    0.00565352
     atom    7 type  1   force =     0.00000006    0.00500687    0.00417513
     atom    8 type  1   force =    -0.00000001    0.00390729    0.01941234
     atom    9 type  1   force =    -0.00015310    0.00143900   -0.00004511
     atom   10 type  1   force =     0.00015250    0.00143917   -0.00004454
     atom   11 type  1   force =     0.00000041   -0.00008504    0.00028028
     atom   12 type  1   force =    -0.00000029   -0.00008420    0.00009202
     atom   13 type  2   force =     0.00000048    0.00124202   -0.00007264
     atom   14 type  3   force =    -0.00000010   -0.00006543    0.00035994

     Total force =     0.002445     Total SCF correction =     0.000816
     SCF correction compared to forces is large: reduce conv_thr to get better values


     entering subroutine stress ...


     negative rho (up, down):  8.808E-04 0.000E+00
          total   stress  (Ry/bohr**3)                   (kbar)     P=  -16.92
  -0.00016858  -0.00000000   0.00000000        -24.80     -0.00      0.00
  -0.00000000  -0.00015876   0.00000590         -0.00    -23.35      0.87
   0.00000000   0.00000590  -0.00001774          0.00      0.87     -2.61


     bfgs converged in  47 scf cycles and  46 bfgs steps
     (criteria: energy <  1.0E+00, force <  1.9E-03)

     End of BFGS Geometry Optimization

     Final energy   =   -5578.9378877113 Ry
Begin final coordinates

ATOMIC_POSITIONS (crystal)
Zn1      0.166666667   0.166666667   0.406869400    0   0   0
Zn1      0.666666667   0.166666667   0.406869400    0   0   0
Zn1      0.166666667   0.666666667   0.406869400    0   0   0
Zn1      0.666666667   0.666666667   0.406869400    0   0   0
Zn1      0.833333333   0.333333333   0.500000000    0   0   0
Zn1      0.333333333   0.333333333   0.500000000    0   0   0
Zn1      0.833333333   0.833333333   0.500000000    0   0   0
Zn1      0.333333333   0.833333333   0.500000000    0   0   0
Zn1     -0.005926129  -0.014473602   0.608803803
Zn1      0.520400069  -0.014473899   0.608803500
Zn1     -0.001145688   0.502290553   0.591643702
Zn1      0.517250433   0.465499569   0.592026973
S1       0.271077014  -0.042154396   0.688697970
H1       0.137571935   0.224857382   0.704339149
End final coordinates



     Writing output data file calc.save
 
     init_run     :     11.66s CPU     12.13s WALL (       1 calls)
     electrons    :  11952.04s CPU  12825.68s WALL (      47 calls)
     update_pot   :    131.75s CPU    139.50s WALL (      46 calls)
     forces       :    727.86s CPU    771.10s WALL (      47 calls)
     stress       :   2296.24s CPU   2421.28s WALL (      47 calls)

     Called by init_run:
     wfcinit      :      4.98s CPU      5.07s WALL (       1 calls)
     potinit      :      1.95s CPU      2.17s WALL (       1 calls)

     Called by electrons:
     c_bands      :   5009.55s CPU   5228.54s WALL (     369 calls)
     sum_band     :   2186.71s CPU   2338.36s WALL (     369 calls)
     v_of_rho     :    895.82s CPU   1096.94s WALL (     399 calls)
     newd         :   1789.53s CPU   1853.20s WALL (     399 calls)
     mix_rho      :     19.24s CPU     19.69s WALL (     369 calls)
     vdW_energy   :    420.73s CPU    468.64s WALL (    2091 calls)
     vdW_ffts     :   1067.78s CPU   1124.24s WALL (    4276 calls)
     vdW_v        :    425.12s CPU    441.25s WALL (    2091 calls)

     Called by c_bands:
     init_us_2    :     21.83s CPU     21.96s WALL (    4165 calls)
     cegterg      :   4634.48s CPU   4726.61s WALL (    1845 calls)

     Called by *egterg:
     h_psi        :   2872.55s CPU   2941.97s WALL (    7655 calls)
     s_psi        :    233.53s CPU    234.05s WALL (    7655 calls)
     g_psi        :     14.70s CPU     14.72s WALL (    5805 calls)
     cdiaghg      :    556.46s CPU    561.08s WALL (    7335 calls)

     Called by h_psi:
     add_vuspsi   :    239.13s CPU    239.71s WALL (    7655 calls)

     General routines
     calbec       :    401.33s CPU    412.84s WALL (    9970 calls)
     fft          :   1675.11s CPU   1823.42s WALL (  125289 calls)
     ffts         :      1.38s CPU      1.46s WALL (     768 calls)
     fftw         :   1846.29s CPU   1926.13s WALL ( 1397507 calls)
     interpolate  :     14.35s CPU     14.73s WALL (     768 calls)
     davcio       :      0.00s CPU      0.04s WALL (       5 calls)
 
     Parallel routines
     fft_scatter  :   2036.30s CPU   2251.48s WALL ( 1523564 calls)
 
     PWSCF        :     4h15m CPU        4h33m WALL

 
   This run was terminated on:   9:12:48  25Apr2018            

=------------------------------------------------------------------------------=
   JOB DONE.
=------------------------------------------------------------------------------=
Job  /afs/slac/g/suncat/bin/suncat-tsmpirun -x LD_LIBRARY_PATH -wdir /scratch/qe311966_AvGpY pw.x -npool 4 -in pw.inp

TID   HOST_NAME   COMMAND_LINE            STATUS            TERMINATION_TIME
===== ========== ================  =======================  ===================
00000 suncat0216 pw.x -npool 4 -i  Done                     04/25/2018 09:12:48
00001 suncat0216 pw.x -npool 4 -i  Done                     04/25/2018 09:12:48
00002 suncat0216 pw.x -npool 4 -i  Done                     04/25/2018 09:12:48
00003 suncat0216 pw.x -npool 4 -i  Done                     04/25/2018 09:12:48
00004 suncat0216 pw.x -npool 4 -i  Done                     04/25/2018 09:12:48
00005 suncat0216 pw.x -npool 4 -i  Done                     04/25/2018 09:12:48
00006 suncat0216 pw.x -npool 4 -i  Done                     04/25/2018 09:12:48
00007 suncat0216 pw.x -npool 4 -i  Done                     04/25/2018 09:12:48
00008 suncat0214 pw.x -npool 4 -i  Done                     04/25/2018 09:12:48
00009 suncat0214 pw.x -npool 4 -i  Done                     04/25/2018 09:12:48
00010 suncat0214 pw.x -npool 4 -i  Done                     04/25/2018 09:12:48
00011 suncat0214 pw.x -npool 4 -i  Done                     04/25/2018 09:12:48
00012 suncat0214 pw.x -npool 4 -i  Done                     04/25/2018 09:12:48
00013 suncat0214 pw.x -npool 4 -i  Done                     04/25/2018 09:12:48
00014 suncat0214 pw.x -npool 4 -i  Done                     04/25/2018 09:12:48
00015 suncat0214 pw.x -npool 4 -i  Done                     04/25/2018 09:12:48
00016 suncat0201 pw.x -npool 4 -i  Done                     04/25/2018 09:12:48
00017 suncat0201 pw.x -npool 4 -i  Done                     04/25/2018 09:12:48
00018 suncat0201 pw.x -npool 4 -i  Done                     04/25/2018 09:12:48
00019 suncat0201 pw.x -npool 4 -i  Done                     04/25/2018 09:12:48
00020 suncat0201 pw.x -npool 4 -i  Done                     04/25/2018 09:12:48
00021 suncat0201 pw.x -npool 4 -i  Done                     04/25/2018 09:12:48
00022 suncat0201 pw.x -npool 4 -i  Done                     04/25/2018 09:12:48
00023 suncat0201 pw.x -npool 4 -i  Done                     04/25/2018 09:12:48
00024 suncat0099 pw.x -npool 4 -i  Done                     04/25/2018 09:12:48
00025 suncat0099 pw.x -npool 4 -i  Done                     04/25/2018 09:12:48
00026 suncat0099 pw.x -npool 4 -i  Done                     04/25/2018 09:12:48
00027 suncat0099 pw.x -npool 4 -i  Done                     04/25/2018 09:12:48
00028 suncat0099 pw.x -npool 4 -i  Done                     04/25/2018 09:12:48
00029 suncat0099 pw.x -npool 4 -i  Done                     04/25/2018 09:12:48
00030 suncat0099 pw.x -npool 4 -i  Done                     04/25/2018 09:12:48
00031 suncat0099 pw.x -npool 4 -i  Done                     04/25/2018 09:12:48
