  python dir          : /u/if/mamunm/src/espresso
  espresso dir        : /nfs/slac/g/suncatfs/sw/espv18/espresso-dynpy-beef/bin
  pseudo dir          : /u/if/mamunm/psp/gbrv1.5pbe
  ase-espresso py git : GITVERSION



     Program PWSCF v.5.1rc2 (svn rev. 11289) starts on  2May2018 at 23: 1:13 

     This program is part of the open-source Quantum ESPRESSO suite
     for quantum simulation of materials; please cite
         "P. Giannozzi et al., J. Phys.:Condens. Matter 21 395502 (2009);
          URL http://www.quantum-espresso.org", 
     in publications or presentations arising from this work. More details at
     http://www.quantum-espresso.org/quote

     Parallel version (MPI), running on    32 processors
     K-points division:     npool     =       4
     R & G space division:  proc/nbgrp/npool/nimage =       8
     Reading input from pw.inp
     Message from routine read_cards :
     DEPRECATED: no units specified in CELL_PARAMETERS card

     Current dimensions of program PWSCF are:
     Max number of different atomic species (ntypx) = 10
     Max number of k-points (npk) =  40000
     Max angular momentum in pseudopotentials (lmaxx) =  3
     Presently stress not available with electric field


     **************************************************************************
     Initializing libbeef V0.1.1 with the BEEF-vdW functional.
     Citation: Wellendorff et al., PRB 85, 235149 (2012).
     **************************************************************************


     IMPORTANT: XC functional enforced from input :
     Exchange-correlation      = BEEF-VDW ( 1  4 27 13 2)
     Any further DFT definition will be discarded
     Please, verify this is what you really want


     Subspace diagonalization in iterative solution of the eigenvalue problem:
     a serial algorithm will be used

 
     Parallelization info
     --------------------
     sticks:   dense  smooth     PW     G-vecs:    dense   smooth      PW
     Min         354     143     40                67132    16991    2682
     Max         355     144     43                67159    17028    2691
     Sum        2839    1147    337               537229   136073   21493
 


     bravais-lattice index     =            0
     lattice parameter (alat)  =       1.8897  a.u.
     unit-cell volume          =    4515.4205 (a.u.)^3
     number of atoms/cell      =           13
     number of atomic types    =            2
     number of electrons       =       246.00
     number of Kohn-Sham states=          133
     kinetic-energy cutoff     =      36.7493  Ry
     charge density cutoff     =     367.4932  Ry
     convergence threshold     =      1.0E-05
     mixing beta               =       0.3000
     number of iterations used =           10  plain     mixing
     Exchange-correlation      = BEEF-VDW ( 1  4 27 13 2)
     nstep                     =           50


     celldm(1)=   1.889726  celldm(2)=   0.000000  celldm(3)=   0.000000
     celldm(4)=   0.000000  celldm(5)=   0.000000  celldm(6)=   0.000000

     crystal axes: (cart. coord. in units of alat)
               a(1) = (   5.606773   0.000000   0.000000 )  
               a(2) = (   2.803387   4.855608   0.000000 )  
               a(3) = (   0.000000   0.000000  24.577911 )  

     reciprocal axes: (cart. coord. in units 2 pi/alat)
               b(1) = (  0.178356 -0.102974  0.000000 )  
               b(2) = (  0.000000  0.205947  0.000000 )  
               b(3) = (  0.000000  0.000000  0.040687 )  


     PseudoPot. # 1 for Zn read from file:
     /u/if/mamunm/psp/gbrv1.5pbe/Zn.UPF
     MD5 check sum: df62231357ef9e81f77b2b3087fa5675
     Pseudo is Ultrasoft, Zval = 20.0
     Generated by new atomic code, or converted to UPF format
     Using radial grid of  943 points,  6 beta functions with: 
                l(1) =   0
                l(2) =   0
                l(3) =   1
                l(4) =   1
                l(5) =   2
                l(6) =   2
     Q(r) pseudized with  8 coefficients,  rinner =    1.100   1.100   1.100
                                                       1.100   1.100

     PseudoPot. # 2 for O  read from file:
     /u/if/mamunm/psp/gbrv1.5pbe/O.UPF
     MD5 check sum: 734c27235a0248c51dbae37a1fbe46ec
     Pseudo is Ultrasoft + core correction, Zval =  6.0
     Generated by new atomic code, or converted to UPF format
     Using radial grid of  737 points,  5 beta functions with: 
                l(1) =   0
                l(2) =   0
                l(3) =   1
                l(4) =   1
                l(5) =   2
     Q(r) pseudized with  8 coefficients,  rinner =    0.900   0.900   0.900
                                                       0.900   0.900

     vdW kernel table read from file vdW_kernel_table
     MD5 check sum: 095c7af220d748ca6e76c0b4c6cfb241

     atomic species   valence    mass     pseudopotential
        Zn1           20.00    65.38000     Zn( 1.00)
        O1             6.00    15.99900     O ( 1.00)

     No symmetry found



   Cartesian axes

     site n.     atom                  positions (alat units)
         1           Zn1 tau(   1) = (   1.4016933   0.8092680  10.0000000  )
         2           Zn1 tau(   2) = (   4.2050800   0.8092680  10.0000000  )
         3           Zn1 tau(   3) = (   2.8033867   3.2370721  10.0000000  )
         4           Zn1 tau(   4) = (   5.6067733   3.2370721  10.0000000  )
         5           Zn1 tau(   5) = (   5.6067733   1.6185360  12.2889556  )
         6           Zn1 tau(   6) = (   2.8033867   1.6185360  12.2889556  )
         7           Zn1 tau(   7) = (   7.0084667   4.0463401  12.2889556  )
         8           Zn1 tau(   8) = (   4.2050800   4.0463401  12.2889556  )
         9           Zn1 tau(   9) = (   0.0000000   0.0000000  14.5779113  )
        10           Zn1 tau(  10) = (   2.8033867   0.0000000  14.5779113  )
        11           Zn1 tau(  11) = (   1.4016933   2.4278041  14.5779113  )
        12           Zn1 tau(  12) = (   4.2050800   2.4278041  14.5779113  )
        13           O1  tau(  13) = (   1.4016933   0.8092680  15.7999113  )

     number of k points=    20  Fermi-Dirac smearing, width (Ry)=  0.0110
                       cart. coord. in units 2pi/alat
        k(    1) = (   0.0000000   0.0000000   0.0000000), wk =   0.0555556
        k(    2) = (   0.0000000   0.0343246   0.0000000), wk =   0.1111111
        k(    3) = (   0.0000000   0.0686491   0.0000000), wk =   0.1111111
        k(    4) = (   0.0000000  -0.1029737   0.0000000), wk =   0.0555556
        k(    5) = (   0.0297260  -0.0171623   0.0000000), wk =   0.1111111
        k(    6) = (   0.0297260   0.0171623   0.0000000), wk =   0.1111111
        k(    7) = (   0.0297260   0.0514869   0.0000000), wk =   0.1111111
        k(    8) = (   0.0297260  -0.1201360   0.0000000), wk =   0.1111111
        k(    9) = (   0.0297260  -0.0858114   0.0000000), wk =   0.1111111
        k(   10) = (   0.0297260  -0.0514869   0.0000000), wk =   0.1111111
        k(   11) = (   0.0594519  -0.0343246   0.0000000), wk =   0.1111111
        k(   12) = (   0.0594519   0.0000000   0.0000000), wk =   0.1111111
        k(   13) = (   0.0594519   0.0343246   0.0000000), wk =   0.1111111
        k(   14) = (   0.0594519  -0.1372983   0.0000000), wk =   0.1111111
        k(   15) = (   0.0594519  -0.1029737   0.0000000), wk =   0.1111111
        k(   16) = (   0.0594519  -0.0686491   0.0000000), wk =   0.1111111
        k(   17) = (  -0.0891779   0.0514869   0.0000000), wk =   0.0555556
        k(   18) = (  -0.0891779   0.0858114   0.0000000), wk =   0.1111111
        k(   19) = (  -0.0891779   0.1201360   0.0000000), wk =   0.1111111
        k(   20) = (  -0.0891779  -0.0514869   0.0000000), wk =   0.0555556

     Dense  grid:   537229 G-vectors     FFT dimensions: (  72,  72, 288)

     Smooth grid:   136073 G-vectors     FFT dimensions: (  45,  45, 180)

     Largest allocated arrays     est. size (Mb)     dimensions
        Kohn-Sham Wavefunctions         4.39 Mb     (    2163,  133)
        NL pseudopotentials             7.56 Mb     (    2163,  229)
        Each V/rho on FFT grid          2.85 Mb     (  186624)
        Each G-vector array             0.51 Mb     (   67157)
        G-vector shells                 0.14 Mb     (   17773)
     Largest temporary arrays     est. size (Mb)     dimensions
        Auxiliary wavefunctions        17.56 Mb     (    2163,  532)
        Each subspace H/S matrix        4.32 Mb     (     532,  532)
        Each <psi_i|beta_j> matrix      0.46 Mb     (     229,  133)
        Arrays for rho mixing          28.48 Mb     (  186624,   10)

     Initial potential from superposition of free atoms
     Check: negative starting charge=   -0.000903

     starting charge  245.99831, renormalised to  246.00000

     negative rho (up, down):  9.034E-04 0.000E+00


     ************************************************************************
     *
     * You are using vdW-DF for exchange-correlation in this calculation.
     * Please cite the following three references that made this development
     * possible:
     *
     *   M. Dion, H. Rydberg, E. Schroder, D. C. Langreth, and
     *   B. I. Lundqvist, Phys. Rev. Lett. 92, 246401 (2004).
     *
     *   T. Thonhauser, V. R. Cooper, S. Li, A. Puzder, P. Hyldgaard, and
     *   D. C. Langreth, Phys. Rev. B 76, 125112 (2007).
     *
     *   G. Roman-Perez and J. M. Soler, Phys. Rev. Lett. 103, 096102 (2009).
     *
     *
     * If you are using vdW-DF2, please also cite:
     *
     *   K. Lee, E. D. Murray, L. Kong, B. I. Lundqvist, and
     *   D. C. Langreth, Phys. Rev. B 82, 081101(R) (2010).
     *
     *
     * If you are calculating the stress with vdW-DF, please also cite:
     *
     *   R. Sabatini, E. Kucukbenli, B. Kolb, T. Thonhauser, and
     *   S. de Gironcoli, J. Phys.: Condens. Matter 24, 424209 (2012).
     *
     ************************************************************************

     Carrying out vdW-DF run using the following parameters:

     Nqs =      20    Nr_points =    1024   r_max =   100.000
     q_mesh =
               0.00001000     0.04494208     0.09755937     0.15916263
               0.23128650     0.31572767     0.41458969     0.53033537
               0.66584808     0.82450364     1.01025438     1.22772762
               1.48234092     1.78043706     2.12944203     2.53805004
               3.01644009     3.57652955     4.23227104     5.00000000

     Gradients computed in reciprocal space

     ************************************************************************


 
     Adding external electric field

     Computed dipole along edir(3) : 
        Dipole               -0.0003 Ry au,         -0.0007 Debye
        Dipole field         -0.0000 Ry au
 
        Potential amp.        0.0001 Ry
        Total length         45.2844 bohr
 
     Starting wfc are  160 randomized atomic wfcs

     total cpu time spent up to now is       11.7 secs

     per-process dynamical memory:    90.1 Mb

     Self-consistent Calculation

     iteration #  1     ecut=    36.75 Ry     beta=0.30
     Davidson diagonalization with overlap
     ethr =  1.00E-02,  avg # of iterations =  2.0

     Threshold (ethr) on eigenvalues was too large:
     Diagonalizing with lowered threshold

     Davidson diagonalization with overlap
     ethr =  7.00E-04,  avg # of iterations =  1.4

     negative rho (up, down):  8.878E-04 0.000E+00
 
     Adding external electric field

     Computed dipole along edir(3) : 
        Dipole               -2.0753 Ry au,         -5.2749 Debye
        Dipole field         -0.0058 Ry au
 
        Potential amp.        0.5231 Ry
        Total length         45.2844 bohr
 

     total cpu time spent up to now is       48.1 secs

     total energy              =   -5585.31157056 Ry
     Harris-Foulkes estimate   =   -5586.08402157 Ry
     estimated scf accuracy    <       1.71117951 Ry

     iteration #  2     ecut=    36.75 Ry     beta=0.30
     Davidson diagonalization with overlap
     ethr =  6.96E-04,  avg # of iterations =  6.8

     negative rho (up, down):  1.010E-03 0.000E+00
 
     Adding external electric field

     Computed dipole along edir(3) : 
        Dipole                0.5563 Ry au,          1.4141 Debye
        Dipole field          0.0015 Ry au
 
        Potential amp.       -0.1402 Ry
        Total length         45.2844 bohr
 

     total cpu time spent up to now is       73.1 secs

     total energy              =   -5583.48754685 Ry
     Harris-Foulkes estimate   =   -5586.89591761 Ry
     estimated scf accuracy    <      39.71089581 Ry

     iteration #  3     ecut=    36.75 Ry     beta=0.30
     Davidson diagonalization with overlap
     ethr =  6.96E-04,  avg # of iterations =  5.0

     negative rho (up, down):  1.009E-03 0.000E+00
 
     Adding external electric field

     Computed dipole along edir(3) : 
        Dipole               -0.0865 Ry au,         -0.2200 Debye
        Dipole field         -0.0002 Ry au
 
        Potential amp.        0.0218 Ry
        Total length         45.2844 bohr
 

     total cpu time spent up to now is       97.0 secs

     total energy              =   -5585.73059190 Ry
     Harris-Foulkes estimate   =   -5585.99577616 Ry
     estimated scf accuracy    <       3.80242813 Ry

     iteration #  4     ecut=    36.75 Ry     beta=0.30
     Davidson diagonalization with overlap
     ethr =  6.96E-04,  avg # of iterations =  3.4

     negative rho (up, down):  9.827E-04 0.000E+00
 
     Adding external electric field

     Computed dipole along edir(3) : 
        Dipole               -0.1718 Ry au,         -0.4368 Debye
        Dipole field         -0.0005 Ry au
 
        Potential amp.        0.0433 Ry
        Total length         45.2844 bohr
 

     total cpu time spent up to now is      118.9 secs

     total energy              =   -5585.81391794 Ry
     Harris-Foulkes estimate   =   -5585.85822450 Ry
     estimated scf accuracy    <       0.39247560 Ry

     iteration #  5     ecut=    36.75 Ry     beta=0.30
     Davidson diagonalization with overlap
     ethr =  1.60E-04,  avg # of iterations =  2.6

     negative rho (up, down):  9.810E-04 0.000E+00
 
     Adding external electric field

     Computed dipole along edir(3) : 
        Dipole               -0.2983 Ry au,         -0.7581 Debye
        Dipole field         -0.0008 Ry au
 
        Potential amp.        0.0752 Ry
        Total length         45.2844 bohr
 

     total cpu time spent up to now is      140.8 secs

     total energy              =   -5585.80865008 Ry
     Harris-Foulkes estimate   =   -5585.82403334 Ry
     estimated scf accuracy    <       0.12150298 Ry

     iteration #  6     ecut=    36.75 Ry     beta=0.30
     Davidson diagonalization with overlap
     ethr =  4.94E-05,  avg # of iterations =  3.3

     negative rho (up, down):  1.040E-03 0.000E+00
 
     Adding external electric field

     Computed dipole along edir(3) : 
        Dipole               -0.3961 Ry au,         -1.0067 Debye
        Dipole field         -0.0011 Ry au
 
        Potential amp.        0.0998 Ry
        Total length         45.2844 bohr
 

     total cpu time spent up to now is      163.2 secs

     total energy              =   -5585.81205484 Ry
     Harris-Foulkes estimate   =   -5585.81401407 Ry
     estimated scf accuracy    <       0.01197392 Ry

     iteration #  7     ecut=    36.75 Ry     beta=0.30
     Davidson diagonalization with overlap
     ethr =  4.87E-06,  avg # of iterations =  4.7

     negative rho (up, down):  1.116E-03 0.000E+00
 
     Adding external electric field

     Computed dipole along edir(3) : 
        Dipole               -0.4048 Ry au,         -1.0289 Debye
        Dipole field         -0.0011 Ry au
 
        Potential amp.        0.1020 Ry
        Total length         45.2844 bohr
 

     total cpu time spent up to now is      187.3 secs

     total energy              =   -5585.81335042 Ry
     Harris-Foulkes estimate   =   -5585.81338919 Ry
     estimated scf accuracy    <       0.00449493 Ry

     iteration #  8     ecut=    36.75 Ry     beta=0.30
     Davidson diagonalization with overlap
     ethr =  1.83E-06,  avg # of iterations =  2.0

     negative rho (up, down):  1.134E-03 0.000E+00
 
     Adding external electric field

     Computed dipole along edir(3) : 
        Dipole               -0.3852 Ry au,         -0.9791 Debye
        Dipole field         -0.0011 Ry au
 
        Potential amp.        0.0971 Ry
        Total length         45.2844 bohr
 

     total cpu time spent up to now is      208.7 secs

     total energy              =   -5585.81333316 Ry
     Harris-Foulkes estimate   =   -5585.81351873 Ry
     estimated scf accuracy    <       0.00186312 Ry

     iteration #  9     ecut=    36.75 Ry     beta=0.30
     Davidson diagonalization with overlap
     ethr =  7.57E-07,  avg # of iterations =  2.0

     negative rho (up, down):  1.149E-03 0.000E+00
 
     Adding external electric field

     Computed dipole along edir(3) : 
        Dipole               -0.3754 Ry au,         -0.9541 Debye
        Dipole field         -0.0010 Ry au
 
        Potential amp.        0.0946 Ry
        Total length         45.2844 bohr
 

     total cpu time spent up to now is      229.9 secs

     total energy              =   -5585.81330439 Ry
     Harris-Foulkes estimate   =   -5585.81339559 Ry
     estimated scf accuracy    <       0.00039701 Ry

     iteration # 10     ecut=    36.75 Ry     beta=0.30
     Davidson diagonalization with overlap
     ethr =  1.61E-07,  avg # of iterations =  2.4

     negative rho (up, down):  1.157E-03 0.000E+00
 
     Adding external electric field

     Computed dipole along edir(3) : 
        Dipole               -0.3751 Ry au,         -0.9535 Debye
        Dipole field         -0.0010 Ry au
 
        Potential amp.        0.0946 Ry
        Total length         45.2844 bohr
 

     total cpu time spent up to now is      251.7 secs

     total energy              =   -5585.81334836 Ry
     Harris-Foulkes estimate   =   -5585.81334930 Ry
     estimated scf accuracy    <       0.00001783 Ry

     iteration # 11     ecut=    36.75 Ry     beta=0.30
     Davidson diagonalization with overlap
     ethr =  7.25E-09,  avg # of iterations =  2.0

     negative rho (up, down):  1.175E-03 0.000E+00

     negative rho (up, down):  1.175E-03 0.000E+00

     negative rho (up, down):  1.175E-03 0.000E+00

     negative rho (up, down):  1.175E-03 0.000E+00

     negative rho (up, down):  1.175E-03 0.000E+00

     negative rho (up, down):  1.175E-03 0.000E+00

     negative rho (up, down):  1.175E-03 0.000E+00

     negative rho (up, down):  1.175E-03 0.000E+00

     negative rho (up, down):  1.175E-03 0.000E+00

     negative rho (up, down):  1.175E-03 0.000E+00

     negative rho (up, down):  1.175E-03 0.000E+00

     negative rho (up, down):  1.175E-03 0.000E+00

     negative rho (up, down):  1.175E-03 0.000E+00

     negative rho (up, down):  1.175E-03 0.000E+00

     negative rho (up, down):  1.175E-03 0.000E+00

     negative rho (up, down):  1.175E-03 0.000E+00

     negative rho (up, down):  1.175E-03 0.000E+00

     negative rho (up, down):  1.175E-03 0.000E+00

     negative rho (up, down):  1.175E-03 0.000E+00

     negative rho (up, down):  1.175E-03 0.000E+00

     negative rho (up, down):  1.175E-03 0.000E+00

     negative rho (up, down):  1.175E-03 0.000E+00

     negative rho (up, down):  1.175E-03 0.000E+00

     negative rho (up, down):  1.175E-03 0.000E+00

     negative rho (up, down):  1.175E-03 0.000E+00

     negative rho (up, down):  1.175E-03 0.000E+00

     negative rho (up, down):  1.175E-03 0.000E+00

     negative rho (up, down):  1.175E-03 0.000E+00

     negative rho (up, down):  1.175E-03 0.000E+00

     negative rho (up, down):  1.175E-03 0.000E+00

     negative rho (up, down):  1.175E-03 0.000E+00

     negative rho (up, down):  1.175E-03 0.000E+00

     negative rho (up, down):  1.175E-03 0.000E+00

     negative rho (up, down):  1.175E-03 0.000E+00

     negative rho (up, down):  1.175E-03 0.000E+00
 
     Adding external electric field

     Computed dipole along edir(3) : 
        Dipole               -0.3811 Ry au,         -0.9687 Debye
        Dipole field         -0.0011 Ry au
 
        Potential amp.        0.0961 Ry
        Total length         45.2844 bohr
 

     total cpu time spent up to now is      320.3 secs

     End of self-consistent calculation

          k = 0.0000 0.0000 0.0000 ( 16931 PWs)   bands (ev):

  -126.7851-126.7603-126.7594-126.7594-126.5951-126.5662-126.5653-126.5653
  -126.4613-126.3738-126.3729-126.3729 -80.9662 -80.9633 -80.9633 -80.9401
   -80.9390 -80.9390 -80.9386 -80.9376 -80.9376 -80.9333 -80.9263 -80.9263
   -80.7809 -80.7699 -80.7699 -80.7540 -80.7530 -80.7530 -80.7458 -80.7409
   -80.7409 -80.7358 -80.7331 -80.7330 -80.6391 -80.6391 -80.6389 -80.5936
   -80.5913 -80.5913 -80.5866 -80.5866 -80.5860 -80.4965 -80.4896 -80.4896
   -17.5911  -9.4555  -8.3199  -8.3166  -8.3166  -8.3053  -8.2299  -8.2299
    -8.2145  -8.1764  -8.1145  -8.1145  -8.0892  -7.9657  -7.9657  -7.9248
    -7.7756  -7.7756  -7.7342  -7.7342  -7.7334  -7.6995  -7.6939  -7.6939
    -7.6582  -7.6582  -7.6471  -7.6112  -7.6112  -7.5996  -7.5067  -7.5067
    -7.3723  -7.3723  -7.3026  -7.2970  -7.2970  -7.2815  -7.2815  -7.2635
    -7.2487  -7.2487  -7.1977  -7.1966  -7.1966  -7.1902  -7.1902  -7.1828
    -7.1335  -7.1335  -7.0668  -7.0500  -7.0485  -7.0485  -7.0166  -7.0166
    -6.9939  -6.9939  -6.9832  -6.8572  -6.8572  -6.8443  -6.8269  -3.9240
    -3.3661  -3.3661  -3.0997  -2.5617  -2.5617  -2.4046  -1.9912  -1.9912
    -1.7974  -1.0533  -0.7343  -0.7343  -0.6684   0.0864   0.0864   0.8930
     1.9815   1.9815   2.2793   2.6685   3.3698

          k = 0.0000 0.0343 0.0000 ( 16966 PWs)   bands (ev):

  -126.7851-126.7603-126.7595-126.7594-126.5951-126.5661-126.5653-126.5653
  -126.4613-126.3737-126.3729-126.3729 -80.9663 -80.9632 -80.9630 -80.9402
   -80.9391 -80.9390 -80.9381 -80.9375 -80.9373 -80.9338 -80.9271 -80.9265
   -80.7810 -80.7698 -80.7696 -80.7541 -80.7530 -80.7530 -80.7451 -80.7411
   -80.7406 -80.7363 -80.7338 -80.7333 -80.6390 -80.6390 -80.6389 -80.5933
   -80.5914 -80.5911 -80.5869 -80.5868 -80.5864 -80.4962 -80.4901 -80.4897
   -17.5894  -9.2834  -8.2916  -8.2652  -8.2600  -8.2536  -8.1993  -8.1988
    -8.1845  -8.1009  -8.0927  -8.0841  -8.0606  -7.9371  -7.9173  -7.8917
    -7.7928  -7.7415  -7.7309  -7.7247  -7.7122  -7.6927  -7.6906  -7.6883
    -7.6646  -7.6558  -7.6470  -7.6322  -7.5918  -7.5908  -7.5162  -7.4765
    -7.4297  -7.3704  -7.3593  -7.3417  -7.3294  -7.3048  -7.3019  -7.2842
    -7.2608  -7.2550  -7.2432  -7.2195  -7.2172  -7.1996  -7.1914  -7.1862
    -7.1391  -7.1390  -7.1123  -7.0793  -7.0636  -7.0586  -7.0474  -7.0416
    -7.0269  -7.0233  -7.0202  -6.9189  -6.8930  -6.8771  -6.6494  -4.5135
    -3.8871  -3.6565  -3.5155  -3.2438  -2.9230  -2.5833  -2.0574  -1.3267
    -1.1391  -0.9111  -0.7646  -0.5632   0.0296   0.5763   0.6833   1.2322
     1.8969   2.0687   2.5890   2.8905   3.7038

          k = 0.0000 0.0686 0.0000 ( 16996 PWs)   bands (ev):

  -126.7851-126.7602-126.7596-126.7594-126.5951-126.5660-126.5655-126.5653
  -126.4613-126.3736-126.3731-126.3729 -80.9663 -80.9630 -80.9624 -80.9400
   -80.9393 -80.9391 -80.9387 -80.9366 -80.9358 -80.9346 -80.9292 -80.9268
   -80.7811 -80.7696 -80.7691 -80.7539 -80.7533 -80.7530 -80.7438 -80.7410
   -80.7397 -80.7372 -80.7360 -80.7336 -80.6390 -80.6390 -80.6386 -80.5928
   -80.5912 -80.5902 -80.5882 -80.5877 -80.5866 -80.4952 -80.4913 -80.4898
   -17.5860  -8.8065  -8.2431  -8.1421  -8.1346  -8.1291  -8.1111  -8.1078
    -8.1007  -8.0760  -8.0154  -8.0089  -7.9202  -7.8773  -7.8255  -7.8178
    -7.8153  -7.7551  -7.7483  -7.7263  -7.6818  -7.6537  -7.6495  -7.6461
    -7.6389  -7.6299  -7.6156  -7.6100  -7.5874  -7.5647  -7.5311  -7.5076
    -7.4881  -7.4579  -7.4258  -7.3952  -7.3680  -7.3413  -7.3403  -7.3262
    -7.3239  -7.2881  -7.2798  -7.2766  -7.2605  -7.2452  -7.2316  -7.2051
    -7.1950  -7.1849  -7.1686  -7.1504  -7.1393  -7.1341  -7.0990  -7.0852
    -7.0765  -7.0632  -7.0534  -6.9922  -6.9801  -6.9405  -6.2641  -6.0290
    -4.5373  -4.0463  -3.8660  -3.5808  -3.1814  -2.7385  -2.4162  -1.5206
    -1.4070  -0.5248  -0.0290   0.6018   0.6398   1.1619   1.4412   2.4630
     2.6201   2.9833   3.1365   3.4855   4.3713

          k = 0.0000-0.1030 0.0000 ( 17028 PWs)   bands (ev):

  -126.7851-126.7600-126.7597-126.7594-126.5951-126.5659-126.5656-126.5653
  -126.4613-126.3735-126.3732-126.3729 -80.9664 -80.9628 -80.9621 -80.9400
   -80.9395 -80.9390 -80.9390 -80.9357 -80.9357 -80.9340 -80.9313 -80.9269
   -80.7811 -80.7695 -80.7689 -80.7539 -80.7534 -80.7530 -80.7435 -80.7394
   -80.7388 -80.7386 -80.7383 -80.7337 -80.6390 -80.6389 -80.6386 -80.5927
   -80.5899 -80.5899 -80.5893 -80.5887 -80.5866 -80.4945 -80.4922 -80.4898
   -17.5843  -8.3252  -8.2985  -8.0912  -8.0900  -8.0774  -8.0725  -7.9946
    -7.9887  -7.9788  -7.9743  -7.9657  -7.9597  -7.8312  -7.8228  -7.8115
    -7.8096  -7.7593  -7.7364  -7.7306  -7.7266  -7.6496  -7.6388  -7.6281
    -7.6203  -7.6079  -7.5890  -7.5476  -7.5355  -7.5192  -7.5072  -7.5022
    -7.4860  -7.4593  -7.4508  -7.4309  -7.4175  -7.3881  -7.3706  -7.3478
    -7.3366  -7.3098  -7.3071  -7.2996  -7.2889  -7.2781  -7.2745  -7.2649
    -7.2333  -7.2291  -7.2192  -7.1958  -7.1782  -7.1731  -7.1262  -7.0901
    -7.0848  -7.0612  -7.0610  -7.0548  -7.0142  -6.9507  -6.9115  -5.6890
    -5.3841  -4.1865  -4.0152  -3.4965  -3.2734  -2.8673  -2.4422  -1.6718
    -1.4819  -0.8499   0.5874   1.0141   1.0848   1.7941   2.5083   2.6437
     2.6625   2.9761   3.9630   3.9768   4.1869

          k = 0.0297-0.0172 0.0000 ( 16966 PWs)   bands (ev):

  -126.7851-126.7603-126.7595-126.7594-126.5951-126.5661-126.5653-126.5653
  -126.4613-126.3737-126.3729-126.3729 -80.9663 -80.9632 -80.9630 -80.9402
   -80.9391 -80.9391 -80.9381 -80.9375 -80.9373 -80.9338 -80.9271 -80.9265
   -80.7810 -80.7698 -80.7696 -80.7541 -80.7530 -80.7530 -80.7451 -80.7411
   -80.7406 -80.7363 -80.7338 -80.7333 -80.6390 -80.6390 -80.6389 -80.5933
   -80.5914 -80.5911 -80.5869 -80.5868 -80.5864 -80.4962 -80.4901 -80.4897
   -17.5894  -9.2834  -8.2916  -8.2652  -8.2600  -8.2536  -8.1993  -8.1988
    -8.1845  -8.1009  -8.0927  -8.0842  -8.0606  -7.9371  -7.9173  -7.8917
    -7.7928  -7.7415  -7.7309  -7.7247  -7.7122  -7.6927  -7.6906  -7.6883
    -7.6646  -7.6558  -7.6470  -7.6322  -7.5918  -7.5908  -7.5162  -7.4765
    -7.4297  -7.3704  -7.3593  -7.3417  -7.3294  -7.3048  -7.3019  -7.2842
    -7.2608  -7.2550  -7.2432  -7.2195  -7.2172  -7.1996  -7.1914  -7.1862
    -7.1391  -7.1390  -7.1123  -7.0793  -7.0636  -7.0586  -7.0474  -7.0416
    -7.0269  -7.0233  -7.0202  -6.9189  -6.8930  -6.8771  -6.6494  -4.5135
    -3.8871  -3.6565  -3.5155  -3.2438  -2.9230  -2.5833  -2.0574  -1.3267
    -1.1391  -0.9111  -0.7646  -0.5632   0.0296   0.5763   0.6833   1.2322
     1.8969   2.0687   2.5890   2.8905   3.7038

          k = 0.0297 0.0172 0.0000 ( 16966 PWs)   bands (ev):

  -126.7851-126.7603-126.7595-126.7594-126.5951-126.5661-126.5653-126.5653
  -126.4613-126.3737-126.3729-126.3729 -80.9663 -80.9632 -80.9630 -80.9402
   -80.9391 -80.9391 -80.9381 -80.9375 -80.9373 -80.9338 -80.9271 -80.9265
   -80.7810 -80.7698 -80.7696 -80.7541 -80.7530 -80.7530 -80.7451 -80.7411
   -80.7406 -80.7363 -80.7338 -80.7333 -80.6390 -80.6390 -80.6389 -80.5933
   -80.5914 -80.5911 -80.5869 -80.5868 -80.5864 -80.4962 -80.4901 -80.4897
   -17.5894  -9.2834  -8.2916  -8.2652  -8.2600  -8.2536  -8.1993  -8.1988
    -8.1845  -8.1009  -8.0927  -8.0842  -8.0606  -7.9371  -7.9173  -7.8917
    -7.7928  -7.7415  -7.7309  -7.7247  -7.7122  -7.6927  -7.6906  -7.6883
    -7.6646  -7.6558  -7.6470  -7.6322  -7.5918  -7.5908  -7.5162  -7.4765
    -7.4297  -7.3704  -7.3593  -7.3417  -7.3294  -7.3048  -7.3019  -7.2842
    -7.2608  -7.2550  -7.2432  -7.2195  -7.2172  -7.1996  -7.1914  -7.1862
    -7.1391  -7.1390  -7.1123  -7.0793  -7.0636  -7.0586  -7.0474  -7.0416
    -7.0269  -7.0233  -7.0202  -6.9189  -6.8930  -6.8771  -6.6494  -4.5135
    -3.8871  -3.6565  -3.5155  -3.2438  -2.9230  -2.5833  -2.0574  -1.3267
    -1.1391  -0.9111  -0.7646  -0.5632   0.0296   0.5763   0.6833   1.2322
     1.8969   2.0687   2.5890   2.8905   3.7038

          k = 0.0297 0.0515 0.0000 ( 16978 PWs)   bands (ev):

  -126.7851-126.7602-126.7596-126.7594-126.5951-126.5660-126.5654-126.5653
  -126.4613-126.3736-126.3730-126.3729 -80.9663 -80.9630 -80.9626 -80.9400
   -80.9393 -80.9391 -80.9381 -80.9375 -80.9361 -80.9344 -80.9284 -80.9268
   -80.7810 -80.7696 -80.7693 -80.7539 -80.7532 -80.7530 -80.7441 -80.7413
   -80.7399 -80.7371 -80.7350 -80.7336 -80.6390 -80.6390 -80.6387 -80.5928
   -80.5915 -80.5904 -80.5879 -80.5869 -80.5868 -80.4955 -80.4909 -80.4898
   -17.5868  -8.9554  -8.2207  -8.2153  -8.1598  -8.1581  -8.1404  -8.1351
    -8.1276  -8.0625  -8.0607  -8.0152  -7.9552  -7.8735  -7.8654  -7.8349
    -7.8203  -7.7533  -7.7273  -7.7110  -7.6894  -7.6696  -7.6661  -7.6617
    -7.6532  -7.6380  -7.6354  -7.6229  -7.5838  -7.5761  -7.5428  -7.4938
    -7.4541  -7.4413  -7.4334  -7.4123  -7.3471  -7.3387  -7.3108  -7.3056
    -7.2985  -7.2757  -7.2737  -7.2647  -7.2373  -7.2297  -7.2087  -7.1942
    -7.1744  -7.1642  -7.1459  -7.1397  -7.1262  -7.1174  -7.0942  -7.0686
    -7.0621  -7.0554  -7.0258  -7.0025  -6.9530  -6.9407  -6.3715  -5.1767
    -5.1511  -4.0040  -3.8007  -3.5219  -2.7767  -2.4790  -2.0732  -1.6659
    -1.4182  -0.5899  -0.3078   0.0609   0.4237   1.0291   1.5537   1.7879
     2.7233   2.9303   3.1542   3.2856   3.9340

          k = 0.0297-0.1201 0.0000 ( 16986 PWs)   bands (ev):

  -126.7851-126.7600-126.7597-126.7594-126.5951-126.5659-126.5656-126.5653
  -126.4613-126.3735-126.3732-126.3729 -80.9663 -80.9627 -80.9622 -80.9399
   -80.9395 -80.9391 -80.9386 -80.9366 -80.9354 -80.9341 -80.9307 -80.9271
   -80.7810 -80.7694 -80.7690 -80.7538 -80.7534 -80.7530 -80.7429 -80.7408
   -80.7389 -80.7385 -80.7368 -80.7341 -80.6390 -80.6388 -80.6386 -80.5923
   -80.5910 -80.5896 -80.5892 -80.5879 -80.5869 -80.4944 -80.4921 -80.4898
   -17.5843  -8.4224  -8.1730  -8.0836  -8.0737  -8.0644  -8.0486  -8.0442
    -8.0281  -8.0073  -7.9772  -7.9635  -7.8947  -7.8869  -7.8839  -7.8005
    -7.7773  -7.7455  -7.7228  -7.7074  -7.7021  -7.6942  -7.6571  -7.6246
    -7.6224  -7.6139  -7.6037  -7.5816  -7.5551  -7.5427  -7.5227  -7.5076
    -7.5014  -7.4687  -7.4586  -7.4310  -7.4184  -7.3913  -7.3794  -7.3463
    -7.3431  -7.3258  -7.3029  -7.2926  -7.2804  -7.2696  -7.2588  -7.2438
    -7.2391  -7.2229  -7.1999  -7.1914  -7.1701  -7.1515  -7.1217  -7.1055
    -7.0969  -7.0769  -7.0550  -7.0433  -6.9844  -6.9593  -6.4833  -5.8364
    -5.4505  -4.9208  -4.0741  -3.4587  -2.9889  -2.5149  -2.1023  -1.7054
    -1.2369  -0.1629   0.0380   0.2160   0.8197   1.7738   2.0961   2.3775
     2.8330   3.2878   3.5407   3.9291   4.3140

          k = 0.0297-0.0858 0.0000 ( 16986 PWs)   bands (ev):

  -126.7851-126.7600-126.7597-126.7594-126.5951-126.5659-126.5656-126.5653
  -126.4613-126.3735-126.3732-126.3729 -80.9663 -80.9627 -80.9622 -80.9399
   -80.9395 -80.9391 -80.9386 -80.9366 -80.9354 -80.9341 -80.9307 -80.9271
   -80.7810 -80.7694 -80.7690 -80.7538 -80.7534 -80.7530 -80.7429 -80.7408
   -80.7389 -80.7385 -80.7368 -80.7341 -80.6390 -80.6388 -80.6386 -80.5923
   -80.5910 -80.5896 -80.5892 -80.5879 -80.5869 -80.4944 -80.4921 -80.4898
   -17.5843  -8.4224  -8.1730  -8.0836  -8.0737  -8.0644  -8.0486  -8.0442
    -8.0281  -8.0073  -7.9772  -7.9635  -7.8947  -7.8869  -7.8839  -7.8005
    -7.7773  -7.7455  -7.7228  -7.7074  -7.7021  -7.6942  -7.6571  -7.6246
    -7.6224  -7.6139  -7.6037  -7.5816  -7.5551  -7.5427  -7.5227  -7.5076
    -7.5014  -7.4687  -7.4586  -7.4310  -7.4184  -7.3913  -7.3794  -7.3463
    -7.3431  -7.3258  -7.3029  -7.2926  -7.2804  -7.2696  -7.2588  -7.2438
    -7.2391  -7.2229  -7.1999  -7.1914  -7.1701  -7.1515  -7.1217  -7.1055
    -7.0969  -7.0769  -7.0550  -7.0433  -6.9844  -6.9593  -6.4833  -5.8364
    -5.4505  -4.9208  -4.0741  -3.4587  -2.9889  -2.5149  -2.1023  -1.7054
    -1.2369  -0.1629   0.0380   0.2160   0.8197   1.7738   2.0961   2.3775
     2.8330   3.2878   3.5407   3.9291   4.3140

          k = 0.0297-0.0515 0.0000 ( 16978 PWs)   bands (ev):

  -126.7851-126.7602-126.7596-126.7594-126.5951-126.5660-126.5654-126.5653
  -126.4613-126.3736-126.3730-126.3729 -80.9663 -80.9630 -80.9626 -80.9400
   -80.9393 -80.9391 -80.9381 -80.9375 -80.9361 -80.9344 -80.9284 -80.9268
   -80.7810 -80.7696 -80.7693 -80.7539 -80.7532 -80.7530 -80.7441 -80.7413
   -80.7399 -80.7371 -80.7350 -80.7336 -80.6390 -80.6390 -80.6387 -80.5928
   -80.5915 -80.5904 -80.5879 -80.5869 -80.5868 -80.4955 -80.4909 -80.4898
   -17.5868  -8.9554  -8.2207  -8.2153  -8.1598  -8.1581  -8.1404  -8.1351
    -8.1276  -8.0625  -8.0607  -8.0152  -7.9552  -7.8735  -7.8654  -7.8349
    -7.8203  -7.7533  -7.7273  -7.7110  -7.6894  -7.6696  -7.6661  -7.6617
    -7.6533  -7.6380  -7.6354  -7.6229  -7.5838  -7.5761  -7.5428  -7.4938
    -7.4541  -7.4413  -7.4334  -7.4123  -7.3471  -7.3387  -7.3108  -7.3056
    -7.2985  -7.2757  -7.2737  -7.2647  -7.2373  -7.2297  -7.2087  -7.1942
    -7.1744  -7.1642  -7.1459  -7.1397  -7.1262  -7.1174  -7.0942  -7.0686
    -7.0621  -7.0554  -7.0258  -7.0025  -6.9530  -6.9407  -6.3715  -5.1767
    -5.1511  -4.0040  -3.8007  -3.5219  -2.7767  -2.4790  -2.0732  -1.6659
    -1.4182  -0.5899  -0.3078   0.0609   0.4237   1.0291   1.5537   1.7879
     2.7233   2.9303   3.1542   3.2856   3.9340

          k = 0.0595-0.0343 0.0000 ( 16996 PWs)   bands (ev):

  -126.7851-126.7602-126.7596-126.7594-126.5951-126.5660-126.5655-126.5653
  -126.4613-126.3736-126.3731-126.3729 -80.9663 -80.9630 -80.9624 -80.9400
   -80.9393 -80.9391 -80.9387 -80.9366 -80.9358 -80.9346 -80.9292 -80.9268
   -80.7811 -80.7696 -80.7691 -80.7539 -80.7533 -80.7530 -80.7438 -80.7410
   -80.7397 -80.7372 -80.7360 -80.7336 -80.6390 -80.6390 -80.6386 -80.5928
   -80.5912 -80.5902 -80.5882 -80.5877 -80.5866 -80.4952 -80.4913 -80.4898
   -17.5860  -8.8065  -8.2431  -8.1421  -8.1346  -8.1291  -8.1111  -8.1078
    -8.1007  -8.0760  -8.0154  -8.0089  -7.9202  -7.8773  -7.8255  -7.8178
    -7.8153  -7.7551  -7.7483  -7.7263  -7.6818  -7.6537  -7.6495  -7.6461
    -7.6389  -7.6299  -7.6156  -7.6100  -7.5874  -7.5647  -7.5311  -7.5076
    -7.4881  -7.4579  -7.4258  -7.3952  -7.3680  -7.3413  -7.3403  -7.3262
    -7.3239  -7.2881  -7.2798  -7.2766  -7.2605  -7.2452  -7.2316  -7.2051
    -7.1950  -7.1849  -7.1686  -7.1504  -7.1393  -7.1341  -7.0990  -7.0852
    -7.0765  -7.0632  -7.0534  -6.9922  -6.9801  -6.9405  -6.2641  -6.0290
    -4.5373  -4.0463  -3.8660  -3.5808  -3.1814  -2.7385  -2.4162  -1.5206
    -1.4070  -0.5248  -0.0290   0.6018   0.6398   1.1619   1.4412   2.4630
     2.6201   2.9833   3.1365   3.4855   4.3713

          k = 0.0595 0.0000 0.0000 ( 16978 PWs)   bands (ev):

  -126.7851-126.7602-126.7596-126.7594-126.5951-126.5660-126.5654-126.5653
  -126.4613-126.3736-126.3730-126.3729 -80.9663 -80.9630 -80.9626 -80.9400
   -80.9393 -80.9391 -80.9381 -80.9375 -80.9361 -80.9344 -80.9284 -80.9268
   -80.7810 -80.7696 -80.7693 -80.7539 -80.7532 -80.7530 -80.7441 -80.7413
   -80.7399 -80.7371 -80.7350 -80.7336 -80.6390 -80.6390 -80.6387 -80.5928
   -80.5915 -80.5904 -80.5880 -80.5869 -80.5868 -80.4955 -80.4909 -80.4898
   -17.5868  -8.9554  -8.2207  -8.2153  -8.1598  -8.1581  -8.1404  -8.1351
    -8.1276  -8.0625  -8.0607  -8.0152  -7.9552  -7.8735  -7.8654  -7.8349
    -7.8203  -7.7533  -7.7273  -7.7110  -7.6894  -7.6696  -7.6661  -7.6617
    -7.6532  -7.6380  -7.6354  -7.6229  -7.5838  -7.5761  -7.5428  -7.4938
    -7.4541  -7.4413  -7.4334  -7.4123  -7.3471  -7.3387  -7.3108  -7.3056
    -7.2985  -7.2757  -7.2737  -7.2647  -7.2373  -7.2297  -7.2087  -7.1942
    -7.1744  -7.1642  -7.1459  -7.1397  -7.1262  -7.1174  -7.0942  -7.0686
    -7.0621  -7.0554  -7.0258  -7.0025  -6.9530  -6.9407  -6.3715  -5.1767
    -5.1511  -4.0040  -3.8007  -3.5219  -2.7767  -2.4790  -2.0732  -1.6659
    -1.4182  -0.5899  -0.3078   0.0609   0.4237   1.0291   1.5537   1.7879
     2.7233   2.9303   3.1542   3.2856   3.9340

          k = 0.0595 0.0343 0.0000 ( 16996 PWs)   bands (ev):

  -126.7851-126.7602-126.7596-126.7594-126.5951-126.5660-126.5655-126.5653
  -126.4613-126.3736-126.3731-126.3729 -80.9663 -80.9630 -80.9624 -80.9400
   -80.9393 -80.9391 -80.9387 -80.9366 -80.9358 -80.9346 -80.9292 -80.9268
   -80.7811 -80.7696 -80.7691 -80.7539 -80.7533 -80.7530 -80.7438 -80.7410
   -80.7397 -80.7372 -80.7360 -80.7336 -80.6390 -80.6390 -80.6386 -80.5928
   -80.5912 -80.5902 -80.5882 -80.5877 -80.5866 -80.4952 -80.4913 -80.4898
   -17.5860  -8.8065  -8.2431  -8.1421  -8.1346  -8.1291  -8.1111  -8.1078
    -8.1007  -8.0760  -8.0154  -8.0089  -7.9202  -7.8773  -7.8255  -7.8178
    -7.8153  -7.7551  -7.7483  -7.7263  -7.6818  -7.6537  -7.6495  -7.6461
    -7.6389  -7.6299  -7.6156  -7.6100  -7.5874  -7.5647  -7.5311  -7.5076
    -7.4881  -7.4579  -7.4258  -7.3952  -7.3680  -7.3413  -7.3403  -7.3262
    -7.3239  -7.2881  -7.2798  -7.2766  -7.2605  -7.2452  -7.2316  -7.2051
    -7.1950  -7.1849  -7.1686  -7.1504  -7.1393  -7.1341  -7.0990  -7.0852
    -7.0765  -7.0632  -7.0534  -6.9922  -6.9801  -6.9405  -6.2641  -6.0290
    -4.5373  -4.0463  -3.8660  -3.5808  -3.1814  -2.7385  -2.4162  -1.5206
    -1.4070  -0.5248  -0.0290   0.6018   0.6398   1.1619   1.4412   2.4630
     2.6201   2.9833   3.1365   3.4855   4.3713

          k = 0.0595-0.1373 0.0000 ( 16986 PWs)   bands (ev):

  -126.7851-126.7600-126.7597-126.7594-126.5951-126.5659-126.5656-126.5653
  -126.4613-126.3735-126.3732-126.3729 -80.9663 -80.9627 -80.9622 -80.9399
   -80.9395 -80.9391 -80.9386 -80.9366 -80.9354 -80.9341 -80.9307 -80.9271
   -80.7810 -80.7694 -80.7690 -80.7538 -80.7534 -80.7530 -80.7429 -80.7408
   -80.7389 -80.7385 -80.7368 -80.7341 -80.6390 -80.6388 -80.6386 -80.5923
   -80.5910 -80.5895 -80.5892 -80.5879 -80.5869 -80.4944 -80.4921 -80.4898
   -17.5843  -8.4224  -8.1730  -8.0836  -8.0737  -8.0644  -8.0486  -8.0442
    -8.0281  -8.0073  -7.9772  -7.9635  -7.8947  -7.8869  -7.8839  -7.8005
    -7.7773  -7.7455  -7.7228  -7.7074  -7.7021  -7.6942  -7.6571  -7.6246
    -7.6224  -7.6139  -7.6037  -7.5816  -7.5551  -7.5427  -7.5227  -7.5076
    -7.5014  -7.4687  -7.4586  -7.4310  -7.4184  -7.3913  -7.3794  -7.3463
    -7.3431  -7.3258  -7.3029  -7.2926  -7.2804  -7.2696  -7.2588  -7.2438
    -7.2391  -7.2229  -7.1999  -7.1914  -7.1701  -7.1515  -7.1217  -7.1055
    -7.0969  -7.0769  -7.0550  -7.0433  -6.9844  -6.9593  -6.4833  -5.8364
    -5.4505  -4.9208  -4.0741  -3.4587  -2.9889  -2.5149  -2.1023  -1.7054
    -1.2369  -0.1629   0.0380   0.2160   0.8197   1.7738   2.0961   2.3775
     2.8330   3.2878   3.5407   3.9291   4.3140

          k = 0.0595-0.1030 0.0000 ( 17004 PWs)   bands (ev):

  -126.7851-126.7599-126.7599-126.7594-126.5951-126.5657-126.5657-126.5653
  -126.4613-126.3733-126.3733-126.3729 -80.9663 -80.9624 -80.9624 -80.9396
   -80.9396 -80.9391 -80.9382 -80.9365 -80.9365 -80.9323 -80.9322 -80.9275
   -80.7810 -80.7692 -80.7692 -80.7535 -80.7535 -80.7530 -80.7413 -80.7413
   -80.7407 -80.7373 -80.7373 -80.7349 -80.6390 -80.6387 -80.6387 -80.5913
   -80.5913 -80.5908 -80.5880 -80.5880 -80.5880 -80.4934 -80.4932 -80.4899
   -17.5834  -8.1016  -8.0663  -8.0644  -8.0087  -7.9940  -7.9937  -7.9915
    -7.9836  -7.9599  -7.9537  -7.9516  -7.9471  -7.9364  -7.9268  -7.9267
    -7.8202  -7.8178  -7.6867  -7.6847  -7.6845  -7.6650  -7.6349  -7.6328
    -7.6112  -7.6070  -7.6006  -7.5556  -7.5536  -7.5407  -7.5243  -7.4885
    -7.4823  -7.4823  -7.4805  -7.4706  -7.4507  -7.4289  -7.4050  -7.3825
    -7.3678  -7.3397  -7.3341  -7.3289  -7.3200  -7.2803  -7.2742  -7.2513
    -7.2453  -7.2326  -7.2139  -7.1954  -7.1566  -7.1564  -7.1317  -7.0929
    -7.0906  -7.0812  -7.0804  -7.0196  -6.9842  -6.6136  -6.5816  -6.4954
    -5.2095  -5.1338  -4.8528  -3.3028  -3.1097  -2.5686  -1.5413  -1.4900
    -0.7494  -0.0211   0.0320   0.0768   1.2441   1.3837   1.6966   1.9795
     2.2462   2.9504   4.3969   4.4904   4.5465

          k = 0.0595-0.0686 0.0000 ( 16986 PWs)   bands (ev):

  -126.7851-126.7600-126.7597-126.7594-126.5951-126.5659-126.5656-126.5653
  -126.4613-126.3735-126.3732-126.3729 -80.9663 -80.9627 -80.9622 -80.9399
   -80.9394 -80.9391 -80.9386 -80.9366 -80.9354 -80.9341 -80.9307 -80.9271
   -80.7810 -80.7694 -80.7690 -80.7538 -80.7534 -80.7530 -80.7429 -80.7408
   -80.7389 -80.7385 -80.7368 -80.7341 -80.6390 -80.6388 -80.6386 -80.5923
   -80.5910 -80.5895 -80.5892 -80.5879 -80.5869 -80.4944 -80.4921 -80.4898
   -17.5843  -8.4224  -8.1730  -8.0836  -8.0737  -8.0644  -8.0486  -8.0442
    -8.0281  -8.0073  -7.9772  -7.9635  -7.8947  -7.8869  -7.8839  -7.8005
    -7.7773  -7.7455  -7.7228  -7.7074  -7.7021  -7.6942  -7.6571  -7.6246
    -7.6224  -7.6139  -7.6037  -7.5816  -7.5551  -7.5427  -7.5227  -7.5076
    -7.5014  -7.4687  -7.4586  -7.4310  -7.4184  -7.3913  -7.3794  -7.3463
    -7.3431  -7.3258  -7.3029  -7.2926  -7.2804  -7.2696  -7.2588  -7.2438
    -7.2391  -7.2229  -7.1999  -7.1914  -7.1701  -7.1515  -7.1217  -7.1055
    -7.0969  -7.0769  -7.0550  -7.0433  -6.9844  -6.9593  -6.4833  -5.8364
    -5.4505  -4.9208  -4.0741  -3.4587  -2.9889  -2.5149  -2.1023  -1.7054
    -1.2369  -0.1629   0.0380   0.2160   0.8197   1.7738   2.0961   2.3775
     2.8330   3.2878   3.5407   3.9291   4.3140

          k =-0.0892 0.0515 0.0000 ( 17028 PWs)   bands (ev):

  -126.7851-126.7601-126.7597-126.7594-126.5951-126.5659-126.5656-126.5653
  -126.4613-126.3735-126.3732-126.3729 -80.9664 -80.9628 -80.9621 -80.9400
   -80.9395 -80.9390 -80.9390 -80.9357 -80.9356 -80.9340 -80.9313 -80.9269
   -80.7811 -80.7695 -80.7689 -80.7539 -80.7534 -80.7530 -80.7435 -80.7394
   -80.7388 -80.7386 -80.7383 -80.7337 -80.6390 -80.6389 -80.6386 -80.5927
   -80.5899 -80.5899 -80.5893 -80.5887 -80.5866 -80.4945 -80.4922 -80.4898
   -17.5843  -8.3252  -8.2985  -8.0912  -8.0900  -8.0774  -8.0725  -7.9946
    -7.9887  -7.9788  -7.9743  -7.9657  -7.9597  -7.8312  -7.8228  -7.8115
    -7.8096  -7.7593  -7.7364  -7.7306  -7.7266  -7.6496  -7.6388  -7.6281
    -7.6203  -7.6079  -7.5890  -7.5476  -7.5355  -7.5192  -7.5072  -7.5022
    -7.4860  -7.4593  -7.4508  -7.4309  -7.4175  -7.3881  -7.3706  -7.3478
    -7.3366  -7.3098  -7.3071  -7.2996  -7.2889  -7.2781  -7.2745  -7.2649
    -7.2333  -7.2291  -7.2192  -7.1958  -7.1782  -7.1731  -7.1262  -7.0901
    -7.0848  -7.0612  -7.0610  -7.0548  -7.0142  -6.9507  -6.9115  -5.6890
    -5.3841  -4.1865  -4.0152  -3.4965  -3.2734  -2.8673  -2.4422  -1.6718
    -1.4819  -0.8499   0.5874   1.0141   1.0848   1.7941   2.5083   2.6437
     2.6625   2.9761   3.9630   3.9768   4.1869

          k =-0.0892 0.0858 0.0000 ( 16986 PWs)   bands (ev):

  -126.7851-126.7600-126.7597-126.7594-126.5951-126.5659-126.5656-126.5653
  -126.4613-126.3735-126.3732-126.3729 -80.9663 -80.9627 -80.9622 -80.9399
   -80.9394 -80.9391 -80.9386 -80.9366 -80.9354 -80.9341 -80.9307 -80.9271
   -80.7810 -80.7694 -80.7690 -80.7538 -80.7534 -80.7530 -80.7429 -80.7408
   -80.7389 -80.7385 -80.7368 -80.7341 -80.6390 -80.6388 -80.6386 -80.5923
   -80.5910 -80.5896 -80.5892 -80.5879 -80.5869 -80.4944 -80.4921 -80.4898
   -17.5843  -8.4224  -8.1730  -8.0836  -8.0737  -8.0644  -8.0486  -8.0442
    -8.0281  -8.0073  -7.9772  -7.9635  -7.8947  -7.8869  -7.8839  -7.8005
    -7.7773  -7.7455  -7.7228  -7.7074  -7.7021  -7.6942  -7.6571  -7.6246
    -7.6224  -7.6139  -7.6037  -7.5816  -7.5551  -7.5427  -7.5227  -7.5076
    -7.5014  -7.4687  -7.4586  -7.4310  -7.4184  -7.3913  -7.3794  -7.3463
    -7.3431  -7.3258  -7.3028  -7.2926  -7.2804  -7.2696  -7.2588  -7.2438
    -7.2391  -7.2229  -7.1999  -7.1914  -7.1701  -7.1515  -7.1217  -7.1055
    -7.0969  -7.0769  -7.0550  -7.0433  -6.9844  -6.9593  -6.4833  -5.8364
    -5.4505  -4.9208  -4.0741  -3.4587  -2.9889  -2.5149  -2.1023  -1.7054
    -1.2369  -0.1629   0.0380   0.2160   0.8197   1.7738   2.0961   2.3775
     2.8330   3.2878   3.5407   3.9291   4.3140

          k =-0.0892 0.1201 0.0000 ( 16986 PWs)   bands (ev):

  -126.7851-126.7600-126.7597-126.7594-126.5951-126.5659-126.5656-126.5653
  -126.4613-126.3735-126.3732-126.3729 -80.9663 -80.9627 -80.9622 -80.9399
   -80.9394 -80.9391 -80.9386 -80.9366 -80.9354 -80.9341 -80.9307 -80.9271
   -80.7810 -80.7694 -80.7690 -80.7538 -80.7534 -80.7530 -80.7429 -80.7408
   -80.7389 -80.7385 -80.7368 -80.7341 -80.6390 -80.6388 -80.6386 -80.5923
   -80.5910 -80.5896 -80.5892 -80.5879 -80.5869 -80.4944 -80.4921 -80.4898
   -17.5843  -8.4224  -8.1730  -8.0836  -8.0737  -8.0644  -8.0486  -8.0442
    -8.0281  -8.0073  -7.9772  -7.9635  -7.8947  -7.8869  -7.8839  -7.8005
    -7.7773  -7.7455  -7.7228  -7.7074  -7.7021  -7.6942  -7.6571  -7.6246
    -7.6224  -7.6139  -7.6037  -7.5816  -7.5551  -7.5427  -7.5227  -7.5076
    -7.5014  -7.4687  -7.4586  -7.4310  -7.4184  -7.3913  -7.3794  -7.3463
    -7.3431  -7.3258  -7.3028  -7.2926  -7.2804  -7.2696  -7.2588  -7.2438
    -7.2391  -7.2229  -7.1999  -7.1914  -7.1701  -7.1515  -7.1217  -7.1055
    -7.0969  -7.0769  -7.0550  -7.0433  -6.9844  -6.9593  -6.4833  -5.8364
    -5.4505  -4.9208  -4.0741  -3.4587  -2.9889  -2.5149  -2.1023  -1.7054
    -1.2369  -0.1629   0.0380   0.2160   0.8197   1.7738   2.0961   2.3775
     2.8330   3.2878   3.5407   3.9291   4.3140

          k =-0.0892-0.0515 0.0000 ( 17028 PWs)   bands (ev):

  -126.7851-126.7600-126.7597-126.7594-126.5951-126.5659-126.5656-126.5653
  -126.4613-126.3735-126.3732-126.3729 -80.9664 -80.9628 -80.9621 -80.9400
   -80.9395 -80.9390 -80.9390 -80.9357 -80.9356 -80.9340 -80.9313 -80.9269
   -80.7811 -80.7695 -80.7689 -80.7539 -80.7534 -80.7530 -80.7435 -80.7394
   -80.7388 -80.7386 -80.7383 -80.7337 -80.6390 -80.6389 -80.6386 -80.5927
   -80.5899 -80.5899 -80.5893 -80.5888 -80.5866 -80.4945 -80.4922 -80.4898
   -17.5843  -8.3252  -8.2985  -8.0912  -8.0900  -8.0774  -8.0725  -7.9946
    -7.9887  -7.9788  -7.9743  -7.9657  -7.9597  -7.8312  -7.8228  -7.8115
    -7.8096  -7.7593  -7.7364  -7.7306  -7.7266  -7.6496  -7.6388  -7.6281
    -7.6203  -7.6079  -7.5890  -7.5476  -7.5355  -7.5192  -7.5072  -7.5022
    -7.4860  -7.4593  -7.4508  -7.4309  -7.4175  -7.3881  -7.3706  -7.3478
    -7.3366  -7.3098  -7.3071  -7.2996  -7.2889  -7.2781  -7.2745  -7.2649
    -7.2333  -7.2291  -7.2192  -7.1958  -7.1782  -7.1731  -7.1262  -7.0901
    -7.0848  -7.0612  -7.0610  -7.0548  -7.0142  -6.9507  -6.9115  -5.6890
    -5.3841  -4.1865  -4.0152  -3.4965  -3.2734  -2.8673  -2.4422  -1.6718
    -1.4819  -0.8499   0.5874   1.0141   1.0848   1.7941   2.5083   2.6437
     2.6625   2.9761   3.9630   3.9768   4.1869

     the Fermi energy is     0.0101 ev

!    total energy              =   -5585.81334711 Ry
     Harris-Foulkes estimate   =   -5585.81333718 Ry
     estimated scf accuracy    <       0.00000151 Ry

     The total energy is the sum of the following terms:

     one-electron contribution =  -36284.33680314 Ry
     hartree contribution      =   18120.61821674 Ry
     xc contribution           =    -528.48619957 Ry
     ewald contribution        =   13106.42013953 Ry
     electric field correction =       0.00040422 Ry
     smearing contrib. (-TS)   =      -0.02910489 Ry

     convergence has been achieved in  11 iterations
 
 BEEF-vdW xc energy contributions
           1 :   -469.338802624159     
           2 :    425.140055868409     
           3 :   -351.092661891034     
           4 :    268.741330315458     
           5 :   -197.044723520613     
           6 :    145.308726709053     
           7 :   -112.017066218117     
           8 :    89.1843837880954     
           9 :   -68.8803604600499     
          10 :    47.8359408354738     
          11 :   -27.8689622664361     
          12 :    12.8167015657986     
          13 :   -4.75840333843638     
          14 :    2.27221275047316     
          15 :   -1.60627160335144     
          16 :  -0.555299543700755     
          17 :    4.97631843901218     
          18 :   -9.85519092577397     
          19 :    12.6561431515530     
          20 :   -12.2279397356907     
          21 :    9.62331060203331     
          22 :   -7.16556216451352     
          23 :    6.64628408299558     
          24 :   -8.09153510534787     
          25 :    9.96175065242841     
          26 :   -10.4942398126761     
          27 :    9.07050098355791     
          28 :   -6.58629022087382     
          29 :    4.64237461943105     
          30 :   -4.27424610218492     
          31 :   -36.4809628174859     
          32 :   -24.8575175120675     

     Forces acting on atoms (Ry/au):


     negative rho (up, down):  1.175E-03 0.000E+00
     atom    1 type  1   force =     0.00000059   -0.00000200   -0.00566980
     atom    2 type  1   force =    -0.00000097   -0.00050573   -0.00977183
     atom    3 type  1   force =    -0.00043500    0.00024876   -0.00977383
     atom    4 type  1   force =     0.00043346    0.00025037   -0.00978150
     atom    5 type  1   force =     0.00263510   -0.00151959    0.00021095
     atom    6 type  1   force =    -0.00263554   -0.00152209    0.00021189
     atom    7 type  1   force =    -0.00000065   -0.00000077    0.00676032
     atom    8 type  1   force =     0.00000157    0.00303952    0.00021465
     atom    9 type  1   force =    -0.00974021   -0.00562158    0.02477864
     atom   10 type  1   force =     0.00974777   -0.00563118    0.02477060
     atom   11 type  1   force =    -0.00000223    0.01126811    0.02476458
     atom   12 type  1   force =    -0.00000241   -0.00000189   -0.00119179
     atom   13 type  2   force =    -0.00000147   -0.00000191   -0.04552287

     Total force =     0.065535     Total SCF correction =     0.009419
     SCF correction compared to forces is large: reduce conv_thr to get better values


     entering subroutine stress ...


     negative rho (up, down):  1.175E-03 0.000E+00
          total   stress  (Ry/bohr**3)                   (kbar)     P=  -16.10
  -0.00015101  -0.00000000  -0.00000000        -22.21     -0.00     -0.00
  -0.00000000  -0.00015101  -0.00000000         -0.00    -22.21     -0.00
  -0.00000000  -0.00000000  -0.00002623         -0.00     -0.00     -3.86


     BFGS Geometry Optimization

     number of scf cycles    =   1
     number of bfgs steps    =   0

     energy   new            =   -5585.8133471102 Ry

     new trust radius        =       0.0455228734 bohr
     new conv_thr            =       0.0000099958 Ry


ATOMIC_POSITIONS (crystal)
Zn1      0.166666667   0.166666667   0.406869400    0   0   0
Zn1      0.666666667   0.166666667   0.406869400    0   0   0
Zn1      0.166666667   0.666666667   0.406869400    0   0   0
Zn1      0.666666667   0.666666667   0.406869400    0   0   0
Zn1      0.833333333   0.333333333   0.500000000    0   0   0
Zn1      0.333333333   0.333333333   0.500000000    0   0   0
Zn1      0.833333333   0.833333333   0.500000000    0   0   0
Zn1      0.333333333   0.833333333   0.500000000    0   0   0
Zn1     -0.000612971  -0.000612655   0.593664099
Zn1      0.501226863  -0.000613702   0.593663926
Zn1     -0.000614225   0.501228029   0.593663797
Zn1      0.499999876   0.499999794   0.593104940
O1       0.166666632   0.166666458   0.641869906



     Writing output data file calc.save
     Check: negative starting charge=   -0.000903
     NEW-OLD atomic charge density approx. for the potential
     Check: negative starting charge=   -0.000909

     negative rho (up, down):  1.206E-03 0.000E+00
 
     Adding external electric field

     Computed dipole along edir(3) : 
        Dipole               -0.3811 Ry au,         -0.9687 Debye
        Dipole field         -0.0011 Ry au
 
        Potential amp.        0.0961 Ry
        Total length         45.2844 bohr
 

     total cpu time spent up to now is      382.8 secs

     per-process dynamical memory:   114.1 Mb

     Self-consistent Calculation

     iteration #  1     ecut=    36.75 Ry     beta=0.30
     Davidson diagonalization with overlap
     ethr =  1.00E-06,  avg # of iterations =  4.0

     negative rho (up, down):  1.184E-03 0.000E+00
 
     Adding external electric field

     Computed dipole along edir(3) : 
        Dipole               -0.3262 Ry au,         -0.8290 Debye
        Dipole field         -0.0009 Ry au
 
        Potential amp.        0.0822 Ry
        Total length         45.2844 bohr
 

     total cpu time spent up to now is      415.2 secs

     total energy              =   -5585.81733959 Ry
     Harris-Foulkes estimate   =   -5585.81765188 Ry
     estimated scf accuracy    <       0.00048040 Ry

     iteration #  2     ecut=    36.75 Ry     beta=0.30
     Davidson diagonalization with overlap
     ethr =  1.95E-07,  avg # of iterations =  3.2

     negative rho (up, down):  1.178E-03 0.000E+00
 
     Adding external electric field

     Computed dipole along edir(3) : 
        Dipole               -0.3651 Ry au,         -0.9279 Debye
        Dipole field         -0.0010 Ry au
 
        Potential amp.        0.0920 Ry
        Total length         45.2844 bohr
 

     total cpu time spent up to now is      438.1 secs

     total energy              =   -5585.81710439 Ry
     Harris-Foulkes estimate   =   -5585.81770021 Ry
     estimated scf accuracy    <       0.00723795 Ry

     iteration #  3     ecut=    36.75 Ry     beta=0.30
     Davidson diagonalization with overlap
     ethr =  1.95E-07,  avg # of iterations =  3.0

     negative rho (up, down):  1.173E-03 0.000E+00
 
     Adding external electric field

     Computed dipole along edir(3) : 
        Dipole               -0.3565 Ry au,         -0.9062 Debye
        Dipole field         -0.0010 Ry au
 
        Potential amp.        0.0899 Ry
        Total length         45.2844 bohr
 

     total cpu time spent up to now is      460.4 secs

     total energy              =   -5585.81744349 Ry
     Harris-Foulkes estimate   =   -5585.81748443 Ry
     estimated scf accuracy    <       0.00014017 Ry

     iteration #  4     ecut=    36.75 Ry     beta=0.30
     Davidson diagonalization with overlap
     ethr =  5.70E-08,  avg # of iterations =  2.0

     negative rho (up, down):  1.171E-03 0.000E+00
 
     Adding external electric field

     Computed dipole along edir(3) : 
        Dipole               -0.3538 Ry au,         -0.8993 Debye
        Dipole field         -0.0010 Ry au
 
        Potential amp.        0.0892 Ry
        Total length         45.2844 bohr
 

     total cpu time spent up to now is      481.8 secs

     total energy              =   -5585.81744903 Ry
     Harris-Foulkes estimate   =   -5585.81745843 Ry
     estimated scf accuracy    <       0.00001708 Ry

     iteration #  5     ecut=    36.75 Ry     beta=0.30
     Davidson diagonalization with overlap
     ethr =  6.94E-09,  avg # of iterations =  2.4

     negative rho (up, down):  1.175E-03 0.000E+00

     negative rho (up, down):  1.175E-03 0.000E+00

     negative rho (up, down):  1.175E-03 0.000E+00

     negative rho (up, down):  1.175E-03 0.000E+00

     negative rho (up, down):  1.175E-03 0.000E+00

     negative rho (up, down):  1.175E-03 0.000E+00

     negative rho (up, down):  1.175E-03 0.000E+00

     negative rho (up, down):  1.175E-03 0.000E+00

     negative rho (up, down):  1.175E-03 0.000E+00

     negative rho (up, down):  1.175E-03 0.000E+00

     negative rho (up, down):  1.175E-03 0.000E+00

     negative rho (up, down):  1.175E-03 0.000E+00

     negative rho (up, down):  1.175E-03 0.000E+00

     negative rho (up, down):  1.175E-03 0.000E+00

     negative rho (up, down):  1.175E-03 0.000E+00

     negative rho (up, down):  1.175E-03 0.000E+00

     negative rho (up, down):  1.175E-03 0.000E+00

     negative rho (up, down):  1.175E-03 0.000E+00

     negative rho (up, down):  1.175E-03 0.000E+00

     negative rho (up, down):  1.175E-03 0.000E+00

     negative rho (up, down):  1.175E-03 0.000E+00

     negative rho (up, down):  1.175E-03 0.000E+00

     negative rho (up, down):  1.175E-03 0.000E+00

     negative rho (up, down):  1.175E-03 0.000E+00

     negative rho (up, down):  1.175E-03 0.000E+00

     negative rho (up, down):  1.175E-03 0.000E+00

     negative rho (up, down):  1.175E-03 0.000E+00

     negative rho (up, down):  1.175E-03 0.000E+00

     negative rho (up, down):  1.175E-03 0.000E+00

     negative rho (up, down):  1.175E-03 0.000E+00

     negative rho (up, down):  1.175E-03 0.000E+00

     negative rho (up, down):  1.175E-03 0.000E+00

     negative rho (up, down):  1.175E-03 0.000E+00

     negative rho (up, down):  1.175E-03 0.000E+00

     negative rho (up, down):  1.175E-03 0.000E+00
 
     Adding external electric field

     Computed dipole along edir(3) : 
        Dipole               -0.3556 Ry au,         -0.9040 Debye
        Dipole field         -0.0010 Ry au
 
        Potential amp.        0.0896 Ry
        Total length         45.2844 bohr
 

     total cpu time spent up to now is      550.1 secs

     End of self-consistent calculation

          k = 0.0000 0.0000 0.0000 ( 16931 PWs)   bands (ev):

  -126.7540-126.7293-126.7284-126.7284-126.5659-126.5383-126.5374-126.5374
  -126.4341-126.3436-126.3427-126.3427 -80.9353 -80.9322 -80.9322 -80.9091
   -80.9080 -80.9080 -80.9074 -80.9064 -80.9064 -80.9022 -80.8951 -80.8951
   -80.7516 -80.7409 -80.7409 -80.7260 -80.7251 -80.7251 -80.7178 -80.7130
   -80.7130 -80.7080 -80.7051 -80.7051 -80.6116 -80.6116 -80.6115 -80.5633
   -80.5613 -80.5613 -80.5566 -80.5566 -80.5560 -80.4669 -80.4597 -80.4597
   -17.6842  -9.4157  -8.2892  -8.2834  -8.2834  -8.2738  -8.1984  -8.1984
    -8.1810  -8.1433  -8.0833  -8.0833  -8.0584  -7.9378  -7.9378  -7.8934
    -7.7440  -7.7440  -7.7074  -7.7063  -7.7063  -7.6731  -7.6711  -7.6711
    -7.6277  -7.6277  -7.6140  -7.5815  -7.5815  -7.5651  -7.4825  -7.4825
    -7.3482  -7.3482  -7.2737  -7.2696  -7.2696  -7.2527  -7.2527  -7.2341
    -7.2209  -7.2209  -7.1682  -7.1660  -7.1660  -7.1614  -7.1614  -7.1514
    -7.1093  -7.1093  -7.0413  -7.0226  -7.0225  -7.0214  -6.9892  -6.9892
    -6.9657  -6.9657  -6.9553  -6.8296  -6.8296  -6.8076  -6.7960  -3.8967
    -3.4213  -3.4212  -3.1000  -2.5252  -2.5252  -2.3794  -1.9626  -1.9626
    -1.7733  -1.0277  -0.6979  -0.6979  -0.6437   0.1203   0.1203   0.9367
     1.9967   1.9967   2.2882   2.6922   3.4160

          k = 0.0000 0.0343 0.0000 ( 16966 PWs)   bands (ev):

  -126.7540-126.7292-126.7284-126.7284-126.5659-126.5383-126.5375-126.5374
  -126.4341-126.3436-126.3428-126.3427 -80.9354 -80.9321 -80.9319 -80.9092
   -80.9081 -80.9081 -80.9070 -80.9064 -80.9062 -80.9027 -80.8959 -80.8954
   -80.7517 -80.7408 -80.7406 -80.7262 -80.7251 -80.7251 -80.7172 -80.7132
   -80.7127 -80.7085 -80.7059 -80.7054 -80.6116 -80.6116 -80.6115 -80.5631
   -80.5613 -80.5610 -80.5569 -80.5568 -80.5564 -80.4666 -80.4602 -80.4598
   -17.6824  -9.2438  -8.2587  -8.2320  -8.2280  -8.2228  -8.1676  -8.1673
    -8.1509  -8.0694  -8.0608  -8.0526  -8.0302  -7.9092  -7.8892  -7.8614
    -7.7610  -7.7102  -7.7009  -7.6966  -7.6856  -7.6672  -7.6655  -7.6598
    -7.6392  -7.6267  -7.6161  -7.6020  -7.5614  -7.5593  -7.4886  -7.4515
    -7.4076  -7.3472  -7.3296  -7.3129  -7.3000  -7.2765  -7.2735  -7.2550
    -7.2335  -7.2270  -7.2152  -7.1907  -7.1869  -7.1693  -7.1626  -7.1561
    -7.1148  -7.1127  -7.0848  -7.0536  -7.0355  -7.0322  -7.0197  -7.0143
    -6.9989  -6.9953  -6.9927  -6.8915  -6.8658  -6.8461  -6.6132  -4.4911
    -3.8744  -3.6812  -3.4990  -3.2421  -2.9201  -2.5995  -2.0400  -1.2979
    -1.1021  -0.8766  -0.7207  -0.5446   0.0630   0.5963   0.7064   1.2628
     1.9284   2.1042   2.6449   2.9039   3.7300

          k = 0.0000 0.0686 0.0000 ( 16996 PWs)   bands (ev):

  -126.7540-126.7291-126.7285-126.7284-126.5659-126.5381-126.5376-126.5374
  -126.4341-126.3434-126.3429-126.3427 -80.9354 -80.9318 -80.9312 -80.9090
   -80.9083 -80.9081 -80.9075 -80.9055 -80.9047 -80.9035 -80.8981 -80.8957
   -80.7517 -80.7406 -80.7400 -80.7260 -80.7254 -80.7251 -80.7159 -80.7131
   -80.7119 -80.7094 -80.7081 -80.7057 -80.6116 -80.6115 -80.6112 -80.5626
   -80.5611 -80.5602 -80.5582 -80.5577 -80.5566 -80.4656 -80.4614 -80.4599
   -17.6789  -8.7680  -8.2101  -8.1087  -8.1037  -8.0969  -8.0794  -8.0765
    -8.0676  -8.0449  -7.9830  -7.9780  -7.8906  -7.8496  -7.7935  -7.7871
    -7.7854  -7.7248  -7.7177  -7.6967  -7.6556  -7.6248  -7.6234  -7.6183
    -7.6081  -7.6028  -7.5902  -7.5802  -7.5568  -7.5332  -7.5029  -7.4838
    -7.4598  -7.4300  -7.3964  -7.3695  -7.3405  -7.3176  -7.3108  -7.3008
    -7.2957  -7.2598  -7.2507  -7.2486  -7.2321  -7.2185  -7.2024  -7.1747
    -7.1666  -7.1573  -7.1448  -7.1238  -7.1127  -7.1063  -7.0729  -7.0545
    -7.0480  -7.0365  -7.0272  -6.9637  -6.9501  -6.9122  -6.2350  -5.9900
    -4.5298  -4.0501  -3.8358  -3.5638  -3.1950  -2.7387  -2.4241  -1.5033
    -1.3760  -0.4974  -0.0157   0.6401   0.6746   1.1842   1.4693   2.4866
     2.6561   3.0184   3.1822   3.5025   4.3901

          k = 0.0000-0.1030 0.0000 ( 17028 PWs)   bands (ev):

  -126.7540-126.7290-126.7287-126.7284-126.5659-126.5380-126.5377-126.5374
  -126.4341-126.3433-126.3430-126.3427 -80.9354 -80.9317 -80.9309 -80.9090
   -80.9085 -80.9080 -80.9079 -80.9046 -80.9045 -80.9029 -80.9001 -80.8957
   -80.7518 -80.7405 -80.7398 -80.7260 -80.7255 -80.7251 -80.7156 -80.7115
   -80.7109 -80.7107 -80.7105 -80.7058 -80.6116 -80.6115 -80.6112 -80.5626
   -80.5600 -80.5597 -80.5592 -80.5587 -80.5566 -80.4648 -80.4624 -80.4599
   -17.6771  -8.2925  -8.2620  -8.0627  -8.0571  -8.0445  -8.0403  -7.9630
    -7.9582  -7.9456  -7.9435  -7.9319  -7.9274  -7.7997  -7.7907  -7.7862
    -7.7801  -7.7281  -7.7052  -7.6976  -7.6946  -7.6205  -7.6129  -7.5998
    -7.5930  -7.5794  -7.5570  -7.5200  -7.5120  -7.4957  -7.4796  -7.4712
    -7.4544  -7.4318  -7.4218  -7.4028  -7.3899  -7.3611  -7.3406  -7.3187
    -7.3077  -7.2928  -7.2778  -7.2728  -7.2643  -7.2495  -7.2472  -7.2368
    -7.2096  -7.1996  -7.1903  -7.1676  -7.1521  -7.1460  -7.1009  -7.0625
    -7.0553  -7.0347  -7.0338  -7.0291  -6.9858  -6.9227  -6.8712  -5.6738
    -5.3409  -4.1859  -3.9831  -3.5170  -3.2893  -2.8439  -2.4293  -1.6794
    -1.4513  -0.8202   0.6121   1.0199   1.1114   1.8190   2.5460   2.6815
     2.6995   3.0184   3.9840   4.0011   4.1921

          k = 0.0297-0.0172 0.0000 ( 16966 PWs)   bands (ev):

  -126.7540-126.7292-126.7284-126.7284-126.5659-126.5383-126.5375-126.5374
  -126.4341-126.3436-126.3428-126.3427 -80.9354 -80.9321 -80.9319 -80.9092
   -80.9081 -80.9081 -80.9070 -80.9064 -80.9062 -80.9027 -80.8959 -80.8954
   -80.7517 -80.7408 -80.7406 -80.7262 -80.7251 -80.7251 -80.7172 -80.7132
   -80.7127 -80.7085 -80.7059 -80.7054 -80.6116 -80.6116 -80.6115 -80.5631
   -80.5613 -80.5610 -80.5569 -80.5568 -80.5564 -80.4666 -80.4602 -80.4598
   -17.6824  -9.2438  -8.2587  -8.2320  -8.2280  -8.2228  -8.1676  -8.1673
    -8.1509  -8.0694  -8.0608  -8.0526  -8.0302  -7.9092  -7.8892  -7.8614
    -7.7610  -7.7102  -7.7009  -7.6966  -7.6856  -7.6672  -7.6655  -7.6598
    -7.6392  -7.6267  -7.6161  -7.6020  -7.5614  -7.5593  -7.4886  -7.4515
    -7.4076  -7.3472  -7.3296  -7.3129  -7.3000  -7.2765  -7.2735  -7.2550
    -7.2335  -7.2270  -7.2152  -7.1907  -7.1869  -7.1693  -7.1626  -7.1561
    -7.1148  -7.1127  -7.0848  -7.0536  -7.0355  -7.0322  -7.0197  -7.0143
    -6.9989  -6.9953  -6.9927  -6.8915  -6.8658  -6.8461  -6.6132  -4.4911
    -3.8744  -3.6812  -3.4990  -3.2421  -2.9201  -2.5995  -2.0400  -1.2979
    -1.1021  -0.8766  -0.7207  -0.5446   0.0630   0.5963   0.7064   1.2628
     1.9284   2.1042   2.6449   2.9039   3.7300

          k = 0.0297 0.0172 0.0000 ( 16966 PWs)   bands (ev):

  -126.7540-126.7292-126.7284-126.7284-126.5659-126.5383-126.5375-126.5374
  -126.4341-126.3436-126.3428-126.3427 -80.9354 -80.9321 -80.9319 -80.9092
   -80.9081 -80.9081 -80.9070 -80.9064 -80.9062 -80.9027 -80.8959 -80.8954
   -80.7517 -80.7408 -80.7406 -80.7262 -80.7251 -80.7251 -80.7172 -80.7132
   -80.7127 -80.7085 -80.7059 -80.7054 -80.6116 -80.6116 -80.6115 -80.5631
   -80.5613 -80.5610 -80.5569 -80.5568 -80.5564 -80.4666 -80.4602 -80.4598
   -17.6824  -9.2438  -8.2587  -8.2320  -8.2280  -8.2228  -8.1676  -8.1673
    -8.1509  -8.0694  -8.0608  -8.0526  -8.0302  -7.9092  -7.8892  -7.8614
    -7.7610  -7.7102  -7.7009  -7.6966  -7.6856  -7.6672  -7.6655  -7.6598
    -7.6392  -7.6267  -7.6161  -7.6020  -7.5614  -7.5593  -7.4886  -7.4515
    -7.4076  -7.3472  -7.3296  -7.3129  -7.3000  -7.2765  -7.2735  -7.2550
    -7.2335  -7.2270  -7.2152  -7.1907  -7.1869  -7.1693  -7.1626  -7.1561
    -7.1148  -7.1127  -7.0848  -7.0536  -7.0355  -7.0322  -7.0197  -7.0143
    -6.9989  -6.9953  -6.9927  -6.8915  -6.8658  -6.8461  -6.6132  -4.4911
    -3.8744  -3.6812  -3.4990  -3.2421  -2.9201  -2.5995  -2.0400  -1.2979
    -1.1021  -0.8766  -0.7207  -0.5446   0.0630   0.5963   0.7064   1.2628
     1.9284   2.1042   2.6449   2.9039   3.7300

          k = 0.0297 0.0515 0.0000 ( 16978 PWs)   bands (ev):

  -126.7540-126.7291-126.7285-126.7284-126.5659-126.5382-126.5376-126.5374
  -126.4341-126.3435-126.3429-126.3427 -80.9354 -80.9319 -80.9314 -80.9090
   -80.9083 -80.9081 -80.9070 -80.9064 -80.9050 -80.9033 -80.8973 -80.8956
   -80.7517 -80.7406 -80.7402 -80.7260 -80.7253 -80.7251 -80.7162 -80.7135
   -80.7121 -80.7093 -80.7071 -80.7057 -80.6116 -80.6115 -80.6113 -80.5625
   -80.5615 -80.5604 -80.5579 -80.5569 -80.5568 -80.4659 -80.4611 -80.4599
   -17.6798  -8.9164  -8.1875  -8.1830  -8.1290  -8.1251  -8.1088  -8.1035
    -8.0940  -8.0309  -8.0301  -7.9837  -7.9251  -7.8462  -7.8370  -7.8042
    -7.7885  -7.7226  -7.6968  -7.6820  -7.6601  -7.6429  -7.6377  -7.6329
    -7.6275  -7.6113  -7.6079  -7.5950  -7.5523  -7.5450  -7.5143  -7.4720
    -7.4239  -7.4122  -7.4033  -7.3870  -7.3272  -7.3100  -7.2816  -7.2768
    -7.2694  -7.2478  -7.2454  -7.2379  -7.2086  -7.2002  -7.1797  -7.1651
    -7.1482  -7.1371  -7.1188  -7.1121  -7.1005  -7.0901  -7.0641  -7.0416
    -7.0354  -7.0286  -6.9982  -6.9735  -6.9238  -6.9125  -6.3368  -5.1492
    -5.1169  -4.0181  -3.8195  -3.4876  -2.7960  -2.4940  -2.0507  -1.6337
    -1.3884  -0.5752  -0.2863   0.0899   0.4594   1.0710   1.5850   1.8261
     2.7438   2.9516   3.1737   3.3029   3.9724

          k = 0.0297-0.1201 0.0000 ( 16986 PWs)   bands (ev):

  -126.7540-126.7290-126.7287-126.7284-126.5659-126.5380-126.5377-126.5374
  -126.4341-126.3433-126.3430-126.3427 -80.9354 -80.9315 -80.9311 -80.9089
   -80.9085 -80.9081 -80.9075 -80.9055 -80.9043 -80.9029 -80.8995 -80.8959
   -80.7517 -80.7403 -80.7399 -80.7259 -80.7255 -80.7251 -80.7150 -80.7130
   -80.7110 -80.7106 -80.7090 -80.7062 -80.6116 -80.6114 -80.6112 -80.5621
   -80.5609 -80.5595 -80.5592 -80.5579 -80.5569 -80.4647 -80.4623 -80.4599
   -17.6771  -8.3861  -8.1398  -8.0509  -8.0422  -8.0349  -8.0166  -8.0118
    -7.9955  -7.9751  -7.9457  -7.9312  -7.8628  -7.8542  -7.8511  -7.7734
    -7.7469  -7.7180  -7.6916  -7.6765  -7.6710  -7.6644  -7.6286  -7.5980
    -7.5934  -7.5865  -7.5733  -7.5563  -7.5285  -7.5151  -7.4970  -7.4819
    -7.4716  -7.4411  -7.4305  -7.4020  -7.3890  -7.3642  -7.3524  -7.3191
    -7.3157  -7.2999  -7.2755  -7.2655  -7.2514  -7.2425  -7.2321  -7.2164
    -7.2119  -7.1952  -7.1717  -7.1630  -7.1431  -7.1250  -7.0955  -7.0766
    -7.0703  -7.0488  -7.0291  -7.0151  -6.9553  -6.9270  -6.4513  -5.8086
    -5.4180  -4.8976  -4.0801  -3.4662  -3.0008  -2.5075  -2.0794  -1.7028
    -1.2288  -0.1395   0.0825   0.2540   0.8353   1.7887   2.1345   2.4113
     2.8584   3.3172   3.5789   3.9427   4.3521

          k = 0.0297-0.0858 0.0000 ( 16986 PWs)   bands (ev):

  -126.7540-126.7290-126.7287-126.7284-126.5659-126.5380-126.5377-126.5374
  -126.4341-126.3433-126.3430-126.3427 -80.9354 -80.9315 -80.9311 -80.9089
   -80.9085 -80.9081 -80.9075 -80.9055 -80.9043 -80.9029 -80.8995 -80.8959
   -80.7517 -80.7403 -80.7399 -80.7259 -80.7255 -80.7251 -80.7150 -80.7130
   -80.7110 -80.7106 -80.7090 -80.7062 -80.6116 -80.6114 -80.6112 -80.5621
   -80.5609 -80.5595 -80.5592 -80.5579 -80.5569 -80.4647 -80.4624 -80.4599
   -17.6771  -8.3861  -8.1398  -8.0509  -8.0422  -8.0349  -8.0166  -8.0118
    -7.9955  -7.9751  -7.9457  -7.9312  -7.8628  -7.8542  -7.8511  -7.7734
    -7.7469  -7.7180  -7.6916  -7.6765  -7.6710  -7.6644  -7.6286  -7.5980
    -7.5934  -7.5865  -7.5733  -7.5563  -7.5285  -7.5151  -7.4970  -7.4819
    -7.4716  -7.4411  -7.4305  -7.4020  -7.3890  -7.3642  -7.3524  -7.3191
    -7.3157  -7.2999  -7.2755  -7.2655  -7.2514  -7.2425  -7.2321  -7.2164
    -7.2119  -7.1952  -7.1717  -7.1630  -7.1431  -7.1250  -7.0955  -7.0766
    -7.0703  -7.0488  -7.0291  -7.0151  -6.9553  -6.9270  -6.4513  -5.8086
    -5.4180  -4.8976  -4.0801  -3.4662  -3.0008  -2.5075  -2.0794  -1.7028
    -1.2288  -0.1395   0.0825   0.2540   0.8353   1.7887   2.1345   2.4113
     2.8584   3.3172   3.5789   3.9427   4.3521

          k = 0.0297-0.0515 0.0000 ( 16978 PWs)   bands (ev):

  -126.7540-126.7291-126.7285-126.7284-126.5659-126.5382-126.5376-126.5374
  -126.4341-126.3435-126.3429-126.3427 -80.9354 -80.9319 -80.9314 -80.9090
   -80.9083 -80.9081 -80.9070 -80.9064 -80.9050 -80.9033 -80.8973 -80.8956
   -80.7517 -80.7406 -80.7402 -80.7260 -80.7253 -80.7251 -80.7162 -80.7135
   -80.7121 -80.7093 -80.7071 -80.7057 -80.6116 -80.6115 -80.6113 -80.5625
   -80.5615 -80.5604 -80.5579 -80.5569 -80.5568 -80.4659 -80.4611 -80.4599
   -17.6798  -8.9164  -8.1875  -8.1830  -8.1290  -8.1251  -8.1088  -8.1035
    -8.0940  -8.0309  -8.0301  -7.9837  -7.9251  -7.8462  -7.8370  -7.8042
    -7.7885  -7.7226  -7.6968  -7.6820  -7.6601  -7.6429  -7.6377  -7.6329
    -7.6275  -7.6113  -7.6079  -7.5950  -7.5523  -7.5450  -7.5143  -7.4720
    -7.4239  -7.4122  -7.4033  -7.3870  -7.3272  -7.3100  -7.2816  -7.2768
    -7.2694  -7.2478  -7.2454  -7.2379  -7.2086  -7.2002  -7.1797  -7.1651
    -7.1482  -7.1371  -7.1188  -7.1121  -7.1005  -7.0901  -7.0641  -7.0416
    -7.0354  -7.0286  -6.9982  -6.9735  -6.9238  -6.9125  -6.3368  -5.1492
    -5.1169  -4.0181  -3.8195  -3.4876  -2.7960  -2.4940  -2.0507  -1.6337
    -1.3884  -0.5752  -0.2863   0.0899   0.4594   1.0710   1.5850   1.8261
     2.7438   2.9516   3.1737   3.3029   3.9724

          k = 0.0595-0.0343 0.0000 ( 16996 PWs)   bands (ev):

  -126.7540-126.7291-126.7285-126.7284-126.5659-126.5381-126.5376-126.5374
  -126.4341-126.3434-126.3429-126.3427 -80.9354 -80.9318 -80.9312 -80.9090
   -80.9083 -80.9081 -80.9075 -80.9055 -80.9047 -80.9035 -80.8981 -80.8957
   -80.7517 -80.7406 -80.7400 -80.7260 -80.7254 -80.7251 -80.7159 -80.7131
   -80.7119 -80.7094 -80.7081 -80.7057 -80.6116 -80.6115 -80.6112 -80.5626
   -80.5611 -80.5602 -80.5582 -80.5577 -80.5566 -80.4656 -80.4614 -80.4599
   -17.6789  -8.7680  -8.2101  -8.1087  -8.1037  -8.0969  -8.0794  -8.0765
    -8.0676  -8.0449  -7.9830  -7.9780  -7.8906  -7.8496  -7.7935  -7.7871
    -7.7854  -7.7248  -7.7177  -7.6967  -7.6556  -7.6248  -7.6234  -7.6183
    -7.6081  -7.6028  -7.5902  -7.5802  -7.5568  -7.5332  -7.5029  -7.4838
    -7.4598  -7.4300  -7.3964  -7.3695  -7.3405  -7.3176  -7.3108  -7.3008
    -7.2957  -7.2598  -7.2507  -7.2486  -7.2321  -7.2185  -7.2024  -7.1747
    -7.1666  -7.1573  -7.1448  -7.1238  -7.1127  -7.1063  -7.0729  -7.0545
    -7.0480  -7.0365  -7.0272  -6.9637  -6.9501  -6.9122  -6.2350  -5.9900
    -4.5298  -4.0501  -3.8358  -3.5638  -3.1950  -2.7387  -2.4241  -1.5033
    -1.3760  -0.4974  -0.0157   0.6401   0.6746   1.1842   1.4693   2.4866
     2.6561   3.0184   3.1822   3.5025   4.3901

          k = 0.0595 0.0000 0.0000 ( 16978 PWs)   bands (ev):

  -126.7540-126.7291-126.7285-126.7284-126.5659-126.5382-126.5376-126.5374
  -126.4341-126.3435-126.3429-126.3427 -80.9354 -80.9319 -80.9314 -80.9090
   -80.9083 -80.9081 -80.9070 -80.9064 -80.9050 -80.9033 -80.8973 -80.8956
   -80.7517 -80.7406 -80.7402 -80.7260 -80.7253 -80.7251 -80.7162 -80.7135
   -80.7121 -80.7093 -80.7071 -80.7057 -80.6116 -80.6115 -80.6113 -80.5625
   -80.5615 -80.5604 -80.5579 -80.5569 -80.5568 -80.4659 -80.4611 -80.4599
   -17.6798  -8.9164  -8.1875  -8.1830  -8.1290  -8.1251  -8.1088  -8.1035
    -8.0940  -8.0309  -8.0301  -7.9837  -7.9251  -7.8462  -7.8370  -7.8042
    -7.7885  -7.7226  -7.6968  -7.6820  -7.6601  -7.6429  -7.6377  -7.6329
    -7.6275  -7.6113  -7.6079  -7.5950  -7.5523  -7.5450  -7.5143  -7.4720
    -7.4239  -7.4122  -7.4033  -7.3870  -7.3272  -7.3100  -7.2816  -7.2768
    -7.2694  -7.2478  -7.2454  -7.2379  -7.2086  -7.2002  -7.1797  -7.1651
    -7.1482  -7.1371  -7.1188  -7.1121  -7.1005  -7.0901  -7.0641  -7.0416
    -7.0354  -7.0286  -6.9982  -6.9735  -6.9238  -6.9125  -6.3368  -5.1492
    -5.1169  -4.0181  -3.8195  -3.4876  -2.7960  -2.4940  -2.0507  -1.6337
    -1.3884  -0.5752  -0.2863   0.0899   0.4594   1.0710   1.5850   1.8261
     2.7438   2.9516   3.1737   3.3029   3.9724

          k = 0.0595 0.0343 0.0000 ( 16996 PWs)   bands (ev):

  -126.7540-126.7291-126.7285-126.7284-126.5659-126.5381-126.5376-126.5374
  -126.4341-126.3434-126.3429-126.3427 -80.9354 -80.9318 -80.9312 -80.9090
   -80.9083 -80.9081 -80.9075 -80.9055 -80.9047 -80.9035 -80.8981 -80.8957
   -80.7517 -80.7406 -80.7400 -80.7260 -80.7254 -80.7251 -80.7159 -80.7131
   -80.7119 -80.7094 -80.7081 -80.7057 -80.6116 -80.6115 -80.6112 -80.5626
   -80.5611 -80.5602 -80.5582 -80.5577 -80.5566 -80.4656 -80.4614 -80.4599
   -17.6789  -8.7680  -8.2101  -8.1087  -8.1037  -8.0969  -8.0794  -8.0765
    -8.0676  -8.0449  -7.9830  -7.9780  -7.8906  -7.8496  -7.7935  -7.7871
    -7.7854  -7.7248  -7.7177  -7.6967  -7.6556  -7.6248  -7.6234  -7.6183
    -7.6081  -7.6028  -7.5902  -7.5802  -7.5568  -7.5332  -7.5029  -7.4838
    -7.4598  -7.4300  -7.3964  -7.3695  -7.3405  -7.3176  -7.3108  -7.3008
    -7.2957  -7.2598  -7.2507  -7.2486  -7.2321  -7.2185  -7.2024  -7.1747
    -7.1666  -7.1573  -7.1448  -7.1238  -7.1127  -7.1063  -7.0729  -7.0545
    -7.0480  -7.0365  -7.0272  -6.9637  -6.9501  -6.9122  -6.2350  -5.9900
    -4.5298  -4.0501  -3.8358  -3.5638  -3.1950  -2.7387  -2.4241  -1.5033
    -1.3760  -0.4974  -0.0157   0.6401   0.6746   1.1842   1.4693   2.4866
     2.6561   3.0184   3.1822   3.5025   4.3901

          k = 0.0595-0.1373 0.0000 ( 16986 PWs)   bands (ev):

  -126.7540-126.7290-126.7287-126.7284-126.5659-126.5380-126.5377-126.5374
  -126.4341-126.3433-126.3430-126.3427 -80.9354 -80.9315 -80.9311 -80.9089
   -80.9085 -80.9081 -80.9075 -80.9055 -80.9043 -80.9029 -80.8995 -80.8959
   -80.7517 -80.7403 -80.7399 -80.7259 -80.7255 -80.7251 -80.7150 -80.7130
   -80.7110 -80.7106 -80.7090 -80.7062 -80.6116 -80.6114 -80.6112 -80.5621
   -80.5609 -80.5595 -80.5592 -80.5579 -80.5569 -80.4647 -80.4623 -80.4599
   -17.6771  -8.3861  -8.1398  -8.0509  -8.0422  -8.0349  -8.0166  -8.0118
    -7.9955  -7.9751  -7.9457  -7.9312  -7.8628  -7.8542  -7.8511  -7.7734
    -7.7469  -7.7180  -7.6916  -7.6765  -7.6710  -7.6644  -7.6286  -7.5980
    -7.5934  -7.5865  -7.5733  -7.5563  -7.5285  -7.5151  -7.4970  -7.4819
    -7.4716  -7.4411  -7.4305  -7.4020  -7.3890  -7.3642  -7.3524  -7.3191
    -7.3157  -7.2999  -7.2755  -7.2655  -7.2514  -7.2425  -7.2321  -7.2164
    -7.2119  -7.1952  -7.1717  -7.1630  -7.1431  -7.1250  -7.0955  -7.0766
    -7.0703  -7.0488  -7.0291  -7.0151  -6.9553  -6.9270  -6.4513  -5.8086
    -5.4180  -4.8976  -4.0801  -3.4662  -3.0008  -2.5075  -2.0794  -1.7028
    -1.2288  -0.1395   0.0825   0.2540   0.8353   1.7887   2.1345   2.4113
     2.8584   3.3172   3.5789   3.9427   4.3521

          k = 0.0595-0.1030 0.0000 ( 17004 PWs)   bands (ev):

  -126.7540-126.7288-126.7288-126.7284-126.5659-126.5379-126.5379-126.5374
  -126.4341-126.3432-126.3431-126.3427 -80.9354 -80.9313 -80.9313 -80.9086
   -80.9086 -80.9081 -80.9071 -80.9054 -80.9054 -80.9011 -80.9011 -80.8964
   -80.7517 -80.7401 -80.7401 -80.7256 -80.7256 -80.7251 -80.7134 -80.7134
   -80.7128 -80.7094 -80.7094 -80.7069 -80.6116 -80.6113 -80.6113 -80.5612
   -80.5611 -80.5608 -80.5580 -80.5580 -80.5579 -80.4636 -80.4636 -80.4600
   -17.6763  -8.0765  -8.0318  -8.0281  -7.9767  -7.9633  -7.9611  -7.9595
    -7.9502  -7.9267  -7.9218  -7.9209  -7.9143  -7.9025  -7.8950  -7.8915
    -7.7871  -7.7856  -7.6562  -7.6544  -7.6535  -7.6469  -7.6050  -7.6024
    -7.5855  -7.5829  -7.5705  -7.5342  -7.5270  -7.5148  -7.4927  -7.4617
    -7.4553  -7.4552  -7.4523  -7.4423  -7.4222  -7.4023  -7.3803  -7.3556
    -7.3386  -7.3095  -7.3050  -7.2991  -7.2905  -7.2529  -7.2521  -7.2228
    -7.2168  -7.2041  -7.1857  -7.1648  -7.1296  -7.1283  -7.1091  -7.0640
    -7.0640  -7.0547  -7.0529  -6.9932  -6.9534  -6.5882  -6.5519  -6.4536
    -5.1990  -5.1238  -4.8033  -3.3328  -3.1334  -2.5460  -1.5355  -1.5022
    -0.7338   0.0159   0.0778   0.1151   1.2604   1.4013   1.7240   2.0144
     2.2815   2.9907   4.4233   4.5334   4.5462

          k = 0.0595-0.0686 0.0000 ( 16986 PWs)   bands (ev):

  -126.7540-126.7290-126.7287-126.7284-126.5659-126.5380-126.5377-126.5374
  -126.4341-126.3433-126.3430-126.3427 -80.9354 -80.9315 -80.9311 -80.9089
   -80.9085 -80.9081 -80.9075 -80.9055 -80.9043 -80.9029 -80.8995 -80.8959
   -80.7517 -80.7403 -80.7399 -80.7259 -80.7255 -80.7251 -80.7150 -80.7130
   -80.7110 -80.7106 -80.7090 -80.7062 -80.6116 -80.6114 -80.6112 -80.5621
   -80.5609 -80.5595 -80.5592 -80.5579 -80.5569 -80.4647 -80.4623 -80.4599
   -17.6771  -8.3861  -8.1398  -8.0509  -8.0422  -8.0349  -8.0166  -8.0118
    -7.9955  -7.9751  -7.9457  -7.9312  -7.8628  -7.8542  -7.8511  -7.7734
    -7.7469  -7.7180  -7.6916  -7.6765  -7.6710  -7.6644  -7.6286  -7.5980
    -7.5934  -7.5865  -7.5733  -7.5563  -7.5285  -7.5151  -7.4970  -7.4819
    -7.4716  -7.4411  -7.4305  -7.4020  -7.3890  -7.3642  -7.3524  -7.3191
    -7.3157  -7.2999  -7.2755  -7.2655  -7.2514  -7.2425  -7.2321  -7.2164
    -7.2119  -7.1952  -7.1717  -7.1630  -7.1431  -7.1250  -7.0955  -7.0766
    -7.0703  -7.0488  -7.0291  -7.0151  -6.9553  -6.9270  -6.4513  -5.8086
    -5.4180  -4.8976  -4.0801  -3.4662  -3.0008  -2.5075  -2.0794  -1.7028
    -1.2288  -0.1395   0.0825   0.2540   0.8353   1.7887   2.1345   2.4113
     2.8584   3.3172   3.5789   3.9427   4.3521

          k =-0.0892 0.0515 0.0000 ( 17028 PWs)   bands (ev):

  -126.7540-126.7290-126.7287-126.7284-126.5659-126.5380-126.5377-126.5374
  -126.4341-126.3433-126.3430-126.3427 -80.9354 -80.9317 -80.9309 -80.9090
   -80.9085 -80.9080 -80.9079 -80.9046 -80.9045 -80.9029 -80.9001 -80.8957
   -80.7518 -80.7405 -80.7398 -80.7260 -80.7255 -80.7251 -80.7156 -80.7115
   -80.7109 -80.7107 -80.7105 -80.7058 -80.6116 -80.6115 -80.6112 -80.5626
   -80.5600 -80.5597 -80.5592 -80.5587 -80.5566 -80.4648 -80.4624 -80.4599
   -17.6771  -8.2925  -8.2620  -8.0627  -8.0571  -8.0445  -8.0403  -7.9630
    -7.9582  -7.9456  -7.9435  -7.9319  -7.9274  -7.7997  -7.7907  -7.7862
    -7.7801  -7.7281  -7.7052  -7.6976  -7.6946  -7.6205  -7.6129  -7.5998
    -7.5930  -7.5794  -7.5570  -7.5200  -7.5120  -7.4957  -7.4796  -7.4712
    -7.4544  -7.4318  -7.4218  -7.4028  -7.3899  -7.3611  -7.3406  -7.3187
    -7.3077  -7.2928  -7.2778  -7.2728  -7.2643  -7.2495  -7.2472  -7.2368
    -7.2096  -7.1996  -7.1903  -7.1676  -7.1521  -7.1460  -7.1009  -7.0625
    -7.0553  -7.0347  -7.0338  -7.0291  -6.9858  -6.9227  -6.8712  -5.6738
    -5.3409  -4.1859  -3.9831  -3.5170  -3.2893  -2.8439  -2.4293  -1.6794
    -1.4513  -0.8202   0.6121   1.0199   1.1114   1.8190   2.5460   2.6815
     2.6995   3.0184   3.9840   4.0011   4.1921

          k =-0.0892 0.0858 0.0000 ( 16986 PWs)   bands (ev):

  -126.7540-126.7290-126.7287-126.7284-126.5659-126.5380-126.5377-126.5374
  -126.4341-126.3433-126.3430-126.3427 -80.9354 -80.9315 -80.9311 -80.9089
   -80.9085 -80.9081 -80.9075 -80.9055 -80.9043 -80.9029 -80.8995 -80.8959
   -80.7517 -80.7403 -80.7399 -80.7259 -80.7255 -80.7251 -80.7150 -80.7130
   -80.7110 -80.7106 -80.7090 -80.7062 -80.6116 -80.6114 -80.6112 -80.5621
   -80.5609 -80.5595 -80.5592 -80.5579 -80.5569 -80.4647 -80.4623 -80.4599
[...]
   -80.2440 -80.2438 -80.2295 -80.2289 -80.2211 -80.1569 -80.1404 -80.1393
   -18.0793  -8.2333  -7.8303  -7.8087  -7.7363  -7.7270  -7.7105  -7.6983
    -7.6923  -7.6851  -7.6405  -7.6147  -7.6053  -7.4735  -7.4724  -7.4473
    -7.4277  -7.4047  -7.3930  -7.3649  -7.3449  -7.3230  -7.3179  -7.3118
    -7.2726  -7.2641  -7.2365  -7.2102  -7.2069  -7.1782  -7.1776  -7.1476
    -7.1353  -7.0969  -7.0744  -7.0386  -7.0340  -7.0120  -6.9980  -6.9880
    -6.9747  -6.9599  -6.9594  -6.9366  -6.9365  -6.9197  -6.8977  -6.8927
    -6.8670  -6.8547  -6.8401  -6.8399  -6.8095  -6.7982  -6.7731  -6.7565
    -6.7495  -6.7187  -6.7097  -6.6428  -6.5834  -6.5293  -5.8799  -5.4331
    -4.3968  -3.9995  -3.5311  -3.1821  -3.0237  -2.7547  -2.4376  -1.3902
    -0.8326  -0.2357   0.0228   1.0819   1.1377   1.3740   1.6622   2.6154
     3.1185   3.1892   3.4709   3.8500   4.3981

          k = 0.0595-0.1373 0.0000 ( 16986 PWs)   bands (ev):

  -126.3771-126.3768-126.3765-126.3699-126.2560-126.2533-126.2530-126.2527
  -126.1013-126.0223-126.0202-126.0202 -80.5586 -80.5581 -80.5577 -80.5559
   -80.5556 -80.5535 -80.5528 -80.5520 -80.5482 -80.5453 -80.5447 -80.5435
   -80.4418 -80.4413 -80.4411 -80.4407 -80.4336 -80.4316 -80.4292 -80.4275
   -80.4261 -80.4242 -80.4232 -80.4199 -80.2796 -80.2751 -80.2750 -80.2495
   -80.2441 -80.2437 -80.2296 -80.2289 -80.2213 -80.1565 -80.1408 -80.1394
   -18.0765  -7.9247  -7.8119  -7.7412  -7.6702  -7.6550  -7.6524  -7.6374
    -7.6349  -7.5923  -7.5844  -7.5714  -7.5468  -7.4930  -7.4528  -7.4345
    -7.4208  -7.3943  -7.3701  -7.3499  -7.3169  -7.3159  -7.2878  -7.2747
    -7.2630  -7.2583  -7.2474  -7.2335  -7.2242  -7.2109  -7.1936  -7.1568
    -7.1477  -7.1082  -7.0990  -7.0884  -7.0730  -7.0559  -7.0462  -7.0343
    -7.0064  -6.9987  -6.9727  -6.9638  -6.9456  -6.9351  -6.9199  -6.9028
    -6.8868  -6.8774  -6.8618  -6.8546  -6.8402  -6.8162  -6.7987  -6.7739
    -6.7559  -6.7240  -6.7011  -6.6758  -6.6021  -6.5234  -6.0293  -5.4817
    -4.9915  -4.4879  -4.0319  -3.3720  -2.8586  -2.5050  -1.9082  -1.5355
    -1.2057   0.0304   0.5111   0.7199   1.0712   1.7408   2.6569   2.8667
     3.0305   3.4499   3.7327   4.0660   4.6519

          k = 0.0595-0.1030 0.0000 ( 17004 PWs)   bands (ev):

  -126.3770-126.3770-126.3765-126.3699-126.2560-126.2532-126.2532-126.2527
  -126.1013-126.0222-126.0203-126.0202 -80.5583 -80.5583 -80.5578 -80.5550
   -80.5546 -80.5545 -80.5534 -80.5502 -80.5501 -80.5451 -80.5446 -80.5446
   -80.4416 -80.4412 -80.4412 -80.4407 -80.4321 -80.4321 -80.4291 -80.4271
   -80.4271 -80.4239 -80.4239 -80.4204 -80.2796 -80.2751 -80.2750 -80.2494
   -80.2442 -80.2437 -80.2296 -80.2290 -80.2215 -80.1564 -80.1410 -80.1395
   -18.0751  -7.8674  -7.6502  -7.6374  -7.6168  -7.6167  -7.5977  -7.5895
    -7.5850  -7.5637  -7.5498  -7.5399  -7.5316  -7.5148  -7.5056  -7.4341
    -7.4130  -7.4081  -7.3698  -7.3561  -7.3305  -7.3178  -7.3066  -7.2959
    -7.2643  -7.2641  -7.2598  -7.2333  -7.2244  -7.2217  -7.2160  -7.1929
    -7.1700  -7.1632  -7.1490  -7.1030  -7.0735  -7.0598  -7.0515  -7.0210
    -7.0181  -6.9838  -6.9825  -6.9659  -6.9596  -6.9416  -6.9149  -6.9043
    -6.8983  -6.8964  -6.8627  -6.8604  -6.8574  -6.8271  -6.8246  -6.7624
    -6.7225  -6.7061  -6.6866  -6.6851  -6.5706  -6.2503  -6.1338  -5.9590
    -5.0673  -5.0104  -3.9252  -3.2913  -3.2753  -2.3384  -1.9961  -1.4370
    -0.5537   0.4491   0.5333   0.7775   1.1306   1.5329   2.0054   2.5562
     2.7904   3.3911   3.9861   4.5938   4.8163

          k = 0.0595-0.0686 0.0000 ( 16986 PWs)   bands (ev):

  -126.3771-126.3768-126.3765-126.3699-126.2560-126.2533-126.2530-126.2527
  -126.1013-126.0223-126.0202-126.0202 -80.5586 -80.5581 -80.5577 -80.5559
   -80.5556 -80.5535 -80.5528 -80.5520 -80.5482 -80.5453 -80.5447 -80.5435
   -80.4418 -80.4413 -80.4411 -80.4407 -80.4336 -80.4316 -80.4292 -80.4275
   -80.4261 -80.4242 -80.4232 -80.4199 -80.2796 -80.2751 -80.2750 -80.2495
   -80.2441 -80.2437 -80.2296 -80.2289 -80.2213 -80.1565 -80.1408 -80.1394
   -18.0765  -7.9247  -7.8119  -7.7412  -7.6702  -7.6550  -7.6524  -7.6374
    -7.6349  -7.5923  -7.5844  -7.5714  -7.5468  -7.4930  -7.4528  -7.4345
    -7.4208  -7.3943  -7.3701  -7.3499  -7.3169  -7.3159  -7.2878  -7.2747
    -7.2630  -7.2583  -7.2474  -7.2335  -7.2242  -7.2109  -7.1936  -7.1568
    -7.1477  -7.1082  -7.0990  -7.0884  -7.0730  -7.0559  -7.0462  -7.0343
    -7.0064  -6.9987  -6.9727  -6.9638  -6.9456  -6.9351  -6.9199  -6.9028
    -6.8868  -6.8774  -6.8618  -6.8546  -6.8402  -6.8162  -6.7987  -6.7739
    -6.7559  -6.7240  -6.7011  -6.6758  -6.6021  -6.5234  -6.0293  -5.4817
    -4.9915  -4.4879  -4.0319  -3.3720  -2.8586  -2.5050  -1.9082  -1.5354
    -1.2057   0.0304   0.5111   0.7198   1.0712   1.7408   2.6569   2.8667
     3.0305   3.4499   3.7327   4.0660   4.6519

          k =-0.0892 0.0515 0.0000 ( 17028 PWs)   bands (ev):

  -126.3771-126.3768-126.3765-126.3699-126.2560-126.2533-126.2530-126.2527
  -126.1013-126.0223-126.0202-126.0202 -80.5586 -80.5582 -80.5577 -80.5560
   -80.5558 -80.5535 -80.5526 -80.5515 -80.5489 -80.5458 -80.5444 -80.5433
   -80.4418 -80.4416 -80.4409 -80.4408 -80.4339 -80.4304 -80.4304 -80.4268
   -80.4264 -80.4241 -80.4238 -80.4196 -80.2797 -80.2751 -80.2750 -80.2496
   -80.2441 -80.2437 -80.2297 -80.2289 -80.2213 -80.1566 -80.1408 -80.1394
   -18.0765  -7.9028  -7.8432  -7.7807  -7.6785  -7.6685  -7.6532  -7.6483
    -7.6027  -7.5974  -7.5568  -7.5503  -7.5458  -7.5185  -7.4281  -7.4075
    -7.4016  -7.3838  -7.3426  -7.3293  -7.3213  -7.3135  -7.2907  -7.2652
    -7.2635  -7.2507  -7.2349  -7.2245  -7.2222  -7.1867  -7.1742  -7.1576
    -7.1196  -7.0988  -7.0986  -7.0924  -7.0880  -7.0695  -7.0537  -7.0316
    -7.0304  -7.0023  -6.9842  -6.9585  -6.9503  -6.9456  -6.9456  -6.9185
    -6.9169  -6.8722  -6.8555  -6.8496  -6.8464  -6.7839  -6.7733  -6.7467
    -6.7329  -6.7255  -6.6959  -6.6769  -6.6618  -6.5736  -6.4186  -5.4914
    -4.7161  -4.0897  -3.6039  -3.4134  -3.1609  -2.6059  -2.5499  -1.7802
    -0.9031  -0.4567   0.6603   1.0258   1.1958   1.9927   3.0790   3.1085
     3.3441   3.4261   3.6976   4.1479   4.2370

          k =-0.0892 0.0858 0.0000 ( 16986 PWs)   bands (ev):

  -126.3771-126.3768-126.3765-126.3699-126.2560-126.2533-126.2530-126.2527
  -126.1013-126.0223-126.0202-126.0202 -80.5586 -80.5581 -80.5577 -80.5559
   -80.5556 -80.5535 -80.5528 -80.5520 -80.5482 -80.5453 -80.5447 -80.5435
   -80.4418 -80.4413 -80.4411 -80.4407 -80.4336 -80.4316 -80.4292 -80.4275
   -80.4261 -80.4242 -80.4232 -80.4199 -80.2796 -80.2751 -80.2750 -80.2495
   -80.2441 -80.2437 -80.2296 -80.2289 -80.2213 -80.1565 -80.1408 -80.1394
   -18.0765  -7.9247  -7.8119  -7.7412  -7.6702  -7.6550  -7.6524  -7.6374
    -7.6349  -7.5923  -7.5844  -7.5714  -7.5468  -7.4930  -7.4528  -7.4345
    -7.4208  -7.3943  -7.3701  -7.3499  -7.3169  -7.3159  -7.2878  -7.2747
    -7.2630  -7.2583  -7.2474  -7.2335  -7.2242  -7.2109  -7.1936  -7.1568
    -7.1477  -7.1082  -7.0990  -7.0884  -7.0730  -7.0559  -7.0462  -7.0343
    -7.0064  -6.9987  -6.9727  -6.9638  -6.9456  -6.9351  -6.9199  -6.9028
    -6.8868  -6.8774  -6.8618  -6.8546  -6.8402  -6.8162  -6.7987  -6.7739
    -6.7559  -6.7240  -6.7011  -6.6758  -6.6021  -6.5234  -6.0293  -5.4817
    -4.9915  -4.4879  -4.0319  -3.3720  -2.8586  -2.5050  -1.9082  -1.5354
    -1.2057   0.0304   0.5111   0.7198   1.0712   1.7408   2.6569   2.8667
     3.0305   3.4499   3.7327   4.0660   4.6519

          k =-0.0892 0.1201 0.0000 ( 16986 PWs)   bands (ev):

  -126.3771-126.3768-126.3765-126.3699-126.2560-126.2533-126.2530-126.2527
  -126.1013-126.0223-126.0202-126.0202 -80.5586 -80.5581 -80.5577 -80.5559
   -80.5556 -80.5535 -80.5528 -80.5520 -80.5482 -80.5453 -80.5447 -80.5435
   -80.4418 -80.4413 -80.4411 -80.4407 -80.4336 -80.4316 -80.4292 -80.4275
   -80.4261 -80.4242 -80.4232 -80.4199 -80.2796 -80.2751 -80.2750 -80.2495
   -80.2441 -80.2437 -80.2296 -80.2289 -80.2213 -80.1565 -80.1408 -80.1394
   -18.0765  -7.9247  -7.8119  -7.7412  -7.6702  -7.6550  -7.6524  -7.6374
    -7.6349  -7.5923  -7.5844  -7.5714  -7.5468  -7.4930  -7.4528  -7.4345
    -7.4208  -7.3943  -7.3701  -7.3499  -7.3169  -7.3159  -7.2878  -7.2747
    -7.2630  -7.2583  -7.2474  -7.2335  -7.2242  -7.2109  -7.1936  -7.1568
    -7.1477  -7.1082  -7.0990  -7.0884  -7.0730  -7.0559  -7.0462  -7.0343
    -7.0064  -6.9987  -6.9727  -6.9638  -6.9456  -6.9351  -6.9199  -6.9028
    -6.8868  -6.8774  -6.8618  -6.8546  -6.8402  -6.8162  -6.7987  -6.7739
    -6.7559  -6.7240  -6.7011  -6.6758  -6.6021  -6.5234  -6.0293  -5.4817
    -4.9915  -4.4879  -4.0319  -3.3720  -2.8586  -2.5050  -1.9082  -1.5354
    -1.2057   0.0304   0.5111   0.7198   1.0712   1.7408   2.6569   2.8667
     3.0305   3.4499   3.7327   4.0660   4.6519

          k =-0.0892-0.0515 0.0000 ( 17028 PWs)   bands (ev):

  -126.3771-126.3768-126.3765-126.3699-126.2560-126.2533-126.2530-126.2527
  -126.1013-126.0223-126.0202-126.0202 -80.5586 -80.5582 -80.5577 -80.5560
   -80.5558 -80.5535 -80.5526 -80.5515 -80.5489 -80.5458 -80.5444 -80.5433
   -80.4418 -80.4416 -80.4409 -80.4408 -80.4339 -80.4304 -80.4304 -80.4268
   -80.4264 -80.4241 -80.4238 -80.4196 -80.2797 -80.2751 -80.2750 -80.2496
   -80.2441 -80.2437 -80.2297 -80.2289 -80.2213 -80.1566 -80.1408 -80.1394
   -18.0765  -7.9028  -7.8432  -7.7807  -7.6785  -7.6685  -7.6532  -7.6483
    -7.6027  -7.5974  -7.5568  -7.5503  -7.5458  -7.5185  -7.4281  -7.4075
    -7.4016  -7.3838  -7.3426  -7.3293  -7.3213  -7.3135  -7.2907  -7.2652
    -7.2634  -7.2507  -7.2348  -7.2245  -7.2222  -7.1867  -7.1742  -7.1576
    -7.1196  -7.0988  -7.0986  -7.0924  -7.0880  -7.0695  -7.0537  -7.0316
    -7.0304  -7.0023  -6.9842  -6.9585  -6.9503  -6.9456  -6.9456  -6.9185
    -6.9169  -6.8722  -6.8555  -6.8496  -6.8464  -6.7839  -6.7733  -6.7466
    -6.7329  -6.7255  -6.6959  -6.6769  -6.6618  -6.5736  -6.4186  -5.4914
    -4.7161  -4.0897  -3.6039  -3.4134  -3.1609  -2.6059  -2.5498  -1.7802
    -0.9031  -0.4567   0.6603   1.0258   1.1958   1.9927   3.0790   3.1085
     3.3441   3.4261   3.6976   4.1479   4.2370

     the Fermi energy is     0.3788 ev

!    total energy              =   -5585.84813454 Ry
     Harris-Foulkes estimate   =   -5585.84813461 Ry
     estimated scf accuracy    <       0.00000003 Ry

     The total energy is the sum of the following terms:

     one-electron contribution =  -34806.06684817 Ry
     hartree contribution      =   17384.26061993 Ry
     xc contribution           =    -528.45523769 Ry
     ewald contribution        =   12364.43557959 Ry
     electric field correction =       0.00005511 Ry
     smearing contrib. (-TS)   =      -0.02230332 Ry

     convergence has been achieved in   7 iterations
 
 BEEF-vdW xc energy contributions
           1 :   -469.301986514776     
           2 :    425.008545148786     
           3 :   -350.811223251757     
           4 :    268.330901122987     
           5 :   -196.588252108863     
           6 :    144.887476719884     
           7 :   -111.660275245326     
           8 :    88.8740267282207     
           9 :   -68.5951327857928     
          10 :    47.5855624853247     
          11 :   -27.6847797819941     
          12 :    12.7121349021118     
          13 :   -4.70334499253744     
          14 :    2.20830236854573     
          15 :   -1.49195805666523     
          16 :  -0.704535579187109     
          17 :    5.09073837710525     
          18 :   -9.86545226321277     
          19 :    12.5577418068029     
          20 :   -12.0963474575292     
          21 :    9.56059354637091     
          22 :   -7.21823495911082     
          23 :    6.76170467233908     
          24 :   -8.15168828716543     
          25 :    9.87111081241073     
          26 :   -10.2564032018692     
          27 :    8.79528083534177     
          28 :   -6.41710429438137     
          29 :    4.65685689397606     
          30 :   -4.43594182904093     
          31 :   -36.4730590486375     
          32 :   -24.8178814088349     

     Forces acting on atoms (Ry/au):


     negative rho (up, down):  1.101E-03 0.000E+00
     atom    1 type  1   force =     0.00000004    0.00000007   -0.01046546
     atom    2 type  1   force =    -0.00000005   -0.00014403   -0.01158519
     atom    3 type  1   force =    -0.00012475    0.00007192   -0.01158513
     atom    4 type  1   force =     0.00012477    0.00007200   -0.01158508
     atom    5 type  1   force =     0.00568836   -0.00328410    0.01181102
     atom    6 type  1   force =    -0.00568824   -0.00328407    0.01181130
     atom    7 type  1   force =    -0.00000005   -0.00000004    0.00853980
     atom    8 type  1   force =     0.00000006    0.00656849    0.01181074
     atom    9 type  1   force =    -0.00101903   -0.00058819   -0.00071674
     atom   10 type  1   force =     0.00101916   -0.00058859   -0.00071678
     atom   11 type  1   force =    -0.00000025    0.00117684   -0.00071668
     atom   12 type  1   force =    -0.00000043   -0.00000073    0.00161674
     atom   13 type  2   force =     0.00000041    0.00000043    0.00178145

     Total force =     0.003389     Total SCF correction =     0.000576
     SCF correction compared to forces is large: reduce conv_thr to get better values


     entering subroutine stress ...


     negative rho (up, down):  1.101E-03 0.000E+00
          total   stress  (Ry/bohr**3)                   (kbar)     P=  -14.58
  -0.00014420   0.00000000   0.00000000        -21.21      0.00      0.00
   0.00000000  -0.00014420   0.00000000          0.00    -21.21      0.00
   0.00000000   0.00000000  -0.00000901          0.00      0.00     -1.32


     bfgs converged in  20 scf cycles and  18 bfgs steps
     (criteria: energy <  1.0E+00, force <  1.9E-03)

     End of BFGS Geometry Optimization

     Final energy   =   -5585.8481345439 Ry
Begin final coordinates

ATOMIC_POSITIONS (crystal)
Zn1      0.166666667   0.166666667   0.406869400    0   0   0
Zn1      0.666666667   0.166666667   0.406869400    0   0   0
Zn1      0.166666667   0.666666667   0.406869400    0   0   0
Zn1      0.666666667   0.666666667   0.406869400    0   0   0
Zn1      0.833333333   0.333333333   0.500000000    0   0   0
Zn1      0.333333333   0.333333333   0.500000000    0   0   0
Zn1      0.833333333   0.833333333   0.500000000    0   0   0
Zn1      0.333333333   0.833333333   0.500000000    0   0   0
Zn1     -0.015758121  -0.015755700   0.612207818
Zn1      0.531512635  -0.015755160   0.612207232
Zn1     -0.015756030   0.531514042   0.612206871
Zn1      0.499999629   0.500002404   0.591933961
O1       0.166665823   0.166667764   0.642698888
End final coordinates



     Writing output data file calc.save
 
     init_run     :     10.90s CPU     11.29s WALL (       1 calls)
     electrons    :   4690.13s CPU   4955.29s WALL (      20 calls)
     update_pot   :     49.19s CPU     52.77s WALL (      19 calls)
     forces       :    281.67s CPU    295.65s WALL (      20 calls)
     stress       :    890.66s CPU    948.16s WALL (      20 calls)

     Called by init_run:
     wfcinit      :      4.92s CPU      5.02s WALL (       1 calls)
     potinit      :      1.74s CPU      1.86s WALL (       1 calls)

     Called by electrons:
     c_bands      :   2014.23s CPU   2092.29s WALL (     160 calls)
     sum_band     :    865.19s CPU    918.81s WALL (     160 calls)
     v_of_rho     :    258.29s CPU    282.01s WALL (     170 calls)
     newd         :    673.01s CPU    683.65s WALL (     170 calls)
     mix_rho      :      8.08s CPU      8.46s WALL (     160 calls)
     vdW_energy   :    177.30s CPU    198.00s WALL (     890 calls)
     vdW_ffts     :    462.56s CPU    488.32s WALL (    1820 calls)
     vdW_v        :    180.56s CPU    189.35s WALL (     890 calls)

     Called by c_bands:
     init_us_2    :      8.48s CPU      8.57s WALL (    1805 calls)
     cegterg      :   1891.37s CPU   1930.30s WALL (     800 calls)

     Called by *egterg:
     h_psi        :   1180.89s CPU   1209.71s WALL (    3080 calls)
     s_psi        :     96.60s CPU     96.94s WALL (    3080 calls)
     g_psi        :      6.16s CPU      6.17s WALL (    2275 calls)
     cdiaghg      :    212.04s CPU    213.77s WALL (    2930 calls)

     Called by h_psi:
     add_vuspsi   :     98.68s CPU     98.90s WALL (    3080 calls)

     General routines
     calbec       :    162.85s CPU    166.36s WALL (    4080 calls)
     fft          :    712.72s CPU    769.98s WALL (   53339 calls)
     ffts         :      0.58s CPU      0.62s WALL (     330 calls)
     fftw         :    765.47s CPU    797.81s WALL (  596940 calls)
     interpolate  :      6.20s CPU      6.34s WALL (     330 calls)
     davcio       :      0.00s CPU      0.03s WALL (       5 calls)
 
     Parallel routines
     fft_scatter  :    843.98s CPU    928.08s WALL (  650609 calls)
 
     PWSCF        :     1h40m CPU        1h45m WALL

 
   This run was terminated on:   0:47: 2   3May2018            

=------------------------------------------------------------------------------=
   JOB DONE.
=------------------------------------------------------------------------------=
Job  /afs/slac/g/suncat/bin/suncat-tsmpirun -x LD_LIBRARY_PATH -wdir /scratch/qe518524_BA5ut pw.x -npool 4 -in pw.inp

TID   HOST_NAME   COMMAND_LINE            STATUS            TERMINATION_TIME
===== ========== ================  =======================  ===================
00000 suncat0160 pw.x -npool 4 -i  Done                     05/03/2018 00:47:02
00001 suncat0160 pw.x -npool 4 -i  Done                     05/03/2018 00:47:02
00002 suncat0160 pw.x -npool 4 -i  Done                     05/03/2018 00:47:02
00003 suncat0160 pw.x -npool 4 -i  Done                     05/03/2018 00:47:02
00004 suncat0160 pw.x -npool 4 -i  Done                     05/03/2018 00:47:02
00005 suncat0160 pw.x -npool 4 -i  Done                     05/03/2018 00:47:02
00006 suncat0160 pw.x -npool 4 -i  Done                     05/03/2018 00:47:02
00007 suncat0160 pw.x -npool 4 -i  Done                     05/03/2018 00:47:02
00008 suncat0125 pw.x -npool 4 -i  Done                     05/03/2018 00:47:02
00009 suncat0125 pw.x -npool 4 -i  Done                     05/03/2018 00:47:02
00010 suncat0125 pw.x -npool 4 -i  Done                     05/03/2018 00:47:02
00011 suncat0125 pw.x -npool 4 -i  Done                     05/03/2018 00:47:02
00012 suncat0125 pw.x -npool 4 -i  Done                     05/03/2018 00:47:02
00013 suncat0125 pw.x -npool 4 -i  Done                     05/03/2018 00:47:02
00014 suncat0125 pw.x -npool 4 -i  Done                     05/03/2018 00:47:02
00015 suncat0125 pw.x -npool 4 -i  Done                     05/03/2018 00:47:02
00016 suncat0231 pw.x -npool 4 -i  Done                     05/03/2018 00:47:02
00017 suncat0231 pw.x -npool 4 -i  Done                     05/03/2018 00:47:02
00018 suncat0231 pw.x -npool 4 -i  Done                     05/03/2018 00:47:02
00019 suncat0231 pw.x -npool 4 -i  Done                     05/03/2018 00:47:02
00020 suncat0231 pw.x -npool 4 -i  Done                     05/03/2018 00:47:02
00021 suncat0231 pw.x -npool 4 -i  Done                     05/03/2018 00:47:02
00022 suncat0231 pw.x -npool 4 -i  Done                     05/03/2018 00:47:02
00023 suncat0231 pw.x -npool 4 -i  Done                     05/03/2018 00:47:02
00024 suncat0230 pw.x -npool 4 -i  Done                     05/03/2018 00:47:02
00025 suncat0230 pw.x -npool 4 -i  Done                     05/03/2018 00:47:02
00026 suncat0230 pw.x -npool 4 -i  Done                     05/03/2018 00:47:02
00027 suncat0230 pw.x -npool 4 -i  Done                     05/03/2018 00:47:02
00028 suncat0230 pw.x -npool 4 -i  Done                     05/03/2018 00:47:02
00029 suncat0230 pw.x -npool 4 -i  Done                     05/03/2018 00:47:02
00030 suncat0230 pw.x -npool 4 -i  Done                     05/03/2018 00:47:02
00031 suncat0230 pw.x -npool 4 -i  Done                     05/03/2018 00:47:02
