  python dir          : /u/if/mamunm/src/espresso
  espresso dir        : /nfs/slac/g/suncatfs/sw/espv18/espresso-dynpy-beef/bin
  pseudo dir          : /u/if/mamunm/psp/gbrv1.5pbe
  ase-espresso py git : GITVERSION



     Program PWSCF v.5.1rc2 (svn rev. 11289) starts on  3May2018 at  9:27:55 

     This program is part of the open-source Quantum ESPRESSO suite
     for quantum simulation of materials; please cite
         "P. Giannozzi et al., J. Phys.:Condens. Matter 21 395502 (2009);
          URL http://www.quantum-espresso.org", 
     in publications or presentations arising from this work. More details at
     http://www.quantum-espresso.org/quote

     Parallel version (MPI), running on    32 processors
     K-points division:     npool     =       4
     R & G space division:  proc/nbgrp/npool/nimage =       8
     Reading input from pw.inp
     Message from routine read_cards :
     DEPRECATED: no units specified in CELL_PARAMETERS card

     Current dimensions of program PWSCF are:
     Max number of different atomic species (ntypx) = 10
     Max number of k-points (npk) =  40000
     Max angular momentum in pseudopotentials (lmaxx) =  3
     Presently stress not available with electric field


     **************************************************************************
     Initializing libbeef V0.1.1 with the BEEF-vdW functional.
     Citation: Wellendorff et al., PRB 85, 235149 (2012).
     **************************************************************************


     IMPORTANT: XC functional enforced from input :
     Exchange-correlation      = BEEF-VDW ( 1  4 27 13 2)
     Any further DFT definition will be discarded
     Please, verify this is what you really want


     Subspace diagonalization in iterative solution of the eigenvalue problem:
     a serial algorithm will be used

 
     Parallelization info
     --------------------
     sticks:   dense  smooth     PW     G-vecs:    dense   smooth      PW
     Min         402     160     46                77078    19492    3044
     Max         403     161     50                77101    19531    3047
     Sum        3217    1285    379               616691   156085   24367
 


     bravais-lattice index     =            0
     lattice parameter (alat)  =       1.8897  a.u.
     unit-cell volume          =    5182.3421 (a.u.)^3
     number of atoms/cell      =           13
     number of atomic types    =            2
     number of electrons       =       162.00
     number of Kohn-Sham states=           91
     kinetic-energy cutoff     =      36.7493  Ry
     charge density cutoff     =     367.4932  Ry
     convergence threshold     =      1.0E-05
     mixing beta               =       0.3000
     number of iterations used =           10  plain     mixing
     Exchange-correlation      = BEEF-VDW ( 1  4 27 13 2)
     nstep                     =           50


     celldm(1)=   1.889726  celldm(2)=   0.000000  celldm(3)=   0.000000
     celldm(4)=   0.000000  celldm(5)=   0.000000  celldm(6)=   0.000000

     crystal axes: (cart. coord. in units of alat)
               a(1) = (   5.970602   0.000000   0.000000 )  
               a(2) = (   2.985301   5.170693   0.000000 )  
               a(3) = (   0.000000   0.000000  24.874976 )  

     reciprocal axes: (cart. coord. in units 2 pi/alat)
               b(1) = (  0.167487 -0.096699  0.000000 )  
               b(2) = (  0.000000  0.193398  0.000000 )  
               b(3) = (  0.000000  0.000000  0.040201 )  


     PseudoPot. # 1 for Nb read from file:
     /u/if/mamunm/psp/gbrv1.5pbe/Nb.UPF
     MD5 check sum: 573aab8a2fa660278ed4a62cd769473f
     Pseudo is Ultrasoft + core correction, Zval = 13.0
     Generated by new atomic code, or converted to UPF format
     Using radial grid of  887 points,  6 beta functions with: 
                l(1) =   0
                l(2) =   0
                l(3) =   1
                l(4) =   1
                l(5) =   2
                l(6) =   2
     Q(r) pseudized with  6 coefficients,  rinner =    1.000   1.000   1.000
                                                       1.000   1.000

     PseudoPot. # 2 for O  read from file:
     /u/if/mamunm/psp/gbrv1.5pbe/O.UPF
     MD5 check sum: 734c27235a0248c51dbae37a1fbe46ec
     Pseudo is Ultrasoft + core correction, Zval =  6.0
     Generated by new atomic code, or converted to UPF format
     Using radial grid of  737 points,  5 beta functions with: 
                l(1) =   0
                l(2) =   0
                l(3) =   1
                l(4) =   1
                l(5) =   2
     Q(r) pseudized with  8 coefficients,  rinner =    0.900   0.900   0.900
                                                       0.900   0.900

     vdW kernel table read from file vdW_kernel_table
     MD5 check sum: 095c7af220d748ca6e76c0b4c6cfb241

     atomic species   valence    mass     pseudopotential
        Nb1           13.00    92.90637     Nb( 1.00)
        O1             6.00    15.99900     O ( 1.00)

     No symmetry found



   Cartesian axes

     site n.     atom                  positions (alat units)
         1           Nb1 tau(   1) = (   1.4926504   0.8617821  10.0000000  )
         2           Nb1 tau(   2) = (   4.4779512   0.8617821  10.0000000  )
         3           Nb1 tau(   3) = (   2.9853008   3.4471284  10.0000000  )
         4           Nb1 tau(   4) = (   5.9706016   3.4471284  10.0000000  )
         5           Nb1 tau(   5) = (   5.9706016   1.7235642  12.4374879  )
         6           Nb1 tau(   6) = (   2.9853008   1.7235642  12.4374879  )
         7           Nb1 tau(   7) = (   7.4632520   4.3089105  12.4374879  )
         8           Nb1 tau(   8) = (   4.4779512   4.3089105  12.4374879  )
         9           Nb1 tau(   9) = (   0.0000000   0.0000000  14.8749758  )
        10           Nb1 tau(  10) = (   2.9853008   0.0000000  14.8749758  )
        11           Nb1 tau(  11) = (   1.4926504   2.5853463  14.8749758  )
        12           Nb1 tau(  12) = (   4.4779512   2.5853463  14.8749758  )
        13           O1  tau(  13) = (   0.0000000   0.0000000  16.8299758  )

     number of k points=    20  Fermi-Dirac smearing, width (Ry)=  0.0110
                       cart. coord. in units 2pi/alat
        k(    1) = (   0.0000000   0.0000000   0.0000000), wk =   0.0555556
        k(    2) = (   0.0000000   0.0322329   0.0000000), wk =   0.1111111
        k(    3) = (   0.0000000   0.0644659   0.0000000), wk =   0.1111111
        k(    4) = (   0.0000000  -0.0966988   0.0000000), wk =   0.0555556
        k(    5) = (   0.0279146  -0.0161165   0.0000000), wk =   0.1111111
        k(    6) = (   0.0279146   0.0161165   0.0000000), wk =   0.1111111
        k(    7) = (   0.0279146   0.0483494   0.0000000), wk =   0.1111111
        k(    8) = (   0.0279146  -0.1128153   0.0000000), wk =   0.1111111
        k(    9) = (   0.0279146  -0.0805824   0.0000000), wk =   0.1111111
        k(   10) = (   0.0279146  -0.0483494   0.0000000), wk =   0.1111111
        k(   11) = (   0.0558291  -0.0322329   0.0000000), wk =   0.1111111
        k(   12) = (   0.0558291   0.0000000   0.0000000), wk =   0.1111111
        k(   13) = (   0.0558291   0.0322329   0.0000000), wk =   0.1111111
        k(   14) = (   0.0558291  -0.1289318   0.0000000), wk =   0.1111111
        k(   15) = (   0.0558291  -0.0966988   0.0000000), wk =   0.1111111
        k(   16) = (   0.0558291  -0.0644659   0.0000000), wk =   0.1111111
        k(   17) = (  -0.0837437   0.0483494   0.0000000), wk =   0.0555556
        k(   18) = (  -0.0837437   0.0805824   0.0000000), wk =   0.1111111
        k(   19) = (  -0.0837437   0.1128153   0.0000000), wk =   0.1111111
        k(   20) = (  -0.0837437  -0.0483494   0.0000000), wk =   0.0555556

     Dense  grid:   616691 G-vectors     FFT dimensions: (  72,  72, 288)

     Smooth grid:   156085 G-vectors     FFT dimensions: (  45,  45, 192)

     Largest allocated arrays     est. size (Mb)     dimensions
        Kohn-Sham Wavefunctions         3.45 Mb     (    2487,   91)
        NL pseudopotentials             8.69 Mb     (    2487,  229)
        Each V/rho on FFT grid          2.85 Mb     (  186624)
        Each G-vector array             0.59 Mb     (   77088)
        G-vector shells                 0.16 Mb     (   20970)
     Largest temporary arrays     est. size (Mb)     dimensions
        Auxiliary wavefunctions        13.81 Mb     (    2487,  364)
        Each subspace H/S matrix        2.02 Mb     (     364,  364)
        Each <psi_i|beta_j> matrix      0.32 Mb     (     229,   91)
        Arrays for rho mixing          28.48 Mb     (  186624,   10)

     Initial potential from superposition of free atoms
     Check: negative starting charge=   -0.005220

     starting charge  161.96720, renormalised to  162.00000

     negative rho (up, down):  5.221E-03 0.000E+00


     ************************************************************************
     *
     * You are using vdW-DF for exchange-correlation in this calculation.
     * Please cite the following three references that made this development
     * possible:
     *
     *   M. Dion, H. Rydberg, E. Schroder, D. C. Langreth, and
     *   B. I. Lundqvist, Phys. Rev. Lett. 92, 246401 (2004).
     *
     *   T. Thonhauser, V. R. Cooper, S. Li, A. Puzder, P. Hyldgaard, and
     *   D. C. Langreth, Phys. Rev. B 76, 125112 (2007).
     *
     *   G. Roman-Perez and J. M. Soler, Phys. Rev. Lett. 103, 096102 (2009).
     *
     *
     * If you are using vdW-DF2, please also cite:
     *
     *   K. Lee, E. D. Murray, L. Kong, B. I. Lundqvist, and
     *   D. C. Langreth, Phys. Rev. B 82, 081101(R) (2010).
     *
     *
     * If you are calculating the stress with vdW-DF, please also cite:
     *
     *   R. Sabatini, E. Kucukbenli, B. Kolb, T. Thonhauser, and
     *   S. de Gironcoli, J. Phys.: Condens. Matter 24, 424209 (2012).
     *
     ************************************************************************

     Carrying out vdW-DF run using the following parameters:

     Nqs =      20    Nr_points =    1024   r_max =   100.000
     q_mesh =
               0.00001000     0.04494208     0.09755937     0.15916263
               0.23128650     0.31572767     0.41458969     0.53033537
               0.66584808     0.82450364     1.01025438     1.22772762
               1.48234092     1.78043706     2.12944203     2.53805004
               3.01644009     3.57652955     4.23227104     5.00000000

     Gradients computed in reciprocal space

     ************************************************************************


 
     Adding external electric field

     Computed dipole along edir(3) : 
        Dipole               -0.0101 Ry au,         -0.0256 Debye
        Dipole field         -0.0000 Ry au
 
        Potential amp.        0.0022 Ry
        Total length         45.8317 bohr
 
     Starting wfc are  160 randomized atomic wfcs

     total cpu time spent up to now is       13.7 secs

     per-process dynamical memory:    90.9 Mb

     Self-consistent Calculation

     iteration #  1     ecut=    36.75 Ry     beta=0.30
     Davidson diagonalization with overlap
     ethr =  1.00E-02,  avg # of iterations =  2.0

     negative rho (up, down):  4.988E-03 0.000E+00
 
     Adding external electric field

     Computed dipole along edir(3) : 
        Dipole               -2.9852 Ry au,         -7.5876 Debye
        Dipole field         -0.0072 Ry au
 
        Potential amp.        0.6635 Ry
        Total length         45.8317 bohr
 

     total cpu time spent up to now is       32.0 secs

     total energy              =   -1452.59758556 Ry
     Harris-Foulkes estimate   =   -1455.36855228 Ry
     estimated scf accuracy    <       6.15482258 Ry

     iteration #  2     ecut=    36.75 Ry     beta=0.30
     Davidson diagonalization with overlap
     ethr =  3.80E-03,  avg # of iterations =  9.4

     negative rho (up, down):  3.402E-03 0.000E+00
 
     Adding external electric field

     Computed dipole along edir(3) : 
        Dipole                1.9857 Ry au,          5.0471 Debye
        Dipole field          0.0048 Ry au
 
        Potential amp.       -0.4414 Ry
        Total length         45.8317 bohr
 

     total cpu time spent up to now is       61.8 secs

     total energy              =   -1443.97056704 Ry
     Harris-Foulkes estimate   =   -1462.23078817 Ry
     estimated scf accuracy    <     430.83001478 Ry

     iteration #  3     ecut=    36.75 Ry     beta=0.30
     Davidson diagonalization with overlap
     ethr =  3.80E-03,  avg # of iterations =  7.7

     negative rho (up, down):  3.192E-03 0.000E+00
 
     Adding external electric field

     Computed dipole along edir(3) : 
        Dipole                0.3661 Ry au,          0.9306 Debye
        Dipole field          0.0009 Ry au
 
        Potential amp.       -0.0814 Ry
        Total length         45.8317 bohr
 

     total cpu time spent up to now is       89.4 secs

     total energy              =   -1449.97329624 Ry
     Harris-Foulkes estimate   =   -1460.29772104 Ry
     estimated scf accuracy    <     316.69149110 Ry

     iteration #  4     ecut=    36.75 Ry     beta=0.30
     Davidson diagonalization with overlap
     ethr =  3.80E-03,  avg # of iterations =  5.2

     negative rho (up, down):  2.884E-03 0.000E+00
 
     Adding external electric field

     Computed dipole along edir(3) : 
        Dipole                0.7074 Ry au,          1.7980 Debye
        Dipole field          0.0017 Ry au
 
        Potential amp.       -0.1572 Ry
        Total length         45.8317 bohr
 

     total cpu time spent up to now is      112.9 secs

     total energy              =   -1454.52659720 Ry
     Harris-Foulkes estimate   =   -1454.90580773 Ry
     estimated scf accuracy    <       2.53709685 Ry

     iteration #  5     ecut=    36.75 Ry     beta=0.30
     Davidson diagonalization with overlap
     ethr =  1.57E-03,  avg # of iterations =  4.8

     negative rho (up, down):  2.781E-03 0.000E+00
 
     Adding external electric field

     Computed dipole along edir(3) : 
        Dipole                0.2929 Ry au,          0.7445 Debye
        Dipole field          0.0007 Ry au
 
        Potential amp.       -0.0651 Ry
        Total length         45.8317 bohr
 

     total cpu time spent up to now is      133.8 secs

     total energy              =   -1454.68541141 Ry
     Harris-Foulkes estimate   =   -1454.79012101 Ry
     estimated scf accuracy    <       0.50343337 Ry

     iteration #  6     ecut=    36.75 Ry     beta=0.30
     Davidson diagonalization with overlap
     ethr =  3.11E-04,  avg # of iterations =  3.2

     negative rho (up, down):  2.773E-03 0.000E+00
 
     Adding external electric field

     Computed dipole along edir(3) : 
        Dipole                0.1982 Ry au,          0.5037 Debye
        Dipole field          0.0005 Ry au
 
        Potential amp.       -0.0441 Ry
        Total length         45.8317 bohr
 

     total cpu time spent up to now is      154.1 secs

     total energy              =   -1454.69880896 Ry
     Harris-Foulkes estimate   =   -1454.73303713 Ry
     estimated scf accuracy    <       0.29636190 Ry

     iteration #  7     ecut=    36.75 Ry     beta=0.30
     Davidson diagonalization with overlap
     ethr =  1.83E-04,  avg # of iterations =  5.5

     negative rho (up, down):  2.855E-03 0.000E+00
 
     Adding external electric field

     Computed dipole along edir(3) : 
        Dipole                0.0279 Ry au,          0.0710 Debye
        Dipole field          0.0001 Ry au
 
        Potential amp.       -0.0062 Ry
        Total length         45.8317 bohr
 

     total cpu time spent up to now is      175.6 secs

     total energy              =   -1454.70969028 Ry
     Harris-Foulkes estimate   =   -1454.71903560 Ry
     estimated scf accuracy    <       0.06715348 Ry

     iteration #  8     ecut=    36.75 Ry     beta=0.30
     Davidson diagonalization with overlap
     ethr =  4.15E-05,  avg # of iterations =  5.5

     negative rho (up, down):  3.013E-03 0.000E+00
 
     Adding external electric field

     Computed dipole along edir(3) : 
        Dipole               -0.1929 Ry au,         -0.4904 Debye
        Dipole field         -0.0005 Ry au
 
        Potential amp.        0.0429 Ry
        Total length         45.8317 bohr
 

     total cpu time spent up to now is      199.1 secs

     total energy              =   -1454.71284562 Ry
     Harris-Foulkes estimate   =   -1454.71715819 Ry
     estimated scf accuracy    <       0.02990341 Ry

     iteration #  9     ecut=    36.75 Ry     beta=0.30
     Davidson diagonalization with overlap
     ethr =  1.85E-05,  avg # of iterations =  4.0

     negative rho (up, down):  3.105E-03 0.000E+00
 
     Adding external electric field

     Computed dipole along edir(3) : 
        Dipole               -0.2673 Ry au,         -0.6794 Debye
        Dipole field         -0.0006 Ry au
 
        Potential amp.        0.0594 Ry
        Total length         45.8317 bohr
 

     total cpu time spent up to now is      220.3 secs

     total energy              =   -1454.71421625 Ry
     Harris-Foulkes estimate   =   -1454.71527567 Ry
     estimated scf accuracy    <       0.01185225 Ry

     iteration # 10     ecut=    36.75 Ry     beta=0.30
     Davidson diagonalization with overlap
     ethr =  7.32E-06,  avg # of iterations =  3.5

     negative rho (up, down):  3.368E-03 0.000E+00
 
     Adding external electric field

     Computed dipole along edir(3) : 
        Dipole               -0.3543 Ry au,         -0.9006 Debye
        Dipole field         -0.0009 Ry au
 
        Potential amp.        0.0788 Ry
        Total length         45.8317 bohr
 

     total cpu time spent up to now is      240.1 secs

     total energy              =   -1454.71468247 Ry
     Harris-Foulkes estimate   =   -1454.71472305 Ry
     estimated scf accuracy    <       0.00530850 Ry

     iteration # 11     ecut=    36.75 Ry     beta=0.30
     Davidson diagonalization with overlap
     ethr =  3.28E-06,  avg # of iterations =  5.9

     negative rho (up, down):  3.612E-03 0.000E+00
 
     Adding external electric field

     Computed dipole along edir(3) : 
        Dipole               -0.3771 Ry au,         -0.9585 Debye
        Dipole field         -0.0009 Ry au
 
        Potential amp.        0.0838 Ry
        Total length         45.8317 bohr
 

     total cpu time spent up to now is      263.5 secs

     total energy              =   -1454.71521358 Ry
     Harris-Foulkes estimate   =   -1454.71544414 Ry
     estimated scf accuracy    <       0.00341650 Ry

     iteration # 12     ecut=    36.75 Ry     beta=0.30
     Davidson diagonalization with overlap
     ethr =  2.11E-06,  avg # of iterations =  1.3

     negative rho (up, down):  3.800E-03 0.000E+00
 
     Adding external electric field

     Computed dipole along edir(3) : 
        Dipole               -0.3858 Ry au,         -0.9806 Debye
        Dipole field         -0.0009 Ry au
 
        Potential amp.        0.0858 Ry
        Total length         45.8317 bohr
 

     total cpu time spent up to now is      282.3 secs

     total energy              =   -1454.71512381 Ry
     Harris-Foulkes estimate   =   -1454.71532223 Ry
     estimated scf accuracy    <       0.00152762 Ry

     iteration # 13     ecut=    36.75 Ry     beta=0.30
     Davidson diagonalization with overlap
     ethr =  9.43E-07,  avg # of iterations =  4.0

     negative rho (up, down):  4.342E-03 0.000E+00
 
     Adding external electric field

     Computed dipole along edir(3) : 
        Dipole               -0.4072 Ry au,         -1.0351 Debye
        Dipole field         -0.0010 Ry au
 
        Potential amp.        0.0905 Ry
        Total length         45.8317 bohr
 

     total cpu time spent up to now is      303.9 secs

     total energy              =   -1454.71529079 Ry
     Harris-Foulkes estimate   =   -1454.71531805 Ry
     estimated scf accuracy    <       0.00054744 Ry

     iteration # 14     ecut=    36.75 Ry     beta=0.30
     Davidson diagonalization with overlap
     ethr =  3.38E-07,  avg # of iterations =  3.1

     negative rho (up, down):  4.650E-03 0.000E+00
 
     Adding external electric field

     Computed dipole along edir(3) : 
        Dipole               -0.4177 Ry au,         -1.0616 Debye
        Dipole field         -0.0010 Ry au
 
        Potential amp.        0.0928 Ry
        Total length         45.8317 bohr
 

     total cpu time spent up to now is      324.1 secs

     total energy              =   -1454.71534419 Ry
     Harris-Foulkes estimate   =   -1454.71532803 Ry
     estimated scf accuracy    <       0.00005033 Ry

     iteration # 15     ecut=    36.75 Ry     beta=0.30
     Davidson diagonalization with overlap
     ethr =  3.11E-08,  avg # of iterations =  5.0

     negative rho (up, down):  4.683E-03 0.000E+00
 
     Adding external electric field

     Computed dipole along edir(3) : 
        Dipole               -0.4160 Ry au,         -1.0573 Debye
        Dipole field         -0.0010 Ry au
 
        Potential amp.        0.0925 Ry
        Total length         45.8317 bohr
 

     total cpu time spent up to now is      346.5 secs

     total energy              =   -1454.71534976 Ry
     Harris-Foulkes estimate   =   -1454.71535807 Ry
     estimated scf accuracy    <       0.00020048 Ry

     iteration # 16     ecut=    36.75 Ry     beta=0.30
     Davidson diagonalization with overlap
     ethr =  3.11E-08,  avg # of iterations =  3.1

     negative rho (up, down):  4.789E-03 0.000E+00
 
     Adding external electric field

     Computed dipole along edir(3) : 
        Dipole               -0.4177 Ry au,         -1.0617 Debye
        Dipole field         -0.0010 Ry au
 
        Potential amp.        0.0928 Ry
        Total length         45.8317 bohr
 

     total cpu time spent up to now is      366.2 secs

     total energy              =   -1454.71534983 Ry
     Harris-Foulkes estimate   =   -1454.71534972 Ry
     estimated scf accuracy    <       0.00001750 Ry

     iteration # 17     ecut=    36.75 Ry     beta=0.30
     Davidson diagonalization with overlap
     ethr =  1.08E-08,  avg # of iterations =  3.9

     negative rho (up, down):  5.002E-03 0.000E+00

     negative rho (up, down):  5.002E-03 0.000E+00

     negative rho (up, down):  5.002E-03 0.000E+00

     negative rho (up, down):  5.002E-03 0.000E+00

     negative rho (up, down):  5.002E-03 0.000E+00

     negative rho (up, down):  5.002E-03 0.000E+00

     negative rho (up, down):  5.002E-03 0.000E+00

     negative rho (up, down):  5.002E-03 0.000E+00

     negative rho (up, down):  5.002E-03 0.000E+00

     negative rho (up, down):  5.002E-03 0.000E+00

     negative rho (up, down):  5.002E-03 0.000E+00

     negative rho (up, down):  5.002E-03 0.000E+00

     negative rho (up, down):  5.002E-03 0.000E+00

     negative rho (up, down):  5.002E-03 0.000E+00

     negative rho (up, down):  5.002E-03 0.000E+00

     negative rho (up, down):  5.002E-03 0.000E+00

     negative rho (up, down):  5.002E-03 0.000E+00

     negative rho (up, down):  5.002E-03 0.000E+00

     negative rho (up, down):  5.002E-03 0.000E+00

     negative rho (up, down):  5.002E-03 0.000E+00

     negative rho (up, down):  5.002E-03 0.000E+00

     negative rho (up, down):  5.002E-03 0.000E+00

     negative rho (up, down):  5.002E-03 0.000E+00

     negative rho (up, down):  5.002E-03 0.000E+00

     negative rho (up, down):  5.002E-03 0.000E+00

     negative rho (up, down):  5.002E-03 0.000E+00

     negative rho (up, down):  5.002E-03 0.000E+00

     negative rho (up, down):  5.002E-03 0.000E+00

     negative rho (up, down):  5.002E-03 0.000E+00

     negative rho (up, down):  5.002E-03 0.000E+00

     negative rho (up, down):  5.002E-03 0.000E+00

     negative rho (up, down):  5.002E-03 0.000E+00

     negative rho (up, down):  5.002E-03 0.000E+00

     negative rho (up, down):  5.002E-03 0.000E+00

     negative rho (up, down):  5.002E-03 0.000E+00
 
     Adding external electric field

     Computed dipole along edir(3) : 
        Dipole               -0.4099 Ry au,         -1.0418 Debye
        Dipole field         -0.0010 Ry au
 
        Potential amp.        0.0911 Ry
        Total length         45.8317 bohr
 

     total cpu time spent up to now is      436.7 secs

     End of self-consistent calculation

          k = 0.0000 0.0000 0.0000 ( 19435 PWs)   bands (ev):

   -53.6994 -53.5889 -53.5676 -53.5664 -53.5659 -53.4752 -53.4509 -53.4504
   -53.4478 -53.3899 -53.3517 -53.3509 -30.1200 -30.1198 -30.0805 -30.0503
   -30.0148 -30.0146 -30.0089 -29.9552 -29.9537 -29.9535 -29.7353 -29.6589
   -29.6165 -29.6160 -29.4917 -29.4898 -29.4894 -29.4440 -29.4025 -29.4024
   -29.3044 -29.3042 -29.3036 -29.2901 -29.2510 -29.2505 -29.2049 -29.1950
   -29.1949 -29.1710 -29.1709 -29.1619 -29.0872 -29.0872 -29.0003 -29.0003
   -15.1781  -3.9665  -2.6950  -2.2524  -2.1203  -2.1202  -2.0092  -1.8934
    -1.7626  -1.7625  -1.5303  -1.4870  -1.4869  -1.2815  -1.2814  -1.2562
    -1.0239  -1.0238  -0.9842  -0.1488   0.2701   0.2702   0.8987   1.0019
     1.0950   1.0950   1.3062   1.6158   1.6158   1.7305   1.8448   1.8448
     1.8995   1.8997   1.9601   1.9908   1.9908   1.9993   1.9994   2.3910
     2.7480   2.9134   3.0205

          k = 0.0000 0.0322 0.0000 ( 19477 PWs)   bands (ev):

   -53.6906 -53.5802 -53.5756 -53.5672 -53.5661 -53.4710 -53.4585 -53.4504
   -53.4484 -53.3910 -53.3556 -53.3511 -30.0889 -30.0766 -30.0479 -30.0240
   -29.9877 -29.9846 -29.9735 -29.9244 -29.9243 -29.9030 -29.7322 -29.6692
   -29.6369 -29.6261 -29.4875 -29.4871 -29.4854 -29.4647 -29.4329 -29.3962
   -29.3547 -29.3476 -29.2907 -29.2798 -29.2593 -29.2389 -29.2368 -29.2134
   -29.2090 -29.2017 -29.1926 -29.1578 -29.1273 -29.1024 -29.0565 -29.0112
   -15.1779  -3.7497  -2.4781  -2.0640  -2.0176  -1.9766  -1.8555  -1.8005
    -1.6768  -1.6011  -1.4382  -1.3842  -1.3590  -1.1790  -1.0905  -1.0375
    -0.9470  -0.9276  -0.9037  -0.0941   0.2534   0.2806   0.8278   1.0097
     1.1361   1.1531   1.2416   1.3478   1.5310   1.5357   1.6790   1.7665
     1.8060   1.8787   1.9189   1.9800   2.0020   2.0565   2.1856   2.2040
     2.4555   2.6156   2.7191

          k = 0.0000 0.0645 0.0000 ( 19509 PWs)   bands (ev):

   -53.6665 -53.6002 -53.5674 -53.5661 -53.5557 -53.4873 -53.4568 -53.4505
   -53.4460 -53.3954 -53.3642 -53.3511 -30.0120 -29.9979 -29.9809 -29.9284
   -29.9247 -29.9175 -29.8820 -29.8531 -29.8521 -29.7664 -29.7269 -29.6858
   -29.6680 -29.6595 -29.5382 -29.5114 -29.4768 -29.4714 -29.4621 -29.4257
   -29.4218 -29.4184 -29.3615 -29.3336 -29.2956 -29.2848 -29.2565 -29.2460
   -29.2419 -29.2142 -29.2124 -29.2027 -29.1645 -29.1441 -29.1274 -29.0413
   -15.1776  -3.1652  -2.0002  -1.9364  -1.7191  -1.6803  -1.5896  -1.4851
    -1.3601  -1.2309  -1.2164  -1.0769  -1.0300  -0.9207  -0.7548  -0.6876
    -0.6196  -0.4371  -0.4050   0.0067   0.2474   0.2734   0.4415   0.7159
     0.9132   0.9542   1.0067   1.1124   1.3158   1.3267   1.4331   1.5068
     1.5319   1.5948   1.6639   1.7709   1.9157   2.0875   2.0883   2.2069
     2.2209   2.2868   2.3553

          k = 0.0000-0.0967 0.0000 ( 19524 PWs)   bands (ev):

   -53.6340 -53.6329 -53.5674 -53.5662 -53.5248 -53.5188 -53.4533 -53.4505
   -53.4403 -53.4005 -53.3682 -53.3511 -29.9579 -29.9535 -29.9270 -29.9105
   -29.8883 -29.8755 -29.8088 -29.8021 -29.7588 -29.7445 -29.7137 -29.6954
   -29.6353 -29.6164 -29.5758 -29.5419 -29.5374 -29.5321 -29.5064 -29.4970
   -29.4153 -29.4090 -29.3922 -29.3574 -29.3475 -29.3431 -29.3216 -29.2857
   -29.2420 -29.2119 -29.2010 -29.1939 -29.1938 -29.1832 -29.0936 -29.0755
   -15.1774  -2.4658  -2.4140  -1.6438  -1.5944  -1.5315  -1.4601  -1.2563
    -1.0582  -1.0324  -0.9789  -0.8882  -0.7789  -0.7538  -0.3042  -0.2702
    -0.2366  -0.1631  -0.1622  -0.1173   0.3316   0.3601   0.4224   0.4473
     0.5419   0.5999   0.8849   0.9971   1.0310   1.1395   1.2034   1.2260
     1.2948   1.3104   1.3614   1.4785   1.6354   1.7168   1.7229   1.8716
     1.8802   2.3913   2.4099

          k = 0.0279-0.0161 0.0000 ( 19477 PWs)   bands (ev):

   -53.6906 -53.5802 -53.5756 -53.5668 -53.5664 -53.4710 -53.4585 -53.4509
   -53.4480 -53.3910 -53.3557 -53.3511 -30.0887 -30.0768 -30.0479 -30.0240
   -29.9877 -29.9845 -29.9736 -29.9246 -29.9240 -29.9030 -29.7322 -29.6693
   -29.6365 -29.6264 -29.4873 -29.4872 -29.4854 -29.4648 -29.4328 -29.3962
   -29.3546 -29.3478 -29.2906 -29.2798 -29.2592 -29.2389 -29.2368 -29.2135
   -29.2091 -29.2015 -29.1926 -29.1578 -29.1273 -29.1024 -29.0565 -29.0112
   -15.1779  -3.7497  -2.4781  -2.0640  -2.0177  -1.9765  -1.8555  -1.8005
    -1.6768  -1.6010  -1.4382  -1.3842  -1.3591  -1.1790  -1.0905  -1.0376
    -0.9471  -0.9275  -0.9037  -0.0942   0.2533   0.2807   0.8279   1.0097
     1.1361   1.1531   1.2416   1.3479   1.5311   1.5356   1.6791   1.7664
     1.8060   1.8787   1.9190   1.9800   2.0019   2.0565   2.1856   2.2040
     2.4556   2.6156   2.7191

          k = 0.0279 0.0161 0.0000 ( 19477 PWs)   bands (ev):

   -53.6906 -53.5802 -53.5756 -53.5673 -53.5660 -53.4710 -53.4586 -53.4507
   -53.4482 -53.3911 -53.3550 -53.3517 -30.0889 -30.0766 -30.0479 -30.0240
   -29.9875 -29.9847 -29.9735 -29.9245 -29.9242 -29.9029 -29.7322 -29.6692
   -29.6369 -29.6261 -29.4874 -29.4872 -29.4854 -29.4647 -29.4329 -29.3963
   -29.3546 -29.3478 -29.2906 -29.2798 -29.2594 -29.2392 -29.2363 -29.2135
   -29.2091 -29.2015 -29.1928 -29.1577 -29.1273 -29.1025 -29.0564 -29.0113
   -15.1779  -3.7497  -2.4781  -2.0641  -2.0176  -1.9765  -1.8555  -1.8005
    -1.6768  -1.6011  -1.4382  -1.3842  -1.3590  -1.1790  -1.0905  -1.0375
    -0.9471  -0.9276  -0.9037  -0.0941   0.2534   0.2806   0.8278   1.0096
     1.1361   1.1531   1.2416   1.3479   1.5310   1.5356   1.6791   1.7665
     1.8060   1.8787   1.9189   1.9799   2.0021   2.0564   2.1856   2.2040
     2.4555   2.6155   2.7190

          k = 0.0279 0.0483 0.0000 ( 19485 PWs)   bands (ev):

   -53.6742 -53.5838 -53.5832 -53.5634 -53.5589 -53.4731 -53.4670 -53.4552
   -53.4411 -53.3933 -53.3632 -53.3504 -30.0394 -30.0083 -29.9941 -29.9596
   -29.9471 -29.9279 -29.9149 -29.8852 -29.8362 -29.8316 -29.7286 -29.6848
   -29.6667 -29.6451 -29.5547 -29.4771 -29.4731 -29.4694 -29.4562 -29.4293
   -29.4014 -29.3733 -29.3200 -29.3150 -29.2946 -29.2839 -29.2550 -29.2391
   -29.2310 -29.2152 -29.1793 -29.1740 -29.1676 -29.1567 -29.1146 -29.0389
   -15.1776  -3.3455  -2.0934  -1.8799  -1.8098  -1.7635  -1.6196  -1.5470
    -1.5227  -1.4009  -1.2744  -1.2217  -1.0656  -0.9418  -0.8910  -0.7445
    -0.7407  -0.7094  -0.5295  -0.0134   0.2159   0.2871   0.6006   0.8874
     0.9823   0.9977   1.0790   1.1601   1.2148   1.4177   1.4982   1.6121
     1.6269   1.7327   1.8080   1.8608   1.9174   2.0804   2.1928   2.2221
     2.2731   2.3514   2.4147

          k = 0.0279-0.1128 0.0000 ( 19505 PWs)   bands (ev):

   -53.6456 -53.6124 -53.5880 -53.5545 -53.5345 -53.4999 -53.4738 -53.4443
   -53.4360 -53.3964 -53.3737 -53.3488 -29.9605 -29.9524 -29.9161 -29.8955
   -29.8818 -29.8599 -29.8156 -29.8056 -29.7700 -29.7321 -29.7175 -29.7022
   -29.6870 -29.6373 -29.6320 -29.5658 -29.5464 -29.4713 -29.4557 -29.4511
   -29.4477 -29.4340 -29.3774 -29.3585 -29.3413 -29.3237 -29.2806 -29.2623
   -29.2541 -29.2485 -29.2015 -29.1889 -29.1856 -29.1675 -29.1341 -29.0836
   -15.1774  -2.6634  -2.0203  -1.6592  -1.5868  -1.5382  -1.3918  -1.2862
    -1.1985  -1.0905  -0.9883  -0.8840  -0.6774  -0.6511  -0.4721  -0.3703
    -0.2879  -0.2546  -0.1460   0.1454   0.1868   0.2580   0.3414   0.4537
     0.6001   0.6779   0.7426   0.8678   0.9991   1.1073   1.1392   1.1702
     1.1989   1.3150   1.3830   1.5258   1.6625   1.7399   1.9169   1.9546
     2.0543   2.2406   2.3975

          k = 0.0279-0.0806 0.0000 ( 19505 PWs)   bands (ev):

   -53.6456 -53.6124 -53.5880 -53.5545 -53.5345 -53.4999 -53.4738 -53.4443
   -53.4360 -53.3963 -53.3739 -53.3487 -29.9604 -29.9524 -29.9162 -29.8954
   -29.8818 -29.8600 -29.8154 -29.8057 -29.7700 -29.7323 -29.7173 -29.7022
   -29.6870 -29.6374 -29.6321 -29.5658 -29.5463 -29.4713 -29.4557 -29.4511
   -29.4477 -29.4340 -29.3773 -29.3584 -29.3414 -29.3237 -29.2807 -29.2624
   -29.2541 -29.2483 -29.2014 -29.1892 -29.1856 -29.1674 -29.1340 -29.0836
   -15.1774  -2.6634  -2.0203  -1.6592  -1.5868  -1.5382  -1.3918  -1.2862
    -1.1985  -1.0904  -0.9883  -0.8841  -0.6775  -0.6511  -0.4721  -0.3703
    -0.2879  -0.2546  -0.1459   0.1454   0.1868   0.2579   0.3415   0.4537
     0.6000   0.6779   0.7426   0.8678   0.9991   1.1073   1.1392   1.1703
     1.1989   1.3150   1.3830   1.5258   1.6626   1.7399   1.9169   1.9546
     2.0543   2.2406   2.3975

          k = 0.0279-0.0483 0.0000 ( 19485 PWs)   bands (ev):

   -53.6742 -53.5841 -53.5828 -53.5635 -53.5589 -53.4730 -53.4671 -53.4553
   -53.4411 -53.3931 -53.3638 -53.3500 -30.0393 -30.0084 -29.9942 -29.9595
   -29.9470 -29.9282 -29.9147 -29.8852 -29.8363 -29.8315 -29.7286 -29.6850
   -29.6664 -29.6452 -29.5548 -29.4771 -29.4730 -29.4695 -29.4562 -29.4291
   -29.4015 -29.3732 -29.3200 -29.3151 -29.2944 -29.2839 -29.2550 -29.2392
   -29.2306 -29.2155 -29.1795 -29.1741 -29.1675 -29.1567 -29.1146 -29.0388
   -15.1776  -3.3455  -2.0934  -1.8799  -1.8098  -1.7635  -1.6196  -1.5470
    -1.5227  -1.4008  -1.2744  -1.2217  -1.0657  -0.9418  -0.8910  -0.7445
    -0.7407  -0.7093  -0.5295  -0.0135   0.2159   0.2872   0.6007   0.8874
     0.9823   0.9978   1.0790   1.1601   1.2148   1.4176   1.4981   1.6120
     1.6270   1.7327   1.8081   1.8608   1.9174   2.0804   2.1928   2.2222
     2.2731   2.3514   2.4147

          k = 0.0558-0.0322 0.0000 ( 19509 PWs)   bands (ev):

   -53.6665 -53.6002 -53.5670 -53.5665 -53.5557 -53.4872 -53.4568 -53.4510
   -53.4456 -53.3954 -53.3642 -53.3510 -30.0118 -29.9980 -29.9810 -29.9284
   -29.9248 -29.9174 -29.8821 -29.8528 -29.8524 -29.7664 -29.7270 -29.6858
   -29.6678 -29.6598 -29.5384 -29.5112 -29.4766 -29.4717 -29.4620 -29.4255
   -29.4216 -29.4187 -29.3614 -29.3337 -29.2955 -29.2848 -29.2565 -29.2458
   -29.2420 -29.2142 -29.2125 -29.2028 -29.1645 -29.1440 -29.1275 -29.0413
   -15.1776  -3.1652  -2.0002  -1.9364  -1.7191  -1.6803  -1.5896  -1.4851
    -1.3602  -1.2308  -1.2164  -1.0769  -1.0300  -0.9207  -0.7548  -0.6876
    -0.6196  -0.4371  -0.4049   0.0066   0.2475   0.2734   0.4416   0.7159
     0.9133   0.9541   1.0067   1.1124   1.3157   1.3267   1.4332   1.5068
     1.5319   1.5947   1.6639   1.7710   1.9157   2.0875   2.0884   2.2069
     2.2208   2.2868   2.3553

          k = 0.0558 0.0000 0.0000 ( 19485 PWs)   bands (ev):

   -53.6742 -53.5841 -53.5829 -53.5635 -53.5589 -53.4729 -53.4671 -53.4554
   -53.4410 -53.3933 -53.3633 -53.3503 -30.0393 -30.0083 -29.9942 -29.9596
   -29.9470 -29.9281 -29.9148 -29.8852 -29.8363 -29.8315 -29.7286 -29.6850
   -29.6664 -29.6452 -29.5547 -29.4770 -29.4731 -29.4696 -29.4562 -29.4291
   -29.4015 -29.3732 -29.3200 -29.3151 -29.2946 -29.2838 -29.2549 -29.2392
   -29.2310 -29.2152 -29.1793 -29.1740 -29.1676 -29.1567 -29.1146 -29.0389
   -15.1776  -3.3455  -2.0934  -1.8799  -1.8098  -1.7634  -1.6196  -1.5470
    -1.5227  -1.4009  -1.2744  -1.2217  -1.0657  -0.9418  -0.8910  -0.7445
    -0.7407  -0.7094  -0.5295  -0.0135   0.2158   0.2872   0.6006   0.8874
     0.9823   0.9977   1.0790   1.1601   1.2148   1.4177   1.4982   1.6121
     1.6270   1.7327   1.8080   1.8608   1.9174   2.0804   2.1928   2.2221
     2.2731   2.3514   2.4147

          k = 0.0558 0.0322 0.0000 ( 19509 PWs)   bands (ev):

   -53.6665 -53.6002 -53.5675 -53.5661 -53.5557 -53.4873 -53.4568 -53.4508
   -53.4457 -53.3958 -53.3633 -53.3517 -30.0120 -29.9980 -29.9808 -29.9285
   -29.9244 -29.9177 -29.8821 -29.8529 -29.8522 -29.7664 -29.7269 -29.6858
   -29.6680 -29.6595 -29.5381 -29.5114 -29.4768 -29.4714 -29.4621 -29.4257
   -29.4216 -29.4187 -29.3615 -29.3337 -29.2954 -29.2851 -29.2564 -29.2458
   -29.2419 -29.2139 -29.2128 -29.2026 -29.1646 -29.1439 -29.1274 -29.0414
   -15.1776  -3.1652  -2.0002  -1.9364  -1.7191  -1.6803  -1.5897  -1.4851
    -1.3602  -1.2308  -1.2164  -1.0769  -1.0300  -0.9207  -0.7547  -0.6876
    -0.6197  -0.4371  -0.4049   0.0067   0.2474   0.2734   0.4415   0.7159
     0.9132   0.9541   1.0066   1.1124   1.3157   1.3267   1.4332   1.5068
     1.5320   1.5948   1.6639   1.7709   1.9157   2.0875   2.0883   2.2069
     2.2209   2.2868   2.3553

          k = 0.0558-0.1289 0.0000 ( 19505 PWs)   bands (ev):

   -53.6456 -53.6124 -53.5880 -53.5545 -53.5345 -53.4998 -53.4739 -53.4443
   -53.4360 -53.3968 -53.3732 -53.3490 -29.9605 -29.9524 -29.9161 -29.8955
   -29.8818 -29.8599 -29.8156 -29.8057 -29.7700 -29.7321 -29.7175 -29.7022
   -29.6870 -29.6373 -29.6320 -29.5658 -29.5464 -29.4713 -29.4557 -29.4511
   -29.4477 -29.4340 -29.3774 -29.3584 -29.3415 -29.3236 -29.2807 -29.2623
   -29.2541 -29.2484 -29.2014 -29.1891 -29.1857 -29.1674 -29.1340 -29.0837
   -15.1774  -2.6634  -2.0203  -1.6592  -1.5868  -1.5382  -1.3918  -1.2862
    -1.1985  -1.0904  -0.9883  -0.8840  -0.6774  -0.6511  -0.4721  -0.3703
    -0.2878  -0.2546  -0.1460   0.1453   0.1868   0.2579   0.3414   0.4537
     0.6000   0.6779   0.7426   0.8678   0.9991   1.1073   1.1392   1.1703
     1.1989   1.3150   1.3830   1.5258   1.6625   1.7399   1.9169   1.9546
     2.0543   2.2406   2.3975

          k = 0.0558-0.0967 0.0000 ( 19521 PWs)   bands (ev):

   -53.6175 -53.6173 -53.6158 -53.5500 -53.5101 -53.5032 -53.5000 -53.4394
   -53.4317 -53.3885 -53.3877 -53.3470 -29.9321 -29.8940 -29.8808 -29.8676
   -29.8431 -29.8316 -29.7894 -29.7717 -29.7603 -29.7131 -29.7065 -29.7023
   -29.6686 -29.6630 -29.6618 -29.5957 -29.5891 -29.5889 -29.4662 -29.4382
   -29.4351 -29.4232 -29.3948 -29.3731 -29.3729 -29.3308 -29.2650 -29.2525
   -29.2479 -29.2455 -29.2177 -29.2002 -29.1985 -29.1515 -29.1499 -29.1410
   -15.1773  -2.0883  -1.9439  -1.9432  -1.5012  -1.4577  -1.4191  -1.0562
    -1.0289  -0.9911  -0.6399  -0.6233  -0.4910  -0.3574  -0.3419  -0.3171
    -0.0953  -0.0923  -0.0129   0.1725   0.1919   0.1939   0.2103   0.3292
     0.3866   0.4790   0.4854   0.6822   0.7082   0.7674   0.8705   0.8983
     0.9132   1.0340   1.2985   1.3020   1.5192   1.7325   1.9971   2.0333
     2.1348   2.3204   2.3215

          k = 0.0558-0.0645 0.0000 ( 19505 PWs)   bands (ev):

   -53.6456 -53.6124 -53.5880 -53.5545 -53.5345 -53.4998 -53.4739 -53.4444
   -53.4360 -53.3962 -53.3740 -53.3487 -29.9604 -29.9523 -29.9162 -29.8956
   -29.8818 -29.8599 -29.8156 -29.8056 -29.7700 -29.7323 -29.7172 -29.7023
   -29.6870 -29.6374 -29.6321 -29.5658 -29.5463 -29.4713 -29.4557 -29.4511
   -29.4477 -29.4339 -29.3773 -29.3583 -29.3415 -29.3237 -29.2808 -29.2623
   -29.2541 -29.2484 -29.2014 -29.1892 -29.1857 -29.1674 -29.1341 -29.0836
   -15.1774  -2.6634  -2.0203  -1.6592  -1.5868  -1.5381  -1.3918  -1.2862
    -1.1985  -1.0905  -0.9883  -0.8841  -0.6775  -0.6511  -0.4721  -0.3703
    -0.2879  -0.2546  -0.1459   0.1453   0.1868   0.2580   0.3415   0.4537
     0.6000   0.6779   0.7426   0.8678   0.9991   1.1073   1.1393   1.1703
     1.1988   1.3149   1.3831   1.5258   1.6625   1.7399   1.9169   1.9546
     2.0544   2.2406   2.3975

          k =-0.0837 0.0483 0.0000 ( 19524 PWs)   bands (ev):

   -53.6339 -53.6330 -53.5670 -53.5665 -53.5251 -53.5184 -53.4531 -53.4510
   -53.4401 -53.4004 -53.3683 -53.3510 -29.9576 -29.9535 -29.9272 -29.9106
   -29.8884 -29.8753 -29.8091 -29.8018 -29.7588 -29.7445 -29.7135 -29.6956
   -29.6356 -29.6162 -29.5762 -29.5416 -29.5370 -29.5323 -29.5061 -29.4973
   -29.4157 -29.4086 -29.3921 -29.3574 -29.3476 -29.3430 -29.3214 -29.2860
   -29.2419 -29.2119 -29.2013 -29.1941 -29.1935 -29.1831 -29.0938 -29.0753
   -15.1774  -2.4658  -2.4140  -1.6438  -1.5944  -1.5314  -1.4601  -1.2562
    -1.0582  -1.0324  -0.9790  -0.8882  -0.7788  -0.7538  -0.3042  -0.2701
    -0.2366  -0.1630  -0.1623  -0.1173   0.3316   0.3600   0.4225   0.4472
     0.5420   0.5999   0.8849   0.9971   1.0310   1.1395   1.2034   1.2260
     1.2949   1.3105   1.3614   1.4784   1.6354   1.7169   1.7228   1.8717
     1.8803   2.3912   2.4100

          k =-0.0837 0.0806 0.0000 ( 19505 PWs)   bands (ev):

   -53.6456 -53.6124 -53.5880 -53.5545 -53.5345 -53.4997 -53.4739 -53.4444
   -53.4359 -53.3964 -53.3737 -53.3488 -29.9605 -29.9522 -29.9162 -29.8956
   -29.8818 -29.8599 -29.8156 -29.8055 -29.7700 -29.7322 -29.7173 -29.7023
   -29.6870 -29.6374 -29.6321 -29.5658 -29.5463 -29.4713 -29.4557 -29.4511
   -29.4477 -29.4340 -29.3773 -29.3583 -29.3413 -29.3237 -29.2807 -29.2623
   -29.2541 -29.2484 -29.2016 -29.1890 -29.1856 -29.1675 -29.1341 -29.0836
   -15.1774  -2.6634  -2.0203  -1.6592  -1.5868  -1.5381  -1.3918  -1.2862
    -1.1984  -1.0905  -0.9883  -0.8841  -0.6775  -0.6511  -0.4721  -0.3703
    -0.2879  -0.2546  -0.1459   0.1453   0.1868   0.2580   0.3414   0.4537
     0.6000   0.6779   0.7426   0.8678   0.9991   1.1073   1.1393   1.1702
     1.1988   1.3150   1.3831   1.5258   1.6625   1.7399   1.9169   1.9546
     2.0544   2.2406   2.3975

          k =-0.0837 0.1128 0.0000 ( 19505 PWs)   bands (ev):

   -53.6456 -53.6124 -53.5880 -53.5545 -53.5345 -53.4998 -53.4739 -53.4444
   -53.4359 -53.3967 -53.3732 -53.3490 -29.9605 -29.9524 -29.9161 -29.8954
   -29.8818 -29.8600 -29.8155 -29.8057 -29.7700 -29.7322 -29.7173 -29.7023
   -29.6870 -29.6374 -29.6321 -29.5658 -29.5463 -29.4713 -29.4557 -29.4511
   -29.4477 -29.4340 -29.3773 -29.3584 -29.3414 -29.3236 -29.2806 -29.2624
   -29.2542 -29.2483 -29.2014 -29.1892 -29.1856 -29.1674 -29.1340 -29.0837
   -15.1774  -2.6634  -2.0203  -1.6592  -1.5868  -1.5382  -1.3918  -1.2862
    -1.1984  -1.0904  -0.9883  -0.8840  -0.6774  -0.6511  -0.4721  -0.3703
    -0.2878  -0.2546  -0.1460   0.1453   0.1868   0.2579   0.3414   0.4537
     0.6000   0.6779   0.7426   0.8678   0.9991   1.1073   1.1392   1.1703
     1.1988   1.3150   1.3830   1.5258   1.6626   1.7399   1.9169   1.9546
     2.0543   2.2406   2.3975

          k =-0.0837-0.0483 0.0000 ( 19524 PWs)   bands (ev):

   -53.6341 -53.6328 -53.5675 -53.5661 -53.5249 -53.5186 -53.4532 -53.4508
   -53.4401 -53.4010 -53.3673 -53.3516 -29.9579 -29.9536 -29.9270 -29.9103
   -29.8880 -29.8758 -29.8089 -29.8020 -29.7588 -29.7445 -29.7137 -29.6955
   -29.6353 -29.6164 -29.5758 -29.5420 -29.5372 -29.5323 -29.5063 -29.4971
   -29.4154 -29.4089 -29.3921 -29.3577 -29.3468 -29.3436 -29.3218 -29.2856
   -29.2418 -29.2123 -29.2010 -29.1937 -29.1934 -29.1835 -29.0933 -29.0758
   -15.1774  -2.4659  -2.4139  -1.6438  -1.5944  -1.5315  -1.4602  -1.2563
    -1.0580  -1.0326  -0.9789  -0.8881  -0.7789  -0.7539  -0.3040  -0.2703
    -0.2366  -0.1631  -0.1622  -0.1174   0.3316   0.3600   0.4224   0.4473
     0.5418   0.6001   0.8849   0.9971   1.0310   1.1394   1.2034   1.2260
     1.2948   1.3104   1.3615   1.4784   1.6355   1.7169   1.7229   1.8716
     1.8801   2.3914   2.4099

     the Fermi energy is     1.5301 ev

!    total energy              =   -1454.71534535 Ry
     Harris-Foulkes estimate   =   -1454.71536805 Ry
     estimated scf accuracy    <       0.00000797 Ry

     The total energy is the sum of the following terms:

     one-electron contribution =  -11717.16550369 Ry
     hartree contribution      =    5851.79379933 Ry
     xc contribution           =    -235.67096871 Ry
     ewald contribution        =    4646.44383740 Ry
     electric field correction =       0.00040735 Ry
     smearing contrib. (-TS)   =      -0.11691704 Ry

     convergence has been achieved in  17 iterations
 
 BEEF-vdW xc energy contributions
           1 :   -202.022272386614     
           2 :    183.404578875108     
           3 :   -151.816620226875     
           4 :    115.843944830788     
           5 :   -83.5651431561533     
           6 :    59.9222505411292     
           7 :   -45.7826954360965     
           8 :    38.6790847406837     
           9 :   -34.6373689390921     
          10 :    30.1431123507476     
          11 :   -23.4523741037894     
          12 :    14.8338064754161     
          13 :   -5.87449275991673     
          14 :   -1.64969935785626     
          15 :    6.73032987538349     
          16 :   -9.51258463116480     
          17 :    11.0159338697863     
          18 :   -12.4380312129022     
          19 :    14.4619572221045     
          20 :   -16.9456316894965     
          21 :    19.1047022004305     
          22 :   -20.0306432047412     
          23 :    19.2231299797970     
          24 :   -16.8586214952711     
          25 :    13.6787745064324     
          26 :   -10.6000540512819     
          27 :    8.27818079928554     
          28 :   -6.86218566865753     
          29 :    6.03467408551634     
          30 :   -5.28245967291079     
          31 :   -23.2779941391416     
          32 :   -17.5109165156290     

     Forces acting on atoms (Ry/au):


     negative rho (up, down):  5.002E-03 0.000E+00
     atom    1 type  1   force =    -0.00023373   -0.00013686   -0.00638705
     atom    2 type  1   force =     0.00022550   -0.00010847   -0.00640385
     atom    3 type  1   force =     0.00002222    0.00026779   -0.00637590
     atom    4 type  1   force =    -0.00001564   -0.00001236   -0.00468909
     atom    5 type  1   force =     0.00000066    0.00951508   -0.00621161
     atom    6 type  1   force =     0.00000513    0.00000549    0.01271260
     atom    7 type  1   force =    -0.00823983   -0.00476830   -0.00625855
     atom    8 type  1   force =     0.00823469   -0.00476283   -0.00621296
     atom    9 type  1   force =     0.00002814    0.00001368    0.19342031
     atom   10 type  1   force =    -0.00002073    0.00487368   -0.00612703
     atom   11 type  1   force =     0.00420646   -0.00245306   -0.00611859
     atom   12 type  1   force =    -0.00421132   -0.00243182   -0.00614663
     atom   13 type  2   force =    -0.00000156   -0.00000203   -0.14520164

     Total force =     0.242237     Total SCF correction =     0.003038


     entering subroutine stress ...


     negative rho (up, down):  5.002E-03 0.000E+00
          total   stress  (Ry/bohr**3)                   (kbar)     P=  -23.33
  -0.00020732  -0.00000000  -0.00000000        -30.50     -0.00     -0.00
  -0.00000000  -0.00020733   0.00000000         -0.00    -30.50      0.00
  -0.00000000   0.00000000  -0.00006111         -0.00      0.00     -8.99


     BFGS Geometry Optimization

     number of scf cycles    =   1
     number of bfgs steps    =   0

     energy   new            =   -1454.7153453538 Ry

     new trust radius        =       0.1934203079 bohr
     new conv_thr            =       0.0000099958 Ry


ATOMIC_POSITIONS (crystal)
Nb1      0.166666667   0.166666667   0.402010442    0   0   0
Nb1      0.666666667   0.166666667   0.402010442    0   0   0
Nb1      0.166666667   0.666666667   0.402010442    0   0   0
Nb1      0.666666667   0.666666667   0.402010442    0   0   0
Nb1      0.833333333   0.333333333   0.500000000    0   0   0
Nb1      0.333333333   0.333333333   0.500000000    0   0   0
Nb1      0.833333333   0.833333333   0.500000000    0   0   0
Nb1      0.333333333   0.833333333   0.500000000    0   0   0
Nb1      0.000001794   0.000001400   0.602104280
Nb1      0.499748772   0.000498780   0.597859215
Nb1      0.000498346   0.499748950   0.597859394
Nb1      0.499751187   0.499751124   0.597858798
O1      -0.000000034  -0.000000208   0.673493656



     Writing output data file calc.save
     Check: negative starting charge=   -0.005220
     NEW-OLD atomic charge density approx. for the potential
     Check: negative starting charge=   -0.005243

     negative rho (up, down):  5.097E-03 0.000E+00
 
     Adding external electric field

     Computed dipole along edir(3) : 
        Dipole               -0.4094 Ry au,         -1.0406 Debye
        Dipole field         -0.0010 Ry au
 
        Potential amp.        0.0910 Ry
        Total length         45.8317 bohr
 

     total cpu time spent up to now is      507.1 secs

     per-process dynamical memory:    85.1 Mb

     Self-consistent Calculation

     iteration #  1     ecut=    36.75 Ry     beta=0.30
     Davidson diagonalization with overlap
     ethr =  1.00E-06,  avg # of iterations = 14.3

     negative rho (up, down):  5.064E-03 0.000E+00
 
     Adding external electric field

     Computed dipole along edir(3) : 
        Dipole               -0.9364 Ry au,         -2.3801 Debye
        Dipole field         -0.0023 Ry au
 
        Potential amp.        0.2081 Ry
        Total length         45.8317 bohr
 

     total cpu time spent up to now is      545.1 secs

     total energy              =   -1454.73312836 Ry
     Harris-Foulkes estimate   =   -1454.75543759 Ry
     estimated scf accuracy    <       0.05104885 Ry

     iteration #  2     ecut=    36.75 Ry     beta=0.30
     Davidson diagonalization with overlap
     ethr =  3.15E-05,  avg # of iterations =  7.9

     negative rho (up, down):  5.125E-03 0.000E+00
 
     Adding external electric field

     Computed dipole along edir(3) : 
        Dipole               -0.3373 Ry au,         -0.8574 Debye
        Dipole field         -0.0008 Ry au
 
        Potential amp.        0.0750 Ry
        Total length         45.8317 bohr
 

     total cpu time spent up to now is      573.0 secs

     total energy              =   -1454.44648336 Ry
     Harris-Foulkes estimate   =   -1455.08920930 Ry
     estimated scf accuracy    <      30.89101519 Ry

     iteration #  3     ecut=    36.75 Ry     beta=0.30
     Davidson diagonalization with overlap
     ethr =  3.15E-05,  avg # of iterations =  7.5

     negative rho (up, down):  5.090E-03 0.000E+00
 
     Adding external electric field

     Computed dipole along edir(3) : 
        Dipole               -0.3433 Ry au,         -0.8725 Debye
        Dipole field         -0.0008 Ry au
 
        Potential amp.        0.0763 Ry
        Total length         45.8317 bohr
 

     total cpu time spent up to now is      600.8 secs

     total energy              =   -1454.75077368 Ry
     Harris-Foulkes estimate   =   -1454.75633699 Ry
     estimated scf accuracy    <       0.05121603 Ry

     iteration #  4     ecut=    36.75 Ry     beta=0.30
     Davidson diagonalization with overlap
     ethr =  3.15E-05,  avg # of iterations =  3.0

     negative rho (up, down):  5.062E-03 0.000E+00
 
     Adding external electric field

     Computed dipole along edir(3) : 
        Dipole               -0.3185 Ry au,         -0.8095 Debye
        Dipole field         -0.0008 Ry au
 
        Potential amp.        0.0708 Ry
        Total length         45.8317 bohr
 

     total cpu time spent up to now is      620.3 secs

     total energy              =   -1454.75330101 Ry
     Harris-Foulkes estimate   =   -1454.75479245 Ry
     estimated scf accuracy    <       0.01189733 Ry

     iteration #  5     ecut=    36.75 Ry     beta=0.30
     Davidson diagonalization with overlap
     ethr =  7.34E-06,  avg # of iterations =  3.4

     negative rho (up, down):  5.047E-03 0.000E+00
 
     Adding external electric field

     Computed dipole along edir(3) : 
        Dipole               -0.3045 Ry au,         -0.7741 Debye
        Dipole field         -0.0007 Ry au
 
        Potential amp.        0.0677 Ry
        Total length         45.8317 bohr
 

     total cpu time spent up to now is      640.5 secs

     total energy              =   -1454.75399548 Ry
     Harris-Foulkes estimate   =   -1454.75448192 Ry
     estimated scf accuracy    <       0.00246669 Ry

     iteration #  6     ecut=    36.75 Ry     beta=0.30
     Davidson diagonalization with overlap
     ethr =  1.52E-06,  avg # of iterations =  3.6

     negative rho (up, down):  5.042E-03 0.000E+00
 
     Adding external electric field

     Computed dipole along edir(3) : 
        Dipole               -0.3010 Ry au,         -0.7652 Debye
        Dipole field         -0.0007 Ry au
 
        Potential amp.        0.0669 Ry
        Total length         45.8317 bohr
 

     total cpu time spent up to now is      661.1 secs

     total energy              =   -1454.75418716 Ry
     Harris-Foulkes estimate   =   -1454.75428960 Ry
     estimated scf accuracy    <       0.00075152 Ry

     iteration #  7     ecut=    36.75 Ry     beta=0.30
     Davidson diagonalization with overlap
     ethr =  4.64E-07,  avg # of iterations =  3.3

     negative rho (up, down):  5.041E-03 0.000E+00
 
     Adding external electric field

     Computed dipole along edir(3) : 
        Dipole               -0.2998 Ry au,         -0.7620 Debye
        Dipole field         -0.0007 Ry au
 
        Potential amp.        0.0666 Ry
        Total length         45.8317 bohr
 

     total cpu time spent up to now is      681.3 secs

     total energy              =   -1454.75426008 Ry
     Harris-Foulkes estimate   =   -1454.75427912 Ry
     estimated scf accuracy    <       0.00021940 Ry

     iteration #  8     ecut=    36.75 Ry     beta=0.30
     Davidson diagonalization with overlap
     ethr =  1.35E-07,  avg # of iterations =  3.8

     negative rho (up, down):  5.040E-03 0.000E+00
 
     Adding external electric field

     Computed dipole along edir(3) : 
        Dipole               -0.2995 Ry au,         -0.7611 Debye
        Dipole field         -0.0007 Ry au
 
        Potential amp.        0.0666 Ry
        Total length         45.8317 bohr
 

     total cpu time spent up to now is      702.5 secs

     total energy              =   -1454.75428413 Ry
     Harris-Foulkes estimate   =   -1454.75429082 Ry
     estimated scf accuracy    <       0.00009082 Ry

     iteration #  9     ecut=    36.75 Ry     beta=0.30
     Davidson diagonalization with overlap
     ethr =  5.61E-08,  avg # of iterations =  3.1

     negative rho (up, down):  5.040E-03 0.000E+00
 
     Adding external electric field

     Computed dipole along edir(3) : 
        Dipole               -0.2997 Ry au,         -0.7617 Debye
        Dipole field         -0.0007 Ry au
 
        Potential amp.        0.0666 Ry
        Total length         45.8317 bohr
 

     total cpu time spent up to now is      722.5 secs

     total energy              =   -1454.75429125 Ry
     Harris-Foulkes estimate   =   -1454.75429256 Ry
     estimated scf accuracy    <       0.00003659 Ry

     iteration # 10     ecut=    36.75 Ry     beta=0.30
     Davidson diagonalization with overlap
     ethr =  2.26E-08,  avg # of iterations =  3.3

     negative rho (up, down):  5.040E-03 0.000E+00

     negative rho (up, down):  5.040E-03 0.000E+00

     negative rho (up, down):  5.040E-03 0.000E+00

     negative rho (up, down):  5.040E-03 0.000E+00

     negative rho (up, down):  5.040E-03 0.000E+00

     negative rho (up, down):  5.040E-03 0.000E+00

     negative rho (up, down):  5.040E-03 0.000E+00

     negative rho (up, down):  5.040E-03 0.000E+00

     negative rho (up, down):  5.040E-03 0.000E+00

     negative rho (up, down):  5.040E-03 0.000E+00

     negative rho (up, down):  5.040E-03 0.000E+00

     negative rho (up, down):  5.040E-03 0.000E+00

     negative rho (up, down):  5.040E-03 0.000E+00

     negative rho (up, down):  5.040E-03 0.000E+00

     negative rho (up, down):  5.040E-03 0.000E+00

     negative rho (up, down):  5.040E-03 0.000E+00

     negative rho (up, down):  5.040E-03 0.000E+00

     negative rho (up, down):  5.040E-03 0.000E+00

     negative rho (up, down):  5.040E-03 0.000E+00

     negative rho (up, down):  5.040E-03 0.000E+00

     negative rho (up, down):  5.040E-03 0.000E+00

     negative rho (up, down):  5.040E-03 0.000E+00

     negative rho (up, down):  5.040E-03 0.000E+00

     negative rho (up, down):  5.040E-03 0.000E+00

     negative rho (up, down):  5.040E-03 0.000E+00

     negative rho (up, down):  5.040E-03 0.000E+00

     negative rho (up, down):  5.040E-03 0.000E+00

     negative rho (up, down):  5.040E-03 0.000E+00

     negative rho (up, down):  5.040E-03 0.000E+00

     negative rho (up, down):  5.040E-03 0.000E+00

     negative rho (up, down):  5.040E-03 0.000E+00

     negative rho (up, down):  5.040E-03 0.000E+00

     negative rho (up, down):  5.040E-03 0.000E+00

     negative rho (up, down):  5.040E-03 0.000E+00

     negative rho (up, down):  5.040E-03 0.000E+00
 
     Adding external electric field

     Computed dipole along edir(3) : 
        Dipole               -0.2992 Ry au,         -0.7604 Debye
        Dipole field         -0.0007 Ry au
 
        Potential amp.        0.0665 Ry
        Total length         45.8317 bohr
 

     total cpu time spent up to now is      792.8 secs

     End of self-consistent calculation

          k = 0.0000 0.0000 0.0000 ( 19435 PWs)   bands (ev):

   -53.5262 -53.4507 -53.4000 -53.3992 -53.3648 -53.3404 -53.3145 -53.3135
   -53.3087 -53.2591 -53.2260 -53.2258 -30.0377 -29.9392 -29.9390 -29.9211
   -29.8736 -29.8681 -29.8680 -29.8143 -29.8121 -29.8116 -29.7204 -29.5419
   -29.4587 -29.4580 -29.3549 -29.3546 -29.3542 -29.2788 -29.2256 -29.2254
   -29.1652 -29.1619 -29.1573 -29.1569 -29.1193 -29.1192 -29.0781 -29.0412
   -29.0411 -29.0298 -29.0121 -29.0120 -28.9493 -28.9493 -28.8682 -28.8682
   -15.5317  -3.8223  -2.5820  -2.3235  -2.3028  -2.3028  -1.9207  -1.8586
    -1.7225  -1.7224  -1.5126  -1.5125  -1.5063  -1.1352  -1.1351  -1.1145
    -1.0395  -1.0394  -0.9723  -0.0076   0.3867   0.3869   1.0373   1.1521
     1.2229   1.2230   1.4577   1.7747   1.7747   1.8318   1.9998   1.9998
     2.0409   2.0413   2.1027   2.1380   2.1380   2.1957   2.1957   2.5885
     2.8432   3.0527   3.1274

          k = 0.0000 0.0322 0.0000 ( 19477 PWs)   bands (ev):

   -53.5175 -53.4420 -53.4063 -53.3996 -53.3670 -53.3353 -53.3220 -53.3144
   -53.3094 -53.2604 -53.2299 -53.2258 -30.0289 -29.9077 -29.9000 -29.8772
   -29.8512 -29.8405 -29.8307 -29.7833 -29.7818 -29.7602 -29.7044 -29.5432
   -29.4841 -29.4709 -29.3582 -29.3475 -29.3447 -29.3005 -29.2532 -29.2227
   -29.2146 -29.2063 -29.1467 -29.1367 -29.1146 -29.1064 -29.1039 -29.0728
   -29.0623 -29.0578 -29.0320 -29.0210 -28.9896 -28.9642 -28.9247 -28.8789
   -15.5316  -3.6065  -2.3950  -2.2672  -2.2516  -2.1961  -1.7518  -1.7208
    -1.6070  -1.5582  -1.4977  -1.3534  -1.3517  -1.0431  -0.9797  -0.9256
    -0.8897  -0.8546  -0.8484   0.0466   0.3795   0.4061   0.9716   1.1502
     1.2642   1.2824   1.4022   1.5039   1.6616   1.6784   1.8152   1.9296
     1.9648   2.0218   2.0729   2.1179   2.1528   2.2417   2.3386   2.3978
     2.5741   2.7387   2.8467

          k = 0.0000 0.0645 0.0000 ( 19509 PWs)   bands (ev):

   -53.4939 -53.4272 -53.4179 -53.3997 -53.3701 -53.3494 -53.3201 -53.3145
   -53.3084 -53.2664 -53.2378 -53.2258 -30.0111 -29.8282 -29.8235 -29.8003
   -29.7764 -29.7586 -29.7417 -29.7108 -29.7093 -29.6548 -29.6162 -29.5496
   -29.5196 -29.5089 -29.3708 -29.3703 -29.3289 -29.3233 -29.3113 -29.2850
   -29.2842 -29.2536 -29.1928 -29.1834 -29.1611 -29.1542 -29.1138 -29.1103
   -29.0877 -29.0804 -29.0699 -29.0693 -29.0321 -29.0041 -28.9938 -28.9088
   -15.5312  -3.0285  -2.2112  -2.1651  -2.1536  -1.7532  -1.6793  -1.4110
    -1.2462  -1.1969  -1.1573  -0.9613  -0.9519  -0.7914  -0.6116  -0.5753
    -0.5020  -0.3069  -0.2598   0.1465   0.3911   0.4141   0.5945   0.8601
     1.0530   1.0940   1.1362   1.2640   1.4302   1.4743   1.5760   1.6216
     1.6729   1.7675   1.8023   1.9053   2.0457   2.1882   2.2460   2.3051
     2.3589   2.4347   2.5010

          k = 0.0000-0.0967 0.0000 ( 19524 PWs)   bands (ev):

   -53.4685 -53.4516 -53.3997 -53.3880 -53.3805 -53.3707 -53.3146 -53.3140
   -53.3033 -53.2738 -53.2412 -53.2257 -30.0021 -29.7777 -29.7637 -29.7554
   -29.7473 -29.7355 -29.6776 -29.6557 -29.6384 -29.6008 -29.5790 -29.5475
   -29.4753 -29.4316 -29.4153 -29.4125 -29.3910 -29.3829 -29.3535 -29.3487
   -29.2761 -29.2760 -29.2548 -29.2286 -29.2166 -29.2159 -29.1319 -29.1225
   -29.1086 -29.0798 -29.0659 -29.0613 -29.0518 -29.0517 -28.9583 -28.9441
   -15.5310  -2.4287  -2.2715  -2.1274  -2.0878  -1.9815  -1.3155  -1.2958
    -0.9045  -0.8958  -0.8266  -0.7507  -0.6856  -0.6496  -0.1712  -0.1436
    -0.0846  -0.0280   0.0301   0.0304   0.4718   0.4914   0.5691   0.5831
     0.6722   0.7474   1.0049   1.1452   1.1515   1.2684   1.3349   1.3542
     1.4323   1.4500   1.5029   1.5579   1.7909   1.8292   1.8654   2.0018
     2.0071   2.5413   2.7063

          k = 0.0279-0.0161 0.0000 ( 19477 PWs)   bands (ev):

   -53.5175 -53.4420 -53.4065 -53.3993 -53.3670 -53.3353 -53.3222 -53.3135
   -53.3100 -53.2605 -53.2298 -53.2259 -30.0289 -29.9078 -29.8999 -29.8773
   -29.8513 -29.8404 -29.8307 -29.7829 -29.7822 -29.7601 -29.7044 -29.5431
   -29.4845 -29.4706 -29.3585 -29.3471 -29.3448 -29.3004 -29.2534 -29.2225
   -29.2149 -29.2061 -29.1467 -29.1367 -29.1147 -29.1064 -29.1039 -29.0728
   -29.0622 -29.0579 -29.0321 -29.0209 -28.9896 -28.9642 -28.9247 -28.8790
   -15.5316  -3.6065  -2.3950  -2.2672  -2.2517  -2.1961  -1.7518  -1.7208
    -1.6070  -1.5583  -1.4977  -1.3533  -1.3517  -1.0431  -0.9797  -0.9256
    -0.8895  -0.8548  -0.8484   0.0466   0.3796   0.4059   0.9716   1.1502
     1.2641   1.2824   1.4022   1.5039   1.6615   1.6786   1.8151   1.9296
     1.9648   2.0217   2.0728   2.1179   2.1530   2.2416   2.3386   2.3979
     2.5741   2.7387   2.8466

          k = 0.0279 0.0161 0.0000 ( 19477 PWs)   bands (ev):

   -53.5175 -53.4420 -53.4059 -53.4000 -53.3669 -53.3353 -53.3222 -53.3140
   -53.3097 -53.2605 -53.2298 -53.2259 -30.0289 -29.9076 -29.9001 -29.8772
   -29.8513 -29.8404 -29.8307 -29.7831 -29.7820 -29.7601 -29.7044 -29.5432
   -29.4839 -29.4711 -29.3583 -29.3474 -29.3447 -29.3006 -29.2531 -29.2226
   -29.2147 -29.2063 -29.1467 -29.1367 -29.1147 -29.1065 -29.1038 -29.0728
   -29.0623 -29.0578 -29.0319 -29.0211 -28.9896 -28.9642 -28.9247 -28.8789
   -15.5316  -3.6065  -2.3950  -2.2672  -2.2516  -2.1961  -1.7518  -1.7208
    -1.6070  -1.5582  -1.4977  -1.3534  -1.3517  -1.0431  -0.9796  -0.9256
    -0.8896  -0.8547  -0.8484   0.0466   0.3795   0.4060   0.9716   1.1502
     1.2641   1.2824   1.4022   1.5039   1.6617   1.6784   1.8151   1.9296
     1.9648   2.0218   2.0729   2.1179   2.1529   2.2416   2.3386   2.3979
     2.5741   2.7387   2.8466

          k = 0.0279 0.0483 0.0000 ( 19485 PWs)   bands (ev):

   -53.5013 -53.4257 -53.4165 -53.4045 -53.3682 -53.3351 -53.3292 -53.3212
   -53.3032 -53.2634 -53.2377 -53.2247 -30.0156 -29.8630 -29.8202 -29.8093
   -29.8028 -29.7920 -29.7709 -29.7438 -29.6929 -29.6865 -29.6702 -29.5481
   -29.5168 -29.4957 -29.3852 -29.3585 -29.3300 -29.3280 -29.3190 -29.2489
   -29.2216 -29.2024 -29.1848 -29.1735 -29.1607 -29.1451 -29.1199 -29.1007
   -29.0831 -29.0673 -29.0442 -29.0388 -29.0362 -29.0193 -28.9777 -28.9068
   -15.5313  -3.2058  -2.2243  -2.1896  -2.1819  -1.8896  -1.5269  -1.4333
    -1.3961  -1.3662  -1.3197  -1.2381  -0.9464  -0.8135  -0.7564  -0.6380
    -0.6224  -0.6037  -0.3902   0.1271   0.3547   0.4264   0.7493   1.0498
     1.1062   1.1301   1.2214   1.3078   1.3490   1.5631   1.6334   1.7399
     1.7687   1.8870   1.9405   2.0056   2.0934   2.2255   2.3146   2.3737
     2.4156   2.4736   2.5804

          k = 0.0279-0.1128 0.0000 ( 19505 PWs)   bands (ev):

   -53.4742 -53.4391 -53.4102 -53.3970 -53.3677 -53.3618 -53.3361 -53.3083
   -53.2980 -53.2689 -53.2473 -53.2233 -30.0022 -29.7817 -29.7682 -29.7386
   -29.7302 -29.7163 -29.6748 -29.6646 -29.6292 -29.6090 -29.5688 -29.5472
   -29.5382 -29.4975 -29.4702 -29.4324 -29.3735 -29.3531 -29.3159 -29.3083
   -29.2959 -29.2709 -29.2413 -29.2044 -29.1913 -29.1752 -29.1302 -29.1236
   -29.1153 -29.1103 -29.0651 -29.0586 -29.0497 -29.0321 -29.0005 -28.9514
   -15.5310  -2.5551  -2.1624  -2.1222  -2.0952  -1.7427  -1.3191  -1.1995
    -1.1542  -0.9597  -0.8757  -0.7573  -0.5337  -0.5170  -0.3300  -0.2257
    -0.1413  -0.1216   0.0012   0.2957   0.3247   0.4121   0.4790   0.6000
     0.7331   0.8172   0.8681   1.0169   1.1211   1.2280   1.2567   1.2970
     1.3443   1.4534   1.5218   1.6606   1.8072   1.8767   2.0292   2.0957
     2.1791   2.4598   2.5486

          k = 0.0279-0.0806 0.0000 ( 19505 PWs)   bands (ev):

   -53.4741 -53.4393 -53.4100 -53.3970 -53.3677 -53.3618 -53.3360 -53.3082
   -53.2980 -53.2689 -53.2472 -53.2233 -30.0022 -29.7816 -29.7683 -29.7385
   -29.7302 -29.7163 -29.6749 -29.6645 -29.6292 -29.6089 -29.5690 -29.5470
   -29.5382 -29.4976 -29.4702 -29.4323 -29.3735 -29.3532 -29.3159 -29.3082
   -29.2958 -29.2709 -29.2413 -29.2044 -29.1913 -29.1753 -29.1302 -29.1236
   -29.1154 -29.1102 -29.0652 -29.0585 -29.0498 -29.0321 -29.0005 -28.9514
   -15.5310  -2.5551  -2.1624  -2.1222  -2.0952  -1.7427  -1.3191  -1.1995
    -1.1542  -0.9597  -0.8757  -0.7572  -0.5337  -0.5171  -0.3300  -0.2257
    -0.1413  -0.1216   0.0012   0.2957   0.3247   0.4121   0.4790   0.6000
     0.7331   0.8172   0.8681   1.0169   1.1211   1.2281   1.2566   1.2969
     1.3444   1.4533   1.5218   1.6606   1.8070   1.8768   2.0291   2.0956
     2.1791   2.4598   2.5487

          k = 0.0279-0.0483 0.0000 ( 19485 PWs)   bands (ev):

   -53.5013 -53.4257 -53.4171 -53.4038 -53.3684 -53.3354 -53.3290 -53.3211
   -53.3032 -53.2634 -53.2376 -53.2247 -30.0156 -29.8630 -29.8203 -29.8092
   -29.8028 -29.7918 -29.7711 -29.7438 -29.6928 -29.6866 -29.6702 -29.5479
   -29.5172 -29.4955 -29.3851 -29.3585 -29.3301 -29.3279 -29.3190 -29.2491
   -29.2215 -29.2024 -29.1848 -29.1735 -29.1608 -29.1451 -29.1200 -29.1006
   -29.0832 -29.0674 -29.0442 -29.0389 -29.0361 -29.0193 -28.9777 -28.9068
   -15.5313  -3.2058  -2.2243  -2.1896  -2.1820  -1.8896  -1.5269  -1.4333
    -1.3961  -1.3662  -1.3197  -1.2381  -0.9464  -0.8135  -0.7564  -0.6380
    -0.6224  -0.6037  -0.3902   0.1271   0.3548   0.4262   0.7493   1.0498
     1.1062   1.1301   1.2214   1.3078   1.3491   1.5631   1.6334   1.7400
     1.7686   1.8870   1.9405   2.0057   2.0934   2.2255   2.3145   2.3737
     2.4156   2.4736   2.5804

          k = 0.0558-0.0322 0.0000 ( 19509 PWs)   bands (ev):

   -53.4938 -53.4274 -53.4179 -53.3994 -53.3702 -53.3497 -53.3200 -53.3136
   -53.3091 -53.2665 -53.2375 -53.2259 -30.0112 -29.8284 -29.8233 -29.8004
   -29.7763 -29.7587 -29.7417 -29.7103 -29.7099 -29.6548 -29.6162 -29.5495
   -29.5200 -29.5086 -29.3706 -29.3705 -29.3284 -29.3234 -29.3117 -29.2855
   -29.2837 -29.2535 -29.1928 -29.1834 -29.1611 -29.1541 -29.1140 -29.1102
   -29.0878 -29.0803 -29.0699 -29.0691 -29.0321 -29.0042 -28.9936 -28.9088
   -15.5312  -3.0285  -2.2112  -2.1651  -2.1536  -1.7531  -1.6794  -1.4110
    -1.2462  -1.1969  -1.1573  -0.9612  -0.9520  -0.7914  -0.6115  -0.5753
    -0.5020  -0.3068  -0.2600   0.1467   0.3909   0.4142   0.5944   0.8600
     1.0530   1.0941   1.1362   1.2641   1.4302   1.4743   1.5759   1.6215
     1.6730   1.7676   1.8022   1.9052   2.0457   2.1881   2.2461   2.3050
     2.3589   2.4348   2.5010

          k = 0.0558 0.0000 0.0000 ( 19485 PWs)   bands (ev):

   -53.5013 -53.4257 -53.4168 -53.4042 -53.3683 -53.3357 -53.3288 -53.3209
   -53.3033 -53.2635 -53.2375 -53.2248 -30.0156 -29.8630 -29.8203 -29.8093
   -29.8028 -29.7918 -29.7711 -29.7438 -29.6927 -29.6866 -29.6702 -29.5479
   -29.5171 -29.4955 -29.3852 -29.3586 -29.3300 -29.3278 -29.3191 -29.2490
   -29.2216 -29.2024 -29.1849 -29.1733 -29.1608 -29.1452 -29.1200 -29.1006
   -29.0831 -29.0674 -29.0441 -29.0389 -29.0361 -29.0193 -28.9777 -28.9068
   -15.5313  -3.2058  -2.2243  -2.1896  -2.1819  -1.8896  -1.5269  -1.4333
    -1.3961  -1.3662  -1.3197  -1.2381  -0.9463  -0.8135  -0.7563  -0.6381
    -0.6223  -0.6037  -0.3902   0.1272   0.3548   0.4262   0.7493   1.0498
     1.1062   1.1301   1.2215   1.3078   1.3491   1.5630   1.6333   1.7399
     1.7687   1.8871   1.9405   2.0057   2.0933   2.2255   2.3145   2.3736
     2.4156   2.4736   2.5803

          k = 0.0558 0.0322 0.0000 ( 19509 PWs)   bands (ev):

   -53.4939 -53.4270 -53.4179 -53.4000 -53.3700 -53.3495 -53.3201 -53.3141
   -53.3087 -53.2665 -53.2375 -53.2259 -30.0111 -29.8281 -29.8236 -29.8004
   -29.7763 -29.7586 -29.7418 -29.7106 -29.7096 -29.6548 -29.6162 -29.5496
   -29.5196 -29.5090 -29.3710 -29.3703 -29.3288 -29.3232 -29.3112 -29.2853
   -29.2840 -29.2536 -29.1928 -29.1834 -29.1610 -29.1542 -29.1138 -29.1102
   -29.0877 -29.0804 -29.0699 -29.0692 -29.0321 -29.0041 -28.9937 -28.9088
   -15.5312  -3.0285  -2.2113  -2.1650  -2.1536  -1.7532  -1.6793  -1.4110
    -1.2462  -1.1969  -1.1573  -0.9613  -0.9519  -0.7914  -0.6115  -0.5753
    -0.5020  -0.3069  -0.2599   0.1465   0.3911   0.4141   0.5945   0.8600
     1.0530   1.0940   1.1362   1.2641   1.4302   1.4743   1.5760   1.6216
     1.6730   1.7676   1.8023   1.9053   2.0457   2.1882   2.2461   2.3050
     2.3588   2.4347   2.5010

          k = 0.0558-0.1289 0.0000 ( 19505 PWs)   bands (ev):

   -53.4743 -53.4389 -53.4105 -53.3969 -53.3676 -53.3619 -53.3359 -53.3082
   -53.2981 -53.2690 -53.2471 -53.2233 -30.0022 -29.7817 -29.7682 -29.7385
   -29.7301 -29.7162 -29.6748 -29.6646 -29.6292 -29.6090 -29.5687 -29.5473
   -29.5382 -29.4974 -29.4702 -29.4324 -29.3734 -29.3530 -29.3158 -29.3083
   -29.2959 -29.2709 -29.2413 -29.2043 -29.1913 -29.1753 -29.1302 -29.1237
   -29.1152 -29.1103 -29.0651 -29.0587 -29.0497 -29.0321 -29.0005 -28.9515
   -15.5310  -2.5551  -2.1624  -2.1221  -2.0952  -1.7427  -1.3191  -1.1995
    -1.1543  -0.9597  -0.8757  -0.7573  -0.5338  -0.5171  -0.3300  -0.2257
    -0.1413  -0.1216   0.0012   0.2957   0.3247   0.4120   0.4790   0.6000
     0.7331   0.8172   0.8681   1.0169   1.1211   1.2280   1.2567   1.2970
     1.3444   1.4534   1.5218   1.6606   1.8071   1.8768   2.0291   2.0957
     2.1791   2.4598   2.5486

          k = 0.0558-0.0967 0.0000 ( 19521 PWs)   bands (ev):

   -53.4532 -53.4495 -53.4236 -53.3728 -53.3678 -53.3638 -53.3608 -53.3025
   -53.2934 -53.2626 -53.2607 -53.2215 -29.9978 -29.7451 -29.7189 -29.6920
   -29.6903 -29.6828 -29.6574 -29.6234 -29.6187 -29.5662 -29.5532 -29.5505
   -29.5307 -29.4939 -29.4909 -29.4669 -29.4492 -29.4467 -29.3644 -29.3046
   -29.2875 -29.2788 -29.2548 -29.1923 -29.1866 -29.1823 -29.1327 -29.1147
   -29.1060 -29.1053 -29.0869 -29.0721 -29.0652 -29.0206 -29.0174 -29.0078
   -15.5309  -2.2782  -2.0949  -2.0787  -1.7943  -1.7840  -1.6339  -0.9242
    -0.9124  -0.8775  -0.5066  -0.4745  -0.3278  -0.2048  -0.2025  -0.1604
     0.0433   0.0459   0.1228   0.3064   0.3267   0.3548   0.3653   0.4673
     0.5210   0.5951   0.6022   0.8119   0.8696   0.9058   0.9999   1.0155
     1.0653   1.1860   1.4379   1.4433   1.5832   1.9488   2.1309   2.1420
     2.2656   2.4741   2.5101

          k = 0.0558-0.0645 0.0000 ( 19505 PWs)   bands (ev):

   -53.4740 -53.4396 -53.4098 -53.3969 -53.3678 -53.3620 -53.3358 -53.3081
   -53.2981 -53.2690 -53.2471 -53.2233 -30.0022 -29.7816 -29.7683 -29.7383
   -29.7304 -29.7164 -29.6747 -29.6647 -29.6293 -29.6088 -29.5690 -29.5470
   -29.5382 -29.4975 -29.4701 -29.4324 -29.3735 -29.3531 -29.3156 -29.3083
   -29.2960 -29.2710 -29.2413 -29.2043 -29.1914 -29.1752 -29.1302 -29.1238
   -29.1152 -29.1102 -29.0651 -29.0586 -29.0497 -29.0321 -29.0004 -28.9515
   -15.5310  -2.5551  -2.1624  -2.1222  -2.0952  -1.7427  -1.3191  -1.1995
    -1.1543  -0.9597  -0.8757  -0.7572  -0.5337  -0.5171  -0.3300  -0.2256
    -0.1413  -0.1216   0.0012   0.2958   0.3247   0.4120   0.4789   0.6000
     0.7332   0.8172   0.8681   1.0169   1.1211   1.2280   1.2566   1.2969
     1.3444   1.4534   1.5218   1.6606   1.8071   1.8768   2.0291   2.0956
     2.1790   2.4599   2.5488

          k =-0.0837 0.0483 0.0000 ( 19524 PWs)   bands (ev):

   -53.4682 -53.4521 -53.3994 -53.3874 -53.3813 -53.3709 -53.3143 -53.3137
   -53.3037 -53.2740 -53.2409 -53.2259 -30.0021 -29.7775 -29.7638 -29.7552
   -29.7473 -29.7358 -29.6773 -29.6564 -29.6380 -29.6010 -29.5791 -29.5473
   -29.4750 -29.4320 -29.4154 -29.4122 -29.3907 -29.3838 -29.3530 -29.3490
   -29.2766 -29.2754 -29.2549 -29.2288 -29.2167 -29.2157 -29.1316 -29.1227
   -29.1088 -29.0798 -29.0657 -29.0607 -29.0522 -29.0518 -28.9579 -28.9444
   -15.5310  -2.4287  -2.2715  -2.1274  -2.0878  -1.9816  -1.3154  -1.2959
    -0.9045  -0.8958  -0.8264  -0.7507  -0.6858  -0.6496  -0.1711  -0.1437
    -0.0846  -0.0278   0.0301   0.0302   0.4717   0.4914   0.5689   0.5833
     0.6721   0.7475   1.0050   1.1452   1.1515   1.2684   1.3350   1.3542
     1.4321   1.4500   1.5029   1.5580   1.7909   1.8293   1.8655   2.0017
     2.0070   2.5415   2.7064

          k =-0.0837 0.0806 0.0000 ( 19505 PWs)   bands (ev):

   -53.4741 -53.4394 -53.4099 -53.3969 -53.3678 -53.3621 -53.3358 -53.3081
   -53.2982 -53.2691 -53.2470 -53.2234 -30.0022 -29.7816 -29.7682 -29.7383
   -29.7304 -29.7163 -29.6747 -29.6647 -29.6293 -29.6088 -29.5690 -29.5469
   -29.5383 -29.4975 -29.4701 -29.4324 -29.3736 -29.3533 -29.3156 -29.3082
   -29.2959 -29.2709 -29.2413 -29.2044 -29.1913 -29.1752 -29.1302 -29.1237
   -29.1153 -29.1103 -29.0652 -29.0585 -29.0497 -29.0321 -29.0004 -28.9515
   -15.5310  -2.5551  -2.1624  -2.1222  -2.0952  -1.7427  -1.3191  -1.1995
    -1.1542  -0.9597  -0.8757  -0.7572  -0.5337  -0.5171  -0.3300  -0.2257
    -0.1412  -0.1216   0.0012   0.2957   0.3247   0.4120   0.4789   0.6000
     0.7332   0.8172   0.8681   1.0169   1.1211   1.2279   1.2566   1.2970
     1.3444   1.4534   1.5218   1.6606   1.8071   1.8768   2.0292   2.0956
     2.1791   2.4599   2.5487

          k =-0.0837 0.1128 0.0000 ( 19505 PWs)   bands (ev):

   -53.4742 -53.4390 -53.4104 -53.3969 -53.3677 -53.3620 -53.3359 -53.3081
   -53.2981 -53.2690 -53.2471 -53.2234 -30.0022 -29.7816 -29.7683 -29.7385
   -29.7302 -29.7162 -29.6749 -29.6646 -29.6292 -29.6089 -29.5689 -29.5470
   -29.5383 -29.4976 -29.4702 -29.4323 -29.3735 -29.3533 -29.3158 -29.3081
   -29.2958 -29.2709 -29.2414 -29.2044 -29.1912 -29.1753 -29.1302 -29.1236
   -29.1154 -29.1102 -29.0652 -29.0585 -29.0498 -29.0321 -29.0005 -28.9515
   -15.5310  -2.5551  -2.1625  -2.1221  -2.0952  -1.7427  -1.3191  -1.1995
    -1.1542  -0.9597  -0.8757  -0.7572  -0.5337  -0.5171  -0.3300  -0.2257
    -0.1413  -0.1216   0.0012   0.2957   0.3247   0.4120   0.4789   0.6000
     0.7331   0.8173   0.8681   1.0169   1.1211   1.2280   1.2566   1.2970
     1.3445   1.4534   1.5218   1.6606   1.8070   1.8768   2.0291   2.0957
     2.1792   2.4598   2.5487

          k =-0.0837-0.0483 0.0000 ( 19524 PWs)   bands (ev):

   -53.4688 -53.4511 -53.4001 -53.3877 -53.3809 -53.3706 -53.3144 -53.3139
   -53.3035 -53.2740 -53.2409 -53.2259 -30.0021 -29.7778 -29.7635 -29.7555
   -29.7473 -29.7354 -29.6775 -29.6560 -29.6382 -29.6010 -29.5788 -29.5476
   -29.4755 -29.4316 -29.4152 -29.4127 -29.3908 -29.3832 -29.3534 -29.3487
   -29.2763 -29.2757 -29.2548 -29.2287 -29.2167 -29.2158 -29.1320 -29.1223
   -29.1086 -29.0799 -29.0658 -29.0610 -29.0520 -29.0518 -28.9581 -28.9443
   -15.5310  -2.4287  -2.2715  -2.1273  -2.0878  -1.9815  -1.3154  -1.2959
    -0.9045  -0.8958  -0.8266  -0.7507  -0.6857  -0.6496  -0.1712  -0.1436
    -0.0846  -0.0280   0.0301   0.0304   0.4717   0.4914   0.5690   0.5831
     0.6722   0.7474   1.0049   1.1452   1.1515   1.2684   1.3349   1.3542
     1.4323   1.4501   1.5028   1.5579   1.7909   1.8292   1.8655   2.0019
     2.0071   2.5414   2.7063

     the Fermi energy is     1.6685 ev

!    total energy              =   -1454.75429359 Ry
     Harris-Foulkes estimate   =   -1454.75429492 Ry
     estimated scf accuracy    <       0.00000379 Ry

     The total energy is the sum of the following terms:

     one-electron contribution =  -11706.60888103 Ry
     hartree contribution      =    5847.16607143 Ry
     xc contribution           =    -235.78597764 Ry
     ewald contribution        =    4640.58997113 Ry
     electric field correction =       0.00021705 Ry
     smearing contrib. (-TS)   =      -0.11569454 Ry

     convergence has been achieved in  10 iterations
 
 BEEF-vdW xc energy contributions
           1 :   -202.137335894696     
           2 :    183.540717172423     
           3 :   -151.976060198268     
           4 :    116.007972007924     
           5 :   -83.7075178148130     
           6 :    60.0228336644535     
           7 :   -45.8300101243836     
           8 :    38.6664689859409     
           9 :   -34.5626905199902     
          10 :    30.0144695962149     
          11 :   -23.2927373926322     
          12 :    14.6768269869422     
          13 :   -5.75236950549697     
          14 :   -1.71853987996207     
          15 :    6.74822221922076     
          16 :   -9.50143687116247     
          17 :    11.0068644920634     
          18 :   -12.4563001290259     
          19 :    14.5155990673150     
          20 :   -17.0238676581699     
          21 :    19.1868988376967     
          22 :   -20.0991961772364     
          23 :    19.2728579819600     
          24 :   -16.8978975737291     
          25 :    13.7214413973505     
          26 :   -10.6539515261824     
          27 :    8.33896936486673     
          28 :   -6.91571928785174     
          29 :    6.06595041921562     
          30 :   -5.28568983967480     
          31 :   -23.2838798973708     
          32 :   -17.5210246729901     

     Forces acting on atoms (Ry/au):


     negative rho (up, down):  5.040E-03 0.000E+00
     atom    1 type  1   force =    -0.00102220   -0.00060218   -0.00645240
     atom    2 type  1   force =     0.00102365   -0.00058449   -0.00643754
     atom    3 type  1   force =     0.00000926    0.00119154   -0.00645830
     atom    4 type  1   force =    -0.00000828   -0.00000719   -0.00525934
     atom    5 type  1   force =    -0.00000164    0.00699222    0.00092826
     atom    6 type  1   force =    -0.00001089   -0.00001147    0.01448232
     atom    7 type  1   force =    -0.00606093   -0.00348383    0.00095607
     atom    8 type  1   force =     0.00606245   -0.00348679    0.00092875
     atom    9 type  1   force =     0.00000681   -0.00000017    0.05256147
     atom   10 type  1   force =    -0.00000202    0.00419787   -0.01325798
     atom   11 type  1   force =     0.00363489   -0.00210224   -0.01325483
     atom   12 type  1   force =    -0.00363400   -0.00209764   -0.01324226
     atom   13 type  2   force =     0.00000289   -0.00000563   -0.00549422

     Total force =     0.058074     Total SCF correction =     0.001860


     entering subroutine stress ...


     negative rho (up, down):  5.040E-03 0.000E+00
          total   stress  (Ry/bohr**3)                   (kbar)     P=  -18.18
  -0.00019838  -0.00000000   0.00000000        -29.18     -0.00      0.00
  -0.00000000  -0.00019837  -0.00000000         -0.00    -29.18     -0.00
   0.00000000  -0.00000000   0.00002599          0.00     -0.00      3.82


     number of scf cycles    =   2
     number of bfgs steps    =   1

     energy   old            =   -1454.7153453538 Ry
     energy   new            =   -1454.7542935900 Ry

     CASE: energy  _new < energy  _old

     new trust radius        =       0.0711567861 bohr
     new conv_thr            =       0.0000001000 Ry


ATOMIC_POSITIONS (crystal)
Nb1      0.166666667   0.166666667   0.402010442    0   0   0
Nb1      0.666666667   0.166666667   0.402010442    0   0   0
Nb1      0.166666667   0.666666667   0.402010442    0   0   0
Nb1      0.666666667   0.666666667   0.402010442    0   0   0
Nb1      0.833333333   0.333333333   0.500000000    0   0   0
Nb1      0.333333333   0.333333333   0.500000000    0   0   0
Nb1      0.833333333   0.833333333   0.500000000    0   0   0
Nb1      0.333333333   0.833333333   0.500000000    0   0   0
Nb1      0.000002609   0.000001422   0.603618033
Nb1      0.499474758   0.001046251   0.597506018
Nb1      0.001045950   0.499474744   0.597506286
Nb1      0.499477549   0.499477569   0.597506002
O1       0.000000639  -0.000000928   0.673251551



     Writing output data file calc.save
     Check: negative starting charge=   -0.005243
     NEW-OLD atomic charge density approx. for the potential
     Check: negative starting charge=   -0.005307

     negative rho (up, down):  5.094E-03 0.000E+00
 
     Adding external electric field

     Computed dipole along edir(3) : 
        Dipole               -0.2991 Ry au,         -0.7603 Debye
[...]

   -53.7027 -53.6568 -53.5961 -53.5935 -53.5747 -53.5720 -53.5632 -53.5550
   -53.5304 -53.5018 -53.4845 -53.4762 -30.2219 -30.1329 -30.1188 -30.0949
   -30.0758 -30.0274 -30.0144 -29.9617 -29.9511 -29.8889 -29.8798 -29.7778
   -29.7381 -29.7224 -29.6210 -29.5773 -29.5618 -29.5344 -29.5255 -29.4754
   -29.4570 -29.4448 -29.4173 -29.4049 -29.3811 -29.3728 -29.3502 -29.3331
   -29.2992 -29.2742 -29.2631 -29.2588 -29.2479 -29.2107 -29.2053 -29.1422
   -15.4330  -3.4516  -2.2714  -2.1695  -2.1202  -2.0973  -1.8811  -1.7119
    -1.6971  -1.6058  -1.5511  -1.5193  -1.2554  -1.0935  -1.0216  -0.8848
    -0.8522  -0.8071  -0.5840  -0.1491   0.1183   0.1958   0.4541   0.7829
     0.8011   0.8645   0.9643   1.0192   1.0948   1.2777   1.3925   1.4625
     1.5262   1.6276   1.6566   1.7157   1.7402   1.9070   1.9347   2.0978
     2.1709   2.2251   2.3700

          k = 0.0558-0.0322 0.0000 ( 19509 PWs)   bands (ev):

   -53.6941 -53.6505 -53.6138 -53.5885 -53.5777 -53.5695 -53.5631 -53.5549
   -53.5292 -53.5043 -53.4854 -53.4762 -30.2220 -30.1102 -30.0976 -30.0920
   -30.0443 -30.0095 -29.9889 -29.9428 -29.9296 -29.8858 -29.8223 -29.7846
   -29.7473 -29.7350 -29.6243 -29.5607 -29.5420 -29.5400 -29.5355 -29.5166
   -29.5140 -29.4664 -29.4224 -29.4211 -29.3970 -29.3924 -29.3379 -29.3373
   -29.3046 -29.3020 -29.2803 -29.2658 -29.2382 -29.2147 -29.2141 -29.1420
   -15.4329  -3.2719  -2.2962  -2.1100  -2.0930  -2.0027  -1.9313  -1.6594
    -1.5789  -1.5139  -1.4204  -1.2527  -1.2078  -1.0600  -0.8943  -0.8165
    -0.7611  -0.5904  -0.4257  -0.1352   0.1444   0.1846   0.3257   0.5315
     0.7282   0.7645   0.8768   1.0161   1.0971   1.2108   1.2823   1.3651
     1.4731   1.5191   1.5732   1.5765   1.7139   1.8865   1.9543   1.9569
     2.0377   2.0801   2.2547

          k = 0.0558 0.0000 0.0000 ( 19485 PWs)   bands (ev):

   -53.7027 -53.6568 -53.5961 -53.5935 -53.5748 -53.5720 -53.5632 -53.5549
   -53.5304 -53.5018 -53.4845 -53.4762 -30.2219 -30.1329 -30.1188 -30.0949
   -30.0758 -30.0274 -30.0144 -29.9617 -29.9511 -29.8889 -29.8798 -29.7778
   -29.7381 -29.7224 -29.6210 -29.5773 -29.5618 -29.5344 -29.5255 -29.4754
   -29.4571 -29.4448 -29.4173 -29.4049 -29.3811 -29.3728 -29.3502 -29.3331
   -29.2992 -29.2742 -29.2631 -29.2588 -29.2480 -29.2107 -29.2053 -29.1422
   -15.4330  -3.4516  -2.2714  -2.1695  -2.1202  -2.0973  -1.8811  -1.7119
    -1.6971  -1.6058  -1.5511  -1.5193  -1.2554  -1.0935  -1.0216  -0.8848
    -0.8522  -0.8071  -0.5840  -0.1491   0.1182   0.1958   0.4541   0.7829
     0.8012   0.8645   0.9643   1.0193   1.0948   1.2776   1.3925   1.4625
     1.5262   1.6276   1.6566   1.7157   1.7402   1.9070   1.9348   2.0978
     2.1708   2.2251   2.3700

          k = 0.0558 0.0322 0.0000 ( 19509 PWs)   bands (ev):

   -53.6941 -53.6505 -53.6138 -53.5885 -53.5777 -53.5695 -53.5631 -53.5549
   -53.5292 -53.5043 -53.4854 -53.4762 -30.2220 -30.1102 -30.0977 -30.0920
   -30.0443 -30.0095 -29.9889 -29.9428 -29.9296 -29.8858 -29.8223 -29.7846
   -29.7473 -29.7350 -29.6243 -29.5607 -29.5420 -29.5400 -29.5355 -29.5166
   -29.5140 -29.4664 -29.4224 -29.4211 -29.3970 -29.3924 -29.3379 -29.3373
   -29.3046 -29.3020 -29.2803 -29.2658 -29.2382 -29.2147 -29.2141 -29.1420
   -15.4329  -3.2719  -2.2962  -2.1100  -2.0930  -2.0027  -1.9313  -1.6595
    -1.5789  -1.5139  -1.4204  -1.2527  -1.2078  -1.0600  -0.8943  -0.8165
    -0.7611  -0.5904  -0.4257  -0.1352   0.1444   0.1847   0.3257   0.5315
     0.7282   0.7645   0.8768   1.0161   1.0970   1.2108   1.2823   1.3651
     1.4731   1.5192   1.5732   1.5766   1.7139   1.8865   1.9543   1.9570
     2.0377   2.0801   2.2547

          k = 0.0558-0.1289 0.0000 ( 19505 PWs)   bands (ev):

   -53.6705 -53.6363 -53.6249 -53.6044 -53.5933 -53.5742 -53.5591 -53.5499
   -53.5201 -53.5078 -53.4914 -53.4759 -30.2214 -30.0705 -30.0582 -30.0296
   -29.9916 -29.9590 -29.9370 -29.9010 -29.8755 -29.8274 -29.8098 -29.7791
   -29.7489 -29.7192 -29.6813 -29.6539 -29.6113 -29.5700 -29.5429 -29.5224
   -29.4949 -29.4832 -29.4680 -29.4364 -29.4146 -29.4029 -29.3799 -29.3500
   -29.3346 -29.3208 -29.2792 -29.2639 -29.2538 -29.2271 -29.2153 -29.1812
   -15.4328  -2.7810  -2.2944  -2.0934  -2.0644  -1.9296  -1.5992  -1.4588
    -1.3948  -1.2354  -1.1752  -1.0872  -0.8380  -0.8161  -0.6291  -0.5216
    -0.4513  -0.4160  -0.2216  -0.0530   0.0415   0.1547   0.1966   0.3273
     0.3942   0.5203   0.5925   0.6925   0.8317   0.9080   0.9977   1.0487
     1.1332   1.1885   1.2851   1.3376   1.5295   1.6273   1.7199   1.8687
     1.9734   2.1213   2.4794

          k = 0.0558-0.0967 0.0000 ( 19521 PWs)   bands (ev):

   -53.6429 -53.6365 -53.6315 -53.6089 -53.6057 -53.5874 -53.5544 -53.5461
   -53.5126 -53.5076 -53.4988 -53.4757 -30.2212 -30.0427 -30.0254 -29.9899
   -29.9323 -29.9310 -29.9247 -29.8932 -29.8717 -29.7994 -29.7836 -29.7476
   -29.7358 -29.7106 -29.7101 -29.6829 -29.6617 -29.6545 -29.6226 -29.5071
   -29.5056 -29.4816 -29.4794 -29.4110 -29.4104 -29.3883 -29.3786 -29.3619
   -29.3405 -29.3035 -29.2995 -29.2870 -29.2665 -29.2399 -29.2243 -29.2074
   -15.4327  -2.3896  -2.1398  -2.1380  -1.9746  -1.9585  -1.7925  -1.2154
    -1.1534  -1.1031  -0.9233  -0.7803  -0.6550  -0.5860  -0.5335  -0.4929
    -0.2837  -0.2760  -0.2455  -0.0234  -0.0153   0.0805   0.1259   0.1746
     0.2788   0.3192   0.3504   0.6289   0.6440   0.6509   0.6984   0.7614
     0.9523   0.9533   1.0269   1.1784   1.1879   1.7452   1.8983   1.9840
     2.0279   2.1753   2.3884

          k = 0.0558-0.0645 0.0000 ( 19505 PWs)   bands (ev):

   -53.6705 -53.6363 -53.6249 -53.6044 -53.5933 -53.5742 -53.5591 -53.5499
   -53.5201 -53.5078 -53.4914 -53.4759 -30.2214 -30.0705 -30.0582 -30.0296
   -29.9916 -29.9590 -29.9370 -29.9010 -29.8755 -29.8274 -29.8098 -29.7791
   -29.7489 -29.7192 -29.6813 -29.6539 -29.6113 -29.5700 -29.5429 -29.5224
   -29.4949 -29.4832 -29.4681 -29.4365 -29.4146 -29.4029 -29.3799 -29.3500
   -29.3346 -29.3208 -29.2792 -29.2639 -29.2538 -29.2271 -29.2154 -29.1812
   -15.4328  -2.7810  -2.2944  -2.0934  -2.0644  -1.9296  -1.5992  -1.4588
    -1.3948  -1.2354  -1.1752  -1.0872  -0.8380  -0.8161  -0.6291  -0.5216
    -0.4512  -0.4160  -0.2216  -0.0530   0.0415   0.1547   0.1966   0.3273
     0.3942   0.5203   0.5925   0.6925   0.8318   0.9080   0.9977   1.0487
     1.1332   1.1885   1.2850   1.3376   1.5295   1.6272   1.7198   1.8687
     1.9734   2.1213   2.4794

          k =-0.0837 0.0483 0.0000 ( 19524 PWs)   bands (ev):

   -53.6618 -53.6503 -53.6237 -53.6122 -53.5778 -53.5697 -53.5604 -53.5550
   -53.5171 -53.5157 -53.4881 -53.4761 -30.2216 -30.0681 -30.0547 -30.0414
   -30.0125 -29.9660 -29.9302 -29.8892 -29.8605 -29.8374 -29.8272 -29.8054
   -29.6954 -29.6603 -29.6341 -29.6227 -29.6193 -29.5934 -29.5766 -29.5424
   -29.5253 -29.4870 -29.4682 -29.4592 -29.4465 -29.4225 -29.3770 -29.3420
   -29.3250 -29.3061 -29.2939 -29.2621 -29.2531 -29.2306 -29.1865 -29.1720
   -15.4328  -2.6082  -2.5424  -2.0900  -2.0662  -2.0562  -1.6436  -1.4897
    -1.2333  -1.1815  -1.1378  -1.0734  -0.9082  -0.8869  -0.5267  -0.4900
    -0.3916  -0.3436  -0.2272  -0.1226   0.1101   0.1313   0.2456   0.3180
     0.4088   0.4207   0.7289   0.8696   0.9061   0.9401   1.0432   1.0805
     1.0911   1.1939   1.2578   1.3635   1.4019   1.5882   1.6086   1.7731
     1.9650   2.0846   2.6031

          k =-0.0837 0.0806 0.0000 ( 19505 PWs)   bands (ev):

   -53.6705 -53.6363 -53.6249 -53.6044 -53.5933 -53.5742 -53.5591 -53.5499
   -53.5201 -53.5078 -53.4914 -53.4759 -30.2214 -30.0705 -30.0582 -30.0296
   -29.9916 -29.9590 -29.9370 -29.9010 -29.8755 -29.8274 -29.8098 -29.7791
   -29.7489 -29.7192 -29.6813 -29.6539 -29.6113 -29.5700 -29.5429 -29.5224
   -29.4949 -29.4832 -29.4680 -29.4365 -29.4146 -29.4029 -29.3799 -29.3500
   -29.3346 -29.3208 -29.2792 -29.2639 -29.2537 -29.2271 -29.2153 -29.1812
   -15.4328  -2.7810  -2.2944  -2.0934  -2.0644  -1.9296  -1.5992  -1.4588
    -1.3948  -1.2354  -1.1752  -1.0872  -0.8380  -0.8161  -0.6291  -0.5216
    -0.4512  -0.4160  -0.2216  -0.0530   0.0415   0.1547   0.1966   0.3273
     0.3942   0.5203   0.5925   0.6925   0.8317   0.9080   0.9977   1.0487
     1.1332   1.1885   1.2850   1.3376   1.5295   1.6273   1.7199   1.8687
     1.9734   2.1213   2.4794

          k =-0.0837 0.1128 0.0000 ( 19505 PWs)   bands (ev):

   -53.6705 -53.6363 -53.6249 -53.6044 -53.5933 -53.5742 -53.5591 -53.5499
   -53.5201 -53.5078 -53.4914 -53.4759 -30.2214 -30.0705 -30.0582 -30.0296
   -29.9916 -29.9590 -29.9370 -29.9010 -29.8755 -29.8274 -29.8098 -29.7791
   -29.7489 -29.7192 -29.6813 -29.6539 -29.6113 -29.5700 -29.5429 -29.5224
   -29.4949 -29.4832 -29.4680 -29.4365 -29.4146 -29.4029 -29.3799 -29.3500
   -29.3346 -29.3208 -29.2792 -29.2639 -29.2538 -29.2271 -29.2153 -29.1812
   -15.4328  -2.7810  -2.2944  -2.0934  -2.0644  -1.9296  -1.5992  -1.4588
    -1.3948  -1.2354  -1.1752  -1.0872  -0.8380  -0.8160  -0.6291  -0.5216
    -0.4512  -0.4160  -0.2216  -0.0530   0.0415   0.1547   0.1966   0.3273
     0.3942   0.5203   0.5925   0.6925   0.8317   0.9080   0.9977   1.0487
     1.1332   1.1885   1.2850   1.3376   1.5295   1.6273   1.7199   1.8687
     1.9734   2.1213   2.4794

          k =-0.0837-0.0483 0.0000 ( 19524 PWs)   bands (ev):

   -53.6618 -53.6503 -53.6237 -53.6122 -53.5778 -53.5697 -53.5604 -53.5550
   -53.5171 -53.5157 -53.4881 -53.4761 -30.2216 -30.0681 -30.0547 -30.0414
   -30.0125 -29.9660 -29.9303 -29.8892 -29.8605 -29.8374 -29.8272 -29.8054
   -29.6954 -29.6603 -29.6341 -29.6227 -29.6193 -29.5934 -29.5766 -29.5424
   -29.5253 -29.4870 -29.4682 -29.4592 -29.4465 -29.4225 -29.3770 -29.3420
   -29.3250 -29.3061 -29.2939 -29.2621 -29.2531 -29.2306 -29.1865 -29.1720
   -15.4328  -2.6082  -2.5424  -2.0900  -2.0662  -2.0562  -1.6436  -1.4897
    -1.2333  -1.1815  -1.1378  -1.0734  -0.9082  -0.8869  -0.5267  -0.4900
    -0.3916  -0.3436  -0.2272  -0.1226   0.1101   0.1313   0.2456   0.3180
     0.4088   0.4206   0.7289   0.8696   0.9061   0.9401   1.0432   1.0805
     1.0912   1.1939   1.2579   1.3635   1.4020   1.5882   1.6086   1.7731
     1.9650   2.0846   2.6031

     the Fermi energy is     1.3992 ev

!    total energy              =   -1454.77489023 Ry
     Harris-Foulkes estimate   =   -1454.77489009 Ry
     estimated scf accuracy    <       0.00000004 Ry

     The total energy is the sum of the following terms:

     one-electron contribution =  -11657.29297794 Ry
     hartree contribution      =    5821.36748578 Ry
     xc contribution           =    -235.87897780 Ry
     ewald contribution        =    4617.14675744 Ry
     electric field correction =       0.00061423 Ry
     smearing contrib. (-TS)   =      -0.11779193 Ry

     convergence has been achieved in  12 iterations
 
 BEEF-vdW xc energy contributions
           1 :   -202.230046581876     
           2 :    183.638389541309     
           3 :   -152.088185187507     
           4 :    116.124047678382     
           5 :   -83.7909231825889     
           6 :    60.0346281178587     
           7 :   -45.7499975628671     
           8 :    38.4980506210447     
           9 :   -34.3277382592880     
          10 :    29.7460303591849     
          11 :   -23.0263009486944     
          12 :    14.4346219724623     
          13 :   -5.52816978006246     
          14 :   -1.95863640940428     
          15 :    7.04570968922692     
          16 :   -9.87576946395907     
          17 :    11.4335993729146     
          18 :   -12.8711881318354     
          19 :    14.8484474740537     
          20 :   -17.2420220481526     
          21 :    19.3188904405512     
          22 :   -20.2215175376004     
          23 :    19.4662023601380     
          24 :   -17.1994250801132     
          25 :    14.1006419754830     
          26 :   -11.0279325871595     
          27 :    8.62031023224949     
          28 :   -7.06253805160765     
          29 :    6.10358074319907     
          30 :   -5.28789299005570     
          31 :   -23.2886386094020     
          32 :   -17.5250095255456     

     Forces acting on atoms (Ry/au):


     negative rho (up, down):  5.108E-03 0.000E+00
     atom    1 type  1   force =    -0.00233628   -0.00134803   -0.00117817
     atom    2 type  1   force =     0.00233647   -0.00134712   -0.00117743
     atom    3 type  1   force =     0.00000072    0.00269649   -0.00117753
     atom    4 type  1   force =    -0.00000030   -0.00000087   -0.00015333
     atom    5 type  1   force =    -0.00000624   -0.01352759    0.00329521
     atom    6 type  1   force =     0.00000610    0.00000798   -0.01326541
     atom    7 type  1   force =     0.01172071    0.00676300    0.00328088
     atom    8 type  1   force =    -0.01172274    0.00675813    0.00328846
     atom    9 type  1   force =     0.00000061    0.00000042    0.00120847
     atom   10 type  1   force =     0.00000015    0.00096959    0.00160474
     atom   11 type  1   force =     0.00083792   -0.00048665    0.00160247
     atom   12 type  1   force =    -0.00083686   -0.00048552    0.00160902
     atom   13 type  2   force =    -0.00000025    0.00000017    0.00106263

     Total force =     0.003624     Total SCF correction =     0.000394
     SCF correction compared to forces is large: reduce conv_thr to get better values


     entering subroutine stress ...


     negative rho (up, down):  5.108E-03 0.000E+00
          total   stress  (Ry/bohr**3)                   (kbar)     P=  -14.02
  -0.00014730  -0.00000000   0.00000000        -21.67     -0.00      0.00
  -0.00000000  -0.00014731  -0.00000000         -0.00    -21.67     -0.00
   0.00000000  -0.00000000   0.00000877          0.00     -0.00      1.29


     bfgs converged in  12 scf cycles and  11 bfgs steps
     (criteria: energy <  1.0E+00, force <  1.9E-03)

     End of BFGS Geometry Optimization

     Final energy   =   -1454.7748902286 Ry
Begin final coordinates

ATOMIC_POSITIONS (crystal)
Nb1      0.166666667   0.166666667   0.402010442    0   0   0
Nb1      0.666666667   0.166666667   0.402010442    0   0   0
Nb1      0.166666667   0.666666667   0.402010442    0   0   0
Nb1      0.666666667   0.666666667   0.402010442    0   0   0
Nb1      0.833333333   0.333333333   0.500000000    0   0   0
Nb1      0.333333333   0.333333333   0.500000000    0   0   0
Nb1      0.833333333   0.833333333   0.500000000    0   0   0
Nb1      0.333333333   0.833333333   0.500000000    0   0   0
Nb1      0.000001552  -0.000001116   0.616473773
Nb1      0.500931005  -0.001858098   0.591667338
Nb1     -0.001855482   0.500928574   0.591669050
Nb1      0.500931055   0.500929795   0.591671445
O1       0.000003850  -0.000006694   0.686114954
End final coordinates



     Writing output data file calc.save
 
     init_run     :     12.84s CPU     13.32s WALL (       1 calls)
     electrons    :   4027.00s CPU   4222.20s WALL (      12 calls)
     update_pot   :     32.19s CPU     33.42s WALL (      11 calls)
     forces       :    190.65s CPU    198.10s WALL (      12 calls)
     stress       :    603.10s CPU    626.19s WALL (      12 calls)

     Called by init_run:
     wfcinit      :      5.33s CPU      5.43s WALL (       1 calls)
     potinit      :      2.04s CPU      2.19s WALL (       1 calls)

     Called by electrons:
     c_bands      :   1637.59s CPU   1705.86s WALL (     155 calls)
     sum_band     :    809.98s CPU    846.92s WALL (     155 calls)
     v_of_rho     :    258.13s CPU    275.99s WALL (     167 calls)
     newd         :    723.92s CPU    737.33s WALL (     167 calls)
     mix_rho      :      9.66s CPU      9.93s WALL (     155 calls)
     vdW_energy   :    133.76s CPU    147.54s WALL (     599 calls)
     vdW_ffts     :    321.92s CPU    331.89s WALL (    1222 calls)
     vdW_v        :    120.19s CPU    126.56s WALL (     599 calls)

     Called by c_bands:
     init_us_2    :      9.89s CPU      9.93s WALL (    1675 calls)
     cegterg      :   1510.84s CPU   1552.47s WALL (     775 calls)

     Called by *egterg:
     h_psi        :    994.70s CPU   1017.58s WALL (    4051 calls)
     s_psi        :     91.41s CPU     91.65s WALL (    4051 calls)
     g_psi        :      5.85s CPU      5.91s WALL (    3271 calls)
     cdiaghg      :    136.45s CPU    137.55s WALL (    3991 calls)

     Called by h_psi:
     add_vuspsi   :     93.44s CPU     93.72s WALL (    4051 calls)

     General routines
     calbec       :    141.90s CPU    145.10s WALL (    4946 calls)
     fft          :    495.35s CPU    523.07s WALL (   36269 calls)
     ffts         :      0.63s CPU      0.67s WALL (     322 calls)
     fftw         :    620.75s CPU    646.00s WALL (  441369 calls)
     interpolate  :      5.80s CPU      5.96s WALL (     322 calls)
     davcio       :      0.00s CPU      0.03s WALL (       5 calls)
 
     Parallel routines
     fft_scatter  :    645.83s CPU    694.41s WALL (  477960 calls)
 
     PWSCF        :     1h22m CPU        1h25m WALL

 
   This run was terminated on:  10:53:52   3May2018            

=------------------------------------------------------------------------------=
   JOB DONE.
=------------------------------------------------------------------------------=
Job  /afs/slac/g/suncat/bin/suncat-tsmpirun -x LD_LIBRARY_PATH -wdir /scratch/qe707468_lp74w pw.x -npool 4 -in pw.inp

TID   HOST_NAME   COMMAND_LINE            STATUS            TERMINATION_TIME
===== ========== ================  =======================  ===================
00000 suncat0002 pw.x -npool 4 -i  Done                     05/03/2018 10:53:52
00001 suncat0002 pw.x -npool 4 -i  Done                     05/03/2018 10:53:52
00002 suncat0002 pw.x -npool 4 -i  Done                     05/03/2018 10:53:52
00003 suncat0002 pw.x -npool 4 -i  Done                     05/03/2018 10:53:52
00004 suncat0002 pw.x -npool 4 -i  Done                     05/03/2018 10:53:52
00005 suncat0002 pw.x -npool 4 -i  Done                     05/03/2018 10:53:52
00006 suncat0002 pw.x -npool 4 -i  Done                     05/03/2018 10:53:52
00007 suncat0002 pw.x -npool 4 -i  Done                     05/03/2018 10:53:52
00008 suncat0185 pw.x -npool 4 -i  Done                     05/03/2018 10:53:52
00009 suncat0185 pw.x -npool 4 -i  Done                     05/03/2018 10:53:52
00010 suncat0185 pw.x -npool 4 -i  Done                     05/03/2018 10:53:52
00011 suncat0185 pw.x -npool 4 -i  Done                     05/03/2018 10:53:52
00012 suncat0185 pw.x -npool 4 -i  Done                     05/03/2018 10:53:52
00013 suncat0185 pw.x -npool 4 -i  Done                     05/03/2018 10:53:52
00014 suncat0185 pw.x -npool 4 -i  Done                     05/03/2018 10:53:52
00015 suncat0185 pw.x -npool 4 -i  Done                     05/03/2018 10:53:52
00016 suncat0278 pw.x -npool 4 -i  Done                     05/03/2018 10:53:52
00017 suncat0278 pw.x -npool 4 -i  Done                     05/03/2018 10:53:52
00018 suncat0278 pw.x -npool 4 -i  Done                     05/03/2018 10:53:52
00019 suncat0278 pw.x -npool 4 -i  Done                     05/03/2018 10:53:52
00020 suncat0278 pw.x -npool 4 -i  Done                     05/03/2018 10:53:52
00021 suncat0278 pw.x -npool 4 -i  Done                     05/03/2018 10:53:52
00022 suncat0278 pw.x -npool 4 -i  Done                     05/03/2018 10:53:52
00023 suncat0278 pw.x -npool 4 -i  Done                     05/03/2018 10:53:52
00024 suncat0264 pw.x -npool 4 -i  Done                     05/03/2018 10:53:52
00025 suncat0264 pw.x -npool 4 -i  Done                     05/03/2018 10:53:52
00026 suncat0264 pw.x -npool 4 -i  Done                     05/03/2018 10:53:52
00027 suncat0264 pw.x -npool 4 -i  Done                     05/03/2018 10:53:52
00028 suncat0264 pw.x -npool 4 -i  Done                     05/03/2018 10:53:52
00029 suncat0264 pw.x -npool 4 -i  Done                     05/03/2018 10:53:52
00030 suncat0264 pw.x -npool 4 -i  Done                     05/03/2018 10:53:52
00031 suncat0264 pw.x -npool 4 -i  Done                     05/03/2018 10:53:52
