  python dir          : /nfs/slac/g/suncatfs/sw/espv20/lib/python2.7/site-packages/espresso
  espresso dir        : /nfs/slac/g/suncatfs/sw/espv18/espresso-dynpy-beef/bin
  pseudo dir          : /afs/slac.stanford.edu/u/if/mamunm/psp/gbrv1.5pbe
  ase-espresso py git : ffa2778-git



     Program PWSCF v.5.1rc2 (svn rev. 11289) starts on 13Jan2018 at 18:33:25 

     This program is part of the open-source Quantum ESPRESSO suite
     for quantum simulation of materials; please cite
         "P. Giannozzi et al., J. Phys.:Condens. Matter 21 395502 (2009);
          URL http://www.quantum-espresso.org", 
     in publications or presentations arising from this work. More details at
     http://www.quantum-espresso.org/quote

     Parallel version (MPI), running on    32 processors
     R & G space division:  proc/nbgrp/npool/nimage =      32
     Reading input from pw.inp
     Message from routine read_cards :
     DEPRECATED: no units specified in CELL_PARAMETERS card

     Current dimensions of program PWSCF are:
     Max number of different atomic species (ntypx) = 10
     Max number of k-points (npk) =  40000
     Max angular momentum in pseudopotentials (lmaxx) =  3
     Presently stress not available with electric field


     **************************************************************************
     Initializing libbeef V0.1.1 with the BEEF-vdW functional.
     Citation: Wellendorff et al., PRB 85, 235149 (2012).
     **************************************************************************


     IMPORTANT: XC functional enforced from input :
     Exchange-correlation      = BEEF-VDW ( 1  4 27 13 2)
     Any further DFT definition will be discarded
     Please, verify this is what you really want


     Subspace diagonalization in iterative solution of the eigenvalue problem:
     a serial algorithm will be used

 
     Parallelization info
     --------------------
     sticks:   dense  smooth     PW     G-vecs:    dense   smooth      PW
     Min          89      35     10                16921     4265     672
     Max          90      36     12                16938     4304     683
     Sum        2869    1147    337               541807   137189   21637
 


     bravais-lattice index     =            0
     lattice parameter (alat)  =       1.8897  a.u.
     unit-cell volume          =    4552.2840 (a.u.)^3
     number of atoms/cell      =           13
     number of atomic types    =            2
     number of electrons       =       169.00
     number of Kohn-Sham states=           94
     kinetic-energy cutoff     =      36.7493  Ry
     charge density cutoff     =     367.4932  Ry
     convergence threshold     =      1.0E-05
     mixing beta               =       0.3000
     number of iterations used =           10  plain     mixing
     Exchange-correlation      = BEEF-VDW ( 1  4 27 13 2)
     nstep                     =           50


     celldm(1)=   1.889726  celldm(2)=   0.000000  celldm(3)=   0.000000
     celldm(4)=   0.000000  celldm(5)=   0.000000  celldm(6)=   0.000000

     crystal axes: (cart. coord. in units of alat)
               a(1) = (   5.627661   0.000000   0.000000 )  
               a(2) = (   2.813831   4.873698   0.000000 )  
               a(3) = (   0.000000   0.000000  24.594966 )  

     reciprocal axes: (cart. coord. in units 2 pi/alat)
               b(1) = (  0.177694 -0.102592  0.000000 )  
               b(2) = (  0.000000  0.205183  0.000000 )  
               b(3) = (  0.000000  0.000000  0.040659 )  


     PseudoPot. # 1 for Mo read from file:
     /afs/slac.stanford.edu/u/if/mamunm/psp/gbrv1.5pbe/Mo.UPF
     MD5 check sum: 30c4dcd161f5d35cd49bb5239c51a633
     Pseudo is Ultrasoft + core correction, Zval = 14.0
     Generated by new atomic code, or converted to UPF format
     Using radial grid of  889 points,  6 beta functions with: 
                l(1) =   0
                l(2) =   0
                l(3) =   1
                l(4) =   1
                l(5) =   2
                l(6) =   2
     Q(r) pseudized with  6 coefficients,  rinner =    1.000   1.000   1.000
                                                       1.000   1.000

     PseudoPot. # 2 for H  read from file:
     /afs/slac.stanford.edu/u/if/mamunm/psp/gbrv1.5pbe/H.UPF
     MD5 check sum: 761ae9a214b05c3daf00ab9f6b793d6f
     Pseudo is Ultrasoft, Zval =  1.0
     Generated by new atomic code, or converted to UPF format
     Using radial grid of  615 points,  2 beta functions with: 
                l(1) =   0
                l(2) =   0
     Q(r) pseudized with  8 coefficients,  rinner =    0.700

     vdW kernel table read from file vdW_kernel_table
     MD5 check sum: 095c7af220d748ca6e76c0b4c6cfb241

     atomic species   valence    mass     pseudopotential
        Mo1           14.00    95.95000     Mo( 1.00)
        H1             1.00     1.00800     H ( 1.00)

     No symmetry found



   Cartesian axes

     site n.     atom                  positions (alat units)
         1           Mo1 tau(   1) = (   1.4069153   0.8122829  10.0000000  )
         2           Mo1 tau(   2) = (   4.2207459   0.8122829  10.0000000  )
         3           Mo1 tau(   3) = (   2.8138306   3.2491317  10.0000000  )
         4           Mo1 tau(   4) = (   5.6276612   3.2491317  10.0000000  )
         5           Mo1 tau(   5) = (   5.6276612   1.6245658  12.2974831  )
         6           Mo1 tau(   6) = (   2.8138306   1.6245658  12.2974831  )
         7           Mo1 tau(   7) = (   7.0345765   4.0614146  12.2974831  )
         8           Mo1 tau(   8) = (   4.2207459   4.0614146  12.2974831  )
         9           Mo1 tau(   9) = (   0.0000000   0.0000000  14.5949661  )
        10           Mo1 tau(  10) = (   2.8138306   0.0000000  14.5949661  )
        11           Mo1 tau(  11) = (   1.4069153   2.4368488  14.5949661  )
        12           Mo1 tau(  12) = (   4.2207459   2.4368488  14.5949661  )
        13           H1  tau(  13) = (   0.0000000   0.0000000  16.4449661  )

     number of k points=    20  Fermi-Dirac smearing, width (Ry)=  0.0110
                       cart. coord. in units 2pi/alat
        k(    1) = (   0.0000000   0.0000000   0.0000000), wk =   0.0555556
        k(    2) = (   0.0000000   0.0341972   0.0000000), wk =   0.1111111
        k(    3) = (   0.0000000   0.0683943   0.0000000), wk =   0.1111111
        k(    4) = (   0.0000000  -0.1025915   0.0000000), wk =   0.0555556
        k(    5) = (   0.0296156  -0.0170986   0.0000000), wk =   0.1111111
        k(    6) = (   0.0296156   0.0170986   0.0000000), wk =   0.1111111
        k(    7) = (   0.0296156   0.0512958   0.0000000), wk =   0.1111111
        k(    8) = (   0.0296156  -0.1196901   0.0000000), wk =   0.1111111
        k(    9) = (   0.0296156  -0.0854929   0.0000000), wk =   0.1111111
        k(   10) = (   0.0296156  -0.0512958   0.0000000), wk =   0.1111111
        k(   11) = (   0.0592312  -0.0341972   0.0000000), wk =   0.1111111
        k(   12) = (   0.0592312   0.0000000   0.0000000), wk =   0.1111111
        k(   13) = (   0.0592312   0.0341972   0.0000000), wk =   0.1111111
        k(   14) = (   0.0592312  -0.1367887   0.0000000), wk =   0.1111111
        k(   15) = (   0.0592312  -0.1025915   0.0000000), wk =   0.1111111
        k(   16) = (   0.0592312  -0.0683943   0.0000000), wk =   0.1111111
        k(   17) = (  -0.0888469   0.0512958   0.0000000), wk =   0.0555556
        k(   18) = (  -0.0888469   0.0854929   0.0000000), wk =   0.1111111
        k(   19) = (  -0.0888469   0.1196901   0.0000000), wk =   0.1111111
        k(   20) = (  -0.0888469  -0.0512958   0.0000000), wk =   0.0555556

     Dense  grid:   541807 G-vectors     FFT dimensions: (  72,  72, 288)

     Smooth grid:   137189 G-vectors     FFT dimensions: (  45,  45, 180)

     Largest allocated arrays     est. size (Mb)     dimensions
        Kohn-Sham Wavefunctions         0.81 Mb     (     564,   94)
        NL pseudopotentials             1.88 Mb     (     564,  218)
        Each V/rho on FFT grid          0.71 Mb     (   46656)
        Each G-vector array             0.13 Mb     (   16923)
        G-vector shells                 0.06 Mb     (    7559)
     Largest temporary arrays     est. size (Mb)     dimensions
        Auxiliary wavefunctions         3.24 Mb     (     564,  376)
        Each subspace H/S matrix        2.16 Mb     (     376,  376)
        Each <psi_i|beta_j> matrix      0.31 Mb     (     218,   94)
        Arrays for rho mixing           7.12 Mb     (   46656,   10)

     Initial potential from superposition of free atoms
     Check: negative starting charge=   -0.005000

     starting charge  168.98723, renormalised to  169.00000

     negative rho (up, down):  5.000E-03 0.000E+00


     ************************************************************************
     *
     * You are using vdW-DF for exchange-correlation in this calculation.
     * Please cite the following three references that made this development
     * possible:
     *
     *   M. Dion, H. Rydberg, E. Schroder, D. C. Langreth, and
     *   B. I. Lundqvist, Phys. Rev. Lett. 92, 246401 (2004).
     *
     *   T. Thonhauser, V. R. Cooper, S. Li, A. Puzder, P. Hyldgaard, and
     *   D. C. Langreth, Phys. Rev. B 76, 125112 (2007).
     *
     *   G. Roman-Perez and J. M. Soler, Phys. Rev. Lett. 103, 096102 (2009).
     *
     *
     * If you are using vdW-DF2, please also cite:
     *
     *   K. Lee, E. D. Murray, L. Kong, B. I. Lundqvist, and
     *   D. C. Langreth, Phys. Rev. B 82, 081101(R) (2010).
     *
     *
     * If you are calculating the stress with vdW-DF, please also cite:
     *
     *   R. Sabatini, E. Kucukbenli, B. Kolb, T. Thonhauser, and
     *   S. de Gironcoli, J. Phys.: Condens. Matter 24, 424209 (2012).
     *
     ************************************************************************

     Carrying out vdW-DF run using the following parameters:

     Nqs =      20    Nr_points =    1024   r_max =   100.000
     q_mesh =
               0.00001000     0.04494208     0.09755937     0.15916263
               0.23128650     0.31572767     0.41458969     0.53033537
               0.66584808     0.82450364     1.01025438     1.22772762
               1.48234092     1.78043706     2.12944203     2.53805004
               3.01644009     3.57652955     4.23227104     5.00000000

     Gradients computed in reciprocal space

     ************************************************************************


 
     Adding external electric field

     Computed dipole along edir(3) : 
        Dipole               -0.0005 Ry au,         -0.0013 Debye
        Dipole field         -0.0000 Ry au
 
        Potential amp.        0.0001 Ry
        Total length         45.3158 bohr
 
     Starting wfc are  157 randomized atomic wfcs

     total cpu time spent up to now is       22.5 secs

     per-process dynamical memory:    48.8 Mb

     Self-consistent Calculation

     iteration #  1     ecut=    36.75 Ry     beta=0.30
     Davidson diagonalization with overlap
     ethr =  1.00E-02,  avg # of iterations =  2.0

     negative rho (up, down):  4.931E-03 0.000E+00
 
     Adding external electric field

     Computed dipole along edir(3) : 
        Dipole               -1.6423 Ry au,         -4.1743 Debye
        Dipole field         -0.0045 Ry au
 
        Potential amp.        0.4109 Ry
        Total length         45.3158 bohr
 

     total cpu time spent up to now is       57.2 secs

     total energy              =   -1677.76706117 Ry
     Harris-Foulkes estimate   =   -1680.98415973 Ry
     estimated scf accuracy    <       6.70639939 Ry

     iteration #  2     ecut=    36.75 Ry     beta=0.30
     Davidson diagonalization with overlap
     ethr =  3.97E-03,  avg # of iterations =  8.1

     negative rho (up, down):  3.211E-03 0.000E+00
 
     Adding external electric field

     Computed dipole along edir(3) : 
        Dipole                2.9193 Ry au,          7.4200 Debye
        Dipole field          0.0081 Ry au
 
        Potential amp.       -0.7304 Ry
        Total length         45.3158 bohr
 

     total cpu time spent up to now is      118.7 secs

     total energy              =   -1671.20104609 Ry
     Harris-Foulkes estimate   =   -1688.61846602 Ry
     estimated scf accuracy    <     259.45560612 Ry

     iteration #  3     ecut=    36.75 Ry     beta=0.30
     Davidson diagonalization with overlap
     ethr =  3.97E-03,  avg # of iterations =  8.6

     negative rho (up, down):  4.575E-04 0.000E+00
 
     Adding external electric field

     Computed dipole along edir(3) : 
        Dipole                0.2682 Ry au,          0.6816 Debye
        Dipole field          0.0007 Ry au
 
        Potential amp.       -0.0671 Ry
        Total length         45.3158 bohr
 

     total cpu time spent up to now is      183.0 secs

     total energy              =   -1674.55510693 Ry
     Harris-Foulkes estimate   =   -1687.33570711 Ry
     estimated scf accuracy    <     420.84668418 Ry

     iteration #  4     ecut=    36.75 Ry     beta=0.30
     Davidson diagonalization with overlap
     ethr =  3.97E-03,  avg # of iterations =  7.7

     negative rho (up, down):  4.098E-04 0.000E+00
 
     Adding external electric field

     Computed dipole along edir(3) : 
        Dipole                0.1314 Ry au,          0.3339 Debye
        Dipole field          0.0004 Ry au
 
        Potential amp.       -0.0329 Ry
        Total length         45.3158 bohr
 

     total cpu time spent up to now is      237.1 secs

     total energy              =   -1680.36830681 Ry
     Harris-Foulkes estimate   =   -1680.45605791 Ry
     estimated scf accuracy    <       0.45712553 Ry

     iteration #  5     ecut=    36.75 Ry     beta=0.30
     Davidson diagonalization with overlap
     ethr =  2.70E-04,  avg # of iterations =  5.1

     negative rho (up, down):  3.662E-04 0.000E+00
 
     Adding external electric field

     Computed dipole along edir(3) : 
        Dipole                0.0274 Ry au,          0.0695 Debye
        Dipole field          0.0001 Ry au
 
        Potential amp.       -0.0068 Ry
        Total length         45.3158 bohr
 

     total cpu time spent up to now is      278.7 secs

     total energy              =   -1680.37356072 Ry
     Harris-Foulkes estimate   =   -1680.43015547 Ry
     estimated scf accuracy    <       0.40833590 Ry

     iteration #  6     ecut=    36.75 Ry     beta=0.30
     Davidson diagonalization with overlap
     ethr =  2.42E-04,  avg # of iterations =  3.1

     negative rho (up, down):  4.130E-04 0.000E+00
 
     Adding external electric field

     Computed dipole along edir(3) : 
        Dipole               -0.0035 Ry au,         -0.0090 Debye
        Dipole field         -0.0000 Ry au
 
        Potential amp.        0.0009 Ry
        Total length         45.3158 bohr
 

     total cpu time spent up to now is      313.1 secs

     total energy              =   -1680.38884938 Ry
     Harris-Foulkes estimate   =   -1680.40299348 Ry
     estimated scf accuracy    <       0.13553593 Ry

     iteration #  7     ecut=    36.75 Ry     beta=0.30
     Davidson diagonalization with overlap
     ethr =  8.02E-05,  avg # of iterations =  4.2

     negative rho (up, down):  7.399E-04 0.000E+00
 
     Adding external electric field

     Computed dipole along edir(3) : 
        Dipole               -0.0565 Ry au,         -0.1437 Debye
        Dipole field         -0.0002 Ry au
 
        Potential amp.        0.0141 Ry
        Total length         45.3158 bohr
 

     total cpu time spent up to now is      350.1 secs

     total energy              =   -1680.39198563 Ry
     Harris-Foulkes estimate   =   -1680.39997203 Ry
     estimated scf accuracy    <       0.08965821 Ry

     iteration #  8     ecut=    36.75 Ry     beta=0.30
     Davidson diagonalization with overlap
     ethr =  5.31E-05,  avg # of iterations =  2.2

     negative rho (up, down):  1.202E-03 0.000E+00
 
     Adding external electric field

     Computed dipole along edir(3) : 
        Dipole               -0.0951 Ry au,         -0.2417 Debye
        Dipole field         -0.0003 Ry au
 
        Potential amp.        0.0238 Ry
        Total length         45.3158 bohr
 

     total cpu time spent up to now is      383.3 secs

     total energy              =   -1680.39907186 Ry
     Harris-Foulkes estimate   =   -1680.40125063 Ry
     estimated scf accuracy    <       0.02493707 Ry

     iteration #  9     ecut=    36.75 Ry     beta=0.30
     Davidson diagonalization with overlap
     ethr =  1.48E-05,  avg # of iterations =  5.0

     negative rho (up, down):  1.805E-03 0.000E+00
 
     Adding external electric field

     Computed dipole along edir(3) : 
        Dipole               -0.1053 Ry au,         -0.2676 Debye
        Dipole field         -0.0003 Ry au
 
        Potential amp.        0.0263 Ry
        Total length         45.3158 bohr
 

     total cpu time spent up to now is      422.1 secs

     total energy              =   -1680.40038026 Ry
     Harris-Foulkes estimate   =   -1680.40073967 Ry
     estimated scf accuracy    <       0.00973190 Ry

     iteration # 10     ecut=    36.75 Ry     beta=0.30
     Davidson diagonalization with overlap
     ethr =  5.76E-06,  avg # of iterations =  4.1

     negative rho (up, down):  2.770E-03 0.000E+00
 
     Adding external electric field

     Computed dipole along edir(3) : 
        Dipole               -0.1130 Ry au,         -0.2873 Debye
        Dipole field         -0.0003 Ry au
 
        Potential amp.        0.0283 Ry
        Total length         45.3158 bohr
 

     total cpu time spent up to now is      458.1 secs

     total energy              =   -1680.40088037 Ry
     Harris-Foulkes estimate   =   -1680.40084169 Ry
     estimated scf accuracy    <       0.00171965 Ry

     iteration # 11     ecut=    36.75 Ry     beta=0.30
     Davidson diagonalization with overlap
     ethr =  1.02E-06,  avg # of iterations =  5.6

     negative rho (up, down):  3.783E-03 0.000E+00
 
     Adding external electric field

     Computed dipole along edir(3) : 
        Dipole               -0.1312 Ry au,         -0.3335 Debye
        Dipole field         -0.0004 Ry au
 
        Potential amp.        0.0328 Ry
        Total length         45.3158 bohr
 

     total cpu time spent up to now is      502.7 secs

     total energy              =   -1680.40106358 Ry
     Harris-Foulkes estimate   =   -1680.40108493 Ry
     estimated scf accuracy    <       0.00064436 Ry

     iteration # 12     ecut=    36.75 Ry     beta=0.30
     Davidson diagonalization with overlap
     ethr =  3.81E-07,  avg # of iterations =  4.0

     negative rho (up, down):  4.373E-03 0.000E+00
 
     Adding external electric field

     Computed dipole along edir(3) : 
        Dipole               -0.1325 Ry au,         -0.3368 Debye
        Dipole field         -0.0004 Ry au
 
        Potential amp.        0.0332 Ry
        Total length         45.3158 bohr
 

     total cpu time spent up to now is      542.9 secs

     total energy              =   -1680.40113735 Ry
     Harris-Foulkes estimate   =   -1680.40117262 Ry
     estimated scf accuracy    <       0.00081817 Ry

     iteration # 13     ecut=    36.75 Ry     beta=0.30
     Davidson diagonalization with overlap
     ethr =  3.81E-07,  avg # of iterations =  1.0

     negative rho (up, down):  4.821E-03 0.000E+00
 
     Adding external electric field

     Computed dipole along edir(3) : 
        Dipole               -0.1344 Ry au,         -0.3415 Debye
        Dipole field         -0.0004 Ry au
 
        Potential amp.        0.0336 Ry
        Total length         45.3158 bohr
 

     total cpu time spent up to now is      575.1 secs

     total energy              =   -1680.40114418 Ry
     Harris-Foulkes estimate   =   -1680.40115822 Ry
     estimated scf accuracy    <       0.00015732 Ry

     iteration # 14     ecut=    36.75 Ry     beta=0.30
     Davidson diagonalization with overlap
     ethr =  9.31E-08,  avg # of iterations =  4.1

     negative rho (up, down):  4.895E-03 0.000E+00
 
     Adding external electric field

     Computed dipole along edir(3) : 
        Dipole               -0.1367 Ry au,         -0.3474 Debye
        Dipole field         -0.0004 Ry au
 
        Potential amp.        0.0342 Ry
        Total length         45.3158 bohr
 

     total cpu time spent up to now is      615.2 secs

     total energy              =   -1680.40116056 Ry
     Harris-Foulkes estimate   =   -1680.40116428 Ry
     estimated scf accuracy    <       0.00006638 Ry

     iteration # 15     ecut=    36.75 Ry     beta=0.30
     Davidson diagonalization with overlap
     ethr =  3.93E-08,  avg # of iterations =  1.7

     negative rho (up, down):  5.029E-03 0.000E+00

     negative rho (up, down):  5.029E-03 0.000E+00

     negative rho (up, down):  5.029E-03 0.000E+00

     negative rho (up, down):  5.029E-03 0.000E+00

     negative rho (up, down):  5.029E-03 0.000E+00

     negative rho (up, down):  5.029E-03 0.000E+00

     negative rho (up, down):  5.029E-03 0.000E+00

     negative rho (up, down):  5.029E-03 0.000E+00

     negative rho (up, down):  5.029E-03 0.000E+00

     negative rho (up, down):  5.029E-03 0.000E+00

     negative rho (up, down):  5.029E-03 0.000E+00

     negative rho (up, down):  5.029E-03 0.000E+00

     negative rho (up, down):  5.029E-03 0.000E+00

     negative rho (up, down):  5.029E-03 0.000E+00

     negative rho (up, down):  5.029E-03 0.000E+00

     negative rho (up, down):  5.029E-03 0.000E+00

     negative rho (up, down):  5.029E-03 0.000E+00

     negative rho (up, down):  5.029E-03 0.000E+00

     negative rho (up, down):  5.029E-03 0.000E+00

     negative rho (up, down):  5.029E-03 0.000E+00

     negative rho (up, down):  5.029E-03 0.000E+00

     negative rho (up, down):  5.029E-03 0.000E+00

     negative rho (up, down):  5.029E-03 0.000E+00

     negative rho (up, down):  5.029E-03 0.000E+00

     negative rho (up, down):  5.029E-03 0.000E+00

     negative rho (up, down):  5.029E-03 0.000E+00

     negative rho (up, down):  5.029E-03 0.000E+00

     negative rho (up, down):  5.029E-03 0.000E+00

     negative rho (up, down):  5.029E-03 0.000E+00

     negative rho (up, down):  5.029E-03 0.000E+00

     negative rho (up, down):  5.029E-03 0.000E+00

     negative rho (up, down):  5.029E-03 0.000E+00

     negative rho (up, down):  5.029E-03 0.000E+00

     negative rho (up, down):  5.029E-03 0.000E+00

     negative rho (up, down):  5.029E-03 0.000E+00
 
     Adding external electric field

     Computed dipole along edir(3) : 
        Dipole               -0.1184 Ry au,         -0.3010 Debye
        Dipole field         -0.0003 Ry au
 
        Potential amp.        0.0296 Ry
        Total length         45.3158 bohr
 

     total cpu time spent up to now is      709.3 secs

     End of self-consistent calculation

          k = 0.0000 0.0000 0.0000 ( 17111 PWs)   bands (ev):

   -58.8949 -58.8111 -58.7299 -58.6980 -58.6968 -58.6848 -58.6581 -58.6575
   -58.6379 -58.6230 -58.6224 -58.5965 -33.4316 -33.4310 -33.4145 -33.3527
   -33.3277 -33.3276 -33.3192 -33.2405 -33.2404 -33.2390 -32.9183 -32.7926
   -32.7917 -32.7418 -32.7340 -32.7336 -32.6859 -32.6105 -32.6018 -32.6014
   -32.5020 -32.5011 -32.4883 -32.4855 -32.4670 -32.4668 -32.3975 -32.3912
   -32.3834 -32.3831 -32.3231 -32.3230 -32.2383 -32.2382 -32.1918 -32.1918
    -3.8542  -2.5255  -2.3460  -2.3457  -2.3394  -2.3080  -1.9653  -1.8861
    -1.8860  -1.6977  -1.6799  -1.6799  -1.4286  -1.4205  -1.4204  -0.5711
    -0.2407  -0.2262  -0.2262   0.7584   0.7585   0.7600   1.0018   1.3069
     1.4395   1.4395   1.7115   1.7115   1.8078   1.8142   1.8145   1.9109
     1.9109   2.0971   2.1080   2.1081   2.8977   3.2109   3.2300   3.2303
     3.4154   3.4380   3.4381   3.9307   3.9644   3.9645

          k = 0.0000 0.0342 0.0000 ( 17130 PWs)   bands (ev):

   -58.8825 -58.8013 -58.7229 -58.7101 -58.6974 -58.6865 -58.6669 -58.6581
   -58.6383 -58.6272 -58.6229 -58.5977 -33.3951 -33.3865 -33.3610 -33.3304
   -33.2956 -33.2915 -33.2781 -33.2047 -33.2044 -33.1757 -32.9174 -32.8417
   -32.8184 -32.7730 -32.7199 -32.7170 -32.6696 -32.6329 -32.6198 -32.5870
   -32.5576 -32.5419 -32.4797 -32.4701 -32.4586 -32.4537 -32.4286 -32.4263
   -32.4130 -32.3829 -32.3728 -32.3430 -32.2881 -32.2580 -32.2542 -32.2041
    -3.6113  -2.2818  -2.2181  -2.1431  -2.1394  -2.0675  -1.8644  -1.7430
    -1.6936  -1.5654  -1.5346  -1.5266  -1.2973  -1.1703  -1.1630  -0.5554
    -0.1930  -0.1829  -0.1203   0.8045   0.8422   0.8538   0.9406   1.1162
     1.2000   1.4941   1.5298   1.6497   1.6899   1.7989   1.8665   1.8828
     1.8831   2.0406   2.0690   2.1281   2.5438   2.8227   2.8313   2.8935
     3.2145   3.3014   3.4541   3.5971   3.7849   3.8318

          k = 0.0000 0.0684 0.0000 ( 17142 PWs)   bands (ev):

   -58.8483 -58.7752 -58.7472 -58.7056 -58.6991 -58.6976 -58.6777 -58.6582
   -58.6483 -58.6333 -58.6227 -58.6005 -33.3048 -33.2925 -33.2719 -33.2221
   -33.2218 -33.1948 -33.1887 -33.1186 -33.1169 -32.9992 -32.9287 -32.8897
   -32.8863 -32.8453 -32.6993 -32.6913 -32.6762 -32.6745 -32.6521 -32.6499
   -32.6208 -32.5770 -32.5396 -32.5295 -32.5287 -32.5187 -32.4519 -32.4499
   -32.4437 -32.4230 -32.4160 -32.3964 -32.3495 -32.3369 -32.2970 -32.2384
    -2.9702  -1.9800  -1.7500  -1.6774  -1.6607  -1.6583  -1.4603  -1.3185
    -1.2346  -1.2095  -1.0899  -1.0596  -0.9534  -0.5812  -0.5152  -0.4515
    -0.0826  -0.0786   0.1414   0.3360   0.5936   0.8689   0.8971   0.9623
     1.0578   1.1820   1.1975   1.4536   1.4998   1.6030   1.6119   1.6943
     1.9870   2.0735   2.0935   2.1639   2.1813   2.2016   2.2491   2.5683
     2.5941   2.6420   2.7569   2.8092   2.9773   3.1899

          k = 0.0000-0.1026 0.0000 ( 17160 PWs)   bands (ev):

   -58.8082 -58.7907 -58.7428 -58.7313 -58.6978 -58.6862 -58.6745 -58.6662
   -58.6583 -58.6342 -58.6225 -58.6019 -33.2380 -33.2203 -33.2095 -33.1908
   -33.1839 -33.1827 -33.0522 -33.0483 -33.0169 -33.0037 -32.9495 -32.9239
   -32.7929 -32.7775 -32.7580 -32.7477 -32.7200 -32.7057 -32.6869 -32.6778
   -32.6409 -32.6336 -32.6230 -32.6176 -32.6108 -32.5714 -32.4764 -32.4613
   -32.4493 -32.4448 -32.4050 -32.3780 -32.3632 -32.3515 -32.2918 -32.2813
    -2.2757  -2.2180  -1.4925  -1.4367  -1.3264  -1.2961  -1.1117  -1.0707
    -1.0677  -0.9050  -0.7065  -0.5408  -0.4605  -0.4214  -0.2653  -0.2606
    -0.2412   0.2325   0.3006   0.4029   0.4130   0.4252   0.6216   0.9095
     0.9745   1.1733   1.1891   1.3371   1.3378   1.3511   1.4366   1.4728
     1.5146   1.6016   1.6041   1.6789   1.8453   1.8599   2.1443   2.2761
     2.2853   2.8210   2.9537   3.0166   3.0476   3.0591

          k = 0.0296-0.0171 0.0000 ( 17130 PWs)   bands (ev):

   -58.8825 -58.8013 -58.7230 -58.7095 -58.6981 -58.6864 -58.6670 -58.6579
   -58.6384 -58.6275 -58.6225 -58.5977 -33.3952 -33.3864 -33.3611 -33.3304
   -33.2955 -33.2917 -33.2780 -33.2047 -33.2044 -33.1757 -32.9174 -32.8414
   -32.8187 -32.7732 -32.7198 -32.7168 -32.6698 -32.6329 -32.6198 -32.5870
   -32.5576 -32.5419 -32.4798 -32.4700 -32.4586 -32.4538 -32.4284 -32.4263
   -32.4131 -32.3830 -32.3729 -32.3429 -32.2882 -32.2581 -32.2541 -32.2041
    -3.6113  -2.2818  -2.2180  -2.1432  -2.1394  -2.0675  -1.8644  -1.7430
    -1.6936  -1.5654  -1.5346  -1.5266  -1.2973  -1.1703  -1.1630  -0.5554
    -0.1930  -0.1828  -0.1203   0.8044   0.8423   0.8538   0.9406   1.1162
     1.2001   1.4941   1.5298   1.6497   1.6899   1.7989   1.8665   1.8828
     1.8831   2.0407   2.0690   2.1281   2.5438   2.8227   2.8314   2.8936
     3.2147   3.3014   3.4541   3.5970   3.7849   3.8320

          k = 0.0296 0.0171 0.0000 ( 17130 PWs)   bands (ev):

   -58.8825 -58.8013 -58.7230 -58.7101 -58.6970 -58.6867 -58.6676 -58.6575
   -58.6382 -58.6277 -58.6223 -58.5977 -33.3956 -33.3859 -33.3611 -33.3304
   -33.2955 -33.2917 -33.2780 -33.2048 -33.2043 -33.1757 -32.9174 -32.8417
   -32.8183 -32.7732 -32.7197 -32.7171 -32.6698 -32.6326 -32.6200 -32.5870
   -32.5574 -32.5421 -32.4800 -32.4698 -32.4588 -32.4535 -32.4287 -32.4260
   -32.4131 -32.3830 -32.3730 -32.3428 -32.2881 -32.2581 -32.2542 -32.2041
    -3.6113  -2.2818  -2.2180  -2.1434  -2.1392  -2.0675  -1.8644  -1.7429
    -1.6937  -1.5654  -1.5347  -1.5266  -1.2973  -1.1703  -1.1630  -0.5554
    -0.1930  -0.1829  -0.1203   0.8045   0.8422   0.8538   0.9406   1.1162
     1.2001   1.4943   1.5295   1.6497   1.6899   1.7989   1.8665   1.8828
     1.8831   2.0406   2.0690   2.1282   2.5438   2.8225   2.8315   2.8935
     3.2144   3.3015   3.4541   3.5972   3.7848   3.8317

          k = 0.0296 0.0513 0.0000 ( 17106 PWs)   bands (ev):

   -58.8592 -58.7832 -58.7294 -58.7115 -58.7082 -58.6862 -58.6817 -58.6561
   -58.6400 -58.6357 -58.6222 -58.6000 -33.3437 -33.2921 -33.2830 -33.2711
   -33.2437 -33.2231 -33.2160 -33.1617 -33.0909 -33.0880 -32.9224 -32.8850
   -32.8696 -32.8287 -32.7290 -32.6930 -32.6928 -32.6694 -32.6299 -32.5947
   -32.5904 -32.5356 -32.5263 -32.5172 -32.4953 -32.4883 -32.4706 -32.4354
   -32.4319 -32.4018 -32.3914 -32.3885 -32.3753 -32.3267 -32.2787 -32.2383
    -3.1633  -1.9114  -1.9036  -1.8602  -1.7786  -1.6506  -1.6327  -1.5990
    -1.3511  -1.2928  -1.2598  -1.1606  -0.9378  -0.9173  -0.6362  -0.5179
    -0.1475  -0.0306  -0.0078   0.5299   0.7707   0.8935   0.9253   0.9715
     1.0094   1.0766   1.4179   1.4491   1.5703   1.6216   1.7907   1.8625
     1.8707   2.0361   2.1008   2.2308   2.2920   2.3295   2.3623   2.5869
     2.8007   2.9095   2.9755   3.0623   3.1257   3.2579

          k = 0.0296-0.1197 0.0000 ( 17122 PWs)   bands (ev):

   -58.8188 -58.7683 -58.7512 -58.7261 -58.7102 -58.6888 -58.6807 -58.6601
   -58.6477 -58.6389 -58.6215 -58.6025 -33.2472 -33.2246 -33.1864 -33.1734
   -33.1678 -33.1606 -33.0977 -33.0730 -32.9983 -32.9741 -32.9523 -32.9064
   -32.8903 -32.8563 -32.8156 -32.7709 -32.7027 -32.6768 -32.6698 -32.6588
   -32.6268 -32.6092 -32.5972 -32.5671 -32.5524 -32.5206 -32.4933 -32.4884
   -32.4493 -32.4375 -32.4044 -32.3930 -32.3756 -32.3446 -32.3356 -32.2886
    -2.4359  -1.8554  -1.4502  -1.3894  -1.3467  -1.3081  -1.2438  -1.0555
    -0.9262  -0.8590  -0.8121  -0.6174  -0.5013  -0.4706  -0.3820  -0.2358
    -0.0035   0.1224   0.1497   0.2557   0.4227   0.5580   0.6252   0.7226
     0.8546   1.0237   1.1529   1.1989   1.2246   1.3105   1.3512   1.3988
     1.5919   1.6028   1.6707   1.7669   2.0122   2.0399   2.1343   2.3187
     2.4199   2.5574   2.9145   3.0113   3.0347   3.1254

          k = 0.0296-0.0855 0.0000 ( 17122 PWs)   bands (ev):

   -58.8188 -58.7681 -58.7515 -58.7256 -58.7105 -58.6890 -58.6805 -58.6601
   -58.6478 -58.6389 -58.6215 -58.6024 -33.2471 -33.2247 -33.1863 -33.1735
   -33.1676 -33.1607 -33.0976 -33.0731 -32.9983 -32.9743 -32.9520 -32.9063
   -32.8904 -32.8563 -32.8154 -32.7708 -32.7028 -32.6767 -32.6697 -32.6589
   -32.6271 -32.6093 -32.5972 -32.5673 -32.5520 -32.5205 -32.4931 -32.4884
   -32.4494 -32.4376 -32.4043 -32.3930 -32.3757 -32.3446 -32.3355 -32.2886
    -2.4359  -1.8554  -1.4503  -1.3894  -1.3466  -1.3081  -1.2438  -1.0556
    -0.9262  -0.8589  -0.8120  -0.6174  -0.5013  -0.4706  -0.3820  -0.2357
    -0.0035   0.1224   0.1497   0.2557   0.4227   0.5579   0.6252   0.7226
     0.8547   1.0238   1.1529   1.1989   1.2246   1.3105   1.3512   1.3987
     1.5918   1.6029   1.6708   1.7669   2.0121   2.0399   2.1343   2.3187
     2.4198   2.5574   2.9145   3.0111   3.0349   3.1253

          k = 0.0296-0.0513 0.0000 ( 17106 PWs)   bands (ev):

   -58.8592 -58.7832 -58.7289 -58.7122 -58.7080 -58.6862 -58.6813 -58.6561
   -58.6407 -58.6351 -58.6224 -58.5998 -33.3436 -33.2921 -33.2832 -33.2709
   -33.2437 -33.2228 -33.2163 -33.1617 -33.0909 -33.0880 -32.9224 -32.8848
   -32.8698 -32.8287 -32.7289 -32.6932 -32.6925 -32.6694 -32.6300 -32.5944
   -32.5906 -32.5357 -32.5262 -32.5170 -32.4954 -32.4882 -32.4708 -32.4356
   -32.4317 -32.4016 -32.3913 -32.3886 -32.3754 -32.3267 -32.2786 -32.2383
    -3.1633  -1.9116  -1.9034  -1.8602  -1.7786  -1.6506  -1.6327  -1.5990
    -1.3512  -1.2928  -1.2597  -1.1606  -0.9378  -0.9174  -0.6362  -0.5179
    -0.1475  -0.0305  -0.0079   0.5298   0.7707   0.8935   0.9252   0.9714
     1.0094   1.0767   1.4179   1.4489   1.5703   1.6216   1.7907   1.8626
     1.8705   2.0362   2.1009   2.2307   2.2921   2.3295   2.3624   2.5869
     2.8008   2.9094   2.9757   3.0623   3.1255   3.2578

          k = 0.0592-0.0342 0.0000 ( 17142 PWs)   bands (ev):

   -58.8484 -58.7754 -58.7468 -58.7057 -58.6987 -58.6981 -58.6778 -58.6580
   -58.6484 -58.6337 -58.6223 -58.6004 -33.3049 -33.2924 -33.2719 -33.2222
   -33.2217 -33.1949 -33.1887 -33.1186 -33.1169 -32.9992 -32.9287 -32.8895
   -32.8864 -32.8454 -32.6996 -32.6911 -32.6761 -32.6745 -32.6519 -32.6499
   -32.6208 -32.5771 -32.5396 -32.5295 -32.5286 -32.5188 -32.4518 -32.4499
   -32.4438 -32.4231 -32.4162 -32.3963 -32.3495 -32.3371 -32.2968 -32.2383
    -2.9702  -1.9800  -1.7499  -1.6776  -1.6607  -1.6583  -1.4603  -1.3185
    -1.2346  -1.2095  -1.0899  -1.0596  -0.9534  -0.5812  -0.5151  -0.4515
    -0.0827  -0.0786   0.1414   0.3359   0.5937   0.8689   0.8972   0.9623
     1.0578   1.1820   1.1975   1.4536   1.4998   1.6029   1.6119   1.6944
     1.9870   2.0735   2.0935   2.1639   2.1812   2.2016   2.2490   2.5683
     2.5941   2.6420   2.7569   2.8094   2.9772   3.1898

          k = 0.0592 0.0000 0.0000 ( 17106 PWs)   bands (ev):

   -58.8592 -58.7832 -58.7290 -58.7120 -58.7081 -58.6862 -58.6816 -58.6562
   -58.6401 -58.6356 -58.6220 -58.5999 -33.3437 -33.2921 -33.2830 -33.2711
   -33.2436 -33.2231 -33.2160 -33.1617 -33.0909 -33.0880 -32.9224 -32.8847
   -32.8698 -32.8288 -32.7290 -32.6932 -32.6925 -32.6694 -32.6299 -32.5948
   -32.5905 -32.5354 -32.5262 -32.5172 -32.4953 -32.4883 -32.4707 -32.4354
   -32.4321 -32.4018 -32.3913 -32.3886 -32.3752 -32.3267 -32.2786 -32.2383
    -3.1633  -1.9114  -1.9036  -1.8602  -1.7786  -1.6506  -1.6327  -1.5990
    -1.3510  -1.2928  -1.2598  -1.1606  -0.9378  -0.9174  -0.6362  -0.5179
    -0.1475  -0.0305  -0.0078   0.5299   0.7707   0.8935   0.9254   0.9714
     1.0094   1.0767   1.4180   1.4489   1.5703   1.6216   1.7907   1.8625
     1.8707   2.0361   2.1009   2.2307   2.2921   2.3296   2.3623   2.5869
     2.8008   2.9094   2.9757   3.0623   3.1255   3.2579

          k = 0.0592 0.0342 0.0000 ( 17142 PWs)   bands (ev):

   -58.8483 -58.7752 -58.7473 -58.7057 -58.6990 -58.6972 -58.6786 -58.6577
   -58.6484 -58.6336 -58.6221 -58.6007 -33.3054 -33.2920 -33.2718 -33.2222
   -33.2217 -33.1949 -33.1886 -33.1185 -33.1170 -32.9992 -32.9287 -32.8897
   -32.8860 -32.8458 -32.6990 -32.6914 -32.6760 -32.6750 -32.6519 -32.6500
   -32.6207 -32.5771 -32.5395 -32.5292 -32.5287 -32.5191 -32.4512 -32.4503
   -32.4439 -32.4232 -32.4159 -32.3965 -32.3495 -32.3369 -32.2970 -32.2383
    -2.9702  -1.9800  -1.7500  -1.6773  -1.6610  -1.6580  -1.4603  -1.3185
    -1.2346  -1.2094  -1.0899  -1.0597  -0.9534  -0.5811  -0.5152  -0.4515
    -0.0827  -0.0786   0.1414   0.3360   0.5937   0.8690   0.8972   0.9623
     1.0576   1.1821   1.1974   1.4536   1.4998   1.6030   1.6119   1.6943
     1.9868   2.0735   2.0935   2.1639   2.1812   2.2016   2.2491   2.5683
     2.5941   2.6420   2.7569   2.8092   2.9773   3.1900

          k = 0.0592-0.1368 0.0000 ( 17122 PWs)   bands (ev):

   -58.8188 -58.7680 -58.7514 -58.7260 -58.7104 -58.6887 -58.6809 -58.6596
   -58.6487 -58.6383 -58.6213 -58.6026 -33.2474 -33.2247 -33.1864 -33.1736
   -33.1674 -33.1604 -33.0976 -33.0731 -32.9983 -32.9741 -32.9522 -32.9065
   -32.8903 -32.8563 -32.8156 -32.7708 -32.7027 -32.6769 -32.6696 -32.6587
   -32.6270 -32.6091 -32.5970 -32.5674 -32.5523 -32.5206 -32.4931 -32.4883
   -32.4496 -32.4374 -32.4042 -32.3932 -32.3758 -32.3446 -32.3355 -32.2885
    -2.4359  -1.8554  -1.4502  -1.3894  -1.3464  -1.3083  -1.2438  -1.0555
    -0.9263  -0.8589  -0.8121  -0.6174  -0.5013  -0.4706  -0.3820  -0.2358
    -0.0035   0.1224   0.1498   0.2557   0.4227   0.5581   0.6252   0.7226
     0.8545   1.0237   1.1529   1.1989   1.2246   1.3105   1.3512   1.3988
     1.5918   1.6028   1.6706   1.7669   2.0122   2.0399   2.1343   2.3186
     2.4199   2.5574   2.9146   3.0113   3.0347   3.1255

          k = 0.0592-0.1026 0.0000 ( 17100 PWs)   bands (ev):

   -58.7869 -58.7779 -58.7565 -58.7242 -58.7234 -58.7010 -58.6673 -58.6591
   -58.6584 -58.6351 -58.6218 -58.6038 -33.1778 -33.1720 -33.1554 -33.1350
   -33.1334 -33.1138 -33.0571 -33.0556 -33.0278 -32.9456 -32.9171 -32.9009
   -32.8590 -32.8463 -32.8433 -32.8227 -32.8221 -32.8210 -32.6680 -32.6651
   -32.6619 -32.6172 -32.5861 -32.5207 -32.5153 -32.5114 -32.5056 -32.4520
   -32.4441 -32.4370 -32.4259 -32.4225 -32.4174 -32.3555 -32.3526 -32.3442
    -1.8172  -1.7180  -1.7144  -1.2242  -0.9982  -0.9970  -0.9206  -0.9140
    -0.7402  -0.6451  -0.4666  -0.4651  -0.4491  -0.3668  -0.3594  -0.1173
     0.1284   0.2014   0.2780   0.2873   0.3053   0.4232   0.4315   0.5187
     0.6282   0.6361   0.7439   0.7611   0.7738   1.0767   1.1336   1.3603
     1.3765   1.3954   1.4012   1.8941   1.9054   2.0170   2.1779   2.1830
     2.2443   2.6447   2.6535   2.8770   3.1545   3.1563

          k = 0.0592-0.0684 0.0000 ( 17122 PWs)   bands (ev):

   -58.8189 -58.7681 -58.7512 -58.7259 -58.7101 -58.6891 -58.6809 -58.6598
   -58.6479 -58.6391 -58.6214 -58.6024 -33.2472 -33.2247 -33.1864 -33.1736
   -33.1675 -33.1607 -33.0976 -33.0731 -32.9982 -32.9743 -32.9520 -32.9064
   -32.8904 -32.8562 -32.8155 -32.7709 -32.7027 -32.6770 -32.6695 -32.6588
   -32.6270 -32.6096 -32.5970 -32.5672 -32.5521 -32.5205 -32.4932 -32.4882
   -32.4495 -32.4376 -32.4043 -32.3930 -32.3757 -32.3449 -32.3352 -32.2885
    -2.4359  -1.8554  -1.4502  -1.3894  -1.3466  -1.3082  -1.2437  -1.0556
    -0.9263  -0.8589  -0.8120  -0.6174  -0.5013  -0.4706  -0.3820  -0.2357
    -0.0035   0.1224   0.1497   0.2557   0.4227   0.5579   0.6252   0.7226
     0.8547   1.0238   1.1530   1.1989   1.2246   1.3106   1.3512   1.3987
     1.5918   1.6029   1.6707   1.7669   2.0121   2.0399   2.1343   2.3187
     2.4198   2.5574   2.9145   3.0112   3.0348   3.1251

          k =-0.0888 0.0513 0.0000 ( 17160 PWs)   bands (ev):

   -58.8086 -58.7902 -58.7433 -58.7304 -58.6985 -58.6862 -58.6741 -58.6667
   -58.6580 -58.6347 -58.6222 -58.6019 -33.2382 -33.2201 -33.2098 -33.1908
   -33.1839 -33.1825 -33.0522 -33.0482 -33.0172 -33.0033 -32.9496 -32.9240
   -32.7932 -32.7770 -32.7581 -32.7473 -32.7204 -32.7057 -32.6870 -32.6777
   -32.6410 -32.6335 -32.6227 -32.6177 -32.6110 -32.5714 -32.4766 -32.4611
   -32.4492 -32.4448 -32.4051 -32.3780 -32.3637 -32.3512 -32.2919 -32.2811
    -2.2756  -2.2181  -1.4923  -1.4369  -1.3263  -1.2962  -1.1117  -1.0708
    -1.0677  -0.9050  -0.7065  -0.5408  -0.4605  -0.4213  -0.2653  -0.2606
    -0.2412   0.2326   0.3007   0.4029   0.4130   0.4253   0.6215   0.9096
     0.9745   1.1734   1.1891   1.3372   1.3377   1.3510   1.4367   1.4728
     1.5144   1.6017   1.6041   1.6789   1.8453   1.8599   2.1442   2.2760
     2.2854   2.8209   2.9540   3.0165   3.0474   3.0593

          k =-0.0888 0.0855 0.0000 ( 17122 PWs)   bands (ev):

   -58.8189 -58.7681 -58.7511 -58.7262 -58.7100 -58.6891 -58.6807 -58.6602
   -58.6476 -58.6392 -58.6213 -58.6024 -33.2472 -33.2247 -33.1864 -33.1733
   -33.1677 -33.1607 -33.0977 -33.0730 -32.9982 -32.9739 -32.9523 -32.9064
   -32.8903 -32.8562 -32.8156 -32.7709 -32.7026 -32.6769 -32.6697 -32.6588
   -32.6268 -32.6093 -32.5971 -32.5672 -32.5523 -32.5206 -32.4934 -32.4882
   -32.4493 -32.4376 -32.4044 -32.3931 -32.3756 -32.3449 -32.3352 -32.2885
    -2.4359  -1.8554  -1.4501  -1.3894  -1.3468  -1.3082  -1.2437  -1.0555
    -0.9262  -0.8589  -0.8121  -0.6174  -0.5013  -0.4706  -0.3819  -0.2357
    -0.0035   0.1224   0.1497   0.2557   0.4227   0.5580   0.6252   0.7226
     0.8546   1.0238   1.1530   1.1990   1.2246   1.3106   1.3512   1.3987
     1.5918   1.6029   1.6707   1.7669   2.0121   2.0399   2.1343   2.3187
     2.4199   2.5573   2.9145   3.0113   3.0348   3.1253

          k =-0.0888 0.1197 0.0000 ( 17122 PWs)   bands (ev):

   -58.8189 -58.7679 -58.7515 -58.7257 -58.7105 -58.6889 -58.6806 -58.6600
   -58.6485 -58.6383 -58.6213 -58.6026 -33.2474 -33.2247 -33.1863 -33.1736
   -33.1674 -33.1605 -33.0976 -33.0731 -32.9983 -32.9739 -32.9523 -32.9064
   -32.8904 -32.8563 -32.8155 -32.7708 -32.7027 -32.6767 -32.6697 -32.6588
   -32.6271 -32.6090 -32.5971 -32.5676 -32.5521 -32.5206 -32.4931 -32.4883
   -32.4495 -32.4375 -32.4042 -32.3932 -32.3757 -32.3446 -32.3355 -32.2885
    -2.4359  -1.8555  -1.4502  -1.3894  -1.3465  -1.3082  -1.2439  -1.0555
    -0.9262  -0.8589  -0.8121  -0.6175  -0.5013  -0.4706  -0.3820  -0.2357
    -0.0034   0.1224   0.1498   0.2557   0.4227   0.5581   0.6252   0.7226
     0.8545   1.0238   1.1529   1.1990   1.2246   1.3106   1.3512   1.3987
     1.5918   1.6029   1.6706   1.7669   2.0121   2.0399   2.1343   2.3186
     2.4199   2.5573   2.9146   3.0111   3.0349   3.1254

          k =-0.0888-0.0513 0.0000 ( 17160 PWs)   bands (ev):

   -58.8084 -58.7903 -58.7428 -58.7316 -58.6974 -58.6863 -58.6750 -58.6666
   -58.6577 -58.6344 -58.6220 -58.6022 -33.2390 -33.2195 -33.2098 -33.1907
   -33.1836 -33.1826 -33.0521 -33.0484 -33.0168 -33.0036 -32.9490 -32.9248
   -32.7927 -32.7776 -32.7580 -32.7479 -32.7198 -32.7056 -32.6870 -32.6779
   -32.6413 -32.6330 -32.6228 -32.6172 -32.6114 -32.5716 -32.4772 -32.4606
   -32.4486 -32.4452 -32.4056 -32.3778 -32.3631 -32.3516 -32.2922 -32.2808
    -2.2755  -2.2183  -1.4925  -1.4367  -1.3260  -1.2966  -1.1116  -1.0710
    -1.0675  -0.9050  -0.7063  -0.5412  -0.4603  -0.4216  -0.2653  -0.2605
    -0.2412   0.2328   0.3007   0.4032   0.4130   0.4253   0.6212   0.9095
     0.9744   1.1734   1.1890   1.3371   1.3378   1.3511   1.4367   1.4727
     1.5148   1.6016   1.6042   1.6786   1.8453   1.8599   2.1443   2.2756
     2.2858   2.8213   2.9537   3.0165   3.0475   3.0592

     the Fermi energy is     2.1439 ev

!    total energy              =   -1680.40115701 Ry
     Harris-Foulkes estimate   =   -1680.40117625 Ry
     estimated scf accuracy    <       0.00000830 Ry

     The total energy is the sum of the following terms:

     one-electron contribution =  -15228.95746751 Ry
     hartree contribution      =    7608.25405971 Ry
     xc contribution           =    -240.81838624 Ry
     ewald contribution        =    6181.22238196 Ry
     electric field correction =       0.00003871 Ry
     smearing contrib. (-TS)   =      -0.10178364 Ry

     convergence has been achieved in  15 iterations
 
 BEEF-vdW xc energy contributions
           1 :   -206.830541679972     
           2 :    188.943149878246     
           3 :   -158.307948444621     
           4 :    123.032854132166     
           5 :   -91.2257806983701     
           6 :    68.4133611240662     
           7 :   -56.2746832734872     
           8 :    52.9069102757145     
           9 :   -54.2894014782551     
          10 :    56.1791604739386     
          11 :   -55.6772614151990     
          12 :    51.9366274428639     
          13 :   -45.9310035577376     
          14 :    39.5502721220558     
          15 :   -34.5197568885352     
          16 :    31.6082188703698     
          17 :   -30.4209757975667     
          18 :    29.7711619538143     
          19 :   -28.3817017035518     
          20 :    25.5361278283177     
          21 :   -21.3776166754866     
          22 :    16.7491532008655     
          23 :   -12.7077917442964     
          24 :    9.98027541747021     
          25 :   -8.63521022024591     
          26 :    8.10540799735688     
          27 :   -7.51815706424884     
          28 :    6.14200218315221     
          29 :   -3.72774859497898     
          30 :   0.587495072473473     
          31 :   -23.5904267065490     
          32 :   -18.0875137971772     

     Forces acting on atoms (Ry/au):


     negative rho (up, down):  5.029E-03 0.000E+00
     atom    1 type  1   force =     0.00030644    0.00017788   -0.00474396
     atom    2 type  1   force =    -0.00029691    0.00020353   -0.00477044
     atom    3 type  1   force =     0.00002173   -0.00036268   -0.00479788
     atom    4 type  1   force =    -0.00003098   -0.00001626    0.00296569
     atom    5 type  1   force =     0.00005263    0.00265294   -0.00737916
     atom    6 type  1   force =    -0.00004065    0.00000595    0.00606299
     atom    7 type  1   force =    -0.00229758   -0.00136569   -0.00735405
     atom    8 type  1   force =     0.00228436   -0.00129938   -0.00742073
     atom    9 type  1   force =     0.00002155    0.00002511    0.05141771
     atom   10 type  1   force =    -0.00001730   -0.00292447    0.00028830
     atom   11 type  1   force =    -0.00254214    0.00144251    0.00034620
     atom   12 type  1   force =     0.00253639    0.00145914    0.00022601
     atom   13 type  2   force =     0.00000246    0.00000143   -0.02484068

     Total force =     0.059880     Total SCF correction =     0.019426
     SCF correction compared to forces is large: reduce conv_thr to get better values


     entering subroutine stress ...


     negative rho (up, down):  5.029E-03 0.000E+00
          total   stress  (Ry/bohr**3)                   (kbar)     P=  -18.45
  -0.00019905  -0.00000000  -0.00000001        -29.28     -0.00     -0.00
  -0.00000000  -0.00019905  -0.00000001         -0.00    -29.28     -0.00
  -0.00000001  -0.00000001   0.00002192         -0.00     -0.00      3.22

 !ASE

     Writing output data file calc.save
 
     init_run     :     13.28s CPU     22.14s WALL (       1 calls)
     electrons    :    438.42s CPU    687.01s WALL (       1 calls)
     forces       :      3.67s CPU      4.68s WALL (       1 calls)
     stress       :      9.39s CPU     11.42s WALL (       1 calls)

     Called by init_run:
     wfcinit      :     10.84s CPU     18.38s WALL (       1 calls)
     potinit      :      1.24s CPU      2.10s WALL (       1 calls)

     Called by electrons:
     c_bands      :    329.74s CPU    505.52s WALL (      15 calls)
     sum_band     :     50.12s CPU     82.58s WALL (      15 calls)
     v_of_rho     :     16.96s CPU     30.07s WALL (      16 calls)
     newd         :      7.14s CPU      7.44s WALL (      16 calls)
     mix_rho      :      0.62s CPU      1.12s WALL (      15 calls)
     vdW_energy   :      2.89s CPU      3.24s WALL (      52 calls)
     vdW_ffts     :     32.15s CPU     61.40s WALL (     106 calls)
     vdW_v        :      6.43s CPU     10.69s WALL (      52 calls)

     Called by c_bands:
     init_us_2    :      0.90s CPU      0.94s WALL (     660 calls)
     cegterg      :    323.48s CPU    498.35s WALL (     300 calls)

     Called by *egterg:
     h_psi        :    214.52s CPU    381.74s WALL (    1648 calls)
     s_psi        :      8.94s CPU      9.07s WALL (    1648 calls)
     g_psi        :      0.50s CPU      0.50s WALL (    1328 calls)
     cdiaghg      :     70.37s CPU     72.99s WALL (    1628 calls)

     Called by h_psi:
     add_vuspsi   :      9.34s CPU      9.37s WALL (    1648 calls)

     General routines
     calbec       :     17.21s CPU     21.71s WALL (    1988 calls)
     fft          :     48.21s CPU     91.71s WALL (    3159 calls)
     ffts         :      0.14s CPU      0.25s WALL (      31 calls)
     fftw         :    214.56s CPU    407.95s WALL (  172258 calls)
     interpolate  :      0.63s CPU      1.12s WALL (      31 calls)
     davcio       :      0.01s CPU      0.08s WALL (      20 calls)
 
     Parallel routines
     fft_scatter  :    230.12s CPU    465.33s WALL (  175448 calls)
 
     PWSCF        :  7m45.40s CPU    12m 6.46s WALL

 
   This run was terminated on:  18:45:31  13Jan2018            

=------------------------------------------------------------------------------=
   JOB DONE.
=------------------------------------------------------------------------------=
Job  /afs/slac/g/suncat/bin/suncat-tsmpirun -x LD_LIBRARY_PATH -wdir /scratch/qe842458_hic6d pw.x -in pw.inp

TID   HOST_NAME   COMMAND_LINE            STATUS            TERMINATION_TIME
===== ========== ================  =======================  ===================
00000 suncat1058 pw.x -in pw.inp   Done                     01/13/2018 18:45:31
00001 suncat1058 pw.x -in pw.inp   Done                     01/13/2018 18:45:31
00002 suncat1058 pw.x -in pw.inp   Done                     01/13/2018 18:45:31
00003 suncat1058 pw.x -in pw.inp   Done                     01/13/2018 18:45:31
00004 suncat1058 pw.x -in pw.inp   Done                     01/13/2018 18:45:31
00005 suncat1058 pw.x -in pw.inp   Done                     01/13/2018 18:45:31
00006 suncat1058 pw.x -in pw.inp   Done                     01/13/2018 18:45:31
00007 suncat1058 pw.x -in pw.inp   Done                     01/13/2018 18:45:31
00008 suncat1037 pw.x -in pw.inp   Done                     01/13/2018 18:45:31
00009 suncat1037 pw.x -in pw.inp   Done                     01/13/2018 18:45:31
00010 suncat1037 pw.x -in pw.inp   Done                     01/13/2018 18:45:31
00011 suncat1037 pw.x -in pw.inp   Done                     01/13/2018 18:45:31
00012 suncat1037 pw.x -in pw.inp   Done                     01/13/2018 18:45:31
00013 suncat1037 pw.x -in pw.inp   Done                     01/13/2018 18:45:31
00014 suncat1037 pw.x -in pw.inp   Done                     01/13/2018 18:45:31
00015 suncat1037 pw.x -in pw.inp   Done                     01/13/2018 18:45:31
00016 suncat1037 pw.x -in pw.inp   Done                     01/13/2018 18:45:31
00017 suncat1037 pw.x -in pw.inp   Done                     01/13/2018 18:45:31
00018 suncat1037 pw.x -in pw.inp   Done                     01/13/2018 18:45:31
00019 suncat1037 pw.x -in pw.inp   Done                     01/13/2018 18:45:31
00020 suncat1036 pw.x -in pw.inp   Done                     01/13/2018 18:45:31
00021 suncat1036 pw.x -in pw.inp   Done                     01/13/2018 18:45:31
00022 suncat1036 pw.x -in pw.inp   Done                     01/13/2018 18:45:31
00023 suncat1036 pw.x -in pw.inp   Done                     01/13/2018 18:45:31
00024 suncat1036 pw.x -in pw.inp   Done                     01/13/2018 18:45:31
00025 suncat1036 pw.x -in pw.inp   Done                     01/13/2018 18:45:31
00026 suncat1036 pw.x -in pw.inp   Done                     01/13/2018 18:45:31
00027 suncat1036 pw.x -in pw.inp   Done                     01/13/2018 18:45:31
00028 suncat1036 pw.x -in pw.inp   Done                     01/13/2018 18:45:31
00029 suncat1036 pw.x -in pw.inp   Done                     01/13/2018 18:45:31
00030 suncat1036 pw.x -in pw.inp   Done                     01/13/2018 18:45:31
00031 suncat1036 pw.x -in pw.inp   Done                     01/13/2018 18:45:31

     Program PWSCF v.5.1rc2 (svn rev. 11289) starts on 13Jan2018 at 18:45:37 

     This program is part of the open-source Quantum ESPRESSO suite
     for quantum simulation of materials; please cite
         "P. Giannozzi et al., J. Phys.:Condens. Matter 21 395502 (2009);
          URL http://www.quantum-espresso.org", 
     in publications or presentations arising from this work. More details at
     http://www.quantum-espresso.org/quote

     Parallel version (MPI), running on    32 processors
     R & G space division:  proc/nbgrp/npool/nimage =      32
     Reading input from pw.inp
     Message from routine read_cards :
     DEPRECATED: no units specified in CELL_PARAMETERS card

     Current dimensions of program PWSCF are:
     Max number of different atomic species (ntypx) = 10
     Max number of k-points (npk) =  40000
     Max angular momentum in pseudopotentials (lmaxx) =  3
     Presently stress not available with electric field


     **************************************************************************
     Initializing libbeef V0.1.1 with the BEEF-vdW functional.
     Citation: Wellendorff et al., PRB 85, 235149 (2012).
     **************************************************************************


     IMPORTANT: XC functional enforced from input :
     Exchange-correlation      = BEEF-VDW ( 1  4 27 13 2)
     Any further DFT definition will be discarded
     Please, verify this is what you really want


     Subspace diagonalization in iterative solution of the eigenvalue problem:
     a serial algorithm will be used

 
     Parallelization info
     --------------------
     sticks:   dense  smooth     PW     G-vecs:    dense   smooth      PW
     Min          89      35     10                16921     4265     672
     Max          90      36     12                16938     4304     683
     Sum        2869    1147    337               541807   137189   21637
 


     bravais-lattice index     =            0
     lattice parameter (alat)  =       1.8897  a.u.
     unit-cell volume          =    4552.2840 (a.u.)^3
     number of atoms/cell      =           13
     number of atomic types    =            2
     number of electrons       =       169.00
     number of Kohn-Sham states=           94
     kinetic-energy cutoff     =      36.7493  Ry
     charge density cutoff     =     367.4932  Ry
     convergence threshold     =      1.0E-05
     mixing beta               =       0.3000
     number of iterations used =           10  plain     mixing
     Exchange-correlation      = BEEF-VDW ( 1  4 27 13 2)
     nstep                     =           50


     celldm(1)=   1.889726  celldm(2)=   0.000000  celldm(3)=   0.000000
     celldm(4)=   0.000000  celldm(5)=   0.000000  celldm(6)=   0.000000

     crystal axes: (cart. coord. in units of alat)
               a(1) = (   5.627661   0.000000   0.000000 )  
               a(2) = (   2.813831   4.873698   0.000000 )  
               a(3) = (   0.000000   0.000000  24.594966 )  

     reciprocal axes: (cart. coord. in units 2 pi/alat)
               b(1) = (  0.177694 -0.102592  0.000000 )  
               b(2) = (  0.000000  0.205183  0.000000 )  
               b(3) = (  0.000000  0.000000  0.040659 )  


     PseudoPot. # 1 for Mo read from file:
     /afs/slac.stanford.edu/u/if/mamunm/psp/gbrv1.5pbe/Mo.UPF
     MD5 check sum: 30c4dcd161f5d35cd49bb5239c51a633
     Pseudo is Ultrasoft + core correction, Zval = 14.0
     Generated by new atomic code, or converted to UPF format
     Using radial grid of  889 points,  6 beta functions with: 
                l(1) =   0
                l(2) =   0
                l(3) =   1
                l(4) =   1
                l(5) =   2
                l(6) =   2
     Q(r) pseudized with  6 coefficients,  rinner =    1.000   1.000   1.000
                                                       1.000   1.000

     PseudoPot. # 2 for H  read from file:
     /afs/slac.stanford.edu/u/if/mamunm/psp/gbrv1.5pbe/H.UPF
     MD5 check sum: 761ae9a214b05c3daf00ab9f6b793d6f
     Pseudo is Ultrasoft, Zval =  1.0
     Generated by new atomic code, or converted to UPF format
     Using radial grid of  615 points,  2 beta functions with: 
                l(1) =   0
                l(2) =   0
     Q(r) pseudized with  8 coefficients,  rinner =    0.700

     vdW kernel table read from file vdW_kernel_table
     MD5 check sum: 095c7af220d748ca6e76c0b4c6cfb241

     atomic species   valence    mass     pseudopotential
        Mo1           14.00    95.95000     Mo( 1.00)
        H1             1.00     1.00800     H ( 1.00)

     No symmetry found



   Cartesian axes

     site n.     atom                  positions (alat units)
         1           Mo1 tau(   1) = (   1.4069153   0.8122829  10.0000000  )
         2           Mo1 tau(   2) = (   4.2207459   0.8122829  10.0000000  )
         3           Mo1 tau(   3) = (   2.8138306   3.2491317  10.0000000  )
         4           Mo1 tau(   4) = (   5.6276612   3.2491317  10.0000000  )
         5           Mo1 tau(   5) = (   5.6276612   1.6245658  12.2974831  )
         6           Mo1 tau(   6) = (   2.8138306   1.6245658  12.2974831  )
         7           Mo1 tau(   7) = (   7.0345765   4.0614146  12.2974831  )
         8           Mo1 tau(   8) = (   4.2207459   4.0614146  12.2974831  )
         9           Mo1 tau(   9) = (   0.0000554   0.0000646  14.7271663  )
        10           Mo1 tau(  10) = (   5.6276167   4.8661784  14.5957074  )
        11           Mo1 tau(  11) = (   7.0280404   2.4405576  14.5958562  )
        12           Mo1 tau(  12) = (   4.2272672   2.4406004  14.5955472  )
        13           H1  tau(  13) = (   0.0000063   0.0000037  16.3810982  )

     number of k points=    20  Fermi-Dirac smearing, width (Ry)=  0.0110
                       cart. coord. in units 2pi/alat
        k(    1) = (   0.0000000   0.0000000   0.0000000), wk =   0.0555556
        k(    2) = (   0.0000000   0.0341972   0.0000000), wk =   0.1111111
        k(    3) = (   0.0000000   0.0683943   0.0000000), wk =   0.1111111
        k(    4) = (   0.0000000  -0.1025915   0.0000000), wk =   0.0555556
        k(    5) = (   0.0296156  -0.0170986   0.0000000), wk =   0.1111111
        k(    6) = (   0.0296156   0.0170986   0.0000000), wk =   0.1111111
        k(    7) = (   0.0296156   0.0512958   0.0000000), wk =   0.1111111
        k(    8) = (   0.0296156  -0.1196901   0.0000000), wk =   0.1111111
        k(    9) = (   0.0296156  -0.0854929   0.0000000), wk =   0.1111111
        k(   10) = (   0.0296156  -0.0512958   0.0000000), wk =   0.1111111
        k(   11) = (   0.0592312  -0.0341972   0.0000000), wk =   0.1111111
        k(   12) = (   0.0592312   0.0000000   0.0000000), wk =   0.1111111
        k(   13) = (   0.0592312   0.0341972   0.0000000), wk =   0.1111111
        k(   14) = (   0.0592312  -0.1367887   0.0000000), wk =   0.1111111
        k(   15) = (   0.0592312  -0.1025915   0.0000000), wk =   0.1111111
        k(   16) = (   0.0592312  -0.0683943   0.0000000), wk =   0.1111111
        k(   17) = (  -0.0888469   0.0512958   0.0000000), wk =   0.0555556
        k(   18) = (  -0.0888469   0.0854929   0.0000000), wk =   0.1111111
        k(   19) = (  -0.0888469   0.1196901   0.0000000), wk =   0.1111111
        k(   20) = (  -0.0888469  -0.0512958   0.0000000), wk =   0.0555556

     Dense  grid:   541807 G-vectors     FFT dimensions: (  72,  72, 288)

     Smooth grid:   137189 G-vectors     FFT dimensions: (  45,  45, 180)

     Largest allocated arrays     est. size (Mb)     dimensions
        Kohn-Sham Wavefunctions         0.81 Mb     (     564,   94)
        NL pseudopotentials             1.88 Mb     (     564,  218)
        Each V/rho on FFT grid          0.71 Mb     (   46656)
        Each G-vector array             0.13 Mb     (   16923)
        G-vector shells                 0.06 Mb     (    7559)
     Largest temporary arrays     est. size (Mb)     dimensions
        Auxiliary wavefunctions         3.24 Mb     (     564,  376)
        Each subspace H/S matrix        2.16 Mb     (     376,  376)
        Each <psi_i|beta_j> matrix      0.31 Mb     (     218,   94)
        Arrays for rho mixing           7.12 Mb     (   46656,   10)

     Initial potential from superposition of free atoms
     Check: negative starting charge=   -0.004991

     starting charge  168.98723, renormalised to  169.00000

     negative rho (up, down):  4.991E-03 0.000E+00


     ************************************************************************
     *
     * You are using vdW-DF for exchange-correlation in this calculation.
     * Please cite the following three references that made this development
     * possible:
     *
     *   M. Dion, H. Rydberg, E. Schroder, D. C. Langreth, and
     *   B. I. Lundqvist, Phys. Rev. Lett. 92, 246401 (2004).
     *
     *   T. Thonhauser, V. R. Cooper, S. Li, A. Puzder, P. Hyldgaard, and
     *   D. C. Langreth, Phys. Rev. B 76, 125112 (2007).
     *
     *   G. Roman-Perez and J. M. Soler, Phys. Rev. Lett. 103, 096102 (2009).
     *
     *
     * If you are using vdW-DF2, please also cite:
     *
     *   K. Lee, E. D. Murray, L. Kong, B. I. Lundqvist, and
     *   D. C. Langreth, Phys. Rev. B 82, 081101(R) (2010).
     *
     *
     * If you are calculating the stress with vdW-DF, please also cite:
     *
     *   R. Sabatini, E. Kucukbenli, B. Kolb, T. Thonhauser, and
     *   S. de Gironcoli, J. Phys.: Condens. Matter 24, 424209 (2012).
     *
     ************************************************************************

     Carrying out vdW-DF run using the following parameters:

     Nqs =      20    Nr_points =    1024   r_max =   100.000
     q_mesh =
               0.00001000     0.04494208     0.09755937     0.15916263
               0.23128650     0.31572767     0.41458969     0.53033537
               0.66584808     0.82450364     1.01025438     1.22772762
               1.48234092     1.78043706     2.12944203     2.53805004
               3.01644009     3.57652955     4.23227104     5.00000000

     Gradients computed in reciprocal space

     ************************************************************************


 
     Adding external electric field

     Computed dipole along edir(3) : 
        Dipole               -0.0005 Ry au,         -0.0013 Debye
        Dipole field         -0.0000 Ry au
 
        Potential amp.        0.0001 Ry
        Total length         45.3158 bohr
 
     Starting wfc are  157 randomized atomic wfcs

     total cpu time spent up to now is       22.1 secs

     per-process dynamical memory:    49.0 Mb

     Self-consistent Calculation

     iteration #  1     ecut=    36.75 Ry     beta=0.30
     Davidson diagonalization with overlap
     ethr =  1.00E-02,  avg # of iterations =  2.0

     negative rho (up, down):  4.932E-03 0.000E+00
 
     Adding external electric field

     Computed dipole along edir(3) : 
        Dipole               -1.4427 Ry au,         -3.6671 Debye
        Dipole field         -0.0040 Ry au
 
        Potential amp.        0.3610 Ry
        Total length         45.3158 bohr
 

     total cpu time spent up to now is       57.5 secs

     total energy              =   -1677.98299531 Ry
     Harris-Foulkes estimate   =   -1680.96854449 Ry
     estimated scf accuracy    <       6.24781692 Ry

     iteration #  2     ecut=    36.75 Ry     beta=0.30
     Davidson diagonalization with overlap
     ethr =  3.70E-03,  avg # of iterations =  8.1

     negative rho (up, down):  3.582E-03 0.000E+00
 
     Adding external electric field

     Computed dipole along edir(3) : 
        Dipole                2.5626 Ry au,          6.5136 Debye
        Dipole field          0.0071 Ry au
 
        Potential amp.       -0.6411 Ry
        Total length         45.3158 bohr
 

     total cpu time spent up to now is      117.7 secs

     total energy              =   -1672.68199747 Ry
     Harris-Foulkes estimate   =   -1687.62979881 Ry
     estimated scf accuracy    <     203.54110022 Ry

     iteration #  3     ecut=    36.75 Ry     beta=0.30
     Davidson diagonalization with overlap
     ethr =  3.70E-03,  avg # of iterations =  8.3

     negative rho (up, down):  2.223E-03 0.000E+00
 
     Adding external electric field

     Computed dipole along edir(3) : 
        Dipole                0.0978 Ry au,          0.2487 Debye
        Dipole field          0.0003 Ry au
 
        Potential amp.       -0.0245 Ry
        Total length         45.3158 bohr
 

     total cpu time spent up to now is      181.2 secs

     total energy              =   -1675.42022409 Ry
     Harris-Foulkes estimate   =   -1686.65494089 Ry
     estimated scf accuracy    <     379.64092361 Ry

     iteration #  4     ecut=    36.75 Ry     beta=0.30
     Davidson diagonalization with overlap
     ethr =  3.70E-03,  avg # of iterations =  7.6

     negative rho (up, down):  1.972E-03 0.000E+00
 
     Adding external electric field

     Computed dipole along edir(3) : 
        Dipole                0.0232 Ry au,          0.0590 Debye
        Dipole field          0.0001 Ry au
 
        Potential amp.       -0.0058 Ry
        Total length         45.3158 bohr
 

     total cpu time spent up to now is      234.5 secs

     total energy              =   -1680.36233311 Ry
     Harris-Foulkes estimate   =   -1680.44554769 Ry
     estimated scf accuracy    <       0.43975672 Ry

     iteration #  5     ecut=    36.75 Ry     beta=0.30
     Davidson diagonalization with overlap
     ethr =  2.60E-04,  avg # of iterations =  5.1

     negative rho (up, down):  1.886E-03 0.000E+00
 
     Adding external electric field

     Computed dipole along edir(3) : 
        Dipole               -0.0340 Ry au,         -0.0865 Debye
        Dipole field         -0.0001 Ry au
 
        Potential amp.        0.0085 Ry
        Total length         45.3158 bohr
 

     total cpu time spent up to now is      277.0 secs

     total energy              =   -1680.36925015 Ry
     Harris-Foulkes estimate   =   -1680.42578050 Ry
     estimated scf accuracy    <       0.35598049 Ry

     iteration #  6     ecut=    36.75 Ry     beta=0.30
     Davidson diagonalization with overlap
     ethr =  2.11E-04,  avg # of iterations =  3.2

     negative rho (up, down):  2.067E-03 0.000E+00
 
     Adding external electric field

     Computed dipole along edir(3) : 
        Dipole               -0.0697 Ry au,         -0.1772 Debye
        Dipole field         -0.0002 Ry au
 
        Potential amp.        0.0174 Ry
        Total length         45.3158 bohr
 

     total cpu time spent up to now is      312.8 secs

     total energy              =   -1680.38905148 Ry
     Harris-Foulkes estimate   =   -1680.39912731 Ry
     estimated scf accuracy    <       0.09714067 Ry

     iteration #  7     ecut=    36.75 Ry     beta=0.30
     Davidson diagonalization with overlap
     ethr =  5.75E-05,  avg # of iterations =  4.2

     negative rho (up, down):  2.409E-03 0.000E+00
 
     Adding external electric field

     Computed dipole along edir(3) : 
        Dipole               -0.0985 Ry au,         -0.2504 Debye
        Dipole field         -0.0003 Ry au
 
        Potential amp.        0.0246 Ry
        Total length         45.3158 bohr
 

     total cpu time spent up to now is      352.1 secs

     total energy              =   -1680.39300970 Ry
     Harris-Foulkes estimate   =   -1680.40115986 Ry
     estimated scf accuracy    <       0.08384749 Ry

     iteration #  8     ecut=    36.75 Ry     beta=0.30
     Davidson diagonalization with overlap
     ethr =  4.96E-05,  avg # of iterations =  1.9

     negative rho (up, down):  2.919E-03 0.000E+00
 
     Adding external electric field

     Computed dipole along edir(3) : 
        Dipole               -0.1196 Ry au,         -0.3039 Debye
        Dipole field         -0.0003 Ry au
 
        Potential amp.        0.0299 Ry
        Total length         45.3158 bohr
 

     total cpu time spent up to now is      384.4 secs

     total energy              =   -1680.39401663 Ry
     Harris-Foulkes estimate   =   -1680.39606463 Ry
     estimated scf accuracy    <       0.04200903 Ry

     iteration #  9     ecut=    36.75 Ry     beta=0.30
     Davidson diagonalization with overlap
     ethr =  2.49E-05,  avg # of iterations =  3.6

     negative rho (up, down):  3.700E-03 0.000E+00
 
     Adding external electric field

     Computed dipole along edir(3) : 
        Dipole               -0.1340 Ry au,         -0.3405 Debye
        Dipole field         -0.0004 Ry au
 
        Potential amp.        0.0335 Ry
        Total length         45.3158 bohr
 

     total cpu time spent up to now is      420.3 secs

     total energy              =   -1680.40252824 Ry
     Harris-Foulkes estimate   =   -1680.40279740 Ry
     estimated scf accuracy    <       0.00346428 Ry

     iteration # 10     ecut=    36.75 Ry     beta=0.30
     Davidson diagonalization with overlap
     ethr =  2.05E-06,  avg # of iterations =  5.8

     negative rho (up, down):  4.109E-03 0.000E+00
 
     Adding external electric field

     Computed dipole along edir(3) : 
        Dipole               -0.1336 Ry au,         -0.3396 Debye
        Dipole field         -0.0004 Ry au
 
        Potential amp.        0.0334 Ry
        Total length         45.3158 bohr
 

     total cpu time spent up to now is      472.1 secs

     total energy              =   -1680.40294241 Ry
     Harris-Foulkes estimate   =   -1680.40359061 Ry
     estimated scf accuracy    <       0.00648717 Ry

     iteration # 11     ecut=    36.75 Ry     beta=0.30
     Davidson diagonalization with overlap
     ethr =  2.05E-06,  avg # of iterations =  3.4

     negative rho (up, down):  4.656E-03 0.000E+00
 
     Adding external electric field

     Computed dipole along edir(3) : 
        Dipole               -0.1474 Ry au,         -0.3746 Debye
        Dipole field         -0.0004 Ry au
 
        Potential amp.        0.0369 Ry
        Total length         45.3158 bohr
 

     total cpu time spent up to now is      507.8 secs

     total energy              =   -1680.40317891 Ry
     Harris-Foulkes estimate   =   -1680.40328084 Ry
     estimated scf accuracy    <       0.00089138 Ry

     iteration # 12     ecut=    36.75 Ry     beta=0.30
     Davidson diagonalization with overlap
     ethr =  5.27E-07,  avg # of iterations =  4.0

     negative rho (up, down):  4.844E-03 0.000E+00
 
     Adding external electric field

     Computed dipole along edir(3) : 
        Dipole               -0.1446 Ry au,         -0.3676 Debye
        Dipole field         -0.0004 Ry au
 
        Potential amp.        0.0362 Ry
        Total length         45.3158 bohr
 

     total cpu time spent up to now is      548.7 secs

     total energy              =   -1680.40331299 Ry
     Harris-Foulkes estimate   =   -1680.40332675 Ry
     estimated scf accuracy    <       0.00015663 Ry

     iteration # 13     ecut=    36.75 Ry     beta=0.30
     Davidson diagonalization with overlap
     ethr =  9.27E-08,  avg # of iterations =  2.4

     negative rho (up, down):  4.934E-03 0.000E+00
 
     Adding external electric field

     Computed dipole along edir(3) : 
        Dipole               -0.1449 Ry au,         -0.3682 Debye
        Dipole field         -0.0004 Ry au
 
        Potential amp.        0.0362 Ry
        Total length         45.3158 bohr
 

     total cpu time spent up to now is      583.5 secs

     total energy              =   -1680.40331537 Ry
     Harris-Foulkes estimate   =   -1680.40332246 Ry
     estimated scf accuracy    <       0.00006723 Ry

     iteration # 14     ecut=    36.75 Ry     beta=0.30
     Davidson diagonalization with overlap
     ethr =  3.98E-08,  avg # of iterations =  3.5

     negative rho (up, down):  4.994E-03 0.000E+00
 
     Adding external electric field

     Computed dipole along edir(3) : 
        Dipole               -0.1462 Ry au,         -0.3717 Debye
        Dipole field         -0.0004 Ry au
 
        Potential amp.        0.0366 Ry
        Total length         45.3158 bohr
 

     total cpu time spent up to now is      621.2 secs

     total energy              =   -1680.40332143 Ry
     Harris-Foulkes estimate   =   -1680.40332156 Ry
     estimated scf accuracy    <       0.00003098 Ry

     iteration # 15     ecut=    36.75 Ry     beta=0.30
     Davidson diagonalization with overlap
     ethr =  1.83E-08,  avg # of iterations =  2.4

     negative rho (up, down):  5.039E-03 0.000E+00

     negative rho (up, down):  5.039E-03 0.000E+00

     negative rho (up, down):  5.039E-03 0.000E+00

     negative rho (up, down):  5.039E-03 0.000E+00

     negative rho (up, down):  5.039E-03 0.000E+00

     negative rho (up, down):  5.039E-03 0.000E+00

     negative rho (up, down):  5.039E-03 0.000E+00

     negative rho (up, down):  5.039E-03 0.000E+00

     negative rho (up, down):  5.039E-03 0.000E+00

     negative rho (up, down):  5.039E-03 0.000E+00

     negative rho (up, down):  5.039E-03 0.000E+00

     negative rho (up, down):  5.039E-03 0.000E+00

     negative rho (up, down):  5.039E-03 0.000E+00

     negative rho (up, down):  5.039E-03 0.000E+00

     negative rho (up, down):  5.039E-03 0.000E+00

     negative rho (up, down):  5.039E-03 0.000E+00

     negative rho (up, down):  5.039E-03 0.000E+00

     negative rho (up, down):  5.039E-03 0.000E+00

     negative rho (up, down):  5.039E-03 0.000E+00

     negative rho (up, down):  5.039E-03 0.000E+00

     negative rho (up, down):  5.039E-03 0.000E+00

     negative rho (up, down):  5.039E-03 0.000E+00

     negative rho (up, down):  5.039E-03 0.000E+00

     negative rho (up, down):  5.039E-03 0.000E+00

     negative rho (up, down):  5.039E-03 0.000E+00

     negative rho (up, down):  5.039E-03 0.000E+00

     negative rho (up, down):  5.039E-03 0.000E+00

     negative rho (up, down):  5.039E-03 0.000E+00

     negative rho (up, down):  5.039E-03 0.000E+00

     negative rho (up, down):  5.039E-03 0.000E+00

     negative rho (up, down):  5.039E-03 0.000E+00

     negative rho (up, down):  5.039E-03 0.000E+00

     negative rho (up, down):  5.039E-03 0.000E+00

     negative rho (up, down):  5.039E-03 0.000E+00

     negative rho (up, down):  5.039E-03 0.000E+00
 
     Adding external electric field

     Computed dipole along edir(3) : 
        Dipole               -0.1387 Ry au,         -0.3527 Debye
        Dipole field         -0.0004 Ry au
 
        Potential amp.        0.0347 Ry
        Total length         45.3158 bohr
 

     total cpu time spent up to now is      715.0 secs

     End of self-consistent calculation

          k = 0.0000 0.0000 0.0000 ( 17111 PWs)   bands (ev):

   -58.9201 -58.8311 -58.7552 -58.7270 -58.7269 -58.7030 -58.6903 -58.6901
   -58.6508 -58.6440 -58.6432 -58.6143 -33.4482 -33.4481 -33.4461 -33.3666
   -33.3394 -33.3392 -33.3333 -33.2558 -33.2514 -33.2512 -32.9335 -32.8114
   -32.8112 -32.7607 -32.7602 -32.7586 -32.7271 -32.6378 -32.6200 -32.6199
   -32.5385 -32.5383 -32.5344 -32.5065 -32.4831 -32.4829 -32.4536 -32.4135
   -32.4093 -32.4091 -32.3477 -32.3477 -32.2562 -32.2562 -32.2129 -32.2129
    -3.8720  -2.5428  -2.3608  -2.3173  -2.3173  -2.3049  -2.0047  -1.8886
    -1.8885  -1.7027  -1.6731  -1.6730  -1.4363  -1.4144  -1.4144  -0.9457
    -0.2549  -0.2309  -0.2307   0.7050   0.7050   0.7340   0.9757   1.2951
     1.4388   1.4388   1.7131   1.7131   1.7934   1.8548   1.8549   1.9053
     1.9054   2.0015   2.0972   2.0975   2.9013   3.1648   3.2017   3.2019
     3.4016   3.4155   3.4157   3.8220   3.9344   3.9344

          k = 0.0000 0.0342 0.0000 ( 17130 PWs)   bands (ev):

   -58.9079 -58.8215 -58.7476 -58.7388 -58.7270 -58.7077 -58.6957 -58.6901
   -58.6536 -58.6471 -58.6436 -58.6164 -33.4123 -33.4110 -33.3871 -33.3420
   -33.3067 -33.3054 -33.2916 -33.2197 -33.2153 -33.1890 -32.9331 -32.8617
   -32.8401 -32.7918 -32.7453 -32.7378 -32.7069 -32.6567 -32.6429 -32.6080
   -32.5813 -32.5701 -32.5201 -32.4986 -32.4892 -32.4737 -32.4711 -32.4490
   -32.4480 -32.4091 -32.3974 -32.3670 -32.3112 -32.2792 -32.2718 -32.2257
    -3.6311  -2.3068  -2.2141  -2.1436  -2.1137  -2.0660  -1.8966  -1.7565
    -1.6984  -1.5744  -1.5268  -1.5219  -1.2964  -1.1773  -1.1540  -0.8917
    -0.2122  -0.1809  -0.1370   0.7707   0.7966   0.7974   0.9180   1.1023
     1.2032   1.4815   1.5439   1.6484   1.6892   1.7857   1.8375   1.8618
     1.9115   2.0098   2.0620   2.1301   2.5348   2.8001   2.8103   2.8762
     3.1733   3.2755   3.4337   3.5118   3.7481   3.7959

          k = 0.0000 0.0684 0.0000 ( 17142 PWs)   bands (ev):

   -58.8742 -58.7971 -58.7734 -58.7273 -58.7267 -58.7253 -58.7020 -58.6900
   -58.6707 -58.6483 -58.6435 -58.6206 -33.3229 -33.3223 -33.2847 -33.2444
   -33.2307 -33.2122 -33.2022 -33.1344 -33.1272 -33.0149 -32.9453 -32.9108
   -32.9076 -32.8543 -32.7233 -32.7107 -32.6979 -32.6974 -32.6767 -32.6726
   -32.6538 -32.6003 -32.5611 -32.5559 -32.5550 -32.5393 -32.4864 -32.4844
   -32.4790 -32.4679 -32.4385 -32.4152 -32.3899 -32.3609 -32.3139 -32.2612
    -2.9975  -1.9991  -1.8190  -1.6902  -1.6578  -1.6326  -1.4809  -1.3494
    -1.2347  -1.2201  -1.0915  -1.0642  -0.9493  -0.7339  -0.5307  -0.4904
    -0.1140  -0.0683   0.1154   0.3230   0.5628   0.8442   0.8744   0.9379
     1.0562   1.1074   1.2072   1.4122   1.4869   1.5564   1.6146   1.6779
     1.9894   2.0666   2.0790   2.1248   2.1960   2.2244   2.2542   2.4927
     2.5882   2.6339   2.7510   2.7953   2.9550   3.1481

          k = 0.0000-0.1026 0.0000 ( 17160 PWs)   bands (ev):

   -58.8343 -58.8184 -58.7639 -58.7528 -58.7275 -58.7064 -58.6983 -58.6942
   -58.6900 -58.6484 -58.6434 -58.6225 -33.2569 -33.2544 -33.2262 -33.2093
   -33.1984 -33.1870 -33.0696 -33.0590 -33.0404 -33.0165 -32.9759 -32.9317
   -32.8146 -32.7901 -32.7770 -32.7623 -32.7379 -32.7227 -32.7010 -32.6809
   -32.6733 -32.6619 -32.6449 -32.6396 -32.6355 -32.6324 -32.4994 -32.4854
   -32.4852 -32.4837 -32.4457 -32.4327 -32.3848 -32.3628 -32.3127 -32.3079
    -2.3377  -2.2280  -1.5893  -1.4530  -1.3291  -1.2763  -1.1886  -1.0688
    -1.0547  -0.9033  -0.7591  -0.5549  -0.4702  -0.4375  -0.3152  -0.2894
    -0.2017   0.1980   0.2828   0.3827   0.3913   0.4117   0.6581   0.8082
     0.9713   1.1491   1.1533   1.3098   1.3364   1.3621   1.3749   1.4813
     1.4936   1.5512   1.6111   1.6772   1.7868   1.9111   2.0255   2.2771
     2.3290   2.7678   2.9293   2.9787   3.0329   3.0892

          k = 0.0296-0.0171 0.0000 ( 17130 PWs)   bands (ev):

   -58.9079 -58.8215 -58.7476 -58.7387 -58.7271 -58.7077 -58.6956 -58.6902
   -58.6534 -58.6477 -58.6432 -58.6164 -33.4121 -33.4112 -33.3871 -33.3420
   -33.3069 -33.3052 -33.2917 -33.2195 -33.2155 -33.1890 -32.9331 -32.8618
   -32.8400 -32.7919 -32.7451 -32.7378 -32.7069 -32.6567 -32.6429 -32.6080
   -32.5812 -32.5702 -32.5202 -32.4986 -32.4892 -32.4736 -32.4711 -32.4490
   -32.4480 -32.4091 -32.3974 -32.3670 -32.3112 -32.2792 -32.2718 -32.2257
    -3.6311  -2.3068  -2.2140  -2.1437  -2.1136  -2.0660  -1.8966  -1.7566
    -1.6983  -1.5744  -1.5267  -1.5220  -1.2965  -1.1773  -1.1541  -0.8917
    -0.2121  -0.1810  -0.1370   0.7706   0.7966   0.7975   0.9180   1.1023
     1.2032   1.4815   1.5440   1.6484   1.6891   1.7858   1.8374   1.8619
     1.9115   2.0097   2.0621   2.1301   2.5348   2.8001   2.8102   2.8763
     3.1733   3.2756   3.4338   3.5117   3.7481   3.7960

          k = 0.0296 0.0171 0.0000 ( 17130 PWs)   bands (ev):

   -58.9079 -58.8215 -58.7476 -58.7387 -58.7272 -58.7076 -58.6956 -58.6902
   -58.6537 -58.6468 -58.6438 -58.6164 -33.4122 -33.4111 -33.3871 -33.3420
   -33.3067 -33.3053 -33.2916 -33.2198 -33.2152 -33.1890 -32.9331 -32.8616
   -32.8402 -32.7917 -32.7454 -32.7377 -32.7068 -32.6568 -32.6428 -32.6080
   -32.5814 -32.5700 -32.5201 -32.4987 -32.4892 -32.4737 -32.4711 -32.4492
   -32.4478 -32.4091 -32.3974 -32.3670 -32.3112 -32.2792 -32.2718 -32.2257
    -3.6311  -2.3068  -2.2140  -2.1437  -2.1136  -2.0660  -1.8966  -1.7565
    -1.6983  -1.5744  -1.5268  -1.5219  -1.2964  -1.1774  -1.1540  -0.8917
    -0.2122  -0.1809  -0.1370   0.7707   0.7966   0.7974   0.9180   1.1024
     1.2032   1.4815   1.5438   1.6484   1.6892   1.7858   1.8376   1.8619
     1.9114   2.0098   2.0619   2.1301   2.5348   2.8001   2.8104   2.8762
     3.1734   3.2755   3.4337   3.5119   3.7480   3.7959

          k = 0.0296 0.0513 0.0000 ( 17106 PWs)   bands (ev):

   -58.8849 -58.8041 -58.7560 -58.7414 -58.7317 -58.7093 -58.7078 -58.6872
   -58.6597 -58.6568 -58.6400 -58.6195 -33.3651 -33.3171 -33.3024 -33.2867
   -33.2559 -33.2377 -33.2290 -33.1740 -33.1057 -33.1013 -32.9394 -32.9054
   -32.8906 -32.8417 -32.7542 -32.7118 -32.7098 -32.6925 -32.6715 -32.6185
   -32.6105 -32.5609 -32.5477 -32.5407 -32.5364 -32.5124 -32.5084 -32.4649
   -32.4631 -32.4210 -32.4191 -32.4162 -32.4062 -32.3571 -32.2984 -32.2597
    -3.1880  -1.9388  -1.9135  -1.8873  -1.7665  -1.6807  -1.6312  -1.5927
    -1.3735  -1.2920  -1.2768  -1.1552  -0.9420  -0.9174  -0.7639  -0.6314
    -0.1585  -0.0525  -0.0189   0.5062   0.7663   0.8477   0.8982   0.9348
     0.9869   1.0653   1.4023   1.4169   1.5572   1.5984   1.7667   1.8446
     1.8861   2.0359   2.0997   2.2388   2.2791   2.3095   2.3695   2.5814
[...]
   -33.2382 -33.2333 -33.1764 -33.1466 -33.0743 -33.0500 -33.0306 -32.9829
   -32.9624 -32.9237 -32.8942 -32.8442 -32.7796 -32.7557 -32.7429 -32.7375
   -32.7261 -32.6960 -32.6833 -32.6612 -32.6435 -32.6035 -32.5885 -32.5749
   -32.5436 -32.5204 -32.4973 -32.4845 -32.4687 -32.4268 -32.4229 -32.3701
    -2.5071  -1.9274  -1.5548  -1.4417  -1.4080  -1.3595  -1.2920  -1.1030
    -0.9715  -0.9096  -0.8607  -0.6721  -0.5747  -0.5418  -0.4547  -0.2862
    -0.0862   0.0318   0.0967   0.1779   0.3517   0.4499   0.5476   0.6357
     0.7878   0.9479   1.0477   1.0712   1.1364   1.2074   1.2539   1.3912
     1.4950   1.5524   1.6027   1.7161   1.8982   1.9461   2.1072   2.2562
     2.3936   2.4753   2.8431   2.8775   2.9667   3.0687

          k = 0.0296-0.0513 0.0000 ( 17106 PWs)   bands (ev):

   -58.9432 -58.8601 -58.8114 -58.7996 -58.7896 -58.7625 -58.7582 -58.7477
   -58.7281 -58.7175 -58.7120 -58.6982 -33.4264 -33.3811 -33.3611 -33.3438
   -33.3161 -33.3000 -33.2872 -33.2333 -33.1661 -33.1610 -32.9939 -32.9614
   -32.9481 -32.8999 -32.8141 -32.7664 -32.7618 -32.7609 -32.7364 -32.6799
   -32.6689 -32.6223 -32.6105 -32.6013 -32.5929 -32.5706 -32.5670 -32.5291
   -32.5205 -32.4857 -32.4753 -32.4736 -32.4644 -32.4148 -32.3645 -32.3184
    -3.2290  -1.9851  -1.9493  -1.9364  -1.8182  -1.7174  -1.6893  -1.6439
    -1.3927  -1.3430  -1.3177  -1.2078  -0.9921  -0.9640  -0.6956  -0.6747
    -0.2157  -0.1015  -0.0575   0.4531   0.7081   0.7721   0.8496   0.8779
     0.9322   1.0054   1.3395   1.3496   1.5085   1.5415   1.6987   1.7752
     1.8269   1.9664   2.0374   2.1782   2.2214   2.2499   2.3311   2.5260
     2.6677   2.7912   2.8792   2.9829   3.0602   3.1952

          k = 0.0592-0.0342 0.0000 ( 17142 PWs)   bands (ev):

   -58.9323 -58.8523 -58.8314 -58.7849 -58.7828 -58.7776 -58.7596 -58.7440
   -58.7310 -58.7266 -58.7043 -58.7019 -33.3884 -33.3799 -33.3429 -33.3058
   -33.2922 -33.2710 -33.2610 -33.1909 -33.1907 -33.0753 -33.0000 -32.9708
   -32.9633 -32.9114 -32.7772 -32.7709 -32.7591 -32.7520 -32.7452 -32.7281
   -32.7189 -32.6625 -32.6188 -32.6155 -32.6152 -32.6054 -32.5504 -32.5389
   -32.5364 -32.5214 -32.4987 -32.4785 -32.4430 -32.4201 -32.3810 -32.3201
    -3.0369  -2.0431  -1.8307  -1.7539  -1.7163  -1.6782  -1.5295  -1.3452
    -1.2899  -1.2784  -1.1272  -1.1167  -0.9998  -0.6911  -0.5832  -0.5357
    -0.1792  -0.1035   0.0607   0.2758   0.4923   0.7745   0.8102   0.8858
     1.0039   1.0277   1.1667   1.3366   1.4461   1.4796   1.5600   1.6222
     1.9337   1.9978   2.0051   2.0498   2.1643   2.1680   2.1990   2.4071
     2.5271   2.5836   2.6910   2.7646   2.9119   3.0834

          k = 0.0592 0.0000 0.0000 ( 17106 PWs)   bands (ev):

   -58.9431 -58.8601 -58.8116 -58.7995 -58.7897 -58.7625 -58.7582 -58.7476
   -58.7281 -58.7175 -58.7120 -58.6982 -33.4264 -33.3811 -33.3611 -33.3438
   -33.3161 -33.3000 -33.2872 -33.2333 -33.1661 -33.1610 -32.9939 -32.9615
   -32.9481 -32.8999 -32.8141 -32.7664 -32.7618 -32.7609 -32.7364 -32.6799
   -32.6689 -32.6223 -32.6105 -32.6013 -32.5929 -32.5706 -32.5670 -32.5291
   -32.5205 -32.4857 -32.4753 -32.4736 -32.4644 -32.4148 -32.3645 -32.3184
    -3.2290  -1.9851  -1.9493  -1.9364  -1.8182  -1.7174  -1.6893  -1.6439
    -1.3927  -1.3430  -1.3177  -1.2078  -0.9921  -0.9640  -0.6956  -0.6747
    -0.2157  -0.1015  -0.0575   0.4531   0.7081   0.7721   0.8496   0.8779
     0.9322   1.0055   1.3395   1.3496   1.5085   1.5414   1.6987   1.7752
     1.8269   1.9663   2.0374   2.1782   2.2214   2.2498   2.3311   2.5260
     2.6677   2.7912   2.8792   2.9828   3.0602   3.1951

          k = 0.0592 0.0342 0.0000 ( 17142 PWs)   bands (ev):

   -58.9323 -58.8524 -58.8312 -58.7849 -58.7830 -58.7775 -58.7596 -58.7441
   -58.7309 -58.7266 -58.7045 -58.7017 -33.3885 -33.3799 -33.3430 -33.3058
   -33.2923 -33.2710 -33.2610 -33.1909 -33.1907 -33.0753 -33.0000 -32.9709
   -32.9632 -32.9114 -32.7773 -32.7708 -32.7591 -32.7520 -32.7451 -32.7281
   -32.7189 -32.6624 -32.6188 -32.6155 -32.6152 -32.6055 -32.5503 -32.5390
   -32.5364 -32.5214 -32.4988 -32.4784 -32.4430 -32.4201 -32.3810 -32.3201
    -3.0369  -2.0431  -1.8307  -1.7540  -1.7163  -1.6782  -1.5295  -1.3452
    -1.2899  -1.2784  -1.1272  -1.1167  -0.9998  -0.6911  -0.5832  -0.5357
    -0.1792  -0.1035   0.0607   0.2758   0.4923   0.7745   0.8101   0.8858
     1.0040   1.0277   1.1667   1.3366   1.4461   1.4796   1.5600   1.6223
     1.9337   1.9978   2.0051   2.0499   2.1643   2.1680   2.1990   2.4071
     2.5271   2.5836   2.6910   2.7647   2.9118   3.0834

          k = 0.0592-0.1368 0.0000 ( 17122 PWs)   bands (ev):

   -58.9026 -58.8523 -58.8282 -58.8105 -58.7880 -58.7664 -58.7615 -58.7448
   -58.7364 -58.7265 -58.7169 -58.6955 -33.3341 -33.3014 -33.2691 -33.2567
   -33.2382 -33.2333 -33.1764 -33.1467 -33.0743 -33.0500 -33.0306 -32.9829
   -32.9624 -32.9237 -32.8941 -32.8442 -32.7797 -32.7557 -32.7428 -32.7376
   -32.7261 -32.6960 -32.6833 -32.6612 -32.6435 -32.6034 -32.5885 -32.5749
   -32.5435 -32.5204 -32.4973 -32.4845 -32.4687 -32.4268 -32.4229 -32.3701
    -2.5071  -1.9274  -1.5548  -1.4417  -1.4079  -1.3595  -1.2920  -1.1030
    -0.9715  -0.9096  -0.8607  -0.6721  -0.5746  -0.5418  -0.4547  -0.2862
    -0.0861   0.0318   0.0967   0.1778   0.3518   0.4500   0.5476   0.6357
     0.7878   0.9479   1.0478   1.0713   1.1363   1.2074   1.2540   1.3912
     1.4950   1.5524   1.6027   1.7162   1.8982   1.9461   2.1070   2.2562
     2.3936   2.4753   2.8431   2.8775   2.9667   3.0687

          k = 0.0592-0.1026 0.0000 ( 17100 PWs)   bands (ev):

   -58.8702 -58.8578 -58.8482 -58.8016 -58.7924 -58.7853 -58.7463 -58.7419
   -58.7390 -58.7278 -58.7267 -58.6929 -33.2648 -33.2494 -33.2439 -33.2094
   -33.2065 -33.1889 -33.1411 -33.1408 -33.0905 -33.0203 -32.9983 -32.9742
   -32.9396 -32.9216 -32.9176 -32.8968 -32.8918 -32.8895 -32.7475 -32.7336
   -32.7323 -32.7242 -32.6933 -32.6190 -32.6036 -32.5969 -32.5894 -32.5433
   -32.5375 -32.5335 -32.5060 -32.5042 -32.5003 -32.4465 -32.4361 -32.4344
    -1.9242  -1.7829  -1.7749  -1.3036  -1.0846  -1.0397  -0.9804  -0.9693
    -0.7111  -0.6993  -0.5394  -0.5381  -0.5067  -0.4460  -0.4429  -0.1909
     0.0432   0.1242   0.2314   0.2347   0.2437   0.3404   0.3909   0.4179
     0.5221   0.5776   0.6302   0.6783   0.7467   0.9133   1.0404   1.2711
     1.2969   1.3309   1.3561   1.7935   1.7977   1.9135   2.1228   2.1768
     2.1814   2.5289   2.6659   2.7951   3.0264   3.1504

          k = 0.0592-0.0684 0.0000 ( 17122 PWs)   bands (ev):

   -58.9026 -58.8523 -58.8283 -58.8105 -58.7881 -58.7664 -58.7613 -58.7448
   -58.7364 -58.7264 -58.7169 -58.6955 -33.3341 -33.3014 -33.2691 -33.2567
   -33.2382 -33.2332 -33.1764 -33.1467 -33.0743 -33.0500 -33.0307 -32.9829
   -32.9624 -32.9237 -32.8941 -32.8442 -32.7797 -32.7557 -32.7427 -32.7377
   -32.7261 -32.6960 -32.6833 -32.6612 -32.6435 -32.6034 -32.5886 -32.5749
   -32.5435 -32.5204 -32.4973 -32.4845 -32.4688 -32.4269 -32.4228 -32.3702
    -2.5071  -1.9274  -1.5548  -1.4417  -1.4079  -1.3595  -1.2920  -1.1030
    -0.9714  -0.9096  -0.8607  -0.6721  -0.5747  -0.5418  -0.4547  -0.2862
    -0.0861   0.0318   0.0967   0.1778   0.3517   0.4500   0.5476   0.6357
     0.7878   0.9479   1.0478   1.0712   1.1364   1.2074   1.2539   1.3912
     1.4950   1.5524   1.6026   1.7162   1.8982   1.9460   2.1071   2.2562
     2.3936   2.4753   2.8431   2.8774   2.9667   3.0687

          k =-0.0888 0.0513 0.0000 ( 17160 PWs)   bands (ev):

   -58.8907 -58.8770 -58.8169 -58.8103 -58.7830 -58.7642 -58.7579 -58.7492
   -58.7439 -58.7303 -58.7043 -58.7018 -33.3205 -33.3137 -33.2881 -33.2693
   -33.2551 -33.2483 -33.1256 -33.1252 -33.1008 -33.0715 -33.0381 -32.9870
   -32.8739 -32.8453 -32.8354 -32.8220 -32.7914 -32.7724 -32.7719 -32.7588
   -32.7349 -32.7180 -32.7069 -32.7004 -32.6916 -32.6884 -32.5566 -32.5486
   -32.5482 -32.5377 -32.5047 -32.4773 -32.4430 -32.4348 -32.3763 -32.3630
    -2.3522  -2.2825  -1.5770  -1.5222  -1.3656  -1.3260  -1.1841  -1.1244
    -1.0995  -0.9518  -0.7428  -0.6237  -0.5247  -0.5010  -0.3856  -0.3392
    -0.2363   0.1155   0.2133   0.3081   0.3297   0.3578   0.6156   0.7175
     0.9273   1.0682   1.0732   1.2448   1.2830   1.3015   1.3153   1.4242
     1.4327   1.4875   1.5606   1.6554   1.7100   1.8934   2.0067   2.2002
     2.2798   2.7013   2.9020   2.9143   2.9723   3.0434

          k =-0.0888 0.0855 0.0000 ( 17122 PWs)   bands (ev):

   -58.9026 -58.8524 -58.8282 -58.8106 -58.7880 -58.7665 -58.7613 -58.7448
   -58.7365 -58.7265 -58.7169 -58.6955 -33.3341 -33.3013 -33.2691 -33.2567
   -33.2382 -33.2332 -33.1764 -33.1467 -33.0743 -33.0500 -33.0306 -32.9829
   -32.9624 -32.9237 -32.8942 -32.8442 -32.7796 -32.7557 -32.7427 -32.7377
   -32.7260 -32.6960 -32.6833 -32.6611 -32.6435 -32.6034 -32.5885 -32.5749
   -32.5435 -32.5204 -32.4973 -32.4845 -32.4688 -32.4269 -32.4228 -32.3702
    -2.5071  -1.9274  -1.5548  -1.4417  -1.4079  -1.3595  -1.2920  -1.1030
    -0.9714  -0.9096  -0.8607  -0.6721  -0.5747  -0.5418  -0.4547  -0.2862
    -0.0861   0.0318   0.0967   0.1778   0.3517   0.4499   0.5477   0.6357
     0.7878   0.9479   1.0478   1.0713   1.1364   1.2074   1.2539   1.3912
     1.4950   1.5524   1.6027   1.7161   1.8982   1.9460   2.1071   2.2562
     2.3936   2.4753   2.8431   2.8775   2.9667   3.0687

          k =-0.0888 0.1197 0.0000 ( 17122 PWs)   bands (ev):

   -58.9026 -58.8524 -58.8281 -58.8108 -58.7879 -58.7665 -58.7614 -58.7447
   -58.7365 -58.7265 -58.7169 -58.6955 -33.3341 -33.3013 -33.2691 -33.2567
   -33.2382 -33.2332 -33.1764 -33.1467 -33.0743 -33.0500 -33.0306 -32.9829
   -32.9624 -32.9237 -32.8942 -32.8442 -32.7796 -32.7557 -32.7428 -32.7376
   -32.7260 -32.6960 -32.6833 -32.6612 -32.6434 -32.6035 -32.5885 -32.5749
   -32.5435 -32.5204 -32.4973 -32.4845 -32.4688 -32.4268 -32.4229 -32.3701
    -2.5071  -1.9274  -1.5548  -1.4417  -1.4079  -1.3595  -1.2920  -1.1030
    -0.9715  -0.9096  -0.8607  -0.6721  -0.5746  -0.5418  -0.4547  -0.2862
    -0.0861   0.0318   0.0967   0.1778   0.3517   0.4500   0.5477   0.6357
     0.7878   0.9479   1.0477   1.0713   1.1364   1.2074   1.2539   1.3911
     1.4950   1.5524   1.6027   1.7161   1.8982   1.9461   2.1071   2.2562
     2.3936   2.4753   2.8431   2.8775   2.9667   3.0687

          k =-0.0888-0.0513 0.0000 ( 17160 PWs)   bands (ev):

   -58.8908 -58.8769 -58.8171 -58.8100 -58.7831 -58.7641 -58.7580 -58.7491
   -58.7441 -58.7302 -58.7045 -58.7017 -33.3206 -33.3137 -33.2881 -33.2694
   -33.2551 -33.2483 -33.1255 -33.1252 -33.1009 -33.0713 -33.0381 -32.9870
   -32.8739 -32.8453 -32.8355 -32.8218 -32.7916 -32.7724 -32.7719 -32.7588
   -32.7350 -32.7179 -32.7070 -32.7003 -32.6915 -32.6885 -32.5566 -32.5485
   -32.5482 -32.5378 -32.5047 -32.4773 -32.4430 -32.4348 -32.3765 -32.3629
    -2.3522  -2.2825  -1.5770  -1.5222  -1.3656  -1.3259  -1.1841  -1.1243
    -1.0995  -0.9518  -0.7428  -0.6236  -0.5248  -0.5010  -0.3855  -0.3392
    -0.2363   0.1155   0.2132   0.3082   0.3297   0.3578   0.6158   0.7175
     0.9273   1.0682   1.0732   1.2449   1.2830   1.3016   1.3153   1.4242
     1.4327   1.4874   1.5606   1.6556   1.7100   1.8934   2.0066   2.2003
     2.2797   2.7012   2.9021   2.9142   2.9723   3.0435

     the Fermi energy is     2.0768 ev

!    total energy              =   -1680.40853789 Ry
     Harris-Foulkes estimate   =   -1680.40854283 Ry
     estimated scf accuracy    <       0.00000286 Ry

     The total energy is the sum of the following terms:

     one-electron contribution =  -15148.92195707 Ry
     hartree contribution      =    7567.76617737 Ry
     xc contribution           =    -240.77017609 Ry
     ewald contribution        =    6141.61767494 Ry
     electric field correction =       0.00009681 Ry
     smearing contrib. (-TS)   =      -0.10035385 Ry

     convergence has been achieved in  16 iterations
 
 BEEF-vdW xc energy contributions
           1 :   -206.779574565625     
           2 :    188.863830093858     
           3 :   -158.188947894307     
           4 :    122.887016322484     
           5 :   -91.0862807040894     
           6 :    68.3188582470787     
           7 :   -56.2467919711843     
           8 :    52.9330463293208     
           9 :   -54.3253022599386     
          10 :    56.1730939312449     
          11 :   -55.6007243142169     
          12 :    51.8013110502033     
          13 :   -45.7808897185791     
          14 :    39.4348729916502     
          15 :   -34.4651106477008     
          16 :    31.6030772017920     
          17 :   -30.4252814059299     
          18 :    29.7407832259268     
          19 :   -28.2945393223036     
          20 :    25.4052923359355     
          21 :   -21.2442673894639     
          22 :    16.6591445487595     
          23 :   -12.6858970332189     
          24 :    10.0166581330328     
          25 :   -8.69211692576746     
          26 :    8.13969102822585     
          27 :   -7.50624446284363     
          28 :    6.09331546233997     
          29 :   -3.67913026195046     
          30 :   0.582790206711110     
          31 :   -23.5867905152850     
          32 :   -18.0767007838207     

     Forces acting on atoms (Ry/au):


     negative rho (up, down):  5.040E-03 0.000E+00
     atom    1 type  1   force =     0.00000753    0.00000738   -0.00410378
     atom    2 type  1   force =     0.00001483   -0.00000674   -0.00416027
     atom    3 type  1   force =    -0.00000465    0.00000967   -0.00413781
     atom    4 type  1   force =    -0.00000176   -0.00000402   -0.00163477
     atom    5 type  1   force =    -0.00001088   -0.00886025    0.00569479
     atom    6 type  1   force =    -0.00001151    0.00000046   -0.00311108
     atom    7 type  1   force =     0.00765189    0.00442727    0.00570648
     atom    8 type  1   force =    -0.00765705    0.00442185    0.00571431
     atom    9 type  1   force =    -0.00000769    0.00000504   -0.00067585
     atom   10 type  1   force =     0.00000863    0.00020241   -0.00035881
     atom   11 type  1   force =     0.00016136   -0.00010078   -0.00034229
     atom   12 type  1   force =    -0.00014897   -0.00010096   -0.00031079
     atom   13 type  2   force =    -0.00000172   -0.00000132    0.00171987

     Total force =     0.019999     Total SCF correction =     0.004764
     SCF correction compared to forces is large: reduce conv_thr to get better values


     entering subroutine stress ...


     negative rho (up, down):  5.040E-03 0.000E+00
          total   stress  (Ry/bohr**3)                   (kbar)     P=  -20.73
  -0.00021829  -0.00000000   0.00000001        -32.11     -0.00      0.00
  -0.00000000  -0.00021831   0.00000001         -0.00    -32.11      0.00
   0.00000001   0.00000001   0.00001382          0.00      0.00      2.03

 !ASE

     Writing output data file calc.save
 
     init_run     :     13.20s CPU     22.08s WALL (       1 calls)
     electrons    :    459.04s CPU    726.75s WALL (       1 calls)
     forces       :      3.69s CPU      4.68s WALL (       1 calls)
     stress       :      9.48s CPU     11.25s WALL (       1 calls)

     Called by init_run:
     wfcinit      :     10.86s CPU     18.34s WALL (       1 calls)
     potinit      :      1.24s CPU      2.09s WALL (       1 calls)

     Called by electrons:
     c_bands      :    346.69s CPU    538.95s WALL (      16 calls)
     sum_band     :     52.94s CPU     88.14s WALL (      16 calls)
     v_of_rho     :     17.73s CPU     31.33s WALL (      17 calls)
     newd         :      7.60s CPU      7.91s WALL (      17 calls)
     mix_rho      :      0.64s CPU      1.16s WALL (      16 calls)
     vdW_energy   :      3.07s CPU      3.45s WALL (      53 calls)
     vdW_ffts     :     32.24s CPU     61.18s WALL (     108 calls)
     vdW_v        :      6.52s CPU     10.78s WALL (      53 calls)

     Called by c_bands:
     init_us_2    :      0.99s CPU      1.06s WALL (     700 calls)
     cegterg      :    340.03s CPU    531.34s WALL (     320 calls)

     Called by *egterg:
     h_psi        :    230.54s CPU    413.62s WALL (    1671 calls)
     s_psi        :      9.26s CPU      9.49s WALL (    1671 calls)
     g_psi        :      0.53s CPU      0.54s WALL (    1331 calls)
     cdiaghg      :     68.70s CPU     70.86s WALL (    1651 calls)

     Called by h_psi:
     add_vuspsi   :      9.77s CPU      9.82s WALL (    1671 calls)

     General routines
     calbec       :     17.93s CPU     22.49s WALL (    2031 calls)
     fft          :     48.53s CPU     91.93s WALL (    3225 calls)
     ffts         :      0.13s CPU      0.27s WALL (      33 calls)
     fftw         :    229.42s CPU    440.03s WALL (  183642 calls)
     interpolate  :      0.62s CPU      1.20s WALL (      33 calls)
     davcio       :      0.00s CPU      0.04s WALL (      20 calls)
 
     Parallel routines
     fft_scatter  :    243.30s CPU    494.68s WALL (  186900 calls)
 
     PWSCF        :  8m 6.08s CPU    12m45.93s WALL

 
   This run was terminated on:  19:49:30  13Jan2018            

=------------------------------------------------------------------------------=
   JOB DONE.
=------------------------------------------------------------------------------=
Job  /afs/slac/g/suncat/bin/suncat-tsmpirun -x LD_LIBRARY_PATH -wdir /scratch/qe842458_hic6d pw.x -in pw.inp

TID   HOST_NAME   COMMAND_LINE            STATUS            TERMINATION_TIME
===== ========== ================  =======================  ===================
00000 suncat1058 pw.x -in pw.inp   Done                     01/13/2018 19:49:30
00001 suncat1058 pw.x -in pw.inp   Done                     01/13/2018 19:49:30
00002 suncat1058 pw.x -in pw.inp   Done                     01/13/2018 19:49:30
00003 suncat1058 pw.x -in pw.inp   Done                     01/13/2018 19:49:30
00004 suncat1058 pw.x -in pw.inp   Done                     01/13/2018 19:49:30
00005 suncat1058 pw.x -in pw.inp   Done                     01/13/2018 19:49:30
00006 suncat1058 pw.x -in pw.inp   Done                     01/13/2018 19:49:30
00007 suncat1058 pw.x -in pw.inp   Done                     01/13/2018 19:49:30
00008 suncat1037 pw.x -in pw.inp   Done                     01/13/2018 19:49:30
00009 suncat1037 pw.x -in pw.inp   Done                     01/13/2018 19:49:30
00010 suncat1037 pw.x -in pw.inp   Done                     01/13/2018 19:49:30
00011 suncat1037 pw.x -in pw.inp   Done                     01/13/2018 19:49:30
00012 suncat1037 pw.x -in pw.inp   Done                     01/13/2018 19:49:30
00013 suncat1037 pw.x -in pw.inp   Done                     01/13/2018 19:49:30
00014 suncat1037 pw.x -in pw.inp   Done                     01/13/2018 19:49:30
00015 suncat1037 pw.x -in pw.inp   Done                     01/13/2018 19:49:30
00016 suncat1037 pw.x -in pw.inp   Done                     01/13/2018 19:49:30
00017 suncat1037 pw.x -in pw.inp   Done                     01/13/2018 19:49:30
00018 suncat1037 pw.x -in pw.inp   Done                     01/13/2018 19:49:30
00019 suncat1037 pw.x -in pw.inp   Done                     01/13/2018 19:49:30
00020 suncat1036 pw.x -in pw.inp   Done                     01/13/2018 19:49:30
00021 suncat1036 pw.x -in pw.inp   Done                     01/13/2018 19:49:30
00022 suncat1036 pw.x -in pw.inp   Done                     01/13/2018 19:49:30
00023 suncat1036 pw.x -in pw.inp   Done                     01/13/2018 19:49:30
00024 suncat1036 pw.x -in pw.inp   Done                     01/13/2018 19:49:30
00025 suncat1036 pw.x -in pw.inp   Done                     01/13/2018 19:49:30
00026 suncat1036 pw.x -in pw.inp   Done                     01/13/2018 19:49:30
00027 suncat1036 pw.x -in pw.inp   Done                     01/13/2018 19:49:30
00028 suncat1036 pw.x -in pw.inp   Done                     01/13/2018 19:49:30
00029 suncat1036 pw.x -in pw.inp   Done                     01/13/2018 19:49:30
00030 suncat1036 pw.x -in pw.inp   Done                     01/13/2018 19:49:30
00031 suncat1036 pw.x -in pw.inp   Done                     01/13/2018 19:49:30
