  python dir          : /u/if/mamunm/src/espresso
  espresso dir        : /nfs/slac/g/suncatfs/sw/espv18/espresso-dynpy-beef/bin
  pseudo dir          : /u/if/mamunm/psp/gbrv1.5pbe
  ase-espresso py git : GITVERSION



     Program PWSCF v.5.1rc2 (svn rev. 11289) starts on 24Apr2018 at 10:54:58 

     This program is part of the open-source Quantum ESPRESSO suite
     for quantum simulation of materials; please cite
         "P. Giannozzi et al., J. Phys.:Condens. Matter 21 395502 (2009);
          URL http://www.quantum-espresso.org", 
     in publications or presentations arising from this work. More details at
     http://www.quantum-espresso.org/quote

     Parallel version (MPI), running on    32 processors
     K-points division:     npool     =       4
     R & G space division:  proc/nbgrp/npool/nimage =       8
     Reading input from pw.inp
     Message from routine read_cards :
     DEPRECATED: no units specified in CELL_PARAMETERS card

     Current dimensions of program PWSCF are:
     Max number of different atomic species (ntypx) = 10
     Max number of k-points (npk) =  40000
     Max angular momentum in pseudopotentials (lmaxx) =  3
     Presently stress not available with electric field


     **************************************************************************
     Initializing libbeef V0.1.1 with the BEEF-vdW functional.
     Citation: Wellendorff et al., PRB 85, 235149 (2012).
     **************************************************************************


     IMPORTANT: XC functional enforced from input :
     Exchange-correlation      = BEEF-VDW ( 1  4 27 13 2)
     Any further DFT definition will be discarded
     Please, verify this is what you really want


     Subspace diagonalization in iterative solution of the eigenvalue problem:
     a serial algorithm will be used

 
     Parallelization info
     --------------------
     sticks:   dense  smooth     PW     G-vecs:    dense   smooth      PW
     Min         329     130     39                61797    15613    2499
     Max         330     131     40                61814    15645    2512
     Sum        2635    1045    313               494447   125015   20053
 


     bravais-lattice index     =            0
     lattice parameter (alat)  =       1.8897  a.u.
     unit-cell volume          =    4158.3597 (a.u.)^3
     number of atoms/cell      =           14
     number of atomic types    =            3
     number of electrons       =       163.00
     number of Kohn-Sham states=           91
     kinetic-energy cutoff     =      36.7493  Ry
     charge density cutoff     =     367.4932  Ry
     convergence threshold     =      1.0E-05
     mixing beta               =       0.3000
     number of iterations used =           10  plain     mixing
     Exchange-correlation      = BEEF-VDW ( 1  4 27 13 2)
     nstep                     =           50


     celldm(1)=   1.889726  celldm(2)=   0.000000  celldm(3)=   0.000000
     celldm(4)=   0.000000  celldm(5)=   0.000000  celldm(6)=   0.000000

     crystal axes: (cart. coord. in units of alat)
               a(1) = (   5.399178   0.000000   0.000000 )  
               a(2) = (   2.699589   4.675825   0.000000 )  
               a(3) = (   0.000000   0.000000  24.408411 )  

     reciprocal axes: (cart. coord. in units 2 pi/alat)
               b(1) = (  0.185213 -0.106933  0.000000 )  
               b(2) = (  0.000000  0.213866  0.000000 )  
               b(3) = (  0.000000  0.000000  0.040969 )  


     PseudoPot. # 1 for V  read from file:
     /u/if/mamunm/psp/gbrv1.5pbe/V.UPF
     MD5 check sum: 22b79981416ebb76fdaf5b1b8640f6fb
     Pseudo is Ultrasoft + core correction, Zval = 13.0
     Generated by new atomic code, or converted to UPF format
     Using radial grid of  853 points,  6 beta functions with: 
                l(1) =   0
                l(2) =   0
                l(3) =   1
                l(4) =   1
                l(5) =   2
                l(6) =   2
     Q(r) pseudized with  8 coefficients,  rinner =    1.100   1.100   1.100
                                                       1.100   1.100

     PseudoPot. # 2 for S  read from file:
     /u/if/mamunm/psp/gbrv1.5pbe/S.UPF
     MD5 check sum: 88d86576ff6df21479756cfb9bdac1df
     Pseudo is Ultrasoft + core correction, Zval =  6.0
     Generated by new atomic code, or converted to UPF format
     Using radial grid of  907 points,  6 beta functions with: 
                l(1) =   0
                l(2) =   0
                l(3) =   1
                l(4) =   1
                l(5) =   2
                l(6) =   2
     Q(r) pseudized with  8 coefficients,  rinner =    1.300   1.300   1.300
                                                       1.300   1.300

     PseudoPot. # 3 for H  read from file:
     /u/if/mamunm/psp/gbrv1.5pbe/H.UPF
     MD5 check sum: 761ae9a214b05c3daf00ab9f6b793d6f
     Pseudo is Ultrasoft, Zval =  1.0
     Generated by new atomic code, or converted to UPF format
     Using radial grid of  615 points,  2 beta functions with: 
                l(1) =   0
                l(2) =   0
     Q(r) pseudized with  8 coefficients,  rinner =    0.700

     vdW kernel table read from file vdW_kernel_table
     MD5 check sum: 095c7af220d748ca6e76c0b4c6cfb241

     atomic species   valence    mass     pseudopotential
        V1            13.00    50.94150     V ( 1.00)
        S1             6.00    32.06000     S ( 1.00)
        H1             1.00     1.00800     H ( 1.00)

     No symmetry found



   Cartesian axes

     site n.     atom                  positions (alat units)
         1           V1  tau(   1) = (   1.3497945   0.7793042  10.0000000  )
         2           V1  tau(   2) = (   4.0493836   0.7793042  10.0000000  )
         3           V1  tau(   3) = (   2.6995891   3.1172170  10.0000000  )
         4           V1  tau(   4) = (   5.3991782   3.1172170  10.0000000  )
         5           V1  tau(   5) = (   5.3991782   1.5586085  12.2042053  )
         6           V1  tau(   6) = (   2.6995891   1.5586085  12.2042053  )
         7           V1  tau(   7) = (   6.7489727   3.8965212  12.2042053  )
         8           V1  tau(   8) = (   4.0493836   3.8965212  12.2042053  )
         9           V1  tau(   9) = (   0.0000000   0.0000000  14.4084105  )
        10           V1  tau(  10) = (   2.6995891   0.0000000  14.4084105  )
        11           V1  tau(  11) = (   1.3497945   2.3379127  14.4084105  )
        12           V1  tau(  12) = (   4.0493836   2.3379127  14.4084105  )
        13           S1  tau(  13) = (   0.0000000   0.0000000  16.6014105  )
        14           H1  tau(  14) = (   0.0000000   0.0000000  17.8514105  )

     number of k points=    20  Fermi-Dirac smearing, width (Ry)=  0.0110
                       cart. coord. in units 2pi/alat
        k(    1) = (   0.0000000   0.0000000   0.0000000), wk =   0.0555556
        k(    2) = (   0.0000000   0.0356443   0.0000000), wk =   0.1111111
        k(    3) = (   0.0000000   0.0712887   0.0000000), wk =   0.1111111
        k(    4) = (   0.0000000  -0.1069330   0.0000000), wk =   0.0555556
        k(    5) = (   0.0308689  -0.0178222   0.0000000), wk =   0.1111111
        k(    6) = (   0.0308689   0.0178222   0.0000000), wk =   0.1111111
        k(    7) = (   0.0308689   0.0534665   0.0000000), wk =   0.1111111
        k(    8) = (   0.0308689  -0.1247552   0.0000000), wk =   0.1111111
        k(    9) = (   0.0308689  -0.0891108   0.0000000), wk =   0.1111111
        k(   10) = (   0.0308689  -0.0534665   0.0000000), wk =   0.1111111
        k(   11) = (   0.0617378  -0.0356443   0.0000000), wk =   0.1111111
        k(   12) = (   0.0617378   0.0000000   0.0000000), wk =   0.1111111
        k(   13) = (   0.0617378   0.0356443   0.0000000), wk =   0.1111111
        k(   14) = (   0.0617378  -0.1425773   0.0000000), wk =   0.1111111
        k(   15) = (   0.0617378  -0.1069330   0.0000000), wk =   0.1111111
        k(   16) = (   0.0617378  -0.0712887   0.0000000), wk =   0.1111111
        k(   17) = (  -0.0926067   0.0534665   0.0000000), wk =   0.0555556
        k(   18) = (  -0.0926067   0.0891108   0.0000000), wk =   0.1111111
        k(   19) = (  -0.0926067   0.1247552   0.0000000), wk =   0.1111111
        k(   20) = (  -0.0926067  -0.0534665   0.0000000), wk =   0.0555556

     Dense  grid:   494447 G-vectors     FFT dimensions: (  64,  64, 288)

     Smooth grid:   125015 G-vectors     FFT dimensions: (  40,  40, 180)

     Largest allocated arrays     est. size (Mb)     dimensions
        Kohn-Sham Wavefunctions         2.84 Mb     (    2047,   91)
        NL pseudopotentials             7.37 Mb     (    2047,  236)
        Each V/rho on FFT grid          2.25 Mb     (  147456)
        Each G-vector array             0.47 Mb     (   61814)
        G-vector shells                 0.12 Mb     (   16161)
     Largest temporary arrays     est. size (Mb)     dimensions
        Auxiliary wavefunctions        11.37 Mb     (    2047,  364)
        Each subspace H/S matrix        2.02 Mb     (     364,  364)
        Each <psi_i|beta_j> matrix      0.33 Mb     (     236,   91)
        Arrays for rho mixing          22.50 Mb     (  147456,   10)

     Check: negative/imaginary core charge=   -0.000001    0.000000

     Initial potential from superposition of free atoms
     Check: negative starting charge=   -0.011391

     starting charge  162.98523, renormalised to  163.00000

     negative rho (up, down):  1.139E-02 0.000E+00


     ************************************************************************
     *
     * You are using vdW-DF for exchange-correlation in this calculation.
     * Please cite the following three references that made this development
     * possible:
     *
     *   M. Dion, H. Rydberg, E. Schroder, D. C. Langreth, and
     *   B. I. Lundqvist, Phys. Rev. Lett. 92, 246401 (2004).
     *
     *   T. Thonhauser, V. R. Cooper, S. Li, A. Puzder, P. Hyldgaard, and
     *   D. C. Langreth, Phys. Rev. B 76, 125112 (2007).
     *
     *   G. Roman-Perez and J. M. Soler, Phys. Rev. Lett. 103, 096102 (2009).
     *
     *
     * If you are using vdW-DF2, please also cite:
     *
     *   K. Lee, E. D. Murray, L. Kong, B. I. Lundqvist, and
     *   D. C. Langreth, Phys. Rev. B 82, 081101(R) (2010).
     *
     *
     * If you are calculating the stress with vdW-DF, please also cite:
     *
     *   R. Sabatini, E. Kucukbenli, B. Kolb, T. Thonhauser, and
     *   S. de Gironcoli, J. Phys.: Condens. Matter 24, 424209 (2012).
     *
     ************************************************************************

     Carrying out vdW-DF run using the following parameters:

     Nqs =      20    Nr_points =    1024   r_max =   100.000
     q_mesh =
               0.00001000     0.04494208     0.09755937     0.15916263
               0.23128650     0.31572767     0.41458969     0.53033537
               0.66584808     0.82450364     1.01025438     1.22772762
               1.48234092     1.78043706     2.12944203     2.53805004
               3.01644009     3.57652955     4.23227104     5.00000000

     Gradients computed in reciprocal space

     ************************************************************************


 
     Adding external electric field

     Computed dipole along edir(3) : 
        Dipole               -0.0051 Ry au,         -0.0129 Debye
        Dipole field         -0.0000 Ry au
 
        Potential amp.        0.0014 Ry
        Total length         44.9721 bohr
 
     Starting wfc are  125 randomized atomic wfcs

     total cpu time spent up to now is       10.3 secs

     per-process dynamical memory:    72.2 Mb

     Self-consistent Calculation

     iteration #  1     ecut=    36.75 Ry     beta=0.30
     Davidson diagonalization with overlap
     ethr =  1.00E-02,  avg # of iterations =  2.2

     negative rho (up, down):  1.166E-02 0.000E+00
 
     Adding external electric field

     Computed dipole along edir(3) : 
        Dipole                1.4022 Ry au,          3.5641 Debye
        Dipole field          0.0042 Ry au
 
        Potential amp.       -0.3811 Ry
        Total length         44.9721 bohr
 

     total cpu time spent up to now is       25.3 secs

     total energy              =   -1767.87939530 Ry
     Harris-Foulkes estimate   =   -1775.35891237 Ry
     estimated scf accuracy    <      15.26603720 Ry

     iteration #  2     ecut=    36.75 Ry     beta=0.30
     Davidson diagonalization with overlap
     ethr =  9.37E-03,  avg # of iterations =  7.8

     negative rho (up, down):  1.111E-02 0.000E+00
 
     Adding external electric field

     Computed dipole along edir(3) : 
        Dipole               -5.6974 Ry au,        -14.4813 Debye
        Dipole field         -0.0172 Ry au
 
        Potential amp.        1.5486 Ry
        Total length         44.9721 bohr
 

     total cpu time spent up to now is       47.4 secs

     total energy              =   -1761.14705716 Ry
     Harris-Foulkes estimate   =   -1791.73466411 Ry
     estimated scf accuracy    <     342.36143564 Ry

     iteration #  3     ecut=    36.75 Ry     beta=0.30
     Davidson diagonalization with overlap
     ethr =  9.37E-03,  avg # of iterations =  8.8

     negative rho (up, down):  1.057E-02 0.000E+00
 
     Adding external electric field

     Computed dipole along edir(3) : 
        Dipole               -1.5542 Ry au,         -3.9504 Debye
        Dipole field         -0.0047 Ry au
 
        Potential amp.        0.4224 Ry
        Total length         44.9721 bohr
 

     total cpu time spent up to now is       68.9 secs

     total energy              =   -1762.19699285 Ry
     Harris-Foulkes estimate   =   -1794.11482551 Ry
     estimated scf accuracy    <    1208.14189490 Ry

     iteration #  4     ecut=    36.75 Ry     beta=0.30
     Davidson diagonalization with overlap
     ethr =  9.37E-03,  avg # of iterations =  7.2

     negative rho (up, down):  1.079E-02 0.000E+00
 
     Adding external electric field

     Computed dipole along edir(3) : 
        Dipole               -1.0661 Ry au,         -2.7099 Debye
        Dipole field         -0.0032 Ry au
 
        Potential amp.        0.2898 Ry
        Total length         44.9721 bohr
 

     total cpu time spent up to now is       89.8 secs

     total energy              =   -1774.42629343 Ry
     Harris-Foulkes estimate   =   -1775.64795368 Ry
     estimated scf accuracy    <      20.53500900 Ry

     iteration #  5     ecut=    36.75 Ry     beta=0.30
     Davidson diagonalization with overlap
     ethr =  9.37E-03,  avg # of iterations =  1.4

     negative rho (up, down):  1.100E-02 0.000E+00
 
     Adding external electric field

     Computed dipole along edir(3) : 
        Dipole               -1.1640 Ry au,         -2.9587 Debye
        Dipole field         -0.0035 Ry au
 
        Potential amp.        0.3164 Ry
        Total length         44.9721 bohr
 

     total cpu time spent up to now is      103.5 secs

     total energy              =   -1774.47715247 Ry
     Harris-Foulkes estimate   =   -1774.69139836 Ry
     estimated scf accuracy    <      12.32159173 Ry

     iteration #  6     ecut=    36.75 Ry     beta=0.30
     Davidson diagonalization with overlap
     ethr =  7.56E-03,  avg # of iterations =  1.1

     negative rho (up, down):  1.198E-02 0.000E+00
 
     Adding external electric field

     Computed dipole along edir(3) : 
        Dipole               -0.6800 Ry au,         -1.7283 Debye
        Dipole field         -0.0021 Ry au
 
        Potential amp.        0.1848 Ry
        Total length         44.9721 bohr
 

     total cpu time spent up to now is      117.1 secs

     total energy              =   -1774.01876642 Ry
     Harris-Foulkes estimate   =   -1774.56396713 Ry
     estimated scf accuracy    <       7.70591005 Ry

     iteration #  7     ecut=    36.75 Ry     beta=0.30
     Davidson diagonalization with overlap
     ethr =  4.73E-03,  avg # of iterations =  3.1

     negative rho (up, down):  1.262E-02 0.000E+00
 
     Adding external electric field

     Computed dipole along edir(3) : 
        Dipole               -0.4439 Ry au,         -1.1282 Debye
        Dipole field         -0.0013 Ry au
 
        Potential amp.        0.1206 Ry
        Total length         44.9721 bohr
 

     total cpu time spent up to now is      131.5 secs

     total energy              =   -1774.08874287 Ry
     Harris-Foulkes estimate   =   -1774.26023500 Ry
     estimated scf accuracy    <       3.68896623 Ry

     iteration #  8     ecut=    36.75 Ry     beta=0.30
     Davidson diagonalization with overlap
     ethr =  2.26E-03,  avg # of iterations =  5.2

     negative rho (up, down):  1.261E-02 0.000E+00
 
     Adding external electric field

     Computed dipole along edir(3) : 
        Dipole               -0.5483 Ry au,         -1.3936 Debye
        Dipole field         -0.0017 Ry au
 
        Potential amp.        0.1490 Ry
        Total length         44.9721 bohr
 

     total cpu time spent up to now is      148.7 secs

     total energy              =   -1774.48809217 Ry
     Harris-Foulkes estimate   =   -1774.71457544 Ry
     estimated scf accuracy    <       7.69412090 Ry

     iteration #  9     ecut=    36.75 Ry     beta=0.30
     Davidson diagonalization with overlap
     ethr =  2.26E-03,  avg # of iterations =  1.1

     negative rho (up, down):  1.257E-02 0.000E+00
 
     Adding external electric field

     Computed dipole along edir(3) : 
        Dipole               -0.5632 Ry au,         -1.4314 Debye
        Dipole field         -0.0017 Ry au
 
        Potential amp.        0.1531 Ry
        Total length         44.9721 bohr
 

     total cpu time spent up to now is      162.6 secs

     total energy              =   -1774.43060044 Ry
     Harris-Foulkes estimate   =   -1774.53753550 Ry
     estimated scf accuracy    <       3.13880806 Ry

     iteration # 10     ecut=    36.75 Ry     beta=0.30
     Davidson diagonalization with overlap
     ethr =  1.93E-03,  avg # of iterations =  1.2

     negative rho (up, down):  1.268E-02 0.000E+00
 
     Adding external electric field

     Computed dipole along edir(3) : 
        Dipole               -0.5130 Ry au,         -1.3039 Debye
        Dipole field         -0.0016 Ry au
 
        Potential amp.        0.1394 Ry
        Total length         44.9721 bohr
 

     total cpu time spent up to now is      176.6 secs

     total energy              =   -1774.43947863 Ry
     Harris-Foulkes estimate   =   -1774.47660740 Ry
     estimated scf accuracy    <       1.03822073 Ry

     iteration # 11     ecut=    36.75 Ry     beta=0.30
     Davidson diagonalization with overlap
     ethr =  6.37E-04,  avg # of iterations =  6.6

     negative rho (up, down):  1.288E-02 0.000E+00
 
     Adding external electric field

     Computed dipole along edir(3) : 
        Dipole               -0.3729 Ry au,         -0.9478 Debye
        Dipole field         -0.0011 Ry au
 
        Potential amp.        0.1014 Ry
        Total length         44.9721 bohr
 

     total cpu time spent up to now is      193.4 secs

     total energy              =   -1774.49671001 Ry
     Harris-Foulkes estimate   =   -1774.50825111 Ry
     estimated scf accuracy    <       0.20251756 Ry

     iteration # 12     ecut=    36.75 Ry     beta=0.30
     Davidson diagonalization with overlap
     ethr =  1.24E-04,  avg # of iterations =  6.3

     negative rho (up, down):  1.316E-02 0.000E+00
 
     Adding external electric field

     Computed dipole along edir(3) : 
        Dipole               -0.2441 Ry au,         -0.6204 Debye
        Dipole field         -0.0007 Ry au
 
        Potential amp.        0.0663 Ry
        Total length         44.9721 bohr
 

     total cpu time spent up to now is      211.5 secs

     total energy              =   -1774.50235288 Ry
     Harris-Foulkes estimate   =   -1774.53306178 Ry
     estimated scf accuracy    <       0.81652143 Ry

     iteration # 13     ecut=    36.75 Ry     beta=0.30
     Davidson diagonalization with overlap
     ethr =  1.24E-04,  avg # of iterations =  1.0

     negative rho (up, down):  1.740E-02 0.000E+00
 
     Adding external electric field

     Computed dipole along edir(3) : 
        Dipole                0.0402 Ry au,          0.1021 Debye
        Dipole field          0.0001 Ry au
 
        Potential amp.       -0.0109 Ry
        Total length         44.9721 bohr
 

     total cpu time spent up to now is      225.3 secs

     total energy              =   -1774.45102249 Ry
     Harris-Foulkes estimate   =   -1774.50860003 Ry
     estimated scf accuracy    <       0.51630587 Ry

     iteration # 14     ecut=    36.75 Ry     beta=0.30
     Davidson diagonalization with overlap
     ethr =  1.24E-04,  avg # of iterations =  5.8

     negative rho (up, down):  1.557E-02 0.000E+00
 
     Adding external electric field

     Computed dipole along edir(3) : 
        Dipole                0.0873 Ry au,          0.2218 Debye
        Dipole field          0.0003 Ry au
 
        Potential amp.       -0.0237 Ry
        Total length         44.9721 bohr
 

     total cpu time spent up to now is      245.0 secs

     total energy              =   -1774.49937946 Ry
     Harris-Foulkes estimate   =   -1774.50825287 Ry
     estimated scf accuracy    <       0.47095585 Ry

     iteration # 15     ecut=    36.75 Ry     beta=0.30
     Davidson diagonalization with overlap
     ethr =  1.24E-04,  avg # of iterations =  1.0

     negative rho (up, down):  1.372E-02 0.000E+00
 
     Adding external electric field

     Computed dipole along edir(3) : 
        Dipole                0.1984 Ry au,          0.5043 Debye
        Dipole field          0.0006 Ry au
 
        Potential amp.       -0.0539 Ry
        Total length         44.9721 bohr
 

     total cpu time spent up to now is      258.7 secs

     total energy              =   -1774.46579413 Ry
     Harris-Foulkes estimate   =   -1774.50140423 Ry
     estimated scf accuracy    <       0.36137608 Ry

     iteration # 16     ecut=    36.75 Ry     beta=0.30
     Davidson diagonalization with overlap
     ethr =  1.24E-04,  avg # of iterations =  4.8

     negative rho (up, down):  1.428E-02 0.000E+00
 
     Adding external electric field

     Computed dipole along edir(3) : 
        Dipole                0.1794 Ry au,          0.4560 Debye
        Dipole field          0.0005 Ry au
 
        Potential amp.       -0.0488 Ry
        Total length         44.9721 bohr
 

     total cpu time spent up to now is      276.0 secs

     total energy              =   -1774.48613390 Ry
     Harris-Foulkes estimate   =   -1774.49793840 Ry
     estimated scf accuracy    <       0.16728010 Ry

     iteration # 17     ecut=    36.75 Ry     beta=0.30
     Davidson diagonalization with overlap
     ethr =  1.03E-04,  avg # of iterations =  1.0

     negative rho (up, down):  1.471E-02 0.000E+00
 
     Adding external electric field

     Computed dipole along edir(3) : 
        Dipole                0.1955 Ry au,          0.4970 Debye
        Dipole field          0.0006 Ry au
 
        Potential amp.       -0.0531 Ry
        Total length         44.9721 bohr
 

     total cpu time spent up to now is      289.8 secs

     total energy              =   -1774.48846957 Ry
     Harris-Foulkes estimate   =   -1774.49022133 Ry
     estimated scf accuracy    <       0.04554332 Ry

     iteration # 18     ecut=    36.75 Ry     beta=0.30
     Davidson diagonalization with overlap
     ethr =  2.79E-05,  avg # of iterations =  4.5

     negative rho (up, down):  1.501E-02 0.000E+00
 
     Adding external electric field

     Computed dipole along edir(3) : 
        Dipole                0.2281 Ry au,          0.5797 Debye
        Dipole field          0.0007 Ry au
 
        Potential amp.       -0.0620 Ry
        Total length         44.9721 bohr
 

     total cpu time spent up to now is      305.1 secs

     total energy              =   -1774.49041377 Ry
     Harris-Foulkes estimate   =   -1774.49153389 Ry
     estimated scf accuracy    <       0.03226666 Ry

     iteration # 19     ecut=    36.75 Ry     beta=0.30
     Davidson diagonalization with overlap
     ethr =  1.98E-05,  avg # of iterations =  4.0

     negative rho (up, down):  1.482E-02 0.000E+00
 
     Adding external electric field

     Computed dipole along edir(3) : 
        Dipole                0.2502 Ry au,          0.6360 Debye
        Dipole field          0.0008 Ry au
 
        Potential amp.       -0.0680 Ry
        Total length         44.9721 bohr
 

     total cpu time spent up to now is      320.8 secs

     total energy              =   -1774.49158115 Ry
     Harris-Foulkes estimate   =   -1774.49218338 Ry
     estimated scf accuracy    <       0.02349564 Ry

     iteration # 20     ecut=    36.75 Ry     beta=0.30
     Davidson diagonalization with overlap
     ethr =  1.44E-05,  avg # of iterations =  3.2

     negative rho (up, down):  1.448E-02 0.000E+00
 
     Adding external electric field

     Computed dipole along edir(3) : 
        Dipole                0.2899 Ry au,          0.7368 Debye
        Dipole field          0.0009 Ry au
 
        Potential amp.       -0.0788 Ry
        Total length         44.9721 bohr
 

     total cpu time spent up to now is      335.7 secs

     total energy              =   -1774.49063694 Ry
     Harris-Foulkes estimate   =   -1774.49216557 Ry
     estimated scf accuracy    <       0.01379974 Ry

     iteration # 21     ecut=    36.75 Ry     beta=0.30
     Davidson diagonalization with overlap
     ethr =  8.47E-06,  avg # of iterations =  4.5

     negative rho (up, down):  1.456E-02 0.000E+00
 
     Adding external electric field

     Computed dipole along edir(3) : 
        Dipole                0.3162 Ry au,          0.8038 Debye
        Dipole field          0.0010 Ry au
 
        Potential amp.       -0.0860 Ry
        Total length         44.9721 bohr
 

     total cpu time spent up to now is      351.9 secs

     total energy              =   -1774.49164350 Ry
     Harris-Foulkes estimate   =   -1774.49173538 Ry
     estimated scf accuracy    <       0.00283684 Ry

     iteration # 22     ecut=    36.75 Ry     beta=0.30
     Davidson diagonalization with overlap
     ethr =  1.74E-06,  avg # of iterations =  7.3

     negative rho (up, down):  1.483E-02 0.000E+00
 
     Adding external electric field

     Computed dipole along edir(3) : 
        Dipole                0.3202 Ry au,          0.8138 Debye
        Dipole field          0.0010 Ry au
 
        Potential amp.       -0.0870 Ry
        Total length         44.9721 bohr
 

     total cpu time spent up to now is      370.8 secs

     total energy              =   -1774.49153377 Ry
     Harris-Foulkes estimate   =   -1774.49199976 Ry
     estimated scf accuracy    <       0.00552170 Ry

     iteration # 23     ecut=    36.75 Ry     beta=0.30
     Davidson diagonalization with overlap
     ethr =  1.74E-06,  avg # of iterations =  4.8

     negative rho (up, down):  1.483E-02 0.000E+00
 
     Adding external electric field

     Computed dipole along edir(3) : 
        Dipole                0.3226 Ry au,          0.8200 Debye
        Dipole field          0.0010 Ry au
 
        Potential amp.       -0.0877 Ry
        Total length         44.9721 bohr
 

     total cpu time spent up to now is      387.0 secs

     total energy              =   -1774.49180212 Ry
     Harris-Foulkes estimate   =   -1774.49186402 Ry
     estimated scf accuracy    <       0.00222271 Ry

     iteration # 24     ecut=    36.75 Ry     beta=0.30
     Davidson diagonalization with overlap
     ethr =  1.36E-06,  avg # of iterations =  1.0

     negative rho (up, down):  1.481E-02 0.000E+00
 
     Adding external electric field

     Computed dipole along edir(3) : 
        Dipole                0.3254 Ry au,          0.8271 Debye
        Dipole field          0.0010 Ry au
 
        Potential amp.       -0.0884 Ry
        Total length         44.9721 bohr
 

     total cpu time spent up to now is      400.8 secs

     total energy              =   -1774.49179116 Ry
     Harris-Foulkes estimate   =   -1774.49182968 Ry
     estimated scf accuracy    <       0.00101841 Ry

     iteration # 25     ecut=    36.75 Ry     beta=0.30
     Davidson diagonalization with overlap
     ethr =  6.25E-07,  avg # of iterations =  2.6

     negative rho (up, down):  1.489E-02 0.000E+00
 
     Adding external electric field

     Computed dipole along edir(3) : 
        Dipole                0.3312 Ry au,          0.8418 Debye
        Dipole field          0.0010 Ry au
 
        Potential amp.       -0.0900 Ry
        Total length         44.9721 bohr
 

     total cpu time spent up to now is      415.4 secs

     total energy              =   -1774.49179705 Ry
     Harris-Foulkes estimate   =   -1774.49180139 Ry
     estimated scf accuracy    <       0.00034164 Ry

     iteration # 26     ecut=    36.75 Ry     beta=0.30
     Davidson diagonalization with overlap
     ethr =  2.10E-07,  avg # of iterations =  6.3

     negative rho (up, down):  1.501E-02 0.000E+00
 
     Adding external electric field

     Computed dipole along edir(3) : 
        Dipole                0.3384 Ry au,          0.8602 Debye
        Dipole field          0.0010 Ry au
 
        Potential amp.       -0.0920 Ry
        Total length         44.9721 bohr
 

     total cpu time spent up to now is      433.4 secs

     total energy              =   -1774.49182964 Ry
     Harris-Foulkes estimate   =   -1774.49181883 Ry
     estimated scf accuracy    <       0.00013162 Ry

     iteration # 27     ecut=    36.75 Ry     beta=0.30
     Davidson diagonalization with overlap
     ethr =  8.08E-08,  avg # of iterations =  6.2

     negative rho (up, down):  1.505E-02 0.000E+00
 
     Adding external electric field

     Computed dipole along edir(3) : 
        Dipole                0.3397 Ry au,          0.8634 Debye
        Dipole field          0.0010 Ry au
 
        Potential amp.       -0.0923 Ry
        Total length         44.9721 bohr
 

     total cpu time spent up to now is      450.1 secs

     total energy              =   -1774.49183359 Ry
     Harris-Foulkes estimate   =   -1774.49183683 Ry
     estimated scf accuracy    <       0.00018816 Ry

     iteration # 28     ecut=    36.75 Ry     beta=0.30
     Davidson diagonalization with overlap
     ethr =  8.08E-08,  avg # of iterations =  1.0

     negative rho (up, down):  1.501E-02 0.000E+00
 
     Adding external electric field

     Computed dipole along edir(3) : 
        Dipole                0.3380 Ry au,          0.8592 Debye
        Dipole field          0.0010 Ry au
 
        Potential amp.       -0.0919 Ry
        Total length         44.9721 bohr
 

     total cpu time spent up to now is      463.9 secs

     total energy              =   -1774.49183002 Ry
     Harris-Foulkes estimate   =   -1774.49183960 Ry
     estimated scf accuracy    <       0.00009990 Ry

     iteration # 29     ecut=    36.75 Ry     beta=0.30
     Davidson diagonalization with overlap
     ethr =  6.13E-08,  avg # of iterations =  3.6

     negative rho (up, down):  1.502E-02 0.000E+00
 
     Adding external electric field

     Computed dipole along edir(3) : 
        Dipole                0.3377 Ry au,          0.8585 Debye
        Dipole field          0.0010 Ry au
 
        Potential amp.       -0.0918 Ry
        Total length         44.9721 bohr
 

     total cpu time spent up to now is      478.5 secs

     total energy              =   -1774.49183155 Ry
     Harris-Foulkes estimate   =   -1774.49183433 Ry
     estimated scf accuracy    <       0.00010419 Ry

     iteration # 30     ecut=    36.75 Ry     beta=0.30
     Davidson diagonalization with overlap
     ethr =  6.13E-08,  avg # of iterations =  1.0

     negative rho (up, down):  1.505E-02 0.000E+00
 
     Adding external electric field

     Computed dipole along edir(3) : 
        Dipole                0.3383 Ry au,          0.8600 Debye
        Dipole field          0.0010 Ry au
 
        Potential amp.       -0.0920 Ry
        Total length         44.9721 bohr
 

     total cpu time spent up to now is      492.3 secs

     total energy              =   -1774.49183268 Ry
     Harris-Foulkes estimate   =   -1774.49183265 Ry
     estimated scf accuracy    <       0.00001447 Ry

     iteration # 31     ecut=    36.75 Ry     beta=0.30
     Davidson diagonalization with overlap
     ethr =  8.88E-09,  avg # of iterations =  7.0

     negative rho (up, down):  1.511E-02 0.000E+00
 
     Adding external electric field

     Computed dipole along edir(3) : 
        Dipole                0.3400 Ry au,          0.8642 Debye
        Dipole field          0.0010 Ry au
 
        Potential amp.       -0.0924 Ry
        Total length         44.9721 bohr
 

     total cpu time spent up to now is      512.6 secs

     total energy              =   -1774.49183482 Ry
     Harris-Foulkes estimate   =   -1774.49183371 Ry
     estimated scf accuracy    <       0.00006464 Ry

     iteration # 32     ecut=    36.75 Ry     beta=0.30
     Davidson diagonalization with overlap
     ethr =  8.88E-09,  avg # of iterations =  6.2

     negative rho (up, down):  1.514E-02 0.000E+00
 
     Adding external electric field

     Computed dipole along edir(3) : 
        Dipole                0.3412 Ry au,          0.8673 Debye
        Dipole field          0.0010 Ry au
 
        Potential amp.       -0.0927 Ry
        Total length         44.9721 bohr
 

     total cpu time spent up to now is      529.8 secs

     total energy              =   -1774.49183476 Ry
     Harris-Foulkes estimate   =   -1774.49183422 Ry
     estimated scf accuracy    <       0.00008387 Ry

     iteration # 33     ecut=    36.75 Ry     beta=0.30
     Davidson diagonalization with overlap
     ethr =  8.88E-09,  avg # of iterations =  5.3

     negative rho (up, down):  1.511E-02 0.000E+00
 
     Adding external electric field

     Computed dipole along edir(3) : 
        Dipole                0.3408 Ry au,          0.8663 Debye
        Dipole field          0.0010 Ry au
 
        Potential amp.       -0.0926 Ry
        Total length         44.9721 bohr
 

     total cpu time spent up to now is      545.6 secs

     total energy              =   -1774.49183456 Ry
     Harris-Foulkes estimate   =   -1774.49183647 Ry
     estimated scf accuracy    <       0.00002340 Ry

     iteration # 34     ecut=    36.75 Ry     beta=0.30
     Davidson diagonalization with overlap
     ethr =  8.88E-09,  avg # of iterations =  4.1

     negative rho (up, down):  1.516E-02 0.000E+00

     negative rho (up, down):  1.516E-02 0.000E+00

     negative rho (up, down):  1.516E-02 0.000E+00

     negative rho (up, down):  1.516E-02 0.000E+00

     negative rho (up, down):  1.516E-02 0.000E+00

     negative rho (up, down):  1.516E-02 0.000E+00

     negative rho (up, down):  1.516E-02 0.000E+00

     negative rho (up, down):  1.516E-02 0.000E+00

     negative rho (up, down):  1.516E-02 0.000E+00

     negative rho (up, down):  1.516E-02 0.000E+00

     negative rho (up, down):  1.516E-02 0.000E+00

     negative rho (up, down):  1.516E-02 0.000E+00

     negative rho (up, down):  1.516E-02 0.000E+00

     negative rho (up, down):  1.516E-02 0.000E+00

     negative rho (up, down):  1.516E-02 0.000E+00

     negative rho (up, down):  1.516E-02 0.000E+00

     negative rho (up, down):  1.516E-02 0.000E+00

     negative rho (up, down):  1.516E-02 0.000E+00

     negative rho (up, down):  1.516E-02 0.000E+00

     negative rho (up, down):  1.516E-02 0.000E+00

     negative rho (up, down):  1.516E-02 0.000E+00

     negative rho (up, down):  1.516E-02 0.000E+00

     negative rho (up, down):  1.516E-02 0.000E+00

     negative rho (up, down):  1.516E-02 0.000E+00

     negative rho (up, down):  1.516E-02 0.000E+00

     negative rho (up, down):  1.516E-02 0.000E+00

     negative rho (up, down):  1.516E-02 0.000E+00

     negative rho (up, down):  1.516E-02 0.000E+00

     negative rho (up, down):  1.516E-02 0.000E+00

     negative rho (up, down):  1.516E-02 0.000E+00

     negative rho (up, down):  1.516E-02 0.000E+00

     negative rho (up, down):  1.516E-02 0.000E+00

     negative rho (up, down):  1.516E-02 0.000E+00

     negative rho (up, down):  1.516E-02 0.000E+00

     negative rho (up, down):  1.516E-02 0.000E+00
 
     Adding external electric field

     Computed dipole along edir(3) : 
        Dipole                0.3366 Ry au,          0.8557 Debye
        Dipole field          0.0010 Ry au
 
        Potential amp.       -0.0915 Ry
        Total length         44.9721 bohr
 

     total cpu time spent up to now is      601.0 secs

     End of self-consistent calculation

          k = 0.0000 0.0000 0.0000 ( 15569 PWs)   bands (ev):

   -62.4758 -62.4141 -62.3624 -62.3431 -62.3289 -62.3277 -62.3182 -62.2967
   -62.2963 -62.2680 -62.2678 -62.2676 -36.5636 -36.5581 -36.5579 -36.5273
   -36.5092 -36.5089 -36.4874 -36.4296 -36.4294 -36.4155 -36.3226 -36.2498
   -36.2008 -36.1998 -36.1402 -36.1401 -36.1400 -36.0660 -36.0547 -36.0545
   -36.0182 -35.9957 -35.9954 -35.9914 -35.9781 -35.9780 -35.9599 -35.9190
   -35.9189 -35.9169 -35.8861 -35.8858 -35.8424 -35.8421 -35.7961 -35.7961
   -12.8458  -5.8090  -4.1476  -2.6064  -1.7597  -1.7596  -1.6047  -1.2051
    -1.1246  -1.1245  -0.9700  -0.9699  -0.9348  -0.5267  -0.5265  -0.4958
    -0.4399  -0.4105  -0.4105   0.3816   0.5796   0.5797   1.3191   1.3958
     1.5148   1.5148   1.6539   1.7474   1.9796   1.9796   2.0480   2.0484
     2.0651   2.1353   2.1353   2.2185   2.2186   2.2251   2.2613   2.2613
     2.6257   2.7970   2.8838

          k = 0.0000 0.0356 0.0000 ( 15635 PWs)   bands (ev):

   -62.4676 -62.4081 -62.3633 -62.3408 -62.3349 -62.3280 -62.3186 -62.3014
   -62.2965 -62.2726 -62.2676 -62.2675 -36.5480 -36.5361 -36.5259 -36.5061
   -36.4895 -36.4825 -36.4657 -36.4085 -36.4021 -36.3840 -36.3204 -36.2541
   -36.2198 -36.2104 -36.1390 -36.1349 -36.1335 -36.0796 -36.0715 -36.0478
   -36.0353 -36.0283 -35.9952 -35.9820 -35.9801 -35.9715 -35.9679 -35.9413
   -35.9376 -35.9205 -35.9127 -35.8947 -35.8744 -35.8505 -35.8342 -35.8040
   -12.8428  -5.7841  -3.9448  -2.4475  -1.7875  -1.7527  -1.3820  -1.2170
    -1.0656  -1.0292  -0.9951  -0.8548  -0.8270  -0.4276  -0.3724  -0.3629
    -0.3114  -0.2688  -0.2677   0.4255   0.5925   0.5987   1.2408   1.4319
     1.5543   1.5620   1.5741   1.7080   1.7320   1.8141   1.8944   1.9809
     2.0688   2.1224   2.1545   2.1880   2.1899   2.2404   2.2687   2.4022
     2.4047   2.5629   2.6239

          k = 0.0000 0.0713 0.0000 ( 15669 PWs)   bands (ev):

   -62.4457 -62.3961 -62.3711 -62.3487 -62.3313 -62.3281 -62.3226 -62.3077
   -62.2965 -62.2848 -62.2678 -62.2674 -36.5142 -36.4816 -36.4673 -36.4445
   -36.4421 -36.4238 -36.4072 -36.3579 -36.3504 -36.3117 -36.2876 -36.2635
   -36.2412 -36.2390 -36.1380 -36.1279 -36.1224 -36.1112 -36.1043 -36.0838
   -36.0779 -36.0519 -36.0200 -36.0171 -36.0059 -35.9973 -35.9741 -35.9627
   -35.9606 -35.9571 -35.9561 -35.9249 -35.9094 -35.8858 -35.8724 -35.8257
   -12.8368  -5.7382  -3.3659  -2.1871  -1.7479  -1.6743  -1.6219  -0.9597
    -0.8469  -0.7737  -0.7684  -0.5789  -0.5519  -0.2375  -0.0468  -0.0451
     0.0328   0.1355   0.1588   0.5416   0.6433   0.6918   0.9341   1.2012
     1.2418   1.3198   1.4036   1.4691   1.6140   1.7248   1.7267   1.7602
     1.7983   1.8435   1.8899   1.9506   2.0897   2.1894   2.1954   2.2691
     2.3761   2.4051   2.4114

          k = 0.0000-0.1069 0.0000 ( 15660 PWs)   bands (ev):

   -62.4235 -62.4053 -62.3671 -62.3535 -62.3406 -62.3282 -62.3157 -62.3021
   -62.3004 -62.2965 -62.2679 -62.2674 -36.4919 -36.4416 -36.4319 -36.4229
   -36.4202 -36.3960 -36.3415 -36.3227 -36.3172 -36.3058 -36.2886 -36.2696
   -36.1907 -36.1861 -36.1495 -36.1422 -36.1398 -36.1352 -36.1261 -36.1118
   -36.0816 -36.0674 -36.0662 -36.0635 -36.0599 -36.0584 -35.9861 -35.9740
   -35.9715 -35.9600 -35.9478 -35.9384 -35.9209 -35.8951 -35.8571 -35.8534
   -12.8337  -5.7170  -2.6140  -2.4707  -2.0698  -1.7486  -1.1972  -1.0920
    -0.5566  -0.5517  -0.4496  -0.4402  -0.3412  -0.2452   0.2471   0.2555
     0.3377   0.3521   0.4330   0.4936   0.8375   0.8711   0.8809   0.9191
     0.9562   1.0037   1.2296   1.2592   1.3449   1.4205   1.4222   1.5694
     1.6269   1.7004   1.7419   1.7447   1.9001   1.9511   2.0167   2.0181
     2.1601   2.2536   2.5307

          k = 0.0309-0.0178 0.0000 ( 15635 PWs)   bands (ev):

   -62.4676 -62.4081 -62.3635 -62.3409 -62.3339 -62.3289 -62.3185 -62.3011
   -62.2967 -62.2725 -62.2677 -62.2674 -36.5481 -36.5360 -36.5259 -36.5062
   -36.4893 -36.4828 -36.4657 -36.4083 -36.4023 -36.3840 -36.3204 -36.2542
   -36.2189 -36.2111 -36.1389 -36.1352 -36.1334 -36.0799 -36.0713 -36.0477
   -36.0351 -36.0285 -35.9953 -35.9819 -35.9801 -35.9715 -35.9679 -35.9413
   -35.9377 -35.9202 -35.9125 -35.8950 -35.8742 -35.8508 -35.8342 -35.8040
   -12.8428  -5.7841  -3.9448  -2.4475  -1.7876  -1.7526  -1.3820  -1.2170
    -1.0656  -1.0291  -0.9951  -0.8547  -0.8271  -0.4276  -0.3723  -0.3630
    -0.3115  -0.2687  -0.2677   0.4254   0.5924   0.5989   1.2408   1.4319
     1.5543   1.5621   1.5740   1.7080   1.7321   1.8139   1.8944   1.9810
     2.0687   2.1224   2.1546   2.1880   2.1897   2.2404   2.2688   2.4023
     2.4047   2.5628   2.6239

          k = 0.0309 0.0178 0.0000 ( 15635 PWs)   bands (ev):

   -62.4676 -62.4081 -62.3634 -62.3408 -62.3347 -62.3281 -62.3186 -62.3016
   -62.2964 -62.2725 -62.2677 -62.2675 -36.5480 -36.5362 -36.5258 -36.5062
   -36.4895 -36.4826 -36.4657 -36.4083 -36.4022 -36.3840 -36.3204 -36.2541
   -36.2195 -36.2106 -36.1389 -36.1351 -36.1335 -36.0797 -36.0715 -36.0477
   -36.0353 -36.0283 -35.9953 -35.9819 -35.9801 -35.9715 -35.9681 -35.9412
   -35.9376 -35.9205 -35.9127 -35.8947 -35.8744 -35.8506 -35.8342 -35.8040
   -12.8428  -5.7841  -3.9448  -2.4475  -1.7875  -1.7526  -1.3820  -1.2170
    -1.0656  -1.0292  -0.9951  -0.8548  -0.8270  -0.4276  -0.3724  -0.3629
    -0.3114  -0.2688  -0.2677   0.4254   0.5925   0.5988   1.2408   1.4319
     1.5544   1.5620   1.5740   1.7080   1.7320   1.8141   1.8944   1.9809
     2.0687   2.1224   2.1545   2.1880   2.1899   2.2404   2.2687   2.4022
     2.4047   2.5629   2.6239

          k = 0.0309 0.0535 0.0000 ( 15620 PWs)   bands (ev):

   -62.4526 -62.3984 -62.3660 -62.3507 -62.3316 -62.3272 -62.3196 -62.3107
   -62.2950 -62.2774 -62.2744 -62.2641 -36.5239 -36.4999 -36.4693 -36.4655
   -36.4543 -36.4400 -36.4284 -36.3779 -36.3463 -36.3298 -36.3142 -36.2615
   -36.2410 -36.2311 -36.1475 -36.1322 -36.1241 -36.1114 -36.1013 -36.0593
   -36.0469 -36.0255 -36.0152 -36.0070 -36.0040 -35.9864 -35.9740 -35.9642
   -35.9622 -35.9326 -35.9248 -35.9199 -35.9128 -35.8889 -35.8643 -35.8233
   -12.8383  -5.7494  -3.5516  -2.2221  -1.7775  -1.6934  -1.2686  -1.2596
    -0.9854  -0.8761  -0.8486  -0.7535  -0.4620  -0.2155  -0.2102  -0.1249
    -0.0518  -0.0194   0.0232   0.5090   0.6234   0.6429   1.0640   1.3192
     1.3462   1.4041   1.4658   1.5170   1.5835   1.7254   1.7915   1.8139
     1.9116   1.9640   1.9660   2.0608   2.1142   2.1725   2.3048   2.3185
     2.4079   2.4365   2.4618

          k = 0.0309-0.1248 0.0000 ( 15642 PWs)   bands (ev):

   -62.4281 -62.3961 -62.3694 -62.3574 -62.3401 -62.3242 -62.3189 -62.3105
   -62.2955 -62.2883 -62.2776 -62.2621 -36.4928 -36.4432 -36.4296 -36.4110
   -36.4053 -36.3910 -36.3631 -36.3306 -36.3127 -36.2942 -36.2840 -36.2564
   -36.2409 -36.2066 -36.1951 -36.1636 -36.1314 -36.1231 -36.1112 -36.1073
   -36.0831 -36.0707 -36.0623 -36.0387 -36.0270 -36.0094 -35.9891 -35.9845
   -35.9727 -35.9617 -35.9398 -35.9317 -35.9284 -35.8971 -35.8881 -35.8549
   -12.8337  -5.7175  -2.8373  -2.1244  -1.9097  -1.8004  -1.2714  -1.1952
    -0.8797  -0.6126  -0.4012  -0.3880  -0.1337  -0.0495   0.1710   0.2175
     0.2287   0.3305   0.4162   0.6580   0.7037   0.7405   0.8244   0.9548
     0.9822   1.0797   1.1840   1.2300   1.2965   1.4309   1.4799   1.5155
     1.5795   1.6553   1.7039   1.7651   1.8862   1.9556   2.0298   2.1214
     2.2521   2.3098   2.5047

          k = 0.0309-0.0891 0.0000 ( 15642 PWs)   bands (ev):

   -62.4281 -62.3962 -62.3691 -62.3579 -62.3397 -62.3243 -62.3190 -62.3104
   -62.2953 -62.2885 -62.2776 -62.2621 -36.4928 -36.4430 -36.4298 -36.4109
   -36.4053 -36.3910 -36.3631 -36.3306 -36.3127 -36.2942 -36.2839 -36.2565
   -36.2408 -36.2066 -36.1956 -36.1636 -36.1312 -36.1231 -36.1112 -36.1072
   -36.0830 -36.0707 -36.0623 -36.0387 -36.0271 -36.0094 -35.9890 -35.9844
   -35.9727 -35.9618 -35.9398 -35.9317 -35.9284 -35.8972 -35.8881 -35.8549
   -12.8337  -5.7175  -2.8373  -2.1244  -1.9097  -1.8004  -1.2714  -1.1952
    -0.8797  -0.6126  -0.4012  -0.3881  -0.1337  -0.0495   0.1710   0.2175
     0.2287   0.3305   0.4162   0.6580   0.7036   0.7405   0.8244   0.9548
     0.9823   1.0797   1.1840   1.2301   1.2966   1.4309   1.4798   1.5155
     1.5796   1.6552   1.7039   1.7650   1.8863   1.9555   2.0299   2.1215
     2.2520   2.3098   2.5047

          k = 0.0309-0.0535 0.0000 ( 15620 PWs)   bands (ev):

   -62.4526 -62.3983 -62.3664 -62.3503 -62.3316 -62.3274 -62.3196 -62.3105
   -62.2951 -62.2775 -62.2743 -62.2641 -36.5240 -36.4997 -36.4694 -36.4655
   -36.4543 -36.4400 -36.4284 -36.3779 -36.3463 -36.3298 -36.3142 -36.2616
   -36.2407 -36.2313 -36.1476 -36.1324 -36.1239 -36.1115 -36.1014 -36.0590
   -36.0469 -36.0257 -36.0153 -36.0070 -36.0038 -35.9863 -35.9739 -35.9642
   -35.9620 -35.9326 -35.9248 -35.9199 -35.9129 -35.8890 -35.8645 -35.8233
   -12.8383  -5.7494  -3.5516  -2.2221  -1.7775  -1.6934  -1.2686  -1.2597
    -0.9854  -0.8761  -0.8486  -0.7535  -0.4620  -0.2155  -0.2102  -0.1249
    -0.0518  -0.0193   0.0232   0.5090   0.6233   0.6429   1.0640   1.3193
     1.3461   1.4041   1.4658   1.5170   1.5835   1.7254   1.7915   1.8139
     1.9116   1.9639   1.9661   2.0608   2.1142   2.1725   2.3047   2.3187
     2.4079   2.4365   2.4617

          k = 0.0617-0.0356 0.0000 ( 15669 PWs)   bands (ev):

   -62.4457 -62.3960 -62.3717 -62.3479 -62.3310 -62.3291 -62.3222 -62.3076
   -62.2967 -62.2847 -62.2677 -62.2676 -36.5142 -36.4815 -36.4672 -36.4442
   -36.4424 -36.4240 -36.4071 -36.3576 -36.3508 -36.3117 -36.2876 -36.2632
   -36.2418 -36.2387 -36.1377 -36.1285 -36.1222 -36.1118 -36.1040 -36.0837
   -36.0780 -36.0517 -36.0198 -36.0172 -36.0061 -35.9970 -35.9739 -35.9627
   -35.9606 -35.9566 -35.9559 -35.9252 -35.9094 -35.8857 -35.8729 -35.8257
   -12.8368  -5.7382  -3.3659  -2.1872  -1.7478  -1.6743  -1.6219  -0.9596
    -0.8469  -0.7738  -0.7683  -0.5788  -0.5519  -0.2375  -0.0468  -0.0451
     0.0327   0.1353   0.1589   0.5414   0.6435   0.6918   0.9341   1.2012
     1.2418   1.3197   1.4036   1.4691   1.6140   1.7247   1.7267   1.7604
     1.7983   1.8435   1.8900   1.9506   2.0896   2.1895   2.1955   2.2691
     2.3760   2.4051   2.4113

          k = 0.0617 0.0000 0.0000 ( 15620 PWs)   bands (ev):

   -62.4526 -62.3983 -62.3665 -62.3501 -62.3316 -62.3273 -62.3196 -62.3107
   -62.2951 -62.2772 -62.2745 -62.2641 -36.5240 -36.4997 -36.4694 -36.4655
   -36.4543 -36.4400 -36.4284 -36.3779 -36.3464 -36.3298 -36.3142 -36.2617
   -36.2405 -36.2314 -36.1477 -36.1324 -36.1239 -36.1116 -36.1014 -36.0590
   -36.0469 -36.0256 -36.0152 -36.0069 -36.0039 -35.9863 -35.9739 -35.9641
   -35.9621 -35.9326 -35.9248 -35.9199 -35.9129 -35.8890 -35.8645 -35.8233
   -12.8383  -5.7494  -3.5516  -2.2221  -1.7775  -1.6934  -1.2686  -1.2597
    -0.9854  -0.8761  -0.8486  -0.7535  -0.4620  -0.2155  -0.2102  -0.1249
    -0.0518  -0.0193   0.0232   0.5089   0.6233   0.6430   1.0640   1.3193
     1.3462   1.4041   1.4657   1.5170   1.5836   1.7254   1.7915   1.8139
     1.9116   1.9639   1.9661   2.0608   2.1142   2.1725   2.3047   2.3187
     2.4079   2.4365   2.4617

          k = 0.0617 0.0356 0.0000 ( 15669 PWs)   bands (ev):

   -62.4457 -62.3961 -62.3712 -62.3484 -62.3313 -62.3282 -62.3224 -62.3080
   -62.2964 -62.2847 -62.2676 -62.2676 -36.5142 -36.4817 -36.4672 -36.4445
   -36.4421 -36.4240 -36.4071 -36.3577 -36.3506 -36.3117 -36.2876 -36.2634
   -36.2414 -36.2389 -36.1379 -36.1281 -36.1223 -36.1114 -36.1042 -36.0838
   -36.0779 -36.0518 -36.0199 -36.0171 -36.0060 -35.9972 -35.9740 -35.9629
   -35.9605 -35.9571 -35.9560 -35.9249 -35.9094 -35.8857 -35.8726 -35.8257
   -12.8368  -5.7382  -3.3659  -2.1871  -1.7479  -1.6743  -1.6219  -0.9596
    -0.8469  -0.7737  -0.7684  -0.5789  -0.5518  -0.2375  -0.0469  -0.0451
     0.0328   0.1354   0.1588   0.5415   0.6434   0.6918   0.9341   1.2012
     1.2418   1.3198   1.4036   1.4691   1.6140   1.7247   1.7267   1.7602
     1.7983   1.8435   1.8899   1.9506   2.0897   2.1895   2.1954   2.2691
     2.3761   2.4051   2.4114

          k = 0.0617-0.1426 0.0000 ( 15642 PWs)   bands (ev):

   -62.4281 -62.3962 -62.3694 -62.3572 -62.3402 -62.3241 -62.3190 -62.3106
   -62.2952 -62.2885 -62.2776 -62.2621 -36.4928 -36.4432 -36.4296 -36.4109
   -36.4053 -36.3912 -36.3631 -36.3305 -36.3127 -36.2941 -36.2841 -36.2564
   -36.2410 -36.2067 -36.1950 -36.1635 -36.1315 -36.1232 -36.1112 -36.1074
   -36.0831 -36.0707 -36.0621 -36.0387 -36.0270 -36.0094 -35.9891 -35.9843
   -35.9728 -35.9618 -35.9397 -35.9317 -35.9283 -35.8973 -35.8881 -35.8549
   -12.8337  -5.7175  -2.8373  -2.1244  -1.9097  -1.8004  -1.2714  -1.1952
    -0.8796  -0.6126  -0.4012  -0.3880  -0.1337  -0.0495   0.1710   0.2175
     0.2287   0.3305   0.4162   0.6580   0.7037   0.7406   0.8244   0.9548
     0.9822   1.0797   1.1840   1.2300   1.2965   1.4309   1.4798   1.5155
     1.5795   1.6553   1.7039   1.7651   1.8862   1.9555   2.0299   2.1214
     2.2521   2.3098   2.5047

          k = 0.0617-0.1069 0.0000 ( 15672 PWs)   bands (ev):

   -62.4149 -62.3943 -62.3812 -62.3466 -62.3460 -62.3361 -62.3164 -62.3035
   -62.2934 -62.2907 -62.2854 -62.2601 -36.4802 -36.4137 -36.4010 -36.3827
   -36.3746 -36.3642 -36.3508 -36.3343 -36.3317 -36.2659 -36.2559 -36.2511
   -36.2260 -36.2061 -36.2055 -36.1808 -36.1702 -36.1699 -36.1303 -36.1106
   -36.1045 -36.1002 -36.0725 -36.0209 -36.0205 -35.9992 -35.9963 -35.9647
   -35.9633 -35.9631 -35.9538 -35.9502 -35.9271 -35.9013 -35.8997 -35.8970
   -12.8322  -5.7078  -2.1613  -2.1595  -1.9667  -1.8452  -1.8420  -0.8053
    -0.7955  -0.7946  -0.0385  -0.0223   0.1010   0.1110   0.1839   0.1882
     0.5344   0.5702   0.5760   0.5828   0.5940   0.6972   0.7075   0.7266
     0.9459   0.9550   0.9623   1.1714   1.1763   1.1951   1.2689   1.2968
     1.3409   1.4253   1.5938   1.6620   1.6676   1.7587   2.2504   2.2747
     2.3017   2.4052   2.4416

          k = 0.0617-0.0713 0.0000 ( 15642 PWs)   bands (ev):

   -62.4280 -62.3964 -62.3695 -62.3573 -62.3401 -62.3237 -62.3193 -62.3106
   -62.2952 -62.2885 -62.2776 -62.2621 -36.4928 -36.4430 -36.4298 -36.4106
   -36.4051 -36.3913 -36.3631 -36.3306 -36.3128 -36.2941 -36.2841 -36.2565
   -36.2410 -36.2067 -36.1954 -36.1635 -36.1314 -36.1232 -36.1112 -36.1072
   -36.0831 -36.0708 -36.0620 -36.0386 -36.0271 -36.0092 -35.9889 -35.9844
   -35.9726 -35.9617 -35.9398 -35.9317 -35.9283 -35.8975 -35.8883 -35.8549
   -12.8337  -5.7175  -2.8374  -2.1245  -1.9097  -1.8004  -1.2714  -1.1952
    -0.8797  -0.6126  -0.4012  -0.3881  -0.1337  -0.0495   0.1710   0.2175
     0.2287   0.3305   0.4162   0.6580   0.7036   0.7405   0.8244   0.9548
     0.9823   1.0797   1.1840   1.2300   1.2965   1.4309   1.4798   1.5157
     1.5795   1.6552   1.7039   1.7651   1.8863   1.9555   2.0300   2.1214
     2.2522   2.3097   2.5047

          k =-0.0926 0.0535 0.0000 ( 15660 PWs)   bands (ev):

   -62.4232 -62.4058 -62.3672 -62.3538 -62.3392 -62.3291 -62.3154 -62.3022
   -62.3003 -62.2967 -62.2677 -62.2676 -36.4919 -36.4416 -36.4321 -36.4224
   -36.4196 -36.3966 -36.3417 -36.3224 -36.3172 -36.3061 -36.2882 -36.2699
   -36.1907 -36.1866 -36.1494 -36.1431 -36.1397 -36.1349 -36.1267 -36.1105
   -36.0816 -36.0674 -36.0663 -36.0636 -36.0600 -36.0580 -35.9855 -35.9742
   -35.9713 -35.9601 -35.9479 -35.9383 -35.9205 -35.8959 -35.8573 -35.8533
   -12.8337  -5.7170  -2.6141  -2.4706  -2.0698  -1.7485  -1.1970  -1.0920
    -0.5567  -0.5516  -0.4496  -0.4402  -0.3410  -0.2453   0.2472   0.2554
     0.3379   0.3518   0.4331   0.4934   0.8375   0.8710   0.8812   0.9190
     0.9562   1.0036   1.2296   1.2591   1.3450   1.4205   1.4222   1.5695
     1.6270   1.7006   1.7419   1.7446   1.9001   1.9511   2.0166   2.0182
     2.1601   2.2536   2.5310

          k =-0.0926 0.0891 0.0000 ( 15642 PWs)   bands (ev):

   -62.4279 -62.3964 -62.3694 -62.3573 -62.3400 -62.3238 -62.3194 -62.3105
   -62.2954 -62.2884 -62.2777 -62.2621 -36.4928 -36.4430 -36.4300 -36.4105
   -36.4050 -36.3913 -36.3631 -36.3306 -36.3128 -36.2942 -36.2839 -36.2566
   -36.2410 -36.2067 -36.1956 -36.1635 -36.1313 -36.1232 -36.1113 -36.1072
   -36.0831 -36.0707 -36.0621 -36.0386 -36.0270 -36.0092 -35.9889 -35.9845
   -35.9725 -35.9617 -35.9399 -35.9317 -35.9284 -35.8975 -35.8883 -35.8549
   -12.8337  -5.7175  -2.8374  -2.1245  -1.9097  -1.8004  -1.2714  -1.1952
    -0.8797  -0.6126  -0.4012  -0.3880  -0.1337  -0.0495   0.1710   0.2175
     0.2287   0.3305   0.4162   0.6580   0.7036   0.7405   0.8244   0.9548
     0.9822   1.0797   1.1840   1.2300   1.2966   1.4309   1.4798   1.5157
     1.5796   1.6552   1.7039   1.7650   1.8863   1.9555   2.0300   2.1213
     2.2521   2.3098   2.5047

          k =-0.0926 0.1248 0.0000 ( 15642 PWs)   bands (ev):

   -62.4280 -62.3963 -62.3691 -62.3578 -62.3396 -62.3242 -62.3193 -62.3105
   -62.2952 -62.2886 -62.2776 -62.2621 -36.4928 -36.4430 -36.4300 -36.4107
   -36.4052 -36.3912 -36.3631 -36.3305 -36.3127 -36.2943 -36.2839 -36.2566
   -36.2408 -36.2066 -36.1957 -36.1636 -36.1312 -36.1231 -36.1113 -36.1072
   -36.0830 -36.0707 -36.0622 -36.0387 -36.0271 -36.0093 -35.9890 -35.9843
   -35.9728 -35.9619 -35.9398 -35.9317 -35.9283 -35.8973 -35.8882 -35.8549
   -12.8337  -5.7175  -2.8373  -2.1244  -1.9097  -1.8004  -1.2714  -1.1952
    -0.8796  -0.6126  -0.4012  -0.3880  -0.1337  -0.0495   0.1710   0.2175
     0.2287   0.3305   0.4162   0.6580   0.7036   0.7405   0.8244   0.9548
     0.9823   1.0797   1.1839   1.2301   1.2966   1.4309   1.4798   1.5155
     1.5796   1.6552   1.7039   1.7649   1.8864   1.9555   2.0300   2.1215
     2.2520   2.3098   2.5047

          k =-0.0926-0.0535 0.0000 ( 15660 PWs)   bands (ev):

   -62.4234 -62.4055 -62.3671 -62.3535 -62.3403 -62.3283 -62.3157 -62.3023
   -62.3004 -62.2964 -62.2677 -62.2676 -36.4918 -36.4418 -36.4320 -36.4225
   -36.4201 -36.3963 -36.3416 -36.3224 -36.3171 -36.3059 -36.2885 -36.2696
   -36.1907 -36.1863 -36.1496 -36.1424 -36.1398 -36.1350 -36.1264 -36.1114
   -36.0816 -36.0674 -36.0662 -36.0635 -36.0602 -36.0581 -35.9859 -35.9742
   -35.9715 -35.9599 -35.9481 -35.9382 -35.9206 -35.8953 -35.8574 -35.8531
   -12.8337  -5.7170  -2.6141  -2.4706  -2.0698  -1.7485  -1.1972  -1.0919
    -0.5566  -0.5516  -0.4498  -0.4401  -0.3412  -0.2452   0.2473   0.2553
     0.3378   0.3519   0.4330   0.4936   0.8375   0.8711   0.8811   0.9190
     0.9561   1.0038   1.2296   1.2592   1.3449   1.4205   1.4222   1.5694
     1.6269   1.7005   1.7419   1.7447   1.9001   1.9511   2.0166   2.0182
     2.1601   2.2536   2.5315

     the Fermi energy is     1.8346 ev

!    total energy              =   -1774.49182871 Ry
     Harris-Foulkes estimate   =   -1774.49184396 Ry
     estimated scf accuracy    <       0.00000729 Ry

     The total energy is the sum of the following terms:

     one-electron contribution =  -15193.22752201 Ry
     hartree contribution      =    7589.91902113 Ry
     xc contribution           =    -253.88638220 Ry
     ewald contribution        =    6082.84998178 Ry
     electric field correction =       0.00034247 Ry
     smearing contrib. (-TS)   =      -0.14726988 Ry

     convergence has been achieved in  34 iterations
 
 BEEF-vdW xc energy contributions
           1 :   -218.603485468325     
           2 :    195.917947494417     
           3 :   -158.490250254478     
           4 :    118.087707119144     
           5 :   -84.9096309970563     
           6 :    63.8158174661723     
           7 :   -53.7031818010836     
           8 :    49.7294702091193     
           9 :   -46.7200955013177     
          10 :    41.7883170650514     
          11 :   -35.0359813742354     
          12 :    28.4387372858089     
          13 :   -23.9742576691632     
          14 :    22.2287621976154     
          15 :   -22.2034177897660     
          16 :    22.1953061236931     
          17 :   -21.0059552243709     
          18 :    18.6341092979584     
          19 :   -16.0655900661869     
          20 :    14.4195811918418     
          21 :   -14.1197148563760     
          22 :    14.6557083521123     
          23 :   -15.0294888605944     
          24 :    14.4930748426301     
          25 :   -13.0368462770521     
          26 :    11.3198238036998     
          27 :   -10.1508568631958     
          28 :    9.91719751593658     
          29 :   -10.3529963809201     
          30 :    10.7738076326493     
          31 :   -22.7997461720925     
          32 :   -16.3943116005376     

     Forces acting on atoms (Ry/au):


     negative rho (up, down):  1.516E-02 0.000E+00
     atom    1 type  1   force =    -0.00005006   -0.00003040   -0.00111150
     atom    2 type  1   force =     0.00004731   -0.00004296   -0.00111874
     atom    3 type  1   force =    -0.00000811    0.00006981   -0.00111391
     atom    4 type  1   force =     0.00000555    0.00000206   -0.00120340
     atom    5 type  1   force =    -0.00004885    0.00285541   -0.00202306
     atom    6 type  1   force =     0.00003925   -0.00000362    0.00557073
     atom    7 type  1   force =    -0.00248240   -0.00139681   -0.00202459
     atom    8 type  1   force =     0.00247302   -0.00144515   -0.00198129
     atom    9 type  1   force =    -0.00001261   -0.00000734    0.01513655
     atom   10 type  1   force =     0.00001454    0.00217763   -0.00927827
     atom   11 type  1   force =     0.00190804   -0.00108594   -0.00936234
     atom   12 type  1   force =    -0.00188417   -0.00109397   -0.00926810
     atom   13 type  2   force =    -0.00000118    0.00000004   -0.10462033
     atom   14 type  3   force =    -0.00000032    0.00000123    0.12239825

     Total force =     0.162572     Total SCF correction =     0.001393


     entering subroutine stress ...


     negative rho (up, down):  1.516E-02 0.000E+00
          total   stress  (Ry/bohr**3)                   (kbar)     P=  -12.52
  -0.00017432   0.00000007   0.00000002        -25.64      0.01      0.00
   0.00000007  -0.00017425   0.00000000          0.01    -25.63      0.00
   0.00000002   0.00000000   0.00009325          0.00      0.00     13.72


     BFGS Geometry Optimization

     number of scf cycles    =   1
     number of bfgs steps    =   0

     energy   new            =   -1774.4918287063 Ry

     new trust radius        =       0.1223982508 bohr
     new conv_thr            =       0.0000099958 Ry


ATOMIC_POSITIONS (crystal)
V1       0.166666667   0.166666667   0.409694847    0   0   0
V1       0.666666667   0.166666667   0.409694847    0   0   0
V1       0.166666667   0.666666667   0.409694847    0   0   0
V1       0.666666667   0.666666667   0.409694847    0   0   0
V1       0.833333333   0.333333333   0.500000000    0   0   0
V1       0.333333333   0.333333333   0.500000000    0   0   0
V1       0.833333333   0.833333333   0.500000000    0   0   0
V1       0.333333333   0.833333333   0.500000000    0   0   0
V1      -0.000000821  -0.000000831   0.590633316
V1       0.499878201   0.000246449   0.590103999
V1       0.000248458   0.499877101   0.590102177
V1       0.499877235   0.499876192   0.590104220
S1      -0.000000118   0.000000005   0.677883052
H1      -0.000000101   0.000000139   0.734016698



     Writing output data file calc.save
     Check: negative starting charge=   -0.011391
     NEW-OLD atomic charge density approx. for the potential

     Check: negative/imaginary core charge=   -0.000001    0.000000
     Check: negative starting charge=   -0.011353

     negative rho (up, down):  1.511E-02 0.000E+00
 
     Adding external electric field

     Computed dipole along edir(3) : 
        Dipole                0.3366 Ry au,          0.8556 Debye
        Dipole field          0.0010 Ry au
 
        Potential amp.       -0.0915 Ry
        Total length         44.9721 bohr
 

     total cpu time spent up to now is      655.8 secs

     per-process dynamical memory:   108.1 Mb

     Self-consistent Calculation

     iteration #  1     ecut=    36.75 Ry     beta=0.30
     Davidson diagonalization with overlap
     c_bands:  1 eigenvalues not converged
     ethr =  1.00E-06,  avg # of iterations = 11.6

     negative rho (up, down):  1.508E-02 0.000E+00
 
     Adding external electric field

     Computed dipole along edir(3) : 
        Dipole                1.0026 Ry au,          2.5484 Debye
        Dipole field          0.0030 Ry au
 
        Potential amp.       -0.2725 Ry
        Total length         44.9721 bohr
 

     total cpu time spent up to now is      681.6 secs

     total energy              =   -1774.47246496 Ry
     Harris-Foulkes estimate   =   -1774.50021288 Ry
     estimated scf accuracy    <       0.06253143 Ry

     iteration #  2     ecut=    36.75 Ry     beta=0.30
     Davidson diagonalization with overlap
     ethr =  3.84E-05,  avg # of iterations =  7.5

     negative rho (up, down):  1.509E-02 0.000E+00
 
     Adding external electric field

     Computed dipole along edir(3) : 
        Dipole                0.4661 Ry au,          1.1846 Debye
        Dipole field          0.0014 Ry au
 
        Potential amp.       -0.1267 Ry
        Total length         44.9721 bohr
 

     total cpu time spent up to now is      703.4 secs

     total energy              =   -1774.00767683 Ry
     Harris-Foulkes estimate   =   -1775.03137437 Ry
     estimated scf accuracy    <      74.29851236 Ry

     iteration #  3     ecut=    36.75 Ry     beta=0.30
     Davidson diagonalization with overlap
     ethr =  3.84E-05,  avg # of iterations =  8.5

     negative rho (up, down):  1.507E-02 0.000E+00
 
     Adding external electric field

     Computed dipole along edir(3) : 
        Dipole                0.4360 Ry au,          1.1082 Debye
        Dipole field          0.0013 Ry au
 
        Potential amp.       -0.1185 Ry
        Total length         44.9721 bohr
 

     total cpu time spent up to now is      725.7 secs

     total energy              =   -1774.48663744 Ry
     Harris-Foulkes estimate   =   -1774.50986629 Ry
     estimated scf accuracy    <       0.31994963 Ry

     iteration #  4     ecut=    36.75 Ry     beta=0.30
     Davidson diagonalization with overlap
     ethr =  3.84E-05,  avg # of iterations =  6.3

     negative rho (up, down):  1.507E-02 0.000E+00
 
     Adding external electric field

     Computed dipole along edir(3) : 
        Dipole                0.3860 Ry au,          0.9811 Debye
        Dipole field          0.0012 Ry au
 
        Potential amp.       -0.1049 Ry
        Total length         44.9721 bohr
 

     total cpu time spent up to now is      744.3 secs

     total energy              =   -1774.49672623 Ry
     Harris-Foulkes estimate   =   -1774.50196659 Ry
     estimated scf accuracy    <       0.05038538 Ry

     iteration #  5     ecut=    36.75 Ry     beta=0.30
     Davidson diagonalization with overlap
     ethr =  3.09E-05,  avg # of iterations =  3.0

     negative rho (up, down):  1.507E-02 0.000E+00
 
     Adding external electric field

     Computed dipole along edir(3) : 
        Dipole                0.3745 Ry au,          0.9518 Debye
        Dipole field          0.0011 Ry au
 
        Potential amp.       -0.1018 Ry
        Total length         44.9721 bohr
 

     total cpu time spent up to now is      758.7 secs

     total energy              =   -1774.49812135 Ry
     Harris-Foulkes estimate   =   -1774.49887621 Ry
     estimated scf accuracy    <       0.00653996 Ry

     iteration #  6     ecut=    36.75 Ry     beta=0.30
     Davidson diagonalization with overlap
     ethr =  4.01E-06,  avg # of iterations =  7.0

     negative rho (up, down):  1.507E-02 0.000E+00
 
     Adding external electric field

     Computed dipole along edir(3) : 
        Dipole                0.3747 Ry au,          0.9525 Debye
        Dipole field          0.0011 Ry au
 
        Potential amp.       -0.1019 Ry
        Total length         44.9721 bohr
 

     total cpu time spent up to now is      778.6 secs

     total energy              =   -1774.49908074 Ry
     Harris-Foulkes estimate   =   -1774.49993339 Ry
     estimated scf accuracy    <       0.01116392 Ry

     iteration #  7     ecut=    36.75 Ry     beta=0.30
     Davidson diagonalization with overlap
     ethr =  4.01E-06,  avg # of iterations =  4.7

     negative rho (up, down):  1.508E-02 0.000E+00
 
     Adding external electric field

     Computed dipole along edir(3) : 
        Dipole                0.3774 Ry au,          0.9592 Debye
        Dipole field          0.0011 Ry au
 
        Potential amp.       -0.1026 Ry
        Total length         44.9721 bohr
 

     total cpu time spent up to now is      795.1 secs

     total energy              =   -1774.49919639 Ry
     Harris-Foulkes estimate   =   -1774.50009486 Ry
     estimated scf accuracy    <       0.01743496 Ry

     iteration #  8     ecut=    36.75 Ry     beta=0.30
     Davidson diagonalization with overlap
     ethr =  4.01E-06,  avg # of iterations =  2.4

     negative rho (up, down):  1.508E-02 0.000E+00
 
     Adding external electric field

     Computed dipole along edir(3) : 
        Dipole                0.3776 Ry au,          0.9597 Debye
        Dipole field          0.0011 Ry au
 
        Potential amp.       -0.1026 Ry
        Total length         44.9721 bohr
 

     total cpu time spent up to now is      809.9 secs

     total energy              =   -1774.49930771 Ry
     Harris-Foulkes estimate   =   -1774.49953020 Ry
     estimated scf accuracy    <       0.00560879 Ry

     iteration #  9     ecut=    36.75 Ry     beta=0.30
     Davidson diagonalization with overlap
     ethr =  3.44E-06,  avg # of iterations =  3.4

     negative rho (up, down):  1.508E-02 0.000E+00
 
     Adding external electric field

     Computed dipole along edir(3) : 
        Dipole                0.3777 Ry au,          0.9601 Debye
        Dipole field          0.0011 Ry au
 
        Potential amp.       -0.1027 Ry
        Total length         44.9721 bohr
 

     total cpu time spent up to now is      825.4 secs

     total energy              =   -1774.49925657 Ry
     Harris-Foulkes estimate   =   -1774.49945156 Ry
     estimated scf accuracy    <       0.00232811 Ry

     iteration # 10     ecut=    36.75 Ry     beta=0.30
     Davidson diagonalization with overlap
     ethr =  1.43E-06,  avg # of iterations =  6.2

     negative rho (up, down):  1.509E-02 0.000E+00
 
     Adding external electric field

     Computed dipole along edir(3) : 
        Dipole                0.3786 Ry au,          0.9623 Debye
        Dipole field          0.0011 Ry au
 
        Potential amp.       -0.1029 Ry
        Total length         44.9721 bohr
 

     total cpu time spent up to now is      844.1 secs

     total energy              =   -1774.49954760 Ry
     Harris-Foulkes estimate   =   -1774.49958613 Ry
     estimated scf accuracy    <       0.00185650 Ry

     iteration # 11     ecut=    36.75 Ry     beta=0.30
     Davidson diagonalization with overlap
     ethr =  1.14E-06,  avg # of iterations =  1.9

     negative rho (up, down):  1.509E-02 0.000E+00
 
     Adding external electric field

     Computed dipole along edir(3) : 
        Dipole                0.3782 Ry au,          0.9613 Debye
        Dipole field          0.0011 Ry au
 
        Potential amp.       -0.1028 Ry
        Total length         44.9721 bohr
 

     total cpu time spent up to now is      859.1 secs

     total energy              =   -1774.49951710 Ry
     Harris-Foulkes estimate   =   -1774.49957952 Ry
     estimated scf accuracy    <       0.00159154 Ry

     iteration # 12     ecut=    36.75 Ry     beta=0.30
     Davidson diagonalization with overlap
     ethr =  9.76E-07,  avg # of iterations =  1.0

     negative rho (up, down):  1.509E-02 0.000E+00
 
     Adding external electric field

     Computed dipole along edir(3) : 
        Dipole                0.3761 Ry au,          0.9558 Debye
        Dipole field          0.0011 Ry au
 
        Potential amp.       -0.1022 Ry
        Total length         44.9721 bohr
 

     total cpu time spent up to now is      873.2 secs

     total energy              =   -1774.49950183 Ry
     Harris-Foulkes estimate   =   -1774.49954516 Ry
     estimated scf accuracy    <       0.00074023 Ry

     iteration # 13     ecut=    36.75 Ry     beta=0.30
     Davidson diagonalization with overlap
     ethr =  4.54E-07,  avg # of iterations =  3.5

     negative rho (up, down):  1.509E-02 0.000E+00
 
     Adding external electric field

     Computed dipole along edir(3) : 
        Dipole                0.3757 Ry au,          0.9549 Debye
        Dipole field          0.0011 Ry au
 
        Potential amp.       -0.1021 Ry
        Total length         44.9721 bohr
 

     total cpu time spent up to now is      888.6 secs

     total energy              =   -1774.49951267 Ry
     Harris-Foulkes estimate   =   -1774.49952280 Ry
     estimated scf accuracy    <       0.00021225 Ry

     iteration # 14     ecut=    36.75 Ry     beta=0.30
     Davidson diagonalization with overlap
     ethr =  1.30E-07,  avg # of iterations =  6.7

     negative rho (up, down):  1.509E-02 0.000E+00
 
     Adding external electric field

     Computed dipole along edir(3) : 
        Dipole                0.3746 Ry au,          0.9521 Debye
        Dipole field          0.0011 Ry au
 
        Potential amp.       -0.1018 Ry
        Total length         44.9721 bohr
 

     total cpu time spent up to now is      907.2 secs

     total energy              =   -1774.49953339 Ry
     Harris-Foulkes estimate   =   -1774.49953844 Ry
     estimated scf accuracy    <       0.00013040 Ry

     iteration # 15     ecut=    36.75 Ry     beta=0.30
     Davidson diagonalization with overlap
     ethr =  8.00E-08,  avg # of iterations =  1.4

     negative rho (up, down):  1.509E-02 0.000E+00
 
     Adding external electric field

     Computed dipole along edir(3) : 
        Dipole                0.3749 Ry au,          0.9528 Debye
        Dipole field          0.0011 Ry au
 
        Potential amp.       -0.1019 Ry
        Total length         44.9721 bohr
 

     total cpu time spent up to now is      921.7 secs

     total energy              =   -1774.49953084 Ry
     Harris-Foulkes estimate   =   -1774.49953570 Ry
     estimated scf accuracy    <       0.00010434 Ry

     iteration # 16     ecut=    36.75 Ry     beta=0.30
     Davidson diagonalization with overlap
     ethr =  6.40E-08,  avg # of iterations =  2.5

     negative rho (up, down):  1.509E-02 0.000E+00
 
     Adding external electric field

     Computed dipole along edir(3) : 
        Dipole                0.3748 Ry au,          0.9526 Debye
        Dipole field          0.0011 Ry au
 
        Potential amp.       -0.1019 Ry
        Total length         44.9721 bohr
 

     total cpu time spent up to now is      936.8 secs

     total energy              =   -1774.49953364 Ry
     Harris-Foulkes estimate   =   -1774.49953493 Ry
     estimated scf accuracy    <       0.00001579 Ry

     iteration # 17     ecut=    36.75 Ry     beta=0.30
     Davidson diagonalization with overlap
     ethr =  9.69E-09,  avg # of iterations =  8.0

     negative rho (up, down):  1.509E-02 0.000E+00
 
     Adding external electric field

     Computed dipole along edir(3) : 
        Dipole                0.3753 Ry au,          0.9540 Debye
        Dipole field          0.0011 Ry au
 
        Potential amp.       -0.1020 Ry
        Total length         44.9721 bohr
 

     total cpu time spent up to now is      957.2 secs

     total energy              =   -1774.49953444 Ry
     Harris-Foulkes estimate   =   -1774.49953449 Ry
     estimated scf accuracy    <       0.00001599 Ry

     iteration # 18     ecut=    36.75 Ry     beta=0.30
     Davidson diagonalization with overlap
     ethr =  9.69E-09,  avg # of iterations =  3.1

     negative rho (up, down):  1.509E-02 0.000E+00

     negative rho (up, down):  1.509E-02 0.000E+00

     negative rho (up, down):  1.509E-02 0.000E+00

     negative rho (up, down):  1.509E-02 0.000E+00

     negative rho (up, down):  1.509E-02 0.000E+00

     negative rho (up, down):  1.509E-02 0.000E+00

     negative rho (up, down):  1.509E-02 0.000E+00

     negative rho (up, down):  1.509E-02 0.000E+00

     negative rho (up, down):  1.509E-02 0.000E+00

     negative rho (up, down):  1.509E-02 0.000E+00

     negative rho (up, down):  1.509E-02 0.000E+00

     negative rho (up, down):  1.509E-02 0.000E+00

     negative rho (up, down):  1.509E-02 0.000E+00

     negative rho (up, down):  1.509E-02 0.000E+00

     negative rho (up, down):  1.509E-02 0.000E+00

     negative rho (up, down):  1.509E-02 0.000E+00

     negative rho (up, down):  1.509E-02 0.000E+00

     negative rho (up, down):  1.509E-02 0.000E+00

     negative rho (up, down):  1.509E-02 0.000E+00

     negative rho (up, down):  1.509E-02 0.000E+00

     negative rho (up, down):  1.509E-02 0.000E+00

     negative rho (up, down):  1.509E-02 0.000E+00

     negative rho (up, down):  1.509E-02 0.000E+00

     negative rho (up, down):  1.509E-02 0.000E+00

     negative rho (up, down):  1.509E-02 0.000E+00

     negative rho (up, down):  1.509E-02 0.000E+00

     negative rho (up, down):  1.509E-02 0.000E+00

     negative rho (up, down):  1.509E-02 0.000E+00

     negative rho (up, down):  1.509E-02 0.000E+00

     negative rho (up, down):  1.509E-02 0.000E+00

     negative rho (up, down):  1.509E-02 0.000E+00

     negative rho (up, down):  1.509E-02 0.000E+00

     negative rho (up, down):  1.509E-02 0.000E+00

     negative rho (up, down):  1.509E-02 0.000E+00

     negative rho (up, down):  1.509E-02 0.000E+00
 
     Adding external electric field

     Computed dipole along edir(3) : 
        Dipole                0.3779 Ry au,          0.9606 Debye
        Dipole field          0.0011 Ry au
 
        Potential amp.       -0.1027 Ry
        Total length         44.9721 bohr
 

     total cpu time spent up to now is     1014.4 secs

     End of self-consistent calculation

          k = 0.0000 0.0000 0.0000 ( 15569 PWs)   bands (ev):

   -62.4190 -62.3565 -62.3031 -62.2869 -62.2748 -62.2746 -62.2625 -62.2426
   -62.2420 -62.2129 -62.2127 -62.2123 -36.5153 -36.5030 -36.5028 -36.4743
   -36.4534 -36.4533 -36.4341 -36.3740 -36.3739 -36.3602 -36.2782 -36.1966
   -36.1448 -36.1446 -36.0849 -36.0849 -36.0845 -36.0147 -35.9986 -35.9984
   -35.9629 -35.9406 -35.9400 -35.9378 -35.9191 -35.9191 -35.9048 -35.8632
   -35.8631 -35.8617 -35.8322 -35.8321 -35.7867 -35.7866 -35.7409 -35.7409
   -12.5396  -5.6318  -4.0891  -2.5572  -1.8927  -1.8926  -1.5584  -1.1539
    -1.0830  -1.0828  -0.9199  -0.9198  -0.8819  -0.4753  -0.4753  -0.4448
    -0.3861  -0.3573  -0.3572   0.4350   0.6434   0.6435   1.3684   1.4360
     1.5773   1.5773   1.6901   1.7880   2.0324   2.0324   2.0887   2.1027
     2.1028   2.1885   2.1885   2.2722   2.2723   2.2745   2.3161   2.3161
     2.6654   2.7981   2.9555

          k = 0.0000 0.0356 0.0000 ( 15635 PWs)   bands (ev):

   -62.4107 -62.3501 -62.3044 -62.2852 -62.2802 -62.2749 -62.2632 -62.2472
   -62.2421 -62.2174 -62.2125 -62.2124 -36.5004 -36.4811 -36.4712 -36.4528
   -36.4335 -36.4273 -36.4123 -36.3528 -36.3467 -36.3286 -36.2754 -36.2003
   -36.1640 -36.1554 -36.0844 -36.0796 -36.0778 -36.0277 -36.0151 -35.9926
   -35.9789 -35.9729 -35.9387 -35.9258 -35.9251 -35.9130 -35.9129 -35.8856
   -35.8823 -35.8668 -35.8571 -35.8410 -35.8188 -35.7951 -35.7790 -35.7489
   -12.5360  -5.6067  -3.8879  -2.4170  -1.8952  -1.8914  -1.3424  -1.1683
    -1.0160  -0.9828  -0.9445  -0.8034  -0.7744  -0.3764  -0.3216  -0.3121
    -0.2588  -0.2147  -0.2144   0.4782   0.6530   0.6618   1.2895   1.4689
     1.6068   1.6221   1.6226   1.7504   1.7882   1.8675   1.9487   2.0211
     2.1224   2.1750   2.2042   2.2428   2.2434   2.2939   2.3206   2.4483
     2.4595   2.5923   2.6940

          k = 0.0000 0.0713 0.0000 ( 15669 PWs)   bands (ev):

   -62.3880 -62.3364 -62.3166 -62.2917 -62.2759 -62.2750 -62.2676 -62.2531
   -62.2422 -62.2298 -62.2126 -62.2124 -36.4686 -36.4266 -36.4135 -36.3895
   -36.3878 -36.3698 -36.3524 -36.3021 -36.2960 -36.2631 -36.2317 -36.2089
   -36.1867 -36.1835 -36.0853 -36.0739 -36.0658 -36.0579 -36.0452 -36.0275
   -36.0231 -35.9965 -35.9649 -35.9612 -35.9503 -35.9429 -35.9182 -35.9076
   -35.9052 -35.9013 -35.8990 -35.8709 -35.8539 -35.8308 -35.8172 -35.7705
   -12.5288  -5.5611  -3.3134  -2.2585  -1.8937  -1.6297  -1.6156  -0.9093
    -0.8043  -0.7216  -0.7164  -0.5262  -0.4989  -0.1868   0.0047   0.0048
     0.0856   0.1859   0.2138   0.5933   0.7020   0.7455   0.9835   1.2427
     1.2916   1.3735   1.4500   1.5226   1.6625   1.7741   1.7778   1.8131
     1.8528   1.9018   1.9434   2.0025   2.1468   2.2458   2.2637   2.3213
     2.4256   2.4652   2.4748

          k = 0.0000-0.1069 0.0000 ( 15660 PWs)   bands (ev):

   -62.3618 -62.3511 -62.3099 -62.2987 -62.2849 -62.2751 -62.2598 -62.2476
   -62.2458 -62.2422 -62.2127 -62.2123 -36.4486 -36.3868 -36.3783 -36.3689
   -36.3624 -36.3429 -36.2898 -36.2669 -36.2628 -36.2513 -36.2346 -36.2154
   -36.1356 -36.1271 -36.0976 -36.0909 -36.0820 -36.0793 -36.0704 -36.0552
   -36.0251 -36.0131 -36.0117 -36.0085 -36.0058 -36.0027 -35.9286 -35.9194
   -35.9157 -35.9046 -35.8930 -35.8827 -35.8648 -35.8405 -35.8019 -35.7984
   -12.5252  -5.5403  -2.5998  -2.4148  -2.1437  -1.8965  -1.1450  -1.0560
    -0.5035  -0.4980  -0.3961  -0.3880  -0.2961  -0.1947   0.2957   0.3074
     0.3927   0.4004   0.4811   0.5492   0.8845   0.9200   0.9337   0.9742
     1.0080   1.0572   1.2689   1.2996   1.4030   1.4734   1.4762   1.6171
     1.6829   1.7524   1.7926   1.8116   1.9647   2.0296   2.0689   2.0741
     2.2089   2.3401   2.5845

          k = 0.0309-0.0178 0.0000 ( 15635 PWs)   bands (ev):

   -62.4107 -62.3501 -62.3044 -62.2852 -62.2804 -62.2747 -62.2633 -62.2467
   -62.2426 -62.2173 -62.2129 -62.2121 -36.5005 -36.4809 -36.4713 -36.4528
   -36.4335 -36.4272 -36.4123 -36.3527 -36.3468 -36.3286 -36.2754 -36.2002
   -36.1642 -36.1553 -36.0841 -36.0798 -36.0779 -36.0277 -36.0149 -35.9928
   -35.9787 -35.9730 -35.9387 -35.9259 -35.9252 -35.9131 -35.9127 -35.8856
   -35.8825 -35.8666 -35.8569 -35.8412 -35.8189 -35.7950 -35.7790 -35.7489
   -12.5360  -5.6067  -3.8879  -2.4170  -1.8952  -1.8915  -1.3424  -1.1683
    -1.0161  -0.9827  -0.9445  -0.8034  -0.7744  -0.3764  -0.3215  -0.3122
    -0.2588  -0.2147  -0.2144   0.4782   0.6530   0.6618   1.2895   1.4689
     1.6067   1.6222   1.6226   1.7504   1.7882   1.8675   1.9488   2.0212
     2.1225   2.1750   2.2042   2.2427   2.2434   2.2939   2.3206   2.4482
     2.4595   2.5923   2.6941

          k = 0.0309 0.0178 0.0000 ( 15635 PWs)   bands (ev):

   -62.4107 -62.3501 -62.3044 -62.2852 -62.2803 -62.2748 -62.2632 -62.2472
   -62.2421 -62.2174 -62.2125 -62.2124 -36.5004 -36.4811 -36.4712 -36.4528
   -36.4335 -36.4273 -36.4123 -36.3529 -36.3467 -36.3286 -36.2754 -36.2002
   -36.1641 -36.1553 -36.0844 -36.0796 -36.0778 -36.0277 -36.0151 -35.9926
   -35.9789 -35.9729 -35.9387 -35.9258 -35.9251 -35.9130 -35.9128 -35.8857
   -35.8822 -35.8668 -35.8571 -35.8410 -35.8188 -35.7951 -35.7790 -35.7489
   -12.5360  -5.6067  -3.8879  -2.4170  -1.8952  -1.8915  -1.3424  -1.1683
[...]

   -62.6079 -62.5546 -62.4846 -62.4708 -62.4552 -62.4317 -62.4282 -62.4189
   -62.4097 -62.3972 -62.3937 -62.3883 -36.6808 -36.6535 -36.6361 -36.6273
   -36.6038 -36.5678 -36.5575 -36.5022 -36.4968 -36.4563 -36.4526 -36.3840
   -36.3619 -36.3575 -36.2741 -36.2610 -36.2398 -36.2178 -36.2059 -36.1949
   -36.1763 -36.1596 -36.1337 -36.1168 -36.1028 -36.0940 -36.0876 -36.0760
   -36.0498 -36.0467 -36.0386 -36.0265 -36.0241 -35.9910 -35.9725 -35.9450
   -12.2544  -5.2960  -3.6963  -2.1920  -1.4722  -1.4374  -1.3801  -1.3231
    -1.1512  -1.0453  -0.9974  -0.8966  -0.6262  -0.3945  -0.3535  -0.2785
    -0.1833  -0.1356  -0.0652   0.3482   0.4997   0.5593   0.9677   0.9999
     1.1851   1.2106   1.2901   1.3785   1.4621   1.5952   1.6266   1.6957
     1.7579   1.8136   1.8374   1.8799   1.9948   2.0494   2.0709   2.1956
     2.2277   2.2889   2.3316

          k = 0.0617-0.0356 0.0000 ( 15669 PWs)   bands (ev):

   -62.6052 -62.5497 -62.4882 -62.4734 -62.4462 -62.4391 -62.4301 -62.4192
   -62.4076 -62.4014 -62.3913 -62.3896 -36.6755 -36.6345 -36.6332 -36.6175
   -36.5827 -36.5566 -36.5388 -36.4921 -36.4759 -36.4670 -36.4075 -36.3855
   -36.3769 -36.3587 -36.2747 -36.2552 -36.2363 -36.2299 -36.2094 -36.1931
   -36.1876 -36.1781 -36.1543 -36.1249 -36.1242 -36.1125 -36.0805 -36.0774
   -36.0657 -36.0580 -36.0449 -36.0404 -36.0059 -35.9993 -35.9803 -35.9449
   -12.2529  -5.2858  -3.5057  -2.0524  -1.8134  -1.4631  -1.3197  -1.1188
    -1.0304  -0.9594  -0.8814  -0.7333  -0.7057  -0.3879  -0.2375  -0.2058
    -0.1008  -0.0466   0.0877   0.3801   0.5308   0.5671   0.8052   0.9436
     1.0970   1.1142   1.1548   1.3668   1.4455   1.4811   1.5472   1.6367
     1.6830   1.7370   1.7718   1.8831   1.9054   2.0206   2.0658   2.1123
     2.1508   2.1668   2.3721

          k = 0.0617 0.0000 0.0000 ( 15620 PWs)   bands (ev):

   -62.6079 -62.5546 -62.4846 -62.4708 -62.4552 -62.4317 -62.4282 -62.4189
   -62.4097 -62.3972 -62.3937 -62.3883 -36.6808 -36.6535 -36.6361 -36.6273
   -36.6039 -36.5677 -36.5575 -36.5022 -36.4968 -36.4563 -36.4526 -36.3840
   -36.3619 -36.3575 -36.2741 -36.2610 -36.2398 -36.2178 -36.2059 -36.1949
   -36.1763 -36.1596 -36.1337 -36.1168 -36.1028 -36.0940 -36.0876 -36.0759
   -36.0498 -36.0467 -36.0386 -36.0265 -36.0241 -35.9910 -35.9725 -35.9450
   -12.2544  -5.2960  -3.6963  -2.1920  -1.4722  -1.4374  -1.3801  -1.3230
    -1.1512  -1.0453  -0.9974  -0.8966  -0.6263  -0.3945  -0.3535  -0.2785
    -0.1833  -0.1356  -0.0652   0.3482   0.4997   0.5593   0.9677   0.9999
     1.1851   1.2106   1.2901   1.3785   1.4621   1.5952   1.6266   1.6957
     1.7579   1.8136   1.8374   1.8799   1.9947   2.0494   2.0709   2.1956
     2.2277   2.2889   2.3316

          k = 0.0617 0.0356 0.0000 ( 15669 PWs)   bands (ev):

   -62.6052 -62.5497 -62.4881 -62.4734 -62.4461 -62.4391 -62.4300 -62.4193
   -62.4075 -62.4015 -62.3913 -62.3896 -36.6755 -36.6345 -36.6332 -36.6175
   -36.5827 -36.5566 -36.5387 -36.4921 -36.4759 -36.4669 -36.4075 -36.3855
   -36.3769 -36.3587 -36.2747 -36.2553 -36.2362 -36.2298 -36.2095 -36.1932
   -36.1875 -36.1781 -36.1543 -36.1248 -36.1241 -36.1124 -36.0805 -36.0774
   -36.0659 -36.0580 -36.0449 -36.0403 -36.0060 -35.9993 -35.9802 -35.9449
   -12.2529  -5.2858  -3.5057  -2.0523  -1.8134  -1.4630  -1.3199  -1.1188
    -1.0304  -0.9595  -0.8814  -0.7333  -0.7057  -0.3879  -0.2376  -0.2057
    -0.1009  -0.0467   0.0878   0.3802   0.5307   0.5671   0.8053   0.9436
     1.0968   1.1142   1.1548   1.3668   1.4453   1.4808   1.5474   1.6367
     1.6830   1.7371   1.7718   1.8837   1.9054   2.0205   2.0659   2.1123
     2.1506   2.1669   2.3721

          k = 0.0617-0.1426 0.0000 ( 15642 PWs)   bands (ev):

   -62.6003 -62.5346 -62.4982 -62.4719 -62.4571 -62.4367 -62.4243 -62.4197
   -62.4118 -62.4035 -62.3962 -62.3870 -36.6666 -36.6097 -36.5999 -36.5853
   -36.5401 -36.5220 -36.5032 -36.4704 -36.4525 -36.4226 -36.4101 -36.3881
   -36.3658 -36.3327 -36.3082 -36.2933 -36.2683 -36.2445 -36.2194 -36.2056
   -36.1945 -36.1821 -36.1719 -36.1566 -36.1397 -36.1298 -36.1136 -36.0863
   -36.0799 -36.0667 -36.0398 -36.0320 -36.0168 -36.0066 -35.9959 -35.9728
   -12.2498  -5.2676  -2.9585  -2.0776  -1.7054  -1.3911  -1.3520  -1.3127
    -1.0270  -0.7750  -0.6260  -0.5600  -0.3091  -0.2158  -0.0418   0.0038
     0.0567   0.1862   0.2895   0.4401   0.5470   0.5881   0.6502   0.7659
     0.8232   0.8847   0.9742   1.0789   1.1515   1.2049   1.3175   1.3729
     1.4581   1.5054   1.5827   1.6110   1.7549   1.8614   1.9750   2.0688
     2.1782   2.2572   2.4857

          k = 0.0617-0.1069 0.0000 ( 15672 PWs)   bands (ev):

   -62.5982 -62.5134 -62.5122 -62.4835 -62.4450 -62.4444 -62.4296 -62.4121
   -62.4066 -62.4059 -62.4053 -62.3854 -36.6634 -36.5917 -36.5775 -36.5553
   -36.5107 -36.4966 -36.4914 -36.4830 -36.4604 -36.3818 -36.3814 -36.3760
   -36.3405 -36.3399 -36.3385 -36.3013 -36.2942 -36.2904 -36.2692 -36.2146
   -36.1992 -36.1878 -36.1843 -36.1494 -36.1354 -36.1332 -36.1010 -36.0702
   -36.0693 -36.0610 -36.0470 -36.0458 -36.0451 -36.0085 -36.0074 -35.9976
   -12.2483  -5.2593  -2.1839  -2.1762  -2.1050  -1.5014  -1.5003  -0.9749
    -0.9357  -0.9353  -0.3753  -0.1577  -0.0897  -0.0793  -0.0410  -0.0024
     0.2082   0.3762   0.3881   0.4280   0.4314   0.5011   0.5968   0.6078
     0.6959   0.8034   0.8172   1.0213   1.0273   1.0577   1.0897   1.1583
     1.2775   1.3067   1.4025   1.4665   1.5411   1.8942   2.1496   2.1860
     2.2173   2.3091   2.4430

          k = 0.0617-0.0713 0.0000 ( 15642 PWs)   bands (ev):

   -62.6003 -62.5346 -62.4982 -62.4719 -62.4571 -62.4367 -62.4244 -62.4196
   -62.4118 -62.4035 -62.3962 -62.3870 -36.6666 -36.6097 -36.5999 -36.5852
   -36.5401 -36.5219 -36.5032 -36.4704 -36.4525 -36.4226 -36.4101 -36.3881
   -36.3658 -36.3327 -36.3082 -36.2933 -36.2683 -36.2445 -36.2194 -36.2056
   -36.1943 -36.1821 -36.1720 -36.1566 -36.1398 -36.1297 -36.1136 -36.0863
   -36.0799 -36.0667 -36.0397 -36.0319 -36.0168 -36.0066 -35.9959 -35.9729
   -12.2498  -5.2676  -2.9585  -2.0776  -1.7056  -1.3910  -1.3520  -1.3127
    -1.0269  -0.7749  -0.6260  -0.5598  -0.3090  -0.2158  -0.0416   0.0039
     0.0566   0.1863   0.2894   0.4401   0.5470   0.5880   0.6502   0.7660
     0.8233   0.8848   0.9743   1.0791   1.1513   1.2050   1.3175   1.3729
     1.4579   1.5055   1.5827   1.6108   1.7548   1.8611   1.9748   2.0689
     2.1782   2.2573   2.4856

          k =-0.0926 0.0535 0.0000 ( 15660 PWs)   bands (ev):

   -62.6000 -62.5321 -62.5085 -62.4579 -62.4530 -62.4463 -62.4302 -62.4141
   -62.4105 -62.4076 -62.3916 -62.3895 -36.6656 -36.6082 -36.5998 -36.5975
   -36.5460 -36.5253 -36.4926 -36.4531 -36.4509 -36.4413 -36.4194 -36.4102
   -36.3324 -36.3182 -36.2791 -36.2574 -36.2477 -36.2454 -36.2389 -36.2176
   -36.2106 -36.1870 -36.1791 -36.1650 -36.1639 -36.1546 -36.1144 -36.1065
   -36.0751 -36.0634 -36.0310 -36.0240 -36.0181 -36.0108 -35.9782 -35.9645
   -12.2498  -5.2671  -2.6920  -2.6095  -1.7125  -1.3047  -1.3017  -1.2341
    -0.7500  -0.6656  -0.6519  -0.5874  -0.5124  -0.4226   0.0259   0.0287
     0.0978   0.2487   0.2743   0.3630   0.6149   0.6404   0.7563   0.7721
     0.7914   0.8187   0.9373   1.1359   1.2490   1.2633   1.3218   1.3930
     1.3990   1.5095   1.5681   1.6304   1.7496   1.8599   1.8859   2.0132
     2.1571   2.2369   2.4742

          k =-0.0926 0.0891 0.0000 ( 15642 PWs)   bands (ev):

   -62.6003 -62.5346 -62.4982 -62.4719 -62.4571 -62.4367 -62.4244 -62.4197
   -62.4118 -62.4035 -62.3962 -62.3870 -36.6666 -36.6097 -36.5999 -36.5852
   -36.5401 -36.5219 -36.5032 -36.4704 -36.4525 -36.4226 -36.4101 -36.3881
   -36.3658 -36.3327 -36.3082 -36.2933 -36.2683 -36.2445 -36.2194 -36.2056
   -36.1943 -36.1821 -36.1720 -36.1566 -36.1398 -36.1297 -36.1136 -36.0863
   -36.0799 -36.0667 -36.0397 -36.0319 -36.0168 -36.0066 -35.9959 -35.9729
   -12.2498  -5.2676  -2.9585  -2.0776  -1.7056  -1.3910  -1.3520  -1.3127
    -1.0269  -0.7749  -0.6260  -0.5598  -0.3090  -0.2158  -0.0416   0.0039
     0.0566   0.1863   0.2894   0.4401   0.5470   0.5880   0.6502   0.7660
     0.8233   0.8848   0.9743   1.0791   1.1513   1.2050   1.3175   1.3730
     1.4579   1.5055   1.5827   1.6108   1.7548   1.8612   1.9748   2.0689
     2.1782   2.2573   2.4856

          k =-0.0926 0.1248 0.0000 ( 15642 PWs)   bands (ev):

   -62.6003 -62.5346 -62.4982 -62.4719 -62.4570 -62.4368 -62.4243 -62.4197
   -62.4117 -62.4036 -62.3962 -62.3870 -36.6666 -36.6097 -36.5999 -36.5853
   -36.5401 -36.5220 -36.5032 -36.4704 -36.4525 -36.4226 -36.4101 -36.3881
   -36.3658 -36.3326 -36.3082 -36.2933 -36.2683 -36.2445 -36.2194 -36.2056
   -36.1944 -36.1821 -36.1719 -36.1565 -36.1398 -36.1298 -36.1135 -36.0863
   -36.0799 -36.0668 -36.0398 -36.0319 -36.0170 -36.0066 -35.9959 -35.9728
   -12.2498  -5.2676  -2.9585  -2.0776  -1.7055  -1.3910  -1.3520  -1.3128
    -1.0269  -0.7749  -0.6261  -0.5599  -0.3090  -0.2159  -0.0418   0.0038
     0.0567   0.1862   0.2895   0.4401   0.5470   0.5881   0.6502   0.7659
     0.8233   0.8847   0.9742   1.0788   1.1515   1.2050   1.3175   1.3729
     1.4581   1.5054   1.5827   1.6110   1.7548   1.8614   1.9749   2.0689
     2.1783   2.2571   2.4856

          k =-0.0926-0.0535 0.0000 ( 15660 PWs)   bands (ev):

   -62.6000 -62.5320 -62.5085 -62.4578 -62.4531 -62.4463 -62.4302 -62.4140
   -62.4107 -62.4075 -62.3917 -62.3895 -36.6656 -36.6082 -36.5998 -36.5975
   -36.5460 -36.5254 -36.4926 -36.4531 -36.4510 -36.4413 -36.4194 -36.4102
   -36.3325 -36.3182 -36.2790 -36.2576 -36.2476 -36.2454 -36.2389 -36.2176
   -36.2105 -36.1871 -36.1791 -36.1650 -36.1638 -36.1546 -36.1144 -36.1065
   -36.0752 -36.0633 -36.0312 -36.0241 -36.0180 -36.0107 -35.9782 -35.9644
   -12.2498  -5.2671  -2.6920  -2.6095  -1.7124  -1.3049  -1.3017  -1.2342
    -0.7499  -0.6657  -0.6519  -0.5874  -0.5126  -0.4227   0.0257   0.0288
     0.0979   0.2485   0.2744   0.3630   0.6151   0.6404   0.7561   0.7720
     0.7913   0.8187   0.9372   1.1357   1.2488   1.2635   1.3218   1.3929
     1.3991   1.5101   1.5680   1.6304   1.7502   1.8598   1.8859   2.0132
     2.1573   2.2366   2.4742

     the Fermi energy is     1.7007 ev

!    total energy              =   -1774.51965122 Ry
     Harris-Foulkes estimate   =   -1774.51965132 Ry
     estimated scf accuracy    <       0.00000002 Ry

     The total energy is the sum of the following terms:

     one-electron contribution =  -15168.83660415 Ry
     hartree contribution      =    7577.13961345 Ry
     xc contribution           =    -253.85590974 Ry
     ewald contribution        =    6071.17473664 Ry
     electric field correction =       0.00024608 Ry
     smearing contrib. (-TS)   =      -0.14173350 Ry

     convergence has been achieved in  16 iterations
 
 BEEF-vdW xc energy contributions
           1 :   -218.579716533481     
           2 :    195.889382709238     
           3 :   -158.457374386216     
           4 :    118.041494715071     
           5 :   -84.8322434100288     
           6 :    63.7044336171162     
           7 :   -53.5817501767020     
           8 :    49.6341967245271     
           9 :   -46.6753687085355     
          10 :    41.7940109138101     
          11 :   -35.0688390778286     
          12 :    28.4612317115074     
          13 :   -23.9481956980670     
          14 :    22.1337455985370     
          15 :   -22.0525228438933     
          16 :    22.0340355705643     
          17 :   -20.8855435221887     
          18 :    18.5721266135219     
          19 :   -16.0250335922019     
          20 :    14.3278906306465     
          21 :   -13.9186346435330     
          22 :    14.3468306862741     
          23 :   -14.6800916758090     
          24 :    14.1952463124326     
          25 :   -12.8474973755613     
          26 :    11.2243801944705     
          27 :   -10.0766955307211     
          28 :    9.78732813181719     
          29 :   -10.1420757565712     
          30 :    10.5261911903202     
          31 :   -22.7975055516804     
          32 :   -16.3873050143082     

     Forces acting on atoms (Ry/au):


     negative rho (up, down):  1.498E-02 0.000E+00
     atom    1 type  1   force =    -0.00088456   -0.00051223    0.00223577
     atom    2 type  1   force =     0.00088302   -0.00050640    0.00223455
     atom    3 type  1   force =     0.00000474    0.00102040    0.00223280
     atom    4 type  1   force =    -0.00000451   -0.00000172    0.00040527
     atom    5 type  1   force =    -0.00002420   -0.01579803    0.00290169
     atom    6 type  1   force =     0.00002520   -0.00001788   -0.01896519
     atom    7 type  1   force =     0.01366596    0.00792424    0.00290514
     atom    8 type  1   force =    -0.01367427    0.00789698    0.00294060
     atom    9 type  1   force =     0.00000411   -0.00000123    0.00174393
     atom   10 type  1   force =    -0.00000313    0.00158443    0.00063036
     atom   11 type  1   force =     0.00137846   -0.00079807    0.00062912
     atom   12 type  1   force =    -0.00136975   -0.00079250    0.00062259
     atom   13 type  2   force =    -0.00000088    0.00000605    0.00091882
     atom   14 type  3   force =    -0.00000017   -0.00000404   -0.00143544

     Total force =     0.003831     Total SCF correction =     0.000197


     entering subroutine stress ...


     negative rho (up, down):  1.498E-02 0.000E+00
          total   stress  (Ry/bohr**3)                   (kbar)     P=  -13.44
  -0.00013176   0.00000001   0.00000001        -19.38      0.00      0.00
   0.00000001  -0.00013174  -0.00000001          0.00    -19.38     -0.00
   0.00000001  -0.00000001  -0.00001064          0.00     -0.00     -1.57


     bfgs converged in  17 scf cycles and  16 bfgs steps
     (criteria: energy <  1.0E+00, force <  1.9E-03)

     End of BFGS Geometry Optimization

     Final energy   =   -1774.5196512205 Ry
Begin final coordinates

ATOMIC_POSITIONS (crystal)
V1       0.166666667   0.166666667   0.409694847    0   0   0
V1       0.666666667   0.166666667   0.409694847    0   0   0
V1       0.166666667   0.666666667   0.409694847    0   0   0
V1       0.666666667   0.666666667   0.409694847    0   0   0
V1       0.833333333   0.333333333   0.500000000    0   0   0
V1       0.333333333   0.333333333   0.500000000    0   0   0
V1       0.833333333   0.833333333   0.500000000    0   0   0
V1       0.333333333   0.833333333   0.500000000    0   0   0
V1       0.000007053  -0.000005213   0.601810600
V1       0.500583877  -0.001166378   0.584116886
V1      -0.001124675   0.500567020   0.584094429
V1       0.500586923   0.500576595   0.584115487
S1      -0.000002732   0.000012440   0.691249240
H1       0.000003414  -0.000007963   0.746376736
End final coordinates



     Writing output data file calc.save
 
     init_run     :      8.93s CPU      9.23s WALL (       1 calls)
     electrons    :   7024.93s CPU   7589.48s WALL (      17 calls)
     update_pot   :     43.72s CPU     46.77s WALL (      16 calls)
     forces       :    222.70s CPU    237.50s WALL (      17 calls)
     stress       :    689.50s CPU    739.33s WALL (      17 calls)

     Called by init_run:
     wfcinit      :      2.99s CPU      3.06s WALL (       1 calls)
     potinit      :      1.71s CPU      1.84s WALL (       1 calls)

     Called by electrons:
     c_bands      :   3000.93s CPU   3208.31s WALL (     362 calls)
     sum_band     :   1455.10s CPU   1574.25s WALL (     362 calls)
     v_of_rho     :    471.07s CPU    510.04s WALL (     379 calls)
     newd         :   1250.98s CPU   1274.37s WALL (     379 calls)
     mix_rho      :     18.24s CPU     18.83s WALL (     362 calls)
     vdW_energy   :    187.27s CPU    205.31s WALL (     991 calls)
     vdW_ffts     :    407.34s CPU    434.54s WALL (    2016 calls)
     vdW_v        :    162.21s CPU    168.48s WALL (     991 calls)

     Called by c_bands:
     init_us_2    :     17.55s CPU     17.65s WALL (    3795 calls)
     cegterg      :   2594.63s CPU   2649.82s WALL (    1810 calls)

     Called by *egterg:
     h_psi        :   1552.85s CPU   1595.04s WALL (    9832 calls)
     s_psi        :    168.03s CPU    168.41s WALL (    9832 calls)
     g_psi        :     10.36s CPU     10.38s WALL (    8017 calls)
     cdiaghg      :    351.47s CPU    353.85s WALL (    9747 calls)

     Called by h_psi:
     add_vuspsi   :    173.01s CPU    173.55s WALL (    9832 calls)

     General routines
     calbec       :    262.01s CPU    266.47s WALL (   11812 calls)
     fft          :    632.58s CPU    692.21s WALL (   60781 calls)
     ffts         :      1.10s CPU      1.19s WALL (     741 calls)
     fftw         :    924.35s CPU    967.30s WALL (  996760 calls)
     interpolate  :      9.69s CPU     10.06s WALL (     741 calls)
     davcio       :      0.00s CPU      0.03s WALL (       5 calls)
 
     Parallel routines
     fft_scatter  :    909.93s CPU   1008.29s WALL ( 1058282 calls)
 
     PWSCF        :     2h14m CPU        2h24m WALL

 
   This run was terminated on:  13:19:48  24Apr2018            

=------------------------------------------------------------------------------=
   JOB DONE.
=------------------------------------------------------------------------------=
Job  /afs/slac/g/suncat/bin/suncat-tsmpirun -x LD_LIBRARY_PATH -wdir /scratch/qe747578_P65Ob pw.x -npool 4 -in pw.inp

TID   HOST_NAME   COMMAND_LINE            STATUS            TERMINATION_TIME
===== ========== ================  =======================  ===================
00000 suncat0074 pw.x -npool 4 -i  Done                     04/24/2018 13:19:48
00001 suncat0074 pw.x -npool 4 -i  Done                     04/24/2018 13:19:48
00002 suncat0074 pw.x -npool 4 -i  Done                     04/24/2018 13:19:48
00003 suncat0074 pw.x -npool 4 -i  Done                     04/24/2018 13:19:48
00004 suncat0074 pw.x -npool 4 -i  Done                     04/24/2018 13:19:48
00005 suncat0074 pw.x -npool 4 -i  Done                     04/24/2018 13:19:48
00006 suncat0074 pw.x -npool 4 -i  Done                     04/24/2018 13:19:48
00007 suncat0074 pw.x -npool 4 -i  Done                     04/24/2018 13:19:48
00008 suncat0063 pw.x -npool 4 -i  Done                     04/24/2018 13:19:48
00009 suncat0063 pw.x -npool 4 -i  Done                     04/24/2018 13:19:48
00010 suncat0063 pw.x -npool 4 -i  Done                     04/24/2018 13:19:48
00011 suncat0063 pw.x -npool 4 -i  Done                     04/24/2018 13:19:48
00012 suncat0063 pw.x -npool 4 -i  Done                     04/24/2018 13:19:48
00013 suncat0063 pw.x -npool 4 -i  Done                     04/24/2018 13:19:48
00014 suncat0063 pw.x -npool 4 -i  Done                     04/24/2018 13:19:48
00015 suncat0063 pw.x -npool 4 -i  Done                     04/24/2018 13:19:48
00016 suncat0018 pw.x -npool 4 -i  Done                     04/24/2018 13:19:48
00017 suncat0018 pw.x -npool 4 -i  Done                     04/24/2018 13:19:48
00018 suncat0018 pw.x -npool 4 -i  Done                     04/24/2018 13:19:48
00019 suncat0018 pw.x -npool 4 -i  Done                     04/24/2018 13:19:48
00020 suncat0018 pw.x -npool 4 -i  Done                     04/24/2018 13:19:48
00021 suncat0018 pw.x -npool 4 -i  Done                     04/24/2018 13:19:48
00022 suncat0018 pw.x -npool 4 -i  Done                     04/24/2018 13:19:48
00023 suncat0018 pw.x -npool 4 -i  Done                     04/24/2018 13:19:48
00024 suncat0125 pw.x -npool 4 -i  Done                     04/24/2018 13:19:48
00025 suncat0125 pw.x -npool 4 -i  Done                     04/24/2018 13:19:48
00026 suncat0125 pw.x -npool 4 -i  Done                     04/24/2018 13:19:48
00027 suncat0125 pw.x -npool 4 -i  Done                     04/24/2018 13:19:48
00028 suncat0125 pw.x -npool 4 -i  Done                     04/24/2018 13:19:48
00029 suncat0125 pw.x -npool 4 -i  Done                     04/24/2018 13:19:48
00030 suncat0125 pw.x -npool 4 -i  Done                     04/24/2018 13:19:48
00031 suncat0125 pw.x -npool 4 -i  Done                     04/24/2018 13:19:48
