  python dir          : /nfs/slac/g/suncatfs/sw/espv20/lib/python2.7/site-packages/espresso
  espresso dir        : /nfs/slac/g/suncatfs/sw/espv18/espresso-dynpy-beef/bin
  pseudo dir          : /afs/slac.stanford.edu/u/if/mamunm/psp/gbrv1.5pbe
  ase-espresso py git : ffa2778-git



     Program PWSCF v.5.1rc2 (svn rev. 11289) starts on 14Jan2018 at 19:40:46 

     This program is part of the open-source Quantum ESPRESSO suite
     for quantum simulation of materials; please cite
         "P. Giannozzi et al., J. Phys.:Condens. Matter 21 395502 (2009);
          URL http://www.quantum-espresso.org", 
     in publications or presentations arising from this work. More details at
     http://www.quantum-espresso.org/quote

     Parallel version (MPI), running on    32 processors
     R & G space division:  proc/nbgrp/npool/nimage =      32
     Reading input from pw.inp
     Message from routine read_cards :
     DEPRECATED: no units specified in CELL_PARAMETERS card

     Current dimensions of program PWSCF are:
     Max number of different atomic species (ntypx) = 10
     Max number of k-points (npk) =  40000
     Max angular momentum in pseudopotentials (lmaxx) =  3
     Presently stress not available with electric field


     **************************************************************************
     Initializing libbeef V0.1.1 with the BEEF-vdW functional.
     Citation: Wellendorff et al., PRB 85, 235149 (2012).
     **************************************************************************


     IMPORTANT: XC functional enforced from input :
     Exchange-correlation      = BEEF-VDW ( 1  4 27 13 2)
     Any further DFT definition will be discarded
     Please, verify this is what you really want


     Subspace diagonalization in iterative solution of the eigenvalue problem:
     a serial algorithm will be used

 
     Parallelization info
     --------------------
     sticks:   dense  smooth     PW     G-vecs:    dense   smooth      PW
     Min          89      35     10                16921     4265     672
     Max          90      36     12                16938     4304     683
     Sum        2869    1147    337               541807   137189   21637
 


     bravais-lattice index     =            0
     lattice parameter (alat)  =       1.8897  a.u.
     unit-cell volume          =    4552.2840 (a.u.)^3
     number of atoms/cell      =           13
     number of atomic types    =            2
     number of electrons       =       173.00
     number of Kohn-Sham states=           96
     kinetic-energy cutoff     =      36.7493  Ry
     charge density cutoff     =     367.4932  Ry
     convergence threshold     =      1.0E-05
     mixing beta               =       0.3000
     number of iterations used =           10  plain     mixing
     Exchange-correlation      = BEEF-VDW ( 1  4 27 13 2)
     nstep                     =           50


     celldm(1)=   1.889726  celldm(2)=   0.000000  celldm(3)=   0.000000
     celldm(4)=   0.000000  celldm(5)=   0.000000  celldm(6)=   0.000000

     crystal axes: (cart. coord. in units of alat)
               a(1) = (   5.627661   0.000000   0.000000 )  
               a(2) = (   2.813831   4.873698   0.000000 )  
               a(3) = (   0.000000   0.000000  24.594966 )  

     reciprocal axes: (cart. coord. in units 2 pi/alat)
               b(1) = (  0.177694 -0.102592  0.000000 )  
               b(2) = (  0.000000  0.205183  0.000000 )  
               b(3) = (  0.000000  0.000000  0.040659 )  


     PseudoPot. # 1 for Mo read from file:
     /afs/slac.stanford.edu/u/if/mamunm/psp/gbrv1.5pbe/Mo.UPF
     MD5 check sum: 30c4dcd161f5d35cd49bb5239c51a633
     Pseudo is Ultrasoft + core correction, Zval = 14.0
     Generated by new atomic code, or converted to UPF format
     Using radial grid of  889 points,  6 beta functions with: 
                l(1) =   0
                l(2) =   0
                l(3) =   1
                l(4) =   1
                l(5) =   2
                l(6) =   2
     Q(r) pseudized with  6 coefficients,  rinner =    1.000   1.000   1.000
                                                       1.000   1.000

     PseudoPot. # 2 for N  read from file:
     /afs/slac.stanford.edu/u/if/mamunm/psp/gbrv1.5pbe/N.UPF
     MD5 check sum: 95339753478d7afb44899504a8723017
     Pseudo is Ultrasoft + core correction, Zval =  5.0
     Generated by new atomic code, or converted to UPF format
     Using radial grid of  729 points,  4 beta functions with: 
                l(1) =   0
                l(2) =   0
                l(3) =   1
                l(4) =   1
     Q(r) pseudized with  8 coefficients,  rinner =    0.900   0.900   0.900


     vdW kernel table read from file vdW_kernel_table
     MD5 check sum: 095c7af220d748ca6e76c0b4c6cfb241

     atomic species   valence    mass     pseudopotential
        Mo1           14.00    95.95000     Mo( 1.00)
        N1             5.00    14.00700     N ( 1.00)

     No symmetry found



   Cartesian axes

     site n.     atom                  positions (alat units)
         1           Mo1 tau(   1) = (   1.4069153   0.8122829  10.0000000  )
         2           Mo1 tau(   2) = (   4.2207459   0.8122829  10.0000000  )
         3           Mo1 tau(   3) = (   2.8138306   3.2491317  10.0000000  )
         4           Mo1 tau(   4) = (   5.6276612   3.2491317  10.0000000  )
         5           Mo1 tau(   5) = (   5.6276612   1.6245658  12.2974831  )
         6           Mo1 tau(   6) = (   2.8138306   1.6245658  12.2974831  )
         7           Mo1 tau(   7) = (   7.0345765   4.0614146  12.2974831  )
         8           Mo1 tau(   8) = (   4.2207459   4.0614146  12.2974831  )
         9           Mo1 tau(   9) = (   0.0000000   0.0000000  14.5949661  )
        10           Mo1 tau(  10) = (   2.8138306   0.0000000  14.5949661  )
        11           Mo1 tau(  11) = (   1.4069153   2.4368488  14.5949661  )
        12           Mo1 tau(  12) = (   4.2207459   2.4368488  14.5949661  )
        13           N1  tau(  13) = (   0.0000000   0.0000000  16.8449661  )

     number of k points=    20  Fermi-Dirac smearing, width (Ry)=  0.0110
                       cart. coord. in units 2pi/alat
        k(    1) = (   0.0000000   0.0000000   0.0000000), wk =   0.0555556
        k(    2) = (   0.0000000   0.0341972   0.0000000), wk =   0.1111111
        k(    3) = (   0.0000000   0.0683943   0.0000000), wk =   0.1111111
        k(    4) = (   0.0000000  -0.1025915   0.0000000), wk =   0.0555556
        k(    5) = (   0.0296156  -0.0170986   0.0000000), wk =   0.1111111
        k(    6) = (   0.0296156   0.0170986   0.0000000), wk =   0.1111111
        k(    7) = (   0.0296156   0.0512958   0.0000000), wk =   0.1111111
        k(    8) = (   0.0296156  -0.1196901   0.0000000), wk =   0.1111111
        k(    9) = (   0.0296156  -0.0854929   0.0000000), wk =   0.1111111
        k(   10) = (   0.0296156  -0.0512958   0.0000000), wk =   0.1111111
        k(   11) = (   0.0592312  -0.0341972   0.0000000), wk =   0.1111111
        k(   12) = (   0.0592312   0.0000000   0.0000000), wk =   0.1111111
        k(   13) = (   0.0592312   0.0341972   0.0000000), wk =   0.1111111
        k(   14) = (   0.0592312  -0.1367887   0.0000000), wk =   0.1111111
        k(   15) = (   0.0592312  -0.1025915   0.0000000), wk =   0.1111111
        k(   16) = (   0.0592312  -0.0683943   0.0000000), wk =   0.1111111
        k(   17) = (  -0.0888469   0.0512958   0.0000000), wk =   0.0555556
        k(   18) = (  -0.0888469   0.0854929   0.0000000), wk =   0.1111111
        k(   19) = (  -0.0888469   0.1196901   0.0000000), wk =   0.1111111
        k(   20) = (  -0.0888469  -0.0512958   0.0000000), wk =   0.0555556

     Dense  grid:   541807 G-vectors     FFT dimensions: (  72,  72, 288)

     Smooth grid:   137189 G-vectors     FFT dimensions: (  45,  45, 180)

     Largest allocated arrays     est. size (Mb)     dimensions
        Kohn-Sham Wavefunctions         0.83 Mb     (     564,   96)
        NL pseudopotentials             1.93 Mb     (     564,  224)
        Each V/rho on FFT grid          0.71 Mb     (   46656)
        Each G-vector array             0.13 Mb     (   16923)
        G-vector shells                 0.06 Mb     (    7559)
     Largest temporary arrays     est. size (Mb)     dimensions
        Auxiliary wavefunctions         3.30 Mb     (     564,  384)
        Each subspace H/S matrix        2.25 Mb     (     384,  384)
        Each <psi_i|beta_j> matrix      0.33 Mb     (     224,   96)
        Arrays for rho mixing           7.12 Mb     (   46656,   10)

     Initial potential from superposition of free atoms
     Check: negative starting charge=   -0.004867

     starting charge  172.98723, renormalised to  173.00000

     negative rho (up, down):  4.867E-03 0.000E+00


     ************************************************************************
     *
     * You are using vdW-DF for exchange-correlation in this calculation.
     * Please cite the following three references that made this development
     * possible:
     *
     *   M. Dion, H. Rydberg, E. Schroder, D. C. Langreth, and
     *   B. I. Lundqvist, Phys. Rev. Lett. 92, 246401 (2004).
     *
     *   T. Thonhauser, V. R. Cooper, S. Li, A. Puzder, P. Hyldgaard, and
     *   D. C. Langreth, Phys. Rev. B 76, 125112 (2007).
     *
     *   G. Roman-Perez and J. M. Soler, Phys. Rev. Lett. 103, 096102 (2009).
     *
     *
     * If you are using vdW-DF2, please also cite:
     *
     *   K. Lee, E. D. Murray, L. Kong, B. I. Lundqvist, and
     *   D. C. Langreth, Phys. Rev. B 82, 081101(R) (2010).
     *
     *
     * If you are calculating the stress with vdW-DF, please also cite:
     *
     *   R. Sabatini, E. Kucukbenli, B. Kolb, T. Thonhauser, and
     *   S. de Gironcoli, J. Phys.: Condens. Matter 24, 424209 (2012).
     *
     ************************************************************************

     Carrying out vdW-DF run using the following parameters:

     Nqs =      20    Nr_points =    1024   r_max =   100.000
     q_mesh =
               0.00001000     0.04494208     0.09755937     0.15916263
               0.23128650     0.31572767     0.41458969     0.53033537
               0.66584808     0.82450364     1.01025438     1.22772762
               1.48234092     1.78043706     2.12944203     2.53805004
               3.01644009     3.57652955     4.23227104     5.00000000

     Gradients computed in reciprocal space

     ************************************************************************


 
     Adding external electric field

     Computed dipole along edir(3) : 
        Dipole               -0.0031 Ry au,         -0.0079 Debye
        Dipole field         -0.0000 Ry au
 
        Potential amp.        0.0008 Ry
        Total length         45.3158 bohr
 
     Starting wfc are  160 randomized atomic wfcs

     total cpu time spent up to now is       22.7 secs

     per-process dynamical memory:    49.6 Mb

     Self-consistent Calculation

     iteration #  1     ecut=    36.75 Ry     beta=0.30
     Davidson diagonalization with overlap
     ethr =  1.00E-02,  avg # of iterations =  2.0

     negative rho (up, down):  4.735E-03 0.000E+00
 
     Adding external electric field

     Computed dipole along edir(3) : 
        Dipole               -0.3647 Ry au,         -0.9270 Debye
        Dipole field         -0.0010 Ry au
 
        Potential amp.        0.0912 Ry
        Total length         45.3158 bohr
 

     total cpu time spent up to now is       59.2 secs

     total energy              =   -1696.49624365 Ry
     Harris-Foulkes estimate   =   -1699.89992968 Ry
     estimated scf accuracy    <       7.05453071 Ry

     iteration #  2     ecut=    36.75 Ry     beta=0.30
     Davidson diagonalization with overlap
     ethr =  4.08E-03,  avg # of iterations =  6.3

     negative rho (up, down):  5.117E-03 0.000E+00
 
     Adding external electric field

     Computed dipole along edir(3) : 
        Dipole                0.8717 Ry au,          2.2157 Debye
        Dipole field          0.0024 Ry au
 
        Potential amp.       -0.2181 Ry
        Total length         45.3158 bohr
 

     total cpu time spent up to now is      116.2 secs

     total energy              =   -1693.83943841 Ry
     Harris-Foulkes estimate   =   -1707.13655844 Ry
     estimated scf accuracy    <     128.55730859 Ry

     iteration #  3     ecut=    36.75 Ry     beta=0.30
     Davidson diagonalization with overlap
     ethr =  4.08E-03,  avg # of iterations =  4.9

     negative rho (up, down):  5.142E-03 0.000E+00
 
     Adding external electric field

     Computed dipole along edir(3) : 
        Dipole               -0.4776 Ry au,         -1.2139 Debye
        Dipole field         -0.0013 Ry au
 
        Potential amp.        0.1195 Ry
        Total length         45.3158 bohr
 

     total cpu time spent up to now is      172.1 secs

     total energy              =   -1697.67407960 Ry
     Harris-Foulkes estimate   =   -1701.28094927 Ry
     estimated scf accuracy    <     168.76369689 Ry

     iteration #  4     ecut=    36.75 Ry     beta=0.30
     Davidson diagonalization with overlap
     ethr =  4.08E-03,  avg # of iterations =  4.8

     negative rho (up, down):  4.922E-03 0.000E+00
 
     Adding external electric field

     Computed dipole along edir(3) : 
        Dipole               -0.6415 Ry au,         -1.6305 Debye
        Dipole field         -0.0018 Ry au
 
        Potential amp.        0.1605 Ry
        Total length         45.3158 bohr
 

     total cpu time spent up to now is      212.7 secs

     total energy              =   -1699.25766825 Ry
     Harris-Foulkes estimate   =   -1699.33652232 Ry
     estimated scf accuracy    <       0.39430509 Ry

     iteration #  5     ecut=    36.75 Ry     beta=0.30
     Davidson diagonalization with overlap
     ethr =  2.28E-04,  avg # of iterations =  8.0

     negative rho (up, down):  4.840E-03 0.000E+00
 
     Adding external electric field

     Computed dipole along edir(3) : 
        Dipole               -0.3992 Ry au,         -1.0146 Debye
        Dipole field         -0.0011 Ry au
 
        Potential amp.        0.0999 Ry
        Total length         45.3158 bohr
 

     total cpu time spent up to now is      267.2 secs

     total energy              =   -1699.24534936 Ry
     Harris-Foulkes estimate   =   -1699.41530592 Ry
     estimated scf accuracy    <       2.36269497 Ry

     iteration #  6     ecut=    36.75 Ry     beta=0.30
     Davidson diagonalization with overlap
     ethr =  2.28E-04,  avg # of iterations =  3.9

     negative rho (up, down):  4.841E-03 0.000E+00
 
     Adding external electric field

     Computed dipole along edir(3) : 
        Dipole               -0.5109 Ry au,         -1.2986 Debye
        Dipole field         -0.0014 Ry au
 
        Potential amp.        0.1278 Ry
        Total length         45.3158 bohr
 

     total cpu time spent up to now is      308.9 secs

     total energy              =   -1699.32348786 Ry
     Harris-Foulkes estimate   =   -1699.34361688 Ry
     estimated scf accuracy    <       0.27591102 Ry

     iteration #  7     ecut=    36.75 Ry     beta=0.30
     Davidson diagonalization with overlap
     ethr =  1.59E-04,  avg # of iterations =  1.5

     negative rho (up, down):  4.831E-03 0.000E+00
 
     Adding external electric field

     Computed dipole along edir(3) : 
        Dipole               -0.4899 Ry au,         -1.2451 Debye
        Dipole field         -0.0014 Ry au
 
        Potential amp.        0.1226 Ry
        Total length         45.3158 bohr
 

     total cpu time spent up to now is      341.8 secs

     total energy              =   -1699.33146625 Ry
     Harris-Foulkes estimate   =   -1699.33532206 Ry
     estimated scf accuracy    <       0.03359415 Ry

     iteration #  8     ecut=    36.75 Ry     beta=0.30
     Davidson diagonalization with overlap
     ethr =  1.94E-05,  avg # of iterations =  6.0

     negative rho (up, down):  4.832E-03 0.000E+00
 
     Adding external electric field

     Computed dipole along edir(3) : 
        Dipole               -0.4881 Ry au,         -1.2407 Debye
        Dipole field         -0.0013 Ry au
 
        Potential amp.        0.1221 Ry
        Total length         45.3158 bohr
 

     total cpu time spent up to now is      387.5 secs

     total energy              =   -1699.33449624 Ry
     Harris-Foulkes estimate   =   -1699.33658241 Ry
     estimated scf accuracy    <       0.04314714 Ry

     iteration #  9     ecut=    36.75 Ry     beta=0.30
     Davidson diagonalization with overlap
     ethr =  1.94E-05,  avg # of iterations =  1.2

     negative rho (up, down):  4.854E-03 0.000E+00
 
     Adding external electric field

     Computed dipole along edir(3) : 
        Dipole               -0.5101 Ry au,         -1.2965 Debye
        Dipole field         -0.0014 Ry au
 
        Potential amp.        0.1276 Ry
        Total length         45.3158 bohr
 

     total cpu time spent up to now is      420.0 secs

     total energy              =   -1699.33535094 Ry
     Harris-Foulkes estimate   =   -1699.33583635 Ry
     estimated scf accuracy    <       0.03120983 Ry

     iteration # 10     ecut=    36.75 Ry     beta=0.30
     Davidson diagonalization with overlap
     ethr =  1.80E-05,  avg # of iterations =  1.6

     negative rho (up, down):  4.864E-03 0.000E+00
 
     Adding external electric field

     Computed dipole along edir(3) : 
        Dipole               -0.5231 Ry au,         -1.3297 Debye
        Dipole field         -0.0014 Ry au
 
        Potential amp.        0.1309 Ry
        Total length         45.3158 bohr
 

     total cpu time spent up to now is      453.0 secs

     total energy              =   -1699.33587956 Ry
     Harris-Foulkes estimate   =   -1699.33604587 Ry
     estimated scf accuracy    <       0.00522128 Ry

     iteration # 11     ecut=    36.75 Ry     beta=0.30
     Davidson diagonalization with overlap
     ethr =  3.02E-06,  avg # of iterations =  5.3

     negative rho (up, down):  4.863E-03 0.000E+00
 
     Adding external electric field

     Computed dipole along edir(3) : 
        Dipole               -0.5240 Ry au,         -1.3320 Debye
        Dipole field         -0.0014 Ry au
 
        Potential amp.        0.1311 Ry
        Total length         45.3158 bohr
 

     total cpu time spent up to now is      494.2 secs

     total energy              =   -1699.33606086 Ry
     Harris-Foulkes estimate   =   -1699.33631068 Ry
     estimated scf accuracy    <       0.00187274 Ry

     iteration # 12     ecut=    36.75 Ry     beta=0.30
     Davidson diagonalization with overlap
     ethr =  1.08E-06,  avg # of iterations =  4.7

     negative rho (up, down):  4.856E-03 0.000E+00
 
     Adding external electric field

     Computed dipole along edir(3) : 
        Dipole               -0.5192 Ry au,         -1.3196 Debye
        Dipole field         -0.0014 Ry au
 
        Potential amp.        0.1299 Ry
        Total length         45.3158 bohr
 

     total cpu time spent up to now is      533.4 secs

     total energy              =   -1699.33620920 Ry
     Harris-Foulkes estimate   =   -1699.33625643 Ry
     estimated scf accuracy    <       0.00054277 Ry

     iteration # 13     ecut=    36.75 Ry     beta=0.30
     Davidson diagonalization with overlap
     ethr =  3.14E-07,  avg # of iterations =  3.8

     negative rho (up, down):  4.854E-03 0.000E+00
 
     Adding external electric field

     Computed dipole along edir(3) : 
        Dipole               -0.5182 Ry au,         -1.3170 Debye
        Dipole field         -0.0014 Ry au
 
        Potential amp.        0.1296 Ry
        Total length         45.3158 bohr
 

     total cpu time spent up to now is      574.1 secs

     total energy              =   -1699.33623357 Ry
     Harris-Foulkes estimate   =   -1699.33627403 Ry
     estimated scf accuracy    <       0.00059339 Ry

     iteration # 14     ecut=    36.75 Ry     beta=0.30
     Davidson diagonalization with overlap
     ethr =  3.14E-07,  avg # of iterations =  1.1

     negative rho (up, down):  4.854E-03 0.000E+00
 
     Adding external electric field

     Computed dipole along edir(3) : 
        Dipole               -0.5171 Ry au,         -1.3144 Debye
        Dipole field         -0.0014 Ry au
 
        Potential amp.        0.1294 Ry
        Total length         45.3158 bohr
 

     total cpu time spent up to now is      606.6 secs

     total energy              =   -1699.33623519 Ry
     Harris-Foulkes estimate   =   -1699.33625227 Ry
     estimated scf accuracy    <       0.00010084 Ry

     iteration # 15     ecut=    36.75 Ry     beta=0.30
     Davidson diagonalization with overlap
     ethr =  5.83E-08,  avg # of iterations =  4.4

     negative rho (up, down):  4.853E-03 0.000E+00
 
     Adding external electric field

     Computed dipole along edir(3) : 
        Dipole               -0.5170 Ry au,         -1.3140 Debye
        Dipole field         -0.0014 Ry au
 
        Potential amp.        0.1293 Ry
        Total length         45.3158 bohr
 

     total cpu time spent up to now is      653.1 secs

     total energy              =   -1699.33625128 Ry
     Harris-Foulkes estimate   =   -1699.33626330 Ry
     estimated scf accuracy    <       0.00016271 Ry

     iteration # 16     ecut=    36.75 Ry     beta=0.30
     Davidson diagonalization with overlap
     ethr =  5.83E-08,  avg # of iterations =  1.0

     negative rho (up, down):  4.852E-03 0.000E+00
 
     Adding external electric field

     Computed dipole along edir(3) : 
        Dipole               -0.5175 Ry au,         -1.3152 Debye
        Dipole field         -0.0014 Ry au
 
        Potential amp.        0.1295 Ry
        Total length         45.3158 bohr
 

     total cpu time spent up to now is      685.4 secs

     total energy              =   -1699.33624855 Ry
     Harris-Foulkes estimate   =   -1699.33625324 Ry
     estimated scf accuracy    <       0.00004123 Ry

     iteration # 17     ecut=    36.75 Ry     beta=0.30
     Davidson diagonalization with overlap
     ethr =  2.38E-08,  avg # of iterations =  3.8

     negative rho (up, down):  4.851E-03 0.000E+00
 
     Adding external electric field

     Computed dipole along edir(3) : 
        Dipole               -0.5172 Ry au,         -1.3147 Debye
        Dipole field         -0.0014 Ry au
 
        Potential amp.        0.1294 Ry
        Total length         45.3158 bohr
 

     total cpu time spent up to now is      730.4 secs

     total energy              =   -1699.33625683 Ry
     Harris-Foulkes estimate   =   -1699.33625901 Ry
     estimated scf accuracy    <       0.00004002 Ry

     iteration # 18     ecut=    36.75 Ry     beta=0.30
     Davidson diagonalization with overlap
     ethr =  2.31E-08,  avg # of iterations =  1.0

     negative rho (up, down):  4.851E-03 0.000E+00
 
     Adding external electric field

     Computed dipole along edir(3) : 
        Dipole               -0.5173 Ry au,         -1.3150 Debye
        Dipole field         -0.0014 Ry au
 
        Potential amp.        0.1294 Ry
        Total length         45.3158 bohr
 

     total cpu time spent up to now is      762.7 secs

     total energy              =   -1699.33625585 Ry
     Harris-Foulkes estimate   =   -1699.33625693 Ry
     estimated scf accuracy    <       0.00002322 Ry

     iteration # 19     ecut=    36.75 Ry     beta=0.30
     Davidson diagonalization with overlap
     ethr =  1.34E-08,  avg # of iterations =  1.2

     negative rho (up, down):  4.850E-03 0.000E+00
 
     Adding external electric field

     Computed dipole along edir(3) : 
        Dipole               -0.5170 Ry au,         -1.3141 Debye
        Dipole field         -0.0014 Ry au
 
        Potential amp.        0.1293 Ry
        Total length         45.3158 bohr
 

     total cpu time spent up to now is      795.2 secs

     total energy              =   -1699.33625541 Ry
     Harris-Foulkes estimate   =   -1699.33625735 Ry
     estimated scf accuracy    <       0.00001135 Ry

     iteration # 20     ecut=    36.75 Ry     beta=0.30
     Davidson diagonalization with overlap
     ethr =  6.56E-09,  avg # of iterations =  3.9

     negative rho (up, down):  4.849E-03 0.000E+00

     negative rho (up, down):  4.849E-03 0.000E+00

     negative rho (up, down):  4.849E-03 0.000E+00

     negative rho (up, down):  4.849E-03 0.000E+00

     negative rho (up, down):  4.849E-03 0.000E+00

     negative rho (up, down):  4.849E-03 0.000E+00

     negative rho (up, down):  4.849E-03 0.000E+00

     negative rho (up, down):  4.849E-03 0.000E+00

     negative rho (up, down):  4.849E-03 0.000E+00

     negative rho (up, down):  4.849E-03 0.000E+00

     negative rho (up, down):  4.849E-03 0.000E+00

     negative rho (up, down):  4.849E-03 0.000E+00

     negative rho (up, down):  4.849E-03 0.000E+00

     negative rho (up, down):  4.849E-03 0.000E+00

     negative rho (up, down):  4.849E-03 0.000E+00

     negative rho (up, down):  4.849E-03 0.000E+00

     negative rho (up, down):  4.849E-03 0.000E+00

     negative rho (up, down):  4.849E-03 0.000E+00

     negative rho (up, down):  4.849E-03 0.000E+00

     negative rho (up, down):  4.849E-03 0.000E+00

     negative rho (up, down):  4.849E-03 0.000E+00

     negative rho (up, down):  4.849E-03 0.000E+00

     negative rho (up, down):  4.849E-03 0.000E+00

     negative rho (up, down):  4.849E-03 0.000E+00

     negative rho (up, down):  4.849E-03 0.000E+00

     negative rho (up, down):  4.849E-03 0.000E+00

     negative rho (up, down):  4.849E-03 0.000E+00

     negative rho (up, down):  4.849E-03 0.000E+00

     negative rho (up, down):  4.849E-03 0.000E+00

     negative rho (up, down):  4.849E-03 0.000E+00

     negative rho (up, down):  4.849E-03 0.000E+00

     negative rho (up, down):  4.849E-03 0.000E+00

     negative rho (up, down):  4.849E-03 0.000E+00

     negative rho (up, down):  4.849E-03 0.000E+00

     negative rho (up, down):  4.849E-03 0.000E+00
 
     Adding external electric field

     Computed dipole along edir(3) : 
        Dipole               -0.5175 Ry au,         -1.3154 Debye
        Dipole field         -0.0014 Ry au
 
        Potential amp.        0.1295 Ry
        Total length         45.3158 bohr
 

     total cpu time spent up to now is      897.1 secs

     End of self-consistent calculation

          k = 0.0000 0.0000 0.0000 ( 17111 PWs)   bands (ev):

   -59.3277 -59.2222 -59.1679 -59.1364 -59.1363 -59.1160 -59.0564 -59.0362
   -59.0359 -59.0148 -58.9956 -58.9955 -33.8352 -33.8352 -33.8163 -33.7519
   -33.7519 -33.7508 -33.7370 -33.6484 -33.6481 -33.6386 -33.3350 -33.2097
   -33.2096 -33.2094 -33.1253 -33.1132 -33.1129 -33.0199 -33.0199 -33.0180
   -32.9043 -32.9014 -32.9013 -32.9008 -32.8717 -32.8716 -32.7972 -32.7809
   -32.7808 -32.7721 -32.7438 -32.7438 -32.6600 -32.6600 -32.5786 -32.5786
   -10.0676  -4.2017  -2.8684  -2.7443  -2.7443  -2.7273  -2.7021  -2.3029
    -2.2774  -2.2774  -2.0872  -2.0821  -2.0820  -1.8347  -1.8347  -1.8288
    -0.7462  -0.7461  -0.6361   0.0820   0.2869   0.2869   0.4053   0.6253
     0.9682   1.0424   1.0424   1.2416   1.2416   1.3127   1.3127   1.4314
     1.4974   1.4974   1.5195   1.5195   1.7717   1.7718   1.8266   2.4928
     2.8608   2.9782   2.9782   3.0140   3.2456   3.2457   3.3834   3.5835

          k = 0.0000 0.0342 0.0000 ( 17130 PWs)   bands (ev):

   -59.3163 -59.2121 -59.1720 -59.1439 -59.1364 -59.1092 -59.0617 -59.0439
   -59.0361 -59.0163 -58.9988 -58.9954 -33.7991 -33.7891 -33.7637 -33.7284
   -33.7197 -33.7114 -33.6961 -33.6137 -33.6078 -33.5832 -33.3326 -33.2549
   -33.2299 -33.2288 -33.1153 -33.1067 -33.0992 -33.0471 -33.0463 -33.0021
   -32.9648 -32.9587 -32.8859 -32.8836 -32.8555 -32.8533 -32.8376 -32.8167
   -32.8089 -32.7904 -32.7704 -32.7567 -32.7090 -32.6766 -32.6431 -32.5914
   -10.0660  -3.9589  -2.6211  -2.6117  -2.5430  -2.5285  -2.4623  -2.2278
    -2.1023  -2.0840  -1.9535  -1.9320  -1.9278  -1.7055  -1.5790  -1.5738
    -0.7002  -0.6613  -0.5671   0.0443   0.3243   0.3650   0.4372   0.5933
     0.7647   0.8119   1.0601   1.0912   1.2351   1.2465   1.2829   1.2970
     1.4058   1.4620   1.5246   1.5904   1.7128   1.7596   1.7902   2.1942
     2.4484   2.6577   2.7367   2.8581   2.9744   3.1135   3.2059   3.3931

          k = 0.0000 0.0684 0.0000 ( 17142 PWs)   bands (ev):

   -59.2852 -59.2003 -59.1782 -59.1524 -59.1365 -59.1008 -59.0804 -59.0484
   -59.0363 -59.0252 -59.0051 -58.9952 -33.7085 -33.6941 -33.6702 -33.6457
   -33.6342 -33.6093 -33.5864 -33.5300 -33.5226 -33.4222 -33.3382 -33.2966
   -33.2919 -33.2871 -33.1277 -33.1245 -33.0808 -33.0781 -33.0758 -33.0500
   -33.0409 -33.0159 -32.9548 -32.9359 -32.9205 -32.9158 -32.8501 -32.8453
   -32.8314 -32.8280 -32.8203 -32.8122 -32.7476 -32.7271 -32.7200 -32.6269
   -10.0628  -3.3190  -2.3633  -2.0883  -2.0631  -2.0502  -2.0401  -1.8369
    -1.6468  -1.6322  -1.5878  -1.4657  -1.4498  -1.3616  -0.9426  -0.9255
    -0.5708  -0.5011  -0.3534  -0.2386   0.1090   0.1914   0.3601   0.4070
     0.5632   0.6563   0.7245   0.7986   0.9440   0.9672   1.0569   1.1987
     1.2898   1.3719   1.4534   1.6849   1.6851   1.7192   1.8009   1.8520
     2.0463   2.0529   2.2112   2.3306   2.3368   2.4416   2.5814   2.7003

          k = 0.0000-0.1026 0.0000 ( 17160 PWs)   bands (ev):

   -59.2517 -59.2299 -59.1586 -59.1416 -59.1366 -59.1313 -59.0721 -59.0453
   -59.0395 -59.0364 -59.0069 -58.9951 -33.6383 -33.6208 -33.6098 -33.6069
   -33.5948 -33.5921 -33.4686 -33.4595 -33.4161 -33.4037 -33.3546 -33.3427
   -33.2427 -33.2357 -33.1604 -33.1590 -33.1522 -33.1490 -33.1067 -33.1055
   -33.0309 -33.0185 -33.0124 -33.0027 -33.0001 -32.9961 -32.8971 -32.8767
   -32.8480 -32.8250 -32.7915 -32.7848 -32.7787 -32.7772 -32.6779 -32.6745
   -10.0612  -2.6091  -2.6013  -1.8355  -1.8256  -1.6889  -1.6882  -1.4893
    -1.4594  -1.3172  -1.2932  -0.9627  -0.9328  -0.8625  -0.8164  -0.6705
    -0.6637  -0.2630  -0.1999  -0.1004  -0.0676  -0.0069   0.0239   0.1971
     0.4107   0.5316   0.5937   0.7219   0.7954   0.8985   0.9486   1.0332
     1.0612   1.0860   1.1404   1.1692   1.2441   1.4234   1.4400   1.6502
     1.8329   1.8888   2.1291   2.1931   2.5371   2.6489   2.6558   2.6606

          k = 0.0296-0.0171 0.0000 ( 17130 PWs)   bands (ev):

   -59.3163 -59.2121 -59.1720 -59.1438 -59.1365 -59.1091 -59.0617 -59.0437
   -59.0363 -59.0162 -58.9988 -58.9955 -33.7991 -33.7891 -33.7637 -33.7284
   -33.7197 -33.7114 -33.6961 -33.6135 -33.6080 -33.5832 -33.3326 -33.2549
   -33.2298 -33.2289 -33.1152 -33.1068 -33.0991 -33.0471 -33.0464 -33.0021
   -32.9647 -32.9588 -32.8859 -32.8836 -32.8555 -32.8533 -32.8376 -32.8166
   -32.8090 -32.7903 -32.7704 -32.7567 -32.7090 -32.6766 -32.6431 -32.5914
   -10.0660  -3.9589  -2.6211  -2.6117  -2.5430  -2.5285  -2.4623  -2.2278
    -2.1023  -2.0840  -1.9535  -1.9320  -1.9278  -1.7055  -1.5789  -1.5738
    -0.7001  -0.6613  -0.5670   0.0443   0.3243   0.3650   0.4372   0.5933
     0.7647   0.8119   1.0601   1.0912   1.2351   1.2465   1.2829   1.2970
     1.4058   1.4620   1.5246   1.5905   1.7128   1.7596   1.7902   2.1942
     2.4484   2.6577   2.7367   2.8581   2.9744   3.1134   3.2059   3.3931

          k = 0.0296 0.0171 0.0000 ( 17130 PWs)   bands (ev):

   -59.3163 -59.2121 -59.1720 -59.1438 -59.1364 -59.1092 -59.0617 -59.0439
   -59.0360 -59.0163 -58.9988 -58.9954 -33.7991 -33.7891 -33.7637 -33.7284
   -33.7196 -33.7114 -33.6961 -33.6138 -33.6078 -33.5832 -33.3326 -33.2549
   -33.2299 -33.2288 -33.1153 -33.1066 -33.0992 -33.0471 -33.0463 -33.0021
   -32.9648 -32.9587 -32.8859 -32.8836 -32.8555 -32.8533 -32.8375 -32.8167
   -32.8089 -32.7904 -32.7704 -32.7567 -32.7090 -32.6766 -32.6431 -32.5914
   -10.0660  -3.9589  -2.6211  -2.6117  -2.5430  -2.5285  -2.4623  -2.2278
    -2.1023  -2.0840  -1.9535  -1.9320  -1.9278  -1.7055  -1.5790  -1.5738
    -0.7002  -0.6613  -0.5671   0.0443   0.3243   0.3650   0.4372   0.5933
     0.7647   0.8119   1.0601   1.0912   1.2351   1.2465   1.2829   1.2970
     1.4058   1.4620   1.5246   1.5904   1.7128   1.7596   1.7902   2.1942
     2.4484   2.6577   2.7367   2.8581   2.9744   3.1135   3.2059   3.3931

          k = 0.0296 0.0513 0.0000 ( 17106 PWs)   bands (ev):

   -59.2950 -59.1964 -59.1781 -59.1600 -59.1320 -59.0991 -59.0699 -59.0626
   -59.0312 -59.0182 -59.0059 -58.9952 -33.7469 -33.6913 -33.6854 -33.6753
   -33.6656 -33.6338 -33.6326 -33.5666 -33.5065 -33.4988 -33.3337 -33.2911
   -33.2886 -33.2626 -33.1625 -33.0889 -33.0848 -33.0804 -33.0752 -33.0160
   -33.0103 -32.9566 -32.9296 -32.9213 -32.9200 -32.8834 -32.8622 -32.8399
   -32.8301 -32.8087 -32.7869 -32.7793 -32.7760 -32.7343 -32.6947 -32.6244
   -10.0636  -3.5113  -2.3071  -2.2947  -2.1736  -2.1728  -2.0331  -2.0031
    -1.9940  -1.7058  -1.6835  -1.6383  -1.5574  -1.3357  -1.3283  -1.0490
    -0.6170  -0.5179  -0.4614  -0.1248   0.2208   0.3504   0.3954   0.4875
     0.5114   0.5833   0.7518   0.8972   0.9924   1.1371   1.1661   1.2191
     1.2891   1.4559   1.5457   1.5976   1.6806   1.7435   1.8274   1.9237
     2.1692   2.2213   2.2843   2.4215   2.5927   2.6608   2.7510   2.8835

          k = 0.0296-0.1197 0.0000 ( 17122 PWs)   bands (ev):

   -59.2594 -59.2121 -59.1758 -59.1530 -59.1276 -59.1114 -59.0801 -59.0622
   -59.0369 -59.0182 -59.0129 -58.9954 -33.6494 -33.6238 -33.5965 -33.5894
   -33.5751 -33.5627 -33.4940 -33.4805 -33.4229 -33.3735 -33.3653 -33.3378
   -33.3201 -33.2591 -33.2582 -33.1794 -33.1507 -33.0771 -33.0716 -33.0604
   -33.0550 -33.0413 -33.0006 -32.9649 -32.9528 -32.9416 -32.8896 -32.8740
   -32.8622 -32.8494 -32.8025 -32.7882 -32.7773 -32.7561 -32.7314 -32.6767
   -10.0612  -2.7859  -2.2233  -1.7929  -1.7721  -1.7233  -1.6492  -1.6323
    -1.3493  -1.2885  -1.2595  -1.1762  -0.9254  -0.9042  -0.8686  -0.6863
    -0.5095  -0.3344  -0.3113  -0.2328  -0.0454  -0.0262   0.0862   0.1718
     0.3091   0.4297   0.5036   0.6318   0.7672   0.8105   0.8390   0.9454
     0.9684   1.0860   1.1851   1.2308   1.2767   1.5184   1.6294   1.6749
     1.8477   1.9818   2.0660   2.1501   2.3874   2.5489   2.6671   2.7133

          k = 0.0296-0.0855 0.0000 ( 17122 PWs)   bands (ev):

   -59.2594 -59.2122 -59.1758 -59.1530 -59.1275 -59.1114 -59.0801 -59.0623
   -59.0368 -59.0181 -59.0129 -58.9954 -33.6494 -33.6238 -33.5965 -33.5894
   -33.5751 -33.5627 -33.4940 -33.4805 -33.4229 -33.3735 -33.3654 -33.3378
   -33.3201 -33.2591 -33.2583 -33.1794 -33.1507 -33.0772 -33.0717 -33.0603
   -33.0550 -33.0413 -33.0006 -32.9649 -32.9527 -32.9416 -32.8896 -32.8740
   -32.8622 -32.8493 -32.8025 -32.7883 -32.7772 -32.7561 -32.7314 -32.6767
   -10.0612  -2.7859  -2.2233  -1.7929  -1.7721  -1.7233  -1.6492  -1.6323
    -1.3493  -1.2885  -1.2595  -1.1762  -0.9254  -0.9042  -0.8686  -0.6863
    -0.5095  -0.3344  -0.3113  -0.2328  -0.0454  -0.0261   0.0862   0.1718
     0.3091   0.4298   0.5036   0.6319   0.7672   0.8105   0.8390   0.9454
     0.9684   1.0859   1.1851   1.2309   1.2767   1.5184   1.6294   1.6749
     1.8477   1.9819   2.0660   2.1501   2.3874   2.5488   2.6670   2.7134

          k = 0.0296-0.0513 0.0000 ( 17106 PWs)   bands (ev):

   -59.2950 -59.1964 -59.1781 -59.1600 -59.1320 -59.0990 -59.0698 -59.0627
   -59.0313 -59.0180 -59.0060 -58.9952 -33.7469 -33.6913 -33.6855 -33.6753
   -33.6657 -33.6337 -33.6326 -33.5665 -33.5066 -33.4987 -33.3337 -33.2910
   -33.2887 -33.2626 -33.1625 -33.0889 -33.0847 -33.0805 -33.0753 -33.0160
   -33.0103 -32.9566 -32.9297 -32.9213 -32.9201 -32.8834 -32.8622 -32.8400
   -32.8300 -32.8087 -32.7869 -32.7792 -32.7761 -32.7343 -32.6948 -32.6244
   -10.0636  -3.5113  -2.3071  -2.2947  -2.1736  -2.1728  -2.0331  -2.0031
    -1.9940  -1.7058  -1.6835  -1.6383  -1.5574  -1.3357  -1.3283  -1.0490
    -0.6169  -0.5179  -0.4614  -0.1248   0.2208   0.3504   0.3954   0.4876
     0.5114   0.5833   0.7517   0.8972   0.9924   1.1371   1.1661   1.2191
     1.2891   1.4559   1.5457   1.5976   1.6806   1.7435   1.8274   1.9237
     2.1692   2.2214   2.2843   2.4215   2.5927   2.6608   2.7511   2.8835

          k = 0.0592-0.0342 0.0000 ( 17142 PWs)   bands (ev):

   -59.2852 -59.2003 -59.1782 -59.1523 -59.1366 -59.1008 -59.0805 -59.0483
   -59.0366 -59.0250 -59.0050 -58.9952 -33.7084 -33.6941 -33.6702 -33.6458
   -33.6342 -33.6093 -33.5864 -33.5298 -33.5228 -33.4222 -33.3382 -33.2965
   -33.2919 -33.2872 -33.1277 -33.1246 -33.0808 -33.0783 -33.0757 -33.0499
   -33.0411 -33.0158 -32.9548 -32.9359 -32.9204 -32.9158 -32.8500 -32.8453
   -32.8314 -32.8280 -32.8203 -32.8122 -32.7476 -32.7271 -32.7201 -32.6269
   -10.0628  -3.3190  -2.3633  -2.0883  -2.0631  -2.0502  -2.0401  -1.8369
    -1.6468  -1.6321  -1.5878  -1.4657  -1.4499  -1.3616  -0.9425  -0.9255
    -0.5707  -0.5012  -0.3534  -0.2386   0.1090   0.1914   0.3602   0.4070
     0.5632   0.6562   0.7245   0.7986   0.9440   0.9671   1.0569   1.1987
     1.2898   1.3719   1.4534   1.6849   1.6851   1.7193   1.8009   1.8520
     2.0463   2.0529   2.2112   2.3306   2.3368   2.4416   2.5814   2.7003

          k = 0.0592 0.0000 0.0000 ( 17106 PWs)   bands (ev):

   -59.2950 -59.1964 -59.1781 -59.1599 -59.1321 -59.0990 -59.0698 -59.0626
   -59.0312 -59.0180 -59.0059 -58.9952 -33.7469 -33.6913 -33.6855 -33.6753
   -33.6657 -33.6337 -33.6326 -33.5665 -33.5066 -33.4987 -33.3337 -33.2910
   -33.2887 -33.2626 -33.1625 -33.0889 -33.0847 -33.0805 -33.0752 -33.0160
   -33.0103 -32.9566 -32.9297 -32.9213 -32.9201 -32.8834 -32.8622 -32.8400
   -32.8300 -32.8087 -32.7869 -32.7792 -32.7761 -32.7343 -32.6948 -32.6244
   -10.0636  -3.5113  -2.3071  -2.2947  -2.1736  -2.1728  -2.0331  -2.0031
    -1.9940  -1.7058  -1.6835  -1.6383  -1.5574  -1.3357  -1.3283  -1.0490
    -0.6169  -0.5179  -0.4614  -0.1248   0.2208   0.3504   0.3954   0.4875
     0.5114   0.5833   0.7517   0.8972   0.9924   1.1371   1.1661   1.2191
     1.2891   1.4559   1.5457   1.5976   1.6806   1.7435   1.8274   1.9237
     2.1692   2.2213   2.2843   2.4215   2.5927   2.6608   2.7511   2.8835

          k = 0.0592 0.0342 0.0000 ( 17142 PWs)   bands (ev):

   -59.2852 -59.2003 -59.1782 -59.1523 -59.1366 -59.1009 -59.0803 -59.0484
   -59.0363 -59.0252 -59.0051 -58.9952 -33.7084 -33.6941 -33.6702 -33.6457
   -33.6343 -33.6093 -33.5864 -33.5300 -33.5225 -33.4222 -33.3382 -33.2966
   -33.2919 -33.2871 -33.1277 -33.1246 -33.0808 -33.0781 -33.0759 -33.0501
   -33.0409 -33.0159 -32.9548 -32.9358 -32.9205 -32.9157 -32.8501 -32.8453
   -32.8314 -32.8280 -32.8203 -32.8123 -32.7476 -32.7272 -32.7199 -32.6269
   -10.0628  -3.3190  -2.3633  -2.0883  -2.0631  -2.0502  -2.0401  -1.8369
    -1.6468  -1.6322  -1.5878  -1.4657  -1.4498  -1.3616  -0.9426  -0.9255
    -0.5708  -0.5011  -0.3534  -0.2386   0.1090   0.1914   0.3601   0.4070
     0.5632   0.6563   0.7245   0.7986   0.9440   0.9672   1.0569   1.1987
     1.2898   1.3719   1.4534   1.6849   1.6851   1.7192   1.8009   1.8520
     2.0463   2.0529   2.2112   2.3306   2.3368   2.4416   2.5814   2.7003

          k = 0.0592-0.1368 0.0000 ( 17122 PWs)   bands (ev):

   -59.2594 -59.2122 -59.1758 -59.1530 -59.1276 -59.1114 -59.0801 -59.0622
   -59.0369 -59.0181 -59.0129 -58.9954 -33.6494 -33.6238 -33.5965 -33.5894
   -33.5751 -33.5627 -33.4940 -33.4805 -33.4229 -33.3735 -33.3653 -33.3378
   -33.3201 -33.2591 -33.2582 -33.1794 -33.1507 -33.0771 -33.0716 -33.0604
   -33.0551 -33.0413 -33.0006 -32.9649 -32.9528 -32.9416 -32.8896 -32.8740
   -32.8622 -32.8494 -32.8025 -32.7882 -32.7773 -32.7561 -32.7314 -32.6767
   -10.0612  -2.7859  -2.2233  -1.7929  -1.7721  -1.7233  -1.6492  -1.6323
    -1.3493  -1.2885  -1.2595  -1.1762  -0.9254  -0.9042  -0.8686  -0.6863
    -0.5095  -0.3344  -0.3113  -0.2328  -0.0454  -0.0262   0.0862   0.1718
     0.3091   0.4297   0.5036   0.6319   0.7672   0.8105   0.8389   0.9454
     0.9684   1.0860   1.1851   1.2308   1.2767   1.5184   1.6294   1.6749
     1.8477   1.9818   2.0660   2.1501   2.3874   2.5489   2.6671   2.7133

          k = 0.0592-0.1026 0.0000 ( 17100 PWs)   bands (ev):

   -59.2380 -59.2101 -59.2039 -59.1286 -59.1232 -59.1097 -59.1090 -59.0565
   -59.0315 -59.0313 -59.0047 -58.9989 -33.5824 -33.5652 -33.5637 -33.5399
   -33.5363 -33.5283 -33.4513 -33.4478 -33.4361 -33.3639 -33.3618 -33.3146
   -33.3012 -33.3000 -33.2955 -33.2202 -33.2158 -33.2156 -33.0735 -33.0615
   -33.0540 -33.0487 -33.0004 -32.9557 -32.9552 -32.9256 -32.8960 -32.8443
   -32.8434 -32.8412 -32.8304 -32.8183 -32.8151 -32.7480 -32.7422 -32.7405
   -10.0604  -2.1218  -2.1030  -2.0996  -1.3969  -1.3840  -1.3819  -1.3256
    -1.2892  -1.0471  -0.8949  -0.8623  -0.8560  -0.7856  -0.7673  -0.7526
    -0.3261  -0.2704  -0.2689  -0.2528  -0.1127  -0.0832  -0.0678   0.0720
     0.1355   0.1878   0.1882   0.2862   0.3113   0.3922   0.6338   0.7402
     0.7752   0.8791   0.9860   1.0325   1.3109   1.4229   1.6057   1.7376
     1.7663   1.8740   1.9516   2.0125   2.3353   2.4685   2.6408   2.7869

          k = 0.0592-0.0684 0.0000 ( 17122 PWs)   bands (ev):

   -59.2594 -59.2122 -59.1758 -59.1531 -59.1276 -59.1113 -59.0802 -59.0623
   -59.0367 -59.0183 -59.0127 -58.9954 -33.6494 -33.6238 -33.5965 -33.5895
   -33.5751 -33.5627 -33.4940 -33.4805 -33.4229 -33.3735 -33.3654 -33.3378
   -33.3201 -33.2591 -33.2583 -33.1794 -33.1507 -33.0772 -33.0717 -33.0604
   -33.0550 -33.0413 -33.0006 -32.9649 -32.9527 -32.9416 -32.8896 -32.8739
   -32.8623 -32.8493 -32.8025 -32.7883 -32.7773 -32.7561 -32.7314 -32.6767
   -10.0612  -2.7859  -2.2233  -1.7929  -1.7721  -1.7233  -1.6492  -1.6323
    -1.3493  -1.2885  -1.2595  -1.1762  -0.9254  -0.9042  -0.8686  -0.6863
    -0.5095  -0.3344  -0.3113  -0.2328  -0.0454  -0.0261   0.0862   0.1718
     0.3091   0.4297   0.5036   0.6318   0.7672   0.8104   0.8390   0.9454
     0.9684   1.0859   1.1851   1.2309   1.2767   1.5184   1.6294   1.6749
     1.8477   1.9818   2.0660   2.1501   2.3874   2.5489   2.6670   2.7133

          k =-0.0888 0.0513 0.0000 ( 17160 PWs)   bands (ev):

   -59.2516 -59.2299 -59.1586 -59.1416 -59.1366 -59.1311 -59.0722 -59.0453
   -59.0393 -59.0367 -59.0068 -58.9951 -33.6383 -33.6209 -33.6098 -33.6070
   -33.5948 -33.5920 -33.4684 -33.4598 -33.4160 -33.4037 -33.3545 -33.3427
   -33.2427 -33.2358 -33.1604 -33.1590 -33.1521 -33.1490 -33.1069 -33.1053
   -33.0309 -33.0187 -33.0122 -33.0027 -33.0001 -32.9961 -32.8971 -32.8768
   -32.8479 -32.8251 -32.7916 -32.7847 -32.7786 -32.7772 -32.6781 -32.6743
   -10.0612  -2.6091  -2.6013  -1.8355  -1.8256  -1.6889  -1.6882  -1.4892
    -1.4595  -1.3172  -1.2932  -0.9626  -0.9329  -0.8625  -0.8164  -0.6705
    -0.6638  -0.2630  -0.1999  -0.1004  -0.0675  -0.0070   0.0239   0.1971
     0.4107   0.5315   0.5937   0.7220   0.7954   0.8985   0.9486   1.0332
     1.0612   1.0861   1.1404   1.1691   1.2440   1.4234   1.4399   1.6503
     1.8330   1.8887   2.1291   2.1931   2.5371   2.6488   2.6559   2.6606

          k =-0.0888 0.0855 0.0000 ( 17122 PWs)   bands (ev):

   -59.2594 -59.2122 -59.1757 -59.1531 -59.1276 -59.1113 -59.0802 -59.0622
   -59.0368 -59.0183 -59.0127 -58.9954 -33.6494 -33.6238 -33.5965 -33.5895
   -33.5751 -33.5627 -33.4940 -33.4805 -33.4229 -33.3735 -33.3654 -33.3378
   -33.3201 -33.2591 -33.2583 -33.1794 -33.1507 -33.0772 -33.0717 -33.0604
   -33.0550 -33.0413 -33.0006 -32.9649 -32.9527 -32.9416 -32.8896 -32.8739
   -32.8623 -32.8493 -32.8025 -32.7883 -32.7773 -32.7561 -32.7314 -32.6767
   -10.0612  -2.7859  -2.2233  -1.7929  -1.7721  -1.7233  -1.6492  -1.6323
    -1.3493  -1.2885  -1.2595  -1.1762  -0.9254  -0.9042  -0.8686  -0.6863
    -0.5095  -0.3344  -0.3113  -0.2328  -0.0454  -0.0261   0.0862   0.1718
     0.3091   0.4297   0.5036   0.6318   0.7672   0.8104   0.8390   0.9454
     0.9684   1.0859   1.1851   1.2308   1.2767   1.5184   1.6294   1.6749
     1.8477   1.9818   2.0660   2.1501   2.3874   2.5489   2.6670   2.7133

          k =-0.0888 0.1197 0.0000 ( 17122 PWs)   bands (ev):

   -59.2594 -59.2122 -59.1757 -59.1531 -59.1276 -59.1114 -59.0801 -59.0623
   -59.0368 -59.0181 -59.0130 -58.9954 -33.6494 -33.6238 -33.5965 -33.5894
   -33.5751 -33.5627 -33.4940 -33.4805 -33.4229 -33.3735 -33.3654 -33.3378
   -33.3201 -33.2591 -33.2583 -33.1794 -33.1507 -33.0772 -33.0717 -33.0603
   -33.0550 -33.0413 -33.0006 -32.9649 -32.9527 -32.9416 -32.8896 -32.8740
   -32.8622 -32.8493 -32.8025 -32.7883 -32.7772 -32.7561 -32.7314 -32.6767
   -10.0612  -2.7859  -2.2233  -1.7929  -1.7721  -1.7233  -1.6492  -1.6323
    -1.3493  -1.2885  -1.2595  -1.1762  -0.9254  -0.9042  -0.8686  -0.6863
    -0.5095  -0.3344  -0.3113  -0.2328  -0.0454  -0.0261   0.0862   0.1718
     0.3091   0.4298   0.5036   0.6319   0.7672   0.8105   0.8390   0.9454
     0.9684   1.0859   1.1851   1.2309   1.2767   1.5184   1.6294   1.6749
     1.8477   1.9819   2.0660   2.1501   2.3874   2.5488   2.6670   2.7134

          k =-0.0888-0.0513 0.0000 ( 17160 PWs)   bands (ev):

   -59.2516 -59.2299 -59.1586 -59.1415 -59.1366 -59.1313 -59.0721 -59.0454
   -59.0396 -59.0364 -59.0070 -58.9951 -33.6383 -33.6209 -33.6097 -33.6070
   -33.5948 -33.5921 -33.4687 -33.4595 -33.4161 -33.4037 -33.3545 -33.3427
   -33.2427 -33.2357 -33.1604 -33.1590 -33.1522 -33.1489 -33.1067 -33.1055
   -33.0310 -33.0184 -33.0125 -33.0027 -33.0001 -32.9961 -32.8971 -32.8767
   -32.8480 -32.8250 -32.7914 -32.7848 -32.7787 -32.7772 -32.6778 -32.6745
   -10.0612  -2.6091  -2.6013  -1.8355  -1.8256  -1.6889  -1.6882  -1.4893
    -1.4593  -1.3172  -1.2932  -0.9627  -0.9328  -0.8625  -0.8164  -0.6705
    -0.6637  -0.2630  -0.1999  -0.1004  -0.0676  -0.0068   0.0239   0.1971
     0.4107   0.5316   0.5937   0.7219   0.7954   0.8985   0.9486   1.0332
     1.0612   1.0859   1.1404   1.1692   1.2441   1.4234   1.4400   1.6502
     1.8329   1.8888   2.1291   2.1931   2.5371   2.6489   2.6557   2.6605

     the Fermi energy is     1.7599 ev

!    total energy              =   -1699.33625415 Ry
     Harris-Foulkes estimate   =   -1699.33625524 Ry
     estimated scf accuracy    <       0.00000281 Ry

     The total energy is the sum of the following terms:

     one-electron contribution =  -15416.58138548 Ry
     hartree contribution      =    7702.03000093 Ry
     xc contribution           =    -245.25500496 Ry
     ewald contribution        =    6260.57260246 Ry
     electric field correction =       0.00073935 Ry
     smearing contrib. (-TS)   =      -0.10320645 Ry

     convergence has been achieved in  20 iterations
 
 BEEF-vdW xc energy contributions
           1 :   -210.540052581143     
           2 :    192.102550610902     
           3 :   -160.645323916123     
           4 :    124.576020954294     
           5 :   -92.1520992922657     
           6 :    68.9142968065102     
           7 :   -56.4955206068134     
           8 :    52.9412215679768     
           9 :   -54.1960904142860     
          10 :    56.0010102901549     
          11 :   -55.4546875731907     
          12 :    51.7140598456630     
          13 :   -45.7483373786117     
          14 :    39.4254189286968     
          15 :   -34.4419996946158     
          16 :    31.5491851149413     
          17 :   -30.3515965146344     
          18 :    29.6753486221987     
          19 :   -28.2632154735912     
          20 :    25.4161576250964     
          21 :   -21.2829758395619     
          22 :    16.6973791044560     
          23 :   -12.6981618133314     
          24 :    9.99685638967861     
          25 :   -8.65812423246444     
          26 :    8.12035451674436     
          27 :   -7.52105675122010     
          28 :    6.14001298061322     
          29 :   -3.73500887482538     
          30 :   0.616574552622694     
          31 :   -24.0746123824226     
          32 :   -18.4091625071307     

     Forces acting on atoms (Ry/au):


     negative rho (up, down):  4.849E-03 0.000E+00
     atom    1 type  1   force =     0.00043047    0.00024954   -0.00440198
     atom    2 type  1   force =    -0.00043106    0.00024772   -0.00441173
     atom    3 type  1   force =    -0.00000143   -0.00049714   -0.00440364
     atom    4 type  1   force =     0.00000320    0.00000024   -0.00066911
     atom    5 type  1   force =     0.00000413    0.00492629   -0.00461755
     atom    6 type  1   force =    -0.00000511    0.00000361    0.01421010
     atom    7 type  1   force =    -0.00426363   -0.00246711   -0.00461334
     atom    8 type  1   force =     0.00426672   -0.00246428   -0.00462575
     atom    9 type  1   force =    -0.00000188    0.00000116    0.21532125
     atom   10 type  1   force =     0.00000010    0.00248365    0.00098368
     atom   11 type  1   force =     0.00214991   -0.00124151    0.00097547
     atom   12 type  1   force =    -0.00215204   -0.00124183    0.00098395
     atom   13 type  2   force =     0.00000062   -0.00000034   -0.20473137

     Total force =     0.297822     Total SCF correction =     0.008122


     entering subroutine stress ...


     negative rho (up, down):  4.849E-03 0.000E+00
          total   stress  (Ry/bohr**3)                   (kbar)     P=  -26.93
  -0.00018784   0.00000000  -0.00000000        -27.63      0.00     -0.00
   0.00000000  -0.00018784   0.00000000          0.00    -27.63      0.00
  -0.00000000   0.00000000  -0.00017358         -0.00      0.00    -25.54

 !ASE

     Writing output data file calc.save
 
     init_run     :     14.01s CPU     22.36s WALL (       1 calls)
     electrons    :    556.03s CPU    874.53s WALL (       1 calls)
     forces       :      3.78s CPU      4.81s WALL (       1 calls)
     stress       :     10.24s CPU     12.02s WALL (       1 calls)

     Called by init_run:
     wfcinit      :     11.56s CPU     18.81s WALL (       1 calls)
     potinit      :      1.34s CPU      2.20s WALL (       1 calls)

     Called by electrons:
     c_bands      :    419.94s CPU    649.82s WALL (      20 calls)
     sum_band     :     68.62s CPU    112.71s WALL (      20 calls)
     v_of_rho     :     22.43s CPU     39.04s WALL (      21 calls)
     newd         :     10.24s CPU     11.20s WALL (      21 calls)
     mix_rho      :      0.89s CPU      1.51s WALL (      20 calls)
     vdW_energy   :      3.15s CPU      3.49s WALL (      57 calls)
     vdW_ffts     :     35.04s CPU     66.41s WALL (     116 calls)
     vdW_v        :      7.10s CPU     11.73s WALL (      57 calls)

     Called by c_bands:
     init_us_2    :      1.22s CPU      1.27s WALL (     860 calls)
     cegterg      :    411.66s CPU    640.46s WALL (     400 calls)

     Called by *egterg:
     h_psi        :    283.99s CPU    502.25s WALL (    1825 calls)
     s_psi        :     11.38s CPU     11.53s WALL (    1825 calls)
     g_psi        :      0.65s CPU      0.65s WALL (    1405 calls)
     cdiaghg      :     74.72s CPU     77.48s WALL (    1805 calls)

     Called by h_psi:
     add_vuspsi   :     11.78s CPU     11.80s WALL (    1825 calls)

     General routines
     calbec       :     21.95s CPU     27.35s WALL (    2265 calls)
     fft          :     53.09s CPU    100.26s WALL (    3489 calls)
     ffts         :      0.18s CPU      0.33s WALL (      41 calls)
     fftw         :    287.07s CPU    541.03s WALL (  227496 calls)
     interpolate  :      0.79s CPU      1.48s WALL (      41 calls)
     davcio       :      0.00s CPU      0.02s WALL (      20 calls)
 
     Parallel routines
     fft_scatter  :    297.70s CPU    596.37s WALL (  231026 calls)
 
     PWSCF        :  9m44.77s CPU    15m15.01s WALL

 
   This run was terminated on:  19:56: 1  14Jan2018            

=------------------------------------------------------------------------------=
   JOB DONE.
=------------------------------------------------------------------------------=
Job  /afs/slac/g/suncat/bin/suncat-tsmpirun -x LD_LIBRARY_PATH -wdir /scratch/qe842458_yTzap pw.x -in pw.inp

TID   HOST_NAME   COMMAND_LINE            STATUS            TERMINATION_TIME
===== ========== ================  =======================  ===================
00000 suncat1058 pw.x -in pw.inp   Done                     01/14/2018 19:56:01
00001 suncat1058 pw.x -in pw.inp   Done                     01/14/2018 19:56:01
00002 suncat1058 pw.x -in pw.inp   Done                     01/14/2018 19:56:01
00003 suncat1058 pw.x -in pw.inp   Done                     01/14/2018 19:56:01
00004 suncat1058 pw.x -in pw.inp   Done                     01/14/2018 19:56:01
00005 suncat1058 pw.x -in pw.inp   Done                     01/14/2018 19:56:01
00006 suncat1058 pw.x -in pw.inp   Done                     01/14/2018 19:56:01
00007 suncat1058 pw.x -in pw.inp   Done                     01/14/2018 19:56:01
00008 suncat1037 pw.x -in pw.inp   Done                     01/14/2018 19:56:01
00009 suncat1037 pw.x -in pw.inp   Done                     01/14/2018 19:56:01
00010 suncat1037 pw.x -in pw.inp   Done                     01/14/2018 19:56:01
00011 suncat1037 pw.x -in pw.inp   Done                     01/14/2018 19:56:01
00012 suncat1037 pw.x -in pw.inp   Done                     01/14/2018 19:56:01
00013 suncat1037 pw.x -in pw.inp   Done                     01/14/2018 19:56:01
00014 suncat1037 pw.x -in pw.inp   Done                     01/14/2018 19:56:01
00015 suncat1037 pw.x -in pw.inp   Done                     01/14/2018 19:56:01
00016 suncat1037 pw.x -in pw.inp   Done                     01/14/2018 19:56:01
00017 suncat1037 pw.x -in pw.inp   Done                     01/14/2018 19:56:01
00018 suncat1037 pw.x -in pw.inp   Done                     01/14/2018 19:56:01
00019 suncat1037 pw.x -in pw.inp   Done                     01/14/2018 19:56:01
00020 suncat1036 pw.x -in pw.inp   Done                     01/14/2018 19:56:01
00021 suncat1036 pw.x -in pw.inp   Done                     01/14/2018 19:56:01
00022 suncat1036 pw.x -in pw.inp   Done                     01/14/2018 19:56:01
00023 suncat1036 pw.x -in pw.inp   Done                     01/14/2018 19:56:01
00024 suncat1036 pw.x -in pw.inp   Done                     01/14/2018 19:56:01
00025 suncat1036 pw.x -in pw.inp   Done                     01/14/2018 19:56:01
00026 suncat1036 pw.x -in pw.inp   Done                     01/14/2018 19:56:01
00027 suncat1036 pw.x -in pw.inp   Done                     01/14/2018 19:56:01
00028 suncat1036 pw.x -in pw.inp   Done                     01/14/2018 19:56:01
00029 suncat1036 pw.x -in pw.inp   Done                     01/14/2018 19:56:01
00030 suncat1036 pw.x -in pw.inp   Done                     01/14/2018 19:56:01
00031 suncat1036 pw.x -in pw.inp   Done                     01/14/2018 19:56:01

     Program PWSCF v.5.1rc2 (svn rev. 11289) starts on 14Jan2018 at 19:56: 8 

     This program is part of the open-source Quantum ESPRESSO suite
     for quantum simulation of materials; please cite
         "P. Giannozzi et al., J. Phys.:Condens. Matter 21 395502 (2009);
          URL http://www.quantum-espresso.org", 
     in publications or presentations arising from this work. More details at
     http://www.quantum-espresso.org/quote

     Parallel version (MPI), running on    32 processors
     R & G space division:  proc/nbgrp/npool/nimage =      32
     Reading input from pw.inp
     Message from routine read_cards :
     DEPRECATED: no units specified in CELL_PARAMETERS card

     Current dimensions of program PWSCF are:
     Max number of different atomic species (ntypx) = 10
     Max number of k-points (npk) =  40000
     Max angular momentum in pseudopotentials (lmaxx) =  3
     Presently stress not available with electric field


     **************************************************************************
     Initializing libbeef V0.1.1 with the BEEF-vdW functional.
     Citation: Wellendorff et al., PRB 85, 235149 (2012).
     **************************************************************************


     IMPORTANT: XC functional enforced from input :
     Exchange-correlation      = BEEF-VDW ( 1  4 27 13 2)
     Any further DFT definition will be discarded
     Please, verify this is what you really want


     Subspace diagonalization in iterative solution of the eigenvalue problem:
     a serial algorithm will be used

 
     Parallelization info
     --------------------
     sticks:   dense  smooth     PW     G-vecs:    dense   smooth      PW
     Min          89      35     10                16921     4265     672
     Max          90      36     12                16938     4304     683
     Sum        2869    1147    337               541807   137189   21637
 


     bravais-lattice index     =            0
     lattice parameter (alat)  =       1.8897  a.u.
     unit-cell volume          =    4552.2840 (a.u.)^3
     number of atoms/cell      =           13
     number of atomic types    =            2
     number of electrons       =       173.00
     number of Kohn-Sham states=           96
     kinetic-energy cutoff     =      36.7493  Ry
     charge density cutoff     =     367.4932  Ry
     convergence threshold     =      1.0E-05
     mixing beta               =       0.3000
     number of iterations used =           10  plain     mixing
     Exchange-correlation      = BEEF-VDW ( 1  4 27 13 2)
     nstep                     =           50


     celldm(1)=   1.889726  celldm(2)=   0.000000  celldm(3)=   0.000000
     celldm(4)=   0.000000  celldm(5)=   0.000000  celldm(6)=   0.000000

     crystal axes: (cart. coord. in units of alat)
               a(1) = (   5.627661   0.000000   0.000000 )  
               a(2) = (   2.813831   4.873698   0.000000 )  
               a(3) = (   0.000000   0.000000  24.594966 )  

     reciprocal axes: (cart. coord. in units 2 pi/alat)
               b(1) = (  0.177694 -0.102592  0.000000 )  
               b(2) = (  0.000000  0.205183  0.000000 )  
               b(3) = (  0.000000  0.000000  0.040659 )  


     PseudoPot. # 1 for Mo read from file:
     /afs/slac.stanford.edu/u/if/mamunm/psp/gbrv1.5pbe/Mo.UPF
     MD5 check sum: 30c4dcd161f5d35cd49bb5239c51a633
     Pseudo is Ultrasoft + core correction, Zval = 14.0
     Generated by new atomic code, or converted to UPF format
     Using radial grid of  889 points,  6 beta functions with: 
                l(1) =   0
                l(2) =   0
                l(3) =   1
                l(4) =   1
                l(5) =   2
                l(6) =   2
     Q(r) pseudized with  6 coefficients,  rinner =    1.000   1.000   1.000
                                                       1.000   1.000

     PseudoPot. # 2 for N  read from file:
     /afs/slac.stanford.edu/u/if/mamunm/psp/gbrv1.5pbe/N.UPF
     MD5 check sum: 95339753478d7afb44899504a8723017
     Pseudo is Ultrasoft + core correction, Zval =  5.0
     Generated by new atomic code, or converted to UPF format
     Using radial grid of  729 points,  4 beta functions with: 
                l(1) =   0
                l(2) =   0
                l(3) =   1
                l(4) =   1
     Q(r) pseudized with  8 coefficients,  rinner =    0.900   0.900   0.900


     vdW kernel table read from file vdW_kernel_table
     MD5 check sum: 095c7af220d748ca6e76c0b4c6cfb241

     atomic species   valence    mass     pseudopotential
        Mo1           14.00    95.95000     Mo( 1.00)
        N1             5.00    14.00700     N ( 1.00)

     No symmetry found



   Cartesian axes

     site n.     atom                  positions (alat units)
         1           Mo1 tau(   1) = (   1.4069153   0.8122829  10.0000000  )
         2           Mo1 tau(   2) = (   4.2207459   0.8122829  10.0000000  )
         3           Mo1 tau(   3) = (   2.8138306   3.2491317  10.0000000  )
         4           Mo1 tau(   4) = (   5.6276612   3.2491317  10.0000000  )
         5           Mo1 tau(   5) = (   5.6276612   1.6245658  12.2974831  )
         6           Mo1 tau(   6) = (   2.8138306   1.6245658  12.2974831  )
         7           Mo1 tau(   7) = (   7.0345765   4.0614146  12.2974831  )
         8           Mo1 tau(   8) = (   4.2207459   4.0614146  12.2974831  )
         9           Mo1 tau(   9) = (   5.6276594   0.0000011  14.7949661  )
        10           Mo1 tau(  10) = (   2.8138307   0.0023069  14.5958798  )
        11           Mo1 tau(  11) = (   1.4089122   2.4356956  14.5958722  )
        12           Mo1 tau(  12) = (   4.2187470   2.4356953  14.5958800  )
        13           N1  tau(  13) = (   2.8138312   4.8736972  16.6548025  )

     number of k points=    20  Fermi-Dirac smearing, width (Ry)=  0.0110
                       cart. coord. in units 2pi/alat
        k(    1) = (   0.0000000   0.0000000   0.0000000), wk =   0.0555556
        k(    2) = (   0.0000000   0.0341972   0.0000000), wk =   0.1111111
        k(    3) = (   0.0000000   0.0683943   0.0000000), wk =   0.1111111
        k(    4) = (   0.0000000  -0.1025915   0.0000000), wk =   0.0555556
        k(    5) = (   0.0296156  -0.0170986   0.0000000), wk =   0.1111111
        k(    6) = (   0.0296156   0.0170986   0.0000000), wk =   0.1111111
        k(    7) = (   0.0296156   0.0512958   0.0000000), wk =   0.1111111
        k(    8) = (   0.0296156  -0.1196901   0.0000000), wk =   0.1111111
        k(    9) = (   0.0296156  -0.0854929   0.0000000), wk =   0.1111111
        k(   10) = (   0.0296156  -0.0512958   0.0000000), wk =   0.1111111
        k(   11) = (   0.0592312  -0.0341972   0.0000000), wk =   0.1111111
        k(   12) = (   0.0592312   0.0000000   0.0000000), wk =   0.1111111
        k(   13) = (   0.0592312   0.0341972   0.0000000), wk =   0.1111111
        k(   14) = (   0.0592312  -0.1367887   0.0000000), wk =   0.1111111
        k(   15) = (   0.0592312  -0.1025915   0.0000000), wk =   0.1111111
        k(   16) = (   0.0592312  -0.0683943   0.0000000), wk =   0.1111111
        k(   17) = (  -0.0888469   0.0512958   0.0000000), wk =   0.0555556
        k(   18) = (  -0.0888469   0.0854929   0.0000000), wk =   0.1111111
        k(   19) = (  -0.0888469   0.1196901   0.0000000), wk =   0.1111111
        k(   20) = (  -0.0888469  -0.0512958   0.0000000), wk =   0.0555556

     Dense  grid:   541807 G-vectors     FFT dimensions: (  72,  72, 288)

     Smooth grid:   137189 G-vectors     FFT dimensions: (  45,  45, 180)

     Largest allocated arrays     est. size (Mb)     dimensions
        Kohn-Sham Wavefunctions         0.83 Mb     (     564,   96)
        NL pseudopotentials             1.93 Mb     (     564,  224)
        Each V/rho on FFT grid          0.71 Mb     (   46656)
        Each G-vector array             0.13 Mb     (   16923)
        G-vector shells                 0.06 Mb     (    7559)
     Largest temporary arrays     est. size (Mb)     dimensions
        Auxiliary wavefunctions         3.30 Mb     (     564,  384)
        Each subspace H/S matrix        2.25 Mb     (     384,  384)
        Each <psi_i|beta_j> matrix      0.33 Mb     (     224,   96)
        Arrays for rho mixing           7.12 Mb     (   46656,   10)

     Initial potential from superposition of free atoms
     Check: negative starting charge=   -0.004940

     starting charge  172.98723, renormalised to  173.00000

     negative rho (up, down):  4.940E-03 0.000E+00


     ************************************************************************
     *
     * You are using vdW-DF for exchange-correlation in this calculation.
     * Please cite the following three references that made this development
     * possible:
     *
     *   M. Dion, H. Rydberg, E. Schroder, D. C. Langreth, and
     *   B. I. Lundqvist, Phys. Rev. Lett. 92, 246401 (2004).
     *
     *   T. Thonhauser, V. R. Cooper, S. Li, A. Puzder, P. Hyldgaard, and
     *   D. C. Langreth, Phys. Rev. B 76, 125112 (2007).
     *
     *   G. Roman-Perez and J. M. Soler, Phys. Rev. Lett. 103, 096102 (2009).
     *
     *
     * If you are using vdW-DF2, please also cite:
     *
     *   K. Lee, E. D. Murray, L. Kong, B. I. Lundqvist, and
     *   D. C. Langreth, Phys. Rev. B 82, 081101(R) (2010).
     *
     *
     * If you are calculating the stress with vdW-DF, please also cite:
     *
     *   R. Sabatini, E. Kucukbenli, B. Kolb, T. Thonhauser, and
     *   S. de Gironcoli, J. Phys.: Condens. Matter 24, 424209 (2012).
     *
     ************************************************************************

     Carrying out vdW-DF run using the following parameters:

     Nqs =      20    Nr_points =    1024   r_max =   100.000
     q_mesh =
               0.00001000     0.04494208     0.09755937     0.15916263
               0.23128650     0.31572767     0.41458969     0.53033537
               0.66584808     0.82450364     1.01025438     1.22772762
               1.48234092     1.78043706     2.12944203     2.53805004
               3.01644009     3.57652955     4.23227104     5.00000000

     Gradients computed in reciprocal space

     ************************************************************************


 
     Adding external electric field

     Computed dipole along edir(3) : 
        Dipole               -0.0030 Ry au,         -0.0075 Debye
        Dipole field         -0.0000 Ry au
 
        Potential amp.        0.0007 Ry
        Total length         45.3158 bohr
 
     Starting wfc are  160 randomized atomic wfcs

     total cpu time spent up to now is       22.5 secs

     per-process dynamical memory:    49.5 Mb

     Self-consistent Calculation

     iteration #  1     ecut=    36.75 Ry     beta=0.30
     Davidson diagonalization with overlap
     ethr =  1.00E-02,  avg # of iterations =  2.0

     negative rho (up, down):  4.864E-03 0.000E+00
 
     Adding external electric field

     Computed dipole along edir(3) : 
        Dipole               -2.4608 Ry au,         -6.2547 Debye
        Dipole field         -0.0068 Ry au
 
        Potential amp.        0.6156 Ry
        Total length         45.3158 bohr
 

     total cpu time spent up to now is       59.1 secs

     total energy              =   -1697.27443975 Ry
     Harris-Foulkes estimate   =   -1700.03372897 Ry
     estimated scf accuracy    <       5.83335540 Ry

     iteration #  2     ecut=    36.75 Ry     beta=0.30
     Davidson diagonalization with overlap
     ethr =  3.37E-03,  avg # of iterations =  9.7

     negative rho (up, down):  3.275E-03 0.000E+00
 
     Adding external electric field

     Computed dipole along edir(3) : 
        Dipole                2.0870 Ry au,          5.3047 Debye
        Dipole field          0.0058 Ry au
 
        Potential amp.       -0.5221 Ry
        Total length         45.3158 bohr
 

     total cpu time spent up to now is      130.2 secs

     total energy              =   -1690.20320460 Ry
     Harris-Foulkes estimate   =   -1707.03453298 Ry
     estimated scf accuracy    <     299.74912154 Ry

     iteration #  3     ecut=    36.75 Ry     beta=0.30
     Davidson diagonalization with overlap
     ethr =  3.37E-03,  avg # of iterations =  8.3

     negative rho (up, down):  3.408E-03 0.000E+00
 
     Adding external electric field

     Computed dipole along edir(3) : 
        Dipole                0.1108 Ry au,          0.2816 Debye
        Dipole field          0.0003 Ry au
 
        Potential amp.       -0.0277 Ry
        Total length         45.3158 bohr
 

     total cpu time spent up to now is      198.9 secs

     total energy              =   -1694.50904734 Ry
     Harris-Foulkes estimate   =   -1705.38939620 Ry
     estimated scf accuracy    <     367.23764492 Ry

     iteration #  4     ecut=    36.75 Ry     beta=0.30
     Davidson diagonalization with overlap
     ethr =  3.37E-03,  avg # of iterations =  6.5

     negative rho (up, down):  3.077E-03 0.000E+00
 
     Adding external electric field

     Computed dipole along edir(3) : 
        Dipole                0.4457 Ry au,          1.1329 Debye
        Dipole field          0.0012 Ry au
 
        Potential amp.       -0.1115 Ry
        Total length         45.3158 bohr
 

     total cpu time spent up to now is      249.8 secs

     total energy              =   -1699.32316451 Ry
     Harris-Foulkes estimate   =   -1699.63335203 Ry
     estimated scf accuracy    <       2.39382197 Ry

     iteration #  5     ecut=    36.75 Ry     beta=0.30
     Davidson diagonalization with overlap
     ethr =  1.38E-03,  avg # of iterations =  3.2

     negative rho (up, down):  2.943E-03 0.000E+00
 
     Adding external electric field

     Computed dipole along edir(3) : 
        Dipole                0.1116 Ry au,          0.2836 Debye
        Dipole field          0.0003 Ry au
 
        Potential amp.       -0.0279 Ry
        Total length         45.3158 bohr
 

     total cpu time spent up to now is      286.4 secs

     total energy              =   -1699.45898619 Ry
     Harris-Foulkes estimate   =   -1699.53463605 Ry
     estimated scf accuracy    <       0.38152159 Ry

     iteration #  6     ecut=    36.75 Ry     beta=0.30
     Davidson diagonalization with overlap
     ethr =  2.21E-04,  avg # of iterations =  5.3

     negative rho (up, down):  2.885E-03 0.000E+00
 
     Adding external electric field

     Computed dipole along edir(3) : 
        Dipole                0.0737 Ry au,          0.1873 Debye
        Dipole field          0.0002 Ry au
 
        Potential amp.       -0.0184 Ry
        Total length         45.3158 bohr
 

     total cpu time spent up to now is      332.0 secs

     total energy              =   -1699.47355642 Ry
     Harris-Foulkes estimate   =   -1699.50970610 Ry
     estimated scf accuracy    <       0.24217845 Ry

     iteration #  7     ecut=    36.75 Ry     beta=0.30
     Davidson diagonalization with overlap
     ethr =  1.40E-04,  avg # of iterations =  3.0

     negative rho (up, down):  2.946E-03 0.000E+00
 
     Adding external electric field

     Computed dipole along edir(3) : 
        Dipole               -0.0959 Ry au,         -0.2438 Debye
        Dipole field         -0.0003 Ry au
 
        Potential amp.        0.0240 Ry
        Total length         45.3158 bohr
 

     total cpu time spent up to now is      368.0 secs

     total energy              =   -1699.48179216 Ry
     Harris-Foulkes estimate   =   -1699.49081009 Ry
     estimated scf accuracy    <       0.05826090 Ry

     iteration #  8     ecut=    36.75 Ry     beta=0.30
     Davidson diagonalization with overlap
     ethr =  3.37E-05,  avg # of iterations =  5.5

     negative rho (up, down):  3.043E-03 0.000E+00
 
     Adding external electric field

     Computed dipole along edir(3) : 
        Dipole               -0.2441 Ry au,         -0.6205 Debye
        Dipole field         -0.0007 Ry au
 
        Potential amp.        0.0611 Ry
        Total length         45.3158 bohr
 

     total cpu time spent up to now is      415.4 secs

     total energy              =   -1699.48495028 Ry
     Harris-Foulkes estimate   =   -1699.49294032 Ry
     estimated scf accuracy    <       0.06591791 Ry

     iteration #  9     ecut=    36.75 Ry     beta=0.30
     Davidson diagonalization with overlap
     ethr =  3.37E-05,  avg # of iterations =  2.6

     negative rho (up, down):  3.200E-03 0.000E+00
 
     Adding external electric field

     Computed dipole along edir(3) : 
        Dipole               -0.3678 Ry au,         -0.9350 Debye
        Dipole field         -0.0010 Ry au
 
        Potential amp.        0.0920 Ry
        Total length         45.3158 bohr
 

     total cpu time spent up to now is      449.6 secs

     total energy              =   -1699.48398157 Ry
     Harris-Foulkes estimate   =   -1699.48750249 Ry
     estimated scf accuracy    <       0.03627604 Ry

     iteration # 10     ecut=    36.75 Ry     beta=0.30
     Davidson diagonalization with overlap
     ethr =  2.10E-05,  avg # of iterations =  3.1

     negative rho (up, down):  3.351E-03 0.000E+00
 
     Adding external electric field

     Computed dipole along edir(3) : 
        Dipole               -0.3823 Ry au,         -0.9717 Debye
        Dipole field         -0.0011 Ry au
 
        Potential amp.        0.0956 Ry
        Total length         45.3158 bohr
 

     total cpu time spent up to now is      486.1 secs

     total energy              =   -1699.48523982 Ry
     Harris-Foulkes estimate   =   -1699.48646672 Ry
     estimated scf accuracy    <       0.01070381 Ry

     iteration # 11     ecut=    36.75 Ry     beta=0.30
     Davidson diagonalization with overlap
     ethr =  6.19E-06,  avg # of iterations =  4.2

     negative rho (up, down):  3.602E-03 0.000E+00
 
     Adding external electric field

     Computed dipole along edir(3) : 
        Dipole               -0.3896 Ry au,         -0.9904 Debye
        Dipole field         -0.0011 Ry au
 
        Potential amp.        0.0975 Ry
        Total length         45.3158 bohr
 

     total cpu time spent up to now is      526.9 secs

     total energy              =   -1699.48623609 Ry
     Harris-Foulkes estimate   =   -1699.48637705 Ry
     estimated scf accuracy    <       0.00234862 Ry

     iteration # 12     ecut=    36.75 Ry     beta=0.30
     Davidson diagonalization with overlap
     ethr =  1.36E-06,  avg # of iterations =  3.9

     negative rho (up, down):  3.888E-03 0.000E+00
 
     Adding external electric field

     Computed dipole along edir(3) : 
        Dipole               -0.4060 Ry au,         -1.0321 Debye
        Dipole field         -0.0011 Ry au
 
        Potential amp.        0.1016 Ry
        Total length         45.3158 bohr
 

     total cpu time spent up to now is      567.1 secs

     total energy              =   -1699.48630990 Ry
     Harris-Foulkes estimate   =   -1699.48649779 Ry
     estimated scf accuracy    <       0.00227931 Ry

     iteration # 13     ecut=    36.75 Ry     beta=0.30
     Davidson diagonalization with overlap
     ethr =  1.32E-06,  avg # of iterations =  1.1

     negative rho (up, down):  4.540E-03 0.000E+00
 
     Adding external electric field

     Computed dipole along edir(3) : 
        Dipole               -0.4320 Ry au,         -1.0980 Debye
        Dipole field         -0.0012 Ry au
 
        Potential amp.        0.1081 Ry
        Total length         45.3158 bohr
 

     total cpu time spent up to now is      599.3 secs

     total energy              =   -1699.48639108 Ry
     Harris-Foulkes estimate   =   -1699.48635033 Ry
     estimated scf accuracy    <       0.00035163 Ry

     iteration # 14     ecut=    36.75 Ry     beta=0.30
     Davidson diagonalization with overlap
     ethr =  2.03E-07,  avg # of iterations =  4.5

     negative rho (up, down):  4.639E-03 0.000E+00
 
     Adding external electric field

     Computed dipole along edir(3) : 
        Dipole               -0.4336 Ry au,         -1.1021 Debye
        Dipole field         -0.0012 Ry au
 
        Potential amp.        0.1085 Ry
        Total length         45.3158 bohr
 

     total cpu time spent up to now is      647.5 secs

     total energy              =   -1699.48645854 Ry
     Harris-Foulkes estimate   =   -1699.48648170 Ry
     estimated scf accuracy    <       0.00039077 Ry

     iteration # 15     ecut=    36.75 Ry     beta=0.30
     Davidson diagonalization with overlap
     ethr =  2.03E-07,  avg # of iterations =  1.0

     negative rho (up, down):  4.783E-03 0.000E+00
 
     Adding external electric field

     Computed dipole along edir(3) : 
        Dipole               -0.4381 Ry au,         -1.1134 Debye
        Dipole field         -0.0012 Ry au
 
        Potential amp.        0.1096 Ry
        Total length         45.3158 bohr
 

     total cpu time spent up to now is      679.8 secs

     total energy              =   -1699.48642451 Ry
     Harris-Foulkes estimate   =   -1699.48645487 Ry
     estimated scf accuracy    <       0.00020697 Ry

     iteration # 16     ecut=    36.75 Ry     beta=0.30
     Davidson diagonalization with overlap
     ethr =  1.20E-07,  avg # of iterations =  3.8

     negative rho (up, down):  4.921E-03 0.000E+00
 
     Adding external electric field

     Computed dipole along edir(3) : 
        Dipole               -0.4440 Ry au,         -1.1286 Debye
        Dipole field         -0.0012 Ry au
 
        Potential amp.        0.1111 Ry
        Total length         45.3158 bohr
 

     total cpu time spent up to now is      723.7 secs

     total energy              =   -1699.48646157 Ry
     Harris-Foulkes estimate   =   -1699.48645965 Ry
     estimated scf accuracy    <       0.00018358 Ry

     iteration # 17     ecut=    36.75 Ry     beta=0.30
     Davidson diagonalization with overlap
     ethr =  1.06E-07,  avg # of iterations =  2.4

     negative rho (up, down):  4.937E-03 0.000E+00
 
     Adding external electric field

     Computed dipole along edir(3) : 
        Dipole               -0.4406 Ry au,         -1.1199 Debye
        Dipole field         -0.0012 Ry au
 
        Potential amp.        0.1102 Ry
        Total length         45.3158 bohr
 

     total cpu time spent up to now is      757.4 secs

     total energy              =   -1699.48644599 Ry
     Harris-Foulkes estimate   =   -1699.48648117 Ry
     estimated scf accuracy    <       0.00069553 Ry

     iteration # 18     ecut=    36.75 Ry     beta=0.30
     Davidson diagonalization with overlap
     ethr =  1.06E-07,  avg # of iterations =  2.7

     negative rho (up, down):  5.024E-03 0.000E+00

     negative rho (up, down):  5.024E-03 0.000E+00

     negative rho (up, down):  5.024E-03 0.000E+00

     negative rho (up, down):  5.024E-03 0.000E+00

     negative rho (up, down):  5.024E-03 0.000E+00

     negative rho (up, down):  5.024E-03 0.000E+00

     negative rho (up, down):  5.024E-03 0.000E+00

     negative rho (up, down):  5.024E-03 0.000E+00

     negative rho (up, down):  5.024E-03 0.000E+00

     negative rho (up, down):  5.024E-03 0.000E+00

     negative rho (up, down):  5.024E-03 0.000E+00

     negative rho (up, down):  5.024E-03 0.000E+00

     negative rho (up, down):  5.024E-03 0.000E+00

     negative rho (up, down):  5.024E-03 0.000E+00

     negative rho (up, down):  5.024E-03 0.000E+00

     negative rho (up, down):  5.024E-03 0.000E+00

     negative rho (up, down):  5.024E-03 0.000E+00

     negative rho (up, down):  5.024E-03 0.000E+00

     negative rho (up, down):  5.024E-03 0.000E+00

     negative rho (up, down):  5.024E-03 0.000E+00

     negative rho (up, down):  5.024E-03 0.000E+00

     negative rho (up, down):  5.024E-03 0.000E+00

     negative rho (up, down):  5.024E-03 0.000E+00

     negative rho (up, down):  5.024E-03 0.000E+00

     negative rho (up, down):  5.024E-03 0.000E+00

     negative rho (up, down):  5.024E-03 0.000E+00

     negative rho (up, down):  5.024E-03 0.000E+00

     negative rho (up, down):  5.024E-03 0.000E+00

     negative rho (up, down):  5.024E-03 0.000E+00

     negative rho (up, down):  5.024E-03 0.000E+00

     negative rho (up, down):  5.024E-03 0.000E+00

     negative rho (up, down):  5.024E-03 0.000E+00

     negative rho (up, down):  5.024E-03 0.000E+00

     negative rho (up, down):  5.024E-03 0.000E+00

     negative rho (up, down):  5.024E-03 0.000E+00
 
     Adding external electric field

     Computed dipole along edir(3) : 
        Dipole               -0.4426 Ry au,         -1.1249 Debye
        Dipole field         -0.0012 Ry au
 
        Potential amp.        0.1107 Ry
        Total length         45.3158 bohr
 

     total cpu time spent up to now is      852.7 secs

     End of self-consistent calculation

          k = 0.0000 0.0000 0.0000 ( 17111 PWs)   bands (ev):

   -59.2108 -59.1292 -59.0396 -59.0304 -59.0298 -58.9948 -58.9687 -58.9679
   -58.9459 -58.9303 -58.9252 -58.9247 -33.7362 -33.7270 -33.7267 -33.6662
   -33.6265 -33.6238 -33.6237 -33.5470 -33.5468 -33.5448 -33.2527 -33.1570
   -33.1118 -33.1114 -33.0457 -33.0389 -33.0386 -32.9211 -32.9115 -32.9112
   -32.8475 -32.8180 -32.8175 -32.8084 -32.7785 -32.7781 -32.7413 -32.6991
   -32.6988 -32.6926 -32.6345 -32.6344 -32.5633 -32.5633 -32.4971 -32.4971
   -10.3806  -4.0977  -2.7701  -2.6336  -2.6081  -2.6079  -2.5921  -2.2068
[...]
   -32.7741 -32.7594 -32.7210 -32.6995 -32.6823 -32.6482 -32.6249 -32.5660
   -10.3211  -2.7493  -2.2246  -1.9037  -1.8003  -1.7721  -1.6361  -1.5826
    -1.4667  -1.3758  -1.2759  -1.1657  -1.0946  -0.9890  -0.8282  -0.7794
    -0.7188  -0.6583  -0.4705  -0.3603  -0.1119  -0.0590  -0.0427   0.1138
     0.1882   0.3386   0.4540   0.5661   0.6553   0.8172   0.8407   0.9018
     0.9931   1.0650   1.2054   1.2886   1.3661   1.4433   1.5524   1.6951
     1.7768   1.8853   2.2715   2.4171   2.5115   2.5625   2.8080   2.8621

          k = 0.0296-0.0513 0.0000 ( 17106 PWs)   bands (ev):

   -59.2270 -59.1275 -59.0907 -59.0820 -59.0425 -59.0359 -59.0278 -59.0124
   -58.9922 -58.9352 -58.9260 -58.7718 -33.7494 -33.7025 -33.6754 -33.6516
   -33.6115 -33.5979 -33.5895 -33.4800 -33.4122 -33.3778 -33.3086 -33.2527
   -33.2144 -33.2055 -33.1540 -33.0730 -33.0152 -33.0071 -32.9979 -32.9591
   -32.9578 -32.8982 -32.8624 -32.8499 -32.8457 -32.8307 -32.7803 -32.7730
   -32.7525 -32.7339 -32.7068 -32.6741 -32.6709 -32.6321 -32.5939 -32.5240
   -10.3232  -3.4707  -2.3926  -2.3133  -2.1852  -2.1140  -2.0350  -1.9857
    -1.9090  -1.7690  -1.6920  -1.6110  -1.5119  -1.2747  -1.1520  -1.0185
    -0.9107  -0.7937  -0.7122  -0.4568  -0.0363   0.0355   0.2294   0.4331
     0.6322   0.6704   0.7048   0.7875   0.8586   1.1160   1.1962   1.2858
     1.3466   1.4369   1.4950   1.5818   1.6301   1.8502   1.9040   1.9874
     2.1944   2.2505   2.3568   2.4599   2.4815   2.5773   2.8632   2.9147

          k = 0.0592-0.0342 0.0000 ( 17142 PWs)   bands (ev):

   -59.2160 -59.1217 -59.1118 -59.0608 -59.0546 -59.0461 -59.0202 -59.0143
   -58.9890 -58.9400 -58.9247 -58.7725 -33.7189 -33.6908 -33.6563 -33.6128
   -33.5854 -33.5777 -33.5687 -33.4661 -33.3714 -33.3662 -33.3005 -33.2655
   -33.2328 -33.2000 -33.1627 -33.0534 -33.0384 -33.0078 -32.9963 -32.9823
   -32.9655 -32.9296 -32.9114 -32.8952 -32.8449 -32.8310 -32.7786 -32.7727
   -32.7598 -32.7333 -32.7261 -32.7169 -32.6596 -32.6184 -32.6175 -32.5280
   -10.3225  -3.2788  -2.3964  -2.1911  -2.0695  -2.0070  -1.9478  -1.8445
    -1.6604  -1.6430  -1.6210  -1.4991  -1.3914  -1.2402  -1.0713  -0.9208
    -0.7924  -0.7055  -0.6342  -0.4181  -0.1194  -0.0005   0.1745   0.2349
     0.5641   0.6190   0.7019   0.7862   0.8335   0.9878   1.1411   1.2295
     1.2770   1.3970   1.5201   1.5377   1.6055   1.6736   1.8732   1.8888
     2.0247   2.1005   2.2368   2.2897   2.4077   2.4983   2.8198   2.8341

          k = 0.0592 0.0000 0.0000 ( 17106 PWs)   bands (ev):

   -59.2270 -59.1275 -59.0906 -59.0821 -59.0425 -59.0359 -59.0278 -59.0124
   -58.9922 -58.9354 -58.9259 -58.7718 -33.7495 -33.7023 -33.6755 -33.6517
   -33.6115 -33.5979 -33.5895 -33.4800 -33.4122 -33.3779 -33.3085 -33.2527
   -33.2144 -33.2055 -33.1540 -33.0730 -33.0152 -33.0071 -32.9979 -32.9590
   -32.9579 -32.8981 -32.8624 -32.8499 -32.8457 -32.8307 -32.7804 -32.7730
   -32.7524 -32.7340 -32.7068 -32.6740 -32.6709 -32.6321 -32.5939 -32.5241
   -10.3232  -3.4707  -2.3926  -2.3132  -2.1851  -2.1140  -2.0350  -1.9857
    -1.9089  -1.7691  -1.6920  -1.6110  -1.5119  -1.2747  -1.1519  -1.0185
    -0.9107  -0.7937  -0.7122  -0.4568  -0.0363   0.0354   0.2294   0.4330
     0.6322   0.6704   0.7048   0.7875   0.8586   1.1160   1.1962   1.2858
     1.3466   1.4369   1.4950   1.5819   1.6301   1.8502   1.9039   1.9874
     2.1944   2.2505   2.3568   2.4598   2.4814   2.5774   2.8632   2.9146

          k = 0.0592 0.0342 0.0000 ( 17142 PWs)   bands (ev):

   -59.2160 -59.1217 -59.1117 -59.0610 -59.0544 -59.0461 -59.0204 -59.0141
   -58.9890 -58.9400 -58.9247 -58.7725 -33.7190 -33.6906 -33.6564 -33.6128
   -33.5854 -33.5777 -33.5687 -33.4661 -33.3715 -33.3662 -33.3005 -33.2654
   -33.2329 -33.2000 -33.1626 -33.0536 -33.0382 -33.0079 -32.9963 -32.9824
   -32.9655 -32.9295 -32.9114 -32.8951 -32.8448 -32.8310 -32.7785 -32.7728
   -32.7599 -32.7334 -32.7260 -32.7169 -32.6596 -32.6184 -32.6175 -32.5280
   -10.3225  -3.2788  -2.3964  -2.1912  -2.0695  -2.0070  -1.9478  -1.8445
    -1.6605  -1.6430  -1.6209  -1.4991  -1.3914  -1.2402  -1.0713  -0.9208
    -0.7924  -0.7055  -0.6342  -0.4181  -0.1194  -0.0005   0.1745   0.2349
     0.5641   0.6190   0.7019   0.7862   0.8335   0.9878   1.1411   1.2295
     1.2770   1.3970   1.5201   1.5377   1.6056   1.6737   1.8733   1.8888
     2.0248   2.1005   2.2367   2.2896   2.4077   2.4983   2.8197   2.8341

          k = 0.0592-0.1368 0.0000 ( 17122 PWs)   bands (ev):

   -59.1856 -59.1342 -59.0986 -59.0917 -59.0614 -59.0389 -59.0264 -59.0085
   -58.9793 -58.9469 -58.9276 -58.7737 -33.6597 -33.6173 -33.5900 -33.5654
   -33.5443 -33.5334 -33.4892 -33.4133 -33.3662 -33.3403 -33.3225 -33.2708
   -33.2288 -33.2038 -33.1648 -33.1459 -33.0701 -33.0424 -33.0090 -32.9993
   -32.9683 -32.9613 -32.9261 -32.9047 -32.8871 -32.8574 -32.8249 -32.8020
   -32.7741 -32.7594 -32.7211 -32.6995 -32.6823 -32.6482 -32.6249 -32.5660
   -10.3211  -2.7493  -2.2246  -1.9037  -1.8003  -1.7720  -1.6361  -1.5826
    -1.4666  -1.3759  -1.2760  -1.1657  -1.0946  -0.9890  -0.8281  -0.7794
    -0.7188  -0.6583  -0.4706  -0.3603  -0.1119  -0.0591  -0.0427   0.1138
     0.1882   0.3386   0.4540   0.5661   0.6554   0.8173   0.8407   0.9017
     0.9931   1.0649   1.2054   1.2885   1.3660   1.4433   1.5524   1.6951
     1.7768   1.8855   2.2715   2.4172   2.5115   2.5625   2.8079   2.8621

          k = 0.0592-0.1026 0.0000 ( 17100 PWs)   bands (ev):

   -59.1523 -59.1366 -59.1338 -59.0753 -59.0639 -59.0590 -59.0140 -59.0105
   -58.9714 -58.9508 -58.9312 -58.7742 -33.5969 -33.5773 -33.5565 -33.5240
   -33.5125 -33.4850 -33.4577 -33.4453 -33.4101 -33.3130 -33.2689 -33.2638
   -33.2360 -33.2198 -33.2151 -33.1694 -33.1268 -33.0563 -33.0528 -33.0090
   -32.9593 -32.9553 -32.9418 -32.9093 -32.8686 -32.8523 -32.8301 -32.7942
   -32.7920 -32.7767 -32.7522 -32.7034 -32.6763 -32.6639 -32.6183 -32.6145
   -10.3204  -2.1400  -2.0741  -2.0678  -1.6067  -1.4866  -1.4797  -1.4203
    -1.2898  -1.1322  -1.0994  -0.9930  -0.8560  -0.8101  -0.7925  -0.7849
    -0.6574  -0.5865  -0.5495  -0.2877  -0.2415  -0.0525  -0.0156   0.0303
     0.1270   0.1379   0.1838   0.4061   0.4217   0.4247   0.5143   0.5684
     0.7821   0.8691   0.9257   0.9897   1.0602   1.5607   1.7006   1.7038
     1.7525   1.9329   2.0947   2.2268   2.4713   2.6592   2.7632   3.0360

          k = 0.0592-0.0684 0.0000 ( 17122 PWs)   bands (ev):

   -59.1856 -59.1342 -59.0987 -59.0916 -59.0613 -59.0388 -59.0264 -59.0086
   -58.9793 -58.9468 -58.9276 -58.7737 -33.6596 -33.6173 -33.5900 -33.5655
   -33.5442 -33.5334 -33.4892 -33.4133 -33.3662 -33.3403 -33.3225 -33.2709
   -33.2288 -33.2039 -33.1648 -33.1459 -33.0700 -33.0424 -33.0090 -32.9993
   -32.9683 -32.9613 -32.9261 -32.9047 -32.8870 -32.8574 -32.8251 -32.8020
   -32.7740 -32.7594 -32.7210 -32.6995 -32.6823 -32.6482 -32.6249 -32.5660
   -10.3211  -2.7493  -2.2246  -1.9037  -1.8003  -1.7720  -1.6361  -1.5826
    -1.4667  -1.3759  -1.2760  -1.1657  -1.0946  -0.9890  -0.8281  -0.7794
    -0.7188  -0.6583  -0.4706  -0.3603  -0.1119  -0.0590  -0.0427   0.1138
     0.1882   0.3386   0.4540   0.5661   0.6554   0.8173   0.8407   0.9017
     0.9931   1.0649   1.2054   1.2885   1.3660   1.4433   1.5524   1.6951
     1.7768   1.8854   2.2715   2.4171   2.5115   2.5625   2.8080   2.8621

          k =-0.0888 0.0513 0.0000 ( 17160 PWs)   bands (ev):

   -59.1729 -59.1605 -59.0902 -59.0773 -59.0609 -59.0505 -59.0202 -59.0129
   -58.9785 -58.9504 -58.9247 -58.7738 -33.6527 -33.6263 -33.6087 -33.5787
   -33.5632 -33.5381 -33.4178 -33.4093 -33.3718 -33.3553 -33.3304 -33.2601
   -33.2470 -33.1401 -33.1164 -33.1114 -33.0587 -33.0563 -33.0483 -33.0277
   -33.0033 -32.9904 -32.9488 -32.9048 -32.8930 -32.8499 -32.8311 -32.8244
   -32.7648 -32.7365 -32.7156 -32.7008 -32.6969 -32.6527 -32.5958 -32.5566
   -10.3211  -2.5845  -2.5745  -1.9266  -1.8628  -1.6643  -1.6505  -1.5568
    -1.5411  -1.3857  -1.2441  -1.1211  -1.0417  -1.0410  -0.8643  -0.7536
    -0.6303  -0.6060  -0.3944  -0.3193  -0.1268  -0.0607  -0.0223   0.0588
     0.2329   0.2880   0.6806   0.7443   0.7661   0.8341   0.9589   1.0096
     1.0244   1.0811   1.1635   1.2097   1.3122   1.3951   1.4179   1.5852
     1.7601   1.7783   2.3416   2.4660   2.5666   2.6575   2.7749   2.9183

          k =-0.0888 0.0855 0.0000 ( 17122 PWs)   bands (ev):

   -59.1856 -59.1342 -59.0987 -59.0916 -59.0614 -59.0388 -59.0264 -59.0086
   -58.9793 -58.9469 -58.9275 -58.7737 -33.6597 -33.6172 -33.5901 -33.5655
   -33.5442 -33.5334 -33.4892 -33.4133 -33.3662 -33.3403 -33.3225 -33.2709
   -33.2288 -33.2039 -33.1648 -33.1459 -33.0701 -33.0424 -33.0090 -32.9992
   -32.9683 -32.9613 -32.9261 -32.9047 -32.8870 -32.8574 -32.8251 -32.8020
   -32.7740 -32.7594 -32.7210 -32.6995 -32.6823 -32.6482 -32.6249 -32.5660
   -10.3211  -2.7493  -2.2246  -1.9037  -1.8003  -1.7720  -1.6361  -1.5825
    -1.4667  -1.3759  -1.2759  -1.1657  -1.0946  -0.9890  -0.8281  -0.7795
    -0.7188  -0.6583  -0.4706  -0.3603  -0.1119  -0.0590  -0.0427   0.1138
     0.1882   0.3387   0.4539   0.5661   0.6554   0.8173   0.8407   0.9017
     0.9931   1.0648   1.2054   1.2885   1.3659   1.4432   1.5524   1.6951
     1.7769   1.8854   2.2715   2.4172   2.5116   2.5625   2.8079   2.8621

          k =-0.0888 0.1197 0.0000 ( 17122 PWs)   bands (ev):

   -59.1856 -59.1342 -59.0986 -59.0917 -59.0614 -59.0388 -59.0264 -59.0085
   -58.9793 -58.9469 -58.9275 -58.7737 -33.6597 -33.6171 -33.5900 -33.5654
   -33.5443 -33.5334 -33.4892 -33.4133 -33.3662 -33.3403 -33.3225 -33.2709
   -33.2289 -33.2038 -33.1648 -33.1459 -33.0702 -33.0424 -33.0090 -32.9993
   -32.9683 -32.9613 -32.9261 -32.9047 -32.8870 -32.8574 -32.8249 -32.8020
   -32.7741 -32.7594 -32.7211 -32.6995 -32.6823 -32.6482 -32.6249 -32.5660
   -10.3211  -2.7493  -2.2246  -1.9037  -1.8002  -1.7720  -1.6361  -1.5825
    -1.4666  -1.3759  -1.2759  -1.1656  -1.0946  -0.9890  -0.8281  -0.7795
    -0.7188  -0.6583  -0.4706  -0.3603  -0.1119  -0.0591  -0.0427   0.1138
     0.1882   0.3387   0.4539   0.5661   0.6554   0.8173   0.8407   0.9017
     0.9931   1.0649   1.2054   1.2885   1.3659   1.4433   1.5524   1.6951
     1.7768   1.8855   2.2715   2.4172   2.5115   2.5625   2.8079   2.8621

          k =-0.0888-0.0513 0.0000 ( 17160 PWs)   bands (ev):

   -59.1729 -59.1605 -59.0901 -59.0774 -59.0612 -59.0503 -59.0204 -59.0126
   -58.9784 -58.9504 -58.9247 -58.7738 -33.6529 -33.6261 -33.6085 -33.5787
   -33.5633 -33.5381 -33.4178 -33.4093 -33.3718 -33.3555 -33.3304 -33.2602
   -33.2468 -33.1402 -33.1164 -33.1112 -33.0588 -33.0562 -33.0484 -33.0277
   -33.0031 -32.9906 -32.9488 -32.9049 -32.8930 -32.8498 -32.8312 -32.8242
   -32.7648 -32.7366 -32.7156 -32.7008 -32.6970 -32.6526 -32.5957 -32.5567
   -10.3211  -2.5846  -2.5744  -1.9266  -1.8628  -1.6644  -1.6504  -1.5568
    -1.5411  -1.3857  -1.2442  -1.1212  -1.0416  -1.0411  -0.8643  -0.7537
    -0.6303  -0.6060  -0.3944  -0.3193  -0.1268  -0.0608  -0.0224   0.0588
     0.2328   0.2880   0.6806   0.7443   0.7662   0.8341   0.9589   1.0096
     1.0244   1.0811   1.1635   1.2098   1.3122   1.3952   1.4179   1.5852
     1.7602   1.7782   2.3415   2.4661   2.5666   2.6574   2.7750   2.9183

     the Fermi energy is     1.7752 ev

!    total energy              =   -1699.52743277 Ry
     Harris-Foulkes estimate   =   -1699.52744266 Ry
     estimated scf accuracy    <       0.00000174 Ry

     The total energy is the sum of the following terms:

     one-electron contribution =  -15410.77887525 Ry
     hartree contribution      =    7699.50008722 Ry
     xc contribution           =    -245.73099959 Ry
     ewald contribution        =    6257.57712293 Ry
     electric field correction =       0.00063467 Ry
     smearing contrib. (-TS)   =      -0.09540275 Ry

     convergence has been achieved in  21 iterations
 
 BEEF-vdW xc energy contributions
           1 :   -211.003980956642     
           2 :    192.616543546067     
           3 :   -161.223771867133     
           4 :    125.173497210546     
           5 :   -92.6744193359867     
           6 :    69.2599880040497     
           7 :   -56.5973522998310     
           8 :    52.7879761222484     
           9 :   -53.8299257309142     
          10 :    55.4999087238746     
          11 :   -54.9101329220208     
          12 :    51.2078690525987     
          13 :   -45.3296298949428     
          14 :    39.0949403105445     
          15 :   -34.1520678081743     
          16 :    31.2257055540114     
          17 :   -29.9337086491391     
          18 :    29.1549614845935     
          19 :   -27.6989032845754     
          20 :    24.9092445330137     
          21 :   -20.9273291161102     
          22 :    16.5291850861852     
          23 :   -12.6743741842074     
          24 :    10.0164103197047     
          25 :   -8.61494333955130     
          26 :    7.96093982625965     
          27 :   -7.27563488350694     
          28 :    5.90828345564165     
          29 :   -3.63190392554458     
          30 :   0.708694456338378     
          31 :   -24.1014572166188     
          32 :   -18.4438096808732     

     Forces acting on atoms (Ry/au):


     negative rho (up, down):  4.760E-03 0.000E+00
     atom    1 type  1   force =     0.00267499    0.00154794   -0.00021663
     atom    2 type  1   force =    -0.00267347    0.00153802   -0.00019120
     atom    3 type  1   force =    -0.00000735   -0.00308410   -0.00018826
     atom    4 type  1   force =     0.00000948    0.00000270   -0.01124485
     atom    5 type  1   force =     0.00000448   -0.02135177    0.00846789
     atom    6 type  1   force =    -0.00000138   -0.00001841   -0.01309011
     atom    7 type  1   force =     0.01847782    0.01068115    0.00850385
     atom    8 type  1   force =    -0.01847791    0.01068504    0.00847497
     atom    9 type  1   force =    -0.00000868    0.00000596   -0.00037517
     atom   10 type  1   force =    -0.00000161    0.00014203   -0.00008186
     atom   11 type  1   force =     0.00012519   -0.00007601   -0.00006921
     atom   12 type  1   force =    -0.00012198   -0.00007333   -0.00006723
     atom   13 type  2   force =     0.00000044    0.00000077    0.00007780

     Total force =     0.043699     Total SCF correction =     0.005749
     SCF correction compared to forces is large: reduce conv_thr to get better values


     entering subroutine stress ...


     negative rho (up, down):  4.760E-03 0.000E+00
          total   stress  (Ry/bohr**3)                   (kbar)     P=  -10.08
  -0.00010643  -0.00000001  -0.00000002        -15.66     -0.00     -0.00
  -0.00000001  -0.00010645  -0.00000000         -0.00    -15.66     -0.00
  -0.00000002  -0.00000000   0.00000729         -0.00     -0.00      1.07

 !ASE

     Writing output data file calc.save
 
     init_run     :     13.53s CPU     22.20s WALL (       1 calls)
     electrons    :    592.83s CPU    938.04s WALL (       1 calls)
     forces       :      3.74s CPU      4.71s WALL (       1 calls)
     stress       :      9.68s CPU     11.49s WALL (       1 calls)

     Called by init_run:
     wfcinit      :     11.18s CPU     18.79s WALL (       1 calls)
     potinit      :      1.24s CPU      2.07s WALL (       1 calls)

     Called by electrons:
     c_bands      :    453.36s CPU    705.63s WALL (      21 calls)
     sum_band     :     72.43s CPU    120.87s WALL (      21 calls)
     v_of_rho     :     22.80s CPU     40.05s WALL (      22 calls)
     newd         :     10.15s CPU     10.51s WALL (      22 calls)
     mix_rho      :      0.90s CPU      1.63s WALL (      21 calls)
     vdW_energy   :      3.23s CPU      3.60s WALL (      58 calls)
     vdW_ffts     :     34.99s CPU     66.59s WALL (     118 calls)
     vdW_v        :      7.06s CPU     11.63s WALL (      58 calls)

     Called by c_bands:
     init_us_2    :      1.25s CPU      1.33s WALL (     900 calls)
     cegterg      :    444.68s CPU    695.85s WALL (     420 calls)

     Called by *egterg:
     h_psi        :    297.65s CPU    537.22s WALL (    2023 calls)
     s_psi        :     12.50s CPU     12.52s WALL (    2023 calls)
     g_psi        :      0.70s CPU      0.71s WALL (    1583 calls)
     cdiaghg      :     89.32s CPU     92.08s WALL (    2003 calls)

     Called by h_psi:
     add_vuspsi   :     12.62s CPU     12.64s WALL (    2023 calls)

     General routines
     calbec       :     23.62s CPU     29.74s WALL (    2483 calls)
     fft          :     52.74s CPU    100.56s WALL (    3555 calls)
     ffts         :      0.17s CPU      0.36s WALL (      43 calls)
     fftw         :    299.11s CPU    576.43s WALL (  242334 calls)
     interpolate  :      0.83s CPU      1.57s WALL (      43 calls)
     davcio       :      0.00s CPU      0.04s WALL (      20 calls)
 
     Parallel routines
     fft_scatter  :    307.04s CPU    627.56s WALL (  245932 calls)
 
     PWSCF        : 10m20.47s CPU    16m17.59s WALL

 
   This run was terminated on:  22:44:12  14Jan2018            

=------------------------------------------------------------------------------=
   JOB DONE.
=------------------------------------------------------------------------------=
Job  /afs/slac/g/suncat/bin/suncat-tsmpirun -x LD_LIBRARY_PATH -wdir /scratch/qe842458_yTzap pw.x -in pw.inp

TID   HOST_NAME   COMMAND_LINE            STATUS            TERMINATION_TIME
===== ========== ================  =======================  ===================
00000 suncat1058 pw.x -in pw.inp   Done                     01/14/2018 22:44:12
00001 suncat1058 pw.x -in pw.inp   Done                     01/14/2018 22:44:12
00002 suncat1058 pw.x -in pw.inp   Done                     01/14/2018 22:44:12
00003 suncat1058 pw.x -in pw.inp   Done                     01/14/2018 22:44:12
00004 suncat1058 pw.x -in pw.inp   Done                     01/14/2018 22:44:12
00005 suncat1058 pw.x -in pw.inp   Done                     01/14/2018 22:44:12
00006 suncat1058 pw.x -in pw.inp   Done                     01/14/2018 22:44:12
00007 suncat1058 pw.x -in pw.inp   Done                     01/14/2018 22:44:12
00008 suncat1037 pw.x -in pw.inp   Done                     01/14/2018 22:44:12
00009 suncat1037 pw.x -in pw.inp   Done                     01/14/2018 22:44:12
00010 suncat1037 pw.x -in pw.inp   Done                     01/14/2018 22:44:12
00011 suncat1037 pw.x -in pw.inp   Done                     01/14/2018 22:44:12
00012 suncat1037 pw.x -in pw.inp   Done                     01/14/2018 22:44:12
00013 suncat1037 pw.x -in pw.inp   Done                     01/14/2018 22:44:12
00014 suncat1037 pw.x -in pw.inp   Done                     01/14/2018 22:44:12
00015 suncat1037 pw.x -in pw.inp   Done                     01/14/2018 22:44:12
00016 suncat1037 pw.x -in pw.inp   Done                     01/14/2018 22:44:12
00017 suncat1037 pw.x -in pw.inp   Done                     01/14/2018 22:44:12
00018 suncat1037 pw.x -in pw.inp   Done                     01/14/2018 22:44:12
00019 suncat1037 pw.x -in pw.inp   Done                     01/14/2018 22:44:12
00020 suncat1036 pw.x -in pw.inp   Done                     01/14/2018 22:44:12
00021 suncat1036 pw.x -in pw.inp   Done                     01/14/2018 22:44:12
00022 suncat1036 pw.x -in pw.inp   Done                     01/14/2018 22:44:12
00023 suncat1036 pw.x -in pw.inp   Done                     01/14/2018 22:44:12
00024 suncat1036 pw.x -in pw.inp   Done                     01/14/2018 22:44:12
00025 suncat1036 pw.x -in pw.inp   Done                     01/14/2018 22:44:12
00026 suncat1036 pw.x -in pw.inp   Done                     01/14/2018 22:44:12
00027 suncat1036 pw.x -in pw.inp   Done                     01/14/2018 22:44:12
00028 suncat1036 pw.x -in pw.inp   Done                     01/14/2018 22:44:12
00029 suncat1036 pw.x -in pw.inp   Done                     01/14/2018 22:44:12
00030 suncat1036 pw.x -in pw.inp   Done                     01/14/2018 22:44:12
00031 suncat1036 pw.x -in pw.inp   Done                     01/14/2018 22:44:12
